Protein in INSANE! Membrane UpperLeaflet>POPC=1.0 LowerLeaflet>POPC=1.0
241666
    1AU     AUC    1  42.060  14.150   7.496
    1AU     AUC    2  42.358  14.141   7.327
    1AU     AUC    3  42.296  14.129   7.668
    1AU     AUC    4  41.783  14.157   7.335
    1AU     AUC    5  41.797  14.199   7.675
    1AU     AUC    6  41.902  14.434   7.498
    1AU     AUC    7  42.248  14.414   7.490
    1AU     AUC    8  41.862  13.902   7.499
    1AU     AUC    9  42.219  13.854   7.492
    1AU     AUC   10  42.050  13.974   7.764
    1AU     AUC   11  42.052  14.342   7.757
    1AU     AUC   12  42.054  13.989   7.230
    1AU     AUC   13  42.099  14.302   7.230
    1AU     AUC   14  42.683  14.130   7.182
    1AU     AUC   15  42.670  14.120   7.531
    1AU     AUC   16  42.593  14.100   7.883
    1AU     AUC   17  41.469  14.174   7.168
    1AU     AUC   18  41.451  14.211   7.528
    1AU     AUC   19  41.506  14.247   7.858
    1AU     AUC   20  41.758  14.765   7.468
    1AU     AUC   21  42.115  14.774   7.450
    1AU     AUC   22  42.432  14.701   7.480
    1AU     AUC   23  41.643  13.634   7.499
    1AU     AUC   24  41.998  13.552   7.465
    1AU     AUC   25  42.377  13.545   7.479
    1AU     AUC   26  42.025  13.793   8.057
    1AU     AUC   27  42.045  14.150   8.097
    1AU     AUC   28  42.092  14.513   8.050
    1AU     AUC   29  42.074  13.807   6.953
    1AU     AUC   30  42.089  14.130   6.900
    1AU     AUC   31  42.101  14.455   6.924
    1AU     AUC   32  42.309  13.894   7.993
    1AU     AUC   33  42.349  14.285   7.999
    1AU     AUC   34  42.420  13.969   7.019
    1AU     AUC   35  42.422  14.307   7.025
    1AU     AUC   36  41.747  14.045   8.011
    1AU     AUC   37  41.789  14.419   7.983
    1AU     AUC   38  41.751  13.977   7.039
    1AU     AUC   39  41.749  14.295   7.000
    1AU     AUC   40  42.597  14.424   7.324
    1AU     AUC   41  42.518  14.404   7.693
    1AU     AUC   42  41.577  14.478   7.338
    1AU     AUC   43  41.612  14.540   7.679
    1AU     AUC   44  42.562  13.826   7.364
    1AU     AUC   45  42.502  13.795   7.686
    1AU     AUC   46  41.521  13.877   7.353
    1AU     AUC   47  41.574  13.931   7.707
    1AU     AUC   48  41.945  14.701   7.754
    1AU     AUC   49  42.263  14.630   7.775
    1AU     AUC   50  41.839  13.699   7.782
    1AU     AUC   51  42.163  13.619   7.754
    1AU     AUC   52  41.908  14.590   7.190
    1AU     AUC   53  42.290  14.602   7.162
    1AU     AUC   54  41.840  13.697   7.197
    1AU     AUC   55  42.250  13.687   7.217
    1AU    AUSL   56  42.576  14.000   8.266
    1AU    AUSL   57  42.329  13.581   8.158
    1AU     AUL   58  42.610  13.587   8.374
    1AU       S   59  42.648  13.243   8.072
    1AU     LIG   60  42.514  13.060   8.434
    1AU     LIG   61  42.743  12.813   8.740
    1AU     LIG   62  42.986  12.478   8.955
    1AU     LIG   63  43.203  12.313   9.345
    1AU     LIG   64  43.152  12.199   9.817
    1AU       S   65  42.804  13.997   8.407
    1AU     LIG   66  42.671  14.032   8.844
    1AU     LIG   67  42.823  14.024   9.287
    1AU     LIG   68  43.087  13.890   9.669
    1AU     LIG   69  43.511  13.871   9.917
    1AU     LIG   70  43.905  13.981  10.179
    1AU    AUSL   71  42.154  13.915   8.395
    1AU    AUSL   72  41.918  14.339   8.433
    1AU     AUL   73  42.087  14.200   8.726
    1AU       S   74  42.280  13.816   8.582
    1AU     LIG   75  42.251  13.780   9.028
    1AU     LIG   76  42.511  13.616   9.389
    1AU     LIG   77  42.708  13.441   9.788
    1AU     LIG   78  42.741  13.240  10.229
    1AU     LIG   79  42.892  13.281  10.672
    1AU       S   80  41.650  14.094   8.639
    1AU     LIG   81  41.633  14.078   9.126
    1AU     LIG   82  41.364  14.032   9.520
    1AU     LIG   83  41.293  14.007   9.997
    1AU     LIG   84  41.204  14.278  10.388
    1AU     LIG   85  41.078  14.591  10.743
    1AU    AUSL   86  42.246  14.303   8.165
    1AU    AUSL   87  42.696  14.397   8.125
    1AU     AUL   88  42.467  14.302   8.458
    1AU       S   89  42.183  14.663   8.633
    1AU     LIG   90  42.563  14.542   8.892
    1AU     LIG   91  42.836  14.618   9.284
    1AU     LIG   92  42.865  14.732   9.765
    1AU     LIG   93  42.891  14.753  10.259
    1AU     LIG   94  42.931  14.969  10.699
    1AU       S   95  42.852  14.538   8.339
    1AU     LIG   96  43.284  14.591   8.269
    1AU     LIG   97  43.531  14.783   8.617
    1AU     LIG   98  43.786  14.985   8.959
    1AU     LIG   99  44.019  15.238   9.290
    1AU     LIG  100  44.225  15.358   9.698
    1AU    AUSL  101  42.637  14.202   6.785
    1AU    AUSL  102  42.510  14.627   6.818
    1AU     AUL  103  42.786  14.493   6.553
    1AU       S  104  42.461  14.276   6.333
    1AU     LIG  105  42.854  14.279   6.021
    1AU     LIG  106  43.077  13.967   5.750
    1AU     LIG  107  43.184  13.753   5.350
    1AU     LIG  108  43.480  13.546   5.042
    1AU     LIG  109  43.836  13.615   4.733
    1AU       S  110  42.841  14.817   6.884
    1AU     LIG  111  42.981  14.993   6.476
    1AU     LIG  112  43.218  15.183   6.100
    1AU     LIG  113  43.443  15.386   5.736
    1AU     LIG  114  43.419  15.704   5.400
    1AU     LIG  115  43.601  15.954   5.049
    1AU    AUSL  116  42.375  13.899   6.600
    1AU    AUSL  117  42.790  13.834   6.949
    1AU     AUL  118  42.791  13.976   6.628
    1AU       S  119  42.888  13.524   6.751
    1AU     LIG  120  42.984  13.111   6.487
    1AU     LIG  121  43.204  12.820   6.220
    1AU     LIG  122  43.482  12.577   5.925
    1AU     LIG  123  43.821  12.633   5.581
    1AU     LIG  124  44.282  12.671   5.436
    1AU       S  125  42.503  14.080   6.283
    1AU     LIG  126  42.663  13.774   6.019
    1AU     LIG  127  42.750  13.586   5.599
    1AU     LIG  128  42.827  13.423   5.168
    1AU     LIG  129  42.858  13.309   4.718
    1AU     LIG  130  42.699  13.286   4.278
    1AU    AUSL  131  42.216  14.304   6.765
    1AU    AUSL  132  41.962  13.937   6.738
    1AU     AUL  133  42.100  13.961   6.454
    1AU       S  134  41.655  14.016   6.288
    1AU     LIG  135  41.588  13.715   5.981
    1AU     LIG  136  41.419  13.516   5.607
    1AU     LIG  137  41.284  13.483   5.168
    1AU     LIG  138  41.198  13.232   4.772
    1AU     LIG  139  41.107  13.020   4.354
    1AU       S  140  42.308  14.392   6.434
    1AU     LIG  141  42.269  14.275   5.894
    1AU     LIG  142  42.599  14.091   5.586
    1AU     LIG  143  42.836  14.108   5.163
    1AU     LIG  144  42.904  14.348   4.733
    1AU     LIG  145  42.972  14.440   4.258
    1AU    AUSL  146  41.514  14.318   8.243
    1AU    AUSL  147  41.858  14.653   8.134
    1AU     AUL  148  41.711  14.587   8.462
    1AU       S  149  41.476  14.228   8.669
    1AU     LIG  150  41.120  14.100   8.934
    1AU     LIG  151  40.968  13.803   9.266
    1AU     LIG  152  40.776  13.591   9.658
    1AU     LIG  153  40.561  13.563  10.085
    1AU     LIG  154  40.298  13.584  10.486
    1AU       S  155  41.479  14.903   8.205
    1AU     LIG  156  41.530  15.179   8.531
    1AU     LIG  157  41.333  15.258   8.951
    1AU     LIG  158  41.048  15.373   9.310
    1AU     LIG  159  40.926  15.651   9.686
    1AU     LIG  160  40.774  15.833  10.105
    1AU    AUSL  161  41.811  14.011   8.152
    1AU    AUSL  162  41.382  13.893   8.132
    1AU     AUL  163  41.302  14.125   8.256
    1AU       S  164  41.279  13.669   8.377
    1AU     LIG  165  40.842  13.601   8.248
    1AU     LIG  166  40.530  13.269   8.391
    1AU     LIG  167  40.244  12.937   8.595
    1AU     LIG  168  39.803  12.847   8.785
    1AU     LIG  169  39.598  12.687   9.210
    1AU       S  170  41.674  13.952   8.539
    1AU     LIG  171  41.432  13.694   8.872
    1AU     LIG  172  41.432  13.569   9.302
    1AU     LIG  173  41.279  13.553   9.737
    1AU     LIG  174  41.067  13.443  10.139
    1AU     LIG  175  41.087  13.265  10.585
    1AU    AUSL  176  41.552  14.086   6.769
    1AU    AUSL  177  41.681  13.675   6.925
    1AU     AUL  178  41.724  13.702   6.613
    1AU       S  179  41.419  14.000   6.422
    1AU     LIG  180  41.136  13.945   6.076
    1AU     LIG  181  40.981  13.790   5.674
    1AU     LIG  182  40.844  13.747   5.233
    1AU     LIG  183  40.457  13.709   4.957
    1AU     LIG  184  40.073  13.802   4.681
    1AU       S  185  41.299  13.594   6.769
    1AU     LIG  186  41.000  13.345   6.519
    1AU     LIG  187  40.764  12.951   6.391
    1AU     LIG  188  40.526  12.622   6.170
    1AU     LIG  189  40.429  12.344   5.800
    1AU     LIG  190  40.480  12.206   5.342
    1AU    AUSL  191  41.846  14.360   6.556
    1AU    AUSL  192  41.349  14.445   6.913
    1AU     AUL  193  41.492  14.422   6.588
    1AU       S  194  41.100  14.639   6.727
    1AU     LIG  195  40.828  14.842   6.441
    1AU     LIG  196  40.683  14.969   6.028
    1AU     LIG  197  40.583  15.272   5.684
    1AU     LIG  198  40.194  15.363   5.405
    1AU     LIG  199  39.758  15.556   5.266
    1AU       S  200  41.760  14.233   6.254
    1AU     LIG  201  41.517  14.217   5.842
    1AU     LIG  202  41.383  14.008   5.441
    1AU     LIG  203  41.306  13.987   4.977
    1AU     LIG  204  41.364  14.185   4.534
    1AU     LIG  205  41.256  14.350   4.087
    1AU    AUSL  206  42.854  14.660   7.530
    1AU    AUSL  207  42.816  14.406   7.122
    1AU     AUL  208  43.133  14.731   7.301
    1AU       S  209  42.944  14.505   6.978
    1AU     LIG  210  43.299  14.673   6.730
    1AU     LIG  211  43.459  14.775   6.304
    1AU     LIG  212  43.705  15.008   5.979
    1AU     LIG  213  44.023  15.309   5.803
    1AU     LIG  214  44.390  15.337   5.480
    1AU       S  215  43.300  14.725   7.730
    1AU     LIG  216  43.726  14.700   7.504
    1AU     LIG  217  44.170  14.824   7.501
    1AU     LIG  218  44.595  15.003   7.521
    1AU     LIG  219  44.977  15.267   7.482
    1AU     LIG  220   0.126  15.723   7.450
    1AU    AUSL  221  43.060  14.256   7.448
    1AU    AUSL  222  42.967  13.931   7.786
    1AU     AUL  223  43.127  14.169   7.928
    1AU       S  224  43.291  14.348   7.523
    1AU     LIG  225  43.713  14.189   7.452
    1AU     LIG  226  44.136  14.352   7.293
    1AU     LIG  227  44.545  14.591   7.205
    1AU     LIG  228  44.984  14.787   7.239
    1AU     LIG  229   0.446  14.853   7.143
    1AU       S  230  43.235  13.781   7.662
    1AU     LIG  231  43.628  13.502   7.735
    1AU     LIG  232  44.011  13.218   7.762
    1AU     LIG  233  44.459  13.083   7.769
    1AU     LIG  234  44.899  12.988   7.789
    1AU     LIG  235   0.326  13.046   7.678
    1AU    AUSL  236  42.719  14.272   7.716
    1AU    AUSL  237  42.518  14.657   7.806
    1AU     AUL  238  42.875  14.605   7.875
    1AU       S  239  42.841  14.843   8.270
    1AU     LIG  240  43.186  15.099   8.375
    1AU     LIG  241  43.416  15.280   8.732
    1AU     LIG  242  43.762  15.510   8.927
    1AU     LIG  243  44.051  15.868   8.971
    1AU     LIG  244  44.177  16.321   8.993
    1AU       S  245  43.305  14.534   7.724
    1AU     LIG  246  43.653  14.389   7.928
    1AU     LIG  247  44.089  14.398   7.801
    1AU     LIG  248  44.538  14.516   7.714
    1AU     LIG  249  44.970  14.722   7.747
    1AU     LIG  250   0.436  14.802   7.655
    1AU    AUSL  251  41.417  14.778   7.507
    1AU    AUSL  252  41.512  14.541   7.879
    1AU     AUL  253  41.211  14.883   7.760
    1AU       S  254  41.347  14.739   8.173
    1AU     LIG  255  41.111  14.868   8.554
    1AU     LIG  256  40.859  15.042   8.917
    1AU     LIG  257  40.475  14.899   9.149
    1AU     LIG  258  40.068  15.034   9.362
    1AU     LIG  259  39.729  15.362   9.468
    1AU       S  260  41.421  15.139   7.426
    1AU     LIG  261  40.893  15.091   7.397
    1AU     LIG  262  40.410  15.332   7.436
    1AU     LIG  263  40.107  15.776   7.457
    1AU     LIG  264  39.680  16.070   7.450
    1AU     LIG  265  39.214  16.145   7.677
    1AU    AUSL  266  41.373  14.373   7.331
    1AU    AUSL  267  41.519  14.816   7.089
    1AU     AUL  268  41.207  14.713   7.187
    1AU       S  269  40.955  14.235   6.988
    1AU     LIG  270  40.724  14.692   7.046
    1AU     LIG  271  40.432  14.945   6.772
    1AU     LIG  272  39.942  14.938   6.734
    1AU     LIG  273  39.471  15.060   6.595
    1AU     LIG  274  38.962  15.040   6.635
    1AU       S  275  41.370  15.071   6.914
    1AU     LIG  276  40.965  15.209   6.759
    1AU     LIG  277  40.830  15.360   6.329
    1AU     LIG  278  40.743  15.687   6.009
    1AU     LIG  279  40.581  16.141   6.069
    1AU     LIG  280  40.259  16.492   6.028
    1AU    AUSL  281  41.136  14.433   7.711
    1AU    AUSL  282  41.078  14.069   7.401
    1AU     AUL  283  40.978  14.395   7.434
    1AU       S  284  40.858  13.992   7.671
    1AU     LIG  285  40.491  13.792   7.382
    1AU     LIG  286  40.096  13.576   7.242
    1AU     LIG  287  39.656  13.667   7.278
    1AU     LIG  288  39.255  13.686   7.030
    1AU     LIG  289  39.029  13.485   6.648
    1AU       S  290  41.034  14.449   7.931
    1AU     LIG  291  40.839  14.859   8.094
    1AU     LIG  292  40.355  14.943   8.099
    1AU     LIG  293  39.882  15.013   8.215
    1AU     LIG  294  39.458  14.910   8.449
    1AU     LIG  295  39.001  14.680   8.473
    1AU    AUSL  296  42.796  13.564   7.595
    1AU    AUSL  297  42.558  13.825   7.877
    1AU     AUL  298  42.880  13.705   7.989
    1AU       S  299  43.120  13.499   7.626
    1AU     LIG  300  43.304  13.115   7.569
    1AU     LIG  301  43.695  12.886   7.515
    1AU     LIG  302  44.153  12.794   7.465
    1AU     LIG  303  44.607  12.629   7.516
    1AU     LIG  304  44.906  12.226   7.543
    1AU       S  305  42.771  13.265   7.966
    1AU     LIG  306  43.024  13.028   8.314
    1AU     LIG  307  43.262  12.806   8.655
    1AU     LIG  308  43.501  12.561   8.980
    1AU     LIG  309  43.873  12.417   9.214
    1AU     LIG  310  44.259  12.499   9.480
    1AU    AUSL  311  42.780  13.943   7.363
    1AU    AUSL  312  42.663  13.489   7.191
    1AU     AUL  313  42.968  13.660   7.216
    1AU       S  314  43.302  13.841   7.462
    1AU     LIG  315  43.503  13.480   7.245
    1AU     LIG  316  43.942  13.262   7.256
    1AU     LIG  317  44.435  13.181   7.269
    1AU     LIG  318  44.889  13.000   7.265
    1AU     LIG  319   0.351  13.068   7.150
    1AU       S  320  42.856  13.312   6.921
    1AU     LIG  321  42.674  12.896   6.864
    1AU     LIG  322  42.909  12.572   6.604
    1AU     LIG  323  43.197  12.318   6.311
    1AU     LIG  324  43.585  12.085   6.172
    1AU     LIG  325  43.900  11.721   6.240
    1AU    AUSL  326  41.258  13.687   7.553
    1AU    AUSL  327  41.392  13.924   7.141
    1AU     AUL  328  41.036  13.791   7.266
    1AU       S  329  41.208  13.770   6.844
    1AU     LIG  330  40.745  13.577   6.897
    1AU     LIG  331  40.458  13.238   6.678
    1AU     LIG  332  40.159  12.936   6.389
    1AU     LIG  333  39.683  12.816   6.171
    1AU     LIG  334  39.393  12.609   5.845
    1AU       S  335  40.866  13.747   7.704
    1AU     LIG  336  40.794  13.383   7.400
    1AU     LIG  337  40.414  13.186   7.193
    1AU     LIG  338  39.931  13.069   7.306
    1AU     LIG  339  39.613  12.740   7.109
    1AU     LIG  340  39.148  12.633   7.173
    1AU    AUSL  341  41.363  14.071   7.744
    1AU    AUSL  342  41.599  13.678   7.819
    1AU     AUL  343  41.270  13.649   7.890
    1AU       S  344  41.303  13.419   8.280
    1AU     LIG  345  40.968  13.077   8.207
    1AU     LIG  346  40.573  12.748   8.241
    1AU     LIG  347  40.177  12.440   8.369
    1AU     LIG  348  39.819  12.145   8.576
    1AU     LIG  349  39.648  11.663   8.872
    1AU       S  350  40.942  13.981   7.862
    1AU     LIG  351  40.451  13.734   7.935
    1AU     LIG  352  40.006  13.803   7.716
    1AU     LIG  353  39.541  13.715   7.791
    1AU     LIG  354  39.088  13.632   7.868
    1AU     LIG  355  38.720  13.447   8.093
    1AU    AUSL  356  42.141  14.894   7.904
    1AU    AUSL  357  41.707  14.923   7.803
    1AU     AUL  358  41.940  14.978   8.179
    1AU       S  359  41.583  15.127   7.916
    1AU     LIG  360  41.176  15.274   8.130
    1AU     LIG  361  41.025  15.380   8.553
    1AU     LIG  362  40.896  15.661   8.906
    1AU     LIG  363  40.670  16.073   9.036
    1AU     LIG  364  40.349  16.441   9.005
    1AU       S  365  42.189  15.307   7.959
    1AU     LIG  366  42.169  15.431   8.407
    1AU     LIG  367  42.153  15.873   8.620
    1AU     LIG  368  42.507  16.211   8.785
    1AU     LIG  369  42.374  16.507   9.141
    1AU     LIG  370  42.122  16.794   9.416
    1AU    AUSL  371  41.992  15.127   7.551
    1AU    AUSL  372  42.269  15.044   7.182
    1AU     AUL  373  42.230  15.385   7.334
    1AU       S  374  42.009  15.344   7.758
    1AU     LIG  375  41.868  15.690   8.074
    1AU     LIG  376  41.804  16.095   8.326
    1AU     LIG  377  41.884  16.553   8.283
    1AU     LIG  378  41.947  16.959   8.565
    1AU     LIG  379  41.923  17.422   8.616
    1AU       S  380  41.996  15.229   6.972
    1AU     LIG  381  42.233  15.662   6.887
    1AU     LIG  382  42.619  15.947   6.825
    1AU     LIG  383  42.791  16.392   6.748
    1AU     LIG  384  42.805  16.830   6.965
    1AU     LIG  385  42.536  17.222   6.882
    1AU    AUSL  386  42.434  15.016   7.590
    1AU    AUSL  387  42.370  14.709   8.219
    1AU     AUL  388  42.518  14.969   7.966
    1AU       S  389  42.612  14.781   8.416
    1AU     LIG  390  42.988  14.795   8.749
    1AU     LIG  391  43.272  14.920   9.076
    1AU     LIG  392  43.499  15.254   9.302
    1AU     LIG  393  43.705  15.407   9.696
    1AU     LIG  394  43.657  15.652  10.096
    1AU       S  395  42.380  15.372   7.776
    1AU     LIG  396  42.750  15.550   8.038
    1AU     LIG  397  42.810  16.047   8.172
    1AU     LIG  398  42.764  16.526   8.315
    1AU     LIG  399  42.751  17.028   8.321
    1AU     LIG  400  42.731  17.523   8.365
    1AU    AUSL  401  41.985  13.479   7.912
    1AU    AUSL  402  42.400  13.441   7.730
    1AU     AUL  403  42.192  13.299   8.109
    1AU       S  404  41.917  12.950   7.978
    1AU     LIG  405  42.035  12.618   8.226
    1AU     LIG  406  41.783  12.280   8.372
    1AU     LIG  407  41.754  11.840   8.382
    1AU     LIG  408  41.962  11.519   8.628
    1AU     LIG  409  41.758  11.150   8.831
    1AU       S  410  42.544  13.190   7.790
    1AU     LIG  411  42.636  12.752   8.032
    1AU     LIG  412  42.932  12.517   8.359
    1AU     LIG  413  43.302  12.285   8.588
    1AU     LIG  414  43.686  12.085   8.824
    1AU     LIG  415  44.061  11.760   8.870
    1AU    AUSL  416  41.641  13.295   7.643
    1AU    AUSL  417  41.750  13.602   8.247
    1AU     AUL  418  41.657  13.338   7.999
    1AU       S  419  41.720  12.908   7.811
    1AU     LIG  420  41.632  12.475   7.905
    1AU     LIG  421  41.484  12.057   8.008
    1AU     LIG  422  41.279  11.654   8.065
    1AU     LIG  423  41.177  11.269   8.254
    1AU     LIG  424  41.425  10.934   8.423
    1AU       S  425  41.518  13.497   8.433
    1AU     LIG  426  41.083  13.306   8.691
    1AU     LIG  427  40.806  12.908   8.682
    1AU     LIG  428  40.806  12.457   8.848
    1AU     LIG  429  40.772  12.177   9.249
    1AU     LIG  430  40.625  12.212   9.702
    1AU    AUSL  431  42.074  13.188   7.600
    1AU    AUSL  432  41.849  13.469   7.299
    1AU     AUL  433  41.744  13.124   7.397
    1AU       S  434  42.027  12.998   7.066
    1AU     LIG  435  41.710  12.617   7.013
    1AU     LIG  436  41.425  12.201   7.029
    1AU     LIG  437  41.100  11.838   6.907
    1AU     LIG  438  41.242  11.428   6.728
    1AU     LIG  439  41.232  10.990   6.658
    1AU       S  440  42.068  12.990   7.737
    1AU     LIG  441  42.112  12.528   7.731
    1AU     LIG  442  42.008  12.105   7.938
    1AU     LIG  443  42.193  11.728   8.163
    1AU     LIG  444  42.221  11.272   8.254
    1AU     LIG  445  42.413  10.861   8.385
    1AU    AUSL  446  42.098  14.773   6.860
    1AU    AUSL  447  42.526  14.710   7.247
    1AU     AUL  448  42.393  14.953   6.867
    1AU       S  449  41.999  15.190   6.753
    1AU     LIG  450  42.352  15.363   6.504
    1AU     LIG  451  42.423  15.825   6.365
    1AU     LIG  452  42.409  16.254   6.127
    1AU     LIG  453  42.179  16.583   5.844
    1AU     LIG  454  42.063  17.038   5.713
    1AU       S  455  42.756  14.916   7.137
    1AU     LIG  456  43.188  15.142   6.959
    1AU     LIG  457  43.450  15.222   6.565
    1AU     LIG  458  43.667  15.467   6.206
    1AU     LIG  459  43.960  15.796   6.010
    1AU     LIG  460  44.215  16.217   6.010
    1AU    AUSL  461  41.902  14.820   7.265
    1AU    AUSL  462  41.791  14.488   6.959
    1AU     AUL  463  41.757  14.802   6.817
    1AU       S  464  41.818  15.184   7.109
    1AU     LIG  465  41.816  15.661   7.177
    1AU     LIG  466  41.964  16.122   7.060
    1AU     LIG  467  41.940  16.597   6.837
    1AU     LIG  468  42.053  17.087   6.669
    1AU     LIG  469  41.731  17.410   6.449
    1AU       S  470  41.322  14.852   6.668
    1AU     LIG  471  41.269  15.088   6.311
    1AU     LIG  472  41.109  15.213   5.899
    1AU     LIG  473  41.060  15.404   5.494
    1AU     LIG  474  40.930  15.700   5.173
    1AU     LIG  475  40.743  16.058   4.941
    1AU    AUSL  476  42.045  13.444   6.887
    1AU    AUSL  477  41.428  13.471   7.221
    1AU     AUL  478  41.682  13.323   6.960
    1AU       S  479  41.225  13.452   7.000
    1AU     LIG  480  40.904  13.099   6.968
    1AU     LIG  481  40.605  12.765   6.849
    1AU     LIG  482  40.333  12.453   6.651
    1AU     LIG  483  40.166  12.068   6.434
    1AU     LIG  484  39.860  11.748   6.247
    1AU       S  485  42.063  13.060   6.843
    1AU     LIG  486  42.162  12.639   6.719
    1AU     LIG  487  41.898  12.248   6.671
    1AU     LIG  488  41.817  11.975   6.305
    1AU     LIG  489  41.852  11.575   6.099
    1AU     LIG  490  41.994  11.135   6.149
    1AU    AUSL  491  42.268  13.370   7.270
    1AU    AUSL  492  42.348  13.734   6.990
    1AU     AUL  493  42.399  13.367   6.928
    1AU       S  494  42.227  13.016   7.185
    1AU     LIG  495  42.162  12.527   7.222
    1AU     LIG  496  41.923  12.091   7.165
    1AU     LIG  497  42.011  11.659   6.972
    1AU     LIG  498  42.191  11.214   6.922
    1AU     LIG  499  42.328  10.875   6.621
    1AU       S  500  42.672  13.514   6.605
    1AU     LIG  501  42.469  13.126   6.463
    1AU     LIG  502  42.668  12.775   6.203
    1AU     LIG  503  42.942  12.519   5.894
    1AU     LIG  504  43.213  12.385   5.521
    1AU     LIG  505  43.422  12.132   5.173
    2AU     AUC  506  18.269  15.281   7.497
    2AU     AUC  507  18.565  15.282   7.329
    2AU     AUC  508  18.527  15.271   7.667
    2AU     AUC  509  17.992  15.271   7.335
    2AU     AUC  510  18.007  15.318   7.678
    2AU     AUC  511  18.102  15.554   7.496
    2AU     AUC  512  18.450  15.547   7.485
    2AU     AUC  513  18.077  15.012   7.499
    2AU     AUC  514  18.435  15.011   7.503
    2AU     AUC  515  18.272  15.107   7.763
    2AU     AUC  516  18.262  15.474   7.750
    2AU     AUC  517  18.269  15.120   7.230
    2AU     AUC  518  18.300  15.433   7.227
    2AU     AUC  519  18.901  15.280   7.180
    2AU     AUC  520  18.889  15.263   7.517
    2AU     AUC  521  18.821  15.248   7.870
    2AU     AUC  522  17.677  15.277   7.173
    2AU     AUC  523  17.659  15.315   7.533
    2AU     AUC  524  17.719  15.358   7.864
    2AU     AUC  525  17.946  15.878   7.463
    2AU     AUC  526  18.301  15.901   7.439
    2AU     AUC  527  18.624  15.840   7.472
    2AU     AUC  528  17.878  14.730   7.495
    2AU     AUC  529  18.209  14.673   7.461
    2AU     AUC  530  18.598  14.688   7.478
    2AU     AUC  531  18.255  14.931   8.058
    2AU     AUC  532  18.269  15.289   8.094
    2AU     AUC  533  18.295  15.650   8.041
    2AU     AUC  534  18.301  14.953   6.944
    2AU     AUC  535  18.290  15.262   6.888
    2AU     AUC  536  18.294  15.580   6.921
    2AU     AUC  537  18.542  15.044   7.988
    2AU     AUC  538  18.567  15.431   7.990
    2AU     AUC  539  18.620  15.106   7.019
    2AU     AUC  540  18.621  15.453   7.032
    2AU     AUC  541  17.971  15.167   8.013
    2AU     AUC  542  17.996  15.541   7.981
    2AU     AUC  543  17.969  15.103   7.042
    2AU     AUC  544  17.951  15.410   6.997
    2AU     AUC  545  18.812  15.563   7.330
    2AU     AUC  546  18.738  15.544   7.693
    2AU     AUC  547  17.776  15.583   7.336
    2AU     AUC  548  17.809  15.651   7.679
    2AU     AUC  549  18.776  14.967   7.347
    2AU     AUC  550  18.728  14.939   7.674
    2AU     AUC  551  17.734  14.988   7.366
    2AU     AUC  552  17.796  15.039   7.715
    2AU     AUC  553  18.132  15.826   7.746
    2AU     AUC  554  18.458  15.770   7.763
    2AU     AUC  555  18.069  14.822   7.786
    2AU     AUC  556  18.395  14.760   7.761
    2AU     AUC  557  18.099  15.708   7.183
    2AU     AUC  558  18.485  15.732   7.161
    2AU     AUC  559  18.058  14.803   7.206
    2AU     AUC  560  18.448  14.832   7.211
    2AU    AUSL  561  18.811  15.174   8.239
    2AU    AUSL  562  18.548  14.747   8.154
    2AU     AUL  563  18.851  14.771   8.339
    2AU       S  564  18.889  14.390   8.088
    2AU     LIG  565  18.752  14.253   8.470
    2AU     LIG  566  18.895  13.928   8.746
    2AU     LIG  567  19.116  13.623   9.013
    2AU     LIG  568  19.365  13.307   9.240
    2AU     LIG  569  19.490  13.158   9.657
    2AU       S  570  19.039  15.183   8.370
    2AU     LIG  571  18.905  15.193   8.817
    2AU     LIG  572  19.032  15.034   9.241
    2AU     LIG  573  19.308  14.889   9.600
    2AU     LIG  574  19.630  14.919   9.949
    2AU     LIG  575  19.930  15.166  10.226
    2AU    AUSL  576  18.398  15.078   8.402
    2AU    AUSL  577  18.145  15.478   8.433
    2AU     AUL  578  18.328  15.367   8.735
    2AU       S  579  18.524  14.994   8.565
    2AU     LIG  580  18.414  14.931   8.984
    2AU     LIG  581  18.617  14.744   9.358
    2AU     LIG  582  18.856  14.679   9.760
    2AU     LIG  583  18.917  14.658  10.235
    2AU     LIG  584  19.052  14.487  10.659
    2AU       S  585  17.911  15.209   8.634
    2AU     LIG  586  17.950  15.201   9.120
    2AU     LIG  587  17.654  15.207   9.498
    2AU     LIG  588  17.427  15.224   9.924
    2AU     LIG  589  17.326  15.354  10.367
    2AU     LIG  590  17.200  15.581  10.774
    2AU    AUSL  591  18.463  15.455   8.152
    2AU    AUSL  592  18.903  15.586   8.118
    2AU     AUL  593  18.692  15.474   8.447
    2AU       S  594  18.378  15.830   8.618
    2AU     LIG  595  18.739  15.710   8.890
    2AU     LIG  596  19.005  15.894   9.247
    2AU     LIG  597  19.009  16.004   9.726
    2AU     LIG  598  19.028  16.001  10.218
    2AU     LIG  599  19.176  16.031  10.678
    2AU       S  600  19.047  15.734   8.285
    2AU     LIG  601  19.467  15.726   8.340
    2AU     LIG  602  19.738  15.927   8.657
    2AU     LIG  603  19.986  16.144   8.987
    2AU     LIG  604  20.163  16.288   9.400
    2AU     LIG  605  20.498  16.228   9.734
    2AU    AUSL  606  18.809  15.321   6.886
    2AU    AUSL  607  18.701  15.755   6.821
    2AU     AUL  608  18.990  15.568   6.628
    2AU       S  609  18.644  15.500   6.348
    2AU     LIG  610  19.066  15.481   6.066
    2AU     LIG  611  19.220  15.172   5.762
    2AU     LIG  612  19.373  14.975   5.371
    2AU     LIG  613  19.765  14.923   5.097
    2AU     LIG  614  20.133  14.949   4.786
    2AU       S  615  19.021  16.007   6.816
    2AU     LIG  616  19.218  16.174   6.438
    2AU     LIG  617  19.442  16.385   6.072
    2AU     LIG  618  19.636  16.517   5.652
    2AU     LIG  619  19.639  16.758   5.235
    2AU     LIG  620  19.736  17.126   4.949
    2AU    AUSL  621  18.600  15.073   6.581
    2AU    AUSL  622  19.015  14.941   6.922
    2AU     AUL  623  18.977  15.099   6.647
    2AU       S  624  19.083  14.637   6.690
    2AU     LIG  625  19.156  14.255   6.377
    2AU     LIG  626  19.339  13.840   6.316
    2AU     LIG  627  19.614  13.609   6.011
    2AU     LIG  628  19.911  13.622   5.627
    2AU     LIG  629  20.297  13.720   5.339
    2AU       S  630  18.709  15.306   6.331
    2AU     LIG  631  18.808  14.974   6.052
    2AU     LIG  632  18.916  14.786   5.613
    2AU     LIG  633  18.950  14.763   5.136
    2AU     LIG  634  18.926  14.659   4.662
    2AU     LIG  635  19.097  14.550   4.227
    2AU    AUSL  636  18.406  15.437   6.758
    2AU    AUSL  637  18.175  15.053   6.696
    2AU     AUL  638  18.321  15.094   6.433
    2AU       S  639  17.870  15.114   6.289
    2AU     LIG  640  17.997  14.899   5.949
    2AU     LIG  641  17.734  14.748   5.607
    2AU     LIG  642  17.492  14.763   5.208
    2AU     LIG  643  17.288  14.799   4.788
    2AU     LIG  644  17.224  14.687   4.334
    2AU       S  645  18.486  15.548   6.449
    2AU     LIG  646  18.378  15.323   5.970
    2AU     LIG  647  18.719  15.264   5.623
    2AU     LIG  648  18.968  15.284   5.200
    2AU     LIG  649  19.011  15.479   4.736
    2AU     LIG  650  19.061  15.766   4.335
    2AU    AUSL  651  17.740  15.436   8.251
    2AU    AUSL  652  18.054  15.776   8.128
    2AU     AUL  653  17.913  15.715   8.459
    2AU       S  654  17.739  15.331   8.684
    2AU     LIG  655  17.491  15.033   8.916
    2AU     LIG  656  17.238  14.955   9.311
    2AU     LIG  657  17.013  14.982   9.729
    2AU     LIG  658  16.806  15.111  10.136
    2AU     LIG  659  16.597  15.111  10.569
    2AU       S  660  17.652  16.023   8.211
    2AU     LIG  661  17.678  16.169   8.632
    2AU     LIG  662  17.498  16.365   9.013
    2AU     LIG  663  17.252  16.557   9.355
    2AU     LIG  664  17.214  16.862   9.712
    2AU     LIG  665  17.093  17.134  10.076
    2AU    AUSL  666  18.046  15.138   8.158
    2AU    AUSL  667  17.618  15.012   8.150
    2AU     AUL  668  17.539  15.244   8.278
    2AU       S  669  17.528  14.788   8.403
    2AU     LIG  670  17.083  14.718   8.265
    2AU     LIG  671  16.834  14.348   8.428
    2AU     LIG  672  16.599  13.986   8.618
    2AU     LIG  673  16.395  13.658   8.884
    2AU     LIG  674  16.245  13.568   9.317
    2AU       S  675  17.928  15.076   8.544
    2AU     LIG  676  17.927  14.757   8.885
    2AU     LIG  677  17.715  14.733   9.296
    2AU     LIG  678  17.492  14.753   9.719
    2AU     LIG  679  17.245  14.744  10.133
    2AU     LIG  680  17.088  14.450  10.488
    2AU    AUSL  681  17.769  15.196   6.777
    2AU    AUSL  682  17.960  14.825   6.989
    2AU     AUL  683  17.938  14.823   6.637
    2AU       S  684  17.638  15.098   6.415
    2AU     LIG  685  17.467  14.894   6.041
    2AU     LIG  686  17.270  14.995   5.629
    2AU     LIG  687  17.050  15.034   5.208
    2AU     LIG  688  16.780  14.925   4.826
    2AU     LIG  689  16.471  15.007   4.469
    2AU       S  690  17.527  14.680   6.785
    2AU     LIG  691  17.259  14.316   6.664
    2AU     LIG  692  16.987  14.036   6.445
    2AU     LIG  693  16.797  13.750   6.150
    2AU     LIG  694  16.693  13.502   5.765
    2AU     LIG  695  16.900  13.252   5.401
    2AU    AUSL  696  18.034  15.480   6.548
    2AU    AUSL  697  17.539  15.543   6.917
    2AU     AUL  698  17.670  15.520   6.595
    2AU       S  699  17.272  15.742   6.734
    2AU     LIG  700  17.161  16.053   6.335
    2AU     LIG  701  17.112  16.162   5.870
    2AU     LIG  702  16.849  16.254   5.484
    2AU     LIG  703  16.383  16.296   5.362
    2AU     LIG  704  15.945  16.401   5.190
    2AU       S  705  17.950  15.347   6.261
    2AU     LIG  706  17.703  15.309   5.848
    2AU     LIG  707  17.668  15.219   5.394
    2AU     LIG  708  17.461  15.257   4.977
    2AU     LIG  709  17.393  15.506   4.575
    2AU     LIG  710  17.533  15.842   4.255
    2AU    AUSL  711  19.053  15.796   7.523
    2AU    AUSL  712  19.053  15.610   7.099
    2AU     AUL  713  19.327  15.921   7.355
    2AU       S  714  19.137  15.837   6.964
    2AU     LIG  715  19.471  15.786   6.670
    2AU     LIG  716  19.666  15.950   6.280
    2AU     LIG  717  19.928  16.234   6.013
    2AU     LIG  718  20.119  16.331   5.595
    2AU     LIG  719  20.135  16.606   5.224
    2AU       S  720  19.452  15.677   7.739
    2AU     LIG  721  19.898  15.843   7.632
    2AU     LIG  722  20.384  15.888   7.519
    2AU     LIG  723  20.854  16.029   7.493
    2AU     LIG  724  21.084  16.418   7.648
    2AU     LIG  725  21.205  16.870   7.705
    2AU    AUSL  726  19.265  15.391   7.408
    2AU    AUSL  727  19.201  15.057   7.724
    2AU     AUL  728  19.557  15.161   7.744
    2AU       S  729  19.411  15.481   7.464
    2AU     LIG  730  19.903  15.372   7.443
    2AU     LIG  731  20.411  15.402   7.356
    2AU     LIG  732  20.884  15.547   7.264
    2AU     LIG  733  21.299  15.782   7.163
    2AU     LIG  734  21.688  16.047   7.062
    2AU       S  735  19.462  14.761   7.543
    2AU     LIG  736  19.883  14.591   7.679
    2AU     LIG  737  20.277  14.325   7.751
    2AU     LIG  738  20.742  14.199   7.734
    2AU     LIG  739  21.189  14.350   7.746
    2AU     LIG  740  21.592  14.500   7.938
    2AU    AUSL  741  18.963  15.416   7.733
    2AU    AUSL  742  18.705  15.802   7.784
    2AU     AUL  743  19.033  15.864   7.829
    2AU       S  744  19.023  16.035   8.256
    2AU     LIG  745  19.412  16.241   8.404
    2AU     LIG  746  19.708  16.475   8.690
    2AU     LIG  747  19.903  16.889   8.857
    2AU     LIG  748  20.153  17.320   8.813
    2AU     LIG  749  20.582  17.472   8.949
    2AU       S  750  19.301  15.503   7.885
    2AU     LIG  751  19.809  15.490   8.013
    2AU     LIG  752  20.255  15.500   7.841
    2AU     LIG  753  20.734  15.562   7.754
    2AU     LIG  754  21.195  15.674   7.664
    2AU     LIG  755  21.566  15.777   7.947
    2AU    AUSL  756  17.615  15.877   7.504
    2AU    AUSL  757  17.705  15.653   7.884
    2AU     AUL  758  17.394  15.986   7.744
    2AU       S  759  17.551  15.838   8.149
    2AU     LIG  760  17.413  15.721   8.573
    2AU     LIG  761  17.230  15.926   8.966
    2AU     LIG  762  16.938  16.133   9.296
    2AU     LIG  763  16.552  16.205   9.584
    2AU     LIG  764  16.106  16.310   9.733
    2AU       S  765  17.631  16.251   7.426
    2AU     LIG  766  17.165  16.271   7.358
    2AU     LIG  767  16.757  16.562   7.416
    2AU     LIG  768  16.387  16.902   7.462
    2AU     LIG  769  15.949  17.053   7.597
    2AU     LIG  770  15.518  17.153   7.772
    2AU    AUSL  771  17.576  15.469   7.332
    2AU    AUSL  772  17.700  15.924   7.084
    2AU     AUL  773  17.396  15.810   7.193
    2AU       S  774  17.175  15.275   6.980
    2AU     LIG  775  16.840  15.632   7.041
    2AU     LIG  776  16.384  15.869   6.961
    2AU     LIG  777  15.901  16.050   6.877
    2AU     LIG  778  15.409  16.202   6.784
    2AU     LIG  779  14.949  16.185   6.569
    2AU       S  780  17.544  16.171   6.912
    2AU     LIG  781  17.414  16.483   6.597
    2AU     LIG  782  17.367  16.817   6.280
    2AU     LIG  783  17.243  17.264   6.319
    2AU     LIG  784  17.026  17.657   6.149
    2AU     LIG  785  16.644  17.918   6.024
    2AU    AUSL  786  17.337  15.532   7.706
    2AU    AUSL  787  17.292  15.157   7.414
    2AU     AUL  788  17.173  15.472   7.419
    2AU       S  789  17.094  15.078   7.680
    2AU     LIG  790  16.777  15.017   7.303
    2AU     LIG  791  16.331  14.788   7.255
    2AU     LIG  792  15.842  14.773   7.275
    2AU     LIG  793  15.379  14.741   7.178
    2AU     LIG  794  14.941  14.693   7.147
    2AU       S  795  17.232  15.545   7.930
    2AU     LIG  796  16.828  15.670   7.777
    2AU     LIG  797  16.395  15.821   7.924
    2AU     LIG  798  15.990  16.058   8.054
    2AU     LIG  799  15.534  16.225   8.037
    2AU     LIG  800  15.073  16.201   8.130
    2AU    AUSL  801  18.994  14.700   7.548
    2AU    AUSL  802  18.804  14.963   7.868
    2AU     AUL  803  19.134  14.861   7.941
    2AU       S  804  19.291  14.595   7.572
    2AU     LIG  805  19.553  14.243   7.482
    2AU     LIG  806  19.944  14.004   7.510
    2AU     LIG  807  20.400  13.893   7.471
    2AU     LIG  808  20.826  13.715   7.326
    2AU     LIG  809  21.160  13.336   7.307
    2AU       S  810  19.017  14.423   7.966
    2AU     LIG  811  19.212  14.080   8.282
    2AU     LIG  812  19.401  13.847   8.636
    2AU     LIG  813  19.654  13.630   8.969
    2AU     LIG  814  19.924  13.647   9.376
    2AU     LIG  815  20.238  13.681   9.752
    2AU    AUSL  816  18.981  15.081   7.325
    2AU    AUSL  817  18.853  14.589   7.149
    2AU     AUL  818  19.126  14.733   7.164
    2AU       S  819  19.471  14.957   7.332
    2AU     LIG  820  19.777  14.609   7.178
    2AU     LIG  821  20.196  14.368   7.245
    2AU     LIG  822  20.673  14.254   7.231
    2AU     LIG  823  21.153  14.253   7.225
    2AU     LIG  824  21.580  14.211   6.969
    2AU       S  825  19.044  14.408   6.831
    2AU     LIG  826  18.904  13.971   6.854
    2AU     LIG  827  19.028  13.561   6.662
    2AU     LIG  828  19.320  13.324   6.387
    2AU     LIG  829  19.530  13.097   6.030
    2AU     LIG  830  19.725  12.669   5.966
    2AU    AUSL  831  17.485  14.784   7.568
    2AU    AUSL  832  17.597  15.029   7.137
    2AU     AUL  833  17.254  14.865   7.283
    2AU       S  834  17.461  14.857   6.870
    2AU     LIG  835  16.996  14.692   6.894
    2AU     LIG  836  16.686  14.402   6.654
    2AU     LIG  837  16.478  14.146   6.299
    2AU     LIG  838  16.330  13.861   5.961
    2AU     LIG  839  15.927  13.762   5.756
    2AU       S  840  17.052  14.826   7.711
    2AU     LIG  841  16.780  14.523   7.424
    2AU     LIG  842  16.361  14.285   7.361
    2AU     LIG  843  15.930  14.328   7.559
    2AU     LIG  844  15.527  14.059   7.689
    2AU     LIG  845  15.134  13.773   7.776
    2AU    AUSL  846  17.575  15.179   7.758
    2AU    AUSL  847  17.823  14.792   7.835
    2AU     AUL  848  17.473  14.784   7.909
    2AU       S  849  17.546  14.553   8.296
    2AU     LIG  850  17.245  14.230   8.142
    2AU     LIG  851  16.905  13.880   8.196
    2AU     LIG  852  16.750  13.509   8.477
    2AU     LIG  853  16.590  13.072   8.632
    2AU     LIG  854  16.223  12.757   8.701
    2AU       S  855  17.127  15.089   7.859
    2AU     LIG  856  16.621  15.194   7.756
    2AU     LIG  857  16.156  15.105   7.627
    2AU     LIG  858  15.859  14.788   7.783
    2AU     LIG  859  15.480  14.564   7.635
    2AU     LIG  860  15.038  14.467   7.609
    2AU    AUSL  861  18.317  16.026   7.888
    2AU    AUSL  862  17.882  16.045   7.807
    2AU     AUL  863  18.116  16.100   8.177
    2AU       S  864  17.752  16.244   7.920
    2AU     LIG  865  17.560  16.518   8.254
    2AU     LIG  866  17.399  16.731   8.650
    2AU     LIG  867  17.195  17.099   8.872
    2AU     LIG  868  17.060  17.557   8.839
    2AU     LIG  869  16.762  17.869   9.005
    2AU       S  870  18.310  16.444   7.934
    2AU     LIG  871  18.423  16.514   8.339
    2AU     LIG  872  18.526  16.929   8.541
    2AU     LIG  873  18.489  17.365   8.729
    2AU     LIG  874  18.488  17.609   9.162
    2AU     LIG  875  18.566  17.918   9.533
    2AU    AUSL  876  18.153  16.246   7.533
    2AU    AUSL  877  18.444  16.170   7.173
    2AU     AUL  878  18.386  16.511   7.309
    2AU       S  879  18.154  16.463   7.722
    2AU     LIG  880  18.175  16.923   7.878
    2AU     LIG  881  18.306  17.257   8.191
    2AU     LIG  882  18.164  17.684   8.347
    2AU     LIG  883  17.968  18.132   8.321
    2AU     LIG  884  17.907  18.545   8.536
    2AU       S  885  18.161  16.339   6.948
    2AU     LIG  886  18.488  16.699   6.853
    2AU     LIG  887  18.691  17.147   6.797
    2AU     LIG  888  19.019  17.532   6.868
    2AU     LIG  889  19.121  18.009   6.845
    2AU     LIG  890  19.039  18.392   6.594
    2AU    AUSL  891  18.607  16.166   7.583
    2AU    AUSL  892  18.561  15.868   8.204
    2AU     AUL  893  18.663  16.135   7.971
    2AU       S  894  18.804  15.960   8.411
    2AU     LIG  895  19.175  15.933   8.738
    2AU     LIG  896  19.457  16.160   9.030
    2AU     LIG  897  19.712  16.519   9.213
    2AU     LIG  898  19.750  16.878   9.512
    2AU     LIG  899  19.567  17.154   9.857
    2AU       S  900  18.515  16.517   7.756
    2AU     LIG  901  18.663  16.851   8.037
    2AU     LIG  902  18.840  17.228   8.239
    2AU     LIG  903  19.182  17.554   8.233
    2AU     LIG  904  19.210  17.987   8.364
    2AU     LIG  905  19.156  18.413   8.536
    2AU    AUSL  906  18.216  14.596   7.911
    2AU    AUSL  907  18.631  14.577   7.748
    2AU     AUL  908  18.432  14.451   8.130
    2AU       S  909  18.181  14.096   7.980
    2AU     LIG  910  18.225  13.820   8.295
    2AU     LIG  911  18.007  13.447   8.426
    2AU     LIG  912  18.058  13.007   8.420
    2AU     LIG  913  18.238  12.659   8.633
    2AU     LIG  914  18.143  12.493   9.065
    2AU       S  915  18.781  14.350   7.810
    2AU     LIG  916  18.727  13.922   8.064
    2AU     LIG  917  18.997  13.607   8.356
    2AU     LIG  918  19.300  13.334   8.640
    2AU     LIG  919  19.582  13.018   8.864
    2AU     LIG  920  19.881  12.628   8.869
    2AU    AUSL  921  17.892  14.425   7.635
    2AU    AUSL  922  17.996  14.728   8.252
    2AU     AUL  923  17.880  14.461   7.998
    2AU       S  924  18.003  14.037   7.842
    2AU     LIG  925  17.882  13.617   7.950
    2AU     LIG  926  17.737  13.178   8.054
    2AU     LIG  927  17.466  12.797   8.202
    2AU     LIG  928  17.248  12.354   8.163
    2AU     LIG  929  17.359  11.870   8.092
    2AU       S  930  17.766  14.617   8.442
    2AU     LIG  931  17.387  14.318   8.674
    2AU     LIG  932  17.112  13.941   8.659
    2AU     LIG  933  16.898  13.657   8.962
    2AU     LIG  934  16.794  13.585   9.423
    2AU     LIG  935  16.889  13.391   9.861
    2AU    AUSL  936  18.327  14.315   7.590
    2AU    AUSL  937  18.074  14.444   7.235
    2AU     AUL  938  17.957  14.183   7.405
    2AU       S  939  18.323  14.164   7.121
    2AU     LIG  940  18.051  13.773   7.069
    2AU     LIG  941  17.848  13.323   6.989
    2AU     LIG  942  17.732  12.868   6.846
    2AU     LIG  943  17.544  12.403   6.841
    2AU     LIG  944  17.529  11.925   6.730
    2AU       S  945  18.326  14.135   7.732
    2AU     LIG  946  18.374  13.673   7.747
    2AU     LIG  947  18.287  13.289   8.003
    2AU     LIG  948  18.315  12.830   8.018
    2AU     LIG  949  18.554  12.479   8.203
    2AU     LIG  950  18.689  12.021   8.128
    2AU    AUSL  951  18.285  15.893   6.849
    2AU    AUSL  952  18.722  15.855   7.248
    2AU     AUL  953  18.574  16.086   6.874
    2AU       S  954  18.173  16.301   6.724
    2AU     LIG  955  18.110  16.718   6.507
    2AU     LIG  956  18.390  17.066   6.334
    2AU     LIG  957  18.519  17.319   5.941
    2AU     LIG  958  18.564  17.619   5.559
    2AU     LIG  959  18.508  18.042   5.340
    2AU       S  960  18.954  16.096   7.137
    2AU     LIG  961  19.423  16.257   6.933
    2AU     LIG  962  19.682  16.406   6.535
    2AU     LIG  963  19.865  16.755   6.231
    2AU     LIG  964  20.063  17.235   6.197
    2AU     LIG  965  20.259  17.696   6.089
    2AU    AUSL  966  18.087  15.932   7.253
    2AU    AUSL  967  17.980  15.605   6.953
    2AU     AUL  968  17.939  15.911   6.809
    2AU       S  969  17.992  16.303   7.082
    2AU     LIG  970  17.994  16.796   7.010
    2AU     LIG  971  18.136  17.185   6.770
    2AU     LIG  972  18.147  17.643   6.640
    2AU     LIG  973  17.845  18.000   6.511
    2AU     LIG  974  17.635  18.409   6.334
    2AU       S  975  17.504  15.953   6.667
    2AU     LIG  976  17.696  16.164   6.323
    2AU     LIG  977  17.546  16.431   5.961
    2AU     LIG  978  17.363  16.472   5.513
    2AU     LIG  979  17.342  16.716   5.105
    2AU     LIG  980  17.113  16.976   4.790
    2AU    AUSL  981  18.292  14.575   6.869
    2AU    AUSL  982  17.674  14.595   7.231
    2AU     AUL  983  17.934  14.434   6.930
    2AU       S  984  17.500  14.557   7.036
    2AU     LIG  985  17.174  14.301   7.183
    2AU     LIG  986  16.768  14.099   7.051
    2AU     LIG  987  16.591  13.842   6.694
    2AU     LIG  988  16.386  13.561   6.384
    2AU     LIG  989  16.151  13.381   6.027
    2AU       S  990  18.343  14.163   6.900
    2AU     LIG  991  18.456  13.753   6.728
    2AU     LIG  992  18.179  13.412   6.613
    2AU     LIG  993  18.051  13.016   6.417
    2AU     LIG  994  18.007  12.809   5.987
    2AU     LIG  995  18.012  12.426   5.712
    2AU    AUSL  996  18.463  14.607   7.304
    2AU    AUSL  997  18.569  14.891   6.964
    2AU     AUL  998  18.611  14.539   6.911
    2AU       S  999  18.557  14.192   7.209
    2AU     LIG 1000  18.565  13.735   7.240
    2AU     LIG 1001  18.343  13.361   7.124
    2AU     LIG 1002  18.248  12.962   6.905
    2AU     LIG 1003  18.493  12.559   6.836
    2AU     LIG 1004  18.516  12.057   6.803
    2AU       S 1005  18.848  14.652   6.548
    2AU     LIG 1006  18.658  14.228   6.493
    2AU     LIG 1007  18.814  13.821   6.285
    2AU     LIG 1008  19.090  13.534   5.981
    2AU     LIG 1009  19.354  13.376   5.616
    2AU     LIG 1010  19.574  13.344   5.188
    3AU     AUC 1011  43.054   8.348   7.501
    3AU     AUC 1012  43.350   8.348   7.334
    3AU     AUC 1013  43.311   8.338   7.672
    3AU     AUC 1014  42.778   8.338   7.338
    3AU     AUC 1015  42.792   8.386   7.681
    3AU     AUC 1016  42.887   8.622   7.499
    3AU     AUC 1017  43.236   8.614   7.490
    3AU     AUC 1018  42.862   8.080   7.502
    3AU     AUC 1019  43.219   8.078   7.508
    3AU     AUC 1020  43.056   8.174   7.768
    3AU     AUC 1021  43.047   8.541   7.754
    3AU     AUC 1022  43.055   8.186   7.234
    3AU     AUC 1023  43.086   8.499   7.230
    3AU     AUC 1024  43.687   8.344   7.186
    3AU     AUC 1025  43.673   8.329   7.523
    3AU     AUC 1026  43.605   8.314   7.875
    3AU     AUC 1027  42.464   8.345   7.175
    3AU     AUC 1028  42.445   8.384   7.535
    3AU     AUC 1029  42.503   8.427   7.866
    3AU     AUC 1030  42.732   8.946   7.465
    3AU     AUC 1031  43.087   8.968   7.442
    3AU     AUC 1032  43.410   8.906   7.476
    3AU     AUC 1033  42.662   7.799   7.499
    3AU     AUC 1034  42.991   7.740   7.469
    3AU     AUC 1035  43.380   7.753   7.485
    3AU     AUC 1036  43.037   7.998   8.064
    3AU     AUC 1037  43.052   8.358   8.099
    3AU     AUC 1038  43.079   8.719   8.045
    3AU     AUC 1039  43.086   8.018   6.949
    3AU     AUC 1040  43.077   8.327   6.892
    3AU     AUC 1041  43.083   8.645   6.924
    3AU     AUC 1042  43.324   8.113   7.993
    3AU     AUC 1043  43.350   8.498   7.995
    3AU     AUC 1044  43.406   8.169   7.025
    3AU     AUC 1045  43.408   8.517   7.037
    3AU     AUC 1046  42.755   8.237   8.018
    3AU     AUC 1047  42.781   8.610   7.984
    3AU     AUC 1048  42.755   8.170   7.045
    3AU     AUC 1049  42.739   8.476   6.999
    3AU     AUC 1050  43.598   8.629   7.335
    3AU     AUC 1051  43.522   8.611   7.698
    3AU     AUC 1052  42.563   8.651   7.337
    3AU     AUC 1053  42.595   8.720   7.681
    3AU     AUC 1054  43.560   8.031   7.353
    3AU     AUC 1055  43.511   8.005   7.679
    3AU     AUC 1056  42.518   8.056   7.369
    3AU     AUC 1057  42.581   8.109   7.718
    3AU     AUC 1058  42.917   8.894   7.749
    3AU     AUC 1059  43.242   8.837   7.767
    3AU     AUC 1060  42.853   7.888   7.792
    3AU     AUC 1061  43.176   7.826   7.768
    3AU     AUC 1062  42.886   8.775   7.186
    3AU     AUC 1063  43.273   8.797   7.164
    3AU     AUC 1064  42.841   7.870   7.211
    3AU     AUC 1065  43.232   7.897   7.216
    3AU    AUSL 1066  43.592   8.241   8.244
    3AU    AUSL 1067  43.327   7.818   8.158
    3AU     AUL 1068  43.629   7.839   8.346
    3AU       S 1069  43.679   7.464   8.090
    3AU     LIG 1070  43.555   7.306   8.463
    3AU     LIG 1071  43.700   6.929   8.666
    3AU     LIG 1072  43.913   6.584   8.896
    3AU     LIG 1073  44.155   6.372   9.237
    3AU     LIG 1074  44.331   6.367   9.676
    3AU       S 1075  43.820   8.250   8.372
    3AU     LIG 1076  43.684   8.260   8.820
    3AU     LIG 1077  43.830   8.170   9.258
    3AU     LIG 1078  44.132   8.106   9.619
    3AU     LIG 1079  44.431   8.178   9.980
    3AU     LIG 1080  44.774   8.078  10.292
    3AU    AUSL 1081  43.180   8.148   8.409
    3AU    AUSL 1082  42.927   8.547   8.437
    3AU     AUL 1083  43.110   8.439   8.742
    3AU       S 1084  43.300   8.065   8.566
    3AU     LIG 1085  43.219   8.006   8.984
    3AU     LIG 1086  43.422   7.869   9.369
    3AU     LIG 1087  43.694   7.852   9.754
    3AU     LIG 1088  43.791   7.725  10.210
    3AU     LIG 1089  43.778   7.510  10.649
    3AU       S 1090  42.696   8.278   8.634
    3AU     LIG 1091  42.758   8.251   9.108
    3AU     LIG 1092  42.502   8.195   9.495
    3AU     LIG 1093  42.253   8.278   9.883
    3AU     LIG 1094  42.168   8.627  10.211
    3AU     LIG 1095  42.142   8.914  10.592
    3AU    AUSL 1096  43.246   8.524   8.157
    3AU    AUSL 1097  43.686   8.653   8.125
    3AU     AUL 1098  43.475   8.543   8.453
    3AU       S 1099  43.159   8.901   8.621
    3AU     LIG 1100  43.511   8.772   8.901
    3AU     LIG 1101  43.769   8.949   9.269
    3AU     LIG 1102  43.751   9.057   9.752
    3AU     LIG 1103  43.693   9.044  10.243
    3AU     LIG 1104  43.733   8.996  10.725
    3AU       S 1105  43.831   8.804   8.295
    3AU     LIG 1106  44.246   8.808   8.368
    3AU     LIG 1107  44.519   9.008   8.681
    3AU     LIG 1108  44.753   9.220   9.022
    3AU     LIG 1109  44.931   9.403   9.418
    3AU     LIG 1110   0.256   9.410   9.759
    3AU    AUSL 1111  43.598   8.384   6.892
    3AU    AUSL 1112  43.492   8.818   6.823
    3AU     AUL 1113  43.781   8.631   6.633
    3AU       S 1114  43.437   8.558   6.351
    3AU     LIG 1115  43.813   8.516   6.004
    3AU     LIG 1116  44.010   8.208   5.717
    3AU     LIG 1117  44.188   7.997   5.339
    3AU     LIG 1118  44.526   7.914   5.006
    3AU     LIG 1119  44.812   7.815   4.634
    3AU       S 1120  43.817   9.071   6.819
    3AU     LIG 1121  44.019   9.246   6.448
    3AU     LIG 1122  44.252   9.475   6.090
    3AU     LIG 1123  44.412   9.553   5.641
    3AU     LIG 1124  44.550   9.765   5.235
    3AU     LIG 1125  44.499  10.140   4.942
    3AU    AUSL 1126  43.388   8.135   6.587
    3AU    AUSL 1127  43.800   8.002   6.930
    3AU     AUL 1128  43.766   8.162   6.656
    3AU       S 1129  43.871   7.701   6.696
    3AU     LIG 1130  43.983   7.361   6.365
    3AU     LIG 1131  44.232   6.976   6.275
    3AU     LIG 1132  44.493   6.751   5.952
    3AU     LIG 1133  44.832   6.682   5.617
    3AU     LIG 1134   0.184   6.762   5.292
    3AU       S 1135  43.502   8.367   6.336
    3AU     LIG 1136  43.595   8.027   6.063
    3AU     LIG 1137  43.692   7.815   5.642
    3AU     LIG 1138  43.750   7.771   5.182
    3AU     LIG 1139  43.755   7.712   4.721
    3AU     LIG 1140  43.911   7.642   4.292
    3AU    AUSL 1141  43.195   8.501   6.762
    3AU    AUSL 1142  42.963   8.118   6.700
    3AU     AUL 1143  43.112   8.157   6.439
    3AU       S 1144  42.666   8.179   6.286
    3AU     LIG 1145  42.756   7.970   5.923
    3AU     LIG 1146  42.479   7.750   5.627
    3AU     LIG 1147  42.241   7.745   5.229
    3AU     LIG 1148  42.029   7.780   4.805
    3AU     LIG 1149  42.011   7.845   4.341
    3AU       S 1150  43.277   8.610   6.450
    3AU     LIG 1151  43.172   8.378   5.973
    3AU     LIG 1152  43.501   8.299   5.617
    3AU     LIG 1153  43.735   8.290   5.186
    3AU     LIG 1154  43.736   8.421   4.703
    3AU     LIG 1155  43.910   8.639   4.307
    3AU    AUSL 1156  42.523   8.506   8.253
    3AU    AUSL 1157  42.839   8.845   8.130
    3AU     AUL 1158  42.695   8.783   8.463
    3AU       S 1159  42.516   8.402   8.688
    3AU     LIG 1160  42.302   8.066   8.915
    3AU     LIG 1161  42.066   7.977   9.320
    3AU     LIG 1162  41.866   7.943   9.750
    3AU     LIG 1163  41.495   7.927  10.040
    3AU     LIG 1164  41.179   8.163  10.297
    3AU       S 1165  42.438   9.086   8.211
    3AU     LIG 1166  42.499   9.297   8.596
    3AU     LIG 1167  42.364   9.463   9.017
    3AU     LIG 1168  42.048   9.602   9.330
    3AU     LIG 1169  41.882   9.780   9.738
    3AU     LIG 1170  41.708  10.030  10.104
    3AU    AUSL 1171  42.830   8.208   8.161
    3AU    AUSL 1172  42.401   8.081   8.150
    3AU     AUL 1173  42.322   8.314   8.279
    3AU       S 1174  42.303   7.860   8.404
    3AU     LIG 1175  41.859   7.737   8.233
    3AU     LIG 1176  41.673   7.309   8.352
    3AU     LIG 1177  41.423   7.004   8.627
    3AU     LIG 1178  41.188   6.714   8.923
    3AU     LIG 1179  40.937   6.718   9.323
    3AU       S 1180  42.708   8.145   8.548
    3AU     LIG 1181  42.752   7.812   8.868
    3AU     LIG 1182  42.530   7.734   9.265
    3AU     LIG 1183  42.337   7.737   9.703
    3AU     LIG 1184  42.125   7.560  10.093
    3AU     LIG 1185  42.066   7.288  10.489
    3AU    AUSL 1186  42.556   8.263   6.778
    3AU    AUSL 1187  42.745   7.893   6.993
    3AU     AUL 1188  42.723   7.892   6.641
    3AU       S 1189  42.432   8.167   6.405
    3AU     LIG 1190  42.238   7.996   6.026
    3AU     LIG 1191  42.023   8.031   5.613
    3AU     LIG 1192  41.798   8.021   5.200
    3AU     LIG 1193  41.502   7.991   4.831
    3AU     LIG 1194  41.273   8.188   4.460
    3AU       S 1195  42.314   7.738   6.785
    3AU     LIG 1196  42.111   7.305   6.691
    3AU     LIG 1197  41.855   6.959   6.505
    3AU     LIG 1198  41.697   6.657   6.183
    3AU     LIG 1199  41.453   6.484   5.811
    3AU     LIG 1200  41.324   6.300   5.383
    3AU    AUSL 1201  42.825   8.545   6.551
    3AU    AUSL 1202  42.327   8.611   6.919
    3AU     AUL 1203  42.461   8.584   6.595
    3AU       S 1204  42.064   8.800   6.740
    3AU     LIG 1205  41.887   9.064   6.369
    3AU     LIG 1206  41.858   9.229   5.924
    3AU     LIG 1207  41.618   9.309   5.521
    3AU     LIG 1208  41.222   9.491   5.340
    3AU     LIG 1209  40.893   9.795   5.162
    3AU       S 1210  42.748   8.417   6.265
    3AU     LIG 1211  42.502   8.411   5.859
    3AU     LIG 1212  42.457   8.225   5.427
    3AU     LIG 1213  42.252   8.214   4.998
    3AU     LIG 1214  42.240   8.299   4.522
    3AU     LIG 1215  42.407   8.534   4.122
    3AU    AUSL 1216  43.835   8.864   7.528
    3AU    AUSL 1217  43.840   8.676   7.104
    3AU     AUL 1218  44.117   8.981   7.363
    3AU       S 1219  43.927   8.902   6.970
    3AU     LIG 1220  44.289   8.879   6.705
    3AU     LIG 1221  44.502   9.077   6.324
    3AU     LIG 1222  44.734   9.314   5.969
    3AU     LIG 1223  44.928   9.539   5.577
    3AU     LIG 1224   0.283   9.725   5.317
    3AU       S 1225  44.245   8.733   7.747
    3AU     LIG 1226  44.709   8.696   7.609
    3AU     LIG 1227   0.143   8.924   7.560
    3AU     LIG 1228   0.609   9.105   7.500
    3AU     LIG 1229   0.845   9.547   7.505
    3AU     LIG 1230   0.996   9.979   7.687
    3AU    AUSL 1231  44.048   8.459   7.416
    3AU    AUSL 1232  43.986   8.123   7.729
    3AU     AUL 1233  44.358   8.234   7.740
    3AU       S 1234  44.166   8.536   7.472
    3AU     LIG 1235  44.488   8.557   7.161
    3AU     LIG 1236  44.956   8.643   7.151
    3AU     LIG 1237   0.430   8.705   7.185
    3AU     LIG 1238   0.892   8.796   7.151
    3AU     LIG 1239   1.356   8.904   7.009
    3AU       S 1240  44.233   7.853   7.526
    3AU     LIG 1241  44.618   7.755   7.716
    3AU     LIG 1242   0.014   7.515   7.792
    3AU     LIG 1243   0.483   7.507   7.741
    3AU     LIG 1244   0.916   7.654   7.861
    3AU     LIG 1245   1.324   7.434   7.967
    3AU    AUSL 1246  43.746   8.481   7.740
    3AU    AUSL 1247  43.489   8.868   7.790
    3AU     AUL 1248  43.826   8.922   7.837
    3AU       S 1249  43.812   9.101   8.262
    3AU     LIG 1250  44.186   9.325   8.440
    3AU     LIG 1251  44.505   9.565   8.700
    3AU     LIG 1252  44.685   9.999   8.845
    3AU     LIG 1253   0.025  10.342   8.847
    3AU     LIG 1254   0.249  10.770   8.887
    3AU       S 1255  44.085   8.556   7.901
    3AU     LIG 1256  44.572   8.530   8.075
    3AU     LIG 1257   0.054   8.600   7.998
    3AU     LIG 1258   0.513   8.733   7.863
    3AU     LIG 1259   0.988   8.811   7.749
    3AU     LIG 1260   1.376   9.095   7.875
    3AU    AUSL 1261  42.402   8.946   7.505
    3AU    AUSL 1262  42.490   8.721   7.885
    3AU     AUL 1263  42.181   9.056   7.748
    3AU       S 1264  42.332   8.909   8.157
    3AU     LIG 1265  42.189   8.879   8.607
    3AU     LIG 1266  41.959   9.149   8.943
    3AU     LIG 1267  41.648   9.277   9.293
    3AU     LIG 1268  41.316   9.366   9.632
    3AU     LIG 1269  40.887   9.377   9.844
    3AU       S 1270  42.410   9.319   7.425
    3AU     LIG 1271  41.931   9.435   7.441
    3AU     LIG 1272  41.515   9.748   7.428
    3AU     LIG 1273  41.114  10.084   7.391
    3AU     LIG 1274  40.655  10.286   7.462
    3AU     LIG 1275  40.334  10.342   7.813
    3AU    AUSL 1276  42.362   8.537   7.334
    3AU    AUSL 1277  42.489   8.992   7.085
    3AU     AUL 1278  42.182   8.878   7.196
    3AU       S 1279  41.965   8.342   6.980
    3AU     LIG 1280  41.658   8.707   7.049
    3AU     LIG 1281  41.246   8.953   6.951
    3AU     LIG 1282  40.776   9.092   6.879
    3AU     LIG 1283  40.283   9.149   6.876
    3AU     LIG 1284  39.785   9.166   6.891
    3AU       S 1285  42.329   9.236   6.907
    3AU     LIG 1286  42.144   9.490   6.543
    3AU     LIG 1287  41.966   9.690   6.149
    3AU     LIG 1288  41.732  10.080   5.979
    3AU     LIG 1289  41.448  10.485   5.966
    3AU     LIG 1290  41.222  10.869   6.117
    3AU    AUSL 1291  42.122   8.602   7.707
    3AU    AUSL 1292  42.078   8.225   7.416
    3AU     AUL 1293  41.959   8.537   7.422
    3AU       S 1294  41.881   8.139   7.686
    3AU     LIG 1295  41.474   8.014   7.402
    3AU     LIG 1296  41.016   7.803   7.325
    3AU     LIG 1297  40.544   7.722   7.217
    3AU     LIG 1298  40.069   7.709   7.199
    3AU     LIG 1299  39.706   7.663   6.967
    3AU       S 1300  42.013   8.622   7.928
    3AU     LIG 1301  41.653   8.867   7.825
    3AU     LIG 1302  41.178   8.856   7.925
    3AU     LIG 1303  40.710   8.950   8.056
    3AU     LIG 1304  40.218   8.916   8.090
    3AU     LIG 1305  39.770   9.015   8.225
    3AU    AUSL 1306  43.775   7.765   7.554
    3AU    AUSL 1307  43.588   8.028   7.874
    3AU     AUL 1308  43.917   7.925   7.947
    3AU       S 1309  44.090   7.667   7.577
    3AU     LIG 1310  44.410   7.365   7.451
    3AU     LIG 1311  44.828   7.153   7.453
    3AU     LIG 1312   0.067   6.731   7.506
    3AU     LIG 1313   0.466   6.576   7.695
    3AU     LIG 1314   0.918   6.679   7.763
    3AU       S 1315  43.802   7.485   7.962
    3AU     LIG 1316  44.014   7.147   8.264
    3AU     LIG 1317  44.215   6.869   8.574
    3AU     LIG 1318  44.444   6.676   8.926
    3AU     LIG 1319  44.765   6.711   9.278
    3AU     LIG 1320   0.162   6.810   9.529
    3AU    AUSL 1321  43.767   8.146   7.331
    3AU    AUSL 1322  43.635   7.650   7.156
    3AU     AUL 1323  43.904   7.789   7.172
    3AU       S 1324  44.244   8.035   7.325
    3AU     LIG 1325  44.606   7.778   7.196
    3AU     LIG 1326   0.030   7.752   7.345
    3AU     LIG 1327   0.425   7.590   7.225
    3AU     LIG 1328   0.864   7.573   7.328
    3AU     LIG 1329   1.236   7.358   7.133
    3AU       S 1330  43.833   7.471   6.830
    3AU     LIG 1331  43.898   7.016   6.756
    3AU     LIG 1332  44.053   6.597   6.582
    3AU     LIG 1333  44.421   6.426   6.358
    3AU     LIG 1334  44.622   5.986   6.323
    3AU     LIG 1335   0.031   5.725   6.284
    3AU    AUSL 1336  42.270   7.853   7.572
    3AU    AUSL 1337  42.380   8.096   7.137
    3AU     AUL 1338  42.032   7.934   7.281
    3AU       S 1339  42.248   7.922   6.871
    3AU     LIG 1340  41.807   7.708   6.799
    3AU     LIG 1341  41.553   7.381   6.531
    3AU     LIG 1342  41.367   7.068   6.220
    3AU     LIG 1343  40.989   6.919   5.974
    3AU     LIG 1344  40.620   6.840   5.680
    3AU       S 1345  41.850   7.901   7.723
    3AU     LIG 1346  41.591   7.537   7.563
    3AU     LIG 1347  41.142   7.357   7.540
    3AU     LIG 1348  40.695   7.466   7.661
    3AU     LIG 1349  40.304   7.269   7.891
    3AU     LIG 1350  39.994   6.950   7.693
    3AU    AUSL 1351  42.360   8.248   7.759
    3AU    AUSL 1352  42.611   7.863   7.837
    3AU     AUL 1353  42.268   7.841   7.912
    3AU       S 1354  42.329   7.637   8.318
    3AU     LIG 1355  42.112   7.321   8.048
    3AU     LIG 1356  41.872   6.900   8.102
    3AU     LIG 1357  41.604   6.597   8.374
    3AU     LIG 1358  41.337   6.281   8.613
    3AU     LIG 1359  41.045   5.913   8.693
    3AU       S 1360  41.935   8.161   7.870
    3AU     LIG 1361  41.475   8.389   7.760
    3AU     LIG 1362  41.045   8.266   7.596
    3AU     LIG 1363  40.652   8.008   7.640
    3AU     LIG 1364  40.270   7.773   7.666
    3AU     LIG 1365  39.877   7.648   7.789
    3AU    AUSL 1366  43.103   9.095   7.892
    3AU    AUSL 1367  42.668   9.113   7.809
    3AU     AUL 1368  42.900   9.167   8.182
    3AU       S 1369  42.539   9.313   7.920
    3AU     LIG 1370  42.199   9.511   8.193
    3AU     LIG 1371  42.039   9.569   8.630
    3AU     LIG 1372  41.898   9.902   8.929
    3AU     LIG 1373  41.654  10.319   8.948
    3AU     LIG 1374  41.293  10.600   8.809
    3AU       S 1375  43.106   9.498   7.936
    3AU     LIG 1376  43.248   9.525   8.339
    3AU     LIG 1377  43.342   9.942   8.535
    3AU     LIG 1378  43.310  10.349   8.791
    3AU     LIG 1379  43.261  10.616   9.195
    3AU     LIG 1380  43.198  11.031   9.423
    3AU    AUSL 1381  42.939   9.314   7.536
    3AU    AUSL 1382  43.232   9.238   7.176
    3AU     AUL 1383  43.162   9.580   7.324
    3AU       S 1384  42.952   9.550   7.755
    3AU     LIG 1385  43.093   9.972   8.043
    3AU     LIG 1386  43.147  10.370   8.290
    3AU     LIG 1387  42.956  10.793   8.413
    3AU     LIG 1388  42.765  11.236   8.381
    3AU     LIG 1389  42.507  11.591   8.552
    3AU       S 1390  42.961   9.399   6.956
    3AU     LIG 1391  43.386   9.664   6.892
    3AU     LIG 1392  43.616  10.097   6.828
    3AU     LIG 1393  44.012  10.412   6.852
    3AU     LIG 1394  44.296  10.799   6.762
    3AU     LIG 1395  44.244  11.231   6.585
    3AU    AUSL 1396  43.394   9.231   7.586
    3AU    AUSL 1397  43.345   8.937   8.209
    3AU     AUL 1398  43.458   9.196   7.972
    3AU       S 1399  43.586   9.030   8.416
    3AU     LIG 1400  43.940   9.008   8.756
    3AU     LIG 1401  44.223   9.260   9.028
    3AU     LIG 1402  44.484   9.616   9.217
    3AU     LIG 1403  44.673   9.840   9.582
    3AU     LIG 1404  44.606  10.087   9.979
    3AU       S 1405  43.313   9.580   7.762
    3AU     LIG 1406  43.579   9.797   8.064
    3AU     LIG 1407  43.659  10.227   8.233
    3AU     LIG 1408  43.955  10.594   8.299
    3AU     LIG 1409  44.124  11.000   8.495
    3AU     LIG 1410  44.168  11.457   8.435
    3AU    AUSL 1411  42.997   7.654   7.921
    3AU    AUSL 1412  43.411   7.644   7.754
    3AU     AUL 1413  43.221   7.519   8.139
    3AU       S 1414  42.957   7.171   7.994
    3AU     LIG 1415  42.913   6.842   8.274
    3AU     LIG 1416  42.717   6.446   8.288
    3AU     LIG 1417  42.953   6.074   8.422
    3AU     LIG 1418  43.037   5.797   8.789
    3AU     LIG 1419  42.945   5.704   9.246
    3AU       S 1420  43.563   7.413   7.813
    3AU     LIG 1421  43.563   6.974   8.056
    3AU     LIG 1422  43.858   6.636   8.271
    3AU     LIG 1423  44.162   6.349   8.517
    3AU     LIG 1424  44.475   6.001   8.650
    3AU     LIG 1425  44.882   5.720   8.724
    3AU    AUSL 1426  42.672   7.493   7.640
    3AU    AUSL 1427  42.776   7.798   8.257
    3AU     AUL 1428  42.651   7.530   8.002
    3AU       S 1429  42.775   7.103   7.851
    3AU     LIG 1430  42.421   6.897   8.093
    3AU     LIG 1431  42.181   6.484   8.160
    3AU     LIG 1432  42.202   6.020   8.219
    3AU     LIG 1433  41.896   5.647   8.177
    3AU     LIG 1434  41.938   5.182   8.237
    3AU       S 1435  42.549   7.677   8.446
    3AU     LIG 1436  42.276   7.216   8.534
    3AU     LIG 1437  41.939   6.903   8.610
    3AU     LIG 1438  41.691   6.627   8.899
    3AU     LIG 1439  41.589   6.667   9.362
    3AU     LIG 1440  41.553   6.504   9.819
    3AU    AUSL 1441  43.108   7.380   7.595
    3AU    AUSL 1442  42.855   7.511   7.241
    3AU     AUL 1443  42.737   7.253   7.415
    3AU       S 1444  43.095   7.234   7.123
    3AU     LIG 1445  42.773   6.875   7.073
    3AU     LIG 1446  42.541   6.450   7.053
    3AU     LIG 1447  42.291   6.034   7.017
    3AU     LIG 1448  42.235   5.540   7.025
    3AU     LIG 1449  42.377   5.048   7.015
    3AU       S 1450  43.105   7.193   7.744
    3AU     LIG 1451  43.168   6.730   7.822
    3AU     LIG 1452  43.077   6.295   7.946
    3AU     LIG 1453  43.338   5.934   8.100
    3AU     LIG 1454  43.546   5.622   8.392
    3AU     LIG 1455  43.663   5.148   8.444
    3AU    AUSL 1456  43.076   8.957   6.854
    3AU    AUSL 1457  43.506   8.920   7.250
    3AU     AUL 1458  43.368   9.146   6.874
    3AU       S 1459  42.971   9.365   6.733
    3AU     LIG 1460  43.078   9.745   6.500
    3AU     LIG 1461  43.339  10.101   6.362
    3AU     LIG 1462  43.393  10.371   5.970
    3AU     LIG 1463  43.416  10.716   5.641
    3AU     LIG 1464  43.333  11.107   5.384
    3AU       S 1465  43.742   9.161   7.145
    3AU     LIG 1466  44.194   9.344   6.961
    3AU     LIG 1467  44.434   9.531   6.582
    3AU     LIG 1468  44.623   9.872   6.295
    3AU     LIG 1469  44.894  10.281   6.263
    3AU     LIG 1470   0.261  10.505   6.029
    3AU    AUSL 1471  42.875   9.000   7.255
    3AU    AUSL 1472  42.768   8.672   6.955
    3AU     AUL 1473  42.728   8.979   6.811
    3AU       S 1474  42.780   9.376   7.082
    3AU     LIG 1475  42.904   9.878   6.973
    3AU     LIG 1476  43.053  10.289   6.770
    3AU     LIG 1477  42.893  10.761   6.708
    3AU     LIG 1478  42.694  11.218   6.709
    3AU     LIG 1479  42.341  11.528   6.555
    3AU       S 1480  42.293   9.016   6.664
    3AU     LIG 1481  42.390   9.145   6.244
    3AU     LIG 1482  42.330   9.425   5.878
    3AU     LIG 1483  42.055   9.607   5.542
    3AU     LIG 1484  42.027   9.932   5.194
    3AU     LIG 1485  41.892  10.324   4.973
    3AU    AUSL 1486  43.076   7.641   6.875
    3AU    AUSL 1487  42.457   7.663   7.234
    3AU     AUL 1488  42.716   7.503   6.934
    3AU       S 1489  42.282   7.623   7.045
    3AU     LIG 1490  41.930   7.386   7.179
    3AU     LIG 1491  41.609   7.111   6.960
    3AU     LIG 1492  41.389   6.809   6.657
    3AU     LIG 1493  41.213   6.555   6.292
    3AU     LIG 1494  41.080   6.142   6.127
    3AU       S 1495  43.119   7.234   6.900
    3AU     LIG 1496  43.176   6.815   6.762
    3AU     LIG 1497  42.880   6.468   6.630
    3AU     LIG 1498  42.856   6.062   6.393
    3AU     LIG 1499  42.860   5.861   5.948
    3AU     LIG 1500  42.884   5.610   5.530
    3AU    AUSL 1501  43.245   7.672   7.310
    3AU    AUSL 1502  43.354   7.955   6.971
    3AU     AUL 1503  43.398   7.601   6.921
    3AU       S 1504  43.329   7.251   7.212
    3AU     LIG 1505  43.229   6.796   7.306
    3AU     LIG 1506  43.076   6.408   7.092
    3AU     LIG 1507  43.215   6.032   6.822
    3AU     LIG 1508  43.357   5.574   6.741
    3AU     LIG 1509  43.269   5.087   6.753
    3AU       S 1510  43.632   7.714   6.555
    3AU     LIG 1511  43.495   7.258   6.522
    3AU     LIG 1512  43.709   6.887   6.297
    3AU     LIG 1513  43.991   6.569   6.063
    3AU     LIG 1514  44.234   6.372   5.712
    3AU     LIG 1515  44.357   6.367   5.250
    4AU     AUC 1516  10.937   8.149   7.499
    4AU     AUC 1517  11.231   8.150   7.332
    4AU     AUC 1518  11.196   8.139   7.670
    4AU     AUC 1519  10.659   8.140   7.337
    4AU     AUC 1520  10.681   8.187   7.681
    4AU     AUC 1521  10.770   8.424   7.499
    4AU     AUC 1522  11.117   8.415   7.489
    4AU     AUC 1523  10.742   7.879   7.502
    4AU     AUC 1524  11.101   7.877   7.504
    4AU     AUC 1525  10.940   7.978   7.767
    4AU     AUC 1526  10.931   8.341   7.754
    4AU     AUC 1527  10.935   7.986   7.232
    4AU     AUC 1528  10.967   8.301   7.228
    4AU     AUC 1529  11.566   8.148   7.184
    4AU     AUC 1530  11.556   8.132   7.521
    4AU     AUC 1531  11.491   8.116   7.872
    4AU     AUC 1532  10.345   8.147   7.174
    4AU     AUC 1533  10.329   8.186   7.535
    4AU     AUC 1534  10.389   8.226   7.873
    4AU     AUC 1535  10.612   8.745   7.469
    4AU     AUC 1536  10.966   8.769   7.443
    4AU     AUC 1537  11.290   8.708   7.477
    4AU     AUC 1538  10.538   7.599   7.500
    4AU     AUC 1539  10.873   7.541   7.461
    4AU     AUC 1540  11.264   7.557   7.481
    4AU     AUC 1541  10.922   7.800   8.063
    4AU     AUC 1542  10.939   8.155   8.098
    4AU     AUC 1543  10.965   8.517   8.046
    4AU     AUC 1544  10.968   7.818   6.948
    4AU     AUC 1545  10.959   8.131   6.890
    4AU     AUC 1546  10.961   8.449   6.923
    4AU     AUC 1547  11.213   7.911   7.991
    4AU     AUC 1548  11.237   8.299   7.994
    4AU     AUC 1549  11.286   7.975   7.021
    4AU     AUC 1550  11.287   8.323   7.036
    4AU     AUC 1551  10.638   8.029   8.014
    4AU     AUC 1552  10.668   8.404   7.987
    4AU     AUC 1553  10.637   7.970   7.043
    4AU     AUC 1554  10.619   8.277   6.998
    4AU     AUC 1555  11.477   8.432   7.335
    4AU     AUC 1556  11.406   8.413   7.697
    4AU     AUC 1557  10.445   8.450   7.339
    4AU     AUC 1558  10.478   8.520   7.686
    4AU     AUC 1559  11.441   7.835   7.348
    4AU     AUC 1560  11.395   7.807   7.676
    4AU     AUC 1561  10.401   7.855   7.364
    4AU     AUC 1562  10.468   7.902   7.713
    4AU     AUC 1563  10.799   8.694   7.752
    4AU     AUC 1564  11.125   8.638   7.768
    4AU     AUC 1565  10.727   7.694   7.785
    4AU     AUC 1566  11.063   7.632   7.763
    4AU     AUC 1567  10.765   8.576   7.186
    4AU     AUC 1568  11.151   8.601   7.165
    4AU     AUC 1569  10.725   7.671   7.210
    4AU     AUC 1570  11.115   7.697   7.212
    4AU    AUSL 1571  11.487   8.043   8.240
    4AU    AUSL 1572  11.226   7.607   8.161
    4AU     AUL 1573  11.528   7.641   8.350
    4AU       S 1574  11.560   7.266   8.090
    4AU     LIG 1575  11.437   7.119   8.467
    4AU     LIG 1576  11.593   6.829   8.774
    4AU     LIG 1577  11.827   6.496   8.993
    4AU     LIG 1578  12.042   6.215   9.297
    4AU     LIG 1579  12.036   5.942   9.693
    4AU       S 1580  11.713   8.054   8.358
    4AU     LIG 1581  11.593   8.024   8.814
    4AU     LIG 1582  11.799   7.865   9.230
    4AU     LIG 1583  12.127   7.707   9.567
    4AU     LIG 1584  12.493   7.765   9.896
    4AU     LIG 1585  12.834   7.767  10.241
    4AU    AUSL 1586  11.075   7.944   8.403
    4AU    AUSL 1587  10.821   8.342   8.440
    4AU     AUL 1588  11.009   8.234   8.746
    4AU       S 1589  11.189   7.866   8.556
    4AU     LIG 1590  11.108   7.774   8.971
    4AU     LIG 1591  11.358   7.612   9.337
    4AU     LIG 1592  11.618   7.482   9.719
    4AU     LIG 1593  11.613   7.339  10.185
    4AU     LIG 1594  11.549   7.425  10.656
    4AU       S 1595  10.594   8.077   8.642
    4AU     LIG 1596  10.672   8.035   9.116
    4AU     LIG 1597  10.383   8.050   9.497
    4AU     LIG 1598  10.175   8.125   9.918
    4AU     LIG 1599  10.173   8.410  10.320
    4AU     LIG 1600  10.190   8.643  10.748
    4AU    AUSL 1601  11.136   8.321   8.154
    4AU    AUSL 1602  11.572   8.457   8.121
    4AU     AUL 1603  11.367   8.341   8.451
    4AU       S 1604  11.052   8.696   8.626
    4AU     LIG 1605  11.393   8.557   8.920
    4AU     LIG 1606  11.536   8.651   9.379
    4AU     LIG 1607  11.509   8.795   9.854
    4AU     LIG 1608  11.412   8.800  10.338
    4AU     LIG 1609  11.498   8.815  10.813
    4AU       S 1610  11.718   8.606   8.288
    4AU     LIG 1611  12.132   8.575   8.362
    4AU     LIG 1612  12.434   8.780   8.654
    4AU     LIG 1613  12.667   9.027   8.988
    4AU     LIG 1614  12.886   9.300   9.307
    4AU     LIG 1615  13.257   9.423   9.571
    4AU    AUSL 1616  11.473   8.191   6.888
    4AU    AUSL 1617  11.368   8.628   6.828
    4AU     AUL 1618  11.637   8.453   6.624
    4AU       S 1619  11.313   8.348   6.333
    4AU     LIG 1620  11.735   8.312   6.030
    4AU     LIG 1621  11.912   8.002   5.728
    4AU     LIG 1622  12.066   7.743   5.356
    4AU     LIG 1623  12.427   7.624   5.057
    4AU     LIG 1624  12.799   7.780   4.797
    4AU       S 1625  11.691   8.871   6.847
    4AU     LIG 1626  11.845   8.999   6.449
    4AU     LIG 1627  12.057   9.162   6.065
    4AU     LIG 1628  12.298   9.381   5.744
    4AU     LIG 1629  12.381   9.534   5.328
    4AU     LIG 1630  12.540   9.905   5.103
    4AU    AUSL 1631  11.269   7.940   6.585
    4AU    AUSL 1632  11.680   7.812   6.927
    4AU     AUL 1633  11.650   7.983   6.655
    4AU       S 1634  11.754   7.521   6.693
    4AU     LIG 1635  11.868   7.195   6.352
    4AU     LIG 1636  12.120   6.821   6.232
    4AU     LIG 1637  12.378   6.604   5.900
    4AU     LIG 1638  12.735   6.622   5.575
    4AU     LIG 1639  13.206   6.615   5.467
    4AU       S 1640  11.386   8.156   6.316
    4AU     LIG 1641  11.536   7.801   6.077
    4AU     LIG 1642  11.599   7.612   5.628
    4AU     LIG 1643  11.629   7.532   5.159
    4AU     LIG 1644  11.793   7.511   4.722
    4AU     LIG 1645  12.077   7.420   4.342
    4AU    AUSL 1646  11.075   8.310   6.754
    4AU    AUSL 1647  10.847   7.923   6.705
    4AU     AUL 1648  10.989   7.968   6.436
    4AU       S 1649  10.541   7.975   6.287
    4AU     LIG 1650  10.568   7.677   5.964
    4AU     LIG 1651  10.288   7.436   5.677
    4AU     LIG 1652  10.108   7.430   5.238
    4AU     LIG 1653   9.988   7.204   4.816
    4AU     LIG 1654   9.812   7.152   4.355
    4AU       S 1655  11.156   8.419   6.450
    4AU     LIG 1656  11.027   8.194   5.975
    4AU     LIG 1657  11.382   8.089   5.672
    4AU     LIG 1658  11.643   8.040   5.274
    4AU     LIG 1659  11.797   8.135   4.825
    4AU     LIG 1660  11.856   8.418   4.427
    4AU    AUSL 1661  10.417   8.306   8.259
    4AU    AUSL 1662  10.725   8.640   8.133
    4AU     AUL 1663  10.588   8.582   8.466
    4AU       S 1664  10.425   8.207   8.710
    4AU     LIG 1665  10.177   7.951   8.997
    4AU     LIG 1666   9.939   7.799   9.374
    4AU     LIG 1667   9.704   7.721   9.775
    4AU     LIG 1668   9.280   7.849   9.971
    4AU     LIG 1669   9.037   8.019  10.351
    4AU       S 1670  10.319   8.884   8.223
    4AU     LIG 1671  10.343   9.050   8.643
    4AU     LIG 1672  10.222   9.272   9.035
    4AU     LIG 1673   9.925   9.450   9.345
    4AU     LIG 1674   9.702   9.508   9.758
    4AU     LIG 1675   9.642   9.764  10.150
    4AU    AUSL 1676  10.718   8.000   8.167
    4AU    AUSL 1677  10.282   7.896   8.144
    4AU     AUL 1678  10.230   8.103   8.306
    4AU       S 1679  10.160   7.624   8.347
    4AU     LIG 1680   9.707   7.578   8.187
    4AU     LIG 1681   9.393   7.255   8.279
    4AU     LIG 1682   9.187   6.973   8.577
    4AU     LIG 1683   8.956   6.704   8.872
    4AU     LIG 1684   8.674   6.581   9.217
    4AU       S 1685  10.610   7.933   8.552
    4AU     LIG 1686  10.548   7.610   8.864
    4AU     LIG 1687  10.407   7.574   9.307
    4AU     LIG 1688  10.226   7.603   9.754
    4AU     LIG 1689  10.089   7.410  10.166
    4AU     LIG 1690  10.066   7.197  10.590
    4AU    AUSL 1691  10.438   8.060   6.773
    4AU    AUSL 1692  10.623   7.688   6.985
    4AU     AUL 1693  10.620   7.685   6.633
    4AU       S 1694  10.309   7.958   6.420
    4AU     LIG 1695  10.082   7.682   6.141
    4AU     LIG 1696   9.872   7.732   5.727
    4AU     LIG 1697   9.641   7.635   5.331
    4AU     LIG 1698   9.324   7.617   4.985
    4AU     LIG 1699   9.054   7.730   4.622
    4AU       S 1700  10.210   7.560   6.788
    4AU     LIG 1701  10.094   7.220   6.530
    4AU     LIG 1702   9.844   6.865   6.360
    4AU     LIG 1703   9.495   6.792   6.064
    4AU     LIG 1704   9.381   6.624   5.630
    4AU     LIG 1705   9.378   6.324   5.247
    4AU    AUSL 1706  10.701   8.347   6.549
    4AU    AUSL 1707  10.208   8.404   6.921
    4AU     AUL 1708  10.337   8.383   6.597
    4AU       S 1709   9.942   8.603   6.745
    4AU     LIG 1710   9.731   8.882   6.407
    4AU     LIG 1711   9.688   9.060   5.960
    4AU     LIG 1712   9.460   9.119   5.529
    4AU     LIG 1713   9.059   9.205   5.273
    4AU     LIG 1714   8.683   9.433   5.084
    4AU       S 1715  10.603   8.203   6.256
    4AU     LIG 1716  10.290   8.101   5.880
    4AU     LIG 1717  10.276   7.905   5.454
    4AU     LIG 1718  10.168   7.979   5.001
    4AU     LIG 1719  10.116   8.308   4.638
    4AU     LIG 1720  10.039   8.563   4.229
    4AU    AUSL 1721  11.720   8.666   7.528
    4AU    AUSL 1722  11.716   8.474   7.106
    4AU     AUL 1723  11.997   8.799   7.363
    4AU       S 1724  11.810   8.637   6.997
    4AU     LIG 1725  12.128   8.638   6.685
    4AU     LIG 1726  12.293   8.749   6.271
    4AU     LIG 1727  12.565   9.017   6.004
    4AU     LIG 1728  12.898   9.197   5.717
    4AU     LIG 1729  13.329   9.182   5.492
    4AU       S 1730  12.119   8.546   7.741
    4AU     LIG 1731  12.558   8.687   7.591
    4AU     LIG 1732  13.038   8.832   7.544
    4AU     LIG 1733  13.519   8.969   7.517
    4AU     LIG 1734  13.891   9.280   7.446
    4AU     LIG 1735  13.961   9.740   7.273
    4AU    AUSL 1736  11.934   8.260   7.413
    4AU    AUSL 1737  11.870   7.925   7.727
    4AU     AUL 1738  12.232   8.037   7.743
    4AU       S 1739  12.062   8.349   7.466
    4AU     LIG 1740  12.498   8.229   7.370
    4AU     LIG 1741  12.954   8.367   7.337
    4AU     LIG 1742  13.386   8.552   7.234
    4AU     LIG 1743  13.823   8.730   7.143
    4AU     LIG 1744  14.298   8.752   7.000
    4AU       S 1745  12.126   7.641   7.542
    4AU     LIG 1746  12.569   7.569   7.615
    4AU     LIG 1747  12.877   7.217   7.724
    4AU     LIG 1748  13.270   6.955   7.776
    4AU     LIG 1749  13.727   6.889   7.848
    4AU     LIG 1750  14.128   6.932   8.092
    4AU    AUSL 1751  11.631   8.284   7.737
    4AU    AUSL 1752  11.371   8.670   7.788
    4AU     AUL 1753  11.701   8.732   7.832
    4AU       S 1754  11.693   8.903   8.260
    4AU     LIG 1755  12.081   9.089   8.417
    4AU     LIG 1756  12.419   9.315   8.639
    4AU     LIG 1757  12.725   9.559   8.886
    4AU     LIG 1758  13.017   9.929   8.942
    4AU     LIG 1759  13.240  10.346   8.854
    4AU       S 1760  11.968   8.370   7.890
    4AU     LIG 1761  12.473   8.371   8.022
    4AU     LIG 1762  12.914   8.409   7.850
    4AU     LIG 1763  13.372   8.491   7.746
    4AU     LIG 1764  13.808   8.668   7.813
    4AU     LIG 1765  14.039   9.062   7.926
    4AU    AUSL 1766  10.286   8.749   7.511
    4AU    AUSL 1767  10.374   8.518   7.889
    4AU     AUL 1768  10.061   8.852   7.752
    4AU       S 1769  10.216   8.700   8.156
    4AU     LIG 1770  10.081   8.606   8.588
    4AU     LIG 1771   9.885   8.894   8.926
    4AU     LIG 1772   9.596   9.060   9.284
    4AU     LIG 1773   9.311   9.178   9.657
    4AU     LIG 1774   8.919   9.205   9.922
    4AU       S 1775  10.296   9.116   7.433
    4AU     LIG 1776   9.825   9.092   7.333
    4AU     LIG 1777   9.363   9.272   7.352
    4AU     LIG 1778   9.023   9.624   7.431
    4AU     LIG 1779   8.678   9.938   7.543
    4AU     LIG 1780   8.236  10.070   7.542
    4AU    AUSL 1781  10.242   8.343   7.340
    4AU    AUSL 1782  10.363   8.788   7.088
    4AU     AUL 1783  10.061   8.669   7.201
    4AU       S 1784   9.825   8.169   6.991
    4AU     LIG 1785   9.538   8.554   7.106
    4AU     LIG 1786   9.120   8.821   7.108
    4AU     LIG 1787   8.669   8.979   6.957
    4AU     LIG 1788   8.222   9.228   6.946
    4AU     LIG 1789   7.751   9.411   6.997
    4AU       S 1790  10.205   9.031   6.921
    4AU     LIG 1791   9.973   9.293   6.625
    4AU     LIG 1792   9.883   9.484   6.207
    4AU     LIG 1793   9.720   9.888   6.000
    4AU     LIG 1794   9.488  10.318   5.964
    4AU     LIG 1795   9.168  10.684   5.932
    4AU    AUSL 1796  10.001   8.400   7.720
    4AU    AUSL 1797   9.958   8.029   7.410
    4AU     AUL 1798   9.841   8.340   7.444
    4AU       S 1799   9.686   7.918   7.631
    4AU     LIG 1800   9.258   7.729   7.455
    4AU     LIG 1801   8.811   7.634   7.507
    4AU     LIG 1802   8.366   7.652   7.331
    4AU     LIG 1803   7.928   7.554   7.144
    4AU     LIG 1804   7.486   7.366   7.105
    4AU       S 1805   9.916   8.362   7.966
    4AU     LIG 1806   9.519   8.549   7.865
    4AU     LIG 1807   9.040   8.524   7.933
    4AU     LIG 1808   8.676   8.718   8.189
    4AU     LIG 1809   8.195   8.645   8.175
    4AU     LIG 1810   7.744   8.546   8.074
    4AU    AUSL 1811  11.662   7.570   7.549
    4AU    AUSL 1812  11.472   7.830   7.871
    4AU     AUL 1813  11.801   7.723   7.942
    4AU       S 1814  11.977   7.462   7.572
    4AU     LIG 1815  12.319   7.131   7.528
    4AU     LIG 1816  12.663   6.798   7.510
    4AU     LIG 1817  13.075   6.569   7.490
    4AU     LIG 1818  13.542   6.569   7.486
    4AU     LIG 1819  13.918   6.292   7.502
    4AU       S 1820  11.687   7.284   7.957
    4AU     LIG 1821  11.933   7.032   8.302
    4AU     LIG 1822  12.100   6.803   8.663
    4AU     LIG 1823  12.343   6.543   8.964
    4AU     LIG 1824  12.720   6.498   9.237
    4AU     LIG 1825  13.021   6.688   9.556
    4AU    AUSL 1826  11.648   7.953   7.329
    4AU    AUSL 1827  11.520   7.458   7.151
    4AU     AUL 1828  11.793   7.602   7.170
    4AU       S 1829  12.137   7.832   7.332
    4AU     LIG 1830  12.374   7.475   7.138
    4AU     LIG 1831  12.765   7.217   7.223
    4AU     LIG 1832  13.211   7.024   7.273
    4AU     LIG 1833  13.704   6.986   7.236
    4AU     LIG 1834  14.157   7.055   7.065
    4AU       S 1835  11.720   7.292   6.822
    4AU     LIG 1836  11.766   6.846   6.739
    4AU     LIG 1837  11.926   6.453   6.533
    4AU     LIG 1838  12.252   6.243   6.258
    4AU     LIG 1839  12.561   5.916   6.082
    4AU     LIG 1840  12.873   5.536   6.013
    4AU    AUSL 1841  10.134   7.656   7.572
    4AU    AUSL 1842  10.267   7.903   7.138
    4AU     AUL 1843   9.922   7.749   7.261
    4AU       S 1844  10.130   7.721   6.853
    4AU     LIG 1845   9.719   7.510   6.746
    4AU     LIG 1846   9.494   7.149   6.577
    4AU     LIG 1847   9.117   7.041   6.334
    4AU     LIG 1848   8.984   6.761   5.993
    4AU     LIG 1849   8.653   6.478   5.827
    4AU       S 1850   9.708   7.658   7.670
    4AU     LIG 1851   9.419   7.355   7.775
    4AU     LIG 1852   9.022   7.165   7.838
    4AU     LIG 1853   8.592   7.192   7.620
    4AU     LIG 1854   8.130   7.236   7.528
    4AU     LIG 1855   7.826   7.020   7.269
    4AU    AUSL 1856  10.252   8.056   7.744
    4AU    AUSL 1857  10.470   7.657   7.837
    4AU     AUL 1858  10.077   7.793   7.909
    4AU       S 1859  10.175   7.411   8.135
    4AU     LIG 1860   9.840   7.121   7.977
    4AU     LIG 1861   9.456   6.840   7.992
    4AU     LIG 1862   9.222   6.542   8.301
    4AU     LIG 1863   9.005   6.238   8.635
    4AU     LIG 1864   8.695   5.851   8.759
    4AU       S 1865   9.679   7.985   7.785
    4AU     LIG 1866   9.308   8.226   7.546
    4AU     LIG 1867   8.866   8.128   7.603
    4AU     LIG 1868   8.458   7.923   7.763
    4AU     LIG 1869   8.085   7.667   7.813
    4AU     LIG 1870   7.745   7.518   8.077
    4AU    AUSL 1871  10.984   8.894   7.894
    4AU    AUSL 1872  10.548   8.914   7.819
    4AU     AUL 1873  10.782   8.966   8.183
    4AU       S 1874  10.410   9.117   7.939
    4AU     LIG 1875  10.127   9.344   8.269
    4AU     LIG 1876   9.944   9.534   8.678
    4AU     LIG 1877   9.759   9.953   8.869
    4AU     LIG 1878   9.591  10.430   8.889
    4AU     LIG 1879   9.285  10.817   8.939
    4AU       S 1880  10.981   9.304   7.936
    4AU     LIG 1881  11.042   9.408   8.336
    4AU     LIG 1882  11.080   9.842   8.488
    4AU     LIG 1883  11.007  10.278   8.649
    4AU     LIG 1884  11.066  10.632   8.945
    4AU     LIG 1885  11.076  10.926   9.310
    4AU    AUSL 1886  10.816   9.111   7.540
    4AU    AUSL 1887  11.109   9.039   7.179
    4AU     AUL 1888  11.036   9.379   7.324
    4AU       S 1889  10.819   9.344   7.748
    4AU     LIG 1890  10.919   9.793   7.972
    4AU     LIG 1891  10.885  10.228   8.148
    4AU     LIG 1892  10.860  10.680   8.221
    4AU     LIG 1893  10.530  11.014   8.169
    4AU     LIG 1894  10.283  11.421   8.241
    4AU       S 1895  10.829   9.208   6.954
    4AU     LIG 1896  11.238   9.470   6.888
    4AU     LIG 1897  11.401   9.903   6.790
    4AU     LIG 1898  11.353  10.377   6.675
    4AU     LIG 1899  11.459  10.853   6.737
    4AU     LIG 1900  11.622  11.306   6.855
    4AU    AUSL 1901  11.273   9.035   7.588
    4AU    AUSL 1902  11.228   8.735   8.209
    4AU     AUL 1903  11.333   8.999   7.977
    4AU       S 1904  11.473   8.828   8.416
    4AU     LIG 1905  11.825   8.791   8.750
    4AU     LIG 1906  12.136   9.052   8.981
    4AU     LIG 1907  12.368   9.382   9.232
    4AU     LIG 1908  12.397   9.660   9.626
    4AU     LIG 1909  12.211   9.931   9.994
    4AU       S 1910  11.184   9.379   7.762
    4AU     LIG 1911  11.406   9.627   8.051
    4AU     LIG 1912  11.387  10.069   8.147
    4AU     LIG 1913  11.335  10.490   8.317
    4AU     LIG 1914  11.292  10.950   8.370
    4AU     LIG 1915  11.365  11.417   8.327
    4AU    AUSL 1916  10.885   7.497   7.909
    4AU    AUSL 1917  11.300   7.445   7.749
    4AU     AUL 1918  11.099   7.319   8.125
    4AU       S 1919  10.877   6.941   7.988
    4AU     LIG 1920  10.821   6.672   8.314
    4AU     LIG 1921  10.579   6.300   8.412
    4AU     LIG 1922  10.463   5.851   8.406
    4AU     LIG 1923  10.526   5.417   8.570
    4AU     LIG 1924  10.545   5.049   8.861
    4AU       S 1925  11.447   7.218   7.805
    4AU     LIG 1926  11.399   6.802   8.049
    4AU     LIG 1927  11.711   6.566   8.347
    4AU     LIG 1928  12.051   6.299   8.573
    4AU     LIG 1929  12.337   6.040   8.856
    4AU     LIG 1930  12.727   5.792   8.978
    4AU    AUSL 1931  10.557   7.290   7.648
    4AU    AUSL 1932  10.642   7.590   8.250
    4AU     AUL 1933  10.600   7.316   8.010
    4AU       S 1934  10.667   6.888   7.844
    4AU     LIG 1935  10.378   6.620   8.041
    4AU     LIG 1936  10.264   6.173   8.020
    4AU     LIG 1937  10.296   5.720   7.931
    4AU     LIG 1938  10.266   5.310   8.130
    4AU     LIG 1939  10.431   4.949   8.362
    4AU       S 1940  10.385   7.485   8.401
    4AU     LIG 1941  10.097   7.069   8.464
    4AU     LIG 1942   9.681   6.839   8.467
    4AU     LIG 1943   9.441   6.548   8.765
    4AU     LIG 1944   9.219   6.331   9.124
    4AU     LIG 1945   9.220   6.120   9.550
    4AU    AUSL 1946  10.987   7.189   7.604
    4AU    AUSL 1947  10.735   7.317   7.247
    4AU     AUL 1948  10.614   7.059   7.418
    4AU       S 1949  10.973   7.029   7.132
    4AU     LIG 1950  10.653   6.648   7.091
    4AU     LIG 1951  10.433   6.193   7.001
    4AU     LIG 1952  10.236   5.738   6.924
    4AU     LIG 1953  10.190   5.259   6.869
    4AU     LIG 1954  10.244   4.865   6.593
    4AU       S 1955  10.988   6.980   7.738
    4AU     LIG 1956  10.939   6.466   7.836
    4AU     LIG 1957  10.766   6.022   8.005
    4AU     LIG 1958  10.755   5.531   8.113
    4AU     LIG 1959  10.912   5.067   8.193
    4AU     LIG 1960  11.299   4.758   8.177
    4AU    AUSL 1961  10.951   8.764   6.852
    4AU    AUSL 1962  11.387   8.725   7.255
    4AU     AUL 1963  11.241   8.955   6.878
    4AU       S 1964  10.844   9.170   6.729
    4AU     LIG 1965  10.897   9.611   6.541
    4AU     LIG 1966  11.097  10.002   6.380
    4AU     LIG 1967  11.138  10.299   6.026
    4AU     LIG 1968  11.151  10.593   5.661
    4AU     LIG 1969  11.144  11.047   5.647
    4AU       S 1970  11.619   8.956   7.143
    4AU     LIG 1971  12.095   9.105   6.945
    4AU     LIG 1972  12.323   9.202   6.523
    4AU     LIG 1973  12.533   9.493   6.199
    4AU     LIG 1974  12.839   9.827   6.026
    4AU     LIG 1975  13.135  10.204   5.936
    4AU    AUSL 1976  10.751   8.801   7.254
    4AU    AUSL 1977  10.648   8.473   6.953
    4AU     AUL 1978  10.604   8.781   6.813
    4AU       S 1979  10.656   9.174   7.086
    4AU     LIG 1980  10.752   9.690   7.023
    4AU     LIG 1981  10.944  10.113   6.863
    4AU     LIG 1982  10.866  10.585   6.729
    4AU     LIG 1983  10.700  11.066   6.713
    4AU     LIG 1984  10.525  11.511   6.844
    4AU       S 1985  10.170   8.816   6.663
    4AU     LIG 1986  10.196   9.030   6.239
    4AU     LIG 1987  10.146   9.248   5.818
    4AU     LIG 1988   9.903   9.383   5.431
    4AU     LIG 1989   9.827   9.641   5.031
    4AU     LIG 1990   9.793  10.065   4.816
    4AU    AUSL 1991  10.958   7.436   6.878
    4AU    AUSL 1992  10.337   7.469   7.240
    4AU     AUL 1993  10.594   7.301   6.940
    4AU       S 1994  10.153   7.423   7.025
    4AU     LIG 1995   9.884   7.067   6.989
    4AU     LIG 1996   9.500   6.821   6.955
    4AU     LIG 1997   9.316   6.626   6.556
    4AU     LIG 1998   9.002   6.339   6.320
    4AU     LIG 1999   8.752   5.920   6.266
    4AU       S 2000  10.997   7.029   6.911
    4AU     LIG 2001  11.020   6.613   6.732
    4AU     LIG 2002  10.742   6.250   6.593
    4AU     LIG 2003  10.496   5.857   6.488
    4AU     LIG 2004  10.412   5.553   6.134
    4AU     LIG 2005  10.565   5.355   5.736
    4AU    AUSL 2006  11.131   7.468   7.308
    4AU    AUSL 2007  11.234   7.755   6.966
    4AU     AUL 2008  11.280   7.396   6.919
    4AU       S 2009  11.211   7.056   7.222
    4AU     LIG 2010  11.138   6.582   7.267
    4AU     LIG 2011  10.949   6.199   7.063
    4AU     LIG 2012  10.895   5.776   6.834
    4AU     LIG 2013  11.136   5.338   6.760
    4AU     LIG 2014  11.449   4.940   6.723
    4AU       S 2015  11.515   7.529   6.559
    4AU     LIG 2016  11.372   7.094   6.506
    4AU     LIG 2017  11.585   6.747   6.263
    4AU     LIG 2018  11.849   6.446   6.006
    4AU     LIG 2019  12.125   6.188   5.717
    4AU     LIG 2020  12.262   6.112   5.262
    5AU     AUC 2021  34.690   7.168   7.499
    5AU     AUC 2022  34.984   7.164   7.332
    5AU     AUC 2023  34.951   7.157   7.670
    5AU     AUC 2024  34.402   7.164   7.342
    5AU     AUC 2025  34.444   7.209   7.683
    5AU     AUC 2026  34.526   7.448   7.497
    5AU     AUC 2027  34.872   7.432   7.487
    5AU     AUC 2028  34.493   6.898   7.505
    5AU     AUC 2029  34.853   6.896   7.508
    5AU     AUC 2030  34.694   6.998   7.771
    5AU     AUC 2031  34.691   7.360   7.755
    5AU     AUC 2032  34.685   7.003   7.235
    5AU     AUC 2033  34.717   7.316   7.229
    5AU     AUC 2034  35.320   7.159   7.180
    5AU     AUC 2035  35.310   7.145   7.515
    5AU     AUC 2036  35.248   7.131   7.869
    5AU     AUC 2037  34.094   7.168   7.189
    5AU     AUC 2038  34.081   7.209   7.541
    5AU     AUC 2039  34.149   7.248   7.878
    5AU     AUC 2040  34.374   7.765   7.467
    5AU     AUC 2041  34.720   7.785   7.437
    5AU     AUC 2042  35.047   7.721   7.471
    5AU     AUC 2043  34.289   6.617   7.503
    5AU     AUC 2044  34.623   6.557   7.465
    5AU     AUC 2045  35.014   6.569   7.488
    5AU     AUC 2046  34.673   6.823   8.066
    5AU     AUC 2047  34.697   7.175   8.101
    5AU     AUC 2048  34.727   7.537   8.045
    5AU     AUC 2049  34.717   6.831   6.949
    5AU     AUC 2050  34.709   7.141   6.892
    5AU     AUC 2051  34.710   7.459   6.922
    5AU     AUC 2052  34.968   6.931   7.992
    5AU     AUC 2053  34.996   7.318   7.992
    5AU     AUC 2054  35.036   6.984   7.023
    5AU     AUC 2055  35.040   7.333   7.034
    5AU     AUC 2056  34.394   7.047   8.013
    5AU     AUC 2057  34.430   7.424   7.986
    5AU     AUC 2058  34.388   6.984   7.044
    5AU     AUC 2059  34.368   7.287   7.004
    5AU     AUC 2060  35.233   7.445   7.329
    5AU     AUC 2061  35.164   7.428   7.692
    5AU     AUC 2062  34.198   7.469   7.344
    5AU     AUC 2063  34.246   7.546   7.696
    5AU     AUC 2064  35.192   6.846   7.351
    5AU     AUC 2065  35.148   6.821   7.678
    5AU     AUC 2066  34.153   6.873   7.360
    5AU     AUC 2067  34.223   6.920   7.713
    5AU     AUC 2068  34.563   7.717   7.750
    5AU     AUC 2069  34.886   7.655   7.765
    5AU     AUC 2070  34.476   6.714   7.789
    5AU     AUC 2071  34.816   6.652   7.768
    5AU     AUC 2072  34.516   7.593   7.181
    5AU     AUC 2073  34.899   7.614   7.163
    5AU     AUC 2074  34.475   6.688   7.213
    5AU     AUC 2075  34.863   6.713   7.217
    5AU    AUSL 2076  35.243   7.058   8.237
    5AU    AUSL 2077  34.977   6.633   8.165
    5AU     AUL 2078  35.289   6.653   8.316
    5AU       S 2079  35.280   6.234   8.116
    5AU     LIG 2080  35.089   5.939   8.363
    5AU     LIG 2081  35.279   5.625   8.623
    5AU     LIG 2082  35.511   5.452   8.983
    5AU     LIG 2083  35.781   5.246   9.273
    5AU     LIG 2084  35.839   4.986   9.637
    5AU       S 2085  35.486   7.064   8.388
    5AU     LIG 2086  35.424   7.134   8.839
    5AU     LIG 2087  35.520   6.903   9.237
    5AU     LIG 2088  35.851   6.724   9.534
    5AU     LIG 2089  36.226   6.732   9.836
    5AU     LIG 2090  36.535   6.730  10.202
    5AU    AUSL 2091  34.834   6.965   8.409
    5AU    AUSL 2092  34.576   7.364   8.440
    5AU     AUL 2093  34.766   7.230   8.724
    5AU       S 2094  35.051   6.882   8.629
    5AU     LIG 2095  35.023   6.831   9.062
    5AU     LIG 2096  35.174   6.539   9.398
    5AU     LIG 2097  35.326   6.356   9.806
    5AU     LIG 2098  35.291   6.273  10.274
    5AU     LIG 2099  35.345   6.382  10.738
    5AU       S 2100  34.323   7.124   8.670
    5AU     LIG 2101  34.184   7.054   9.158
    5AU     LIG 2102  33.979   6.983   9.569
    5AU     LIG 2103  33.792   7.038   9.994
    5AU     LIG 2104  33.806   7.312  10.394
    5AU     LIG 2105  33.998   7.564  10.767
    5AU    AUSL 2106  34.894   7.341   8.158
    5AU    AUSL 2107  35.333   7.470   8.115
    5AU     AUL 2108  35.134   7.358   8.447
    5AU       S 2109  34.828   7.700   8.629
    5AU     LIG 2110  35.162   7.576   8.929
    5AU     LIG 2111  35.313   7.651   9.392
    5AU     LIG 2112  35.330   7.804   9.869
    5AU     LIG 2113  35.324   7.855  10.361
    5AU     LIG 2114  35.378   7.923  10.849
    5AU       S 2115  35.480   7.624   8.280
    5AU     LIG 2116  35.871   7.544   8.382
    5AU     LIG 2117  36.156   7.756   8.678
    5AU     LIG 2118  36.395   8.022   8.990
    5AU     LIG 2119  36.634   8.301   9.278
    5AU     LIG 2120  37.005   8.366   9.554
    5AU    AUSL 2121  35.230   7.200   6.891
    5AU    AUSL 2122  35.117   7.634   6.823
    5AU     AUL 2123  35.412   7.449   6.631
    5AU       S 2124  35.069   7.370   6.351
    5AU     LIG 2125  35.451   7.334   6.002
    5AU     LIG 2126  35.646   7.001   5.732
    5AU     LIG 2127  35.780   6.750   5.357
    5AU     LIG 2128  36.109   6.650   5.031
    5AU     LIG 2129  36.522   6.615   4.776
    5AU       S 2130  35.446   7.894   6.813
    5AU     LIG 2131  35.618   8.016   6.428
    5AU     LIG 2132  35.857   8.219   6.085
    5AU     LIG 2133  36.101   8.460   5.767
    5AU     LIG 2134  36.189   8.731   5.398
    5AU     LIG 2135  36.210   9.011   5.027
    5AU    AUSL 2136  35.023   6.949   6.589
    5AU    AUSL 2137  35.426   6.813   6.925
    5AU     AUL 2138  35.402   6.978   6.656
    5AU       S 2139  35.490   6.509   6.692
    5AU     LIG 2140  35.587   6.130   6.387
    5AU     LIG 2141  35.807   5.732   6.335
    5AU     LIG 2142  36.085   5.534   6.026
    5AU     LIG 2143  36.352   5.621   5.645
    5AU     LIG 2144  36.747   5.794   5.446
    5AU       S 2145  35.140   7.176   6.330
    5AU     LIG 2146  35.225   6.840   6.030
    5AU     LIG 2147  35.312   6.637   5.582
    5AU     LIG 2148  35.410   6.448   5.140
    5AU     LIG 2149  35.422   6.286   4.673
    5AU     LIG 2150  35.641   6.304   4.246
    5AU    AUSL 2151  34.826   7.314   6.761
    5AU    AUSL 2152  34.598   6.929   6.701
    5AU     AUL 2153  34.750   6.969   6.441
    5AU       S 2154  34.312   6.989   6.278
    5AU     LIG 2155  34.241   6.769   5.918
    5AU     LIG 2156  34.073   6.505   5.607
    5AU     LIG 2157  33.902   6.523   5.199
    5AU     LIG 2158  33.829   6.255   4.825
    5AU     LIG 2159  33.824   6.131   4.374
    5AU       S 2160  34.909   7.424   6.449
    5AU     LIG 2161  34.818   7.215   5.961
    5AU     LIG 2162  35.152   7.135   5.607
    5AU     LIG 2163  35.405   7.093   5.192
    5AU     LIG 2164  35.476   7.284   4.732
    5AU     LIG 2165  35.591   7.521   4.317
    5AU    AUSL 2166  34.176   7.338   8.249
    5AU    AUSL 2167  34.490   7.660   8.130
    5AU     AUL 2168  34.358   7.610   8.460
    5AU       S 2169  34.171   7.265   8.713
    5AU     LIG 2170  33.795   7.041   8.779
    5AU     LIG 2171  33.617   6.899   9.178
    5AU     LIG 2172  33.506   6.769   9.618
    5AU     LIG 2173  33.308   6.826  10.026
    5AU     LIG 2174  32.930   6.896  10.290
    5AU       S 2175  34.069   7.887   8.228
    5AU     LIG 2176  33.870   7.987   8.631
    5AU     LIG 2177  33.704   8.162   9.036
    5AU     LIG 2178  33.657   8.509   9.366
    5AU     LIG 2179  33.618   8.720   9.807
    5AU     LIG 2180  33.415   8.886  10.214
    5AU    AUSL 2181  34.473   7.020   8.175
    5AU    AUSL 2182  34.034   6.931   8.136
    5AU     AUL 2183  33.998   7.121   8.315
    5AU       S 2184  33.903   6.654   8.339
    5AU     LIG 2185  33.465   6.621   8.200
    5AU     LIG 2186  33.188   6.278   8.325
    5AU     LIG 2187  32.961   5.964   8.603
    5AU     LIG 2188  32.730   5.669   8.892
    5AU     LIG 2189  32.523   5.610   9.314
    5AU       S 2190  34.366   6.955   8.560
    5AU     LIG 2191  34.145   6.660   8.850
    5AU     LIG 2192  33.994   6.555   9.278
    5AU     LIG 2193  33.922   6.491   9.740
    5AU     LIG 2194  33.741   6.542  10.162
    5AU     LIG 2195  33.538   6.371  10.562
    5AU    AUSL 2196  34.189   7.066   6.770
    5AU    AUSL 2197  34.374   6.702   6.989
    5AU     AUL 2198  34.358   6.700   6.636
    5AU       S 2199  34.084   6.975   6.378
    5AU     LIG 2200  33.755   6.916   6.071
    5AU     LIG 2201  33.606   6.712   5.677
    5AU     LIG 2202  33.431   6.732   5.252
    5AU     LIG 2203  33.018   6.773   5.025
    5AU     LIG 2204  32.750   6.997   4.707
    5AU       S 2205  33.952   6.551   6.803
    5AU     LIG 2206  33.794   6.104   6.724
    5AU     LIG 2207  33.520   5.833   6.447
    5AU     LIG 2208  33.331   5.569   6.090
    5AU     LIG 2209  33.389   5.395   5.628
    5AU     LIG 2210  33.293   5.193   5.195
    5AU    AUSL 2211  34.455   7.355   6.550
    5AU    AUSL 2212  33.953   7.387   6.953
    5AU     AUL 2213  34.081   7.371   6.608
    5AU       S 2214  33.706   7.610   6.756
    5AU     LIG 2215  33.359   7.775   6.544
    5AU     LIG 2216  33.272   7.865   6.100
    5AU     LIG 2217  33.066   7.999   5.697
    5AU     LIG 2218  32.701   8.140   5.413
    5AU     LIG 2219  32.289   8.380   5.347
    5AU       S 2220  34.391   7.245   6.277
    5AU     LIG 2221  34.091   7.269   5.915
    5AU     LIG 2222  33.982   7.021   5.527
    5AU     LIG 2223  33.874   7.033   5.067
    5AU     LIG 2224  33.958   7.281   4.652
    5AU     LIG 2225  33.989   7.564   4.252
    5AU    AUSL 2226  35.479   7.677   7.519
    5AU    AUSL 2227  35.474   7.495   7.094
    5AU     AUL 2228  35.757   7.790   7.343
    5AU       S 2229  35.548   7.747   6.954
    5AU     LIG 2230  35.909   7.686   6.696
    5AU     LIG 2231  36.060   7.770   6.258
    5AU     LIG 2232  36.293   7.994   5.915
    5AU     LIG 2233  36.619   8.299   5.790
    5AU     LIG 2234  36.845   8.493   5.422
    5AU       S 2235  35.878   7.544   7.730
    5AU     LIG 2236  36.327   7.585   7.590
    5AU     LIG 2237  36.786   7.704   7.498
    5AU     LIG 2238  37.215   7.941   7.558
    5AU     LIG 2239  37.502   8.372   7.543
    5AU     LIG 2240  37.890   8.658   7.645
    5AU    AUSL 2241  35.684   7.268   7.398
    5AU    AUSL 2242  35.626   6.936   7.717
    5AU     AUL 2243  36.000   7.051   7.718
    5AU       S 2244  35.808   7.344   7.442
    5AU     LIG 2245  36.240   7.216   7.258
    5AU     LIG 2246  36.708   7.335   7.140
    5AU     LIG 2247  37.183   7.388   7.297
    5AU     LIG 2248  37.637   7.535   7.191
    5AU     LIG 2249  37.990   7.820   7.068
    5AU       S 2250  35.869   6.657   7.531
    5AU     LIG 2251  36.153   6.573   7.869
    5AU     LIG 2252  36.531   6.308   7.818
    5AU     LIG 2253  36.993   6.182   7.857
    5AU     LIG 2254  37.410   6.254   8.110
    5AU     LIG 2255  37.887   6.203   8.237
    5AU    AUSL 2256  35.389   7.297   7.730
    5AU    AUSL 2257  35.133   7.687   7.783
    5AU     AUL 2258  35.467   7.742   7.825
    5AU       S 2259  35.455   7.917   8.251
    5AU     LIG 2260  35.856   8.062   8.373
    5AU     LIG 2261  36.193   8.275   8.584
    5AU     LIG 2262  36.404   8.546   8.881
    5AU     LIG 2263  36.643   8.928   8.983
    5AU     LIG 2264  36.851   9.353   9.006
    5AU       S 2265  35.725   7.371   7.879
    5AU     LIG 2266  36.213   7.345   8.045
    5AU     LIG 2267  36.667   7.442   7.958
    5AU     LIG 2268  37.108   7.472   7.810
    5AU     LIG 2269  37.539   7.480   7.698
    5AU     LIG 2270  37.885   7.652   7.945
    5AU    AUSL 2271  34.076   7.803   7.505
    5AU    AUSL 2272  34.144   7.545   7.871
    5AU     AUL 2273  33.827   7.843   7.718
    5AU       S 2274  33.951   7.719   8.145
    5AU     LIG 2275  33.729   7.512   8.491
    5AU     LIG 2276  33.511   7.664   8.869
    5AU     LIG 2277  33.226   7.961   9.102
    5AU     LIG 2278  32.856   8.012   9.387
    5AU     LIG 2279  32.551   8.319   9.598
    5AU       S 2280  34.057   8.137   7.421
    5AU     LIG 2281  33.561   8.102   7.362
    5AU     LIG 2282  33.109   8.299   7.438
    5AU     LIG 2283  32.766   8.660   7.532
    5AU     LIG 2284  32.396   8.976   7.655
    5AU     LIG 2285  31.990   9.074   7.897
    5AU    AUSL 2286  33.968   7.397   7.379
    5AU    AUSL 2287  34.103   7.789   7.078
    5AU     AUL 2288  33.808   7.692   7.217
    5AU       S 2289  33.504   7.319   7.080
    5AU     LIG 2290  33.275   7.721   7.071
    5AU     LIG 2291  32.896   7.884   6.817
    5AU     LIG 2292  32.438   7.796   6.661
    5AU     LIG 2293  31.933   7.914   6.623
    5AU     LIG 2294  31.504   8.183   6.636
    5AU       S 2295  33.948   8.037   6.911
    5AU     LIG 2296  33.651   8.230   6.597
    5AU     LIG 2297  33.658   8.561   6.258
    5AU     LIG 2298  33.587   9.006   6.090
    5AU     LIG 2299  33.311   9.399   6.048
    5AU     LIG 2300  32.883   9.623   6.072
    5AU    AUSL 2301  33.753   7.396   7.799
    5AU    AUSL 2302  33.708   7.061   7.409
    5AU     AUL 2303  33.603   7.397   7.526
    5AU       S 2304  33.426   6.950   7.611
    5AU     LIG 2305  33.200   6.654   7.268
    5AU     LIG 2306  32.791   6.488   7.154
    5AU     LIG 2307  32.319   6.509   7.197
    5AU     LIG 2308  31.860   6.428   7.321
    5AU     LIG 2309  31.421   6.351   7.159
    5AU       S 2310  33.666   7.331   8.014
    5AU     LIG 2311  33.395   7.707   8.083
    5AU     LIG 2312  33.018   7.926   8.313
    5AU     LIG 2313  32.562   7.733   8.395
    5AU     LIG 2314  32.092   7.877   8.305
    5AU     LIG 2315  31.703   8.108   8.077
    5AU    AUSL 2316  35.410   6.578   7.550
    5AU    AUSL 2317  35.228   6.847   7.868
    5AU     AUL 2318  35.567   6.746   7.930
    5AU       S 2319  35.715   6.469   7.567
    5AU     LIG 2320  36.034   6.155   7.602
    5AU     LIG 2321  36.400   5.906   7.505
    5AU     LIG 2322  36.850   5.801   7.523
    5AU     LIG 2323  37.198   5.466   7.512
    5AU     LIG 2324  37.542   5.135   7.601
    5AU       S 2325  35.442   6.312   7.979
    5AU     LIG 2326  35.666   5.963   8.251
    5AU     LIG 2327  35.788   5.722   8.620
    5AU     LIG 2328  36.058   5.477   8.908
    5AU     LIG 2329  36.388   5.513   9.244
    5AU     LIG 2330  36.737   5.750   9.476
    5AU    AUSL 2331  35.397   6.959   7.326
    5AU    AUSL 2332  35.263   6.463   7.155
    5AU     AUL 2333  35.533   6.604   7.165
    5AU       S 2334  35.882   6.832   7.319
    5AU     LIG 2335  36.153   6.453   7.182
    5AU     LIG 2336  36.588   6.327   7.288
    5AU     LIG 2337  37.038   6.239   7.315
    5AU     LIG 2338  37.434   6.108   7.113
    5AU     LIG 2339  37.861   6.121   6.881
    5AU       S 2340  35.455   6.274   6.836
    5AU     LIG 2341  35.379   5.810   6.812
    5AU     LIG 2342  35.544   5.404   6.623
    5AU     LIG 2343  35.799   5.173   6.297
    5AU     LIG 2344  36.217   5.032   6.151
    5AU     LIG 2345  36.441   4.604   6.112
    5AU    AUSL 2346  33.876   6.683   7.572
    5AU    AUSL 2347  34.023   6.926   7.145
    5AU     AUL 2348  33.673   6.799   7.244
    5AU       S 2349  33.890   6.715   6.853
    5AU     LIG 2350  33.452   6.480   6.798
    5AU     LIG 2351  33.151   6.174   6.580
    5AU     LIG 2352  32.946   5.885   6.249
    5AU     LIG 2353  32.627   5.666   5.963
    5AU     LIG 2354  32.300   5.691   5.607
    5AU       S 2355  33.491   6.658   7.663
    5AU     LIG 2356  33.268   6.270   7.618
    5AU     LIG 2357  32.988   6.050   7.333
    5AU     LIG 2358  32.515   6.034   7.262
    5AU     LIG 2359  32.045   5.933   7.334
    5AU     LIG 2360  31.800   5.563   7.482
    5AU    AUSL 2361  34.020   7.077   7.729
    5AU    AUSL 2362  34.214   6.675   7.837
    5AU     AUL 2363  33.826   6.847   7.911
    5AU       S 2364  33.922   6.447   8.113
    5AU     LIG 2365  33.594   6.157   8.005
    5AU     LIG 2366  33.265   5.828   8.086
    5AU     LIG 2367  33.071   5.509   8.389
    5AU     LIG 2368  32.868   5.187   8.689
    5AU     LIG 2369  32.549   4.835   8.815
    5AU       S 2370  33.415   6.975   7.772
    5AU     LIG 2371  32.998   6.697   7.735
    5AU     LIG 2372  32.610   6.817   7.507
    5AU     LIG 2373  32.127   6.871   7.505
    5AU     LIG 2374  31.675   6.773   7.681
    5AU     LIG 2375  31.311   6.484   7.862
    5AU    AUSL 2376  34.748   7.913   7.890
    5AU    AUSL 2377  34.308   7.951   7.840
    5AU     AUL 2378  34.541   7.990   8.186
    5AU       S 2379  34.158   8.122   7.934
    5AU     LIG 2380  33.802   8.302   8.212
    5AU     LIG 2381  33.685   8.504   8.633
    5AU     LIG 2382  33.579   8.929   8.847
    5AU     LIG 2383  33.390   9.382   8.825
    5AU     LIG 2384  33.007   9.660   8.950
    5AU       S 2385  34.743   8.315   7.925
    5AU     LIG 2386  34.878   8.388   8.319
    5AU     LIG 2387  34.960   8.817   8.494
    5AU     LIG 2388  35.026   9.229   8.733
    5AU     LIG 2389  35.121   9.507   9.136
    5AU     LIG 2390  35.111   9.862   9.461
    5AU    AUSL 2391  34.571   8.118   7.534
    5AU    AUSL 2392  34.862   8.046   7.169
    5AU     AUL 2393  34.781   8.382   7.313
    5AU       S 2394  34.579   8.362   7.747
    5AU     LIG 2395  34.703   8.795   8.005
    5AU     LIG 2396  34.704   9.205   8.236
    5AU     LIG 2397  34.359   9.543   8.286
    5AU     LIG 2398  34.119   9.949   8.325
    5AU     LIG 2399  34.071  10.428   8.434
    5AU       S 2400  34.594   8.221   6.926
    5AU     LIG 2401  34.984   8.544   6.874
    5AU     LIG 2402  35.188   9.020   6.788
    5AU     LIG 2403  35.491   9.464   6.758
    5AU     LIG 2404  35.704   9.945   6.715
    5AU     LIG 2405  35.899  10.392   6.587
    5AU    AUSL 2406  35.030   8.049   7.578
    5AU    AUSL 2407  34.991   7.754   8.204
    5AU     AUL 2408  35.100   8.018   7.964
    5AU       S 2409  35.235   7.847   8.404
    5AU     LIG 2410  35.585   7.816   8.740
    5AU     LIG 2411  35.881   8.099   8.960
    5AU     LIG 2412  36.109   8.368   9.272
    5AU     LIG 2413  36.124   8.665   9.642
    5AU     LIG 2414  36.048   8.895  10.057
    5AU       S 2415  34.947   8.397   7.747
    5AU     LIG 2416  35.199   8.668   8.034
    5AU     LIG 2417  35.278   9.112   8.201
    5AU     LIG 2418  35.594   9.483   8.220
    5AU     LIG 2419  35.704   9.940   8.281
    5AU     LIG 2420  35.635  10.340   8.515
    5AU    AUSL 2421  34.635   6.523   7.913
    5AU    AUSL 2422  35.054   6.458   7.763
    5AU     AUL 2423  34.838   6.355   8.142
    5AU       S 2424  34.634   5.966   8.019
    5AU     LIG 2425  34.643   5.587   8.326
    5AU     LIG 2426  34.629   5.110   8.428
    5AU     LIG 2427  34.654   4.660   8.517
    5AU     LIG 2428  34.709   4.238   8.703
    5AU     LIG 2429  34.873   3.998   9.078
    5AU       S 2430  35.201   6.235   7.829
    5AU     LIG 2431  35.306   5.753   7.942
    5AU     LIG 2432  35.556   5.439   8.219
    5AU     LIG 2433  35.737   5.215   8.588
    5AU     LIG 2434  36.061   4.955   8.774
    5AU     LIG 2435  36.501   4.810   8.687
    5AU    AUSL 2436  34.312   6.310   7.651
    5AU    AUSL 2437  34.384   6.611   8.249
    5AU     AUL 2438  34.347   6.332   8.006
    5AU       S 2439  34.445   5.902   7.857
    5AU     LIG 2440  34.187   5.657   8.087
    5AU     LIG 2441  34.237   5.213   8.111
    5AU     LIG 2442  34.278   4.762   8.188
    5AU     LIG 2443  34.299   4.313   8.358
    5AU     LIG 2444  34.079   3.898   8.513
    5AU       S 2445  34.126   6.519   8.381
    5AU     LIG 2446  33.784   6.181   8.504
    5AU     LIG 2447  33.461   5.854   8.563
    5AU     LIG 2448  33.234   5.579   8.874
    5AU     LIG 2449  33.031   5.487   9.294
    5AU     LIG 2450  32.990   5.442   9.772
    5AU    AUSL 2451  34.741   6.207   7.614
    5AU    AUSL 2452  34.486   6.324   7.247
    5AU     AUL 2453  34.367   6.073   7.434
    5AU       S 2454  34.720   6.058   7.139
    5AU     LIG 2455  34.329   5.812   7.008
    5AU     LIG 2456  34.328   5.370   6.932
    5AU     LIG 2457  34.369   4.926   6.826
    5AU     LIG 2458  34.372   4.494   6.689
    5AU     LIG 2459  34.446   4.040   6.588
    5AU       S 2460  34.746   6.023   7.758
    5AU     LIG 2461  34.843   5.557   7.868
    5AU     LIG 2462  34.732   5.130   7.920
    5AU     LIG 2463  34.746   4.686   7.992
    5AU     LIG 2464  34.892   4.304   8.213
    5AU     LIG 2465  35.051   3.939   8.457
    5AU    AUSL 2466  34.700   7.768   6.843
    5AU    AUSL 2467  35.143   7.736   7.250
    5AU     AUL 2468  34.999   7.961   6.874
    5AU       S 2469  34.599   8.158   6.711
    5AU     LIG 2470  34.640   8.571   6.500
    5AU     LIG 2471  34.910   8.922   6.336
    5AU     LIG 2472  35.036   9.127   5.910
    5AU     LIG 2473  35.048   9.488   5.601
    5AU     LIG 2474  34.896   9.940   5.626
    5AU       S 2475  35.372   7.983   7.148
    5AU     LIG 2476  35.829   8.157   6.970
    5AU     LIG 2477  36.090   8.183   6.573
    5AU     LIG 2478  36.327   8.406   6.230
    5AU     LIG 2479  36.516   8.764   5.981
    5AU     LIG 2480  36.867   9.089   5.953
    5AU    AUSL 2481  34.494   7.822   7.237
    5AU    AUSL 2482  34.394   7.481   6.953
    5AU     AUL 2483  34.345   7.783   6.802
    5AU       S 2484  34.408   8.174   7.069
    5AU     LIG 2485  34.492   8.693   6.984
    5AU     LIG 2486  34.619   9.122   6.763
    5AU     LIG 2487  34.448   9.610   6.705
    5AU     LIG 2488  34.392  10.095   6.589
    5AU     LIG 2489  34.165  10.545   6.631
    5AU       S 2490  33.905   7.797   6.659
    5AU     LIG 2491  34.125   8.125   6.409
    5AU     LIG 2492  34.049   8.355   5.982
    5AU     LIG 2493  33.901   8.592   5.572
    5AU     LIG 2494  33.784   8.810   5.140
    5AU     LIG 2495  33.617   9.181   4.872
    5AU    AUSL 2496  34.707   6.451   6.879
    5AU    AUSL 2497  34.094   6.493   7.253
    5AU     AUL 2498  34.346   6.318   6.943
    5AU       S 2499  33.920   6.443   7.080
    5AU     LIG 2500  33.568   6.203   7.202
    5AU     LIG 2501  33.330   5.880   6.956
    5AU     LIG 2502  33.109   5.592   6.633
    5AU     LIG 2503  32.886   5.334   6.286
    5AU     LIG 2504  32.651   4.918   6.143
    5AU       S 2505  34.751   6.039   6.900
    5AU     LIG 2506  34.893   5.635   6.707
    5AU     LIG 2507  34.697   5.238   6.572
    5AU     LIG 2508  34.793   4.776   6.508
    5AU     LIG 2509  34.681   4.374   6.271
    5AU     LIG 2510  34.653   4.139   5.862
    5AU    AUSL 2511  34.876   6.487   7.316
    5AU    AUSL 2512  34.982   6.768   6.972
    5AU     AUL 2513  35.025   6.409   6.929
    5AU       S 2514  34.944   6.057   7.220
    5AU     LIG 2515  34.756   5.582   7.196
    5AU     LIG 2516  34.775   5.139   7.087
    5AU     LIG 2517  34.793   4.694   7.015
    5AU     LIG 2518  34.837   4.315   6.777
    5AU     LIG 2519  35.022   3.947   6.616
    5AU       S 2520  35.255   6.527   6.561
    5AU     LIG 2521  35.085   6.103   6.509
    5AU     LIG 2522  35.262   5.706   6.315
    5AU     LIG 2523  35.525   5.471   5.995
    5AU     LIG 2524  35.830   5.178   5.763
    5AU     LIG 2525  36.095   5.250   5.375
    6AU     AUC 2526  14.361  37.225   7.503
    6AU     AUC 2527  14.656  37.222   7.336
    6AU     AUC 2528  14.619  37.213   7.674
    6AU     AUC 2529  14.084  37.216   7.342
    6AU     AUC 2530  14.100  37.265   7.685
    6AU     AUC 2531  14.195  37.500   7.501
    6AU     AUC 2532  14.543  37.489   7.490
    6AU     AUC 2533  14.168  36.959   7.507
    6AU     AUC 2534  14.524  36.953   7.510
    6AU     AUC 2535  14.364  37.051   7.771
    6AU     AUC 2536  14.356  37.419   7.756
    6AU     AUC 2537  14.360  37.062   7.237
    6AU     AUC 2538  14.392  37.375   7.231
    6AU     AUC 2539  14.992  37.217   7.186
    6AU     AUC 2540  14.979  37.202   7.522
    6AU     AUC 2541  14.913  37.189   7.875
    6AU     AUC 2542  13.769  37.223   7.180
    6AU     AUC 2543  13.752  37.264   7.541
    6AU     AUC 2544  13.813  37.309   7.872
    6AU     AUC 2545  14.042  37.823   7.468
    6AU     AUC 2546  14.395  37.844   7.442
    6AU     AUC 2547  14.719  37.781   7.475
    6AU     AUC 2548  13.966  36.679   7.506
    6AU     AUC 2549  14.295  36.617   7.475
    6AU     AUC 2550  14.684  36.628   7.488
    6AU     AUC 2551  14.346  36.876   8.068
    6AU     AUC 2552  14.362  37.237   8.102
    6AU     AUC 2553  14.390  37.597   8.047
    6AU     AUC 2554  14.390  36.894   6.953
    6AU     AUC 2555  14.382  37.202   6.894
    6AU     AUC 2556  14.387  37.520   6.925
    6AU     AUC 2557  14.632  36.989   7.995
    6AU     AUC 2558  14.660  37.375   7.995
    6AU     AUC 2559  14.709  37.044   7.026
    6AU     AUC 2560  14.713  37.392   7.037
    6AU     AUC 2561  14.065  37.119   8.023
    6AU     AUC 2562  14.091  37.491   7.988
    6AU     AUC 2563  14.059  37.047   7.049
    6AU     AUC 2564  14.044  37.352   7.002
    6AU     AUC 2565  14.905  37.503   7.333
    6AU     AUC 2566  14.831  37.485   7.697
    6AU     AUC 2567  13.871  37.528   7.341
    6AU     AUC 2568  13.905  37.600   7.685
    6AU     AUC 2569  14.864  36.905   7.355
    6AU     AUC 2570  14.816  36.879   7.682
    6AU     AUC 2571  13.823  36.936   7.376
    6AU     AUC 2572  13.888  36.989   7.724
    6AU     AUC 2573  14.226  37.772   7.751
    6AU     AUC 2574  14.553  37.714   7.767
    6AU     AUC 2575  14.160  36.766   7.798
    6AU     AUC 2576  14.481  36.702   7.772
    6AU     AUC 2577  14.192  37.651   7.186
    6AU     AUC 2578  14.578  37.672   7.166
    6AU     AUC 2579  14.145  36.748   7.216
    6AU     AUC 2580  14.535  36.772   7.220
    6AU    AUSL 2581  14.902  37.117   8.244
    6AU    AUSL 2582  14.631  36.696   8.160
    6AU     AUL 2583  14.936  36.715   8.345
    6AU       S 2584  14.986  36.344   8.087
    6AU     LIG 2585  14.870  36.194   8.468
    6AU     LIG 2586  15.053  35.859   8.714
    6AU     LIG 2587  15.284  35.483   8.874
    6AU     LIG 2588  15.548  35.225   9.166
    6AU     LIG 2589  15.715  35.218   9.599
    6AU       S 2590  15.131  37.125   8.373
    6AU     LIG 2591  15.001  37.147   8.819
    6AU     LIG 2592  15.130  37.045   9.250
    6AU     LIG 2593  15.377  36.834   9.603
    6AU     LIG 2594  15.743  36.746   9.912
    6AU     LIG 2595  16.094  36.748  10.241
    6AU    AUSL 2596  14.490  37.027   8.413
    6AU    AUSL 2597  14.240  37.428   8.442
    6AU     AUL 2598  14.426  37.318   8.744
    6AU       S 2599  14.615  36.941   8.575
    6AU     LIG 2600  14.553  36.883   9.007
    6AU     LIG 2601  14.772  36.694   9.381
    6AU     LIG 2602  14.952  36.528   9.790
    6AU     LIG 2603  14.966  36.398  10.258
    6AU     LIG 2604  15.156  36.508  10.684
    6AU       S 2605  14.009  37.163   8.640
    6AU     LIG 2606  14.100  37.160   9.113
    6AU     LIG 2607  13.860  37.104   9.516
    6AU     LIG 2608  13.769  37.226   9.970
    6AU     LIG 2609  13.616  37.460  10.360
    6AU     LIG 2610  13.620  37.686  10.790
    6AU    AUSL 2611  14.556  37.401   8.158
    6AU    AUSL 2612  14.997  37.528   8.121
    6AU     AUL 2613  14.788  37.420   8.451
    6AU       S 2614  14.475  37.780   8.621
    6AU     LIG 2615  14.822  37.645   8.905
    6AU     LIG 2616  15.042  37.776   9.309
    6AU     LIG 2617  15.001  37.858   9.796
    6AU     LIG 2618  14.986  37.932  10.279
    6AU     LIG 2619  15.126  37.896  10.735
    6AU       S 2620  15.146  37.674   8.284
    6AU     LIG 2621  15.573  37.688   8.322
    6AU     LIG 2622  15.851  37.897   8.633
    6AU     LIG 2623  16.074  38.143   8.972
    6AU     LIG 2624  16.280  38.193   9.389
    6AU     LIG 2625  16.610  38.373   9.675
    6AU    AUSL 2626  14.901  37.257   6.894
    6AU    AUSL 2627  14.795  37.692   6.825
    6AU     AUL 2628  15.078  37.508   6.633
    6AU       S 2629  14.743  37.422   6.347
    6AU     LIG 2630  15.128  37.387   6.004
    6AU     LIG 2631  15.313  37.075   5.706
    6AU     LIG 2632  15.489  36.820   5.347
    6AU     LIG 2633  15.866  36.712   5.053
    6AU     LIG 2634  16.156  36.819   4.686
    6AU       S 2635  15.121  37.951   6.812
    6AU     LIG 2636  15.302  38.154   6.436
    6AU     LIG 2637  15.543  38.372   6.064
    6AU     LIG 2638  15.696  38.414   5.592
    6AU     LIG 2639  15.783  38.672   5.184
    6AU     LIG 2640  15.743  39.064   4.934
    6AU    AUSL 2641  14.692  37.008   6.590
    6AU    AUSL 2642  15.104  36.875   6.932
    6AU     AUL 2643  15.072  37.039   6.661
    6AU       S 2644  15.176  36.577   6.701
    6AU     LIG 2645  15.285  36.222   6.377
    6AU     LIG 2646  15.510  35.815   6.321
    6AU     LIG 2647  15.783  35.520   6.061
    6AU     LIG 2648  16.065  35.465   5.674
    6AU     LIG 2649  16.432  35.470   5.362
    6AU       S 2650  14.813  37.223   6.325
    6AU     LIG 2651  14.897  36.896   6.007
    6AU     LIG 2652  14.984  36.712   5.549
    6AU     LIG 2653  14.990  36.443   5.132
    6AU     LIG 2654  14.949  36.341   4.649
    6AU     LIG 2655  15.021  36.533   4.210
    6AU    AUSL 2656  14.500  37.376   6.762
    6AU    AUSL 2657  14.267  36.992   6.704
    6AU     AUL 2658  14.414  37.035   6.440
    6AU       S 2659  13.965  37.051   6.293
    6AU     LIG 2660  14.051  36.791   5.957
    6AU     LIG 2661  13.798  36.567   5.642
    6AU     LIG 2662  13.584  36.586   5.223
    6AU     LIG 2663  13.601  36.597   4.743
    6AU     LIG 2664  13.609  36.686   4.275
    6AU       S 2665  14.585  37.484   6.450
    6AU     LIG 2666  14.477  37.267   5.967
    6AU     LIG 2667  14.809  37.212   5.610
    6AU     LIG 2668  15.083  37.263   5.215
    6AU     LIG 2669  15.172  37.518   4.800
    6AU     LIG 2670  15.235  37.794   4.411
    6AU    AUSL 2671  13.835  37.387   8.259
    6AU    AUSL 2672  14.150  37.725   8.134
    6AU     AUL 2673  14.008  37.663   8.467
    6AU       S 2674  13.830  37.280   8.696
    6AU     LIG 2675  13.626  36.988   8.990
    6AU     LIG 2676  13.398  36.877   9.403
    6AU     LIG 2677  13.153  36.704   9.784
    6AU     LIG 2678  12.831  36.757  10.130
    6AU     LIG 2679  12.544  36.846  10.494
    6AU       S 2680  13.751  37.973   8.224
    6AU     LIG 2681  13.730  38.138   8.655
    6AU     LIG 2682  13.585  38.312   9.083
    6AU     LIG 2683  13.397  38.387   9.512
    6AU     LIG 2684  13.272  38.641   9.894
    6AU     LIG 2685  13.081  38.991  10.151
    6AU    AUSL 2686  14.141  37.089   8.166
    6AU    AUSL 2687  13.713  36.963   8.159
    6AU     AUL 2688  13.633  37.198   8.286
    6AU       S 2689  13.621  36.745   8.419
    6AU     LIG 2690  13.172  36.657   8.244
    6AU     LIG 2691  12.909  36.276   8.330
    6AU     LIG 2692  12.665  36.008   8.633
    6AU     LIG 2693  12.424  35.725   8.924
    6AU     LIG 2694  12.236  35.620   9.346
    6AU       S 2695  14.020  37.028   8.556
    6AU     LIG 2696  14.058  36.711   8.894
    6AU     LIG 2697  13.855  36.631   9.307
    6AU     LIG 2698  13.662  36.577   9.740
    6AU     LIG 2699  13.548  36.388  10.164
    6AU     LIG 2700  13.429  36.400  10.618
    6AU    AUSL 2701  13.862  37.139   6.782
    6AU    AUSL 2702  14.046  36.771   6.998
    6AU     AUL 2703  14.029  36.765   6.645
    6AU       S 2704  13.728  37.038   6.420
    6AU     LIG 2705  13.545  36.789   6.087
    6AU     LIG 2706  13.358  36.835   5.664
    6AU     LIG 2707  13.172  36.932   5.251
    6AU     LIG 2708  12.799  37.109   5.009
    6AU     LIG 2709  12.411  37.074   4.712
    6AU       S 2710  13.613  36.635   6.791
    6AU     LIG 2711  13.378  36.291   6.585
    6AU     LIG 2712  13.149  35.901   6.424
    6AU     LIG 2713  12.946  35.625   6.084
    6AU     LIG 2714  12.764  35.480   5.651
    6AU     LIG 2715  12.740  35.374   5.169
    6AU    AUSL 2716  14.129  37.420   6.552
    6AU    AUSL 2717  13.631  37.485   6.924
    6AU     AUL 2718  13.769  37.460   6.596
    6AU       S 2719  13.375  37.662   6.760
    6AU     LIG 2720  13.094  37.934   6.539
    6AU     LIG 2721  13.103  38.169   6.140
    6AU     LIG 2722  12.933  38.223   5.703
    6AU     LIG 2723  12.525  38.263   5.448
    6AU     LIG 2724  12.065  38.237   5.298
    6AU       S 2725  14.040  37.281   6.258
    6AU     LIG 2726  13.763  37.208   5.863
    6AU     LIG 2727  13.762  37.042   5.429
    6AU     LIG 2728  13.616  37.059   4.985
    6AU     LIG 2729  13.562  37.230   4.545
    6AU     LIG 2730  13.704  37.529   4.191
    6AU    AUSL 2731  15.148  37.735   7.525
    6AU    AUSL 2732  15.147  37.550   7.100
    6AU     AUL 2733  15.426  37.849   7.352
    6AU       S 2734  15.230  37.793   6.958
    6AU     LIG 2735  15.566  37.760   6.655
    6AU     LIG 2736  15.763  37.944   6.276
    6AU     LIG 2737  16.005  38.176   5.942
    6AU     LIG 2738  16.249  38.329   5.572
    6AU     LIG 2739  16.695  38.424   5.437
    6AU       S 2740  15.537  37.607   7.743
    6AU     LIG 2741  15.945  37.721   7.556
    6AU     LIG 2742  16.377  37.893   7.506
    6AU     LIG 2743  16.762  38.118   7.414
    6AU     LIG 2744  17.088  38.393   7.582
    6AU     LIG 2745  17.315  38.709   7.860
    6AU    AUSL 2746  15.354  37.326   7.409
    6AU    AUSL 2747  15.292  36.996   7.729
    6AU     AUL 2748  15.649  37.103   7.748
    6AU       S 2749  15.486  37.405   7.459
    6AU     LIG 2750  15.936  37.251   7.368
    6AU     LIG 2751  16.375  37.434   7.288
    6AU     LIG 2752  16.798  37.630   7.227
    6AU     LIG 2753  17.202  37.698   6.962
    6AU     LIG 2754  17.607  37.967   6.923
    6AU       S 2755  15.547  36.716   7.530
    6AU     LIG 2756  15.957  36.713   7.751
    6AU     LIG 2757  16.387  36.559   7.788
    6AU     LIG 2758  16.746  36.327   7.653
    6AU     LIG 2759  17.195  36.251   7.648
    6AU     LIG 2760  17.555  36.252   7.974
    6AU    AUSL 2761  15.055  37.356   7.737
    6AU    AUSL 2762  14.800  37.744   7.787
    6AU     AUL 2763  15.126  37.806   7.831
    6AU       S 2764  15.119  37.975   8.257
    6AU     LIG 2765  15.479  38.194   8.421
    6AU     LIG 2766  15.793  38.435   8.653
    6AU     LIG 2767  16.157  38.720   8.656
    6AU     LIG 2768  16.397  39.110   8.714
    6AU     LIG 2769  16.242  39.516   8.814
    6AU       S 2770  15.392  37.442   7.885
    6AU     LIG 2771  15.921  37.434   7.990
    6AU     LIG 2772  16.379  37.467   7.808
    6AU     LIG 2773  16.808  37.716   7.748
    6AU     LIG 2774  17.221  37.825   7.972
    6AU     LIG 2775  17.641  37.888   8.183
    6AU    AUSL 2776  13.720  37.826   7.508
    6AU    AUSL 2777  13.799  37.604   7.892
    6AU     AUL 2778  13.494  37.940   7.745
    6AU       S 2779  13.649  37.787   8.148
    6AU     LIG 2780  13.495  37.678   8.559
    6AU     LIG 2781  13.271  37.975   8.851
    6AU     LIG 2782  13.042  38.279   9.133
    6AU     LIG 2783  12.648  38.328   9.411
    6AU     LIG 2784  12.254  38.448   9.659
    6AU       S 2785  13.732  38.200   7.427
    6AU     LIG 2786  13.255  38.197   7.343
    6AU     LIG 2787  12.835  38.460   7.397
    6AU     LIG 2788  12.504  38.834   7.465
    6AU     LIG 2789  12.075  39.053   7.553
    6AU     LIG 2790  11.619  39.231   7.618
    6AU    AUSL 2791  13.669  37.418   7.340
    6AU    AUSL 2792  13.794  37.869   7.085
    6AU     AUL 2793  13.493  37.759   7.207
    6AU       S 2794  13.260  37.225   6.992
    6AU     LIG 2795  12.937  37.618   7.025
    6AU     LIG 2796  12.605  37.905   6.775
    6AU     LIG 2797  12.113  38.064   6.714
    6AU     LIG 2798  11.618  38.098   6.802
    6AU     LIG 2799  11.179  38.339   6.836
    6AU       S 2800  13.633  38.111   6.914
    6AU     LIG 2801  13.376  38.362   6.616
    6AU     LIG 2802  13.361  38.616   6.222
    6AU     LIG 2803  13.219  39.034   6.038
    6AU     LIG 2804  12.949  39.441   6.087
    6AU     LIG 2805  12.508  39.669   6.107
    6AU    AUSL 2806  13.431  37.486   7.712
    6AU    AUSL 2807  13.385  37.107   7.425
    6AU     AUL 2808  13.263  37.422   7.427
    6AU       S 2809  13.187  37.033   7.695
    6AU     LIG 2810  12.845  36.894   7.354
    6AU     LIG 2811  12.431  36.631   7.359
    6AU     LIG 2812  11.937  36.584   7.414
    6AU     LIG 2813  11.462  36.483   7.323
    6AU     LIG 2814  11.017  36.403   7.128
    6AU       S 2815  13.316  37.509   7.927
    6AU     LIG 2816  12.870  37.594   7.836
    6AU     LIG 2817  12.538  37.902   8.007
    6AU     LIG 2818  12.124  37.935   8.269
    6AU     LIG 2819  11.621  37.944   8.290
    6AU     LIG 2820  11.110  37.878   8.315
    6AU    AUSL 2821  15.082  36.636   7.559
    6AU    AUSL 2822  14.895  36.903   7.875
    6AU     AUL 2823  15.226  36.799   7.947
    6AU       S 2824  15.402  36.533   7.581
    6AU     LIG 2825  15.808  36.283   7.501
    6AU     LIG 2826  16.263  36.142   7.499
    6AU     LIG 2827  16.616  35.805   7.499
    6AU     LIG 2828  16.801  35.335   7.478
    6AU     LIG 2829  17.087  34.926   7.454
    6AU       S 2830  15.105  36.362   7.965
    6AU     LIG 2831  15.350  36.083   8.294
    6AU     LIG 2832  15.567  35.832   8.613
    6AU     LIG 2833  15.811  35.519   8.835
    6AU     LIG 2834  16.068  35.419   9.208
    6AU     LIG 2835  16.447  35.596   9.444
    6AU    AUSL 2836  15.069  37.016   7.333
    6AU    AUSL 2837  14.939  36.526   7.160
    6AU     AUL 2838  15.211  36.664   7.177
    6AU       S 2839  15.560  36.895   7.333
    6AU     LIG 2840  16.004  36.704   7.247
    6AU     LIG 2841  16.477  36.553   7.257
    6AU     LIG 2842  16.896  36.342   7.164
    6AU     LIG 2843  17.370  36.308   7.152
    6AU     LIG 2844  17.742  36.205   6.887
    6AU       S 2845  15.135  36.346   6.835
    6AU     LIG 2846  15.125  35.886   6.762
    6AU     LIG 2847  15.228  35.462   6.573
    6AU     LIG 2848  15.445  35.165   6.279
    6AU     LIG 2849  15.795  34.973   6.046
    6AU     LIG 2850  16.239  34.877   6.129
    6AU    AUSL 2851  13.577  36.735   7.583
    6AU    AUSL 2852  13.684  36.978   7.143
    6AU     AUL 2853  13.343  36.815   7.297
    6AU       S 2854  13.548  36.810   6.882
    6AU     LIG 2855  13.099  36.658   6.872
    6AU     LIG 2856  12.856  36.306   6.654
    6AU     LIG 2857  12.641  35.971   6.370
    6AU     LIG 2858  12.435  35.645   6.064
    6AU     LIG 2859  12.243  35.482   5.642
    6AU       S 2860  13.158  36.798   7.741
    6AU     LIG 2861  13.054  36.433   7.485
    6AU     LIG 2862  12.696  36.194   7.273
    6AU     LIG 2863  12.209  36.141   7.345
    6AU     LIG 2864  11.734  36.017   7.400
    6AU     LIG 2865  11.402  35.642   7.386
    6AU    AUSL 2866  13.668  37.131   7.768
    6AU    AUSL 2867  13.920  36.744   7.844
    6AU     AUL 2868  13.575  36.727   7.926
    6AU       S 2869  13.638  36.529   8.338
    6AU     LIG 2870  13.416  36.246   8.041
    6AU     LIG 2871  13.105  35.882   8.062
    6AU     LIG 2872  12.824  35.610   8.349
    6AU     LIG 2873  12.605  35.307   8.661
    6AU     LIG 2874  12.335  35.007   8.904
    6AU       S 2875  13.240  37.045   7.881
    6AU     LIG 2876  12.709  37.092   7.807
    6AU     LIG 2877  12.252  37.042   7.597
    6AU     LIG 2878  11.761  37.059   7.565
    6AU     LIG 2879  11.329  36.888   7.640
    6AU     LIG 2880  11.059  36.493   7.672
    6AU    AUSL 2881  14.414  37.970   7.890
    6AU    AUSL 2882  13.977  37.997   7.817
    6AU     AUL 2883  14.214  38.049   8.181
    6AU       S 2884  13.841  38.205   7.938
    6AU     LIG 2885  13.522  38.408   8.255
    6AU     LIG 2886  13.310  38.497   8.681
    6AU     LIG 2887  13.086  38.864   8.914
    6AU     LIG 2888  12.851  39.309   8.937
    6AU     LIG 2889  12.564  39.718   8.949
    6AU       S 2890  14.412  38.386   7.932
    6AU     LIG 2891  14.571  38.452   8.318
    6AU     LIG 2892  14.639  38.883   8.493
    6AU     LIG 2893  14.659  39.276   8.745
    6AU     LIG 2894  14.647  39.491   9.179
    6AU     LIG 2895  14.593  39.837   9.502
    6AU    AUSL 2896  14.248  38.189   7.537
    6AU    AUSL 2897  14.540  38.111   7.176
    6AU     AUL 2898  14.470  38.454   7.326
    6AU       S 2899  14.255  38.427   7.754
    6AU     LIG 2900  14.353  38.867   8.036
    6AU     LIG 2901  14.421  39.320   8.257
    6AU     LIG 2902  14.269  39.814   8.328
    6AU     LIG 2903  14.297  40.315   8.373
    6AU     LIG 2904  13.983  40.640   8.562
    6AU       S 2905  14.270  38.275   6.957
    6AU     LIG 2906  14.705  38.515   6.897
    6AU     LIG 2907  14.899  38.938   6.826
    6AU     LIG 2908  15.107  39.362   6.737
    6AU     LIG 2909  15.130  39.824   6.618
    6AU     LIG 2910  14.813  40.169   6.494
    6AU    AUSL 2911  14.704  38.109   7.585
    6AU    AUSL 2912  14.657  37.814   8.206
    6AU     AUL 2913  14.760  38.077   7.972
    6AU       S 2914  14.901  37.904   8.412
    6AU     LIG 2915  15.260  37.858   8.742
    6AU     LIG 2916  15.547  38.117   8.993
    6AU     LIG 2917  15.763  38.327   9.355
    6AU     LIG 2918  15.743  38.606   9.742
    6AU     LIG 2919  15.656  39.011   9.982
    6AU       S 2920  14.620  38.467   7.766
    6AU     LIG 2921  14.862  38.772   8.033
    6AU     LIG 2922  14.990  39.195   8.236
    6AU     LIG 2923  15.352  39.540   8.256
    6AU     LIG 2924  15.454  40.013   8.262
    6AU     LIG 2925  15.469  40.487   8.328
    6AU    AUSL 2926  14.301  36.526   7.928
    6AU    AUSL 2927  14.713  36.521   7.755
    6AU     AUL 2928  14.529  36.393   8.142
    6AU       S 2929  14.253  36.051   7.997
    6AU     LIG 2930  14.118  35.837   8.355
    6AU     LIG 2931  14.031  35.389   8.418
    6AU     LIG 2932  14.130  34.929   8.396
    6AU     LIG 2933  14.404  34.581   8.591
    6AU     LIG 2934  14.611  34.347   8.958
    6AU       S 2935  14.866  36.285   7.813
    6AU     LIG 2936  14.918  35.857   8.062
    6AU     LIG 2937  15.224  35.572   8.318
    6AU     LIG 2938  15.515  35.234   8.490
    6AU     LIG 2939  15.802  35.000   8.772
    6AU     LIG 2940  16.057  34.706   9.017
    6AU    AUSL 2941  13.973  36.372   7.648
    6AU    AUSL 2942  14.089  36.681   8.264
    6AU     AUL 2943  13.950  36.415   8.013
    6AU       S 2944  14.070  35.994   7.856
    6AU     LIG 2945  13.870  35.601   7.968
    6AU     LIG 2946  13.775  35.138   8.035
    6AU     LIG 2947  13.513  34.724   8.045
    6AU     LIG 2948  13.538  34.239   8.045
    6AU     LIG 2949  13.848  33.872   8.111
    6AU       S 2950  13.881  36.558   8.460
    6AU     LIG 2951  13.659  36.070   8.472
    6AU     LIG 2952  13.212  35.903   8.568
    6AU     LIG 2953  12.945  35.640   8.862
    6AU     LIG 2954  12.742  35.481   9.256
    6AU     LIG 2955  12.810  35.448   9.728
    6AU    AUSL 2956  14.410  36.256   7.598
    6AU    AUSL 2957  14.155  36.393   7.249
    6AU     AUL 2958  14.037  36.131   7.416
    6AU       S 2959  14.398  36.106   7.129
    6AU     LIG 2960  14.105  35.733   7.061
    6AU     LIG 2961  13.938  35.282   7.038
    6AU     LIG 2962  13.680  34.896   6.909
    6AU     LIG 2963  13.473  34.472   6.801
    6AU     LIG 2964  13.602  34.102   6.552
    6AU       S 2965  14.403  36.073   7.745
    6AU     LIG 2966  14.376  35.607   7.740
    6AU     LIG 2967  14.325  35.208   7.998
    6AU     LIG 2968  14.556  34.780   8.112
    6AU     LIG 2969  14.654  34.324   8.219
    6AU     LIG 2970  14.768  34.047   8.575
    6AU    AUSL 2971  14.380  37.832   6.852
    6AU    AUSL 2972  14.816  37.795   7.252
    6AU     AUL 2973  14.674  38.018   6.875
    6AU       S 2974  14.279  38.238   6.731
    6AU     LIG 2975  14.424  38.601   6.485
    6AU     LIG 2976  14.690  38.957   6.347
    6AU     LIG 2977  14.814  39.263   6.010
    6AU     LIG 2978  14.821  39.698   5.821
    6AU     LIG 2979  14.613  40.124   5.842
    6AU       S 2980  15.048  38.038   7.146
    6AU     LIG 2981  15.504  38.217   6.960
    6AU     LIG 2982  15.745  38.375   6.575
    6AU     LIG 2983  15.934  38.734   6.329
    6AU     LIG 2984  16.290  39.043   6.287
    6AU     LIG 2985  16.544  39.299   5.972
    6AU    AUSL 2986  14.180  37.876   7.255
    6AU    AUSL 2987  14.073  37.548   6.955
    6AU     AUL 2988  14.031  37.855   6.812
    6AU       S 2989  14.090  38.253   7.078
    6AU     LIG 2990  14.242  38.759   6.949
    6AU     LIG 2991  14.434  39.177   6.754
    6AU     LIG 2992  14.436  39.673   6.642
    6AU     LIG 2993  14.245  40.131   6.556
    6AU     LIG 2994  14.046  40.575   6.487
    6AU       S 2995  13.594  37.890   6.665
    6AU     LIG 2996  13.609  38.089   6.250
    6AU     LIG 2997  13.514  38.303   5.835
    6AU     LIG 2998  13.552  38.659   5.520
    6AU     LIG 2999  13.508  38.960   5.153
    6AU     LIG 3000  13.234  39.115   4.806
    6AU    AUSL 3001  14.376  36.515   6.881
    6AU    AUSL 3002  13.756  36.544   7.240
    6AU     AUL 3003  14.007  36.383   6.945
    6AU       S 3004  13.560  36.493   7.036
    6AU     LIG 3005  13.185  36.180   7.048
    6AU     LIG 3006  12.881  35.839   6.863
    6AU     LIG 3007  12.716  35.492   6.545
    6AU     LIG 3008  12.431  35.107   6.392
    6AU     LIG 3009  12.255  34.644   6.260
    6AU       S 3010  14.413  36.120   6.904
    6AU     LIG 3011  14.510  35.743   6.713
    6AU     LIG 3012  14.218  35.404   6.623
    6AU     LIG 3013  14.141  34.945   6.637
    6AU     LIG 3014  14.276  34.537   6.408
    6AU     LIG 3015  14.315  34.212   6.043
    6AU    AUSL 3016  14.549  36.547   7.313
    6AU    AUSL 3017  14.657  36.828   6.973
    6AU     AUL 3018  14.702  36.478   6.922
    6AU       S 3019  14.628  36.126   7.211
    6AU     LIG 3020  14.581  35.638   7.219
    6AU     LIG 3021  14.461  35.194   7.030
    6AU     LIG 3022  14.515  34.709   6.912
    6AU     LIG 3023  14.590  34.244   6.773
    6AU     LIG 3024  14.875  33.895   6.967
    6AU       S 3025  14.940  36.591   6.558
    6AU     LIG 3026  14.778  36.164   6.507
    6AU     LIG 3027  14.976  35.798   6.268
    6AU     LIG 3028  15.259  35.540   5.964
    6AU     LIG 3029  15.557  35.348   5.628
    6AU     LIG 3030  15.828  35.325   5.221
    7AU     AUC 3031  33.076  20.889   7.505
    7AU     AUC 3032  33.373  20.885   7.337
    7AU     AUC 3033  33.336  20.878   7.675
    7AU     AUC 3034  32.800  20.880   7.345
    7AU     AUC 3035  32.814  20.929   7.686
    7AU     AUC 3036  32.911  21.163   7.503
    7AU     AUC 3037  33.259  21.153   7.491
    7AU     AUC 3038  32.879  20.620   7.512
    7AU     AUC 3039  33.241  20.618   7.513
    7AU     AUC 3040  33.079  20.719   7.771
    7AU     AUC 3041  33.071  21.083   7.757
    7AU     AUC 3042  33.074  20.725   7.240
    7AU     AUC 3043  33.108  21.038   7.234
    7AU     AUC 3044  33.708  20.879   7.187
    7AU     AUC 3045  33.697  20.868   7.524
    7AU     AUC 3046  33.631  20.856   7.877
    7AU     AUC 3047  32.483  20.889   7.182
    7AU     AUC 3048  32.467  20.931   7.542
    7AU     AUC 3049  32.527  20.974   7.874
    7AU     AUC 3050  32.758  21.489   7.469
    7AU     AUC 3051  33.112  21.508   7.443
    7AU     AUC 3052  33.435  21.445   7.474
    7AU     AUC 3053  32.678  20.340   7.511
    7AU     AUC 3054  33.011  20.280   7.468
    7AU     AUC 3055  33.403  20.293   7.491
    7AU     AUC 3056  33.062  20.544   8.068
    7AU     AUC 3057  33.078  20.900   8.102
    7AU     AUC 3058  33.107  21.261   8.047
    7AU     AUC 3059  33.103  20.555   6.955
    7AU     AUC 3060  33.095  20.863   6.897
    7AU     AUC 3061  33.103  21.182   6.927
    7AU     AUC 3062  33.352  20.653   7.997
    7AU     AUC 3063  33.377  21.040   7.997
    7AU     AUC 3064  33.425  20.705   7.029
    7AU     AUC 3065  33.429  21.052   7.038
    7AU     AUC 3066  32.778  20.775   8.020
    7AU     AUC 3067  32.807  21.152   7.989
    7AU     AUC 3068  32.773  20.709   7.054
    7AU     AUC 3069  32.759  21.017   7.005
    7AU     AUC 3070  33.620  21.166   7.334
    7AU     AUC 3071  33.547  21.151   7.698
    7AU     AUC 3072  32.586  21.196   7.343
    7AU     AUC 3073  32.620  21.266   7.687
    7AU     AUC 3074  33.582  20.568   7.357
    7AU     AUC 3075  33.536  20.545   7.684
    7AU     AUC 3076  32.537  20.601   7.380
    7AU     AUC 3077  32.602  20.650   7.725
    7AU     AUC 3078  32.943  21.436   7.752
    7AU     AUC 3079  33.268  21.378   7.767
    7AU     AUC 3080  32.868  20.437   7.794
    7AU     AUC 3081  33.203  20.372   7.771
    7AU     AUC 3082  32.909  21.315   7.189
    7AU     AUC 3083  33.296  21.334   7.165
    7AU     AUC 3084  32.859  20.410   7.221
    7AU     AUC 3085  33.250  20.436   7.222
    7AU    AUSL 3086  33.622  20.785   8.247
    7AU    AUSL 3087  33.362  20.352   8.168
    7AU     AUL 3088  33.662  20.383   8.358
    7AU       S 3089  33.695  20.002   8.106
    7AU     LIG 3090  33.564  19.846   8.472
    7AU     LIG 3091  33.713  19.471   8.681
    7AU     LIG 3092  33.930  19.173   8.975
    7AU     LIG 3093  34.100  19.121   9.410
    7AU     LIG 3094  34.141  19.089   9.882
    7AU       S 3095  33.849  20.796   8.364
    7AU     LIG 3096  33.716  20.784   8.811
    7AU     LIG 3097  33.871  20.618   9.221
    7AU     LIG 3098  34.247  20.580   9.517
    7AU     LIG 3099  34.553  20.675   9.871
    7AU     LIG 3100  34.771  20.886  10.235
    7AU    AUSL 3101  33.209  20.689   8.408
    7AU    AUSL 3102  32.958  21.090   8.441
    7AU     AUL 3103  33.143  20.983   8.746
    7AU       S 3104  33.321  20.609   8.563
    7AU     LIG 3105  33.245  20.538   8.992
    7AU     LIG 3106  33.450  20.315   9.356
    7AU     LIG 3107  33.540  20.049   9.753
    7AU     LIG 3108  33.560  19.935  10.226
    7AU     LIG 3109  33.618  20.029  10.698
    7AU       S 3110  32.728  20.823   8.641
    7AU     LIG 3111  32.751  20.768   9.125
    7AU     LIG 3112  32.461  20.738   9.505
    7AU     LIG 3113  32.303  20.795   9.951
    7AU     LIG 3114  32.318  21.104  10.317
    7AU     LIG 3115  32.199  21.494  10.570
    7AU    AUSL 3116  33.275  21.066   8.158
    7AU    AUSL 3117  33.714  21.196   8.123
    7AU     AUL 3118  33.505  21.087   8.454
    7AU       S 3119  33.188  21.446   8.621
    7AU     LIG 3120  33.532  21.341   8.909
    7AU     LIG 3121  33.711  21.539   9.318
    7AU     LIG 3122  33.647  21.676   9.795
    7AU     LIG 3123  33.743  21.733  10.271
    7AU     LIG 3124  33.857  21.642  10.735
    7AU       S 3125  33.859  21.346   8.287
    7AU     LIG 3126  34.280  21.353   8.343
    7AU     LIG 3127  34.531  21.576   8.664
    7AU     LIG 3128  34.757  21.834   8.979
    7AU     LIG 3129  34.995  21.874   9.380
    7AU     LIG 3130  35.366  22.010   9.642
    7AU    AUSL 3131  33.616  20.916   6.892
    7AU    AUSL 3132  33.512  21.351   6.821
    7AU     AUL 3133  33.800  21.160   6.631
    7AU       S 3134  33.450  21.091   6.357
    7AU     LIG 3135  33.877  21.082   6.088
    7AU     LIG 3136  34.043  20.744   5.824
    7AU     LIG 3137  34.164  20.592   5.411
    7AU     LIG 3138  34.430  20.669   5.044
    7AU     LIG 3139  34.821  20.813   4.823
    7AU       S 3140  33.834  21.599   6.817
    7AU     LIG 3141  34.007  21.778   6.429
    7AU     LIG 3142  34.221  21.964   6.039
    7AU     LIG 3143  34.387  22.019   5.592
    7AU     LIG 3144  34.607  22.212   5.223
    7AU     LIG 3145  34.749  22.520   4.908
    7AU    AUSL 3146  33.400  20.668   6.591
    7AU    AUSL 3147  33.819  20.534   6.934
    7AU     AUL 3148  33.779  20.692   6.657
    7AU       S 3149  33.888  20.230   6.703
    7AU     LIG 3150  33.967  19.874   6.368
    7AU     LIG 3151  34.132  19.444   6.262
    7AU     LIG 3152  34.346  19.190   5.927
    7AU     LIG 3153  34.676  19.168   5.596
    7AU     LIG 3154  34.986  19.229   5.240
    7AU       S 3155  33.515  20.892   6.334
    7AU     LIG 3156  33.593  20.568   6.034
    7AU     LIG 3157  33.735  20.374   5.605
    7AU     LIG 3158  33.904  20.188   5.179
    7AU     LIG 3159  33.912  19.988   4.727
    7AU     LIG 3160  33.950  20.057   4.252
    7AU    AUSL 3161  33.213  21.036   6.766
    7AU    AUSL 3162  32.977  20.654   6.709
    7AU     AUL 3163  33.119  20.696   6.442
    7AU       S 3164  32.664  20.719   6.304
    7AU     LIG 3165  32.790  20.428   6.030
    7AU     LIG 3166  32.567  20.250   5.669
    7AU     LIG 3167  32.381  20.214   5.246
    7AU     LIG 3168  32.216  20.173   4.810
    7AU     LIG 3169  32.154  20.213   4.351
    7AU       S 3170  33.294  21.146   6.450
    7AU     LIG 3171  33.218  20.956   5.947
    7AU     LIG 3172  33.579  20.878   5.610
    7AU     LIG 3173  33.809  20.891   5.174
    7AU     LIG 3174  33.886  21.089   4.725
    7AU     LIG 3175  33.937  21.345   4.306
    7AU    AUSL 3176  32.554  21.053   8.259
    7AU    AUSL 3177  32.868  21.387   8.133
    7AU     AUL 3178  32.727  21.328   8.466
    7AU       S 3179  32.554  20.950   8.700
    7AU     LIG 3180  32.320  20.593   8.875
    7AU     LIG 3181  32.077  20.489   9.260
    7AU     LIG 3182  31.911  20.585   9.688
    7AU     LIG 3183  31.731  20.548  10.110
    7AU     LIG 3184  31.379  20.550  10.414
    7AU       S 3185  32.466  21.636   8.222
    7AU     LIG 3186  32.448  21.798   8.648
    7AU     LIG 3187  32.310  21.985   9.067
    7AU     LIG 3188  32.103  22.283   9.358
    7AU     LIG 3189  32.135  22.610   9.697
    7AU     LIG 3190  32.049  22.863  10.082
    7AU    AUSL 3191  32.855  20.749   8.168
    7AU    AUSL 3192  32.424  20.635   8.161
    7AU     AUL 3193  32.354  20.863   8.295
    7AU       S 3194  32.325  20.396   8.395
    7AU     LIG 3195  31.873  20.329   8.290
    7AU     LIG 3196  31.614  19.943   8.396
    7AU     LIG 3197  31.357  19.642   8.676
    7AU     LIG 3198  31.130  19.353   8.981
    7AU     LIG 3199  30.872  19.202   9.331
    7AU       S 3200  32.739  20.687   8.551
    7AU     LIG 3201  32.777  20.345   8.852
    7AU     LIG 3202  32.555  20.282   9.261
    7AU     LIG 3203  32.322  20.269   9.684
    7AU     LIG 3204  32.097  20.170  10.094
    7AU     LIG 3205  32.101  19.962  10.533
    7AU    AUSL 3206  32.573  20.803   6.790
    7AU    AUSL 3207  32.760  20.429   7.003
    7AU     AUL 3208  32.740  20.427   6.650
    7AU       S 3209  32.433  20.698   6.429
    7AU     LIG 3210  32.266  20.466   6.059
    7AU     LIG 3211  32.111  20.495   5.609
    7AU     LIG 3212  31.941  20.483   5.158
    7AU     LIG 3213  31.600  20.507   4.815
    7AU     LIG 3214  31.320  20.580   4.429
    7AU       S 3215  32.331  20.288   6.810
    7AU     LIG 3216  32.164  19.917   6.617
    7AU     LIG 3217  31.878  19.561   6.503
    7AU     LIG 3218  31.666  19.308   6.158
    7AU     LIG 3219  31.628  19.214   5.693
    7AU     LIG 3220  31.802  19.182   5.242
    7AU    AUSL 3221  32.842  21.081   6.556
    7AU    AUSL 3222  32.348  21.157   6.925
    7AU     AUL 3223  32.483  21.122   6.600
    7AU       S 3224  32.090  21.343   6.749
    7AU     LIG 3225  31.877  21.617   6.417
    7AU     LIG 3226  31.848  21.797   5.979
    7AU     LIG 3227  31.641  21.904   5.557
    7AU     LIG 3228  31.230  22.009   5.329
    7AU     LIG 3229  30.816  22.101   5.113
    7AU       S 3230  32.750  20.943   6.258
    7AU     LIG 3231  32.541  20.837   5.829
    7AU     LIG 3232  32.526  20.696   5.384
    7AU     LIG 3233  32.385  20.658   4.937
    7AU     LIG 3234  32.348  20.847   4.498
    7AU     LIG 3235  32.266  21.129   4.108
    7AU    AUSL 3236  33.860  21.401   7.524
    7AU    AUSL 3237  33.860  21.207   7.103
    7AU     AUL 3238  34.135  21.524   7.359
    7AU       S 3239  33.951  21.425   6.968
    7AU     LIG 3240  34.273  21.392   6.657
    7AU     LIG 3241  34.493  21.612   6.315
    7AU     LIG 3242  34.712  21.798   5.940
    7AU     LIG 3243  34.931  21.975   5.554
    7AU     LIG 3244  35.114  22.329   5.283
    7AU       S 3245  34.258  21.279   7.744
    7AU     LIG 3246  34.682  21.398   7.578
    7AU     LIG 3247  35.158  21.487   7.500
    7AU     LIG 3248  35.610  21.642   7.477
    7AU     LIG 3249  35.821  22.055   7.364
    7AU     LIG 3250  35.944  22.497   7.486
    7AU    AUSL 3251  34.073  20.995   7.415
    7AU    AUSL 3252  34.010  20.664   7.733
    7AU     AUL 3253  34.365  20.766   7.751
    7AU       S 3254  34.217  21.083   7.469
    7AU     LIG 3255  34.686  20.918   7.406
    7AU     LIG 3256  35.154  21.019   7.283
    7AU     LIG 3257  35.585  21.245   7.139
    7AU     LIG 3258  36.059  21.359   6.970
    7AU     LIG 3259  36.508  21.362   6.776
    7AU       S 3260  34.271  20.378   7.531
    7AU     LIG 3261  34.755  20.357   7.558
    7AU     LIG 3262  35.096  20.032   7.666
    7AU     LIG 3263  35.467  19.768   7.770
    7AU     LIG 3264  35.887  19.874   7.946
    7AU     LIG 3265  36.218  20.055   8.210
    7AU    AUSL 3266  33.771  21.023   7.739
    7AU    AUSL 3267  33.514  21.409   7.788
    7AU     AUL 3268  33.844  21.470   7.830
    7AU       S 3269  33.834  21.645   8.256
    7AU     LIG 3270  34.193  21.868   8.403
    7AU     LIG 3271  34.437  22.136   8.693
    7AU     LIG 3272  34.610  22.574   8.753
    7AU     LIG 3273  35.011  22.793   8.702
    7AU     LIG 3274  35.212  23.199   8.794
    7AU       S 3275  34.112  21.109   7.891
    7AU     LIG 3276  34.620  21.099   8.012
    7AU     LIG 3277  35.049  21.079   7.796
    7AU     LIG 3278  35.519  21.132   7.645
    7AU     LIG 3279  35.912  21.324   7.798
    7AU     LIG 3280  36.330  21.407   8.058
    7AU    AUSL 3281  32.433  21.492   7.508
    7AU    AUSL 3282  32.513  21.269   7.892
    7AU     AUL 3283  32.209  21.606   7.749
    7AU       S 3284  32.365  21.452   8.151
    7AU     LIG 3285  32.212  21.340   8.560
    7AU     LIG 3286  31.995  21.630   8.864
    7AU     LIG 3287  31.775  21.918   9.171
    7AU     LIG 3288  31.411  21.933   9.494
    7AU     LIG 3289  30.996  22.011   9.725
    7AU       S 3290  32.445  21.866   7.429
    7AU     LIG 3291  31.960  21.909   7.403
    7AU     LIG 3292  31.524  22.176   7.480
    7AU     LIG 3293  31.117  22.484   7.563
    7AU     LIG 3294  30.686  22.710   7.701
    7AU     LIG 3295  30.379  23.029   7.900
    7AU    AUSL 3296  32.388  21.084   7.339
    7AU    AUSL 3297  32.515  21.538   7.087
    7AU     AUL 3298  32.212  21.432   7.202
    7AU       S 3299  31.991  20.881   6.981
    7AU     LIG 3300  31.688  21.243   7.050
    7AU     LIG 3301  31.300  21.494   6.926
    7AU     LIG 3302  30.829  21.575   6.839
    7AU     LIG 3303  30.349  21.576   6.772
    7AU     LIG 3304  29.907  21.739   6.725
    7AU       S 3305  32.357  21.783   6.907
    7AU     LIG 3306  32.141  22.042   6.578
    7AU     LIG 3307  31.951  22.260   6.203
    7AU     LIG 3308  31.644  22.621   6.078
    7AU     LIG 3309  31.311  22.980   6.130
    7AU     LIG 3310  30.948  23.309   6.070
    7AU    AUSL 3311  32.145  21.154   7.711
    7AU    AUSL 3312  32.096  20.779   7.422
    7AU     AUL 3313  31.988  21.092   7.420
    7AU       S 3314  31.854  20.704   7.664
    7AU     LIG 3315  31.479  20.537   7.362
    7AU     LIG 3316  30.998  20.408   7.410
    7AU     LIG 3317  30.516  20.265   7.377
    7AU     LIG 3318  30.074  20.069   7.328
    7AU     LIG 3319  29.615  20.059   7.196
    7AU       S 3320  32.041  21.159   7.937
    7AU     LIG 3321  31.609  21.225   7.775
    7AU     LIG 3322  31.112  21.268   7.855
    7AU     LIG 3323  30.596  21.290   7.879
    7AU     LIG 3324  30.164  21.537   7.962
    7AU     LIG 3325  29.752  21.810   7.919
    7AU    AUSL 3326  33.805  20.305   7.561
    7AU    AUSL 3327  33.612  20.570   7.878
    7AU     AUL 3328  33.942  20.466   7.951
    7AU       S 3329  34.115  20.203   7.583
    7AU     LIG 3330  34.481  19.912   7.518
    7AU     LIG 3331  34.821  19.598   7.544
    7AU     LIG 3332  35.230  19.392   7.496
    7AU     LIG 3333  35.668  19.291   7.606
    7AU     LIG 3334  35.854  18.926   7.861
    7AU       S 3335  33.827  20.027   7.978
    7AU     LIG 3336  34.051  19.724   8.313
    7AU     LIG 3337  34.236  19.480   8.675
    7AU     LIG 3338  34.447  19.246   9.028
    7AU     LIG 3339  34.807  19.073   9.270
    7AU     LIG 3340  35.220  19.096   9.504
    7AU    AUSL 3341  33.789  20.684   7.333
    7AU    AUSL 3342  33.653  20.187   7.167
    7AU     AUL 3343  33.928  20.324   7.177
    7AU       S 3344  34.268  20.568   7.332
    7AU     LIG 3345  34.522  20.239   7.113
    7AU     LIG 3346  34.904  19.965   7.188
    7AU     LIG 3347  35.364  19.825   7.257
    7AU     LIG 3348  35.833  19.747   7.171
    7AU     LIG 3349  36.280  19.658   7.056
    7AU       S 3350  33.848  19.996   6.839
    7AU     LIG 3351  33.823  19.519   6.733
    7AU     LIG 3352  33.861  19.073   6.518
    7AU     LIG 3353  34.163  18.814   6.245
    7AU     LIG 3354  34.633  18.803   6.154
    7AU     LIG 3355  34.933  18.435   6.078
    7AU    AUSL 3356  32.274  20.404   7.584
    7AU    AUSL 3357  32.402  20.639   7.152
    7AU     AUL 3358  32.054  20.488   7.291
    7AU       S 3359  32.271  20.458   6.885
    7AU     LIG 3360  31.826  20.265   6.885
    7AU     LIG 3361  31.569  19.945   6.658
    7AU     LIG 3362  31.339  19.658   6.346
    7AU     LIG 3363  31.167  19.408   5.964
    7AU     LIG 3364  30.855  19.302   5.603
    7AU       S 3365  31.832  20.450   7.712
    7AU     LIG 3366  31.753  20.109   7.435
    7AU     LIG 3367  31.340  19.988   7.256
    7AU     LIG 3368  30.880  19.894   7.408
    7AU     LIG 3369  30.425  19.780   7.566
    7AU     LIG 3370  29.957  19.600   7.538
    7AU    AUSL 3371  32.379  20.800   7.766
    7AU    AUSL 3372  32.612  20.399   7.850
    7AU     AUL 3373  32.239  20.469   7.924
    7AU       S 3374  32.339  20.157   8.237
    7AU     LIG 3375  32.026  19.949   7.984
    7AU     LIG 3376  31.793  19.558   8.105
    7AU     LIG 3377  31.535  19.267   8.370
    7AU     LIG 3378  31.343  18.985   8.683
    7AU     LIG 3379  30.958  18.776   8.833
    7AU       S 3380  31.866  20.729   7.837
    7AU     LIG 3381  31.355  20.783   7.788
    7AU     LIG 3382  30.876  20.850   7.672
    7AU     LIG 3383  30.439  20.679   7.666
    7AU     LIG 3384  30.097  20.369   7.773
    7AU     LIG 3385  29.624  20.285   7.820
    7AU    AUSL 3386  33.130  21.636   7.891
    7AU    AUSL 3387  32.694  21.660   7.816
    7AU     AUL 3388  32.929  21.711   8.182
    7AU       S 3389  32.559  21.868   7.936
    7AU     LIG 3390  32.230  22.066   8.241
    7AU     LIG 3391  32.023  22.128   8.668
    7AU     LIG 3392  31.816  22.444   8.951
    7AU     LIG 3393  31.546  22.849   8.965
    7AU     LIG 3394  31.165  23.143   8.902
    7AU       S 3395  33.128  22.049   7.938
    7AU     LIG 3396  33.321  22.057   8.334
    7AU     LIG 3397  33.457  22.457   8.555
    7AU     LIG 3398  33.483  22.905   8.705
    7AU     LIG 3399  33.287  23.234   8.988
    7AU     LIG 3400  33.181  23.460   9.395
    7AU    AUSL 3401  32.965  21.855   7.537
    7AU    AUSL 3402  33.257  21.777   7.174
    7AU     AUL 3403  33.193  22.121   7.322
    7AU       S 3404  32.970  22.083   7.742
    7AU     LIG 3405  33.074  22.536   7.950
    7AU     LIG 3406  33.273  22.854   8.236
    7AU     LIG 3407  33.144  23.260   8.479
    7AU     LIG 3408  32.838  23.641   8.585
    7AU     LIG 3409  32.673  24.055   8.794
    7AU       S 3410  32.986  21.939   6.957
    7AU     LIG 3411  33.423  22.178   6.892
    7AU     LIG 3412  33.572  22.625   6.844
    7AU     LIG 3413  33.657  23.103   6.787
    7AU     LIG 3414  33.952  23.511   6.772
    7AU     LIG 3415  33.929  23.996   6.739
    7AU    AUSL 3416  33.420  21.771   7.584
    7AU    AUSL 3417  33.372  21.479   8.207
    7AU     AUL 3418  33.478  21.741   7.969
    7AU       S 3419  33.613  21.574   8.411
    7AU     LIG 3420  33.970  21.552   8.742
    7AU     LIG 3421  34.230  21.791   9.034
    7AU     LIG 3422  34.472  21.984   9.386
    7AU     LIG 3423  34.488  22.235   9.779
    7AU     LIG 3424  34.506  22.641  10.014
    7AU       S 3425  33.335  22.128   7.763
    7AU     LIG 3426  33.570  22.411   8.052
    7AU     LIG 3427  33.798  22.765   8.282
    7AU     LIG 3428  33.966  23.196   8.194
    7AU     LIG 3429  33.968  23.657   8.123
    7AU     LIG 3430  34.261  24.017   8.221
    7AU    AUSL 3431  33.025  20.233   7.915
    7AU    AUSL 3432  33.441  20.184   7.759
    7AU     AUL 3433  33.235  20.064   8.136
    7AU       S 3434  33.008  19.690   7.997
    7AU     LIG 3435  33.006  19.406   8.306
    7AU     LIG 3436  32.834  19.003   8.380
    7AU     LIG 3437  32.888  18.563   8.413
    7AU     LIG 3438  33.075  18.213   8.646
    7AU     LIG 3439  33.182  18.045   9.075
    7AU       S 3440  33.590  19.952   7.824
    7AU     LIG 3441  33.635  19.509   8.076
    7AU     LIG 3442  33.959  19.194   8.323
    7AU     LIG 3443  34.260  18.955   8.634
    7AU     LIG 3444  34.623  18.767   8.880
    7AU     LIG 3445  34.932  18.394   8.795
    7AU    AUSL 3446  32.700  20.035   7.655
    7AU    AUSL 3447  32.796  20.338   8.261
    7AU     AUL 3448  32.725  20.065   8.018
    7AU       S 3449  32.811  19.636   7.861
    7AU     LIG 3450  32.629  19.254   7.970
    7AU     LIG 3451  32.560  18.805   7.987
    7AU     LIG 3452  32.526  18.367   8.104
    7AU     LIG 3453  32.345  17.950   8.169
    7AU     LIG 3454  32.178  17.524   8.195
    7AU       S 3455  32.538  20.230   8.435
    7AU     LIG 3456  32.120  19.935   8.592
    7AU     LIG 3457  31.869  19.550   8.643
    7AU     LIG 3458  31.639  19.316   8.978
    7AU     LIG 3459  31.453  19.367   9.427
    7AU     LIG 3460  31.434  19.166   9.876
    7AU    AUSL 3461  33.130  19.926   7.610
    7AU    AUSL 3462  32.873  20.047   7.251
    7AU     AUL 3463  32.755  19.795   7.431
    7AU       S 3464  33.111  19.772   7.137
    7AU     LIG 3465  32.772  19.465   7.046
    7AU     LIG 3466  32.710  19.012   7.051
    7AU     LIG 3467  32.726  18.566   6.896
    7AU     LIG 3468  32.724  18.079   6.831
    7AU     LIG 3469  32.458  17.676   6.759
    7AU       S 3470  33.130  19.735   7.750
    7AU     LIG 3471  33.124  19.236   7.786
    7AU     LIG 3472  33.077  18.775   7.956
    7AU     LIG 3473  33.092  18.294   8.030
    7AU     LIG 3474  33.228  17.910   8.267
    7AU     LIG 3475  33.389  17.484   8.330
    7AU    AUSL 3476  33.098  21.494   6.855
    7AU    AUSL 3477  33.530  21.458   7.248
    7AU     AUL 3478  33.387  21.679   6.869
    7AU       S 3479  32.994  21.906   6.732
    7AU     LIG 3480  33.131  22.271   6.491
    7AU     LIG 3481  33.361  22.649   6.365
    7AU     LIG 3482  33.432  22.872   5.955
    7AU     LIG 3483  33.300  23.140   5.589
    7AU     LIG 3484  33.361  23.528   5.318
    7AU       S 3485  33.765  21.696   7.134
    7AU     LIG 3486  34.213  21.882   6.914
    7AU     LIG 3487  34.420  22.098   6.512
    7AU     LIG 3488  34.582  22.468   6.209
    7AU     LIG 3489  34.831  22.861   6.017
    7AU     LIG 3490  35.158  23.168   5.833
    7AU    AUSL 3491  32.901  21.539   7.258
    7AU    AUSL 3492  32.790  21.212   6.959
    7AU     AUL 3493  32.753  21.520   6.815
    7AU       S 3494  32.808  21.922   7.080
    7AU     LIG 3495  32.967  22.428   6.958
    7AU     LIG 3496  33.121  22.882   6.792
    7AU     LIG 3497  33.069  23.391   6.772
    7AU     LIG 3498  32.847  23.864   6.799
    7AU     LIG 3499  32.506  24.262   6.814
    7AU       S 3500  32.320  21.559   6.662
    7AU     LIG 3501  32.356  21.724   6.234
    7AU     LIG 3502  32.298  22.016   5.871
    7AU     LIG 3503  32.120  22.123   5.443
    7AU     LIG 3504  32.096  22.437   5.085
    7AU     LIG 3505  32.021  22.851   4.884
    7AU    AUSL 3506  33.092  20.178   6.884
    7AU    AUSL 3507  32.478  20.208   7.259
    7AU     AUL 3508  32.727  20.042   6.950
    7AU       S 3509  32.293  20.156   7.070
    7AU     LIG 3510  31.985  19.816   7.084
    7AU     LIG 3511  31.629  19.552   6.975
    7AU     LIG 3512  31.475  19.260   6.647
    7AU     LIG 3513  31.320  18.887   6.414
    7AU     LIG 3514  31.186  18.484   6.207
    7AU       S 3515  33.131  19.777   6.903
    7AU     LIG 3516  33.196  19.390   6.689
    7AU     LIG 3517  33.023  18.959   6.632
    7AU     LIG 3518  33.070  18.514   6.504
    7AU     LIG 3519  33.088  18.097   6.288
    7AU     LIG 3520  32.923  17.791   5.937
    7AU    AUSL 3521  33.262  20.211   7.317
    7AU    AUSL 3522  33.373  20.491   6.977
    7AU     AUL 3523  33.418  20.135   6.935
    7AU       S 3524  33.334  19.780   7.219
    7AU     LIG 3525  33.232  19.279   7.197
    7AU     LIG 3526  33.178  18.791   7.095
    7AU     LIG 3527  33.174  18.323   6.963
    7AU     LIG 3528  33.225  17.893   6.810
    7AU     LIG 3529  33.242  17.468   6.611
    7AU       S 3530  33.646  20.246   6.564
    7AU     LIG 3531  33.471  19.828   6.517
    7AU     LIG 3532  33.604  19.450   6.269
    7AU     LIG 3533  33.820  19.118   5.992
    7AU     LIG 3534  34.019  18.958   5.591
    7AU     LIG 3535  34.165  18.981   5.140
    8AU     AUC 3536  26.238  40.728   7.507
    8AU     AUC 3537  26.534  40.724   7.340
    8AU     AUC 3538  26.494  40.716   7.678
    8AU     AUC 3539  25.965  40.718   7.344
    8AU     AUC 3540  25.976  40.768   7.687
    8AU     AUC 3541  26.073  41.002   7.503
    8AU     AUC 3542  26.421  40.992   7.494
    8AU     AUC 3543  26.046  40.461   7.509
    8AU     AUC 3544  26.402  40.456   7.516
    8AU     AUC 3545  26.239  40.554   7.775
    8AU     AUC 3546  26.231  40.921   7.759
    8AU     AUC 3547  26.239  40.563   7.241
    8AU     AUC 3548  26.271  40.877   7.235
    8AU     AUC 3549  26.870  40.718   7.192
    8AU     AUC 3550  26.856  40.705   7.529
    8AU     AUC 3551  26.787  40.691   7.882
    8AU     AUC 3552  25.650  40.725   7.179
    8AU     AUC 3553  25.630  40.768   7.540
    8AU     AUC 3554  25.686  40.813   7.870
    8AU     AUC 3555  25.921  41.326   7.468
    8AU     AUC 3556  26.274  41.346   7.446
    8AU     AUC 3557  26.596  41.283   7.480
    8AU     AUC 3558  25.845  40.180   7.508
    8AU     AUC 3559  26.173  40.119   7.480
    8AU     AUC 3560  26.562  40.129   7.495
    8AU     AUC 3561  26.218  40.380   8.072
    8AU     AUC 3562  26.234  40.739   8.105
    8AU     AUC 3563  26.263  41.099   8.050
    8AU     AUC 3564  26.270  40.394   6.957
    8AU     AUC 3565  26.262  40.702   6.897
    8AU     AUC 3566  26.269  41.021   6.927
    8AU     AUC 3567  26.505  40.491   8.001
    8AU     AUC 3568  26.533  40.876   8.001
    8AU     AUC 3569  26.589  40.544   7.031
    8AU     AUC 3570  26.593  40.892   7.041
    8AU     AUC 3571  25.937  40.621   8.024
    8AU     AUC 3572  25.963  40.993   7.988
    8AU     AUC 3573  25.939  40.548   7.051
    8AU     AUC 3574  25.925  40.854   7.003
    8AU     AUC 3575  26.782  41.004   7.339
    8AU     AUC 3576  26.706  40.988   7.703
    8AU     AUC 3577  25.751  41.031   7.340
    8AU     AUC 3578  25.781  41.103   7.685
    8AU     AUC 3579  26.742  40.406   7.362
    8AU     AUC 3580  26.692  40.381   7.688
    8AU     AUC 3581  25.703  40.438   7.377
    8AU     AUC 3582  25.763  40.493   7.725
    8AU     AUC 3583  26.102  41.274   7.753
    8AU     AUC 3584  26.428  41.215   7.772
    8AU     AUC 3585  26.036  40.268   7.801
    8AU     AUC 3586  26.357  40.204   7.777
    8AU     AUC 3587  26.073  41.153   7.188
    8AU     AUC 3588  26.459  41.173   7.168
    8AU     AUC 3589  26.024  40.248   7.220
    8AU     AUC 3590  26.414  40.274   7.225
    8AU    AUSL 3591  26.772  40.617   8.252
    8AU    AUSL 3592  26.504  40.201   8.167
    8AU     AUL 3593  26.811  40.211   8.337
    8AU       S 3594  26.848  39.817   8.104
    8AU     LIG 3595  26.716  39.609   8.451
    8AU     LIG 3596  26.838  39.219   8.661
    8AU     LIG 3597  27.125  38.889   8.864
    8AU     LIG 3598  27.388  38.826   9.261
    8AU     LIG 3599  27.473  38.767   9.719
    8AU       S 3600  27.002  40.620   8.413
    8AU     LIG 3601  26.885  40.660   8.865
    8AU     LIG 3602  27.027  40.631   9.320
    8AU     LIG 3603  27.315  40.424   9.657
    8AU     LIG 3604  27.687  40.362   9.974
    8AU     LIG 3605  27.994  40.453  10.336
    8AU    AUSL 3606  26.360  40.528   8.420
    8AU    AUSL 3607  26.109  40.932   8.444
    8AU     AUL 3608  26.291  40.810   8.742
    8AU       S 3609  26.518  40.437   8.605
    8AU     LIG 3610  26.425  40.403   9.028
    8AU     LIG 3611  26.679  40.243   9.379
    8AU     LIG 3612  26.930  40.059   9.738
    8AU     LIG 3613  27.054  39.825  10.145
    8AU     LIG 3614  27.232  39.781  10.589
    8AU       S 3615  25.869  40.666   8.641
    8AU     LIG 3616  25.946  40.656   9.116
    8AU     LIG 3617  25.710  40.633   9.528
    8AU     LIG 3618  25.643  40.831   9.967
    8AU     LIG 3619  25.743  41.072  10.384
    8AU     LIG 3620  25.705  41.384  10.753
    8AU    AUSL 3621  26.428  40.902   8.164
    8AU    AUSL 3622  26.869  41.027   8.130
    8AU     AUL 3623  26.658  40.920   8.459
    8AU       S 3624  26.351  41.275   8.632
    8AU     LIG 3625  26.695  41.137   8.927
    8AU     LIG 3626  26.953  41.208   9.340
    8AU     LIG 3627  26.939  41.337   9.831
    8AU     LIG 3628  26.895  41.378  10.326
    8AU     LIG 3629  27.041  41.367  10.793
    8AU       S 3630  27.013  41.178   8.294
    8AU     LIG 3631  27.414  41.115   8.385
    8AU     LIG 3632  27.689  41.316   8.699
    8AU     LIG 3633  27.938  41.539   9.027
    8AU     LIG 3634  28.164  41.826   9.314
    8AU     LIG 3635  28.556  41.980   9.512
    8AU    AUSL 3636  26.782  40.756   6.899
    8AU    AUSL 3637  26.678  41.192   6.826
    8AU     AUL 3638  26.965  41.002   6.639
    8AU       S 3639  26.625  40.925   6.354
    8AU     LIG 3640  26.990  40.895   5.995
    8AU     LIG 3641  27.172  40.588   5.692
    8AU     LIG 3642  27.344  40.327   5.332
    8AU     LIG 3643  27.716  40.246   5.026
    8AU     LIG 3644  28.068  40.406   4.737
    8AU       S 3645  26.998  41.445   6.823
    8AU     LIG 3646  27.124  41.627   6.439
    8AU     LIG 3647  27.343  41.793   6.061
    8AU     LIG 3648  27.540  42.060   5.741
    8AU     LIG 3649  27.783  42.267   5.431
    8AU     LIG 3650  27.771  42.493   5.018
    8AU    AUSL 3651  26.573  40.507   6.595
    8AU    AUSL 3652  26.983  40.374   6.939
    8AU     AUL 3653  26.951  40.533   6.665
    8AU       S 3654  27.053  40.069   6.709
    8AU     LIG 3655  27.137  39.706   6.391
    8AU     LIG 3656  27.347  39.317   6.274
    8AU     LIG 3657  27.567  39.095   5.938
    8AU     LIG 3658  27.894  39.194   5.609
    8AU     LIG 3659  28.343  39.271   5.474
    8AU       S 3660  26.693  40.730   6.335
    8AU     LIG 3661  26.785  40.392   6.047
    8AU     LIG 3662  26.863  40.192   5.604
    8AU     LIG 3663  26.931  40.057   5.148
    8AU     LIG 3664  26.928  39.935   4.686
    8AU     LIG 3665  27.207  39.904   4.312
    8AU    AUSL 3666  26.381  40.876   6.766
    8AU    AUSL 3667  26.147  40.493   6.707
    8AU     AUL 3668  26.296  40.532   6.444
    8AU       S 3669  25.846  40.553   6.298
    8AU     LIG 3670  25.991  40.320   5.972
    8AU     LIG 3671  25.750  40.081   5.662
    8AU     LIG 3672  25.563  40.076   5.235
    8AU     LIG 3673  25.349  40.028   4.815
    8AU     LIG 3674  25.312  39.837   4.371
    8AU       S 3675  26.465  40.983   6.455
    8AU     LIG 3676  26.344  40.755   5.985
    8AU     LIG 3677  26.652  40.672   5.633
    8AU     LIG 3678  26.891  40.584   5.231
    8AU     LIG 3679  26.961  40.740   4.779
    8AU     LIG 3680  26.950  40.823   4.306
    8AU    AUSL 3681  25.706  40.890   8.257
    8AU    AUSL 3682  26.023  41.226   8.133
    8AU     AUL 3683  25.877  41.169   8.464
    8AU       S 3684  25.696  40.786   8.691
    8AU     LIG 3685  25.497  40.450   8.940
    8AU     LIG 3686  25.291  40.359   9.362
    8AU     LIG 3687  25.073  40.267   9.778
    8AU     LIG 3688  24.694  40.241  10.064
    8AU     LIG 3689  24.423  40.372  10.431
    8AU       S 3690  25.620  41.481   8.220
    8AU     LIG 3691  25.589  41.644   8.653
    8AU     LIG 3692  25.450  41.840   9.067
    8AU     LIG 3693  25.212  42.114   9.368
    8AU     LIG 3694  25.091  42.275   9.802
    8AU     LIG 3695  24.959  42.601  10.124
    8AU    AUSL 3696  26.013  40.592   8.168
    8AU    AUSL 3697  25.584  40.466   8.157
    8AU     AUL 3698  25.502  40.701   8.281
    8AU       S 3699  25.492  40.250   8.418
    8AU     LIG 3700  25.047  40.195   8.256
    8AU     LIG 3701  24.782  39.813   8.349
    8AU     LIG 3702  24.528  39.522   8.630
    8AU     LIG 3703  24.314  39.311   9.002
    8AU     LIG 3704  24.053  39.375   9.404
    8AU       S 3705  25.888  40.533   8.554
    8AU     LIG 3706  25.957  40.213   8.880
    8AU     LIG 3707  25.771  40.162   9.304
    8AU     LIG 3708  25.530  40.025   9.695
    8AU     LIG 3709  25.322  39.896  10.108
    8AU     LIG 3710  25.343  39.788  10.575
    8AU    AUSL 3711  25.742  40.640   6.785
    8AU    AUSL 3712  25.927  40.269   7.001
    8AU     AUL 3713  25.910  40.265   6.648
    8AU       S 3714  25.609  40.538   6.422
    8AU     LIG 3715  25.463  40.315   6.044
    8AU     LIG 3716  25.298  40.346   5.610
    8AU     LIG 3717  25.069  40.223   5.217
    8AU     LIG 3718  24.801  40.254   4.841
    8AU     LIG 3719  24.450  40.342   4.539
    8AU       S 3720  25.496  40.131   6.797
    8AU     LIG 3721  25.269  39.797   6.587
    8AU     LIG 3722  25.020  39.413   6.473
    8AU     LIG 3723  24.786  39.129   6.175
    8AU     LIG 3724  24.644  39.059   5.725
    8AU     LIG 3725  24.659  38.914   5.273
    8AU    AUSL 3726  26.011  40.919   6.554
    8AU    AUSL 3727  25.513  40.991   6.922
    8AU     AUL 3728  25.648  40.961   6.598
    8AU       S 3729  25.251  41.165   6.759
    8AU     LIG 3730  25.008  41.482   6.531
    8AU     LIG 3731  25.042  41.718   6.153
    8AU     LIG 3732  24.819  41.864   5.791
    8AU     LIG 3733  24.455  41.901   5.497
    8AU     LIG 3734  24.023  41.949   5.317
    8AU       S 3735  25.925  40.782   6.268
    8AU     LIG 3736  25.707  40.730   5.846
    8AU     LIG 3737  25.739  40.540   5.426
    8AU     LIG 3738  25.622  40.538   4.971
    8AU     LIG 3739  25.640  40.855   4.607
    8AU     LIG 3740  25.587  41.189   4.267
    8AU    AUSL 3741  27.021  41.238   7.532
    8AU    AUSL 3742  27.025  41.050   7.107
    8AU     AUL 3743  27.300  41.352   7.359
    8AU       S 3744  27.115  41.293   6.959
    8AU     LIG 3745  27.447  41.278   6.642
    8AU     LIG 3746  27.617  41.389   6.219
    8AU     LIG 3747  27.830  41.637   5.873
    8AU     LIG 3748  28.203  41.747   5.600
    8AU     LIG 3749  28.621  41.776   5.364
    8AU       S 3750  27.417  41.111   7.748
    8AU     LIG 3751  27.850  41.237   7.609
    8AU     LIG 3752  28.315  41.370   7.581
    8AU     LIG 3753  28.772  41.465   7.541
    8AU     LIG 3754  29.130  41.720   7.482
    8AU     LIG 3755  29.291  42.164   7.572
    8AU    AUSL 3756  27.231  40.829   7.419
    8AU    AUSL 3757  27.167  40.498   7.737
    8AU     AUL 3758  27.530  40.603   7.751
    8AU       S 3759  27.353  40.909   7.476
    8AU     LIG 3760  27.777  40.796   7.360
    8AU     LIG 3761  28.228  40.922   7.347
    8AU     LIG 3762  28.615  41.139   7.186
    8AU     LIG 3763  29.051  41.341   7.114
    8AU     LIG 3764  29.461  41.556   7.052
    8AU       S 3765  27.426  40.204   7.551
    8AU     LIG 3766  27.830  39.965   7.601
    8AU     LIG 3767  28.258  39.737   7.637
    8AU     LIG 3768  28.638  39.675   7.921
    8AU     LIG 3769  29.024  39.711   8.206
    8AU     LIG 3770  29.406  39.433   8.233
    8AU    AUSL 3771  26.930  40.859   7.744
    8AU    AUSL 3772  26.675  41.245   7.796
    8AU     AUL 3773  27.004  41.305   7.839
    8AU       S 3774  26.993  41.474   8.267
    8AU     LIG 3775  27.389  41.636   8.415
    8AU     LIG 3776  27.642  41.850   8.747
    8AU     LIG 3777  27.985  42.128   8.928
    8AU     LIG 3778  28.292  42.521   8.907
    8AU     LIG 3779  28.598  42.920   8.866
    8AU       S 3780  27.266  40.939   7.897
    8AU     LIG 3781  27.764  40.935   8.040
    8AU     LIG 3782  28.208  40.949   7.870
    8AU     LIG 3783  28.674  41.066   7.844
    8AU     LIG 3784  29.117  41.289   7.881
    8AU     LIG 3785  29.551  41.481   7.955
    8AU    AUSL 3786  25.601  41.327   7.505
    8AU    AUSL 3787  25.668  41.111   7.893
    8AU     AUL 3788  25.371  41.446   7.738
    8AU       S 3789  25.517  41.288   8.143
    8AU     LIG 3790  25.369  41.178   8.562
    8AU     LIG 3791  25.173  41.430   8.920
    8AU     LIG 3792  24.926  41.689   9.248
    8AU     LIG 3793  24.557  41.850   9.530
    8AU     LIG 3794  24.152  41.947   9.791
    8AU       S 3795  25.611  41.706   7.424
    8AU     LIG 3796  25.150  41.862   7.471
    8AU     LIG 3797  24.758  42.124   7.630
    8AU     LIG 3798  24.323  42.364   7.637
    8AU     LIG 3799  23.989  42.668   7.444
    8AU     LIG 3800  23.536  42.748   7.315
    8AU    AUSL 3801  25.553  40.918   7.336
    8AU    AUSL 3802  25.678  41.374   7.083
    8AU     AUL 3803  25.377  41.268   7.204
    8AU       S 3804  25.156  40.710   6.975
    8AU     LIG 3805  24.802  41.037   7.013
    8AU     LIG 3806  24.327  41.191   6.931
    8AU     LIG 3807  23.891  41.327   6.735
    8AU     LIG 3808  23.396  41.250   6.770
    8AU     LIG 3809  22.939  41.452   6.868
    8AU       S 3810  25.519  41.615   6.903
    8AU     LIG 3811  25.337  41.887   6.563
    8AU     LIG 3812  25.230  42.201   6.242
    8AU     LIG 3813  24.980  42.580   6.303
    8AU     LIG 3814  24.744  42.973   6.250
    8AU     LIG 3815  24.513  43.282   6.000
    8AU    AUSL 3816  25.307  40.991   7.701
    8AU    AUSL 3817  25.263  40.611   7.420
    8AU     AUL 3818  25.146  40.921   7.407
    8AU       S 3819  25.064  40.539   7.690
    8AU     LIG 3820  24.692  40.397   7.372
    8AU     LIG 3821  24.216  40.230   7.311
    8AU     LIG 3822  23.744  40.090   7.210
    8AU     LIG 3823  23.292  40.158   7.091
    8AU     LIG 3824  22.883  40.012   6.907
    8AU       S 3825  25.176  41.026   7.907
    8AU     LIG 3826  24.718  41.134   7.867
    8AU     LIG 3827  24.245  41.250   7.980
    8AU     LIG 3828  23.935  41.598   8.133
    8AU     LIG 3829  23.454  41.673   8.067
    8AU     LIG 3830  23.000  41.886   8.063
    8AU    AUSL 3831  26.957  40.139   7.566
    8AU    AUSL 3832  26.769  40.407   7.880
    8AU     AUL 3833  27.102  40.308   7.955
    8AU       S 3834  27.257  40.038   7.591
    8AU     LIG 3835  27.424  39.680   7.420
    8AU     LIG 3836  27.820  39.456   7.478
    8AU     LIG 3837  28.236  39.290   7.369
    8AU     LIG 3838  28.532  38.957   7.479
    8AU     LIG 3839  28.968  38.953   7.546
    8AU       S 3840  26.979  39.872   7.984
    8AU     LIG 3841  27.200  39.515   8.257
    8AU     LIG 3842  27.357  39.294   8.626
    8AU     LIG 3843  27.654  39.041   8.882
    8AU     LIG 3844  27.952  39.014   9.250
    8AU     LIG 3845  28.361  39.118   9.489
    8AU    AUSL 3846  26.947  40.518   7.339
    8AU    AUSL 3847  26.817  40.025   7.167
    8AU     AUL 3848  27.087  40.163   7.182
    8AU       S 3849  27.429  40.397   7.342
    8AU     LIG 3850  27.656  40.037   7.124
    8AU     LIG 3851  28.065  39.765   7.147
    8AU     LIG 3852  28.510  39.585   7.030
    8AU     LIG 3853  28.996  39.608   7.006
    8AU     LIG 3854  29.460  39.671   7.018
    8AU       S 3855  27.009  39.833   6.853
    8AU     LIG 3856  26.929  39.369   6.851
    8AU     LIG 3857  27.158  39.002   6.630
    8AU     LIG 3858  27.266  38.776   6.234
    8AU     LIG 3859  27.503  38.449   5.998
    8AU     LIG 3860  27.884  38.157   5.953
    8AU    AUSL 3861  25.453  40.240   7.581
    8AU    AUSL 3862  25.567  40.476   7.146
    8AU     AUL 3863  25.223  40.319   7.294
    8AU       S 3864  25.436  40.300   6.882
    8AU     LIG 3865  24.984  40.154   6.882
    8AU     LIG 3866  24.738  39.820   6.665
    8AU     LIG 3867  24.504  39.499   6.400
    8AU     LIG 3868  24.279  39.223   6.070
    8AU     LIG 3869  23.950  39.041   5.759
    8AU       S 3870  25.037  40.307   7.739
    8AU     LIG 3871  24.939  39.951   7.464
    8AU     LIG 3872  24.535  39.802   7.274
    8AU     LIG 3873  24.065  39.748   7.422
    8AU     LIG 3874  23.598  39.616   7.405
    8AU     LIG 3875  23.369  39.191   7.376
    8AU    AUSL 3876  25.542  40.636   7.767
    8AU    AUSL 3877  25.795  40.247   7.844
    8AU     AUL 3878  25.452  40.225   7.922
    8AU       S 3879  25.508  40.031   8.336
    8AU     LIG 3880  25.247  39.753   8.070
    8AU     LIG 3881  24.916  39.403   8.066
    8AU     LIG 3882  24.623  39.117   8.323
    8AU     LIG 3883  24.358  38.817   8.611
    8AU     LIG 3884  24.141  38.387   8.730
    8AU       S 3885  25.130  40.556   7.880
    8AU     LIG 3886  24.606  40.629   7.831
    8AU     LIG 3887  24.138  40.556   7.697
    8AU     LIG 3888  23.774  40.233   7.712
    8AU     LIG 3889  23.350  40.042   7.605
    8AU     LIG 3890  22.911  40.090   7.814
    8AU    AUSL 3891  26.289  41.474   7.895
    8AU    AUSL 3892  25.853  41.500   7.816
    8AU     AUL 3893  26.086  41.550   8.183
    8AU       S 3894  25.719  41.706   7.932
    8AU     LIG 3895  25.444  41.950   8.252
    8AU     LIG 3896  25.292  42.138   8.676
    8AU     LIG 3897  25.136  42.516   8.956
    8AU     LIG 3898  24.851  42.905   9.034
    8AU     LIG 3899  24.802  43.374   8.952
    8AU       S 3900  26.290  41.886   7.937
    8AU     LIG 3901  26.446  41.957   8.327
    8AU     LIG 3902  26.530  42.389   8.508
    8AU     LIG 3903  26.646  42.812   8.722
    8AU     LIG 3904  26.727  43.037   9.162
    8AU     LIG 3905  26.624  43.341   9.531
    8AU    AUSL 3906  26.127  41.692   7.539
    8AU    AUSL 3907  26.420  41.615   7.179
    8AU     AUL 3908  26.351  41.956   7.328
    8AU       S 3909  26.136  41.931   7.756
    8AU     LIG 3910  26.253  42.370   8.035
    8AU     LIG 3911  26.303  42.809   8.269
    8AU     LIG 3912  26.087  43.255   8.351
    8AU     LIG 3913  25.848  43.691   8.376
    8AU     LIG 3914  25.606  44.039   8.637
    8AU       S 3915  26.148  41.776   6.959
    8AU     LIG 3916  26.563  42.042   6.891
    8AU     LIG 3917  26.707  42.501   6.799
    8AU     LIG 3918  26.939  42.927   6.668
    8AU     LIG 3919  27.023  43.383   6.488
    8AU     LIG 3920  27.069  43.881   6.519
    8AU    AUSL 3921  26.582  41.608   7.589
    8AU    AUSL 3922  26.528  41.314   8.213
    8AU     AUL 3923  26.637  41.577   7.979
    8AU       S 3924  26.773  41.405   8.420
    8AU     LIG 3925  27.128  41.354   8.760
    8AU     LIG 3926  27.410  41.524   9.089
    8AU     LIG 3927  27.645  41.886   9.282
    8AU     LIG 3928  27.706  42.183   9.650
    8AU     LIG 3929  27.627  42.366  10.095
    8AU       S 3930  26.501  41.964   7.767
    8AU     LIG 3931  26.754  42.253   8.038
    8AU     LIG 3932  26.816  42.698   8.208
    8AU     LIG 3933  26.850  43.153   8.347
    8AU     LIG 3934  26.913  43.635   8.377
    8AU     LIG 3935  26.951  44.123   8.360
    8AU    AUSL 3936  26.176  40.030   7.932
    8AU    AUSL 3937  26.592  40.021   7.767
    8AU     AUL 3938  26.399  39.903   8.155
    8AU       S 3939  26.134  39.559   8.007
    8AU     LIG 3940  26.325  39.291   8.293
    8AU     LIG 3941  26.232  38.857   8.377
    8AU     LIG 3942  26.134  38.450   8.553
    8AU     LIG 3943  26.235  38.081   8.823
    8AU     LIG 3944  26.121  37.812   9.206
    8AU       S 3945  26.742  39.790   7.827
    8AU     LIG 3946  26.765  39.327   8.013
    8AU     LIG 3947  27.061  39.014   8.254
    8AU     LIG 3948  27.437  38.817   8.458
    8AU     LIG 3949  27.689  38.533   8.726
    8AU     LIG 3950  28.001  38.168   8.669
    8AU    AUSL 3951  25.853  39.874   7.652
    8AU    AUSL 3952  25.959  40.183   8.266
    8AU     AUL 3953  25.826  39.917   8.015
    8AU       S 3954  25.963  39.494   7.868
    8AU     LIG 3955  25.843  39.154   8.129
    8AU     LIG 3956  25.810  38.707   8.101
    8AU     LIG 3957  25.897  38.258   8.124
    8AU     LIG 3958  25.757  37.797   8.195
    8AU     LIG 3959  25.732  37.314   8.276
    8AU       S 3960  25.743  40.063   8.462
    8AU     LIG 3961  25.485  39.590   8.518
    8AU     LIG 3962  25.042  39.392   8.566
    8AU     LIG 3963  24.763  39.101   8.821
    8AU     LIG 3964  24.619  38.948   9.237
    8AU     LIG 3965  24.718  38.809   9.680
    8AU    AUSL 3966  26.290  39.758   7.606
    8AU    AUSL 3967  26.036  39.890   7.253
    8AU     AUL 3968  25.918  39.632   7.428
    8AU       S 3969  26.277  39.612   7.138
    8AU     LIG 3970  25.983  39.250   7.103
    8AU     LIG 3971  25.896  38.800   7.011
    8AU     LIG 3972  25.791  38.381   6.815
    8AU     LIG 3973  25.758  37.918   6.654
    8AU     LIG 3974  25.560  37.448   6.620
    8AU       S 3975  26.287  39.570   7.760
    8AU     LIG 3976  26.317  39.096   7.815
    8AU     LIG 3977  26.290  38.632   7.923
    8AU     LIG 3978  26.415  38.244   8.181
    8AU     LIG 3979  26.842  38.061   8.296
    8AU     LIG 3980  27.063  37.609   8.358
    8AU    AUSL 3981  26.264  41.334   6.856
    8AU    AUSL 3982  26.693  41.296   7.253
    8AU     AUL 3983  26.552  41.522   6.876
    8AU       S 3984  26.159  41.746   6.731
    8AU     LIG 3985  26.254  42.157   6.508
    8AU     LIG 3986  26.510  42.507   6.317
    8AU     LIG 3987  26.652  42.715   5.904
    8AU     LIG 3988  26.544  42.964   5.502
    8AU     LIG 3989  26.328  43.368   5.345
    8AU       S 3990  26.925  41.538   7.149
    8AU     LIG 3991  27.373  41.723   6.964
    8AU     LIG 3992  27.603  41.789   6.550
    8AU     LIG 3993  27.780  42.049   6.197
    8AU     LIG 3994  27.876  42.447   5.941
    8AU     LIG 3995  28.024  42.911   5.917
    8AU    AUSL 3996  26.062  41.378   7.257
    8AU    AUSL 3997  25.955  41.050   6.957
    8AU     AUL 3998  25.918  41.357   6.811
    8AU       S 3999  25.971  41.754   7.081
    8AU     LIG 4000  26.082  42.254   6.988
    8AU     LIG 4001  26.193  42.652   6.752
    8AU     LIG 4002  26.014  43.108   6.737
    8AU     LIG 4003  25.827  43.536   6.609
    8AU     LIG 4004  25.691  43.997   6.650
    8AU       S 4005  25.482  41.393   6.662
    8AU     LIG 4006  25.531  41.534   6.245
    8AU     LIG 4007  25.477  41.868   5.925
    8AU     LIG 4008  25.252  42.063   5.567
    8AU     LIG 4009  25.186  42.312   5.167
    8AU     LIG 4010  24.970  42.471   4.777
    8AU    AUSL 4011  26.257  40.015   6.885
    8AU    AUSL 4012  25.638  40.044   7.246
    8AU     AUL 4013  25.890  39.882   6.948
    8AU       S 4014  25.442  39.988   7.046
    8AU     LIG 4015  25.068  39.668   7.043
    8AU     LIG 4016  24.721  39.356   6.888
    8AU     LIG 4017  24.484  39.022   6.613
    8AU     LIG 4018  24.164  38.643   6.566
    8AU     LIG 4019  23.935  38.248   6.398
    8AU       S 4020  26.294  39.610   6.911
    8AU     LIG 4021  26.272  39.220   6.673
    8AU     LIG 4022  26.215  38.740   6.613
    8AU     LIG 4023  26.158  38.301   6.461
    8AU     LIG 4024  25.977  38.071   6.081
    8AU     LIG 4025  26.001  37.979   5.602
    8AU    AUSL 4026  26.427  40.050   7.321
    8AU    AUSL 4027  26.537  40.329   6.979
    8AU     AUL 4028  26.577  39.976   6.931
    8AU       S 4029  26.511  39.626   7.221
    8AU     LIG 4030  26.488  39.161   7.154
    8AU     LIG 4031  26.394  38.715   7.098
    8AU     LIG 4032  26.268  38.291   6.989
    8AU     LIG 4033  26.485  37.874   6.931
    8AU     LIG 4034  26.517  37.381   6.878
    8AU       S 4035  26.817  40.086   6.568
    8AU     LIG 4036  26.638  39.662   6.537
    8AU     LIG 4037  26.815  39.289   6.350
    8AU     LIG 4038  27.000  39.108   5.968
    8AU     LIG 4039  27.214  38.849   5.655
    8AU     LIG 4040  27.284  38.761   5.210
    9AU     AUC 4041  22.685   3.131   7.498
    9AU     AUC 4042  22.962   3.132   7.331
    9AU     AUC 4043  22.946   3.124   7.666
    9AU     AUC 4044  22.396   3.123   7.342
    9AU     AUC 4045  22.445   3.172   7.686
    9AU     AUC 4046  22.514   3.408   7.494
    9AU     AUC 4047  22.859   3.398   7.480
    9AU     AUC 4048  22.501   2.872   7.511
    9AU     AUC 4049  22.852   2.847   7.503
    9AU     AUC 4050  22.696   2.963   7.776
    9AU     AUC 4051  22.686   3.326   7.753
    9AU     AUC 4052  22.675   2.960   7.234
    9AU     AUC 4053  22.700   3.277   7.217
    9AU     AUC 4054  23.291   3.131   7.172
    9AU     AUC 4055  23.298   3.114   7.507
    9AU     AUC 4056  23.245   3.105   7.858
    9AU     AUC 4057  22.079   3.112   7.189
    9AU     AUC 4058  22.077   3.161   7.542
    9AU     AUC 4059  22.148   3.202   7.885
    9AU     AUC 4060  22.351   3.720   7.464
    9AU     AUC 4061  22.702   3.745   7.425
    9AU     AUC 4062  23.032   3.686   7.460
    9AU     AUC 4063  22.287   2.588   7.524
    9AU     AUC 4064  22.646   2.532   7.494
    9AU     AUC 4065  23.020   2.537   7.489
    9AU     AUC 4066  22.679   2.788   8.077
    9AU     AUC 4067  22.701   3.146   8.102
    9AU     AUC 4068  22.722   3.506   8.039
    9AU     AUC 4069  22.702   2.777   6.959
    9AU     AUC 4070  22.686   3.106   6.887
    9AU     AUC 4071  22.679   3.416   6.906
    9AU     AUC 4072  22.970   2.908   7.991
    9AU     AUC 4073  22.995   3.297   7.982
    9AU     AUC 4074  23.010   2.956   7.013
    9AU     AUC 4075  23.002   3.308   7.023
    9AU     AUC 4076  22.395   3.014   8.019
    9AU     AUC 4077  22.427   3.383   7.989
    9AU     AUC 4078  22.373   2.928   7.049
    9AU     AUC 4079  22.341   3.240   7.006
    9AU     AUC 4080  23.215   3.411   7.321
    9AU     AUC 4081  23.159   3.398   7.682
    9AU     AUC 4082  22.179   3.420   7.346
    9AU     AUC 4083  22.232   3.499   7.695
    9AU     AUC 4084  23.180   2.822   7.341
    9AU     AUC 4085  23.142   2.786   7.678
    9AU     AUC 4086  22.160   2.815   7.357
    9AU     AUC 4087  22.231   2.880   7.716
    9AU     AUC 4088  22.548   3.677   7.743
    9AU     AUC 4089  22.877   3.624   7.752
    9AU     AUC 4090  22.482   2.673   7.804
    9AU     AUC 4091  22.818   2.614   7.777
    9AU     AUC 4092  22.493   3.551   7.176
    9AU     AUC 4093  22.873   3.578   7.154
    9AU     AUC 4094  22.482   2.655   7.217
    9AU     AUC 4095  22.883   2.670   7.216
    9AU    AUSL 4096  23.252   3.046   8.221
    9AU    AUSL 4097  22.988   2.613   8.174
    9AU     AUL 4098  23.288   2.650   8.325
    9AU       S 4099  23.327   2.243   8.116
    9AU     LIG 4100  23.210   2.111   8.485
    9AU     LIG 4101  23.367   1.770   8.722
    9AU     LIG 4102  23.554   1.399   8.916
    9AU     LIG 4103  23.776   1.042   9.109
    9AU     LIG 4104  24.010   0.931   9.497
    9AU       S 4105  23.505   3.057   8.345
    9AU     LIG 4106  23.758   3.039   8.720
    9AU     LIG 4107  23.821   2.850   9.140
    9AU     LIG 4108  23.964   2.645   9.538
    9AU     LIG 4109  24.187   2.554   9.948
    9AU     LIG 4110  24.468   2.700  10.299
    9AU    AUSL 4111  22.855   2.951   8.413
    9AU    AUSL 4112  22.579   3.335   8.439
    9AU     AUL 4113  22.795   3.222   8.719
    9AU       S 4114  23.143   2.918   8.667
    9AU     LIG 4115  22.833   2.697   8.948
    9AU     LIG 4116  22.947   2.449   9.361
    9AU     LIG 4117  23.158   2.236   9.761
    9AU     LIG 4118  23.389   2.256  10.190
    9AU     LIG 4119  23.429   2.388  10.642
    9AU       S 4120  22.365   3.088   8.666
    9AU     LIG 4121  22.423   2.980   9.126
    9AU     LIG 4122  22.150   2.972   9.514
    9AU     LIG 4123  21.964   3.119   9.930
    9AU     LIG 4124  22.004   3.449  10.300
    9AU     LIG 4125  21.946   3.741  10.683
    9AU    AUSL 4126  22.897   3.323   8.153
    9AU    AUSL 4127  23.334   3.458   8.095
    9AU     AUL 4128  23.151   3.350   8.431
    9AU       S 4129  22.815   3.694   8.600
    9AU     LIG 4130  23.156   3.597   8.894
    9AU     LIG 4131  23.390   3.725   9.303
    9AU     LIG 4132  23.384   3.849   9.787
    9AU     LIG 4133  23.432   3.956  10.262
    9AU     LIG 4134  23.678   4.044  10.666
    9AU       S 4135  23.488   3.616   8.246
    9AU     LIG 4136  23.839   3.428   8.386
    9AU     LIG 4137  24.129   3.578   8.704
    9AU     LIG 4138  24.399   3.853   8.993
    9AU     LIG 4139  24.646   4.148   9.259
    9AU     LIG 4140  24.985   4.195   9.583
    9AU    AUSL 4141  23.158   3.173   6.891
    9AU    AUSL 4142  23.070   3.612   6.840
    9AU     AUL 4143  23.252   3.494   6.610
    9AU       S 4144  23.110   3.228   6.281
    9AU     LIG 4145  23.574   3.167   6.187
    9AU     LIG 4146  23.760   2.881   5.870
    9AU     LIG 4147  23.806   2.752   5.436
    9AU     LIG 4148  23.936   2.635   5.011
    9AU     LIG 4149  24.332   2.513   4.769
    9AU       S 4150  23.433   3.854   6.855
    9AU     LIG 4151  23.615   4.022   6.465
    9AU     LIG 4152  23.845   4.210   6.090
    9AU     LIG 4153  23.999   4.260   5.644
    9AU     LIG 4154  24.056   4.531   5.272
    9AU     LIG 4155  24.117   4.860   4.958
    9AU    AUSL 4156  22.986   2.899   6.585
    9AU    AUSL 4157  23.418   2.832   6.907
    9AU     AUL 4158  23.362   3.030   6.652
    9AU       S 4159  23.535   2.585   6.671
    9AU     LIG 4160  23.930   2.338   6.590
    9AU     LIG 4161  24.012   1.939   6.386
    9AU     LIG 4162  24.132   1.625   6.076
    9AU     LIG 4163  24.413   1.606   5.695
    9AU     LIG 4164  24.756   1.738   5.389
    9AU       S 4165  23.110   3.019   6.256
    9AU     LIG 4166  23.322   2.695   6.080
    9AU     LIG 4167  23.427   2.493   5.680
    9AU     LIG 4168  23.417   2.490   5.211
    9AU     LIG 4169  23.487   2.540   4.748
    9AU     LIG 4170  23.573   2.305   4.341
    9AU    AUSL 4171  22.804   3.304   6.677
    9AU    AUSL 4172  22.580   2.913   6.749
    9AU     AUL 4173  22.703   2.936   6.439
    9AU       S 4174  22.255   2.923   6.297
    9AU     LIG 4175  22.366   2.667   5.957
    9AU     LIG 4176  22.158   2.406   5.638
    9AU     LIG 4177  21.970   2.381   5.214
    9AU     LIG 4178  21.744   2.394   4.795
    9AU     LIG 4179  21.687   2.363   4.318
    9AU       S 4180  22.875   3.359   6.339
    9AU     LIG 4181  22.946   3.198   5.824
    9AU     LIG 4182  23.311   2.985   5.552
    9AU     LIG 4183  23.493   2.981   5.092
    9AU     LIG 4184  23.515   3.161   4.650
    9AU     LIG 4185  23.552   3.543   4.353
    9AU    AUSL 4186  22.175   3.289   8.257
    9AU    AUSL 4187  22.479   3.627   8.131
    9AU     AUL 4188  22.340   3.572   8.460
    9AU       S 4189  22.195   3.209   8.730
    9AU     LIG 4190  21.944   2.892   8.963
    9AU     LIG 4191  21.711   2.747   9.360
    9AU     LIG 4192  21.545   2.730   9.816
    9AU     LIG 4193  21.178   2.780  10.135
    9AU     LIG 4194  20.954   2.830  10.559
    9AU       S 4195  22.062   3.873   8.224
    9AU     LIG 4196  22.064   4.044   8.632
    9AU     LIG 4197  21.896   4.287   9.002
    9AU     LIG 4198  21.845   4.659   9.285
    9AU     LIG 4199  21.679   4.890   9.665
    9AU     LIG 4200  21.345   5.003   9.995
    9AU    AUSL 4201  22.485   2.980   8.185
    9AU    AUSL 4202  22.035   2.890   8.123
    9AU     AUL 4203  22.024   3.034   8.341
    9AU       S 4204  21.883   2.576   8.294
    9AU     LIG 4205  21.456   2.524   8.204
    9AU     LIG 4206  21.211   2.158   8.342
    9AU     LIG 4207  20.978   1.889   8.648
    9AU     LIG 4208  20.733   1.604   8.920
    9AU     LIG 4209  20.520   1.565   9.333
    9AU       S 4210  22.409   2.912   8.580
    9AU     LIG 4211  22.327   2.566   8.834
    9AU     LIG 4212  22.178   2.514   9.269
    9AU     LIG 4213  22.007   2.502   9.715
    9AU     LIG 4214  21.882   2.464  10.170
    9AU     LIG 4215  21.997   2.299  10.610
    9AU    AUSL 4216  22.151   2.998   6.773
    9AU    AUSL 4217  22.334   2.618   6.947
    9AU     AUL 4218  22.381   2.633   6.630
    9AU       S 4219  22.044   2.889   6.428
    9AU     LIG 4220  21.857   2.688   6.056
    9AU     LIG 4221  21.716   2.676   5.618
    9AU     LIG 4222  21.562   2.702   5.184
    9AU     LIG 4223  21.272   2.639   4.823
    9AU     LIG 4224  20.879   2.784   4.601
    9AU       S 4225  21.971   2.487   6.787
    9AU     LIG 4226  21.892   2.034   6.670
    9AU     LIG 4227  21.544   1.752   6.511
    9AU     LIG 4228  21.224   1.631   6.169
    9AU     LIG 4229  20.920   1.431   5.851
    9AU     LIG 4230  20.816   1.221   5.427
    9AU    AUSL 4231  22.398   3.299   6.551
    9AU    AUSL 4232  21.930   3.332   6.952
    9AU     AUL 4233  22.040   3.312   6.614
    9AU       S 4234  21.669   3.558   6.758
    9AU     LIG 4235  21.356   3.841   6.565
    9AU     LIG 4236  21.268   3.974   6.118
    9AU     LIG 4237  21.102   4.058   5.680
    9AU     LIG 4238  20.688   4.128   5.457
    9AU     LIG 4239  20.424   4.302   5.106
    9AU       S 4240  22.319   3.168   6.263
    9AU     LIG 4241  22.105   3.093   5.839
    9AU     LIG 4242  22.139   2.877   5.422
    9AU     LIG 4243  22.015   2.850   4.970
    9AU     LIG 4244  22.052   3.081   4.556
    9AU     LIG 4245  22.089   3.295   4.128
    9AU    AUSL 4246  23.483   3.638   7.501
    9AU    AUSL 4247  23.441   3.440   7.077
    9AU     AUL 4248  23.746   3.754   7.291
    9AU       S 4249  23.539   3.545   6.956
    9AU     LIG 4250  23.762   3.536   6.565
    9AU     LIG 4251  24.061   3.783   6.293
    9AU     LIG 4252  24.330   4.040   5.989
    9AU     LIG 4253  24.632   4.072   5.614
    9AU     LIG 4254  25.057   4.189   5.433
    9AU       S 4255  23.869   3.526   7.690
    9AU     LIG 4256  24.339   3.627   7.605
    9AU     LIG 4257  24.817   3.771   7.603
    9AU     LIG 4258  25.294   3.934   7.637
    9AU     LIG 4259  25.631   4.308   7.542
    9AU     LIG 4260  25.778   4.688   7.247
    9AU    AUSL 4261  23.672   3.229   7.378
    9AU    AUSL 4262  23.618   2.903   7.700
    9AU     AUL 4263  23.963   3.016   7.722
    9AU       S 4264  23.808   3.309   7.417
    9AU     LIG 4265  24.244   3.205   7.328
    9AU     LIG 4266  24.714   3.304   7.395
    9AU     LIG 4267  25.182   3.258   7.238
    9AU     LIG 4268  25.673   3.303   7.075
    9AU     LIG 4269  26.039   3.628   7.034
    9AU       S 4270  23.872   2.609   7.528
    9AU     LIG 4271  24.210   2.469   7.792
    9AU     LIG 4272  24.571   2.178   7.837
    9AU     LIG 4273  25.048   2.200   7.913
    9AU     LIG 4274  25.526   2.174   7.926
    9AU     LIG 4275  26.012   2.191   7.829
    9AU    AUSL 4276  23.386   3.267   7.719
    9AU    AUSL 4277  23.129   3.662   7.759
    9AU     AUL 4278  23.455   3.728   7.793
    9AU       S 4279  23.455   3.909   8.217
    9AU     LIG 4280  23.901   3.925   8.312
    9AU     LIG 4281  24.160   4.114   8.630
    9AU     LIG 4282  24.433   4.414   8.859
    9AU     LIG 4283  24.546   4.862   8.973
    9AU     LIG 4284  24.601   5.330   9.056
    9AU       S 4285  23.715   3.361   7.851
    9AU     LIG 4286  24.194   3.358   8.023
    9AU     LIG 4287  24.660   3.376   7.935
    9AU     LIG 4288  25.108   3.444   7.865
    9AU     LIG 4289  25.541   3.553   8.015
    9AU     LIG 4290  25.909   3.733   7.779
    9AU    AUSL 4291  22.045   3.746   7.510
    9AU    AUSL 4292  22.136   3.497   7.880
    9AU     AUL 4293  21.805   3.790   7.731
    9AU       S 4294  21.966   3.677   8.146
    9AU     LIG 4295  21.836   3.565   8.569
    9AU     LIG 4296  21.634   3.828   8.910
    9AU     LIG 4297  21.248   3.931   9.181
    9AU     LIG 4298  20.862   4.058   9.433
    9AU     LIG 4299  20.495   4.264   9.652
    9AU       S 4300  22.020   4.079   7.420
    9AU     LIG 4301  21.528   4.051   7.365
    9AU     LIG 4302  21.048   4.209   7.371
    9AU     LIG 4303  20.669   4.531   7.449
    9AU     LIG 4304  20.403   4.904   7.637
    9AU     LIG 4305  19.943   4.916   7.736
    9AU    AUSL 4306  21.956   3.340   7.376
    9AU    AUSL 4307  22.073   3.737   7.081
    9AU     AUL 4308  21.786   3.635   7.216
    9AU       S 4309  21.489   3.245   7.081
    9AU     LIG 4310  21.302   3.681   7.082
    9AU     LIG 4311  20.962   3.954   6.922
    9AU     LIG 4312  20.509   3.878   6.814
    9AU     LIG 4313  20.028   3.855   6.860
    9AU     LIG 4314  19.585   4.035   6.732
    9AU       S 4315  21.910   3.989   6.914
    9AU     LIG 4316  21.770   4.271   6.565
    9AU     LIG 4317  21.876   4.668   6.315
    9AU     LIG 4318  21.712   5.084   6.155
    9AU     LIG 4319  21.312   5.326   6.157
    9AU     LIG 4320  20.971   5.647   6.118
    9AU    AUSL 4321  21.749   3.340   7.802
    9AU    AUSL 4322  21.704   2.997   7.410
    9AU     AUL 4323  21.599   3.336   7.527
    9AU       S 4324  21.421   2.892   7.621
    9AU     LIG 4325  20.985   2.705   7.515
    9AU     LIG 4326  20.523   2.621   7.439
    9AU     LIG 4327  20.122   2.816   7.324
    9AU     LIG 4328  19.755   2.746   7.080
    9AU     LIG 4329  19.526   2.343   7.016
    9AU       S 4330  21.684   3.286   8.035
    9AU     LIG 4331  21.282   3.518   7.970
    9AU     LIG 4332  20.991   3.838   8.198
    9AU     LIG 4333  20.531   3.962   8.244
    9AU     LIG 4334  20.065   4.102   8.189
    9AU     LIG 4335  19.559   4.163   8.198
    9AU    AUSL 4336  23.398   2.546   7.538
    9AU    AUSL 4337  23.226   2.817   7.863
    9AU     AUL 4338  23.560   2.711   7.919
    9AU       S 4339  23.700   2.433   7.544
    9AU     LIG 4340  24.019   2.096   7.493
    9AU     LIG 4341  24.389   1.815   7.528
    9AU     LIG 4342  24.859   1.816   7.552
    9AU     LIG 4343  25.262   1.558   7.478
    9AU     LIG 4344  25.485   1.153   7.627
    9AU       S 4345  23.460   2.272   7.969
    9AU     LIG 4346  23.673   1.938   8.284
    9AU     LIG 4347  23.878   1.682   8.623
    9AU     LIG 4348  24.093   1.419   8.946
    9AU     LIG 4349  24.415   1.398   9.286
    9AU     LIG 4350  24.805   1.580   9.495
    9AU    AUSL 4351  23.372   2.930   7.320
    9AU    AUSL 4352  23.294   2.460   7.121
    9AU     AUL 4353  23.544   2.627   7.152
    9AU       S 4354  23.915   2.792   7.323
    9AU     LIG 4355  24.072   2.411   7.089
    9AU     LIG 4356  24.475   2.143   7.147
    9AU     LIG 4357  24.944   1.980   7.069
    9AU     LIG 4358  25.410   1.839   7.039
    9AU     LIG 4359  25.803   2.104   7.020
    9AU       S 4360  23.475   2.332   6.793
    9AU     LIG 4361  23.634   1.910   6.746
    9AU     LIG 4362  23.804   1.497   6.562
    9AU     LIG 4363  23.988   1.153   6.296
    9AU     LIG 4364  24.179   0.702   6.277
    9AU     LIG 4365  24.431   0.280   6.307
    9AU    AUSL 4366  21.891   2.627   7.579
    9AU    AUSL 4367  22.032   2.858   7.166
    9AU     AUL 4368  21.681   2.716   7.272
    9AU       S 4369  21.850   2.644   6.853
    9AU     LIG 4370  21.472   2.330   6.747
    9AU     LIG 4371  21.137   2.063   6.511
    9AU     LIG 4372  20.771   1.848   6.298
    9AU     LIG 4373  20.411   1.673   6.062
    9AU     LIG 4374  20.243   1.622   5.650
    9AU       S 4375  21.464   2.624   7.688
    9AU     LIG 4376  21.321   2.308   7.431
    9AU     LIG 4377  20.884   2.206   7.318
    9AU     LIG 4378  20.441   2.102   7.437
    9AU     LIG 4379  20.065   1.862   7.555
    9AU     LIG 4380  19.681   1.602   7.662
    9AU    AUSL 4381  22.025   3.032   7.717
    9AU    AUSL 4382  22.238   2.642   7.831
    9AU     AUL 4383  21.828   2.811   7.895
    9AU       S 4384  21.930   2.398   8.055
    9AU     LIG 4385  21.598   2.134   7.903
    9AU     LIG 4386  21.395   1.752   8.090
    9AU     LIG 4387  21.120   1.480   8.373
    9AU     LIG 4388  20.887   1.167   8.648
    9AU     LIG 4389  20.646   0.751   8.629
    9AU       S 4390  21.414   2.955   7.781
    9AU     LIG 4391  21.022   3.204   7.632
    9AU     LIG 4392  20.612   3.032   7.758
    9AU     LIG 4393  20.231   2.806   7.842
    9AU     LIG 4394  19.793   2.838   7.727
    9AU     LIG 4395  19.539   2.555   7.495
    9AU    AUSL 4396  22.731   3.867   7.873
    9AU    AUSL 4397  22.292   3.904   7.828
    9AU     AUL 4398  22.532   3.951   8.176
    9AU       S 4399  22.157   4.074   7.909
    9AU     LIG 4400  22.219   4.399   8.216
    9AU     LIG 4401  21.940   4.558   8.562
    9AU     LIG 4402  21.604   4.774   8.808
    9AU     LIG 4403  21.505   5.235   8.846
    9AU     LIG 4404  21.209   5.602   8.849
    9AU       S 4405  22.715   4.285   7.915
    9AU     LIG 4406  22.730   4.387   8.327
    9AU     LIG 4407  22.657   4.789   8.513
    9AU     LIG 4408  22.734   5.207   8.671
    9AU     LIG 4409  22.671   5.594   8.883
    9AU     LIG 4410  22.594   5.942   9.156
    9AU    AUSL 4411  22.548   4.081   7.523
    9AU    AUSL 4412  22.835   3.994   7.158
    9AU     AUL 4413  22.755   4.342   7.293
    9AU       S 4414  22.554   4.321   7.728
    9AU     LIG 4415  22.601   4.766   7.975
    9AU     LIG 4416  22.580   5.204   8.181
    9AU     LIG 4417  22.623   5.641   8.371
    9AU     LIG 4418  22.641   6.101   8.403
    9AU     LIG 4419  22.416   6.465   8.562
    9AU       S 4420  22.543   4.176   6.924
    9AU     LIG 4421  22.949   4.438   6.852
    9AU     LIG 4422  23.087   4.886   6.876
    9AU     LIG 4423  23.138   5.321   6.704
    9AU     LIG 4424  23.111   5.771   6.528
    9AU     LIG 4425  23.172   6.255   6.514
    9AU    AUSL 4426  23.006   4.025   7.566
    9AU    AUSL 4427  22.994   3.738   8.184
    9AU     AUL 4428  23.083   3.996   7.942
    9AU       S 4429  23.237   3.836   8.384
    9AU     LIG 4430  23.601   3.766   8.708
    9AU     LIG 4431  23.881   3.917   9.029
    9AU     LIG 4432  24.129   4.246   9.242
    9AU     LIG 4433  24.163   4.624   9.527
    9AU     LIG 4434  24.100   4.945   9.877
    9AU       S 4435  22.907   4.371   7.733
    9AU     LIG 4436  23.094   4.628   8.059
    9AU     LIG 4437  23.068   5.025   8.293
    9AU     LIG 4438  23.104   5.468   8.422
    9AU     LIG 4439  23.107   5.926   8.325
    9AU     LIG 4440  23.046   6.407   8.282
    9AU    AUSL 4441  22.643   2.478   7.944
    9AU    AUSL 4442  23.060   2.421   7.779
    9AU     AUL 4443  22.868   2.316   8.157
    9AU       S 4444  22.657   1.928   8.019
    9AU     LIG 4445  22.637   1.564   8.259
    9AU     LIG 4446  22.356   1.220   8.373
    9AU     LIG 4447  22.356   0.761   8.380
    9AU     LIG 4448  22.392   0.449   8.741
    9AU     LIG 4449  22.426   0.308   9.205
    9AU       S 4450  23.210   2.201   7.830
    9AU     LIG 4451  23.198   1.763   8.082
    9AU     LIG 4452  23.502   1.444   8.345
    9AU     LIG 4453  23.835   1.147   8.574
    9AU     LIG 4454  24.166   0.885   8.809
    9AU     LIG 4455  24.319   0.429   8.880
    9AU    AUSL 4456  22.306   2.250   7.692
    9AU    AUSL 4457  22.366   2.580   8.258
    9AU     AUL 4458  22.372   2.297   8.045
    9AU       S 4459  22.424   1.870   7.861
    9AU     LIG 4460  22.266   1.453   7.907
    9AU     LIG 4461  22.153   1.004   7.944
    9AU     LIG 4462  21.946   0.601   8.048
    9AU     LIG 4463  21.823   0.240   8.312
    9AU     LIG 4464  21.640  44.825   8.211
    9AU       S 4465  22.092   2.479   8.385
    9AU     LIG 4466  21.742   2.109   8.418
    9AU     LIG 4467  21.482   1.775   8.606
    9AU     LIG 4468  21.236   1.487   8.887
    9AU     LIG 4469  21.013   1.344   9.283
    9AU     LIG 4470  21.029   1.236   9.751
    9AU    AUSL 4471  22.739   2.179   7.630
    9AU    AUSL 4472  22.497   2.429   7.337
    9AU     AUL 4473  22.393   2.086   7.447
    9AU       S 4474  22.750   1.989   7.186
    9AU     LIG 4475  22.380   1.673   7.186
    9AU     LIG 4476  22.158   1.271   7.073
    9AU     LIG 4477  22.056   0.821   6.933
    9AU     LIG 4478  21.928   0.373   6.809
    9AU     LIG 4479  21.757   0.044   6.528
    9AU       S 4480  22.753   1.987   7.767
    9AU     LIG 4481  22.769   1.510   7.752
    9AU     LIG 4482  22.671   1.106   7.979
    9AU     LIG 4483  22.846   0.689   8.117
    9AU     LIG 4484  23.217   0.374   8.134
    9AU     LIG 4485  23.382  44.951   8.093
    9AU    AUSL 4486  22.652   3.735   6.827
    9AU    AUSL 4487  23.138   3.709   7.255
    9AU     AUL 4488  22.972   3.930   6.866
    9AU       S 4489  22.558   4.103   6.710
    9AU     LIG 4490  22.621   4.462   6.457
    9AU     LIG 4491  22.809   4.876   6.443
    9AU     LIG 4492  22.796   5.318   6.329
    9AU     LIG 4493  22.770   5.742   6.124
    9AU     LIG 4494  22.844   6.010   5.741
    9AU       S 4495  23.350   3.925   7.130
    9AU     LIG 4496  23.811   4.134   6.949
    9AU     LIG 4497  24.084   4.241   6.555
    9AU     LIG 4498  24.327   4.540   6.257
    9AU     LIG 4499  24.586   4.980   6.224
    9AU     LIG 4500  24.826   5.430   6.192
    9AU    AUSL 4501  22.465   3.779   7.234
    9AU    AUSL 4502  22.368   3.433   6.952
    9AU     AUL 4503  22.302   3.731   6.803
    9AU       S 4504  22.375   4.127   7.065
    9AU     LIG 4505  22.489   4.659   6.929
    9AU     LIG 4506  22.606   5.126   6.850
    9AU     LIG 4507  22.702   5.586   6.793
    9AU     LIG 4508  22.638   5.986   6.563
    9AU     LIG 4509  22.428   6.365   6.424
    9AU       S 4510  21.864   3.744   6.668
    9AU     LIG 4511  22.139   3.974   6.384
    9AU     LIG 4512  21.993   4.244   6.020
    9AU     LIG 4513  21.896   4.368   5.560
    9AU     LIG 4514  21.823   4.636   5.171
    9AU     LIG 4515  21.664   5.042   4.992
    9AU    AUSL 4516  22.698   2.384   6.935
    9AU    AUSL 4517  22.080   2.414   7.249
    9AU     AUL 4518  22.356   2.256   6.999
    9AU       S 4519  21.901   2.377   7.042
    9AU     LIG 4520  21.643   2.030   7.131
    9AU     LIG 4521  21.267   1.825   6.950
    9AU     LIG 4522  21.028   1.546   6.633
    9AU     LIG 4523  20.709   1.327   6.314
    9AU     LIG 4524  20.284   1.161   6.081
    9AU       S 4525  22.748   1.976   6.975
    9AU     LIG 4526  22.630   1.541   6.765
    9AU     LIG 4527  22.377   1.129   6.627
    9AU     LIG 4528  22.174   0.720   6.438
    9AU     LIG 4529  22.200   0.479   6.015
    9AU     LIG 4530  22.474   0.387   5.623
    9AU    AUSL 4531  22.929   2.410   7.324
    9AU    AUSL 4532  22.968   2.719   6.969
    9AU     AUL 4533  23.026   2.347   6.924
    9AU       S 4534  22.994   2.029   7.266
    9AU     LIG 4535  22.876   1.520   7.240
    9AU     LIG 4536  22.656   1.114   7.068
    9AU     LIG 4537  22.609   0.690   6.807
    9AU     LIG 4538  22.853   0.267   6.655
    9AU     LIG 4539  23.124  44.850   6.538
    9AU       S 4540  23.268   2.524   6.578
    9AU     LIG 4541  23.220   2.085   6.448
    9AU     LIG 4542  23.506   1.775   6.254
    9AU     LIG 4543  23.660   1.438   5.969
    9AU     LIG 4544  23.706   1.309   5.509
    9AU     LIG 4545  23.851   1.154   5.085
   10AU     AUC 4546  24.572  25.643   7.502
   10AU     AUC 4547  24.864  25.640   7.335
   10AU     AUC 4548  24.831  25.628   7.673
   10AU     AUC 4549  24.297  25.637   7.341
   10AU     AUC 4550  24.311  25.684   7.684
   10AU     AUC 4551  24.410  25.919   7.500
   10AU     AUC 4552  24.757  25.905   7.489
   10AU     AUC 4553  24.376  25.376   7.506
   10AU     AUC 4554  24.733  25.368   7.508
   10AU     AUC 4555  24.573  25.469   7.769
   10AU     AUC 4556  24.570  25.836   7.755
   10AU     AUC 4557  24.567  25.481   7.235
   10AU     AUC 4558  24.604  25.794   7.227
   10AU     AUC 4559  25.200  25.631   7.185
   10AU     AUC 4560  25.191  25.613   7.523
   10AU     AUC 4561  25.125  25.600   7.874
   10AU     AUC 4562  23.979  25.647   7.180
   10AU     AUC 4563  23.964  25.688   7.541
   10AU     AUC 4564  24.024  25.731   7.873
   10AU     AUC 4565  24.261  26.245   7.468
   10AU     AUC 4566  24.614  26.261   7.440
   10AU     AUC 4567  24.937  26.193   7.476
   10AU     AUC 4568  24.173  25.100   7.504
   10AU     AUC 4569  24.504  25.036   7.469
   10AU     AUC 4570  24.892  25.044   7.485
   10AU     AUC 4571  24.553  25.295   8.066
   10AU     AUC 4572  24.574  25.653   8.100
   10AU     AUC 4573  24.607  26.012   8.046
   10AU     AUC 4574  24.597  25.313   6.951
   10AU     AUC 4575  24.590  25.625   6.892
   10AU     AUC 4576  24.598  25.940   6.923
   10AU     AUC 4577  24.842  25.404   7.995
   10AU     AUC 4578  24.875  25.790   7.994
   10AU     AUC 4579  24.915  25.466   7.022
   10AU     AUC 4580  24.921  25.811   7.036
   10AU     AUC 4581  24.273  25.535   8.019
   10AU     AUC 4582  24.306  25.908   7.988
   10AU     AUC 4583  24.267  25.468   7.050
   10AU     AUC 4584  24.254  25.775   7.002
   10AU     AUC 4585  25.119  25.913   7.336
   10AU     AUC 4586  25.047  25.897   7.697
   10AU     AUC 4587  24.086  25.952   7.341
   10AU     AUC 4588  24.121  26.022   7.687
   10AU     AUC 4589  25.071  25.323   7.355
   10AU     AUC 4590  25.024  25.291   7.682
   10AU     AUC 4591  24.034  25.358   7.375
   10AU     AUC 4592  24.097  25.410   7.722
   10AU     AUC 4593  24.444  26.190   7.751
   10AU     AUC 4594  24.771  26.128   7.766
   10AU     AUC 4595  24.365  25.188   7.793
   10AU     AUC 4596  24.690  25.120   7.768
   10AU     AUC 4597  24.407  26.072   7.185
   10AU     AUC 4598  24.794  26.090   7.164
   10AU     AUC 4599  24.357  25.167   7.215
   10AU     AUC 4600  24.746  25.190   7.216
   10AU    AUSL 4601  25.114  25.530   8.244
   10AU    AUSL 4602  24.842  25.107   8.162
   10AU     AUL 4603  25.143  25.129   8.356
   10AU       S 4604  25.187  24.758   8.097
   10AU     LIG 4605  25.070  24.598   8.466
   10AU     LIG 4606  25.234  24.251   8.706
   10AU     LIG 4607  25.479  23.973   8.989
   10AU     LIG 4608  25.739  23.816   9.341
   10AU     LIG 4609  25.759  23.669   9.783
   10AU       S 4610  25.343  25.536   8.359
   10AU     LIG 4611  25.212  25.534   8.806
   10AU     LIG 4612  25.345  25.364   9.226
   10AU     LIG 4613  25.629  25.213   9.580
   10AU     LIG 4614  25.945  25.250   9.932
   10AU     LIG 4615  26.296  25.258  10.248
   10AU    AUSL 4616  24.702  25.442   8.410
   10AU    AUSL 4617  24.456  25.843   8.441
   10AU     AUL 4618  24.643  25.739   8.748
   10AU       S 4619  24.809  25.361   8.562
   10AU     LIG 4620  24.759  25.301   8.995
   10AU     LIG 4621  24.913  25.138   9.404
   10AU     LIG 4622  25.149  25.082   9.816
   10AU     LIG 4623  25.263  24.953  10.263
   10AU     LIG 4624  25.343  24.820  10.708
   10AU       S 4625  24.229  25.580   8.638
   10AU     LIG 4626  24.290  25.536   9.113
   10AU     LIG 4627  24.019  25.483   9.499
   10AU     LIG 4628  23.805  25.476   9.922
   10AU     LIG 4629  23.774  25.748  10.315
   10AU     LIG 4630  23.745  26.125  10.613
   10AU    AUSL 4631  24.772  25.817   8.157
   10AU    AUSL 4632  25.213  25.939   8.120
   10AU     AUL 4633  25.003  25.833   8.450
   10AU       S 4634  24.691  26.198   8.616
   10AU     LIG 4635  25.047  26.073   8.890
   10AU     LIG 4636  25.300  26.272   9.243
   10AU     LIG 4637  25.270  26.487   9.672
   10AU     LIG 4638  25.183  26.526  10.141
   10AU     LIG 4639  25.238  26.433  10.605
   10AU       S 4640  25.364  26.085   8.287
   10AU     LIG 4641  25.789  26.095   8.345
   10AU     LIG 4642  26.041  26.308   8.675
   10AU     LIG 4643  26.265  26.543   9.018
   10AU     LIG 4644  26.654  26.670   9.222
   10AU     LIG 4645  26.931  26.749   9.598
   10AU    AUSL 4646  25.099  25.676   6.888
   10AU    AUSL 4647  25.007  26.114   6.834
   10AU     AUL 4648  25.243  25.953   6.623
   10AU       S 4649  24.948  25.812   6.319
   10AU     LIG 4650  25.410  25.815   6.115
   10AU     LIG 4651  25.483  25.511   5.750
   10AU     LIG 4652  25.641  25.310   5.347
   10AU     LIG 4653  26.035  25.219   5.071
   10AU     LIG 4654  26.398  25.204   4.750
   10AU       S 4655  25.362  26.357   6.865
   10AU     LIG 4656  25.412  26.576   6.440
   10AU     LIG 4657  25.618  26.815   6.035
   10AU     LIG 4658  25.689  26.874   5.532
   10AU     LIG 4659  25.942  27.100   5.152
   10AU     LIG 4660  26.145  27.412   4.852
   10AU    AUSL 4661  24.892  25.423   6.585
   10AU    AUSL 4662  25.315  25.303   6.927
   10AU     AUL 4663  25.274  25.481   6.653
   10AU       S 4664  25.405  25.022   6.691
   10AU     LIG 4665  25.584  24.649   6.415
   10AU     LIG 4666  25.751  24.214   6.344
   10AU     LIG 4667  26.001  23.941   6.048
   10AU     LIG 4668  26.222  23.920   5.625
   10AU     LIG 4669  26.547  24.128   5.321
   10AU       S 4670  25.013  25.614   6.290
   10AU     LIG 4671  24.896  25.242   6.057
   10AU     LIG 4672  24.992  25.056   5.622
   10AU     LIG 4673  25.181  25.028   5.184
   10AU     LIG 4674  25.110  24.925   4.714
   10AU     LIG 4675  25.290  24.904   4.268
   10AU    AUSL 4676  24.709  25.804   6.744
   10AU    AUSL 4677  24.472  25.421   6.711
   10AU     AUL 4678  24.612  25.456   6.439
   10AU       S 4679  24.163  25.474   6.295
   10AU     LIG 4680  24.333  25.250   5.960
   10AU     LIG 4681  24.087  25.042   5.622
   10AU     LIG 4682  23.870  25.010   5.204
   10AU     LIG 4683  23.801  24.733   4.811
   10AU     LIG 4684  23.822  24.602   4.349
   10AU       S 4685  24.786  25.903   6.443
   10AU     LIG 4686  24.635  25.694   5.970
   10AU     LIG 4687  24.967  25.570   5.652
   10AU     LIG 4688  25.180  25.548   5.222
   10AU     LIG 4689  25.178  25.682   4.747
   10AU     LIG 4690  25.252  25.909   4.322
   10AU    AUSL 4691  24.051  25.809   8.259
   10AU    AUSL 4692  24.368  26.141   8.134
   10AU     AUL 4693  24.226  26.082   8.467
   10AU       S 4694  24.048  25.704   8.700
   10AU     LIG 4695  23.843  25.349   8.917
   10AU     LIG 4696  23.610  25.224   9.314
   10AU     LIG 4697  23.392  25.198   9.737
   10AU     LIG 4698  23.115  25.065  10.110
   10AU     LIG 4699  22.702  25.152  10.345
   10AU       S 4700  23.970  26.391   8.221
   10AU     LIG 4701  23.986  26.570   8.627
   10AU     LIG 4702  23.895  26.760   9.039
   10AU     LIG 4703  23.588  26.980   9.294
   10AU     LIG 4704  23.333  27.116   9.658
   10AU     LIG 4705  23.254  27.398  10.030
   10AU    AUSL 4706  24.351  25.505   8.165
   10AU    AUSL 4707  23.919  25.391   8.156
   10AU     AUL 4708  23.851  25.616   8.292
   10AU       S 4709  23.807  25.153   8.407
   10AU     LIG 4710  23.357  24.889   8.336
   10AU     LIG 4711  23.010  24.579   8.394
   10AU     LIG 4712  22.726  24.296   8.622
   10AU     LIG 4713  22.565  24.020   8.945
   10AU     LIG 4714  22.410  23.967   9.379
   10AU       S 4715  24.231  25.443   8.552
   10AU     LIG 4716  24.299  25.105   8.854
   10AU     LIG 4717  24.102  25.031   9.271
   10AU     LIG 4718  23.881  25.004   9.701
   10AU     LIG 4719  23.637  24.946  10.111
   10AU     LIG 4720  23.449  24.883  10.543
   10AU    AUSL 4721  24.063  25.561   6.785
   10AU    AUSL 4722  24.252  25.187   6.994
   10AU     AUL 4723  24.234  25.189   6.645
   10AU       S 4724  23.925  25.458   6.424
   10AU     LIG 4725  23.806  25.207   6.052
   10AU     LIG 4726  23.620  25.274   5.640
   10AU     LIG 4727  23.395  25.268   5.242
   10AU     LIG 4728  22.977  25.323   5.035
   10AU     LIG 4729  22.704  25.319   4.653
   10AU       S 4730  23.823  25.043   6.796
   10AU     LIG 4731  23.606  24.655   6.633
   10AU     LIG 4732  23.342  24.276   6.483
   10AU     LIG 4733  23.106  23.987   6.175
   10AU     LIG 4734  22.928  23.848   5.758
   10AU     LIG 4735  22.970  23.872   5.279
   10AU    AUSL 4736  24.329  25.841   6.552
   10AU    AUSL 4737  23.842  25.915   6.928
   10AU     AUL 4738  23.968  25.880   6.603
   10AU       S 4739  23.581  26.093   6.771
   10AU     LIG 4740  23.357  26.270   6.426
   10AU     LIG 4741  23.347  26.490   6.034
   10AU     LIG 4742  23.154  26.809   5.783
   10AU     LIG 4743  22.760  26.818   5.541
   10AU     LIG 4744  22.364  26.904   5.299
   10AU       S 4745  24.233  25.700   6.265
   10AU     LIG 4746  24.013  25.635   5.840
   10AU     LIG 4747  24.003  25.498   5.393
   10AU     LIG 4748  23.806  25.485   4.972
   10AU     LIG 4749  23.836  25.673   4.529
   10AU     LIG 4750  23.835  25.798   4.063
   10AU    AUSL 4751  25.371  26.140   7.528
   10AU    AUSL 4752  25.356  25.947   7.104
   10AU     AUL 4753  25.645  26.263   7.354
   10AU       S 4754  25.464  26.090   6.989
   10AU     LIG 4755  25.704  26.146   6.569
   10AU     LIG 4756  25.901  26.450   6.267
   10AU     LIG 4757  26.124  26.584   5.866
   10AU     LIG 4758  26.545  26.669   5.622
   10AU     LIG 4759  26.944  26.762   5.361
   10AU       S 4760  25.762  26.010   7.740
   10AU     LIG 4761  26.199  26.098   7.605
   10AU     LIG 4762  26.652  26.254   7.576
   10AU     LIG 4763  27.094  26.424   7.535
   10AU     LIG 4764  27.449  26.737   7.443
   10AU     LIG 4765  27.715  27.098   7.594
   10AU    AUSL 4766  25.572  25.729   7.410
   10AU    AUSL 4767  25.502  25.399   7.727
   10AU     AUL 4768  25.869  25.506   7.744
   10AU       S 4769  25.700  25.812   7.459
   10AU     LIG 4770  26.118  25.664   7.345
   10AU     LIG 4771  26.548  25.790   7.364
   10AU     LIG 4772  26.974  25.962   7.298
   10AU     LIG 4773  27.408  26.133   7.259
   10AU     LIG 4774  27.701  26.460   7.061
   10AU       S 4775  25.746  25.111   7.550
   10AU     LIG 4776  26.152  25.058   7.705
   10AU     LIG 4777  26.446  24.714   7.755
   10AU     LIG 4778  26.879  24.543   7.663
   10AU     LIG 4779  27.327  24.653   7.647
   10AU     LIG 4780  27.681  24.477   7.908
   10AU    AUSL 4781  25.270  25.762   7.737
   10AU    AUSL 4782  25.019  26.156   7.784
   10AU     AUL 4783  25.350  26.210   7.831
   10AU       S 4784  25.343  26.386   8.255
   10AU     LIG 4785  25.708  26.611   8.407
   10AU     LIG 4786  25.968  26.838   8.723
   10AU     LIG 4787  26.389  27.026   8.821
   10AU     LIG 4788  26.658  27.424   8.848
   10AU     LIG 4789  26.574  27.886   8.807
   10AU       S 4790  25.608  25.841   7.889
   10AU     LIG 4791  26.116  25.818   8.033
   10AU     LIG 4792  26.586  25.869   7.912
   10AU     LIG 4793  27.035  26.015   7.863
   10AU     LIG 4794  27.470  26.066   8.068
   10AU     LIG 4795  27.917  26.278   8.117
   10AU    AUSL 4796  23.940  26.250   7.508
   10AU    AUSL 4797  24.014  26.026   7.892
   10AU     AUL 4798  23.715  26.365   7.748
   10AU       S 4799  23.862  26.209   8.154
   10AU     LIG 4800  23.719  26.125   8.580
   10AU     LIG 4801  23.519  26.441   8.878
   10AU     LIG 4802  23.206  26.667   9.159
   10AU     LIG 4803  22.915  26.830   9.499
   10AU     LIG 4804  22.497  26.867   9.722
   10AU       S 4805  23.956  26.627   7.430
   10AU     LIG 4806  23.484  26.728   7.478
   10AU     LIG 4807  23.070  26.972   7.624
   10AU     LIG 4808  22.684  27.243   7.790
   10AU     LIG 4809  22.278  27.532   7.814
   10AU     LIG 4810  21.803  27.629   7.832
   10AU    AUSL 4811  23.887  25.841   7.341
   10AU    AUSL 4812  24.012  26.297   7.086
   10AU     AUL 4813  23.715  26.197   7.211
   10AU       S 4814  23.483  25.637   6.979
   10AU     LIG 4815  23.144  25.989   7.042
   10AU     LIG 4816  22.747  26.283   6.950
   10AU     LIG 4817  22.267  26.417   6.914
   10AU     LIG 4818  21.813  26.550   6.986
   10AU     LIG 4819  21.350  26.638   7.110
   10AU       S 4820  23.851  26.544   6.904
   10AU     LIG 4821  23.566  26.739   6.556
   10AU     LIG 4822  23.490  26.977   6.157
   10AU     LIG 4823  23.272  27.325   5.932
   10AU     LIG 4824  22.986  27.715   5.974
   10AU     LIG 4825  22.559  27.952   5.982
   10AU    AUSL 4826  23.644  25.914   7.709
   10AU    AUSL 4827  23.593  25.537   7.419
   10AU     AUL 4828  23.484  25.853   7.413
   10AU       S 4829  23.379  25.468   7.673
   10AU     LIG 4830  23.076  25.350   7.299
   10AU     LIG 4831  22.658  25.132   7.360
   10AU     LIG 4832  22.181  25.109   7.384
   10AU     LIG 4833  21.729  25.030   7.346
   10AU     LIG 4834  21.387  24.716   7.264
   10AU       S 4835  23.538  25.924   7.926
   10AU     LIG 4836  23.085  25.978   7.885
   10AU     LIG 4837  22.726  26.229   8.086
   10AU     LIG 4838  22.284  26.309   8.236
   10AU     LIG 4839  21.791  26.310   8.238
   10AU     LIG 4840  21.318  26.373   8.310
   10AU    AUSL 4841  25.283  25.049   7.552
   10AU    AUSL 4842  25.104  25.315   7.875
   10AU     AUL 4843  25.428  25.204   7.948
   10AU       S 4844  25.579  24.935   7.573
   10AU     LIG 4845  25.887  24.617   7.654
   10AU     LIG 4846  26.215  24.383   7.434
   10AU     LIG 4847  26.641  24.187   7.389
   10AU     LIG 4848  27.017  23.920   7.538
   10AU     LIG 4849  27.352  23.729   7.834
   10AU       S 4850  25.310  24.766   7.964
   10AU     LIG 4851  25.555  24.487   8.283
   10AU     LIG 4852  25.749  24.263   8.641
   10AU     LIG 4853  26.008  24.023   8.950
   10AU     LIG 4854  26.267  23.994   9.349
   10AU     LIG 4855  26.632  24.006   9.669
   10AU    AUSL 4856  25.274  25.432   7.333
   10AU    AUSL 4857  25.151  24.948   7.148
   10AU     AUL 4858  25.420  25.094   7.170
   10AU       S 4859  25.782  25.281   7.345
   10AU     LIG 4860  26.075  24.888   7.233
   10AU     LIG 4861  26.534  24.738   7.240
   10AU     LIG 4862  26.977  24.875   7.117
   10AU     LIG 4863  27.430  24.714   7.109
   10AU     LIG 4864  27.898  24.657   6.973
   10AU       S 4865  25.349  24.791   6.820
   10AU     LIG 4866  25.368  24.347   6.795
   10AU     LIG 4867  25.465  23.919   6.660
   10AU     LIG 4868  25.729  23.663   6.392
   10AU     LIG 4869  26.035  23.405   6.171
   10AU     LIG 4870  26.468  23.242   6.167
   10AU    AUSL 4871  23.776  25.161   7.577
   10AU    AUSL 4872  23.898  25.397   7.149
   10AU     AUL 4873  23.554  25.241   7.291
   10AU       S 4874  23.761  25.217   6.879
   10AU     LIG 4875  23.314  25.034   6.892
   10AU     LIG 4876  23.076  24.690   6.670
   10AU     LIG 4877  22.831  24.367   6.401
   10AU     LIG 4878  22.592  24.063   6.103
   10AU     LIG 4879  22.218  23.908   5.845
   10AU       S 4880  23.339  25.219   7.717
   10AU     LIG 4881  23.198  24.871   7.458
   10AU     LIG 4882  22.820  24.636   7.293
   10AU     LIG 4883  22.331  24.614   7.370
   10AU     LIG 4884  21.845  24.508   7.422
   10AU     LIG 4885  21.427  24.224   7.423
   10AU    AUSL 4886  23.875  25.556   7.763
   10AU    AUSL 4887  24.115  25.162   7.843
   10AU     AUL 4888  23.755  25.186   7.920
   10AU       S 4889  23.834  24.945   8.303
   10AU     LIG 4890  23.647  24.694   7.953
   10AU     LIG 4891  23.301  24.371   8.018
   10AU     LIG 4892  23.021  24.054   8.274
   10AU     LIG 4893  22.758  23.737   8.546
   10AU     LIG 4894  22.591  23.478   8.910
   10AU       S 4895  23.394  25.478   7.849
   10AU     LIG 4896  22.872  25.541   7.718
   10AU     LIG 4897  22.389  25.542   7.561
   10AU     LIG 4898  21.898  25.460   7.666
   10AU     LIG 4899  21.422  25.325   7.645
   10AU     LIG 4900  21.125  24.937   7.672
   10AU    AUSL 4901  24.634  26.383   7.890
   10AU    AUSL 4902  24.198  26.417   7.818
   10AU     AUL 4903  24.435  26.463   8.183
   10AU       S 4904  24.064  26.625   7.941
   10AU     LIG 4905  23.723  26.816   8.240
   10AU     LIG 4906  23.565  26.935   8.681
   10AU     LIG 4907  23.411  27.314   8.937
   10AU     LIG 4908  23.275  27.779   9.003
   10AU     LIG 4909  22.975  28.153   9.038
   10AU       S 4910  24.637  26.795   7.936
   10AU     LIG 4911  24.838  26.865   8.307
   10AU     LIG 4912  24.949  27.289   8.481
   10AU     LIG 4913  24.839  27.688   8.732
   10AU     LIG 4914  24.760  27.943   9.134
   10AU     LIG 4915  24.628  28.203   9.520
   10AU    AUSL 4916  24.470  26.607   7.537
   10AU    AUSL 4917  24.763  26.523   7.175
   10AU     AUL 4918  24.697  26.868   7.324
   10AU       S 4919  24.482  26.839   7.750
   10AU     LIG 4920  24.616  27.279   7.998
   10AU     LIG 4921  24.737  27.684   8.218
   10AU     LIG 4922  24.539  28.072   8.449
   10AU     LIG 4923  24.211  28.457   8.500
   10AU     LIG 4924  24.084  28.911   8.631
   10AU       S 4925  24.504  26.699   6.948
   10AU     LIG 4926  24.956  26.945   6.913
   10AU     LIG 4927  25.207  27.375   6.874
   10AU     LIG 4928  25.473  27.795   6.766
   10AU     LIG 4929  25.450  28.281   6.731
   10AU     LIG 4930  25.717  28.653   6.548
   10AU    AUSL 4931  24.924  26.523   7.586
   10AU    AUSL 4932  24.879  26.228   8.205
   10AU     AUL 4933  24.986  26.487   7.969
   10AU       S 4934  25.122  26.317   8.411
   10AU     LIG 4935  25.486  26.290   8.740
   10AU     LIG 4936  25.745  26.491   9.060
   10AU     LIG 4937  25.932  26.799   9.343
   10AU     LIG 4938  25.915  26.991   9.774
   10AU     LIG 4939  26.038  27.377  10.023
   10AU       S 4940  24.846  26.875   7.763
   10AU     LIG 4941  25.128  27.162   7.994
   10AU     LIG 4942  25.350  27.550   8.130
   10AU     LIG 4943  25.483  27.999   8.171
   10AU     LIG 4944  25.542  28.407   8.380
   10AU     LIG 4945  25.548  28.865   8.445
   10AU    AUSL 4946  24.508  24.961   7.920
   10AU    AUSL 4947  24.922  24.933   7.758
   10AU     AUL 4948  24.726  24.811   8.139
   10AU       S 4949  24.462  24.463   7.995
   10AU     LIG 4950  24.341  24.247   8.356
   10AU     LIG 4951  24.270  23.789   8.410
   10AU     LIG 4952  24.339  23.312   8.425
   10AU     LIG 4953  24.497  22.855   8.524
   10AU     LIG 4954  24.620  22.580   8.905
   10AU       S 4955  25.071  24.703   7.817
   10AU     LIG 4956  25.115  24.271   8.054
   10AU     LIG 4957  25.425  23.984   8.308
   10AU     LIG 4958  25.720  23.746   8.597
   10AU     LIG 4959  25.949  23.374   8.751
   10AU     LIG 4960  26.296  23.111   8.926
   10AU    AUSL 4961  24.183  24.794   7.644
   10AU    AUSL 4962  24.287  25.096   8.259
   10AU     AUL 4963  24.164  24.831   8.003
   10AU       S 4964  24.278  24.405   7.854
   10AU     LIG 4965  24.032  24.056   7.999
   10AU     LIG 4966  23.982  23.595   8.030
   10AU     LIG 4967  24.092  23.142   8.010
   10AU     LIG 4968  23.937  22.732   8.176
   10AU     LIG 4969  23.873  22.257   8.229
   10AU       S 4970  24.062  24.980   8.443
   10AU     LIG 4971  23.856  24.481   8.412
   10AU     LIG 4972  23.425  24.289   8.522
   10AU     LIG 4973  23.125  24.017   8.788
   10AU     LIG 4974  22.958  23.777   9.160
   10AU     LIG 4975  22.895  23.805   9.625
   10AU    AUSL 4976  24.615  24.676   7.600
   10AU    AUSL 4977  24.367  24.813   7.245
   10AU     AUL 4978  24.245  24.556   7.419
   10AU       S 4979  24.602  24.533   7.126
   10AU     LIG 4980  24.239  24.238   7.045
   10AU     LIG 4981  24.089  23.810   7.087
   10AU     LIG 4982  24.146  23.356   6.994
   10AU     LIG 4983  24.210  22.897   6.863
   10AU     LIG 4984  24.009  22.477   6.874
   10AU       S 4985  24.609  24.484   7.748
   10AU     LIG 4986  24.572  23.995   7.807
   10AU     LIG 4987  24.495  23.550   7.981
   10AU     LIG 4988  24.614  23.080   8.037
   10AU     LIG 4989  24.819  22.680   8.146
   10AU     LIG 4990  24.758  22.341   8.470
   10AU    AUSL 4991  24.593  26.254   6.849
   10AU    AUSL 4992  25.039  26.209   7.260
   10AU     AUL 4993  24.903  26.434   6.871
   10AU       S 4994  24.507  26.654   6.727
   10AU     LIG 4995  24.682  27.028   6.502
   10AU     LIG 4996  25.044  27.317   6.390
   10AU     LIG 4997  25.212  27.625   6.069
   10AU     LIG 4998  25.093  27.938   5.736
   10AU     LIG 4999  24.918  28.288   5.460
   10AU       S 5000  25.262  26.436   7.157
   10AU     LIG 5001  25.473  26.836   6.923
   10AU     LIG 5002  25.785  26.895   6.567
   10AU     LIG 5003  26.088  27.215   6.458
   10AU     LIG 5004  26.408  27.524   6.335
   10AU     LIG 5005  26.562  27.824   6.004
   10AU    AUSL 5006  24.399  26.296   7.254
   10AU    AUSL 5007  24.285  25.971   6.955
   10AU     AUL 5008  24.246  26.279   6.812
   10AU       S 5009  24.316  26.673   7.078
   10AU     LIG 5010  24.475  27.174   6.967
   10AU     LIG 5011  24.663  27.548   6.743
   10AU     LIG 5012  24.471  28.006   6.687
   10AU     LIG 5013  24.136  28.382   6.692
   10AU     LIG 5014  24.055  28.847   6.704
   10AU       S 5015  23.809  26.314   6.666
   10AU     LIG 5016  23.832  26.433   6.231
   10AU     LIG 5017  23.779  26.691   5.841
   10AU     LIG 5018  23.583  27.040   5.606
   10AU     LIG 5019  23.527  27.225   5.169
   10AU     LIG 5020  23.500  27.609   4.884
   10AU    AUSL 5021  24.586  24.938   6.877
   10AU    AUSL 5022  23.967  24.963   7.245
   10AU     AUL 5023  24.222  24.800   6.941
   10AU       S 5024  23.785  24.913   7.054
   10AU     LIG 5025  23.458  24.589   7.117
   10AU     LIG 5026  23.134  24.281   6.968
   10AU     LIG 5027  22.962  23.947   6.675
   10AU     LIG 5028  22.735  23.646   6.384
   10AU     LIG 5029  22.547  23.527   5.976
   10AU       S 5030  24.628  24.532   6.899
   10AU     LIG 5031  24.644  24.097   6.765
   10AU     LIG 5032  24.359  23.740   6.648
   10AU     LIG 5033  24.341  23.291   6.526
   10AU     LIG 5034  24.485  22.864   6.411
   10AU     LIG 5035  24.560  22.524   6.100
   10AU    AUSL 5036  24.763  24.960   7.310
   10AU    AUSL 5037  24.867  25.251   6.972
   10AU     AUL 5038  24.910  24.897   6.914
   10AU       S 5039  24.835  24.550   7.212
   10AU     LIG 5040  24.682  24.080   7.291
   10AU     LIG 5041  24.585  23.650   7.099
   10AU     LIG 5042  24.638  23.188   6.953
   10AU     LIG 5043  24.713  22.730   6.849
   10AU     LIG 5044  24.901  22.465   6.502
   10AU       S 5045  25.158  25.022   6.559
   10AU     LIG 5046  25.015  24.587   6.501
   10AU     LIG 5047  25.227  24.215   6.305
   10AU     LIG 5048  25.471  23.910   6.022
   10AU     LIG 5049  25.739  23.643   5.717
   10AU     LIG 5050  25.950  23.602   5.285
   11POPC   NC3 5051  27.307  43.817   9.633
   11POPC   PO4 5052  27.871  44.239   9.546
   11POPC   GL1 5053  27.635  43.987   9.214
   11POPC   GL2 5054  27.320  44.121   9.136
   11POPC   C1A 5055  27.744  43.978   8.748
   11POPC   D2A 5056  27.781  44.170   8.319
   11POPC   C3A 5057  27.731  43.897   7.923
   11POPC   C4A 5058  27.564  44.037   7.502
   11POPC   C1B 5059  27.253  43.869   8.728
   11POPC   C2B 5060  27.367  43.861   8.269
   11POPC   C3B 5061  27.210  43.843   7.820
   11POPC   C4B 5062  27.086  43.985   7.367
   12POPC   NC3 5063  22.002  37.313   9.253
   12POPC   PO4 5064  21.972  37.973   9.516
   12POPC   GL1 5065  21.994  37.831   9.152
   12POPC   GL2 5066  22.318  37.701   9.161
   12POPC   C1A 5067  21.936  37.722   8.754
   12POPC   D2A 5068  22.152  37.724   8.403
   12POPC   C3A 5069  21.991  37.744   8.044
   12POPC   C4A 5070  22.140  37.490   7.712
   12POPC   C1B 5071  22.512  37.692   8.775
   12POPC   C2B 5072  22.629  37.893   8.383
   12POPC   C3B 5073  22.478  37.809   7.982
   12POPC   C4B 5074  22.613  37.840   7.591
   13POPC   NC3 5075   9.150  12.106   9.416
   13POPC   PO4 5076   8.481  11.933   9.496
   13POPC   GL1 5077   8.632  12.124   9.132
   13POPC   GL2 5078   8.850  11.864   9.089
   13POPC   C1A 5079   8.809  12.196   8.720
   13POPC   D2A 5080   8.735  11.904   8.398
   13POPC   C3A 5081   8.593  12.109   8.079
   13POPC   C4A 5082   8.920  12.205   7.863
   13POPC   C1B 5083   9.115  11.781   8.745
   13POPC   C2B 5084   9.235  11.884   8.341
   13POPC   C3B 5085   9.085  11.711   7.965
   13POPC   C4B 5086   9.367  11.483   7.701
   14POPC   NC3 5087  34.877  31.653   9.442
   14POPC   PO4 5088  34.453  31.116   9.518
   14POPC   GL1 5089  34.714  31.214   9.168
   14POPC   GL2 5090  34.438  31.423   9.094
   14POPC   C1A 5091  34.728  31.298   8.707
   14POPC   D2A 5092  34.452  31.401   8.381
   14POPC   C3A 5093  34.594  31.220   8.000
   14POPC   C4A 5094  35.046  31.279   7.932
   14POPC   C1B 5095  34.329  31.739   8.809
   14POPC   C2B 5096  34.203  31.853   8.413
   14POPC   C3B 5097  34.491  31.866   8.107
   14POPC   C4B 5098  34.687  31.681   7.774
   15POPC   NC3 5099  24.426  21.368   9.528
   15POPC   PO4 5100  24.164  22.055   9.583
   15POPC   GL1 5101  24.208  21.703   9.196
   15POPC   GL2 5102  24.111  21.321   9.102
   15POPC   C1A 5103  24.512  21.497   8.873
   15POPC   D2A 5104  24.585  21.563   8.427
   15POPC   C3A 5105  24.657  21.352   8.035
   15POPC   C4A 5106  24.672  21.556   7.630
   15POPC   C1B 5107  24.038  21.414   8.668
   15POPC   C2B 5108  24.161  21.279   8.259
   15POPC   C3B 5109  24.212  21.156   7.836
   15POPC   C4B 5110  24.295  21.219   7.416
   16POPC   NC3 5111  32.622   1.354   9.445
   16POPC   PO4 5112  33.257   1.004   9.466
   16POPC   GL1 5113  33.143   1.296   9.178
   16POPC   GL2 5114  32.844   1.098   9.066
   16POPC   C1A 5115  33.122   1.396   8.742
   16POPC   D2A 5116  33.341   1.224   8.398
   16POPC   C3A 5117  33.269   1.376   7.995
   16POPC   C4A 5118  32.905   1.290   7.741
   16POPC   C1B 5119  32.870   0.949   8.639
   16POPC   C2B 5120  32.894   1.024   8.185
   16POPC   C3B 5121  32.960   0.790   7.795
   16POPC   C4B 5122  32.936   0.839   7.367
   17POPC   NC3 5123  41.290   3.290   9.393
   17POPC   PO4 5124  40.765   3.595   9.602
   17POPC   GL1 5125  40.769   3.254   9.256
   17POPC   GL2 5126  40.891   3.503   9.101
   17POPC   C1A 5127  40.851   3.073   8.812
   17POPC   D2A 5128  40.825   3.321   8.443
   17POPC   C3A 5129  40.671   3.208   8.056
   17POPC   C4A 5130  40.803   3.319   7.669
   17POPC   C1B 5131  40.710   3.690   8.781
   17POPC   C2B 5132  40.719   3.820   8.373
   17POPC   C3B 5133  40.544   3.725   7.997
   17POPC   C4B 5134  40.362   3.602   7.654
   18POPC   NC3 5135   7.798   0.219   9.492
   18POPC   PO4 5136   7.124   0.463   9.566
   18POPC   GL1 5137   7.197   0.536   9.165
   18POPC   GL2 5138   7.553   0.513   9.153
   18POPC   C1A 5139   7.215   0.491   8.744
   18POPC   D2A 5140   7.199   0.597   8.334
   18POPC   C3A 5141   7.255   0.232   8.046
   18POPC   C4A 5142   7.266   0.366   7.613
   18POPC   C1B 5143   7.715   0.289   8.794
   18POPC   C2B 5144   7.652   0.285   8.360
   18POPC   C3B 5145   7.796   0.205   7.930
   18POPC   C4B 5146   7.775   0.435   7.554
   19POPC   NC3 5147  17.175   6.371   9.670
   19POPC   PO4 5148  17.911   6.264   9.463
   19POPC   GL1 5149  17.838   6.555   9.084
   19POPC   GL2 5150  17.508   6.576   8.912
   19POPC   C1A 5151  17.939   6.745   8.690
   19POPC   D2A 5152  17.671   6.842   8.377
   19POPC   C3A 5153  17.621   6.521   8.152
   19POPC   C4A 5154  17.814   6.630   7.794
   19POPC   C1B 5155  17.264   6.851   8.697
   19POPC   C2B 5156  17.165   6.783   8.290
   19POPC   C3B 5157  17.323   6.819   7.884
   19POPC   C4B 5158  17.338   7.104   7.538
   20POPC   NC3 5159  31.663  18.270   9.487
   20POPC   PO4 5160  31.389  18.732   9.337
   20POPC   GL1 5161  31.510  18.417   9.010
   20POPC   GL2 5162  31.348  18.096   9.080
   20POPC   C1A 5163  31.635  18.148   8.628
   20POPC   D2A 5164  31.821  18.070   8.195
   20POPC   C3A 5165  31.582  18.179   7.809
   20POPC   C4A 5166  31.306  18.413   7.506
   20POPC   C1B 5167  31.146  18.275   8.685
   20POPC   C2B 5168  31.251  18.307   8.231
   20POPC   C3B 5169  31.102  18.020   7.888
   20POPC   C4B 5170  30.856  18.124   7.518
   21POPC   NC3 5171  44.483  30.248   9.399
   21POPC   PO4 5172  44.740  29.625   9.574
   21POPC   GL1 5173  44.755  29.866   9.222
   21POPC   GL2 5174   0.033  30.108   9.258
   21POPC   C1A 5175  44.717  30.044   8.810
   21POPC   D2A 5176  44.494  30.080   8.441
   21POPC   C3A 5177  44.774  30.080   8.126
   21POPC   C4A 5178  44.569  29.989   7.766
   21POPC   C1B 5179   0.135  29.768   8.926
   21POPC   C2B 5180   0.033  29.781   8.480
   21POPC   C3B 5181   0.022  29.636   8.026
   21POPC   C4B 5182   0.054  29.884   7.639
   22POPC   NC3 5183   5.991   0.347   9.433
   22POPC   PO4 5184   5.438   0.788   9.603
   22POPC   GL1 5185   5.519   0.610   9.204
   22POPC   GL2 5186   5.660   0.896   9.068
   22POPC   C1A 5187   5.699   0.455   8.791
   22POPC   D2A 5188   5.785   0.577   8.341
   22POPC   C3A 5189   5.912   0.384   7.944
   22POPC   C4A 5190   5.985  44.993   7.720
   22POPC   C1B 5191   5.976   0.903   8.745
   22POPC   C2B 5192   5.986   1.055   8.317
   22POPC   C3B 5193   5.793   0.927   7.943
   22POPC   C4B 5194   5.796   0.700   7.553
   23POPC   NC3 5195  39.669   0.408   9.507
   23POPC   PO4 5196  39.072   0.199   9.466
   23POPC   GL1 5197  39.357   0.215   9.118
   23POPC   GL2 5198  39.592  44.975   9.122
   23POPC   C1A 5199  39.451   0.396   8.719
   23POPC   D2A 5200  39.515   0.568   8.321
   23POPC   C3A 5201  39.145   0.634   8.113
   23POPC   C4A 5202  39.094   0.544   7.713
   23POPC   C1B 5203  39.437  44.861   8.701
   23POPC   C2B 5204  39.237   0.093   8.355
   23POPC   C3B 5205  39.408   0.212   7.946
   23POPC   C4B 5206  39.469   0.154   7.480
   24POPC   NC3 5207  29.494   1.900   9.439
   24POPC   PO4 5208  28.854   2.183   9.348
   24POPC   GL1 5209  28.972   1.995   8.983
   24POPC   GL2 5210  29.315   1.944   8.968
   24POPC   C1A 5211  28.853   1.740   8.633
   24POPC   D2A 5212  29.171   1.515   8.372
   24POPC   C3A 5213  29.296   1.803   8.021
   24POPC   C4A 5214  28.963   1.900   7.713
   24POPC   C1B 5215  29.298   2.013   8.518
   24POPC   C2B 5216  29.486   2.327   8.245
   24POPC   C3B 5217  29.559   2.331   7.798
   24POPC   C4B 5218  29.445   1.977   7.513
   25POPC   NC3 5219  11.435  20.461   9.434
   25POPC   PO4 5220  11.042  21.040   9.316
   25POPC   GL1 5221  11.106  20.694   9.076
   25POPC   GL2 5222  11.446  20.827   9.085
   25POPC   C1A 5223  11.317  20.493   8.714
   25POPC   D2A 5224  11.457  20.344   8.311
   25POPC   C3A 5225  11.217  20.357   7.943
   25POPC   C4A 5226  11.139  20.627   7.607
   25POPC   C1B 5227  11.652  20.896   8.718
   25POPC   C2B 5228  11.472  20.870   8.317
   25POPC   C3B 5229  11.559  20.749   7.886
   25POPC   C4B 5230  11.528  20.986   7.501
   26POPC   NC3 5231   8.033  15.253   9.544
   26POPC   PO4 5232   8.651  15.256   9.541
   26POPC   GL1 5233   8.348  15.215   9.146
   26POPC   GL2 5234   8.021  14.979   9.121
   26POPC   C1A 5235   8.147  15.314   8.752
   26POPC   D2A 5236   8.363  15.450   8.394
   26POPC   C3A 5237   8.193  15.343   8.014
   26POPC   C4A 5238   8.117  15.281   7.594
   26POPC   C1B 5239   8.184  14.806   8.742
   26POPC   C2B 5240   8.091  14.943   8.343
   26POPC   C3B 5241   8.278  14.826   7.953
   26POPC   C4B 5242   8.293  14.818   7.516
   27POPC   NC3 5243   4.612   8.708   9.517
   27POPC   PO4 5244   4.163   9.124   9.393
   27POPC   GL1 5245   4.472   8.967   9.092
   27POPC   GL2 5246   4.379   8.615   9.063
   27POPC   C1A 5247   4.456   8.908   8.653
   27POPC   D2A 5248   4.106   8.977   8.384
   27POPC   C3A 5249   4.299   9.198   8.047
   27POPC   C4A 5250   4.591   8.980   7.817
   27POPC   C1B 5251   4.108   8.551   8.734
   27POPC   C2B 5252   4.045   8.467   8.316
   27POPC   C3B 5253   4.300   8.614   8.029
   27POPC   C4B 5254   4.125   8.789   7.690
   28POPC   NC3 5255   2.357  36.009   9.446
   28POPC   PO4 5256   1.690  36.201   9.433
   28POPC   GL1 5257   2.028  36.303   9.148
   28POPC   GL2 5258   2.170  36.594   9.310
   28POPC   C1A 5259   2.207  36.134   8.735
   28POPC   D2A 5260   2.159  35.975   8.294
   28POPC   C3A 5261   1.958  36.117   7.887
   28POPC   C4A 5262   1.706  36.500   7.751
   28POPC   C1B 5263   2.276  36.636   8.849
   28POPC   C2B 5264   2.090  36.573   8.476
   28POPC   C3B 5265   2.198  36.515   8.085
   28POPC   C4B 5266   2.210  36.645   7.700
   29POPC   NC3 5267  20.274  26.024   9.344
   29POPC   PO4 5268  19.788  25.630   9.575
   29POPC   GL1 5269  19.812  25.834   9.208
   29POPC   GL2 5270  20.043  25.650   9.077
   29POPC   C1A 5271  19.734  26.090   8.872
   29POPC   D2A 5272  19.618  26.218   8.465
   29POPC   C3A 5273  19.741  26.140   8.072
   29POPC   C4A 5274  20.048  26.331   7.870
   29POPC   C1B 5275  19.790  25.590   8.707
   29POPC   C2B 5276  19.925  25.699   8.286
   29POPC   C3B 5277  20.115  25.797   7.887
   29POPC   C4B 5278  19.971  25.582   7.548
   30POPC   NC3 5279   3.591   1.469   9.385
   30POPC   PO4 5280   3.159   1.046   9.433
   30POPC   GL1 5281   3.516   0.960   9.149
   30POPC   GL2 5282   3.854   1.120   9.109
   30POPC   C1A 5283   3.559   0.974   8.734
   30POPC   D2A 5284   3.643   1.073   8.332
   30POPC   C3A 5285   3.429   1.287   8.016
   30POPC   C4A 5286   3.456   1.160   7.569
   30POPC   C1B 5287   3.985   1.257   8.674
   30POPC   C2B 5288   4.094   1.331   8.220
   30POPC   C3B 5289   3.917   1.305   7.777
   30POPC   C4B 5290   3.826   1.445   7.308
   31POPC   NC3 5291   8.535  30.545   9.495
   31POPC   PO4 5292   8.004  31.033   9.362
   31POPC   GL1 5293   8.165  30.935   9.006
   31POPC   GL2 5294   8.229  30.594   9.079
   31POPC   C1A 5295   8.544  30.972   8.827
   31POPC   D2A 5296   8.662  30.914   8.416
   31POPC   C3A 5297   8.437  30.669   8.098
   31POPC   C4A 5298   8.012  30.620   7.945
   31POPC   C1B 5299   8.303  30.551   8.638
   31POPC   C2B 5300   8.093  30.867   8.433
   31POPC   C3B 5301   7.842  31.093   8.136
   31POPC   C4B 5302   7.727  30.977   7.718
   32POPC   NC3 5303   6.429  24.086   9.898
   32POPC   PO4 5304   6.749  23.677   9.469
   32POPC   GL1 5305   6.560  23.781   9.101
   32POPC   GL2 5306   6.829  24.030   9.025
   32POPC   C1A 5307   6.410  23.980   8.735
   32POPC   D2A 5308   6.477  23.821   8.335
   32POPC   C3A 5309   6.453  24.091   7.992
   32POPC   C4A 5310   6.446  23.917   7.633
   32POPC   C1B 5311   6.908  23.871   8.622
   32POPC   C2B 5312   6.955  23.935   8.175
   32POPC   C3B 5313   6.764  23.658   7.927
   32POPC   C4B 5314   6.904  23.244   7.845
   33POPC   NC3 5315  18.388  39.934   9.590
   33POPC   PO4 5316  18.591  40.509   9.212
   33POPC   GL1 5317  18.465  40.096   9.119
   33POPC   GL2 5318  18.651  39.748   9.191
   33POPC   C1A 5319  18.277  39.839   8.823
   33POPC   D2A 5320  18.185  39.968   8.431
   33POPC   C3A 5321  18.276  39.713   8.116
   33POPC   C4A 5322  17.981  39.738   7.782
   33POPC   C1B 5323  18.797  39.868   8.797
   33POPC   C2B 5324  18.695  40.060   8.438
   33POPC   C3B 5325  18.649  40.080   8.020
   33POPC   C4B 5326  18.507  39.841   7.682
   34POPC   NC3 5327  36.330   4.623   9.290
   34POPC   PO4 5328  35.758   4.368   9.373
   34POPC   GL1 5329  35.885   4.179   9.019
   34POPC   GL2 5330  36.212   4.106   9.103
   34POPC   C1A 5331  35.899   4.304   8.615
   34POPC   D2A 5332  36.065   4.613   8.370
   34POPC   C3A 5333  36.157   4.451   7.975
   34POPC   C4A 5334  35.923   4.333   7.639
   34POPC   C1B 5335  36.421   4.296   8.721
   34POPC   C2B 5336  36.564   4.473   8.315
   34POPC   C3B 5337  36.608   4.656   7.894
   34POPC   C4B 5338  36.340   4.669   7.513
   35POPC   NC3 5339  21.994  43.657   9.501
   35POPC   PO4 5340  22.630  43.898   9.535
   35POPC   GL1 5341  22.357  43.817   9.176
   35POPC   GL2 5342  21.993  43.988   9.114
   35POPC   C1A 5343  22.407  43.934   8.774
   35POPC   D2A 5344  22.219  43.829   8.385
   35POPC   C3A 5345  21.996  44.088   8.094
   35POPC   C4A 5346  22.117  44.123   7.646
   35POPC   C1B 5347  21.992  43.636   8.816
   35POPC   C2B 5348  21.874  43.445   8.392
   35POPC   C3B 5349  22.064  43.564   7.954
   35POPC   C4B 5350  22.036  43.637   7.481
   36POPC   NC3 5351   8.033  11.775   9.573
   36POPC   PO4 5352   7.902  12.414   9.497
   36POPC   GL1 5353   8.101  12.173   9.196
   36POPC   GL2 5354   8.090  11.860   9.085
   36POPC   C1A 5355   8.204  12.298   8.799
   36POPC   D2A 5356   7.994  12.414   8.429
   36POPC   C3A 5357   8.096  12.262   8.024
   36POPC   C4A 5358   8.345  12.353   7.663
   36POPC   C1B 5359   8.379  11.848   8.762
   36POPC   C2B 5360   8.211  11.902   8.365
   36POPC   C3B 5361   8.253  11.768   7.924
   36POPC   C4B 5362   8.624  11.859   7.628
   37POPC   NC3 5363  15.105  18.653   9.688
   37POPC   PO4 5364  15.069  19.289   9.528
   37POPC   GL1 5365  15.159  19.068   9.142
   37POPC   GL2 5366  15.472  18.988   9.098
   37POPC   C1A 5367  15.181  19.000   8.685
   37POPC   D2A 5368  15.303  18.773   8.385
   37POPC   C3A 5369  15.172  18.950   8.059
   37POPC   C4A 5370  15.069  18.811   7.693
   37POPC   C1B 5371  15.601  19.223   8.778
   37POPC   C2B 5372  15.510  19.254   8.365
   37POPC   C3B 5373  15.675  19.320   7.984
   37POPC   C4B 5374  15.507  19.111   7.652
   38POPC   NC3 5375  43.552  27.744   9.543
   38POPC   PO4 5376  42.903  27.483   9.522
   38POPC   GL1 5377  42.976  27.468   9.119
   38POPC   GL2 5378  43.182  27.738   9.086
   38POPC   C1A 5379  42.744  27.416   8.770
   38POPC   D2A 5380  42.697  27.245   8.409
   38POPC   C3A 5381  43.002  27.446   8.156
   38POPC   C4A 5382  42.806  27.455   7.756
   38POPC   C1B 5383  43.237  27.617   8.644
   38POPC   C2B 5384  43.463  27.304   8.397
   38POPC   C3B 5385  43.465  27.136   7.998
   38POPC   C4B 5386  43.311  27.448   7.725
   39POPC   NC3 5387  14.243  42.825  10.040
   39POPC   PO4 5388  14.633  42.861   9.486
   39POPC   GL1 5389  14.627  43.051   9.096
   39POPC   GL2 5390  14.935  43.269   9.045
   39POPC   C1A 5391  14.329  42.982   8.736
   39POPC   D2A 5392  14.339  42.702   8.403
   39POPC   C3A 5393  14.238  42.866   8.018
   39POPC   C4A 5394  14.350  43.185   7.762
   39POPC   C1B 5395  14.806  43.124   8.620
   39POPC   C2B 5396  14.564  43.228   8.274
   39POPC   C3B 5397  14.759  43.425   7.941
   39POPC   C4B 5398  14.865  43.399   7.491
   40POPC   NC3 5399  35.686  26.748   9.509
   40POPC   PO4 5400  35.019  27.017   9.490
   40POPC   GL1 5401  35.285  27.056   9.121
   40POPC   GL2 5402  35.406  26.721   9.082
   40POPC   C1A 5403  35.209  26.937   8.680
   40POPC   D2A 5404  35.222  26.737   8.296
   40POPC   C3A 5405  35.070  26.956   7.909
   40POPC   C4A 5406  35.218  27.035   7.496
   40POPC   C1B 5407  35.637  26.537   8.730
   40POPC   C2B 5408  35.628  26.305   8.317
   40POPC   C3B 5409  35.201  26.270   8.115
   40POPC   C4B 5410  35.379  26.582   7.824
   41POPC   NC3 5411  27.369  22.187   9.639
   41POPC   PO4 5412  26.746  22.036   9.620
   41POPC   GL1 5413  26.728  21.992   9.177
   41POPC   GL2 5414  27.061  22.147   9.130
   41POPC   C1A 5415  26.738  22.137   8.752
   41POPC   D2A 5416  26.985  22.283   8.458
   41POPC   C3A 5417  26.751  22.228   8.127
   41POPC   C4A 5418  26.843  22.323   7.724
   41POPC   C1B 5419  27.219  21.913   8.745
   41POPC   C2B 5420  27.100  21.795   8.333
   41POPC   C3B 5421  27.157  21.971   7.934
   41POPC   C4B 5422  27.210  22.006   7.477
   42POPC   NC3 5423  28.688  11.035   9.243
   42POPC   PO4 5424  28.150  10.816   9.637
   42POPC   GL1 5425  28.382  10.652   9.146
   42POPC   GL2 5426  28.444  10.295   9.076
   42POPC   C1A 5427  28.493  10.606   8.672
   42POPC   D2A 5428  28.570  10.311   8.300
   42POPC   C3A 5429  28.491  10.552   7.893
   42POPC   C4A 5430  28.211  10.953   7.840
   42POPC   C1B 5431  28.091  10.310   8.757
   42POPC   C2B 5432  28.061  10.174   8.322
   42POPC   C3B 5433  28.230  10.099   7.938
   42POPC   C4B 5434  28.255  10.251   7.530
   43POPC   NC3 5435  25.845   1.232   9.783
   43POPC   PO4 5436  26.333   0.853   9.536
   43POPC   GL1 5437  26.367   1.008   9.091
   43POPC   GL2 5438  26.527   1.357   9.015
   43POPC   C1A 5439  26.207   1.029   8.676
   43POPC   D2A 5440  26.104   1.218   8.271
   43POPC   C3A 5441  25.956   1.070   7.854
   43POPC   C4A 5442  25.932   1.251   7.395
   43POPC   C1B 5443  26.482   1.451   8.593
   43POPC   C2B 5444  26.611   1.224   8.241
   43POPC   C3B 5445  26.409   1.305   7.850
   43POPC   C4B 5446  26.412   1.417   7.413
   44POPC   NC3 5447   1.478  33.442   9.469
   44POPC   PO4 5448   1.238  34.060   9.491
   44POPC   GL1 5449   1.029  33.780   9.249
   44POPC   GL2 5450   1.349  33.767   9.073
   44POPC   C1A 5451   0.862  33.766   8.843
   44POPC   D2A 5452   1.065  33.794   8.440
   44POPC   C3A 5453   0.938  33.866   8.019
   44POPC   C4A 5454   1.250  34.093   7.783
   44POPC   C1B 5455   1.399  33.528   8.718
   44POPC   C2B 5456   1.409  33.459   8.275
   44POPC   C3B 5457   1.420  33.581   7.825
   44POPC   C4B 5458   1.480  33.285   7.475
   45POPC   NC3 5459  43.106  17.288   9.550
   45POPC   PO4 5460  43.718  17.329   9.430
   45POPC   GL1 5461  43.307  17.509   9.116
   45POPC   GL2 5462  42.928  17.391   9.057
   45POPC   C1A 5463  43.113  17.713   8.689
   45POPC   D2A 5464  43.000  17.977   8.320
   45POPC   C3A 5465  42.921  17.773   7.938
   45POPC   C4A 5466  43.078  17.580   7.538
   45POPC   C1B 5467  43.093  17.215   8.653
   45POPC   C2B 5468  43.147  17.320   8.181
   45POPC   C3B 5469  42.803  17.273   7.852
   45POPC   C4B 5470  42.689  17.237   7.387
   46POPC   NC3 5471   6.113  28.783   9.433
   46POPC   PO4 5472   5.862  28.135   9.424
   46POPC   GL1 5473   5.731  28.259   9.027
   46POPC   GL2 5474   5.734  28.619   9.045
   46POPC   C1A 5475   5.668  28.327   8.626
   46POPC   D2A 5476   5.887  28.154   8.333
   46POPC   C3A 5477   5.721  28.191   7.969
   46POPC   C4A 5478   5.682  28.590   7.812
   46POPC   C1B 5479   6.058  28.656   8.767
   46POPC   C2B 5480   6.201  28.587   8.377
   46POPC   C3B 5481   6.157  28.713   7.974
   46POPC   C4B 5482   6.373  28.589   7.636
   47POPC   NC3 5483  36.262  37.803   9.791
   47POPC   PO4 5484  35.847  37.707   9.396
   47POPC   GL1 5485  36.079  37.691   9.033
   47POPC   GL2 5486  36.412  37.708   9.114
   47POPC   C1A 5487  36.035  37.601   8.622
   47POPC   D2A 5488  36.297  37.869   8.392
   47POPC   C3A 5489  36.078  37.988   8.025
   47POPC   C4A 5490  36.175  37.907   7.618
   47POPC   C1B 5491  36.462  37.382   8.790
   47POPC   C2B 5492  36.388  37.345   8.350
   47POPC   C3B 5493  36.402  37.560   7.967
   47POPC   C4B 5494  36.314  37.419   7.558
   48POPC   NC3 5495  20.432  35.290   9.432
   48POPC   PO4 5496  20.565  35.945   9.379
   48POPC   GL1 5497  20.639  35.616   9.106
   48POPC   GL2 5498  20.778  35.248   9.093
   48POPC   C1A 5499  20.475  35.544   8.716
   48POPC   D2A 5500  20.307  35.564   8.306
   48POPC   C3A 5501  20.596  35.614   7.950
   48POPC   C4A 5502  20.655  35.410   7.534
   48POPC   C1B 5503  20.742  35.110   8.698
   48POPC   C2B 5504  20.773  35.298   8.323
   48POPC   C3B 5505  20.723  35.119   7.933
   48POPC   C4B 5506  20.696  34.876   7.573
   49POPC   NC3 5507  23.069  29.970   9.590
   49POPC   PO4 5508  23.693  30.113   9.676
   49POPC   GL1 5509  23.651  30.207   9.206
   49POPC   GL2 5510  23.284  30.235   9.164
   49POPC   C1A 5511  23.843  30.352   8.801
   49POPC   D2A 5512  24.125  30.259   8.444
   49POPC   C3A 5513  23.921  30.158   8.042
   49POPC   C4A 5514  23.805  29.721   7.936
   49POPC   C1B 5515  23.354  30.052   8.782
   49POPC   C2B 5516  23.569  30.136   8.421
   49POPC   C3B 5517  23.399  30.053   8.034
   49POPC   C4B 5518  23.375  29.805   7.653
   50POPC   NC3 5519  20.401  22.762   9.554
   50POPC   PO4 5520  20.888  23.167   9.745
   50POPC   GL1 5521  20.695  23.039   9.269
   50POPC   GL2 5522  20.730  22.664   9.169
   50POPC   C1A 5523  20.730  23.026   8.780
   50POPC   D2A 5524  20.447  23.145   8.417
   50POPC   C3A 5525  20.521  22.976   8.001
   50POPC   C4A 5526  20.249  23.039   7.680
   50POPC   C1B 5527  20.700  22.517   8.732
   50POPC   C2B 5528  20.753  22.443   8.301
   50POPC   C3B 5529  20.624  22.476   7.866
   50POPC   C4B 5530  20.940  22.625   7.607
   51POPC   NC3 5531  38.944  12.187   9.459
   51POPC   PO4 5532  39.491  11.846   9.516
   51POPC   GL1 5533  39.187  11.850   9.155
   51POPC   GL2 5534  38.851  11.964   8.982
   51POPC   C1A 5535  39.285  11.978   8.757
   51POPC   D2A 5536  39.422  11.767   8.428
   51POPC   C3A 5537  39.219  11.918   8.090
   51POPC   C4A 5538  39.373  12.009   7.720
   51POPC   C1B 5539  38.859  12.029   8.495
   51POPC   C2B 5540  38.950  12.377   8.204
   51POPC   C3B 5541  39.030  12.393   7.810
   51POPC   C4B 5542  38.817  11.993   7.763
   52POPC   NC3 5543   8.787   3.854   9.702
   52POPC   PO4 5544   8.791   3.326   9.460
   52POPC   GL1 5545   8.914   3.534   9.060
   52POPC   GL2 5546   9.250   3.514   8.932
   52POPC   C1A 5547   8.838   3.408   8.650
   52POPC   D2A 5548   8.904   3.125   8.310
   52POPC   C3A 5549   8.861   3.440   7.991
   52POPC   C4A 5550   8.922   3.620   7.582
   52POPC   C1B 5551   9.367   3.697   8.619
   52POPC   C2B 5552   9.293   3.466   8.289
   52POPC   C3B 5553   9.369   3.549   7.891
   52POPC   C4B 5554   9.344   3.349   7.534
   53POPC   NC3 5555  30.392   5.151   9.611
   53POPC   PO4 5556  31.003   4.895   9.576
   53POPC   GL1 5557  30.743   4.969   9.180
   53POPC   GL2 5558  30.402   5.092   9.125
   53POPC   C1A 5559  30.740   5.163   8.748
   53POPC   D2A 5560  30.891   5.090   8.319
   53POPC   C3A 5561  30.722   5.276   7.946
   53POPC   C4A 5562  30.873   5.206   7.557
   53POPC   C1B 5563  30.285   4.905   8.773
   53POPC   C2B 5564  30.362   5.108   8.406
   53POPC   C3B 5565  30.247   5.090   8.013
   53POPC   C4B 5566  30.393   4.989   7.617
   54POPC   NC3 5567  36.421  28.089   9.585
   54POPC   PO4 5568  35.909  28.487   9.319
   54POPC   GL1 5569  36.186  28.377   9.062
   54POPC   GL2 5570  36.312  28.066   9.094
   54POPC   C1A 5571  36.221  28.346   8.666
   54POPC   D2A 5572  36.459  28.306   8.351
   54POPC   C3A 5573  36.170  28.422   8.063
   54POPC   C4A 5574  36.209  28.272   7.662
   54POPC   C1B 5575  35.910  27.967   8.869
   54POPC   C2B 5576  35.819  28.093   8.437
   54POPC   C3B 5577  36.008  27.959   8.033
   54POPC   C4B 5578  35.744  27.830   7.702
   55POPC   NC3 5579  35.798   1.014   9.431
   55POPC   PO4 5580  36.148   1.503   9.749
   55POPC   GL1 5581  36.080   1.386   9.155
   55POPC   GL2 5582  35.885   1.163   8.975
   55POPC   C1A 5583  36.297   1.256   8.709
   55POPC   D2A 5584  36.654   1.212   8.374
   55POPC   C3A 5585  36.435   1.147   7.996
   55POPC   C4A 5586  36.010   1.254   7.822
   55POPC   C1B 5587  35.798   1.500   8.713
   55POPC   C2B 5588  35.837   1.387   8.304
   55POPC   C3B 5589  35.844   0.958   8.199
   55POPC   C4B 5590  35.748   0.812   7.770
   56POPC   NC3 5591  17.566   7.358   9.548
   56POPC   PO4 5592  17.463   6.662   9.441
   56POPC   GL1 5593  17.536   7.025   9.154
   56POPC   GL2 5594  17.301   7.304   9.025
   56POPC   C1A 5595  17.689   7.188   8.752
   56POPC   D2A 5596  17.451   7.299   8.369
   56POPC   C3A 5597  17.631   7.212   7.976
   56POPC   C4A 5598  17.934   7.494   7.868
   56POPC   C1B 5599  17.021   7.307   8.662
   56POPC   C2B 5600  16.971   7.266   8.203
   56POPC   C3B 5601  17.154   7.512   7.840
   56POPC   C4B 5602  17.106   7.811   7.460
   57POPC   NC3 5603  36.343  26.577   9.842
   57POPC   PO4 5604  35.929  27.040   9.787
   57POPC   GL1 5605  36.132  27.078   9.331
   57POPC   GL2 5606  35.934  26.887   9.095
   57POPC   C1A 5607  36.300  27.135   8.858
   57POPC   D2A 5608  36.326  26.863   8.474
   57POPC   C3A 5609  36.208  27.074   8.074
   57POPC   C4A 5610  36.274  26.931   7.633
   57POPC   C1B 5611  35.804  27.020   8.696
   57POPC   C2B 5612  35.812  26.795   8.316
   57POPC   C3B 5613  35.849  26.750   7.894
   57POPC   C4B 5614  35.707  27.008   7.593
   58POPC   NC3 5615  16.020   2.216   9.511
   58POPC   PO4 5616  16.266   1.566   9.364
   58POPC   GL1 5617  15.930   1.855   9.147
   58POPC   GL2 5618  15.741   2.207   9.107
   58POPC   C1A 5619  15.762   1.876   8.737
   58POPC   D2A 5620  16.106   1.840   8.434
   58POPC   C3A 5621  15.984   1.724   8.038
   58POPC   C4A 5622  15.614   1.623   7.831
   58POPC   C1B 5623  16.075   2.272   8.782
   58POPC   C2B 5624  15.957   2.315   8.329
   58POPC   C3B 5625  16.087   2.225   7.880
   58POPC   C4B 5626  16.236   2.157   7.429
   59POPC   NC3 5627  13.920  21.537   9.586
   59POPC   PO4 5628  13.446  21.192   9.428
   59POPC   GL1 5629  13.637  21.457   9.144
   59POPC   GL2 5630  13.878  21.730   9.101
   59POPC   C1A 5631  13.779  21.339   8.742
   59POPC   D2A 5632  13.631  21.134   8.377
   59POPC   C3A 5633  13.591  21.305   7.976
   59POPC   C4A 5634  13.173  21.269   7.770
   59POPC   C1B 5635  13.557  21.800   8.797
   59POPC   C2B 5636  13.500  21.641   8.437
   59POPC   C3B 5637  13.479  21.782   8.070
   59POPC   C4B 5638  13.775  21.817   7.835
   60POPC   NC3 5639  32.509  33.844   9.603
   60POPC   PO4 5640  31.983  34.067   9.310
   60POPC   GL1 5641  32.178  33.727   9.164
   60POPC   GL2 5642  32.477  33.505   9.220
   60POPC   C1A 5643  32.040  33.615   8.787
   60POPC   D2A 5644  32.268  33.690   8.398
   60POPC   C3A 5645  32.090  33.727   8.041
   60POPC   C4A 5646  31.874  33.720   7.702
   60POPC   C1B 5647  32.560  33.711   8.816
   60POPC   C2B 5648  32.559  34.073   8.523
   60POPC   C3B 5649  32.516  34.053   8.075
   60POPC   C4B 5650  32.494  33.713   7.737
   61POPC   NC3 5651   5.661  25.395   9.428
   61POPC   PO4 5652   6.085  24.836   9.393
   61POPC   GL1 5653   5.941  25.129   9.098
   61POPC   GL2 5654   5.606  25.095   9.021
   61POPC   C1A 5655   5.919  25.453   8.777
   61POPC   D2A 5656   6.068  25.387   8.370
   61POPC   C3A 5657   5.807  25.388   8.031
   61POPC   C4A 5658   5.669  25.249   7.661
   61POPC   C1B 5659   5.810  24.974   8.616
   61POPC   C2B 5660   5.583  24.937   8.229
   61POPC   C3B 5661   5.419  24.851   7.844
   61POPC   C4B 5662   5.193  25.109   7.600
   62POPC   NC3 5663  20.044  32.403   9.517
   62POPC   PO4 5664  19.956  31.780   9.475
   62POPC   GL1 5665  19.758  32.107   9.183
   62POPC   GL2 5666  19.547  32.407   9.276
   62POPC   C1A 5667  19.854  32.071   8.733
   62POPC   D2A 5668  20.163  31.938   8.397
   62POPC   C3A 5669  20.139  31.966   7.927
   62POPC   C4A 5670  19.785  32.046   7.614
   62POPC   C1B 5671  19.689  32.576   8.869
   62POPC   C2B 5672  19.869  32.502   8.454
   62POPC   C3B 5673  19.787  32.327   8.054
   62POPC   C4B 5674  19.756  32.534   7.666
   63POPC   NC3 5675   1.391  16.533   9.530
   63POPC   PO4 5676   1.077  17.116   9.607
   63POPC   GL1 5677   1.141  16.899   9.243
   63POPC   GL2 5678   1.457  16.922   9.124
   63POPC   C1A 5679   1.018  16.966   8.829
   63POPC   D2A 5680   0.961  16.731   8.449
   63POPC   C3A 5681   1.235  16.809   8.115
   63POPC   C4A 5682   1.195  16.665   7.698
   63POPC   C1B 5683   1.614  16.917   8.691
   63POPC   C2B 5684   1.780  16.581   8.412
   63POPC   C3B 5685   1.640  16.452   7.984
   63POPC   C4B 5686   1.643  16.559   7.514
   64POPC   NC3 5687  39.555  22.800   9.367
   64POPC   PO4 5688  39.117  23.306   9.511
   64POPC   GL1 5689  39.100  22.955   9.235
   64POPC   GL2 5690  39.219  23.150   8.997
   64POPC   C1A 5691  39.169  22.665   8.850
   64POPC   D2A 5692  39.103  22.600   8.379
   64POPC   C3A 5693  39.153  22.990   8.094
   64POPC   C4A 5694  39.331  23.145   7.685
   64POPC   C1B 5695  39.344  23.046   8.568
   64POPC   C2B 5696  39.579  22.770   8.276
   64POPC   C3B 5697  39.443  22.635   7.868
   64POPC   C4B 5698  39.525  22.737   7.433
   65POPC   NC3 5699  24.315   6.627   9.543
   65POPC   PO4 5700  24.903   6.303   9.755
   65POPC   GL1 5701  24.734   6.576   9.234
   65POPC   GL2 5702  24.370   6.760   9.078
   65POPC   C1A 5703  24.599   6.467   8.779
   65POPC   D2A 5704  24.603   6.640   8.409
   65POPC   C3A 5705  24.499   6.432   8.065
   65POPC   C4A 5706  24.558   6.590   7.685
   65POPC   C1B 5707  24.189   6.945   8.674
   65POPC   C2B 5708  24.170   6.861   8.190
   65POPC   C3B 5709  24.102   6.980   7.725
   65POPC   C4B 5710  23.922   6.850   7.289
   66POPC   NC3 5711  21.875  16.464   9.799
   66POPC   PO4 5712  22.399  16.881   9.635
   66POPC   GL1 5713  22.213  16.618   9.355
   66POPC   GL2 5714  22.494  16.624   9.159
   66POPC   C1A 5715  22.072  16.659   8.908
   66POPC   D2A 5716  22.239  16.823   8.521
   66POPC   C3A 5717  22.160  16.477   8.201
   66POPC   C4A 5718  21.936  16.521   7.798
   66POPC   C1B 5719  22.552  16.447   8.760
   66POPC   C2B 5720  22.648  16.590   8.352
   66POPC   C3B 5721  22.464  16.829   8.016
   66POPC   C4B 5722  22.440  16.601   7.651
   67POPC   NC3 5723  40.518  38.092   9.382
   67POPC   PO4 5724  40.552  38.661   9.703
   67POPC   GL1 5725  40.841  38.621   9.291
   67POPC   GL2 5726  40.977  38.266   9.255
   67POPC   C1A 5727  40.857  38.773   8.837
   67POPC   D2A 5728  40.724  38.778   8.392
   67POPC   C3A 5729  40.990  38.640   8.076
   67POPC   C4A 5730  41.021  38.735   7.626
   67POPC   C1B 5731  41.025  38.114   8.816
   67POPC   C2B 5732  40.817  38.256   8.437
   67POPC   C3B 5733  40.642  38.295   8.030
   67POPC   C4B 5734  40.906  38.191   7.734
   68POPC   NC3 5735   6.268   3.351   9.792
   68POPC   PO4 5736   6.789   3.738   9.801
   68POPC   GL1 5737   6.674   3.735   9.331
   68POPC   GL2 5738   6.344   3.530   9.302
   68POPC   C1A 5739   6.863   3.717   8.877
   68POPC   D2A 5740   6.847   3.463   8.469
   68POPC   C3A 5741   6.773   3.684   8.064
   68POPC   C4A 5742   6.989   3.802   7.723
   68POPC   C1B 5743   6.359   3.603   8.861
   68POPC   C2B 5744   6.337   3.412   8.464
   68POPC   C3B 5745   6.515   3.243   8.068
   68POPC   C4B 5746   6.401   3.504   7.745
   69POPC   NC3 5747  38.727  23.324   9.760
   69POPC   PO4 5748  38.311  22.861   9.535
   69POPC   GL1 5749  38.318  23.101   9.144
   69POPC   GL2 5750  38.633  22.962   9.067
   69POPC   C1A 5751  38.364  23.143   8.669
   69POPC   D2A 5752  38.498  23.274   8.258
   69POPC   C3A 5753  38.329  23.089   7.883
   69POPC   C4A 5754  38.338  22.670   7.665
   69POPC   C1B 5755  38.834  22.987   8.662
   69POPC   C2B 5756  38.619  22.784   8.347
   69POPC   C3B 5757  38.726  22.755   7.966
   69POPC   C4B 5758  38.814  23.156   7.734
   70POPC   NC3 5759  10.880  38.430   9.736
   70POPC   PO4 5760  10.242  38.153   9.608
   70POPC   GL1 5761  10.402  38.256   9.216
   70POPC   GL2 5762  10.430  38.623   9.133
   70POPC   C1A 5763  10.218  38.241   8.814
   70POPC   D2A 5764  10.388  38.133   8.434
   70POPC   C3A 5765  10.333  38.398   8.099
   70POPC   C4A 5766  10.336  38.561   7.705
   70POPC   C1B 5767  10.543  38.607   8.674
   70POPC   C2B 5768  10.752  38.619   8.267
   70POPC   C3B 5769  10.831  38.525   7.822
   70POPC   C4B 5770  10.741  38.414   7.379
   71POPC   NC3 5771  28.936   0.933   9.384
   71POPC   PO4 5772  29.269   1.481   9.488
   71POPC   GL1 5773  29.263   1.261   9.122
   71POPC   GL2 5774  28.942   1.399   9.021
   71POPC   C1A 5775  29.363   0.996   8.771
   71POPC   D2A 5776  29.185   0.866   8.397
   71POPC   C3A 5777  29.266   1.133   8.038
   71POPC   C4A 5778  29.016   1.413   7.836
   71POPC   C1B 5779  28.754   1.085   8.733
   71POPC   C2B 5780  28.675   0.921   8.307
   71POPC   C3B 5781  28.883   0.797   7.968
   71POPC   C4B 5782  29.065   0.950   7.624
   72POPC   NC3 5783  10.022  25.151   9.572
   72POPC   PO4 5784   9.433  25.544   9.502
   72POPC   GL1 5785   9.625  25.435   9.164
   72POPC   GL2 5786   9.695  25.064   9.166
   72POPC   C1A 5787   9.705  25.558   8.763
   72POPC   D2A 5788   9.578  25.447   8.366
   72POPC   C3A 5789   9.898  25.385   8.089
   72POPC   C4A 5790   9.825  25.344   7.664
   72POPC   C1B 5791   9.752  24.823   8.775
   72POPC   C2B 5792   9.732  24.955   8.338
   72POPC   C3B 5793   9.668  24.927   7.892
   72POPC   C4B 5794   9.556  24.831   7.438
   73POPC   NC3 5795  39.426  26.426   9.423
   73POPC   PO4 5796  39.100  25.812   9.407
   73POPC   GL1 5797  39.253  26.038   9.111
   73POPC   GL2 5798  39.582  25.975   9.149
   73POPC   C1A 5799  39.278  26.036   8.693
   73POPC   D2A 5800  39.261  26.162   8.298
   73POPC   C3A 5801  38.899  26.015   8.102
   73POPC   C4A 5802  38.817  25.788   7.716
   73POPC   C1B 5803  39.680  26.309   8.829
   73POPC   C2B 5804  39.692  26.448   8.394
   73POPC   C3B 5805  39.638  26.251   7.977
   73POPC   C4B 5806  39.271  26.091   7.761
   74POPC   NC3 5807  10.929  27.526   9.413
   74POPC   PO4 5808  11.564  27.695   9.542
   74POPC   GL1 5809  11.461  27.805   9.134
   74POPC   GL2 5810  11.127  27.972   9.175
   74POPC   C1A 5811  11.510  27.644   8.695
   74POPC   D2A 5812  11.634  27.443   8.294
   74POPC   C3A 5813  11.332  27.489   7.960
   74POPC   C4A 5814  11.323  27.715   7.528
   74POPC   C1B 5815  11.029  27.749   8.804
   74POPC   C2B 5816  11.129  27.810   8.350
   74POPC   C3B 5817  10.973  27.836   7.890
   74POPC   C4B 5818  10.825  27.693   7.465
   75POPC   NC3 5819  14.809  23.763   9.568
   75POPC   PO4 5820  15.383  24.109   9.534
   75POPC   GL1 5821  15.162  23.911   9.183
   75POPC   GL2 5822  15.140  23.537   9.196
   75POPC   C1A 5823  15.184  23.796   8.744
   75POPC   D2A 5824  15.225  23.974   8.337
   75POPC   C3A 5825  15.239  23.696   8.016
   75POPC   C4A 5826  15.122  23.812   7.620
   75POPC   C1B 5827  14.929  23.338   8.847
   75POPC   C2B 5828  15.016  23.416   8.412
   75POPC   C3B 5829  14.940  23.278   7.992
   75POPC   C4B 5830  15.090  23.289   7.565
   76POPC   NC3 5831  15.389  24.578   9.549
   76POPC   PO4 5832  14.755  24.988   9.483
   76POPC   GL1 5833  14.917  24.638   9.157
   76POPC   GL2 5834  15.258  24.437   9.094
   76POPC   C1A 5835  14.869  24.310   8.792
   76POPC   D2A 5836  14.830  24.317   8.322
   76POPC   C3A 5837  15.064  24.269   7.903
   76POPC   C4A 5838  15.481  24.185   7.686
   76POPC   C1B 5839  15.225  24.701   8.732
   76POPC   C2B 5840  15.372  24.804   8.312
   76POPC   C3B 5841  15.388  24.667   7.894
   76POPC   C4B 5842  15.295  24.685   7.463
   77POPC   NC3 5843  24.047  33.824   9.562
   77POPC   PO4 5844  24.679  34.022   9.411
   77POPC   GL1 5845  24.320  34.010   9.147
   77POPC   GL2 5846  24.354  33.649   9.114
   77POPC   C1A 5847  24.234  33.981   8.707
   77POPC   D2A 5848  24.454  33.756   8.344
   77POPC   C3A 5849  24.427  33.949   7.943
   77POPC   C4A 5850  24.108  33.749   7.725
   77POPC   C1B 5851  24.705  33.757   8.801
   77POPC   C2B 5852  24.957  33.798   8.402
   77POPC   C3B 5853  24.870  33.624   8.006
   77POPC   C4B 5854  24.486  33.439   7.902
   78POPC   NC3 5855  14.980  13.099   9.486
   78POPC   PO4 5856  14.625  13.696   9.481
   78POPC   GL1 5857  14.204  13.775   9.232
   78POPC   GL2 5858  14.029  13.469   9.141
   78POPC   C1A 5859  14.094  13.813   8.791
   78POPC   D2A 5860  14.362  13.602   8.506
   78POPC   C3A 5861  14.347  13.636   8.050
   78POPC   C4A 5862  14.591  13.828   7.674
   78POPC   C1B 5863  13.946  13.254   8.737
   78POPC   C2B 5864  14.135  13.186   8.316
   78POPC   C3B 5865  13.988  13.283   7.903
   78POPC   C4B 5866  14.179  13.521   7.568
   79POPC   NC3 5867  45.000  26.676   9.353
   79POPC   PO4 5868  44.450  26.994   9.596
   79POPC   GL1 5869  44.541  26.894   9.177
   79POPC   GL2 5870  44.587  26.547   9.114
   79POPC   C1A 5871  44.656  26.932   8.746
   79POPC   D2A 5872  44.423  26.966   8.349
   79POPC   C3A 5873  44.595  27.005   7.934
   79POPC   C4A 5874  44.756  26.802   7.554
   79POPC   C1B 5875  44.880  26.471   8.743
   79POPC   C2B 5876  44.805  26.615   8.359
   79POPC   C3B 5877  44.641  26.509   7.981
   79POPC   C4B 5878  44.588  26.308   7.591
   80POPC   NC3 5879   6.332  23.356   9.427
   80POPC   PO4 5880   6.730  22.838   9.445
   80POPC   GL1 5881   6.609  22.999   9.077
   80POPC   GL2 5882   6.752  23.306   9.109
   80POPC   C1A 5883   6.767  22.953   8.667
   80POPC   D2A 5884   6.603  22.684   8.401
   80POPC   C3A 5885   6.761  22.826   8.084
   80POPC   C4A 5886   6.716  22.812   7.672
   80POPC   C1B 5887   6.589  23.463   8.709
   80POPC   C2B 5888   6.612  23.309   8.288
   80POPC   C3B 5889   6.390  23.271   7.889
   80POPC   C4B 5890   6.533  23.246   7.458
   81POPC   NC3 5891   1.213  21.301   9.661
   81POPC   PO4 5892   1.356  21.925   9.561
   81POPC   GL1 5893   1.434  21.576   9.222
   81POPC   GL2 5894   1.392  21.182   9.179
   81POPC   C1A 5895   1.352  21.630   8.757
   81POPC   D2A 5896   1.240  21.805   8.321
   81POPC   C3A 5897   1.252  21.507   7.982
   81POPC   C4A 5898   1.549  21.195   7.807
   81POPC   C1B 5899   1.001  21.177   8.936
   81POPC   C2B 5900   0.840  21.212   8.515
   81POPC   C3B 5901   0.863  21.128   8.084
   81POPC   C4B 5902   1.037  21.095   7.681
   82POPC   NC3 5903  31.261  32.818   9.486
   82POPC   PO4 5904  31.471  32.190   9.673
   82POPC   GL1 5905  31.431  32.352   9.298
   82POPC   GL2 5906  31.774  32.439   9.304
   82POPC   C1A 5907  31.255  32.321   8.881
   82POPC   D2A 5908  31.370  32.061   8.530
   82POPC   C3A 5909  31.345  32.218   8.115
   82POPC   C4A 5910  31.408  32.035   7.724
   82POPC   C1B 5911  31.776  32.281   8.890
   82POPC   C2B 5912  31.674  32.490   8.515
   82POPC   C3B 5913  31.802  32.455   8.101
   82POPC   C4B 5914  31.687  32.479   7.685
   83POPC   NC3 5915  14.692   5.952   9.541
   83POPC   PO4 5916  15.299   5.626   9.358
   83POPC   GL1 5917  15.020   5.893   9.161
   83POPC   GL2 5918  14.802   5.598   9.165
   83POPC   C1A 5919  15.065   6.118   8.789
   83POPC   D2A 5920  15.000   5.947   8.408
   83POPC   C3A 5921  15.323   5.936   8.114
   83POPC   C4A 5922  15.115   6.089   7.764
   83POPC   C1B 5923  14.992   5.559   8.771
   83POPC   C2B 5924  15.142   5.474   8.380
   83POPC   C3B 5925  14.995   5.586   7.972
   83POPC   C4B 5926  15.337   5.642   7.691
   84POPC   NC3 5927  30.810  25.625   9.475
   84POPC   PO4 5928  30.631  24.954   9.415
   84POPC   GL1 5929  30.699  25.268   9.102
   84POPC   GL2 5930  30.423  25.504   9.111
   84POPC   C1A 5931  30.751  25.359   8.649
   84POPC   D2A 5932  30.957  25.477   8.246
   84POPC   C3A 5933  30.789  25.342   7.857
   84POPC   C4A 5934  30.671  25.036   7.553
   84POPC   C1B 5935  30.215  25.445   8.699
   84POPC   C2B 5936  30.385  25.509   8.303
   84POPC   C3B 5937  30.432  25.718   7.929
   84POPC   C4B 5938  30.416  25.506   7.551
   85POPC   NC3 5939  40.864  28.898   9.430
   85POPC   PO4 5940  40.592  29.490   9.409
   85POPC   GL1 5941  40.652  29.206   9.094
   85POPC   GL2 5942  40.998  29.234   9.043
   85POPC   C1A 5943  40.733  28.926   8.730
   85POPC   D2A 5944  40.943  28.973   8.301
   85POPC   C3A 5945  40.694  28.799   7.917
   85POPC   C4A 5946  40.717  28.825   7.453
   85POPC   C1B 5947  40.904  29.395   8.676
   85POPC   C2B 5948  40.675  29.633   8.424
   85POPC   C3B 5949  40.680  29.439   8.020
   85POPC   C4B 5950  41.025  29.188   7.834
   86POPC   NC3 5951  29.649  32.665   9.309
   86POPC   PO4 5952  29.242  33.189   9.606
   86POPC   GL1 5953  29.158  33.071   9.182
   86POPC   GL2 5954  29.143  32.687   9.188
   86POPC   C1A 5955  29.223  33.265   8.763
   86POPC   D2A 5956  29.335  33.072   8.369
   86POPC   C3A 5957  29.175  33.314   8.014
   86POPC   C4A 5958  29.354  33.384   7.615
   86POPC   C1B 5959  29.170  32.724   8.744
   86POPC   C2B 5960  29.001  32.681   8.319
   86POPC   C3B 5961  29.183  32.764   7.935
   86POPC   C4B 5962  29.363  32.652   7.535
   87POPC   NC3 5963  20.338  31.596   9.307
   87POPC   PO4 5964  20.639  31.064   9.620
   87POPC   GL1 5965  20.548  31.166   9.121
   87POPC   GL2 5966  20.730  31.485   8.984
   87POPC   C1A 5967  20.474  31.175   8.656
   87POPC   D2A 5968  20.533  31.534   8.369
   87POPC   C3A 5969  20.533  31.411   7.956
   87POPC   C4A 5970  20.847  31.315   7.719
   87POPC   C1B 5971  20.548  31.871   8.755
   87POPC   C2B 5972  20.691  32.040   8.362
   87POPC   C3B 5973  20.828  31.835   8.003
   87POPC   C4B 5974  20.586  31.791   7.623
   88POPC   NC3 5975   6.205   8.751   9.471
   88POPC   PO4 5976   5.528   8.690   9.358
   88POPC   GL1 5977   5.866   8.825   9.083
   88POPC   GL2 5978   5.981   9.137   9.179
   88POPC   C1A 5979   5.988   8.772   8.655
   88POPC   D2A 5980   5.748   8.763   8.301
   88POPC   C3A 5981   5.904   8.655   7.922
   88POPC   C4A 5982   5.627   8.620   7.575
   88POPC   C1B 5983   6.162   9.239   8.771
   88POPC   C2B 5984   6.165   9.115   8.301
   88POPC   C3B 5985   5.932   9.167   7.899
   88POPC   C4B 5986   5.774   9.254   7.426
   89POPC   NC3 5987  24.080  12.316   9.326
   89POPC   PO4 5988  23.488  11.881   9.537
   89POPC   GL1 5989  23.699  11.960   9.176
   89POPC   GL2 5990  23.550  12.245   9.026
   89POPC   C1A 5991  23.923  11.936   8.790
   89POPC   D2A 5992  23.976  12.083   8.365
   89POPC   C3A 5993  23.617  12.195   8.113
   89POPC   C4A 5994  23.552  12.084   7.682
   89POPC   C1B 5995  23.846  12.426   8.735
   89POPC   C2B 5996  23.821  12.629   8.387
   89POPC   C3B 5997  24.048  12.512   8.052
   89POPC   C4B 5998  23.800  12.520   7.705
   90POPC   NC3 5999  23.631  36.366   9.568
   90POPC   PO4 6000  23.836  37.022   9.569
   90POPC   GL1 6001  23.676  36.748   9.237
   90POPC   GL2 6002  23.957  36.751   9.044
   90POPC   C1A 6003  23.548  36.828   8.791
   90POPC   D2A 6004  23.874  36.975   8.494
   90POPC   C3A 6005  23.737  37.075   8.054
   90POPC   C4A 6006  23.486  36.845   7.780
   90POPC   C1B 6007  24.129  36.552   8.684
   90POPC   C2B 6008  24.164  36.578   8.256
   90POPC   C3B 6009  23.909  36.584   7.934
   90POPC   C4B 6010  24.090  36.480   7.579
   91POPC   NC3 6011   1.535  39.713   9.325
   91POPC   PO4 6012   1.021  40.169   9.499
   91POPC   GL1 6013   1.102  40.027   9.110
   91POPC   GL2 6014   1.444  40.150   9.075
   91POPC   C1A 6015   0.933  39.983   8.684
   91POPC   D2A 6016   1.143  39.737   8.359
   91POPC   C3A 6017   1.216  39.913   7.979
   91POPC   C4A 6018   1.107  40.011   7.591
   91POPC   C1B 6019   1.319  40.308   8.734
   91POPC   C2B 6020   1.392  40.186   8.372
   91POPC   C3B 6021   1.547  40.293   8.010
   91POPC   C4B 6022   1.598  40.097   7.618
   92POPC   NC3 6023   1.503   4.557   9.752
   92POPC   PO4 6024   1.277   5.180   9.453
   92POPC   GL1 6025   1.127   4.956   9.064
   92POPC   GL2 6026   0.801   4.772   9.084
   92POPC   C1A 6027   1.208   4.873   8.610
   92POPC   D2A 6028   1.588   4.807   8.377
   92POPC   C3A 6029   1.472   4.741   7.965
   92POPC   C4A 6030   1.265   5.000   7.654
   92POPC   C1B 6031   0.752   5.060   8.713
   92POPC   C2B 6032   0.875   5.079   8.263
   92POPC   C3B 6033   0.985   5.391   7.997
   92POPC   C4B 6034   0.941   5.435   7.583
   93POPC   NC3 6035   9.738   3.178   9.461
   93POPC   PO4 6036   9.839   2.479   9.588
   93POPC   GL1 6037   9.844   2.725   9.203
   93POPC   GL2 6038   9.489   2.829   9.151
   93POPC   C1A 6039   9.785   2.646   8.764
   93POPC   D2A 6040   9.986   2.675   8.379
   93POPC   C3A 6041   9.731   2.605   8.006
   93POPC   C4A 6042   9.559   2.377   7.668
   93POPC   C1B 6043   9.554   3.103   8.787
   93POPC   C2B 6044   9.679   3.096   8.370
   93POPC   C3B 6045   9.480   3.061   7.987
   93POPC   C4B 6046   9.460   2.864   7.581
   94POPC   NC3 6047   9.760  34.021   9.496
   94POPC   PO4 6048   9.706  33.354   9.413
   94POPC   GL1 6049   9.893  33.623   9.115
   94POPC   GL2 6050   9.703  33.931   8.996
   94POPC   C1A 6051  10.008  33.671   8.694
   94POPC   D2A 6052   9.680  33.886   8.434
   94POPC   C3A 6053   9.498  33.728   8.066
   94POPC   C4A 6054   9.606  33.666   7.647
   94POPC   C1B 6055   9.976  34.188   8.723
   94POPC   C2B 6056  10.078  34.221   8.305
   94POPC   C3B 6057   9.990  33.886   7.984
   94POPC   C4B 6058  10.293  33.680   7.728
   95POPC   NC3 6059  23.373  11.438   9.409
   95POPC   PO4 6060  22.734  11.509   9.691
   95POPC   GL1 6061  22.812  11.293   9.254
   95POPC   GL2 6062  22.983  11.485   9.103
   95POPC   C1A 6063  22.701  11.200   8.774
   95POPC   D2A 6064  22.792  11.434   8.357
   95POPC   C3A 6065  22.854  11.189   7.937
   95POPC   C4A 6066  22.823  11.161   7.424
   95POPC   C1B 6067  23.164  11.377   8.718
   95POPC   C2B 6068  23.461  11.186   8.451
   95POPC   C3B 6069  23.355  11.305   8.038
   95POPC   C4B 6070  23.268  11.114   7.645
   96POPC   NC3 6071  37.073  44.130   9.449
   96POPC   PO4 6072  36.941  43.441   9.575
   96POPC   GL1 6073  36.891  43.708   9.174
   96POPC   GL2 6074  36.700  44.040   9.087
   96POPC   C1A 6075  36.945  43.664   8.721
   96POPC   D2A 6076  36.740  43.664   8.299
   96POPC   C3A 6077  37.004  43.515   7.952
   96POPC   C4A 6078  37.043  43.721   7.549
   96POPC   C1B 6079  37.050  44.189   8.794
   96POPC   C2B 6080  37.046  44.052   8.390
   96POPC   C3B 6081  36.924  44.053   7.969
   96POPC   C4B 6082  36.622  44.183   7.702
   97POPC   NC3 6083  11.448  41.032   9.373
   97POPC   PO4 6084  11.135  40.472   9.452
   97POPC   GL1 6085  10.937  40.591   9.068
   97POPC   GL2 6086  11.166  40.873   8.995
   97POPC   C1A 6087  11.031  40.574   8.617
   97POPC   D2A 6088  11.385  40.850   8.499
   97POPC   C3A 6089  11.403  40.969   8.110
   97POPC   C4A 6090  11.155  40.748   7.898
   97POPC   C1B 6091  11.447  40.531   8.893
   97POPC   C2B 6092  11.460  40.333   8.469
   97POPC   C3B 6093  11.705  40.493   8.127
   97POPC   C4B 6094  11.630  40.683   7.737
   98POPC   NC3 6095   6.337  30.903   9.572
   98POPC   PO4 6096   5.636  30.872   9.495
   98POPC   GL1 6097   5.997  30.807   9.183
   98POPC   GL2 6098   6.255  31.075   9.106
   98POPC   C1A 6099   6.026  30.590   8.776
   98POPC   D2A 6100   5.806  30.396   8.416
   98POPC   C3A 6101   5.912  30.523   7.983
   98POPC   C4A 6102   6.278  30.431   7.750
   98POPC   C1B 6103   6.081  31.086   8.710
   98POPC   C2B 6104   5.914  30.929   8.357
   98POPC   C3B 6105   6.078  30.999   7.977
   98POPC   C4B 6106   6.258  30.908   7.596
   99POPC   NC3 6107  25.598  15.514   9.527
   99POPC   PO4 6108  25.337  14.890   9.476
   99POPC   GL1 6109  25.216  15.014   9.097
   99POPC   GL2 6110  25.278  15.378   9.088
   99POPC   C1A 6111  25.328  15.049   8.685
   99POPC   D2A 6112  25.491  15.035   8.283
   99POPC   C3A 6113  25.192  14.910   7.982
   99POPC   C4A 6114  25.053  15.084   7.596
   99POPC   C1B 6115  25.106  15.511   8.666
   99POPC   C2B 6116  25.288  15.516   8.255
   99POPC   C3B 6117  25.433  15.371   7.848
   99POPC   C4B 6118  25.330  15.486   7.421
  100POPC   NC3 6119  39.508   6.021   9.545
  100POPC   PO4 6120  39.144   5.436   9.596
  100POPC   GL1 6121  39.180   5.717   9.233
  100POPC   GL2 6122  39.079   6.070   9.254
  100POPC   C1A 6123  39.067   5.754   8.806
  100POPC   D2A 6124  39.220   5.544   8.463
  100POPC   C3A 6125  39.155   5.783   8.089
  100POPC   C4A 6126  39.220   5.947   7.674
  100POPC   C1B 6127  39.372   6.134   8.914
  100POPC   C2B 6128  39.337   6.071   8.476
  100POPC   C3B 6129  39.607   6.000   8.120
  100POPC   C4B 6130  39.646   6.241   7.744
  101POPC   NC3 6131  16.282   6.688   9.558
  101POPC   PO4 6132  15.753   6.340   9.421
  101POPC   GL1 6133  16.020   6.559   9.135
  101POPC   GL2 6134  15.784   6.756   8.995
  101POPC   C1A 6135  16.133   6.461   8.713
  101POPC   D2A 6136  15.823   6.663   8.440
  101POPC   C3A 6137  15.858   6.731   7.993
  101POPC   C4A 6138  16.173   6.704   7.654
  101POPC   C1B 6139  15.512   6.448   8.782
  101POPC   C2B 6140  15.404   6.377   8.331
  101POPC   C3B 6141  15.395   6.518   7.870
  101POPC   C4B 6142  15.694   6.609   7.491
  102POPC   NC3 6143  37.928  23.108   9.493
  102POPC   PO4 6144  37.327  23.106   9.613
  102POPC   GL1 6145  37.516  23.114   9.171
  102POPC   GL2 6146  37.739  22.809   9.133
  102POPC   C1A 6147  37.522  22.986   8.716
  102POPC   D2A 6148  37.654  23.062   8.301
  102POPC   C3A 6149  37.414  23.151   7.948
  102POPC   C4A 6150  37.307  23.444   7.611
  102POPC   C1B 6151  37.996  22.808   8.738
  102POPC   C2B 6152  38.110  22.861   8.291
  102POPC   C3B 6153  37.884  22.819   7.880
  102POPC   C4B 6154  37.906  22.646   7.432
  103POPC   NC3 6155  38.642  17.282   9.572
  103POPC   PO4 6156  38.067  17.609   9.539
  103POPC   GL1 6157  38.333  17.721   9.212
  103POPC   GL2 6158  38.466  17.434   9.108
  103POPC   C1A 6159  38.331  17.837   8.769
  103POPC   D2A 6160  38.436  17.564   8.421
  103POPC   C3A 6161  38.443  17.711   7.996
  103POPC   C4A 6162  38.500  17.529   7.569
  103POPC   C1B 6163  38.760  17.168   8.919
  103POPC   C2B 6164  38.754  17.102   8.500
  103POPC   C3B 6165  38.680  17.258   8.091
  103POPC   C4B 6166  38.766  17.090   7.711
  104POPC   NC3 6167  38.339  12.954   9.674
  104POPC   PO4 6168  38.883  13.366   9.725
  104POPC   GL1 6169  38.652  13.115   9.284
  104POPC   GL2 6170  38.356  12.849   9.179
  104POPC   C1A 6171  38.449  13.163   8.817
  104POPC   D2A 6172  38.269  13.102   8.419
  104POPC   C3A 6173  38.401  13.022   8.014
  104POPC   C4A 6174  38.405  12.884   7.581
  104POPC   C1B 6175  38.215  12.688   8.736
  104POPC   C2B 6176  38.077  12.630   8.287
  104POPC   C3B 6177  37.859  12.483   7.955
  104POPC   C4B 6178  38.017  12.524   7.553
  105POPC   NC3 6179  34.077  15.759   9.472
  105POPC   PO4 6180  33.617  16.188   9.755
  105POPC   GL1 6181  33.723  16.155   9.271
  105POPC   GL2 6182  33.700  15.832   9.141
  105POPC   C1A 6183  33.919  16.160   8.818
  105POPC   D2A 6184  33.711  16.200   8.401
  105POPC   C3A 6185  33.731  15.914   8.053
  105POPC   C4A 6186  34.083  15.839   7.784
  105POPC   C1B 6187  33.532  15.832   8.706
  105POPC   C2B 6188  33.553  15.561   8.385
  105POPC   C3B 6189  33.393  15.513   7.971
  105POPC   C4B 6190  33.630  15.641   7.632
  106POPC   NC3 6191  30.635   8.310   9.618
  106POPC   PO4 6192  30.302   7.787   9.326
  106POPC   GL1 6193  30.451   8.227   9.110
  106POPC   GL2 6194  30.764   8.399   9.133
  106POPC   C1A 6195  30.515   8.388   8.663
  106POPC   D2A 6196  30.402   8.455   8.246
  106POPC   C3A 6197  30.656   8.317   7.904
  106POPC   C4A 6198  30.860   7.953   7.735
  106POPC   C1B 6199  30.999   8.444   8.753
  106POPC   C2B 6200  30.932   8.543   8.302
  106POPC   C3B 6201  31.176   8.370   7.926
  106POPC   C4B 6202  31.439   8.169   7.596
  107POPC   NC3 6203   3.692  21.849   9.540
  107POPC   PO4 6204   3.478  21.272   9.386
  107POPC   GL1 6205   3.590  21.563   9.093
  107POPC   GL2 6206   3.266  21.662   9.044
  107POPC   C1A 6207   3.562  21.491   8.640
  107POPC   D2A 6208   3.582  21.175   8.346
  107POPC   C3A 6209   3.790  21.262   7.983
  107POPC   C4A 6210   3.643  21.639   7.925
  107POPC   C1B 6211   3.187  21.211   8.829
  107POPC   C2B 6212   3.076  20.951   8.501
  107POPC   C3B 6213   3.233  20.900   8.109
  107POPC   C4B 6214   3.274  21.241   7.805
  108POPC   NC3 6215  14.192   1.737   9.513
  108POPC   PO4 6216  14.565   2.308   9.364
  108POPC   GL1 6217  14.550   1.931   9.169
  108POPC   GL2 6218  14.222   1.946   9.005
  108POPC   C1A 6219  14.728   1.798   8.798
  108POPC   D2A 6220  14.488   1.849   8.428
  108POPC   C3A 6221  14.697   1.866   8.038
  108POPC   C4A 6222  14.454   1.969   7.662
  108POPC   C1B 6223  14.234   2.273   8.654
  108POPC   C2B 6224  13.993   2.376   8.287
  108POPC   C3B 6225  14.035   2.149   7.921
  108POPC   C4B 6226  14.018   2.301   7.505
  109POPC   NC3 6227  28.255  12.330   9.600
  109POPC   PO4 6228  28.543  11.640   9.542
  109POPC   GL1 6229  28.420  11.945   9.220
  109POPC   GL2 6230  28.536  12.252   9.183
  109POPC   C1A 6231  28.189  12.058   8.860
  109POPC   D2A 6232  28.130  12.113   8.443
  109POPC   C3A 6233  28.428  12.018   8.116
  109POPC   C4A 6234  28.223  11.798   7.815
  109POPC   C1B 6235  28.494  12.493   8.825
  109POPC   C2B 6236  28.504  12.464   8.391
  109POPC   C3B 6237  28.436  12.510   7.971
  109POPC   C4B 6238  28.208  12.297   7.658
  110POPC   NC3 6239  27.199  35.251   9.444
  110POPC   PO4 6240  26.557  35.489   9.547
  110POPC   GL1 6241  26.792  35.403   9.134
  110POPC   GL2 6242  27.054  35.623   9.047
  110POPC   C1A 6243  26.916  35.336   8.665
  110POPC   D2A 6244  26.862  35.082   8.303
  110POPC   C3A 6245  26.667  35.143   7.914
  110POPC   C4A 6246  26.832  35.177   7.458
  110POPC   C1B 6247  27.331  35.673   8.698
  110POPC   C2B 6248  27.254  35.520   8.308
  110POPC   C3B 6249  26.854  35.569   8.161
  110POPC   C4B 6250  26.865  35.583   7.775
  111POPC   NC3 6251   6.829  38.133   9.432
  111POPC   PO4 6252   6.457  37.566   9.412
  111POPC   GL1 6253   6.666  37.750   9.069
  111POPC   GL2 6254   6.494  38.090   9.028
  111POPC   C1A 6255   6.722  37.522   8.663
  111POPC   D2A 6256   6.846  37.364   8.251
  111POPC   C3A 6257   6.734  37.663   7.904
  111POPC   C4A 6258   6.298  37.568   7.763
  111POPC   C1B 6259   6.292  37.816   8.714
  111POPC   C2B 6260   6.366  37.728   8.272
  111POPC   C3B 6261   6.374  38.036   7.914
  111POPC   C4B 6262   6.475  37.955   7.446
  112POPC   NC3 6263  13.944   2.683   9.723
  112POPC   PO4 6264  13.340   2.551   9.533
  112POPC   GL1 6265  13.567   2.873   9.278
  112POPC   GL2 6266  13.867   2.842   9.111
  112POPC   C1A 6267  13.427   2.917   8.856
  112POPC   D2A 6268  13.308   2.987   8.423
  112POPC   C3A 6269  13.438   2.703   8.118
  112POPC   C4A 6270  13.495   2.806   7.703
  112POPC   C1B 6271  13.824   2.656   8.693
  112POPC   C2B 6272  13.846   2.901   8.318
  112POPC   C3B 6273  13.947   2.721   7.907
  112POPC   C4B 6274  13.949   2.812   7.471
  113POPC   NC3 6275  15.678  21.730   9.479
  113POPC   PO4 6276  15.092  21.307   9.522
  113POPC   GL1 6277  15.110  21.354   9.093
  113POPC   GL2 6278  14.791  21.418   9.077
  113POPC   C1A 6279  15.238  21.419   8.661
  113POPC   D2A 6280  15.431  21.268   8.278
  113POPC   C3A 6281  15.211  21.290   7.875
  113POPC   C4A 6282  15.261  21.331   7.429
  113POPC   C1B 6283  14.734  21.481   8.652
  113POPC   C2B 6284  14.910  21.498   8.247
  113POPC   C3B 6285  14.696  21.387   7.882
  113POPC   C4B 6286  14.776  21.240   7.513
  114POPC   NC3 6287   4.417  42.200   9.484
  114POPC   PO4 6288   4.129  42.725   9.586
  114POPC   GL1 6289   4.050  42.449   9.217
  114POPC   GL2 6290   4.007  42.047   9.218
  114POPC   C1A 6291   4.323  42.319   8.875
  114POPC   D2A 6292   4.546  42.496   8.561
  114POPC   C3A 6293   4.425  42.303   8.201
  114POPC   C4A 6294   4.335  42.533   7.877
  114POPC   C1B 6295   3.887  42.051   8.788
  114POPC   C2B 6296   4.030  41.992   8.339
  114POPC   C3B 6297   4.073  42.085   7.865
  114POPC   C4B 6298   4.190  41.927   7.459
  115POPC   NC3 6299   7.690  37.424   9.476
  115POPC   PO4 6300   7.260  37.957   9.398
  115POPC   GL1 6301   7.370  37.596   9.102
  115POPC   GL2 6302   7.714  37.435   8.961
  115POPC   C1A 6303   7.242  37.511   8.693
  115POPC   D2A 6304   7.465  37.449   8.330
  115POPC   C3A 6305   7.245  37.467   7.952
  115POPC   C4A 6306   7.559  37.529   7.679
  115POPC   C1B 6307   7.679  37.802   8.678
  115POPC   C2B 6308   7.436  38.006   8.326
  115POPC   C3B 6309   7.339  37.969   7.879
  115POPC   C4B 6310   7.474  37.950   7.414
  116POPC   NC3 6311  35.987   0.276   9.411
  116POPC   PO4 6312  36.323   0.950   9.355
  116POPC   GL1 6313  36.062   0.679   9.097
  116POPC   GL2 6314  36.177   0.332   8.957
  116POPC   C1A 6315  36.005   0.759   8.679
  116POPC   D2A 6316  36.329   0.829   8.400
  116POPC   C3A 6317  36.222   0.681   8.037
  116POPC   C4A 6318  36.052   0.348   7.853
  116POPC   C1B 6319  36.363   0.349   8.563
  116POPC   C2B 6320  36.538   0.324   8.144
  116POPC   C3B 6321  36.445   0.041   7.768
  116POPC   C4B 6322  36.587   0.076   7.338
  117POPC   NC3 6323  23.442  15.432   9.502
  117POPC   PO4 6324  24.134  15.319   9.441
  117POPC   GL1 6325  23.797  15.280   9.137
  117POPC   GL2 6326  23.462  15.092   9.093
  117POPC   C1A 6327  23.829  15.166   8.727
  117POPC   D2A 6328  23.702  14.924   8.414
  117POPC   C3A 6329  23.569  15.098   8.051
  117POPC   C4A 6330  23.459  14.886   7.697
  117POPC   C1B 6331  23.361  15.387   8.818
  117POPC   C2B 6332  23.525  15.451   8.420
  117POPC   C3B 6333  23.350  15.595   8.028
  117POPC   C4B 6334  23.153  15.295   7.778
  118POPC   NC3 6335  10.207  37.676   9.647
  118POPC   PO4 6336  10.769  37.294   9.574
  118POPC   GL1 6337  10.503  37.557   9.253
  118POPC   GL2 6338  10.207  37.393   9.177
  118POPC   C1A 6339  10.365  37.756   8.834
  118POPC   D2A 6340  10.564  37.652   8.411
  118POPC   C3A 6341  10.378  37.802   8.037
  118POPC   C4A 6342  10.532  38.087   7.734
  118POPC   C1B 6343  10.521  37.279   8.828
  118POPC   C2B 6344  10.569  37.145   8.395
  118POPC   C3B 6345  10.466  37.301   8.002
  118POPC   C4B 6346  10.688  37.296   7.634
  119POPC   NC3 6347  44.013  28.128   9.253
  119POPC   PO4 6348  43.901  27.432   9.491
  119POPC   GL1 6349  44.054  27.648   9.143
  119POPC   GL2 6350  43.696  27.803   9.049
  119POPC   C1A 6351  44.248  27.803   8.750
  119POPC   D2A 6352  44.408  27.780   8.323
  119POPC   C3A 6353  44.153  27.768   7.985
  119POPC   C4A 6354  43.990  28.017   7.712
  119POPC   C1B 6355  43.779  27.475   8.770
  119POPC   C2B 6356  43.886  27.616   8.395
  119POPC   C3B 6357  43.645  27.665   8.050
  119POPC   C4B 6358  43.803  27.552   7.674
  120POPC   NC3 6359   1.552  17.291   9.533
  120POPC   PO4 6360   1.088  17.817   9.670
  120POPC   GL1 6361   1.184  17.543   9.286
  120POPC   GL2 6362   0.925  17.374   9.186
  120POPC   C1A 6363   1.382  17.362   8.889
  120POPC   D2A 6364   1.440  17.518   8.452
  120POPC   C3A 6365   1.337  17.402   8.019
  120POPC   C4A 6366   1.449  17.095   7.736
  120POPC   C1B 6367   0.925  17.497   8.750
  120POPC   C2B 6368   1.019  17.242   8.392
  120POPC   C3B 6369   0.836  17.167   8.015
  120POPC   C4B 6370   0.798  17.510   7.719
  121POPC   NC3 6371  32.254   0.361   9.580
  121POPC   PO4 6372  32.332   1.031   9.615
  121POPC   GL1 6373  32.254   0.765   9.220
  121POPC   GL2 6374  32.243   0.394   9.094
  121POPC   C1A 6375  32.169   0.762   8.770
  121POPC   D2A 6376  32.255   0.533   8.383
  121POPC   C3A 6377  32.143   0.638   7.999
  121POPC   C4A 6378  32.177   0.618   7.577
  121POPC   C1B 6379  32.138   0.188   8.737
  121POPC   C2B 6380  31.972   0.101   8.289
  121POPC   C3B 6381  31.955   0.201   7.832
  121POPC   C4B 6382  32.223   0.081   7.461
  122POPC   NC3 6383   4.053  12.595   9.380
  122POPC   PO4 6384   4.515  13.088   9.600
  122POPC   GL1 6385   4.518  12.841   9.198
  122POPC   GL2 6386   4.217  12.884   9.017
  122POPC   C1A 6387   4.615  12.908   8.735
  122POPC   D2A 6388   4.573  13.112   8.334
  122POPC   C3A 6389   4.601  12.851   7.978
  122POPC   C4A 6390   4.319  12.709   7.701
  122POPC   C1B 6391   4.001  12.846   8.663
  122POPC   C2B 6392   4.087  12.973   8.272
  122POPC   C3B 6393   3.892  12.873   7.961
  122POPC   C4B 6394   3.901  12.961   7.574
  123POPC   NC3 6395   1.156   1.814   9.385
  123POPC   PO4 6396   1.141   1.122   9.522
  123POPC   GL1 6397   1.188   1.171   9.094
  123POPC   GL2 6398   0.872   1.351   9.051
  123POPC   C1A 6399   1.514   1.225   8.745
  123POPC   D2A 6400   1.721   1.202   8.329
  123POPC   C3A 6401   1.477   1.210   7.936
  123POPC   C4A 6402   1.201   0.845   7.737
  123POPC   C1B 6403   1.116   1.579   8.756
  123POPC   C2B 6404   1.238   1.459   8.351
  123POPC   C3B 6405   1.009   1.124   8.121
  123POPC   C4B 6406   0.968   1.299   7.730
  124POPC   NC3 6407  16.153   5.008   9.407
  124POPC   PO4 6408  15.577   5.008   9.819
  124POPC   GL1 6409  15.654   5.108   9.329
  124POPC   GL2 6410  15.817   5.421   9.187
  124POPC   C1A 6411  15.742   5.035   8.840
  124POPC   D2A 6412  15.844   4.736   8.459
  124POPC   C3A 6413  15.688   4.819   8.015
  124POPC   C4A 6414  15.865   4.834   7.585
  124POPC   C1B 6415  16.028   5.476   8.759
  124POPC   C2B 6416  16.013   5.234   8.383
  124POPC   C3B 6417  16.055   5.166   7.944
  124POPC   C4B 6418  16.151   5.390   7.526
  125POPC   NC3 6419   9.559  28.131   9.650
  125POPC   PO4 6420   9.653  28.783   9.579
  125POPC   GL1 6421   9.724  28.455   9.234
  125POPC   GL2 6422   9.395  28.257   9.193
  125POPC   C1A 6423   9.835  28.365   8.772
  125POPC   D2A 6424   9.751  28.593   8.364
  125POPC   C3A 6425   9.845  28.420   7.949
  125POPC   C4A 6426  10.117  28.089   7.788
  125POPC   C1B 6427   9.328  28.406   8.798
  125POPC   C2B 6428   9.451  28.187   8.448
  125POPC   C3B 6429   9.390  28.230   8.065
  125POPC   C4B 6430   9.490  28.067   7.691
  126POPC   NC3 6431  21.598  35.185   9.623
  126POPC   PO4 6432  20.933  35.367   9.599
  126POPC   GL1 6433  21.254  35.257   9.253
  126POPC   GL2 6434  21.538  35.462   9.192
  126POPC   C1A 6435  21.251  35.065   8.826
  126POPC   D2A 6436  21.441  35.059   8.399
  126POPC   C3A 6437  21.227  35.245   8.055
  126POPC   C4A 6438  21.162  35.086   7.644
  126POPC   C1B 6439  21.658  35.355   8.766
  126POPC   C2B 6440  21.703  35.514   8.316
  126POPC   C3B 6441  21.614  35.548   7.871
  126POPC   C4B 6442  21.519  35.842   7.487
  127POPC   NC3 6443  25.935  30.163   9.449
  127POPC   PO4 6444  26.289  29.628   9.194
  127POPC   GL1 6445  26.187  29.981   8.976
  127POPC   GL2 6446  26.267  30.275   9.086
  127POPC   C1A 6447  26.235  29.998   8.550
  127POPC   D2A 6448  26.205  29.622   8.370
  127POPC   C3A 6449  26.153  29.720   7.973
  127POPC   C4A 6450  25.986  29.521   7.638
  127POPC   C1B 6451  26.039  30.418   8.737
  127POPC   C2B 6452  25.897  30.356   8.300
  127POPC   C3B 6453  25.959  30.189   7.896
  127POPC   C4B 6454  26.138  30.363   7.540
  128POPC   NC3 6455   6.636   4.168   9.702
  128POPC   PO4 6456   6.409   4.444   9.204
  128POPC   GL1 6457   6.772   4.429   8.989
  128POPC   GL2 6458   7.010   4.663   9.124
  128POPC   C1A 6459   6.817   4.176   8.626
  128POPC   D2A 6460   6.537   3.898   8.445
  128POPC   C3A 6461   6.308   4.091   8.096
  128POPC   C4A 6462   6.467   4.005   7.696
  128POPC   C1B 6463   7.146   4.585   8.677
  128POPC   C2B 6464   7.180   4.358   8.294
  128POPC   C3B 6465   6.835   4.205   8.057
  128POPC   C4B 6466   6.654   4.466   7.738
  129POPC   NC3 6467  35.449  11.308   9.511
  129POPC   PO4 6468  35.416  11.935   9.359
  129POPC   GL1 6469  35.362  11.560   9.078
  129POPC   GL2 6470  35.617  11.282   9.022
  129POPC   C1A 6471  35.158  11.413   8.724
  129POPC   D2A 6472  35.153  11.169   8.345
  129POPC   C3A 6473  35.142  11.370   7.945
  129POPC   C4A 6474  35.256  11.442   7.512
  129POPC   C1B 6475  35.636  11.299   8.571
  129POPC   C2B 6476  35.656  11.308   8.132
  129POPC   C3B 6477  35.555  11.108   7.759
  129POPC   C4B 6478  35.614  11.130   7.294
  130POPC   NC3 6479  41.286  22.236   9.611
  130POPC   PO4 6480  41.913  22.052   9.608
  130POPC   GL1 6481  41.625  22.044   9.259
  130POPC   GL2 6482  41.537  22.388   9.142
  130POPC   C1A 6483  41.487  21.983   8.842
  130POPC   D2A 6484  41.478  22.205   8.472
  130POPC   C3A 6485  41.494  22.054   8.080
  130POPC   C4A 6486  41.590  22.223   7.667
  130POPC   C1B 6487  41.821  22.455   8.775
  130POPC   C2B 6488  41.956  22.349   8.343
  130POPC   C3B 6489  41.841  22.537   7.965
  130POPC   C4B 6490  41.879  22.649   7.501
  131POPC   NC3 6491   0.121  31.824   9.231
  131POPC   PO4 6492   0.715  32.164   9.424
  131POPC   GL1 6493   0.426  32.237   9.127
  131POPC   GL2 6494   0.186  32.490   9.257
  131POPC   C1A 6495   0.409  32.050   8.718
  131POPC   D2A 6496   0.523  32.315   8.442
  131POPC   C3A 6497   0.529  32.237   8.012
  131POPC   C4A 6498   0.578  31.847   7.806
  131POPC   C1B 6499   0.115  32.494   8.798
  131POPC   C2B 6500   0.032  32.232   8.408
  131POPC   C3B 6501   0.070  32.428   8.013
  131POPC   C4B 6502   0.335  32.663   7.741
  132POPC   NC3 6503  37.721  38.178   9.683
  132POPC   PO4 6504  37.794  38.874   9.677
  132POPC   GL1 6505  37.788  38.614   9.239
  132POPC   GL2 6506  37.983  38.320   9.270
  132POPC   C1A 6507  37.518  38.569   8.817
  132POPC   D2A 6508  37.610  38.642   8.350
  132POPC   C3A 6509  37.492  38.410   7.979
  132POPC   C4A 6510  37.579  38.565   7.540
  132POPC   C1B 6511  38.111  38.395   8.864
  132POPC   C2B 6512  38.053  38.687   8.593
  132POPC   C3B 6513  38.114  38.661   8.162
  132POPC   C4B 6514  37.988  38.451   7.811
  133POPC   NC3 6515  11.745  31.427   9.477
  133POPC   PO4 6516  12.317  31.691   9.698
  133POPC   GL1 6517  12.262  31.574   9.237
  133POPC   GL2 6518  12.069  31.286   9.087
  133POPC   C1A 6519  12.124  31.722   8.823
  133POPC   D2A 6520  12.065  31.647   8.425
  133POPC   C3A 6521  12.229  31.304   8.211
  133POPC   C4A 6522  12.252  31.502   7.827
  133POPC   C1B 6523  11.732  31.384   8.771
  133POPC   C2B 6524  11.691  31.308   8.302
  133POPC   C3B 6525  11.734  31.595   7.907
  133POPC   C4B 6526  11.758  31.545   7.429
  134POPC   NC3 6527  15.352   9.859   9.621
  134POPC   PO4 6528  14.968  10.325   9.440
  134POPC   GL1 6529  15.193   9.983   9.132
  134POPC   GL2 6530  15.273   9.590   9.195
  134POPC   C1A 6531  15.157   9.771   8.705
  134POPC   D2A 6532  15.350   9.809   8.268
  134POPC   C3A 6533  15.063   9.745   7.917
  134POPC   C4A 6534  14.888   9.765   7.506
  134POPC   C1B 6535  15.447   9.322   8.859
  134POPC   C2B 6536  15.558   9.363   8.414
  134POPC   C3B 6537  15.427   9.375   7.957
  134POPC   C4B 6538  15.296   9.467   7.490
  135POPC   NC3 6539  39.917  40.479   9.488
  135POPC   PO4 6540  40.253  41.046   9.425
  135POPC   GL1 6541  40.021  40.824   9.131
  135POPC   GL2 6542  39.670  40.887   9.189
  135POPC   C1A 6543  40.158  40.616   8.769
  135POPC   D2A 6544  40.415  40.913   8.538
  135POPC   C3A 6545  40.282  40.990   8.147
  135POPC   C4A 6546  40.299  40.907   7.696
  135POPC   C1B 6547  39.710  40.960   8.721
  135POPC   C2B 6548  39.589  41.124   8.288
  135POPC   C3B 6549  39.844  41.127   7.920
  135POPC   C4B 6550  39.905  40.683   7.952
  136POPC   NC3 6551  11.479  24.889   9.493
  136POPC   PO4 6552  11.011  25.280   9.407
  136POPC   GL1 6553  11.312  25.433   9.126
  136POPC   GL2 6554  11.663  25.336   9.247
  136POPC   C1A 6555  11.217  25.287   8.716
  136POPC   D2A 6556  11.147  25.179   8.303
  136POPC   C3A 6557  11.094  25.563   8.084
  136POPC   C4A 6558  11.110  25.400   7.705
  136POPC   C1B 6559  11.717  25.352   8.813
  136POPC   C2B 6560  11.569  25.511   8.403
  136POPC   C3B 6561  11.550  25.335   7.989
  136POPC   C4B 6562  11.588  25.536   7.602
  137POPC   NC3 6563  10.628  20.870   9.554
  137POPC   PO4 6564  10.947  20.247   9.475
  137POPC   GL1 6565  10.698  20.325   9.130
  137POPC   GL2 6566  10.534  20.641   9.117
  137POPC   C1A 6567  10.808  20.431   8.727
  137POPC   D2A 6568  10.962  20.586   8.338
  137POPC   C3A 6569  10.707  20.443   7.991
  137POPC   C4A 6570  10.621  20.633   7.617
  137POPC   C1B 6571  10.597  20.900   8.759
  137POPC   C2B 6572  10.437  20.698   8.390
  137POPC   C3B 6573  10.419  20.889   8.010
  137POPC   C4B 6574  10.177  20.915   7.652
  138POPC   NC3 6575  11.582  42.800   9.378
  138POPC   PO4 6576  11.316  42.324   9.682
  138POPC   GL1 6577  11.235  42.370   9.230
  138POPC   GL2 6578  11.578  42.310   9.189
  138POPC   C1A 6579  11.280  42.211   8.774
  138POPC   D2A 6580  11.046  42.214   8.387
  138POPC   C3A 6581  11.258  42.172   8.001
  138POPC   C4A 6582  11.051  42.259   7.612
  138POPC   C1B 6583  11.644  42.550   8.784
  138POPC   C2B 6584  11.417  42.584   8.387
  138POPC   C3B 6585  11.591  42.574   7.973
  138POPC   C4B 6586  11.522  42.421   7.596
  139POPC   NC3 6587  38.146  11.523   9.787
  139POPC   PO4 6588  38.640  11.812   9.413
  139POPC   GL1 6589  38.364  12.073   9.174
  139POPC   GL2 6590  38.545  12.379   9.209
  139POPC   C1A 6591  38.118  12.157   8.792
  139POPC   D2A 6592  38.337  12.172   8.397
  139POPC   C3A 6593  38.207  12.092   8.030
  139POPC   C4A 6594  38.333  12.111   7.654
  139POPC   C1B 6595  38.596  12.356   8.777
  139POPC   C2B 6596  38.569  12.628   8.381
  139POPC   C3B 6597  38.521  12.512   7.923
  139POPC   C4B 6598  38.652  12.448   7.454
  140POPC   NC3 6599  25.106  17.858   9.597
  140POPC   PO4 6600  24.667  17.265   9.529
  140POPC   GL1 6601  24.544  17.503   9.150
  140POPC   GL2 6602  24.671  17.838   9.233
  140POPC   C1A 6603  24.361  17.414   8.755
  140POPC   D2A 6604  24.613  17.384   8.390
  140POPC   C3A 6605  24.389  17.451   8.006
  140POPC   C4A 6606  24.559  17.188   7.693
  140POPC   C1B 6607  24.437  17.930   8.842
  140POPC   C2B 6608  24.362  17.817   8.395
  140POPC   C3B 6609  24.567  17.941   8.004
  140POPC   C4B 6610  24.296  17.906   7.669
  141POPC   NC3 6611  39.522  23.550   9.431
  141POPC   PO4 6612  38.836  23.868   9.369
  141POPC   GL1 6613  39.204  23.766   9.094
  141POPC   GL2 6614  39.508  23.962   9.144
  141POPC   C1A 6615  39.271  23.545   8.699
  141POPC   D2A 6616  39.010  23.399   8.381
  141POPC   C3A 6617  39.210  23.513   8.016
  141POPC   C4A 6618  39.059  23.611   7.632
  141POPC   C1B 6619  39.509  23.974   8.730
  141POPC   C2B 6620  39.596  23.738   8.321
  141POPC   C3B 6621  39.607  23.880   7.910
  141POPC   C4B 6622  39.415  23.964   7.500
  142POPC   NC3 6623   7.207  31.123   9.402
  142POPC   PO4 6624   7.703  31.461   9.606
  142POPC   GL1 6625   7.706  31.321   9.109
  142POPC   GL2 6626   7.397  31.387   8.973
  142POPC   C1A 6627   7.712  31.130   8.677
  142POPC   D2A 6628   7.392  31.301   8.381
  142POPC   C3A 6629   7.417  31.365   7.926
  142POPC   C4A 6630   7.433  31.696   7.598
  142POPC   C1B 6631   7.259  31.723   8.699
  142POPC   C2B 6632   7.349  31.835   8.284
  142POPC   C3B 6633   7.089  31.797   7.939
  142POPC   C4B 6634   6.957  31.858   7.479
  143POPC   NC3 6635   8.860  41.629   9.586
  143POPC   PO4 6636   9.342  41.674   9.161
  143POPC   GL1 6637   9.063  41.560   8.922
  143POPC   GL2 6638   8.797  41.400   9.127
  143POPC   C1A 6639   9.027  41.754   8.524
  143POPC   D2A 6640   9.105  41.889   8.098
  143POPC   C3A 6641   8.854  41.773   7.761
  143POPC   C4A 6642   8.808  41.733   7.337
  143POPC   C1B 6643   8.661  41.403   8.699
  143POPC   C2B 6644   8.629  41.547   8.294
  143POPC   C3B 6645   8.780  41.334   7.970
  143POPC   C4B 6646   9.046  41.317   7.597
  144POPC   NC3 6647  25.916  36.324   9.477
  144POPC   PO4 6648  25.793  35.686   9.264
  144POPC   GL1 6649  26.086  35.922   9.053
  144POPC   GL2 6650  26.140  36.278   9.041
  144POPC   C1A 6651  26.069  35.962   8.611
  144POPC   D2A 6652  25.843  36.033   8.233
  144POPC   C3A 6653  26.066  35.821   7.904
  144POPC   C4A 6654  26.483  35.931   7.725
  144POPC   C1B 6655  25.920  36.438   8.707
  144POPC   C2B 6656  26.072  36.479   8.321
  144POPC   C3B 6657  26.129  36.331   7.919
  144POPC   C4B 6658  25.946  36.591   7.626
  145POPC   NC3 6659   8.914  14.866   9.478
  145POPC   PO4 6660   9.514  15.375   9.387
  145POPC   GL1 6661   9.240  15.133   9.069
  145POPC   GL2 6662   8.871  15.192   9.072
  145POPC   C1A 6663   9.123  15.032   8.662
  145POPC   D2A 6664   8.968  15.377   8.409
  145POPC   C3A 6665   9.135  15.299   7.998
  145POPC   C4A 6666   9.213  14.842   7.926
  145POPC   C1B 6667   8.615  15.101   8.719
  145POPC   C2B 6668   8.616  15.016   8.278
  145POPC   C3B 6669   8.649  15.183   7.844
  145POPC   C4B 6670   8.591  15.273   7.402
  146POPC   NC3 6671  41.923   3.872   9.319
  146POPC   PO4 6672  41.486   4.285   9.664
  146POPC   GL1 6673  41.447   4.193   9.247
  146POPC   GL2 6674  41.736   4.303   9.073
  146POPC   C1A 6675  41.290   4.336   8.846
  146POPC   D2A 6676  41.477   4.351   8.459
  146POPC   C3A 6677  41.464   4.273   8.048
  146POPC   C4A 6678  41.753   4.412   7.680
  146POPC   C1B 6679  41.648   3.969   8.761
  146POPC   C2B 6680  41.806   3.901   8.372
  146POPC   C3B 6681  41.884   3.991   7.966
  146POPC   C4B 6682  41.513   3.878   7.743
  147POPC   NC3 6683  40.512  23.421   9.391
  147POPC   PO4 6684  41.019  23.888   9.533
  147POPC   GL1 6685  40.824  23.763   9.176
  147POPC   GL2 6686  40.505  23.954   9.204
  147POPC   C1A 6687  40.840  23.609   8.767
  147POPC   D2A 6688  40.719  23.375   8.453
  147POPC   C3A 6689  40.949  23.427   8.098
  147POPC   C4A 6690  40.692  23.150   7.831
  147POPC   C1B 6691  40.745  24.097   8.808
  147POPC   C2B 6692  41.006  23.966   8.450
  147POPC   C3B 6693  40.929  23.935   8.006
  147POPC   C4B 6694  41.145  24.274   7.804
  148POPC   NC3 6695  36.157  42.617   9.505
  148POPC   PO4 6696  36.286  42.008   9.593
  148POPC   GL1 6697  36.369  42.179   9.201
  148POPC   GL2 6698  36.057  42.320   9.111
  148POPC   C1A 6699  36.307  42.050   8.758
  148POPC   D2A 6700  36.202  42.356   8.430
  148POPC   C3A 6701  36.320  42.350   8.033
  148POPC   C4A 6702  36.553  42.195   7.699
  148POPC   C1B 6703  35.816  42.263   8.744
  148POPC   C2B 6704  35.699  42.359   8.332
  148POPC   C3B 6705  35.847  42.565   7.956
  148POPC   C4B 6706  36.058  42.361   7.586
  149POPC   NC3 6707   8.336  37.857   9.413
  149POPC   PO4 6708   7.955  38.431   9.460
  149POPC   GL1 6709   8.230  38.403   9.097
  149POPC   GL2 6710   8.568  38.484   9.161
  149POPC   C1A 6711   8.329  38.628   8.703
  149POPC   D2A 6712   8.532  38.564   8.318
  149POPC   C3A 6713   8.232  38.643   8.014
  149POPC   C4A 6714   8.247  38.446   7.628
  149POPC   C1B 6715   8.633  38.244   8.767
  149POPC   C2B 6716   8.469  37.970   8.414
  149POPC   C3B 6717   8.359  38.130   8.024
  149POPC   C4B 6718   8.689  38.235   7.784
  150POPC   NC3 6719  35.094   5.442   9.858
  150POPC   PO4 6720  35.140   4.943   9.595
  150POPC   GL1 6721  35.343   4.946   9.131
  150POPC   GL2 6722  35.677   4.788   9.107
  150POPC   C1A 6723  35.247   5.112   8.692
  150POPC   D2A 6724  35.077   5.295   8.284
  150POPC   C3A 6725  35.256   5.105   7.919
  150POPC   C4A 6726  35.528   5.127   7.548
  150POPC   C1B 6727  35.604   4.726   8.681
  150POPC   C2B 6728  35.609   4.852   8.252
  150POPC   C3B 6729  35.728   4.765   7.841
  150POPC   C4B 6730  35.496   4.577   7.500
  151POPC   NC3 6731   6.634  11.634   9.573
  151POPC   PO4 6732   6.261  11.106   9.589
  151POPC   GL1 6733   6.522  11.244   9.253
  151POPC   GL2 6734   6.701  10.937   9.260
  151POPC   C1A 6735   6.562  11.463   8.840
  151POPC   D2A 6736   6.741  11.634   8.436
  151POPC   C3A 6737   6.614  11.393   8.079
  151POPC   C4A 6738   6.250  11.137   7.881
  151POPC   C1B 6739   6.434  10.911   8.878
  151POPC   C2B 6740   6.606  11.054   8.477
  151POPC   C3B 6741   6.655  10.893   8.060
  151POPC   C4B 6742   6.534  10.726   7.652
  152POPC   NC3 6743  36.626  21.696   9.665
  152POPC   PO4 6744  36.970  22.173   9.638
  152POPC   GL1 6745  37.013  22.222   9.180
  152POPC   GL2 6746  36.883  21.894   9.171
  152POPC   C1A 6747  37.254  22.097   8.782
  152POPC   D2A 6748  37.225  22.242   8.340
  152POPC   C3A 6749  37.179  22.029   7.937
  152POPC   C4A 6750  37.279  22.266   7.558
  152POPC   C1B 6751  36.750  22.066   8.742
  152POPC   C2B 6752  36.807  21.938   8.292
  152POPC   C3B 6753  36.666  21.799   7.863
  152POPC   C4B 6754  36.796  21.731   7.426
  153POPC   NC3 6755   0.159   1.871   9.422
  153POPC   PO4 6756  44.693   2.305   9.733
  153POPC   GL1 6757  44.683   2.118   9.218
  153POPC   GL2 6758  44.786   1.796   9.109
  153POPC   C1A 6759  44.739   2.195   8.769
  153POPC   D2A 6760  44.442   2.281   8.459
  153POPC   C3A 6761  44.586   2.333   8.048
  153POPC   C4A 6762  44.433   2.182   7.641
  153POPC   C1B 6763  44.872   1.602   8.727
  153POPC   C2B 6764   0.171   1.548   8.372
  153POPC   C3B 6765   0.104   1.671   7.944
  153POPC   C4B 6766  44.943   2.071   7.766
  154POPC   NC3 6767  26.122  31.019   9.568
  154POPC   PO4 6768  25.739  30.568   9.555
  154POPC   GL1 6769  25.918  30.644   9.180
  154POPC   GL2 6770  26.242  30.777   9.159
  154POPC   C1A 6771  25.724  30.791   8.821
  154POPC   D2A 6772  25.569  30.715   8.444
  154POPC   C3A 6773  25.817  30.945   8.178
  154POPC   C4A 6774  25.831  30.691   7.862
  154POPC   C1B 6775  26.220  30.942   8.773
  154POPC   C2B 6776  26.255  30.716   8.398
  154POPC   C3B 6777  26.324  30.594   8.004
  154POPC   C4B 6778  26.255  30.951   7.740
  155POPC   NC3 6779  42.659  39.145   9.444
  155POPC   PO4 6780  42.033  39.082   9.600
  155POPC   GL1 6781  42.192  39.321   9.245
  155POPC   GL2 6782  42.276  38.991   9.128
  155POPC   C1A 6783  42.249  39.549   8.831
  155POPC   D2A 6784  42.528  39.581   8.465
  155POPC   C3A 6785  42.428  39.277   8.146
  155POPC   C4A 6786  42.239  39.345   7.755
  155POPC   C1B 6787  42.320  39.062   8.687
  155POPC   C2B 6788  42.466  38.801   8.367
  155POPC   C3B 6789  42.685  38.826   8.009
  155POPC   C4B 6790  42.576  38.965   7.603
  156POPC   NC3 6791  10.172  33.346   9.473
  156POPC   PO4 6792   9.829  32.685   9.578
  156POPC   GL1 6793   9.924  32.928   9.218
  156POPC   GL2 6794  10.224  32.806   9.171
  156POPC   C1A 6795   9.887  33.144   8.791
  156POPC   D2A 6796   9.770  33.360   8.376
  156POPC   C3A 6797   9.670  33.246   7.954
  156POPC   C4A 6798  10.026  33.245   7.705
  156POPC   C1B 6799  10.014  32.618   8.830
  156POPC   C2B 6800   9.747  32.712   8.511
  156POPC   C3B 6801   9.753  32.773   8.101
  156POPC   C4B 6802   9.768  32.819   7.654
  157POPC   NC3 6803  28.529  31.383   9.441
  157POPC   PO4 6804  27.855  31.136   9.521
  157POPC   GL1 6805  28.106  31.230   9.170
  157POPC   GL2 6806  28.209  31.583   9.099
  157POPC   C1A 6807  28.049  31.248   8.739
  157POPC   D2A 6808  28.292  31.233   8.390
  157POPC   C3A 6809  28.108  31.396   8.061
  157POPC   C4A 6810  28.287  31.528   7.707
  157POPC   C1B 6811  28.529  31.399   8.800
  157POPC   C2B 6812  28.773  31.618   8.491
  157POPC   C3B 6813  28.610  31.687   8.089
  157POPC   C4B 6814  28.795  31.591   7.681
  158POPC   NC3 6815  43.224  39.999   9.640
  158POPC   PO4 6816  42.740  39.597   9.344
  158POPC   GL1 6817  42.951  39.938   9.157
  158POPC   GL2 6818  43.304  40.011   9.136
  158POPC   C1A 6819  43.017  39.946   8.724
  158POPC   D2A 6820  43.372  39.851   8.504
  158POPC   C3A 6821  43.246  39.687   8.128
  158POPC   C4A 6822  43.043  39.823   7.775
  158POPC   C1B 6823  43.600  40.183   8.834
  158POPC   C2B 6824  43.696  40.246   8.364
  158POPC   C3B 6825  43.522  40.098   7.960
  158POPC   C4B 6826  43.567  39.714   7.724
  159POPC   NC3 6827  18.832   5.979   9.381
  159POPC   PO4 6828  19.430   5.747   9.576
  159POPC   GL1 6829  19.266   5.855   9.136
  159POPC   GL2 6830  19.011   5.618   9.036
  159POPC   C1A 6831  19.143   6.117   8.754
  159POPC   D2A 6832  18.898   6.140   8.365
  159POPC   C3A 6833  19.063   6.145   7.927
  159POPC   C4A 6834  19.079   5.880   7.546
  159POPC   C1B 6835  19.255   5.625   8.665
  159POPC   C2B 6836  19.198   5.739   8.247
  159POPC   C3B 6837  19.290   5.556   7.868
  159POPC   C4B 6838  19.066   5.359   7.541
  160POPC   NC3 6839  25.942   0.261   9.566
  160POPC   PO4 6840  26.492   0.084   9.415
  160POPC   GL1 6841  26.214   0.193   9.098
  160POPC   GL2 6842  26.163   0.518   9.175
  160POPC   C1A 6843  26.286   0.173   8.645
  160POPC   D2A 6844  25.975   0.264   8.335
  160POPC   C3A 6845  26.040   0.117   7.929
  160POPC   C4A 6846  26.289   0.401   7.731
  160POPC   C1B 6847  25.984   0.573   8.765
  160POPC   C2B 6848  25.860   0.752   8.332
  160POPC   C3B 6849  25.797   0.575   7.893
  160POPC   C4B 6850  25.844   0.748   7.464
  161POPC   NC3 6851  32.745   2.718   9.498
  161POPC   PO4 6852  33.407   2.538   9.541
  161POPC   GL1 6853  33.148   2.512   9.198
  161POPC   GL2 6854  33.055   2.860   9.106
  161POPC   C1A 6855  33.048   2.443   8.785
  161POPC   D2A 6856  33.104   2.771   8.504
  161POPC   C3A 6857  33.105   2.609   8.127
  161POPC   C4A 6858  33.219   2.628   7.755
  161POPC   C1B 6859  32.653   2.777   8.828
  161POPC   C2B 6860  32.612   2.933   8.385
  161POPC   C3B 6861  32.922   3.080   8.054
  161POPC   C4B 6862  32.948   3.069   7.620
  162POPC   NC3 6863   4.502  15.719   9.484
  162POPC   PO4 6864   3.893  16.054   9.637
  162POPC   GL1 6865   4.196  16.122   9.234
  162POPC   GL2 6866   4.527  16.244   9.121
  162POPC   C1A 6867   4.112  16.056   8.757
  162POPC   D2A 6868   3.981  16.321   8.369
  162POPC   C3A 6869   4.012  16.173   7.925
  162POPC   C4A 6870   4.394  16.150   7.662
  162POPC   C1B 6871   4.579  15.872   8.841
  162POPC   C2B 6872   4.378  15.685   8.505
  162POPC   C3B 6873   4.399  15.890   8.126
  162POPC   C4B 6874   4.186  15.706   7.826
  163POPC   NC3 6875  11.789  27.281   9.355
  163POPC   PO4 6876  11.563  26.708   9.701
  163POPC   GL1 6877  11.992  26.707   9.327
  163POPC   GL2 6878  12.210  27.012   9.260
  163POPC   C1A 6879  12.092  26.695   8.850
  163POPC   D2A 6880  12.017  26.948   8.452
  163POPC   C3A 6881  11.945  26.722   8.059
  163POPC   C4A 6882  11.746  26.831   7.694
  163POPC   C1B 6883  12.480  27.015   8.881
  163POPC   C2B 6884  12.539  26.840   8.480
  163POPC   C3B 6885  12.396  26.967   8.086
  163POPC   C4B 6886  12.312  26.775   7.710
  164POPC   NC3 6887  11.992  26.569   9.799
  164POPC   PO4 6888  11.883  25.998   9.487
  164POPC   GL1 6889  12.052  26.201   9.143
  164POPC   GL2 6890  12.121  25.868   9.050
  164POPC   C1A 6891  12.022  26.218   8.692
  164POPC   D2A 6892  12.227  26.319   8.310
  164POPC   C3A 6893  11.928  26.200   8.003
  164POPC   C4A 6894  11.823  26.341   7.597
  164POPC   C1B 6895  12.072  25.686   8.719
  164POPC   C2B 6896  12.086  25.811   8.343
  164POPC   C3B 6897  11.942  25.664   8.011
  164POPC   C4B 6898  11.954  25.863   7.607
  165POPC   NC3 6899  34.699  28.275   9.475
  165POPC   PO4 6900  34.176  27.865   9.300
  165POPC   GL1 6901  34.422  28.170   9.047
  165POPC   GL2 6902  34.480  28.520   9.089
  165POPC   C1A 6903  34.809  28.250   8.781
  165POPC   D2A 6904  34.880  28.065   8.408
  165POPC   C3A 6905  34.979  28.287   8.051
  165POPC   C4A 6906  34.697  28.318   7.797
  165POPC   C1B 6907  34.533  28.649   8.645
  165POPC   C2B 6908  34.493  28.400   8.268
  165POPC   C3B 6909  34.213  28.303   7.892
  165POPC   C4B 6910  34.373  28.515   7.486
  166POPC   NC3 6911  24.926   6.135   9.330
  166POPC   PO4 6912  25.235   5.638   9.697
  166POPC   GL1 6913  25.285   5.746   9.234
  166POPC   GL2 6914  24.983   5.658   9.144
  166POPC   C1A 6915  25.352   5.839   8.758
  166POPC   D2A 6916  25.411   6.057   8.325
  166POPC   C3A 6917  25.319   5.912   7.886
  166POPC   C4A 6918  25.372   5.488   7.690
  166POPC   C1B 6919  24.896   5.609   8.705
  166POPC   C2B 6920  25.041   5.702   8.295
  166POPC   C3B 6921  24.877   5.647   7.880
  166POPC   C4B 6922  24.973   5.757   7.447
  167POPC   NC3 6923  29.615  15.604   9.782
  167POPC   PO4 6924  29.978  15.092   9.562
  167POPC   GL1 6925  29.922  15.038   9.165
  167POPC   GL2 6926  29.588  15.069   9.076
  167POPC   C1A 6927  30.000  15.267   8.795
  167POPC   D2A 6928  30.077  15.363   8.375
  167POPC   C3A 6929  30.118  15.056   8.038
  167POPC   C4A 6930  29.855  15.314   7.764
  167POPC   C1B 6931  29.492  15.192   8.635
  167POPC   C2B 6932  29.632  15.130   8.202
  167POPC   C3B 6933  29.428  15.044   7.806
  167POPC   C4B 6934  29.536  15.079   7.385
  168POPC   NC3 6935  27.520   8.902   9.517
  168POPC   PO4 6936  27.605   9.510   9.709
  168POPC   GL1 6937  27.730   9.203   9.217
  168POPC   GL2 6938  27.802   8.790   9.096
  168POPC   C1A 6939  27.438   8.993   8.830
  168POPC   D2A 6940  27.659   8.956   8.463
  168POPC   C3A 6941  27.557   9.053   8.061
  168POPC   C4A 6942  27.316   8.865   7.794
  168POPC   C1B 6943  27.918   8.565   8.663
  168POPC   C2B 6944  27.888   8.614   8.181
  168POPC   C3B 6945  27.951   8.727   7.751
  168POPC   C4B 6946  28.006   8.585   7.319
  169POPC   NC3 6947   6.727  37.200   9.328
  169POPC   PO4 6948   6.326  36.575   9.442
  169POPC   GL1 6949   6.557  36.765   9.092
  169POPC   GL2 6950   6.920  36.773   9.049
  169POPC   C1A 6951   6.597  36.964   8.681
  169POPC   D2A 6952   6.502  36.782   8.276
  169POPC   C3A 6953   6.343  37.065   7.980
  169POPC   C4A 6954   6.695  37.192   7.766
  169POPC   C1B 6955   7.154  36.590   8.744
  169POPC   C2B 6956   7.010  36.592   8.348
  169POPC   C3B 6957   7.047  36.825   7.973
  169POPC   C4B 6958   7.073  36.602   7.597
  170POPC   NC3 6959  33.021  24.998   9.397
  170POPC   PO4 6960  32.823  25.633   9.545
  170POPC   GL1 6961  32.837  25.433   9.162
  170POPC   GL2 6962  33.208  25.441   9.085
  170POPC   C1A 6963  32.830  25.429   8.743
  170POPC   D2A 6964  33.077  25.500   8.429
  170POPC   C3A 6965  32.829  25.385   8.124
  170POPC   C4A 6966  32.682  25.309   7.753
  170POPC   C1B 6967  33.390  25.206   8.724
  170POPC   C2B 6968  33.352  25.073   8.250
  170POPC   C3B 6969  33.351  25.053   7.759
  170POPC   C4B 6970  33.383  25.095   7.279
  171POPC   NC3 6971   0.879   0.752   9.426
  171POPC   PO4 6972   1.025   0.139   9.666
  171POPC   GL1 6973   1.020   0.311   9.219
  171POPC   GL2 6974   1.315   0.568   9.233
  171POPC   C1A 6975   0.931   0.288   8.762
  171POPC   D2A 6976   1.096   0.473   8.361
  171POPC   C3A 6977   0.864   0.518   7.972
  171POPC   C4A 6978   0.653   0.879   7.768
  171POPC   C1B 6979   1.432   0.451   8.816
  171POPC   C2B 6980   1.582   0.333   8.411
  171POPC   C3B 6981   1.547   0.549   8.019
  171POPC   C4B 6982   1.444   0.399   7.610
  172POPC   NC3 6983  22.675  18.624   9.445
  172POPC   PO4 6984  23.242  18.310   9.435
  172POPC   GL1 6985  23.250  18.291   9.046
  172POPC   GL2 6986  23.404  18.589   8.968
  172POPC   C1A 6987  23.150  18.117   8.691
  172POPC   D2A 6988  23.049  18.393   8.404
  172POPC   C3A 6989  22.973  18.282   7.988
  172POPC   C4A 6990  23.109  18.162   7.592
  172POPC   C1B 6991  23.005  18.722   8.858
  172POPC   C2B 6992  22.761  18.829   8.534
  172POPC   C3B 6993  22.855  18.768   8.134
  172POPC   C4B 6994  22.792  18.860   7.752
  173POPC   NC3 6995  42.014  30.527   9.520
  173POPC   PO4 6996  42.630  30.738   9.278
  173POPC   GL1 6997  42.292  30.564   9.113
  173POPC   GL2 6998  42.045  30.837   9.100
  173POPC   C1A 6999  42.183  30.420   8.741
  173POPC   D2A 7000  42.482  30.515   8.393
  173POPC   C3A 7001  42.310  30.581   7.979
  173POPC   C4A 7002  42.529  30.732   7.630
  173POPC   C1B 7003  42.285  30.905   8.726
  173POPC   C2B 7004  42.200  30.952   8.337
  173POPC   C3B 7005  42.240  31.082   7.961
  173POPC   C4B 7006  42.047  30.912   7.596
  174POPC   NC3 7007  24.050  31.298   9.434
  174POPC   PO4 7008  23.611  31.788   9.613
  174POPC   GL1 7009  23.617  31.558   9.184
  174POPC   GL2 7010  23.594  31.188   9.214
  174POPC   C1A 7011  23.815  31.460   8.764
  174POPC   D2A 7012  23.875  31.281   8.334
  174POPC   C3A 7013  23.760  31.506   7.948
  174POPC   C4A 7014  23.865  31.527   7.475
  174POPC   C1B 7015  23.403  31.164   8.810
  174POPC   C2B 7016  23.431  31.040   8.403
  174POPC   C3B 7017  23.590  31.021   7.973
  174POPC   C4B 7018  23.784  31.012   7.546
  175POPC   NC3 7019  27.917   4.195   9.779
  175POPC   PO4 7020  27.477   4.654   9.759
  175POPC   GL1 7021  27.403   4.373   9.310
  175POPC   GL2 7022  27.417   3.994   9.179
  175POPC   C1A 7023  27.381   4.359   8.833
  175POPC   D2A 7024  27.228   4.115   8.492
  175POPC   C3A 7025  27.484   4.116   8.134
  175POPC   C4A 7026  27.646   4.481   7.929
  175POPC   C1B 7027  27.674   3.917   8.768
  175POPC   C2B 7028  27.932   3.889   8.377
  175POPC   C3B 7029  27.938   4.007   7.907
  175POPC   C4B 7030  27.673   3.841   7.553
  176POPC   NC3 7031   0.193  22.563   9.352
  176POPC   PO4 7032   0.661  22.987   9.446
  176POPC   GL1 7033   0.461  22.909   9.085
  176POPC   GL2 7034   0.379  23.231   9.064
  176POPC   C1A 7035   0.292  22.803   8.685
  176POPC   D2A 7036   0.313  22.942   8.266
  176POPC   C3A 7037   0.010  22.773   7.979
  176POPC   C4A 7038   0.169  22.502   7.665
  176POPC   C1B 7039   0.628  23.178   8.677
  176POPC   C2B 7040   0.801  23.185   8.275
  176POPC   C3B 7041   0.667  22.976   7.909
  176POPC   C4B 7042   0.277  23.088   7.686
  177POPC   NC3 7043  38.776  31.503   9.741
  177POPC   PO4 7044  38.190  31.702   9.366
  177POPC   GL1 7045  38.326  31.494   9.029
  177POPC   GL2 7046  38.634  31.326   9.152
  177POPC   C1A 7047  38.477  31.563   8.626
  177POPC   D2A 7048  38.447  31.349   8.241
  177POPC   C3A 7049  38.151  31.439   7.913
  177POPC   C4A 7050  38.086  31.604   7.461
  177POPC   C1B 7051  38.863  31.241   8.780
  177POPC   C2B 7052  39.026  31.385   8.366
  177POPC   C3B 7053  38.866  31.397   7.941
  177POPC   C4B 7054  38.564  31.573   7.671
  178POPC   NC3 7055   4.512  35.681   9.606
  178POPC   PO4 7056   4.403  36.355   9.699
  178POPC   GL1 7057   4.508  36.244   9.227
  178POPC   GL2 7058   4.448  35.908   9.146
  178POPC   C1A 7059   4.262  36.254   8.809
  178POPC   D2A 7060   3.929  36.360   8.520
  178POPC   C3A 7061   4.100  36.386   8.119
  178POPC   C4A 7062   4.379  36.216   7.815
  178POPC   C1B 7063   4.214  35.737   8.785
  178POPC   C2B 7064   4.092  35.880   8.343
  178POPC   C3B 7065   4.103  35.787   7.902
  178POPC   C4B 7066   4.044  35.821   7.472
  179POPC   NC3 7067  37.836  37.335  10.208
  179POPC   PO4 7068  37.512  37.757   9.715
  179POPC   GL1 7069  37.689  37.819   9.275
  179POPC   GL2 7070  37.515  38.146   9.231
  179POPC   C1A 7071  37.771  37.638   8.774
  179POPC   D2A 7072  37.614  37.642   8.286
  179POPC   C3A 7073  37.836  37.427   7.918
  179POPC   C4A 7074  37.749  37.310   7.469
  179POPC   C1B 7075  37.705  38.113   8.879
  179POPC   C2B 7076  37.665  38.154   8.491
  179POPC   C3B 7077  37.888  38.115   8.166
  179POPC   C4B 7078  37.740  37.996   7.762
  180POPC   NC3 7079  42.374  36.085   9.570
  180POPC   PO4 7080  42.161  36.730   9.517
  180POPC   GL1 7081  42.263  36.403   9.179
  180POPC   GL2 7082  42.378  36.010   9.080
  180POPC   C1A 7083  42.228  36.349   8.744
  180POPC   D2A 7084  42.234  36.024   8.460
  180POPC   C3A 7085  42.050  36.178   8.085
  180POPC   C4A 7086  42.126  36.054   7.666
  180POPC   C1B 7087  42.494  35.687   8.780
  180POPC   C2B 7088  42.677  35.752   8.392
  180POPC   C3B 7089  42.448  35.819   8.011
  180POPC   C4B 7090  42.594  35.770   7.587
  181POPC   NC3 7091   8.778  26.470   9.478
  181POPC   PO4 7092   9.190  27.053   9.455
  181POPC   GL1 7093   8.922  26.899   9.135
  181POPC   GL2 7094   9.122  26.629   9.114
  181POPC   C1A 7095   8.817  26.955   8.673
  181POPC   D2A 7096   8.649  27.073   8.227
  181POPC   C3A 7097   8.946  27.015   7.847
  181POPC   C4A 7098   8.843  26.882   7.408
  181POPC   C1B 7099   9.092  26.359   8.778
  181POPC   C2B 7100   9.038  26.565   8.389
  181POPC   C3B 7101   8.917  26.521   7.979
  181POPC   C4B 7102   9.192  26.594   7.649
  182POPC   NC3 7103  14.415   8.291   9.508
  182POPC   PO4 7104  14.762   7.816   9.445
  182POPC   GL1 7105  14.847   8.121   9.100
  182POPC   GL2 7106  14.661   8.450   9.050
  182POPC   C1A 7107  14.816   8.156   8.613
  182POPC   D2A 7108  14.569   8.069   8.227
  182POPC   C3A 7109  14.657   8.186   7.783
  182POPC   C4A 7110  14.487   7.977   7.380
  182POPC   C1B 7111  14.753   8.663   8.610
  182POPC   C2B 7112  14.737   8.570   8.155
  182POPC   C3B 7113  14.399   8.660   7.852
  182POPC   C4B 7114  14.171   8.841   7.490
  183POPC   NC3 7115  39.675  22.046   9.560
  183POPC   PO4 7116  39.197  22.508   9.512
  183POPC   GL1 7117  39.380  22.309   9.131
  183POPC   GL2 7118  39.396  21.944   9.125
  183POPC   C1A 7119  39.149  22.173   8.712
  183POPC   D2A 7120  39.160  22.058   8.278
  183POPC   C3A 7121  39.044  22.305   7.937
  183POPC   C4A 7122  38.884  21.984   7.675
  183POPC   C1B 7123  39.629  22.042   8.747
  183POPC   C2B 7124  39.581  22.294   8.407
  183POPC   C3B 7125  39.582  22.149   7.981
  183POPC   C4B 7126  39.505  21.884   7.645
  184POPC   NC3 7127   7.734  41.900   9.570
  184POPC   PO4 7128   8.404  41.707   9.507
  184POPC   GL1 7129   8.292  41.536   9.078
  184POPC   GL2 7130   8.004  41.308   9.133
  184POPC   C1A 7131   8.243  41.663   8.645
  184POPC   D2A 7132   8.137  41.883   8.289
  184POPC   C3A 7133   8.385  41.814   7.944
  184POPC   C4A 7134   8.296  41.419   7.808
  184POPC   C1B 7135   7.792  41.536   8.831
  184POPC   C2B 7136   7.851  41.428   8.426
  184POPC   C3B 7137   7.859  41.531   8.037
  184POPC   C4B 7138   7.727  41.438   7.648
  185POPC   NC3 7139   6.862   2.604   9.492
  185POPC   PO4 7140   6.238   2.929   9.597
  185POPC   GL1 7141   6.519   2.969   9.215
  185POPC   GL2 7142   6.639   2.635   9.046
  185POPC   C1A 7143   6.659   3.077   8.784
  185POPC   D2A 7144   6.675   2.731   8.489
  185POPC   C3A 7145   6.850   2.854   8.151
  185POPC   C4A 7146   6.644   2.753   7.789
  185POPC   C1B 7147   6.626   2.304   8.752
  185POPC   C2B 7148   6.860   2.223   8.385
  185POPC   C3B 7149   6.956   2.388   7.964
  185POPC   C4B 7150   6.809   2.282   7.550
  186POPC   NC3 7151  20.380  26.659   9.587
  186POPC   PO4 7152  20.769  27.131   9.337
  186POPC   GL1 7153  20.474  26.857   9.077
  186POPC   GL2 7154  20.402  26.488   9.121
  186POPC   C1A 7155  20.459  26.769   8.605
  186POPC   D2A 7156  20.777  26.904   8.273
  186POPC   C3A 7157  20.839  26.677   7.872
  186POPC   C4A 7158  20.910  26.668   7.418
  186POPC   C1B 7159  20.097  26.441   8.810
  186POPC   C2B 7160  20.172  26.380   8.364
  186POPC   C3B 7161  20.343  26.694   8.064
  186POPC   C4B 7162  20.407  26.603   7.618
  187POPC   NC3 7163  34.980  11.850   9.229
  187POPC   PO4 7164  34.778  12.358   9.548
  187POPC   GL1 7165  34.485  12.154   9.234
  187POPC   GL2 7166  34.483  11.813   9.110
  187POPC   C1A 7167  34.474  12.212   8.785
  187POPC   D2A 7168  34.786  12.117   8.520
  187POPC   C3A 7169  34.827  12.104   8.110
  187POPC   C4A 7170  34.597  12.070   7.763
  187POPC   C1B 7171  34.659  11.626   8.727
  187POPC   C2B 7172  34.854  11.627   8.343
  187POPC   C3B 7173  34.616  11.608   7.998
  187POPC   C4B 7174  34.348  11.647   7.660
  188POPC   NC3 7175   3.604  31.813   9.378
  188POPC   PO4 7176   3.767  31.124   9.450
  188POPC   GL1 7177   3.681  31.366   9.136
  188POPC   GL2 7178   3.358  31.324   9.073
  188POPC   C1A 7179   3.708  31.574   8.748
  188POPC   D2A 7180   3.668  31.855   8.390
  188POPC   C3A 7181   3.610  31.537   8.079
  188POPC   C4A 7182   3.731  31.323   7.711
  188POPC   C1B 7183   3.194  31.584   8.718
  188POPC   C2B 7184   3.155  31.840   8.360
  188POPC   C3B 7185   3.352  31.958   7.963
  188POPC   C4B 7186   3.302  31.627   7.677
  189POPC   NC3 7187  29.777  44.606   9.618
  189POPC   PO4 7188  30.159   0.089   9.417
  189POPC   GL1 7189  29.938  44.791   9.145
  189POPC   GL2 7190  30.000  44.412   9.193
  189POPC   C1A 7191  29.732  44.826   8.747
  189POPC   D2A 7192  29.598  44.871   8.325
  189POPC   C3A 7193  29.986  44.885   8.126
  189POPC   C4A 7194  30.005  44.866   7.678
  189POPC   C1B 7195  29.622  44.385   8.926
  189POPC   C2B 7196  29.666  44.378   8.439
  189POPC   C3B 7197  29.836  44.430   7.980
  189POPC   C4B 7198  29.703  44.510   7.534
  190POPC   NC3 7199   4.897  24.754   9.500
  190POPC   PO4 7200   5.298  24.223   9.470
  190POPC   GL1 7201   5.402  24.307   9.072
  190POPC   GL2 7202   5.314  24.670   9.043
  190POPC   C1A 7203   5.061  24.307   8.788
  190POPC   D2A 7204   5.008  24.569   8.467
  190POPC   C3A 7205   5.308  24.479   8.172
  190POPC   C4A 7206   5.203  24.346   7.763
  190POPC   C1B 7207   5.286  24.948   8.661
  190POPC   C2B 7208   5.070  25.011   8.240
  190POPC   C3B 7209   4.912  24.776   7.905
  190POPC   C4B 7210   4.985  24.683   7.435
  191POPC   NC3 7211   6.405  18.676   9.440
  191POPC   PO4 7212   7.064  19.046   9.449
  191POPC   GL1 7213   6.665  19.050   9.164
  191POPC   GL2 7214   6.764  18.745   9.072
  191POPC   C1A 7215   6.400  19.170   8.784
  191POPC   D2A 7216   6.571  19.155   8.347
  191POPC   C3A 7217   6.421  19.120   7.935
  191POPC   C4A 7218   6.567  19.002   7.527
  191POPC   C1B 7219   6.832  18.927   8.711
  191POPC   C2B 7220   7.048  18.956   8.360
  191POPC   C3B 7221   6.878  18.893   7.945
  191POPC   C4B 7222   7.140  18.928   7.552
  192POPC   NC3 7223  19.310  43.120   9.463
  192POPC   PO4 7224  18.765  43.004   9.837
  192POPC   GL1 7225  18.797  43.081   9.274
  192POPC   GL2 7226  19.007  43.294   9.111
  192POPC   C1A 7227  18.684  43.009   8.826
  192POPC   D2A 7228  18.951  42.869   8.533
  192POPC   C3A 7229  18.861  43.005   8.141
  192POPC   C4A 7230  19.015  42.845   7.745
  192POPC   C1B 7231  19.162  43.463   8.752
  192POPC   C2B 7232  19.289  43.294   8.363
  192POPC   C3B 7233  19.285  43.229   7.930
  192POPC   C4B 7234  18.970  43.398   7.681
  193POPC   NC3 7235   8.619  11.499   9.622
  193POPC   PO4 7236   9.270  11.599   9.541
  193POPC   GL1 7237   9.116  11.436   9.158
  193POPC   GL2 7238   8.874  11.175   9.154
  193POPC   C1A 7239   9.214  11.291   8.749
  193POPC   D2A 7240   9.009  11.402   8.367
  193POPC   C3A 7241   9.074  11.174   7.987
  193POPC   C4A 7242   9.108  10.975   7.589
  193POPC   C1B 7243   8.804  10.990   8.714
  193POPC   C2B 7244   8.678  10.991   8.269
  193POPC   C3B 7245   8.835  10.695   7.941
  193POPC   C4B 7246   8.738  10.638   7.487
  194POPC   NC3 7247  10.898   2.920   9.411
  194POPC   PO4 7248  11.565   3.156   9.377
  194POPC   GL1 7249  11.365   2.811   9.159
  194POPC   GL2 7250  11.422   2.445   9.249
  194POPC   C1A 7251  11.118   2.727   8.786
  194POPC   D2A 7252  11.042   2.965   8.395
  194POPC   C3A 7253  11.097   2.760   8.002
  194POPC   C4A 7254  11.356   2.893   7.658
  194POPC   C1B 7255  11.582   2.489   8.806
  194POPC   C2B 7256  11.454   2.594   8.364
  194POPC   C3B 7257  11.556   2.498   7.912
  194POPC   C4B 7258  11.668   2.303   7.505
  195POPC   NC3 7259  43.120  23.209   9.379
  195POPC   PO4 7260  43.445  22.732   9.716
  195POPC   GL1 7261  43.170  22.682   9.298
  195POPC   GL2 7262  42.840  22.833   9.182
  195POPC   C1A 7263  43.175  22.759   8.804
  195POPC   D2A 7264  43.312  22.602   8.391
  195POPC   C3A 7265  43.204  22.873   8.034
  195POPC   C4A 7266  43.016  23.204   7.760
  195POPC   C1B 7267  42.710  22.988   8.765
  195POPC   C2B 7268  42.796  22.903   8.341
  195POPC   C3B 7269  42.607  22.998   7.931
  195POPC   C4B 7270  42.693  22.900   7.470
  196POPC   NC3 7271  41.651  19.204   9.479
  196POPC   PO4 7272  41.101  18.759   9.343
  196POPC   GL1 7273  41.466  18.953   9.081
  196POPC   GL2 7274  41.872  19.007   9.060
  196POPC   C1A 7275  41.495  19.145   8.706
  196POPC   D2A 7276  41.215  19.240   8.362
  196POPC   C3A 7277  41.323  19.090   8.010
  196POPC   C4A 7278  41.722  19.191   7.882
  196POPC   C1B 7279  41.861  18.778   8.673
  196POPC   C2B 7280  41.596  18.809   8.335
  196POPC   C3B 7281  41.704  18.684   7.954
  196POPC   C4B 7282  41.826  18.623   7.564
  197POPC   NC3 7283  19.228  10.833   9.529
  197POPC   PO4 7284  18.954  10.221   9.520
  197POPC   GL1 7285  19.037  10.471   9.132
  197POPC   GL2 7286  18.736  10.574   8.957
  197POPC   C1A 7287  19.076  10.313   8.695
  197POPC   D2A 7288  18.901  10.259   8.285
  197POPC   C3A 7289  18.975  10.401   7.857
  197POPC   C4A 7290  18.675  10.343   7.515
  197POPC   C1B 7291  18.690  10.690   8.535
  197POPC   C2B 7292  18.990  10.773   8.227
  197POPC   C3B 7293  19.348  10.738   7.961
  197POPC   C4B 7294  19.218  10.839   7.560
  198POPC   NC3 7295   6.814   0.117   9.349
  198POPC   PO4 7296   6.350  44.839   9.672
  198POPC   GL1 7297   6.504  44.753   9.193
  198POPC   GL2 7298   6.710  44.462   9.121
  198POPC   C1A 7299   6.617  44.755   8.717
  198POPC   D2A 7300   6.949  44.817   8.410
  198POPC   C3A 7301   6.652  44.834   8.103
  198POPC   C4A 7302   6.375  44.678   7.806
  198POPC   C1B 7303   6.972  44.425   8.790
  198POPC   C2B 7304   6.854  44.308   8.408
  198POPC   C3B 7305   6.751  44.350   8.004
  198POPC   C4B 7306   7.024  44.512   7.725
  199POPC   NC3 7307  22.726  35.967   9.420
  199POPC   PO4 7308  23.172  36.336   9.571
  199POPC   GL1 7309  22.922  36.376   9.156
  199POPC   GL2 7310  22.616  36.581   9.159
  199POPC   C1A 7311  22.900  36.107   8.755
  199POPC   D2A 7312  23.027  35.852   8.363
  199POPC   C3A 7313  23.057  36.094   7.957
  199POPC   C4A 7314  22.831  36.138   7.534
  199POPC   C1B 7315  22.509  36.429   8.767
  199POPC   C2B 7316  22.757  36.472   8.386
  199POPC   C3B 7317  22.655  36.392   7.974
  199POPC   C4B 7318  22.527  36.579   7.622
  200POPC   NC3 7319  24.549  22.343   9.590
  200POPC   PO4 7320  24.852  21.731   9.460
  200POPC   GL1 7321  24.615  22.027   9.160
  200POPC   GL2 7322  24.286  22.232   9.110
  200POPC   C1A 7323  24.484  21.980   8.724
  200POPC   D2A 7324  24.283  21.967   8.323
  200POPC   C3A 7325  24.448  22.022   7.897
  200POPC   C4A 7326  24.577  22.121   7.470
  200POPC   C1B 7327  24.215  22.397   8.636
  200POPC   C2B 7328  24.356  22.461   8.187
  200POPC   C3B 7329  24.433  22.568   7.740
  200POPC   C4B 7330  24.380  22.561   7.251
  201POPC   NC3 7331  20.845  35.807   9.713
  201POPC   PO4 7332  21.387  36.254   9.517
  201POPC   GL1 7333  21.420  35.959   9.219
  201POPC   GL2 7334  21.114  35.767   9.270
  201POPC   C1A 7335  21.454  35.910   8.784
  201POPC   D2A 7336  21.170  36.159   8.521
  201POPC   C3A 7337  21.376  36.316   8.179
  201POPC   C4A 7338  21.326  36.191   7.788
  201POPC   C1B 7339  21.082  35.577   8.876
  201POPC   C2B 7340  21.233  35.517   8.506
  201POPC   C3B 7341  21.301  35.794   8.174
  201POPC   C4B 7342  21.093  35.702   7.798
  202POPC   NC3 7343  33.128  27.959   9.414
  202POPC   PO4 7344  32.820  27.290   9.468
  202POPC   GL1 7345  32.934  27.546   9.160
  202POPC   GL2 7346  33.285  27.554   9.080
  202POPC   C1A 7347  32.869  27.502   8.739
  202POPC   D2A 7348  33.026  27.355   8.351
  202POPC   C3A 7349  32.765  27.314   8.014
  202POPC   C4A 7350  32.782  27.717   7.901
  202POPC   C1B 7351  33.226  27.879   8.761
  202POPC   C2B 7352  33.291  28.046   8.358
  202POPC   C3B 7353  33.210  28.044   7.922
  202POPC   C4B 7354  33.318  27.795   7.550
  203POPC   NC3 7355  37.256  37.366   9.543
  203POPC   PO4 7356  36.565  37.523   9.588
  203POPC   GL1 7357  36.876  37.590   9.288
  203POPC   GL2 7358  37.139  37.824   9.327
  203POPC   C1A 7359  36.929  37.561   8.891
  203POPC   D2A 7360  36.811  37.597   8.472
  203POPC   C3A 7361  37.096  37.499   8.193
  203POPC   C4A 7362  36.894  37.419   7.855
  203POPC   C1B 7363  37.194  37.988   8.890
  203POPC   C2B 7364  37.217  37.910   8.468
  203POPC   C3B 7365  37.277  37.947   8.015
  203POPC   C4B 7366  37.386  37.602   7.739
  204POPC   NC3 7367  17.821   3.098   9.535
  204POPC   PO4 7368  18.511   2.931   9.504
  204POPC   GL1 7369  18.193   2.829   9.167
  204POPC   GL2 7370  18.038   2.443   9.144
  204POPC   C1A 7371  18.353   2.930   8.756
  204POPC   D2A 7372  18.550   3.168   8.372
  204POPC   C3A 7373  18.333   2.973   8.030
  204POPC   C4A 7374  18.316   2.785   7.662
  204POPC   C1B 7375  17.951   2.600   8.764
  204POPC   C2B 7376  18.068   2.748   8.385
  204POPC   C3B 7377  17.985   2.585   7.998
  204POPC   C4B 7378  17.787   2.403   7.658
  205POPC   NC3 7379  34.882  24.992   9.454
  205POPC   PO4 7380  34.359  25.397   9.530
  205POPC   GL1 7381  34.545  25.319   9.168
  205POPC   GL2 7382  34.793  25.562   9.140
  205POPC   C1A 7383  34.448  25.407   8.733
  205POPC   D2A 7384  34.418  25.623   8.352
  205POPC   C3A 7385  34.183  25.411   8.043
  205POPC   C4A 7386  34.278  25.001   7.769
  205POPC   C1B 7387  34.906  25.233   8.807
  205POPC   C2B 7388  34.932  24.988   8.427
  205POPC   C3B 7389  34.662  25.107   8.104
  205POPC   C4B 7390  34.640  25.499   7.876
  206POPC   NC3 7391  29.208  30.951   9.491
  206POPC   PO4 7392  29.069  30.247   9.477
  206POPC   GL1 7393  29.024  30.579   9.195
  206POPC   GL2 7394  29.339  30.572   9.013
  206POPC   C1A 7395  28.894  30.727   8.797
  206POPC   D2A 7396  29.055  30.617   8.405
  206POPC   C3A 7397  28.914  30.726   8.023
  206POPC   C4A 7398  28.920  30.969   7.681
  206POPC   C1B 7399  29.397  30.883   8.712
  206POPC   C2B 7400  29.331  31.042   8.300
  206POPC   C3B 7401  29.419  30.920   7.862
  206POPC   C4B 7402  29.340  30.824   7.393
  207POPC   NC3 7403  28.833  18.757   9.524
  207POPC   PO4 7404  28.790  19.376   9.397
  207POPC   GL1 7405  28.824  19.030   9.091
  207POPC   GL2 7406  29.137  18.810   9.127
  207POPC   C1A 7407  28.911  19.038   8.661
  207POPC   D2A 7408  29.178  19.278   8.382
  207POPC   C3A 7409  29.013  19.267   7.979
  207POPC   C4A 7410  29.111  19.263   7.562
  207POPC   C1B 7411  29.186  18.590   8.751
  207POPC   C2B 7412  29.301  18.766   8.356
  207POPC   C3B 7413  29.287  18.853   7.934
  207POPC   C4B 7414  28.886  18.795   7.719
  208POPC   NC3 7415  38.802  42.479   9.574
  208POPC   PO4 7416  38.365  42.016   9.547
  208POPC   GL1 7417  38.396  42.344   9.188
  208POPC   GL2 7418  38.660  42.587   9.094
  208POPC   C1A 7419  38.441  42.333   8.713
  208POPC   D2A 7420  38.575  42.426   8.268
  208POPC   C3A 7421  38.289  42.273   7.951
  208POPC   C4A 7422  38.041  42.324   7.588
  208POPC   C1B 7423  38.848  42.639   8.665
  208POPC   C2B 7424  39.029  42.855   8.298
  208POPC   C3B 7425  38.983  42.689   7.903
  208POPC   C4B 7426  38.559  42.663   7.790
  209POPC   NC3 7427  27.935   4.275   9.264
  209POPC   PO4 7428  28.467   4.673   9.506
  209POPC   GL1 7429  28.321   4.576   9.112
  209POPC   GL2 7430  28.460   4.245   9.065
  209POPC   C1A 7431  28.417   4.525   8.662
  209POPC   D2A 7432  28.765   4.340   8.462
  209POPC   C3A 7433  28.739   4.425   8.022
  209POPC   C4A 7434  28.402   4.357   7.759
  209POPC   C1B 7435  28.405   4.020   8.682
  209POPC   C2B 7436  28.412   4.048   8.214
  209POPC   C3B 7437  28.413   3.854   7.810
  209POPC   C4B 7438  28.176   4.020   7.429
  210POPC   NC3 7439  11.702  43.788   9.407
  210POPC   PO4 7440  12.232  44.247   9.377
  210POPC   GL1 7441  12.058  44.035   9.063
  210POPC   GL2 7442  12.227  43.746   9.146
  210POPC   C1A 7443  11.812  43.867   8.720
  210POPC   D2A 7444  11.541  43.554   8.491
  210POPC   C3A 7445  11.667  43.676   8.077
  210POPC   C4A 7446  11.734  44.124   7.904
  210POPC   C1B 7447  12.335  43.688   8.716
  210POPC   C2B 7448  12.147  43.766   8.287
  210POPC   C3B 7449  12.134  43.832   7.793
  210POPC   C4B 7450  12.263  43.636   7.354
  211POPC   NC3 7451   0.671  20.861   9.580
  211POPC   PO4 7452   0.148  21.159   9.418
  211POPC   GL1 7453   0.285  20.794   9.166
  211POPC   GL2 7454   0.650  20.780   9.068
  211POPC   C1A 7455   0.295  20.677   8.712
  211POPC   D2A 7456   0.551  20.814   8.357
  211POPC   C3A 7457   0.351  20.874   7.969
  211POPC   C4A 7458   0.420  20.781   7.533
  211POPC   C1B 7459   0.798  20.519   8.710
  211POPC   C2B 7460   0.997  20.583   8.319
  211POPC   C3B 7461   0.814  20.632   7.924
  211POPC   C4B 7462   0.781  20.345   7.625
  212POPC   NC3 7463  28.212  32.417   9.601
  212POPC   PO4 7464  28.492  31.838   9.457
  212POPC   GL1 7465  28.255  32.117   9.180
  212POPC   GL2 7466  28.578  32.255   9.102
  212POPC   C1A 7467  28.243  32.377   8.747
  212POPC   D2A 7468  28.306  32.319   8.266
  212POPC   C3A 7469  28.582  32.557   7.933
  212POPC   C4A 7470  28.271  32.559   7.641
  212POPC   C1B 7471  28.445  31.910   8.767
  212POPC   C2B 7472  28.183  31.769   8.420
  212POPC   C3B 7473  28.158  31.919   7.987
  212POPC   C4B 7474  28.513  32.071   7.747
  213POPC   NC3 7475  30.245  10.693   9.543
  213POPC   PO4 7476  29.727  10.393   9.695
  213POPC   GL1 7477  29.851  10.457   9.230
  213POPC   GL2 7478  29.813  10.801   9.141
  213POPC   C1A 7479  29.932  10.486   8.742
  213POPC   D2A 7480  29.923  10.777   8.364
  213POPC   C3A 7481  29.952  10.643   7.969
  213POPC   C4A 7482  29.873  10.525   7.569
  213POPC   C1B 7483  29.628  10.965   8.723
  213POPC   C2B 7484  29.517  11.086   8.261
  213POPC   C3B 7485  29.723  11.075   7.828
  213POPC   C4B 7486  29.876  11.036   7.381
  214POPC   NC3 7487  42.482  20.649   9.629
  214POPC   PO4 7488  41.828  20.545   9.782
  214POPC   GL1 7489  41.995  20.770   9.321
  214POPC   GL2 7490  42.377  20.745   9.146
  214POPC   C1A 7491  41.991  20.669   8.844
  214POPC   D2A 7492  42.174  20.370   8.538
  214POPC   C3A 7493  42.278  20.541   8.132
  214POPC   C4A 7494  42.255  20.362   7.736
  214POPC   C1B 7495  42.563  20.442   8.849
  214POPC   C2B 7496  42.699  20.261   8.430
  214POPC   C3B 7497  42.728  20.372   7.984
  214POPC   C4B 7498  42.582  20.739   7.727
  215POPC   NC3 7499   2.033  26.859   9.343
  215POPC   PO4 7500   1.445  26.830   9.694
  215POPC   GL1 7501   1.573  26.633   9.200
  215POPC   GL2 7502   1.878  26.597   8.949
  215POPC   C1A 7503   1.548  26.817   8.692
  215POPC   D2A 7504   1.875  26.806   8.408
  215POPC   C3A 7505   1.828  26.871   7.999
  215POPC   C4A 7506   2.013  26.660   7.692
  215POPC   C1B 7507   2.214  26.919   8.768
  215POPC   C2B 7508   2.387  26.976   8.421
  215POPC   C3B 7509   2.358  26.887   8.021
  215POPC   C4B 7510   2.181  27.146   7.732
  216POPC   NC3 7511  23.307  22.794   9.338
  216POPC   PO4 7512  22.707  22.706   9.489
  216POPC   GL1 7513  22.715  22.710   9.056
  216POPC   GL2 7514  22.883  23.015   9.086
  216POPC   C1A 7515  23.030  22.634   8.723
  216POPC   D2A 7516  23.054  22.809   8.306
  216POPC   C3A 7517  22.689  22.776   8.068
  216POPC   C4A 7518  22.781  22.509   7.756
  216POPC   C1B 7519  22.792  23.072   8.665
  216POPC   C2B 7520  22.872  23.288   8.284
  216POPC   C3B 7521  22.936  23.183   7.864
  216POPC   C4B 7522  22.918  23.324   7.433
  217POPC   NC3 7523  18.489  38.982   9.679
  217POPC   PO4 7524  18.218  39.508   9.706
  217POPC   GL1 7525  18.412  39.313   9.286
  217POPC   GL2 7526  18.416  38.940   9.161
  217POPC   C1A 7527  18.530  39.357   8.827
  217POPC   D2A 7528  18.395  39.028   8.501
  217POPC   C3A 7529  18.487  39.006   8.086
  217POPC   C4A 7530  18.550  39.346   7.830
  217POPC   C1B 7531  18.074  39.132   8.878
  217POPC   C2B 7532  18.036  39.393   8.457
  217POPC   C3B 7533  18.043  39.268   7.987
  217POPC   C4B 7534  18.191  38.962   7.682
  218POPC   NC3 7535  42.752  41.661   9.529
  218POPC   PO4 7536  43.243  41.764   9.076
  218POPC   GL1 7537  42.846  41.621   8.920
  218POPC   GL2 7538  42.583  41.484   9.090
  218POPC   C1A 7539  42.589  41.608   8.525
  218POPC   D2A 7540  42.707  41.904   8.219
  218POPC   C3A 7541  43.163  41.814   8.158
  218POPC   C4A 7542  43.375  41.524   7.872
  218POPC   C1B 7543  42.591  41.188   8.823
  218POPC   C2B 7544  42.862  41.186   8.448
  218POPC   C3B 7545  42.877  41.378   8.063
  218POPC   C4B 7546  42.988  41.317   7.624
  219POPC   NC3 7547  13.969   3.821   9.378
  219POPC   PO4 7548  13.981   3.105   9.520
  219POPC   GL1 7549  13.724   3.365   9.213
  219POPC   GL2 7550  13.392   3.458   9.250
  219POPC   C1A 7551  13.848   3.501   8.792
  219POPC   D2A 7552  14.029   3.391   8.370
  219POPC   C3A 7553  13.855   3.665   8.040
  219POPC   C4A 7554  13.490   3.703   7.777
  219POPC   C1B 7555  13.326   3.418   8.810
  219POPC   C2B 7556  13.513   3.459   8.390
  219POPC   C3B 7557  13.551   3.224   8.010
  219POPC   C4B 7558  13.259   3.256   7.665
  220POPC   NC3 7559  34.155  39.037   9.340
  220POPC   PO4 7560  34.575  38.506   9.583
  220POPC   GL1 7561  34.635  38.346   9.160
  220POPC   GL2 7562  34.282  38.418   9.047
  220POPC   C1A 7563  34.651  38.201   8.734
  220POPC   D2A 7564  34.574  38.415   8.365
  220POPC   C3A 7565  34.699  38.203   8.000
  220POPC   C4A 7566  34.736  38.405   7.577
  220POPC   C1B 7567  34.115  38.248   8.629
  220POPC   C2B 7568  34.191  38.100   8.193
  220POPC   C3B 7569  34.272  38.302   7.777
  220POPC   C4B 7570  34.299  38.392   7.321
  221POPC   NC3 7571  41.006   0.677   9.487
  221POPC   PO4 7572  40.467   0.166   9.491
  221POPC   GL1 7573  40.710   0.370   9.166
  221POPC   GL2 7574  41.083   0.338   9.110
  221POPC   C1A 7575  40.754   0.322   8.718
  221POPC   D2A 7576  40.561   0.525   8.351
  221POPC   C3A 7577  40.675   0.295   7.975
  221POPC   C4A 7578  40.711   0.463   7.526
  221POPC   C1B 7579  41.246   0.487   8.709
  221POPC   C2B 7580  41.074   0.538   8.309
  221POPC   C3B 7581  41.004   0.675   7.905
  221POPC   C4B 7582  41.217   0.576   7.520
  222POPC   NC3 7583   6.586   9.119   9.729
  222POPC   PO4 7584   6.594   8.499   9.565
  222POPC   GL1 7585   6.655   8.810   9.233
  222POPC   GL2 7586   6.501   9.140   9.210
  222POPC   C1A 7587   6.469   8.792   8.819
  222POPC   D2A 7588   6.625   8.882   8.410
  222POPC   C3A 7589   6.442   8.771   8.015
  222POPC   C4A 7590   6.634   8.832   7.577
  222POPC   C1B 7591   6.670   9.270   8.814
  222POPC   C2B 7592   6.661   9.413   8.402
  222POPC   C3B 7593   6.775   9.269   8.013
  222POPC   C4B 7594   6.414   9.228   7.813
  223POPC   NC3 7595   7.040   5.647   9.484
  223POPC   PO4 7596   7.589   6.070   9.499
  223POPC   GL1 7597   7.474   5.758   9.192
  223POPC   GL2 7598   7.745   5.868   9.029
  223POPC   C1A 7599   7.392   5.652   8.749
  223POPC   D2A 7600   7.347   5.854   8.317
  223POPC   C3A 7601   7.498   5.685   7.905
  223POPC   C4A 7602   7.339   5.371   7.637
  223POPC   C1B 7603   7.572   6.136   8.699
  223POPC   C2B 7604   7.751   6.170   8.276
  223POPC   C3B 7605   7.728   6.146   7.831
  223POPC   C4B 7606   7.811   6.462   7.471
  224POPC   NC3 7607   6.087  32.178   9.506
  224POPC   PO4 7608   5.519  32.086   9.673
  224POPC   GL1 7609   5.669  31.970   9.231
  224POPC   GL2 7610   5.572  32.309   9.117
  224POPC   C1A 7611   5.907  32.016   8.806
  224POPC   D2A 7612   5.795  32.270   8.439
  224POPC   C3A 7613   5.945  32.366   8.024
  224POPC   C4A 7614   5.878  32.298   7.586
  224POPC   C1B 7615   5.399  32.089   8.760
  224POPC   C2B 7616   5.500  31.855   8.365
  224POPC   C3B 7617   5.701  31.901   7.952
  224POPC   C4B 7618   5.561  31.922   7.497
  225POPC   NC3 7619  12.784  11.576   9.962
  225POPC   PO4 7620  12.696  11.222   9.499
  225POPC   GL1 7621  12.749  11.554   9.130
  225POPC   GL2 7622  13.011  11.349   8.996
  225POPC   C1A 7623  12.804  11.617   8.622
  225POPC   D2A 7624  12.956  11.318   8.265
  225POPC   C3A 7625  12.672  11.212   7.891
  225POPC   C4A 7626  12.623  11.262   7.431
  225POPC   C1B 7627  13.201  11.769   8.907
  225POPC   C2B 7628  13.253  11.914   8.485
  225POPC   C3B 7629  13.196  11.716   8.083
  225POPC   C4B 7630  13.012  11.544   7.740
  226POPC   NC3 7631   2.735   0.883   9.407
  226POPC   PO4 7632   2.176   1.227   9.450
  226POPC   GL1 7633   2.432   1.227   9.094
  226POPC   GL2 7634   2.787   1.332   9.157
  226POPC   C1A 7635   2.566   1.320   8.677
  226POPC   D2A 7636   2.819   1.346   8.316
  226POPC   C3A 7637   2.537   1.401   7.994
  226POPC   C4A 7638   2.343   1.334   7.614
  226POPC   C1B 7639   3.073   1.303   8.802
  226POPC   C2B 7640   3.112   0.962   8.527
  226POPC   C3B 7641   3.091   0.917   8.114
  226POPC   C4B 7642   2.968   1.230   7.777
  227POPC   NC3 7643  41.459  44.844   9.486
  227POPC   PO4 7644  41.964  44.401   9.187
  227POPC   GL1 7645  41.702  44.669   9.058
  227POPC   GL2 7646  41.347  44.596   9.068
  227POPC   C1A 7647  41.752  44.874   8.677
  227POPC   D2A 7648  41.827  44.731   8.303
  227POPC   C3A 7649  41.796   0.036   8.003
  227POPC   C4A 7650  41.789  44.761   7.664
  227POPC   C1B 7651  41.402  44.491   8.688
  227POPC   C2B 7652  41.254  44.625   8.353
  227POPC   C3B 7653  41.391  44.689   7.984
  227POPC   C4B 7654  41.185  44.614   7.637
  228POPC   NC3 7655   4.609   7.961   9.646
  228POPC   PO4 7656   4.197   8.450   9.499
  228POPC   GL1 7657   4.252   8.114   9.193
  228POPC   GL2 7658   4.553   8.005   9.109
  228POPC   C1A 7659   4.175   8.056   8.772
  228POPC   D2A 7660   4.389   8.076   8.371
  228POPC   C3A 7661   4.206   8.114   7.957
  228POPC   C4A 7662   4.306   8.344   7.566
  228POPC   C1B 7663   4.780   7.961   8.697
  228POPC   C2B 7664   4.791   7.773   8.313
  228POPC   C3B 7665   4.642   7.871   7.943
  228POPC   C4B 7666   4.422   7.869   7.534
  229POPC   NC3 7667  39.717  30.215   9.350
  229POPC   PO4 7668  39.308  29.867   9.817
  229POPC   GL1 7669  39.328  29.875   9.334
  229POPC   GL2 7670  39.199  30.241   9.266
  229POPC   C1A 7671  39.432  29.716   8.886
  229POPC   D2A 7672  39.256  29.895   8.496
  229POPC   C3A 7673  39.271  29.770   8.069
  229POPC   C4A 7674  39.476  30.035   7.735
  229POPC   C1B 7675  38.996  30.000   8.928
  229POPC   C2B 7676  38.751  29.805   8.551
  229POPC   C3B 7677  38.732  29.921   8.097
  229POPC   C4B 7678  38.961  29.988   7.686
  230POPC   NC3 7679  15.765  43.238   9.955
  230POPC   PO4 7680  16.029  43.093   9.312
  230POPC   GL1 7681  15.923  42.909   8.996
  230POPC   GL2 7682  16.202  42.686   9.042
  230POPC   C1A 7683  15.826  43.206   8.686
  230POPC   D2A 7684  15.686  43.402   8.340
  230POPC   C3A 7685  15.639  43.117   8.038
  230POPC   C4A 7686  15.861  43.334   7.758
  230POPC   C1B 7687  16.326  42.999   8.706
  230POPC   C2B 7688  16.156  43.092   8.297
  230POPC   C3B 7689  16.332  43.250   7.946
  230POPC   C4B 7690  16.287  43.132   7.535
  231POPC   NC3 7691  24.337  37.691   9.695
  231POPC   PO4 7692  24.762  37.320   9.684
  231POPC   GL1 7693  24.490  37.420   9.270
  231POPC   GL2 7694  24.312  37.737   9.187
  231POPC   C1A 7695  24.532  37.409   8.802
  231POPC   D2A 7696  24.353  37.527   8.392
  231POPC   C3A 7697  24.550  37.467   7.986
  231POPC   C4A 7698  24.842  37.656   7.679
  231POPC   C1B 7699  24.298  37.882   8.776
  231POPC   C2B 7700  24.238  38.033   8.348
  231POPC   C3B 7701  24.477  37.971   7.978
  231POPC   C4B 7702  24.360  37.805   7.590
  232POPC   NC3 7703  20.816  30.220   9.541
  232POPC   PO4 7704  20.364  29.740   9.416
  232POPC   GL1 7705  20.550  30.045   9.143
  232POPC   GL2 7706  20.879  29.901   9.140
  232POPC   C1A 7707  20.626  30.127   8.716
  232POPC   D2A 7708  20.526  29.806   8.378
  232POPC   C3A 7709  20.569  30.014   7.983
  232POPC   C4A 7710  20.352  30.282   7.715
  232POPC   C1B 7711  20.900  29.699   8.737
  232POPC   C2B 7712  21.048  29.836   8.324
  232POPC   C3B 7713  20.953  29.689   7.884
  232POPC   C4B 7714  20.547  29.497   7.767
  233POPC   NC3 7715   1.590   8.755   9.592
  233POPC   PO4 7716   1.926   9.260   9.405
  233POPC   GL1 7717   2.091   9.013   9.083
  233POPC   GL2 7718   1.836   8.759   9.130
  233POPC   C1A 7719   2.069   9.127   8.636
  233POPC   D2A 7720   1.888   9.219   8.201
  233POPC   C3A 7721   2.207   9.179   7.869
  233POPC   C4A 7722   2.079   9.007   7.442
  233POPC   C1B 7723   1.777   8.619   8.697
  233POPC   C2B 7724   1.661   8.743   8.262
  233POPC   C3B 7725   1.814   8.826   7.848
  233POPC   C4B 7726   1.572   8.833   7.471
  234POPC   NC3 7727   3.363  23.266   9.339
  234POPC   PO4 7728   3.538  23.931   9.539
  234POPC   GL1 7729   3.565  23.735   9.130
  234POPC   GL2 7730   3.787  23.411   9.082
  234POPC   C1A 7731   3.663  23.969   8.734
  234POPC   D2A 7732   3.595  24.208   8.350
  234POPC   C3A 7733   3.536  23.942   8.008
  234POPC   C4A 7734   3.337  23.980   7.598
  234POPC   C1B 7735   3.533  23.470   8.694
  234POPC   C2B 7736   3.731  23.404   8.302
  234POPC   C3B 7737   3.798  23.519   7.880
  234POPC   C4B 7738   3.346  23.510   7.745
  235POPC   NC3 7739   2.816   6.728   9.566
  235POPC   PO4 7740   2.615   6.158   9.476
  235POPC   GL1 7741   2.551   6.473   9.133
  235POPC   GL2 7742   2.530   6.834   9.162
  235POPC   C1A 7743   2.829   6.532   8.776
  235POPC   D2A 7744   2.979   6.752   8.406
  235POPC   C3A 7745   2.961   6.440   8.079
  235POPC   C4A 7746   2.623   6.236   7.827
  235POPC   C1B 7747   2.715   7.025   8.806
  235POPC   C2B 7748   2.553   7.102   8.412
  235POPC   C3B 7749   2.495   7.010   8.005
  235POPC   C4B 7750   2.722   6.750   7.767
  236POPC   NC3 7751   3.731  29.041   9.548
  236POPC   PO4 7752   3.213  28.615   9.330
  236POPC   GL1 7753   3.403  28.961   9.163
  236POPC   GL2 7754   3.725  28.859   9.077
  236POPC   C1A 7755   3.362  29.229   8.800
  236POPC   D2A 7756   3.081  29.229   8.455
  236POPC   C3A 7757   3.268  29.080   8.105
  236POPC   C4A 7758   3.269  28.916   7.725
  236POPC   C1B 7759   3.863  29.122   8.760
  236POPC   C2B 7760   3.706  29.181   8.352
  236POPC   C3B 7761   3.732  28.905   7.982
  236POPC   C4B 7762   3.769  28.843   7.550
  237POPC   NC3 7763  31.292  17.360   9.640
  237POPC   PO4 7764  31.711  17.826   9.559
  237POPC   GL1 7765  31.456  17.598   9.194
  237POPC   GL2 7766  31.133  17.376   9.157
  237POPC   C1A 7767  31.385  17.673   8.737
  237POPC   D2A 7768  31.375  17.832   8.300
  237POPC   C3A 7769  31.570  17.671   7.943
  237POPC   C4A 7770  31.840  17.322   7.850
  237POPC   C1B 7771  31.212  17.188   8.778
  237POPC   C2B 7772  31.477  17.185   8.426
  237POPC   C3B 7773  31.364  17.200   8.016
  237POPC   C4B 7774  31.082  17.137   7.715
  238POPC   NC3 7775  34.250  18.440   9.439
  238POPC   PO4 7776  34.381  17.790   9.610
  238POPC   GL1 7777  34.536  17.889   9.138
  238POPC   GL2 7778  34.498  18.256   9.021
  238POPC   C1A 7779  34.668  17.937   8.659
  238POPC   D2A 7780  34.428  18.040   8.245
  238POPC   C3A 7781  34.613  18.291   7.924
  238POPC   C4A 7782  35.013  18.181   7.711
  238POPC   C1B 7783  34.449  18.412   8.578
  238POPC   C2B 7784  34.442  18.683   8.210
  238POPC   C3B 7785  34.307  18.689   7.766
  238POPC   C4B 7786  34.290  18.522   7.336
  239POPC   NC3 7787  17.580  20.425   9.417
  239POPC   PO4 7788  17.069  20.870   9.586
  239POPC   GL1 7789  17.201  20.638   9.161
  239POPC   GL2 7790  17.549  20.727   9.024
  239POPC   C1A 7791  17.246  20.481   8.721
  239POPC   D2A 7792  17.521  20.668   8.392
  239POPC   C3A 7793  17.315  20.638   7.999
  239POPC   C4A 7794  17.281  20.544   7.535
  239POPC   C1B 7795  17.744  20.382   8.776
  239POPC   C2B 7796  17.716  20.197   8.387
  239POPC   C3B 7797  17.906  20.252   8.030
  239POPC   C4B 7798  17.753  20.624   7.772
  240POPC   NC3 7799  29.702  31.945   9.588
  240POPC   PO4 7800  29.958  32.570   9.652
  240POPC   GL1 7801  29.993  32.292   9.251
  240POPC   GL2 7802  30.022  31.930   9.146
  240POPC   C1A 7803  29.951  32.297   8.789
  240POPC   D2A 7804  30.208  32.175   8.416
  240POPC   C3A 7805  30.004  32.213   8.015
  240POPC   C4A 7806  30.040  32.359   7.598
  240POPC   C1B 7807  29.723  31.845   8.807
  240POPC   C2B 7808  29.711  32.034   8.407
  240POPC   C3B 7809  29.637  31.837   8.038
  240POPC   C4B 7810  29.759  31.742   7.633
  241POPC   NC3 7811  36.643  43.244   9.272
  241POPC   PO4 7812  35.995  43.118   9.531
  241POPC   GL1 7813  36.122  43.091   9.125
  241POPC   GL2 7814  36.378  42.826   9.111
  241POPC   C1A 7815  36.001  43.220   8.711
  241POPC   D2A 7816  36.073  43.367   8.280
  241POPC   C3A 7817  35.901  43.129   7.927
  241POPC   C4A 7818  35.720  43.199   7.494
  241POPC   C1B 7819  36.080  42.714   8.780
  241POPC   C2B 7820  36.073  42.839   8.353
  241POPC   C3B 7821  36.309  42.866   8.002
  241POPC   C4B 7822  36.382  42.740   7.644
  242POPC   NC3 7823  39.214  35.583   9.480
  242POPC   PO4 7824  39.676  35.167   9.619
  242POPC   GL1 7825  39.590  35.526   9.176
  242POPC   GL2 7826  39.200  35.471   9.007
  242POPC   C1A 7827  39.585  35.555   8.714
  242POPC   D2A 7828  39.714  35.448   8.325
  242POPC   C3A 7829  39.362  35.234   8.103
  242POPC   C4A 7830  39.093  35.551   7.906
  242POPC   C1B 7831  38.946  35.149   8.795
  242POPC   C2B 7832  38.903  34.982   8.387
  242POPC   C3B 7833  38.834  35.135   7.988
  242POPC   C4B 7834  39.151  35.062   7.635
  243POPC   NC3 7835  43.706  19.740   9.407
  243POPC   PO4 7836  43.493  20.292   9.183
  243POPC   GL1 7837  43.790  20.021   8.978
  243POPC   GL2 7838  44.128  19.963   9.105
  243POPC   C1A 7839  43.795  19.807   8.606
  243POPC   D2A 7840  43.659  19.966   8.229
  243POPC   C3A 7841  43.738  19.701   7.878
  243POPC   C4A 7842  43.898  19.613   7.471
  243POPC   C1B 7843  44.293  19.861   8.673
  243POPC   C2B 7844  44.184  19.878   8.257
  243POPC   C3B 7845  44.046  20.183   7.961
  243POPC   C4B 7846  43.661  20.185   7.758
  244POPC   NC3 7847   4.381  41.199   9.481
  244POPC   PO4 7848   4.488  41.764   9.532
  244POPC   GL1 7849   4.339  41.646   9.155
  244POPC   GL2 7850   4.036  41.477   9.196
  244POPC   C1A 7851   4.334  41.811   8.759
  244POPC   D2A 7852   4.383  41.597   8.393
  244POPC   C3A 7853   4.479  41.795   8.019
  244POPC   C4A 7854   4.398  41.522   7.669
  244POPC   C1B 7855   3.934  41.499   8.781
  244POPC   C2B 7856   3.844  41.514   8.365
  244POPC   C3B 7857   4.009  41.592   8.004
  244POPC   C4B 7858   3.932  41.306   7.696
  245POPC   NC3 7859  42.612  36.804   9.503
  245POPC   PO4 7860  42.288  37.447   9.586
  245POPC   GL1 7861  42.486  37.219   9.215
  245POPC   GL2 7862  42.317  36.934   9.064
  245POPC   C1A 7863  42.563  37.295   8.753
  245POPC   D2A 7864  42.710  37.118   8.342
  245POPC   C3A 7865  42.407  36.979   8.029
  245POPC   C4A 7866  42.345  37.144   7.587
  245POPC   C1B 7867  42.358  36.830   8.604
  245POPC   C2B 7868  42.453  36.503   8.280
  245POPC   C3B 7869  42.428  36.491   7.823
  245POPC   C4B 7870  42.120  36.592   7.500
  246POPC   NC3 7871  22.289  31.281   9.757
  246POPC   PO4 7872  21.667  31.612   9.700
  246POPC   GL1 7873  22.076  31.597   9.388
  246POPC   GL2 7874  22.203  31.260   9.247
  246POPC   C1A 7875  22.266  31.681   8.938
  246POPC   D2A 7876  22.199  31.890   8.513
  246POPC   C3A 7877  22.415  31.748   8.131
  246POPC   C4A 7878  22.252  31.704   7.704
  246POPC   C1B 7879  22.149  31.159   8.803
  246POPC   C2B 7880  22.167  31.379   8.400
  246POPC   C3B 7881  22.296  31.269   7.968
  246POPC   C4B 7882  22.654  31.058   7.729
  247POPC   NC3 7883  10.389  17.740   9.543
  247POPC   PO4 7884  10.598  17.130   9.573
  247POPC   GL1 7885  10.663  17.298   9.164
  247POPC   GL2 7886  10.369  17.437   9.124
  247POPC   C1A 7887  10.867  17.235   8.737
  247POPC   D2A 7888  10.621  17.245   8.364
  247POPC   C3A 7889  10.772  17.188   7.973
  247POPC   C4A 7890  10.690  17.359   7.575
  247POPC   C1B 7891  10.562  17.639   8.730
  247POPC   C2B 7892  10.811  17.710   8.325
  247POPC   C3B 7893  10.519  17.637   7.989
  247POPC   C4B 7894  10.239  17.893   7.778
  248POPC   NC3 7895   1.913   5.383   9.367
  248POPC   PO4 7896   1.990   4.739   9.413
  248POPC   GL1 7897   1.887   4.838   9.029
  248POPC   GL2 7898   1.588   4.697   8.902
  248POPC   C1A 7899   2.019   4.968   8.629
  248POPC   D2A 7900   2.116   5.210   8.254
  248POPC   C3A 7901   2.001   4.957   7.919
  248POPC   C4A 7902   2.175   5.041   7.501
  248POPC   C1B 7903   1.565   5.164   8.821
  248POPC   C2B 7904   1.690   5.377   8.462
  248POPC   C3B 7905   1.560   5.240   8.046
  248POPC   C4B 7906   1.739   5.291   7.627
  249POPC   NC3 7907  28.874   4.873   9.385
  249POPC   PO4 7908  29.259   5.354   9.698
  249POPC   GL1 7909  29.152   5.316   9.235
  249POPC   GL2 7910  29.389   5.100   9.181
  249POPC   C1A 7911  29.028   5.187   8.778
  249POPC   D2A 7912  28.880   5.333   8.348
  249POPC   C3A 7913  28.864   5.086   7.948
  249POPC   C4A 7914  29.071   4.707   7.755
  249POPC   C1B 7915  29.476   5.436   8.868
  249POPC   C2B 7916  29.517   5.490   8.437
  249POPC   C3B 7917  29.299   5.434   8.065
  249POPC   C4B 7918  29.343   5.130   7.782
  250POPC   NC3 7919   5.944  41.883   9.547
  250POPC   PO4 7920   5.811  42.602   9.550
  250POPC   GL1 7921   5.709  42.317   9.211
  250POPC   GL2 7922   5.996  42.154   9.101
  250POPC   C1A 7923   5.600  42.297   8.766
  250POPC   D2A 7924   5.779  42.485   8.394
  250POPC   C3A 7925   5.669  42.268   8.050
  250POPC   C4A 7926   5.764  42.449   7.683
  250POPC   C1B 7927   6.075  42.516   8.808
  250POPC   C2B 7928   6.307  42.510   8.406
  250POPC   C3B 7929   6.169  42.356   8.002
  250POPC   C4B 7930   6.254  42.459   7.550
  251POPC   NC3 7931  16.689  30.542   9.258
  251POPC   PO4 7932  17.271  30.278   9.514
  251POPC   GL1 7933  17.093  30.393   9.036
  251POPC   GL2 7934  17.007  30.803   8.958
  251POPC   C1A 7935  16.823  30.482   8.619
  251POPC   D2A 7936  16.442  30.607   8.337
  251POPC   C3A 7937  16.577  30.554   7.917
  251POPC   C4A 7938  17.007  30.483   7.876
  251POPC   C1B 7939  16.833  31.098   8.681
  251POPC   C2B 7940  16.873  30.901   8.293
  251POPC   C3B 7941  16.872  30.997   7.896
  251POPC   C4B 7942  16.869  30.819   7.501
  252POPC   NC3 7943   6.377  10.669   9.625
  252POPC   PO4 7944   6.291  10.123   9.409
  252POPC   GL1 7945   6.536  10.425   9.191
  252POPC   GL2 7946   6.918  10.472   9.203
  252POPC   C1A 7947   6.544  10.409   8.776
  252POPC   D2A 7948   6.355  10.611   8.422
  252POPC   C3A 7949   6.496  10.387   8.040
  252POPC   C4A 7950   6.519  10.193   7.624
  252POPC   C1B 7951   6.921  10.741   8.810
  252POPC   C2B 7952   6.863  10.538   8.388
  252POPC   C3B 7953   6.974  10.541   7.929
  252POPC   C4B 7954   7.033  10.855   7.587
  253POPC   NC3 7955   5.873  11.623   9.611
  253POPC   PO4 7956   5.652  12.316   9.447
  253POPC   GL1 7957   5.761  12.188   9.085
  253POPC   GL2 7958   6.102  12.140   9.108
  253POPC   C1A 7959   5.799  12.278   8.655
  253POPC   D2A 7960   5.828  12.345   8.200
  253POPC   C3A 7961   5.712  12.038   7.909
  253POPC   C4A 7962   5.386  11.818   7.756
  253POPC   C1B 7963   5.974  11.813   8.803
  253POPC   C2B 7964   6.065  11.925   8.378
  253POPC   C3B 7965   6.210  12.022   7.978
  253POPC   C4B 7966   6.275  11.638   7.795
  254POPC   NC3 7967  39.316  14.876   9.668
  254POPC   PO4 7968  39.005  15.408   9.742
  254POPC   GL1 7969  38.989  15.149   9.356
  254POPC   GL2 7970  39.279  15.264   9.214
  254POPC   C1A 7971  38.962  15.030   8.887
  254POPC   D2A 7972  39.001  15.197   8.488
  254POPC   C3A 7973  39.096  15.026   8.107
  254POPC   C4A 7974  39.008  15.124   7.696
  254POPC   C1B 7975  39.410  15.319   8.772
  254POPC   C2B 7976  39.413  15.423   8.307
  254POPC   C3B 7977  39.513  15.245   7.906
  254POPC   C4B 7978  39.834  15.370   7.612
  255POPC   NC3 7979  23.633   0.650  10.155
  255POPC   PO4 7980  23.852   0.206   9.828
  255POPC   GL1 7981  23.858   0.192   9.314
  255POPC   GL2 7982  23.913   0.527   9.180
  255POPC   C1A 7983  23.898   0.095   8.851
  255POPC   D2A 7984  23.670   0.181   8.450
  255POPC   C3A 7985  23.858   0.149   8.028
  255POPC   C4A 7986  23.993   0.345   7.637
  255POPC   C1B 7987  23.738   0.612   8.772
  255POPC   C2B 7988  23.807   0.674   8.328
  255POPC   C3B 7989  23.615   0.624   7.922
  255POPC   C4B 7990  23.195   0.665   7.704
  256POPC   NC3 7991  24.899  31.320   9.348
  256POPC   PO4 7992  24.367  31.763   9.489
  256POPC   GL1 7993  24.526  31.611   9.081
  256POPC   GL2 7994  24.877  31.697   8.952
  256POPC   C1A 7995  24.551  31.382   8.705
  256POPC   D2A 7996  24.328  31.101   8.472
  256POPC   C3A 7997  24.354  31.289   8.092
  256POPC   C4A 7998  24.243  31.578   7.820
  256POPC   C1B 7999  24.601  31.912   8.670
  256POPC   C2B 8000  24.431  31.765   8.300
  256POPC   C3B 8001  24.689  31.763   7.959
  256POPC   C4B 8002  24.719  31.416   7.672
  257POPC   NC3 8003   5.810   4.135   9.516
  257POPC   PO4 8004   6.270   4.576   9.706
  257POPC   GL1 8005   5.931   4.516   9.223
  257POPC   GL2 8006   5.637   4.324   9.096
  257POPC   C1A 8007   5.958   4.522   8.736
  257POPC   D2A 8008   6.157   4.670   8.338
  257POPC   C3A 8009   5.908   4.550   7.988
  257POPC   C4A 8010   5.456   4.560   7.890
  257POPC   C1B 8011   5.634   4.044   8.788
  257POPC   C2B 8012   5.722   4.223   8.376
  257POPC   C3B 8013   5.694   4.090   7.982
  257POPC   C4B 8014   5.956   3.781   7.829
  258POPC   NC3 8015  32.573  30.415   9.423
  258POPC   PO4 8016  31.969  30.718   9.508
  258POPC   GL1 8017  32.099  30.618   9.148
  258POPC   GL2 8018  32.077  30.281   9.192
  258POPC   C1A 8019  32.111  30.861   8.770
  258POPC   D2A 8020  31.939  30.977   8.365
  258POPC   C3A 8021  32.144  30.705   8.089
  258POPC   C4A 8022  32.454  30.868   7.821
  258POPC   C1B 8023  32.352  30.296   8.833
  258POPC   C2B 8024  32.224  30.333   8.447
  258POPC   C3B 8025  32.385  30.230   8.083
  258POPC   C4B 8026  32.389  30.368   7.715
  259POPC   NC3 8027   1.128  29.909   9.494
  259POPC   PO4 8028   1.312  30.604   9.402
  259POPC   GL1 8029   1.233  30.215   9.098
  259POPC   GL2 8030   1.351  29.820   9.048
  259POPC   C1A 8031   1.075  30.044   8.694
  259POPC   D2A 8032   1.244  29.838   8.328
  259POPC   C3A 8033   1.168  29.978   7.919
  259POPC   C4A 8034   1.430  29.965   7.551
  259POPC   C1B 8035   1.426  29.519   8.690
  259POPC   C2B 8036   1.544  29.422   8.269
  259POPC   C3B 8037   1.374  29.503   7.832
  259POPC   C4B 8038   1.517  29.498   7.387
  260POPC   NC3 8039  35.647  25.042   9.426
  260POPC   PO4 8040  35.075  25.427   9.553
  260POPC   GL1 8041  35.235  25.218   9.179
  260POPC   GL2 8042  35.493  25.381   9.032
  260POPC   C1A 8043  35.322  24.966   8.783
  260POPC   D2A 8044  35.378  25.312   8.500
  260POPC   C3A 8045  35.264  25.234   8.100
  260POPC   C4A 8046  35.031  25.181   7.728
  260POPC   C1B 8047  35.792  25.147   8.764
  260POPC   C2B 8048  35.673  24.923   8.366
  260POPC   C3B 8049  35.730  25.077   7.945
  260POPC   C4B 8050  35.506  24.986   7.544
  261POPC   NC3 8051  18.853  23.345   9.469
  261POPC   PO4 8052  19.189  22.775   9.600
  261POPC   GL1 8053  19.099  22.973   9.204
  261POPC   GL2 8054  18.734  23.063   9.067
  261POPC   C1A 8055  19.078  22.786   8.812
  261POPC   D2A 8056  18.980  23.005   8.449
  261POPC   C3A 8057  18.965  22.752   8.089
  261POPC   C4A 8058  19.238  22.817   7.770
  261POPC   C1B 8059  18.640  23.370   8.725
  261POPC   C2B 8060  18.701  23.401   8.274
  261POPC   C3B 8061  18.968  23.247   7.955
  261POPC   C4B 8062  18.885  23.098   7.545
  262POPC   NC3 8063  17.562  27.360   9.376
  262POPC   PO4 8064  17.687  26.737   9.534
  262POPC   GL1 8065  17.489  26.667   9.129
  262POPC   GL2 8066  17.567  26.997   9.047
  262POPC   C1A 8067  17.443  26.743   8.649
  262POPC   D2A 8068  17.745  26.801   8.372
  262POPC   C3A 8069  17.683  26.624   8.017
  262POPC   C4A 8070  17.514  26.794   7.664
  262POPC   C1B 8071  17.900  27.179   8.793
  262POPC   C2B 8072  17.849  27.298   8.392
  262POPC   C3B 8073  17.774  27.162   7.996
  262POPC   C4B 8074  17.897  27.385   7.687
  263POPC   NC3 8075  39.466  25.522   9.442
  263POPC   PO4 8076  39.157  24.855   9.358
  263POPC   GL1 8077  39.404  25.146   9.071
  263POPC   GL2 8078  39.185  25.459   9.031
  263POPC   C1A 8079  39.510  25.124   8.619
  263POPC   D2A 8080  39.202  25.167   8.281
  263POPC   C3A 8081  39.304  25.126   7.843
  263POPC   C4A 8082  38.909  25.294   7.760
  263POPC   C1B 8083  39.534  25.602   8.793
  263POPC   C2B 8084  39.394  25.631   8.386
  263POPC   C3B 8085  39.251  25.627   7.993
  263POPC   C4B 8086  39.478  25.590   7.635
  264POPC   NC3 8087  37.959  18.782   9.309
  264POPC   PO4 8088  37.352  19.015   9.624
  264POPC   GL1 8089  37.433  18.872   9.189
  264POPC   GL2 8090  37.659  19.122   9.081
  264POPC   C1A 8091  37.383  18.930   8.715
  264POPC   D2A 8092  37.371  19.311   8.444
  264POPC   C3A 8093  37.634  19.258   8.095
  264POPC   C4A 8094  37.557  18.927   7.791
  264POPC   C1B 8095  37.840  19.220   8.664
  264POPC   C2B 8096  38.078  19.078   8.299
  264POPC   C3B 8097  38.053  18.902   7.868
  264POPC   C4B 8098  37.930  18.675   7.487
  265POPC   NC3 8099  43.383   1.937   9.452
  265POPC   PO4 8100  42.725   1.971   9.657
  265POPC   GL1 8101  42.958   1.928   9.159
  265POPC   GL2 8102  43.234   2.183   9.040
  265POPC   C1A 8103  43.045   1.962   8.652
  265POPC   D2A 8104  42.962   1.736   8.298
  265POPC   C3A 8105  42.851   1.883   7.884
  265POPC   C4A 8106  43.076   2.224   7.710
  265POPC   C1B 8107  43.488   1.808   8.853
  265POPC   C2B 8108  43.497   1.761   8.433
  265POPC   C3B 8109  43.323   2.055   8.150
  265POPC   C4B 8110  43.362   1.832   7.765
  266POPC   NC3 8111  29.485  43.723   9.551
  266POPC   PO4 8112  28.818  43.937   9.428
  266POPC   GL1 8113  29.151  43.920   9.144
  266POPC   GL2 8114  29.315  43.597   9.076
  266POPC   C1A 8115  29.080  43.908   8.713
  266POPC   D2A 8116  29.201  43.755   8.314
  266POPC   C3A 8117  29.129  43.944   7.885
  266POPC   C4A 8118  29.251  43.823   7.434
  266POPC   C1B 8119  29.486  43.434   8.678
  266POPC   C2B 8120  29.369  43.300   8.243
  266POPC   C3B 8121  29.241  43.458   7.843
  266POPC   C4B 8122  28.851  43.561   7.580
  267POPC   NC3 8123  20.843  41.068   9.394
  267POPC   PO4 8124  20.489  40.429   9.572
  267POPC   GL1 8125  20.515  40.689   9.196
  267POPC   GL2 8126  20.330  40.937   9.220
  267POPC   C1A 8127  20.683  40.681   8.770
  267POPC   D2A 8128  20.921  40.615   8.395
  267POPC   C3A 8129  20.735  40.814   8.047
  267POPC   C4A 8130  20.628  40.809   7.641
  267POPC   C1B 8131  20.182  40.830   8.785
  267POPC   C2B 8132  20.305  40.761   8.346
  267POPC   C3B 8133  20.276  41.012   7.955
  267POPC   C4B 8134  20.328  41.205   7.545
  268POPC   NC3 8135   8.426  24.362   9.526
  268POPC   PO4 8136   8.014  24.814   9.876
  268POPC   GL1 8137   8.254  24.793   9.351
  268POPC   GL2 8138   8.063  24.499   9.188
  268POPC   C1A 8139   8.252  24.810   8.839
  268POPC   D2A 8140   8.229  24.977   8.368
  268POPC   C3A 8141   8.438  24.733   7.977
  268POPC   C4A 8142   8.475  24.611   7.502
  268POPC   C1B 8143   8.321  24.305   8.838
  268POPC   C2B 8144   8.460  24.426   8.421
  268POPC   C3B 8145   8.440  24.200   8.041
  268POPC   C4B 8146   8.187  24.175   7.695
  269POPC   NC3 8147  43.443  20.706   9.356
  269POPC   PO4 8148  42.891  20.412   9.655
  269POPC   GL1 8149  42.920  20.597   9.207
  269POPC   GL2 8150  43.041  20.946   9.164
  269POPC   C1A 8151  43.056  20.514   8.749
  269POPC   D2A 8152  43.386  20.341   8.471
  269POPC   C3A 8153  43.250  20.380   8.037
  269POPC   C4A 8154  43.049  20.587   7.640
  269POPC   C1B 8155  43.276  20.974   8.746
  269POPC   C2B 8156  43.186  20.812   8.316
  269POPC   C3B 8157  42.987  20.998   7.948
  269POPC   C4B 8158  43.115  21.076   7.513
  270POPC   NC3 8159  38.868  30.584   9.551
  270POPC   PO4 8160  39.520  30.609   9.558
  270POPC   GL1 8161  39.396  30.716   9.147
  270POPC   GL2 8162  39.060  30.895   9.143
  270POPC   C1A 8163  39.390  30.559   8.714
  270POPC   D2A 8164  39.155  30.761   8.364
  270POPC   C3A 8165  39.324  30.870   7.966
  270POPC   C4A 8166  39.539  30.558   7.763
  270POPC   C1B 8167  38.919  30.528   8.890
  270POPC   C2B 8168  38.935  30.285   8.496
  270POPC   C3B 8169  39.133  30.286   8.091
  270POPC   C4B 8170  39.046  30.486   7.699
  271POPC   NC3 8171  34.466   0.880   9.657
  271POPC   PO4 8172  34.649   0.283   9.501
  271POPC   GL1 8173  34.562   0.478   9.142
  271POPC   GL2 8174  34.853   0.306   8.982
  271POPC   C1A 8175  34.489   0.490   8.705
  271POPC   D2A 8176  34.713   0.639   8.348
  271POPC   C3A 8177  34.462   0.502   8.011
  271POPC   C4A 8178  34.435   0.598   7.607
  271POPC   C1B 8179  34.853   0.162   8.533
  271POPC   C2B 8180  34.689   0.067   8.113
  271POPC   C3B 8181  34.592   0.112   7.676
  271POPC   C4B 8182  34.353   0.211   7.254
  272POPC   NC3 8183  23.906  12.020   9.692
  272POPC   PO4 8184  23.768  11.371   9.644
  272POPC   GL1 8185  23.772  11.220   9.189
  272POPC   GL2 8186  23.461  11.113   9.024
  272POPC   C1A 8187  23.959  11.113   8.809
  272POPC   D2A 8188  24.091  10.988   8.413
  272POPC   C3A 8189  23.858  11.170   8.103
  272POPC   C4A 8190  23.875  11.260   7.703
  272POPC   C1B 8191  23.647  11.511   8.806
  272POPC   C2B 8192  23.863  11.572   8.415
  272POPC   C3B 8193  23.716  11.679   7.995
  272POPC   C4B 8194  23.502  11.576   7.617
  273POPC   NC3 8195   6.449   9.712   9.342
  273POPC   PO4 8196   6.922   9.322   9.487
  273POPC   GL1 8197   6.887   9.609   9.108
  273POPC   GL2 8198   6.879   9.962   9.082
  273POPC   C1A 8199   6.564   9.800   8.726
  273POPC   D2A 8200   6.331  10.089   8.438
  273POPC   C3A 8201   6.309   9.912   8.015
  273POPC   C4A 8202   6.598   9.691   7.759
  273POPC   C1B 8203   7.061   9.727   8.663
  273POPC   C2B 8204   7.013   9.741   8.201
  273POPC   C3B 8205   6.944  10.037   7.873
  273POPC   C4B 8206   6.932   9.933   7.416
  274POPC   NC3 8207   1.781  22.651   9.428
  274POPC   PO4 8208   2.223  22.211   9.687
  274POPC   GL1 8209   2.151  22.246   9.236
  274POPC   GL2 8210   1.825  22.201   9.176
  274POPC   C1A 8211   2.264  22.204   8.759
  274POPC   D2A 8212   2.235  21.962   8.357
  274POPC   C3A 8213   2.033  22.056   7.991
  274POPC   C4A 8214   2.260  22.342   7.789
  274POPC   C1B 8215   1.841  22.460   8.808
  274POPC   C2B 8216   1.896  22.343   8.424
  274POPC   C3B 8217   1.884  22.545   8.086
  274POPC   C4B 8218   1.776  22.481   7.718
  275POPC   NC3 8219  14.918   8.929   9.836
  275POPC   PO4 8220  15.274   9.407   9.696
  275POPC   GL1 8221  15.208   9.080   9.355
  275POPC   GL2 8222  15.501   8.903   9.183
  275POPC   C1A 8223  15.053   8.957   8.927
  275POPC   D2A 8224  15.162   9.026   8.468
  275POPC   C3A 8225  15.174   8.832   8.055
  275POPC   C4A 8226  15.008   9.140   7.749
  275POPC   C1B 8227  15.492   8.771   8.741
  275POPC   C2B 8228  15.667   8.871   8.348
  275POPC   C3B 8229  15.658   8.921   7.916
  275POPC   C4B 8230  15.481   8.690   7.632
  276POPC   NC3 8231  27.116  33.038   9.362
  276POPC   PO4 8232  26.516  32.976   9.552
  276POPC   GL1 8233  26.591  33.081   9.116
  276POPC   GL2 8234  26.869  33.318   9.022
  276POPC   C1A 8235  26.495  33.215   8.679
  276POPC   D2A 8236  26.716  33.231   8.281
  276POPC   C3A 8237  26.522  33.162   7.875
  276POPC   C4A 8238  26.578  33.274   7.418
  276POPC   C1B 8239  26.925  32.941   8.735
  276POPC   C2B 8240  26.828  32.713   8.368
  276POPC   C3B 8241  26.936  32.791   7.964
  276POPC   C4B 8242  27.024  33.190   7.773
  277POPC   NC3 8243  29.212  36.063   9.549
  277POPC   PO4 8244  29.314  36.712   9.314
  277POPC   GL1 8245  29.309  36.357   9.070
  277POPC   GL2 8246  29.090  36.091   9.062
  277POPC   C1A 8247  29.317  36.260   8.646
  277POPC   D2A 8248  29.491  36.260   8.263
  277POPC   C3A 8249  29.295  36.184   7.944
  277POPC   C4A 8250  29.205  36.374   7.644
  277POPC   C1B 8251  28.975  35.852   8.710
  277POPC   C2B 8252  29.174  35.846   8.327
  277POPC   C3B 8253  29.275  35.681   7.911
  277POPC   C4B 8254  28.986  35.880   7.653
  278POPC   NC3 8255  13.306  17.270   9.511
  278POPC   PO4 8256  13.930  17.461   9.534
  278POPC   GL1 8257  13.708  17.309   9.170
  278POPC   GL2 8258  13.440  17.567   9.103
  278POPC   C1A 8259  13.754  17.375   8.733
  278POPC   D2A 8260  13.779  17.763   8.480
  278POPC   C3A 8261  13.626  17.709   8.052
  278POPC   C4A 8262  13.825  17.403   7.765
  278POPC   C1B 8263  13.307  17.174   8.847
  278POPC   C2B 8264  13.291  17.163   8.377
  278POPC   C3B 8265  13.337  17.297   7.919
  278POPC   C4B 8266  13.277  17.037   7.561
  279POPC   NC3 8267  30.419  14.424   9.580
  279POPC   PO4 8268  30.979  14.078   9.410
  279POPC   GL1 8269  30.616  14.203   9.163
  279POPC   GL2 8270  30.508  14.551   9.099
  279POPC   C1A 8271  30.349  14.108   8.818
  279POPC   D2A 8272  30.381  14.405   8.475
  279POPC   C3A 8273  30.625  14.251   8.117
  279POPC   C4A 8274  30.703  14.183   7.672
  279POPC   C1B 8275  30.854  14.523   8.816
  279POPC   C2B 8276  30.883  14.701   8.407
  279POPC   C3B 8277  30.566  14.762   8.106
  279POPC   C4B 8278  30.820  14.653   7.779
  280POPC   NC3 8279  42.596  42.673   9.419
  280POPC   PO4 8280  42.263  43.180   9.763
  280POPC   GL1 8281  42.273  43.113   9.301
  280POPC   GL2 8282  42.623  43.228   9.242
  280POPC   C1A 8283  42.310  43.262   8.835
  280POPC   D2A 8284  42.178  43.310   8.391
  280POPC   C3A 8285  42.218  42.972   8.059
  280POPC   C4A 8286  42.073  43.122   7.651
  280POPC   C1B 8287  42.775  43.069   8.826
  280POPC   C2B 8288  42.623  42.964   8.435
  280POPC   C3B 8289  42.668  43.204   8.075
  280POPC   C4B 8290  42.568  43.017   7.670
  281POPC   NC3 8291   9.705  21.469   9.662
  281POPC   PO4 8292  10.309  21.560   9.584
  281POPC   GL1 8293   9.956  21.453   9.214
  281POPC   GL2 8294   9.562  21.512   9.186
  281POPC   C1A 8295   9.787  21.271   8.787
  281POPC   D2A 8296   9.535  21.152   8.415
  281POPC   C3A 8297   9.817  21.080   8.044
  281POPC   C4A 8298   9.800  21.230   7.625
  281POPC   C1B 8299   9.355  21.546   8.779
  281POPC   C2B 8300   9.540  21.688   8.388
  281POPC   C3B 8301   9.594  21.529   8.008
  281POPC   C4B 8302   9.376  21.484   7.647
  282POPC   NC3 8303  33.618  11.641   9.913
  282POPC   PO4 8304  33.916  12.143   9.476
  282POPC   GL1 8305  33.740  12.117   9.072
  282POPC   GL2 8306  34.042  12.053   8.970
  282POPC   C1A 8307  33.753  12.276   8.629
  282POPC   D2A 8308  33.505  12.312   8.227
  282POPC   C3A 8309  33.662  12.244   7.790
  282POPC   C4A 8310  33.573  12.373   7.341
  282POPC   C1B 8311  34.199  11.819   8.623
  282POPC   C2B 8312  34.329  12.022   8.245
  282POPC   C3B 8313  34.168  12.268   7.898
  282POPC   C4B 8314  34.061  12.104   7.491
  283POPC   NC3 8315   2.403   9.316   9.441
  283POPC   PO4 8316   2.916   9.961   9.431
  283POPC   GL1 8317   2.760   9.897   9.076
  283POPC   GL2 8318   2.699   9.572   9.125
  283POPC   C1A 8319   2.905   9.965   8.681
  283POPC   D2A 8320   3.074   9.837   8.323
  283POPC   C3A 8321   2.874  10.000   7.984
  283POPC   C4A 8322   2.440   9.935   7.937
  283POPC   C1B 8323   2.819   9.455   8.724
  283POPC   C2B 8324   2.647   9.557   8.327
  283POPC   C3B 8325   2.703   9.484   7.908
  283POPC   C4B 8326   3.128   9.566   7.805
  284POPC   NC3 8327  24.865   5.853   9.857
  284POPC   PO4 8328  24.463   6.187   9.418
  284POPC   GL1 8329  24.489   5.835   9.156
  284POPC   GL2 8330  24.675   6.004   8.920
  284POPC   C1A 8331  24.379   5.668   8.720
  284POPC   D2A 8332  24.576   5.905   8.368
  284POPC   C3A 8333  24.429   5.920   7.930
  284POPC   C4A 8334  24.467   5.679   7.538
  284POPC   C1B 8335  24.973   6.153   8.623
  284POPC   C2B 8336  24.952   6.212   8.198
  284POPC   C3B 8337  24.859   6.146   7.789
  284POPC   C4B 8338  24.636   6.151   7.434
  285POPC   NC3 8339  31.893  12.010   9.596
  285POPC   PO4 8340  31.237  12.397   9.476
  285POPC   GL1 8341  31.503  12.078   9.274
  285POPC   GL2 8342  31.259  12.040   9.015
  285POPC   C1A 8343  31.710  11.849   8.926
  285POPC   D2A 8344  31.517  11.932   8.509
  285POPC   C3A 8345  31.615  11.995   8.055
  285POPC   C4A 8346  31.390  11.806   7.690
  285POPC   C1B 8347  31.572  12.351   8.838
  285POPC   C2B 8348  31.458  12.441   8.434
  285POPC   C3B 8349  31.124  12.262   8.217
  285POPC   C4B 8350  31.199  12.266   7.806
  286POPC   NC3 8351  40.246   0.584   9.462
  286POPC   PO4 8352  39.828  44.977   9.568
  286POPC   GL1 8353  40.051   0.192   9.203
  286POPC   GL2 8354  39.843   0.470   9.047
  286POPC   C1A 8355  40.275   0.406   8.828
  286POPC   D2A 8356  40.013   0.528   8.488
  286POPC   C3A 8357  40.133   0.730   8.129
  286POPC   C4A 8358  40.299   0.586   7.782
  286POPC   C1B 8359  39.875   0.104   8.740
  286POPC   C2B 8360  39.753   0.107   8.340
  286POPC   C3B 8361  39.916   0.275   7.984
  286POPC   C4B 8362  39.849  44.930   7.732
  287POPC   NC3 8363  33.921  16.522   9.575
  287POPC   PO4 8364  33.285  16.653   9.471
  287POPC   GL1 8365  33.605  16.857   9.204
  287POPC   GL2 8366  33.849  16.636   9.085
  287POPC   C1A 8367  33.544  17.006   8.750
  287POPC   D2A 8368  33.690  17.057   8.316
  287POPC   C3A 8369  33.917  16.709   8.120
  287POPC   C4A 8370  33.682  16.385   7.903
  287POPC   C1B 8371  33.923  16.657   8.645
  287POPC   C2B 8372  34.189  16.396   8.415
  287POPC   C3B 8373  34.198  16.293   7.980
  287POPC   C4B 8374  34.235  16.573   7.627
  288POPC   NC3 8375  39.138  37.185   9.401
  288POPC   PO4 8376  38.982  36.445   9.425
  288POPC   GL1 8377  39.222  36.704   9.103
  288POPC   GL2 8378  39.289  37.073   8.953
  288POPC   C1A 8379  39.027  36.726   8.690
  288POPC   D2A 8380  38.771  36.570   8.331
  288POPC   C3A 8381  39.011  36.680   7.975
  288POPC   C4A 8382  39.412  36.781   7.787
  288POPC   C1B 8383  38.889  37.223   8.765
  288POPC   C2B 8384  38.871  37.075   8.314
  288POPC   C3B 8385  39.231  37.174   8.033
  288POPC   C4B 8386  39.299  37.244   7.565
  289POPC   NC3 8387  34.938   3.826   9.886
  289POPC   PO4 8388  34.486   3.543   9.519
  289POPC   GL1 8389  34.554   3.508   9.110
  289POPC   GL2 8390  34.639   3.198   9.150
  289POPC   C1A 8391  34.653   3.698   8.718
  289POPC   D2A 8392  34.559   3.874   8.317
  289POPC   C3A 8393  34.681   3.640   7.955
  289POPC   C4A 8394  35.006   3.358   7.791
  289POPC   C1B 8395  34.783   3.172   8.756
  289POPC   C2B 8396  34.645   3.306   8.378
  289POPC   C3B 8397  34.573   3.145   8.012
  289POPC   C4B 8398  34.525   3.253   7.594
  290POPC   NC3 8399  26.729  16.707   9.609
  290POPC   PO4 8400  27.331  16.860   9.332
  290POPC   GL1 8401  27.029  16.571   9.147
  290POPC   GL2 8402  26.663  16.454   9.189
  290POPC   C1A 8403  26.895  16.760   8.778
  290POPC   D2A 8404  26.790  16.912   8.375
  290POPC   C3A 8405  27.008  16.820   8.001
  290POPC   C4A 8406  26.815  16.814   7.583
  290POPC   C1B 8407  26.609  16.351   8.799
  290POPC   C2B 8408  26.794  16.383   8.407
  290POPC   C3B 8409  26.667  16.428   7.994
  290POPC   C4B 8410  26.575  16.368   7.550
  291POPC   NC3 8411   6.590  27.259   9.596
  291POPC   PO4 8412   6.827  27.876   9.431
  291POPC   GL1 8413   6.602  27.605   9.108
  291POPC   GL2 8414   6.516  27.252   9.088
  291POPC   C1A 8415   6.510  27.679   8.682
  291POPC   D2A 8416   6.775  27.827   8.339
  291POPC   C3A 8417   6.488  27.725   8.021
  291POPC   C4A 8418   6.628  27.566   7.655
  291POPC   C1B 8419   6.746  27.189   8.722
  291POPC   C2B 8420   6.678  27.317   8.301
  291POPC   C3B 8421   6.588  27.102   7.918
  291POPC   C4B 8422   6.643  27.073   7.470
  292POPC   NC3 8423  26.728   8.118   9.456
  292POPC   PO4 8424  27.225   8.560   9.613
  292POPC   GL1 8425  26.913   8.511   9.190
  292POPC   GL2 8426  27.002   8.683   8.873
  292POPC   C1A 8427  26.557   8.321   8.867
  292POPC   D2A 8428  26.399   8.232   8.442
  292POPC   C3A 8429  26.685   8.254   8.110
  292POPC   C4A 8430  26.677   8.128   7.671
  292POPC   C1B 8431  26.944   8.382   8.539
  292POPC   C2B 8432  27.142   8.029   8.345
  292POPC   C3B 8433  27.150   8.081   7.935
  292POPC   C4B 8434  27.025   8.480   7.789
  293POPC   NC3 8435  44.338  24.713   9.368
  293POPC   PO4 8436  44.924  24.443   9.443
  293POPC   GL1 8437  44.677  24.456   9.093
  293POPC   GL2 8438  44.745  24.827   9.108
  293POPC   C1A 8439  44.619  24.242   8.696
  293POPC   D2A 8440  44.851  24.301   8.316
  293POPC   C3A 8441  44.579  24.278   7.952
  293POPC   C4A 8442  44.538  24.203   7.514
  293POPC   C1B 8443  44.483  24.901   8.745
  293POPC   C2B 8444  44.526  24.707   8.346
  293POPC   C3B 8445  44.718  24.782   7.956
  293POPC   C4B 8446  44.585  24.694   7.574
  294POPC   NC3 8447  41.152  17.220   9.398
  294POPC   PO4 8448  41.262  17.873   9.449
  294POPC   GL1 8449  41.284  17.636   9.073
  294POPC   GL2 8450  41.556  17.372   9.096
  294POPC   C1A 8451  41.498  17.716   8.678
  294POPC   D2A 8452  41.764  17.841   8.311
  294POPC   C3A 8453  41.584  17.694   7.923
  294POPC   C4A 8454  41.352  17.562   7.568
  294POPC   C1B 8455  41.461  17.202   8.689
  294POPC   C2B 8456  41.204  17.273   8.320
  294POPC   C3B 8457  41.397  17.218   7.920
  294POPC   C4B 8458  41.777  17.263   7.643
  295POPC   NC3 8459   4.390  19.850   9.465
  295POPC   PO4 8460   3.908  20.369   9.381
  295POPC   GL1 8461   4.180  20.152   9.071
  295POPC   GL2 8462   4.342  19.800   8.983
  295POPC   C1A 8463   4.278  20.158   8.647
  295POPC   D2A 8464   4.109  19.982   8.339
  295POPC   C3A 8465   4.394  19.980   8.043
  295POPC   C4A 8466   4.248  20.041   7.649
  295POPC   C1B 8467   4.422  19.651   8.582
  295POPC   C2B 8468   4.166  19.480   8.273
  295POPC   C3B 8469   4.019  19.675   7.932
  295POPC   C4B 8470   4.375  19.538   7.661
  296POPC   NC3 8471  38.487  34.252   9.781
  296POPC   PO4 8472  38.710  34.855   9.556
  296POPC   GL1 8473  38.395  34.703   9.257
  296POPC   GL2 8474  38.393  34.364   9.185
  296POPC   C1A 8475  38.553  34.708   8.823
  296POPC   D2A 8476  38.466  34.429   8.474
  296POPC   C3A 8477  38.501  34.690   8.106
  296POPC   C4A 8478  38.630  34.797   7.697
  296POPC   C1B 8479  38.218  34.077   8.887
  296POPC   C2B 8480  38.078  34.090   8.481
  296POPC   C3B 8481  38.129  34.292   8.080
  296POPC   C4B 8482  38.324  34.178   7.689
  297POPC   NC3 8483  39.320  31.112   9.546
  297POPC   PO4 8484  39.069  31.778   9.504
  297POPC   GL1 8485  39.154  31.472   9.165
  297POPC   GL2 8486  39.442  31.239   9.086
  297POPC   C1A 8487  39.303  31.625   8.756
  297POPC   D2A 8488  39.515  31.711   8.362
  297POPC   C3A 8489  39.275  31.700   7.981
  297POPC   C4A 8490  39.058  31.733   7.594
  297POPC   C1B 8491  39.347  31.103   8.693
  297POPC   C2B 8492  39.534  31.202   8.310
  297POPC   C3B 8493  39.617  31.332   7.899
  297POPC   C4B 8494  39.286  31.287   7.622
  298POPC   NC3 8495   2.128  15.918   9.810
  298POPC   PO4 8496   1.511  15.890   9.569
  298POPC   GL1 8497   1.822  15.890   9.192
  298POPC   GL2 8498   2.162  15.956   9.293
  298POPC   C1A 8499   1.778  16.092   8.747
  298POPC   D2A 8500   1.634  15.946   8.327
  298POPC   C3A 8501   1.738  15.928   7.870
  298POPC   C4A 8502   1.549  15.713   7.530
  298POPC   C1B 8503   2.244  15.811   8.887
  298POPC   C2B 8504   2.125  15.817   8.472
  298POPC   C3B 8505   2.188  15.949   8.071
  298POPC   C4B 8506   2.404  15.743   7.730
  299POPC   NC3 8507  26.014  11.218   9.518
  299POPC   PO4 8508  25.512  10.864   9.330
  299POPC   GL1 8509  25.805  11.088   9.045
  299POPC   GL2 8510  26.167  11.170   9.042
  299POPC   C1A 8511  25.919  11.115   8.594
  299POPC   D2A 8512  26.157  11.162   8.256
  299POPC   C3A 8513  25.811  11.208   8.018
  299POPC   C4A 8514  25.740  11.096   7.631
  299POPC   C1B 8515  26.021  11.543   8.822
  299POPC   C2B 8516  25.916  11.611   8.375
  299POPC   C3B 8517  25.933  11.688   7.903
  299POPC   C4B 8518  26.070  11.505   7.491
  300POPC   NC3 8519  33.306  39.028   9.328
  300POPC   PO4 8520  33.930  39.263   9.682
  300POPC   GL1 8521  33.815  39.365   9.190
  300POPC   GL2 8522  33.473  39.453   9.118
  300POPC   C1A 8523  33.951  39.179   8.746
  300POPC   D2A 8524  33.810  39.388   8.369
  300POPC   C3A 8525  34.044  39.436   8.004
  300POPC   C4A 8526  34.224  39.118   7.751
  300POPC   C1B 8527  33.459  39.204   8.727
  300POPC   C2B 8528  33.417  39.060   8.318
  300POPC   C3B 8529  33.727  39.032   7.987
  300POPC   C4B 8530  33.781  39.226   7.573
  301POPC   NC3 8531  12.400   1.546   9.572
  301POPC   PO4 8532  12.309   0.883   9.425
  301POPC   GL1 8533  12.024   1.185   9.163
  301POPC   GL2 8534  12.317   1.208   9.030
  301POPC   C1A 8535  12.030   1.445   8.725
  301POPC   D2A 8536  12.260   1.417   8.331
  301POPC   C3A 8537  11.981   1.564   8.013
  301POPC   C4A 8538  11.708   1.434   7.699
  301POPC   C1B 8539  12.195   0.934   8.707
  301POPC   C2B 8540  12.115   0.920   8.258
  301POPC   C3B 8541  12.106   1.095   7.855
  301POPC   C4B 8542  12.407   1.402   7.769
  302POPC   NC3 8543  17.737  17.380   9.875
  302POPC   PO4 8544  17.322  17.677   9.636
  302POPC   GL1 8545  17.444  17.476   9.235
  302POPC   GL2 8546  17.417  17.788   9.110
  302POPC   C1A 8547  17.561  17.433   8.765
  302POPC   D2A 8548  17.280  17.373   8.404
  302POPC   C3A 8549  17.388  17.494   7.969
  302POPC   C4A 8550  17.378  17.663   7.550
  302POPC   C1B 8551  17.623  17.939   8.735
  302POPC   C2B 8552  17.653  17.739   8.332
  302POPC   C3B 8553  17.835  17.756   7.903
  302POPC   C4B 8554  17.753  18.002   7.504
  303POPC   NC3 8555  39.203  43.046   9.757
  303POPC   PO4 8556  39.389  43.454   9.253
  303POPC   GL1 8557  39.042  43.305   9.031
  303POPC   GL2 8558  39.028  42.968   8.984
  303POPC   C1A 8559  39.192  43.225   8.601
  303POPC   D2A 8560  39.446  43.297   8.272
  303POPC   C3A 8561  39.292  43.331   7.882
  303POPC   C4A 8562  38.920  43.167   7.779
  303POPC   C1B 8563  39.365  42.770   8.740
  303POPC   C2B 8564  39.509  42.663   8.361
  303POPC   C3B 8565  39.473  42.860   7.982
  303POPC   C4B 8566  39.695  42.809   7.638
  304POPC   NC3 8567   8.079   1.384   9.510
  304POPC   PO4 8568   8.448   0.801   9.530
  304POPC   GL1 8569   8.320   1.093   9.182
  304POPC   GL2 8570   7.918   1.105   9.135
  304POPC   C1A 8571   8.262   1.387   8.834
  304POPC   D2A 8572   8.479   1.251   8.488
  304POPC   C3A 8573   8.495   1.318   8.054
  304POPC   C4A 8574   8.461   0.989   7.802
  304POPC   C1B 8575   7.741   1.285   8.800
  304POPC   C2B 8576   7.856   1.243   8.417
  304POPC   C3B 8577   7.717   1.227   8.011
  304POPC   C4B 8578   8.058   1.347   7.794
  305POPC   NC3 8579  18.628   3.367   9.350
  305POPC   PO4 8580  17.989   3.544   9.547
  305POPC   GL1 8581  18.145   3.377   9.191
  305POPC   GL2 8582  18.322   3.699   9.140
  305POPC   C1A 8583  18.281   3.416   8.754
  305POPC   D2A 8584  18.076   3.329   8.439
  305POPC   C3A 8585  18.238   3.451   8.056
  305POPC   C4A 8586  18.117   3.311   7.662
  305POPC   C1B 8587  18.521   3.861   8.762
  305POPC   C2B 8588  18.343   3.817   8.391
  305POPC   C3B 8589  18.555   3.862   8.016
  305POPC   C4B 8590  18.335   3.809   7.716
  306POPC   NC3 8591   2.740  31.848   9.530
  306POPC   PO4 8592   2.630  32.566   9.498
  306POPC   GL1 8593   2.803  32.268   9.251
  306POPC   GL2 8594   2.492  32.234   9.088
  306POPC   C1A 8595   2.914  32.020   8.870
  306POPC   D2A 8596   2.715  32.099   8.483
  306POPC   C3A 8597   2.902  32.203   8.098
  306POPC   C4A 8598   2.927  31.981   7.667
  306POPC   C1B 8599   2.779  32.507   8.814
  306POPC   C2B 8600   2.701  32.609   8.417
  306POPC   C3B 8601   2.464  32.501   8.064
  306POPC   C4B 8602   2.663  32.418   7.702
  307POPC   NC3 8603  38.687  13.738   9.508
  307POPC   PO4 8604  38.154  13.305   9.432
  307POPC   GL1 8605  38.404  13.555   9.129
  307POPC   GL2 8606  38.334  13.909   9.049
  307POPC   C1A 8607  38.626  13.620   8.727
  307POPC   D2A 8608  38.296  13.611   8.452
  307POPC   C3A 8609  38.226  13.521   8.024
  307POPC   C4A 8610  38.332  13.655   7.657
  307POPC   C1B 8611  38.597  14.132   8.696
  307POPC   C2B 8612  38.749  13.932   8.317
  307POPC   C3B 8613  38.662  13.962   7.879
  307POPC   C4B 8614  38.807  13.827   7.489
  308POPC   NC3 8615  25.600  42.799   9.826
  308POPC   PO4 8616  25.172  43.139   9.640
  308POPC   GL1 8617  25.317  43.015   9.229
  308POPC   GL2 8618  25.450  43.336   9.142
  308POPC   C1A 8619  25.264  43.014   8.759
  308POPC   D2A 8620  25.070  43.289   8.441
  308POPC   C3A 8621  25.157  43.235   7.963
  308POPC   C4A 8622  24.954  43.075   7.569
  308POPC   C1B 8623  25.578  43.407   8.708
  308POPC   C2B 8624  25.566  43.264   8.284
  308POPC   C3B 8625  25.615  43.495   7.900
  308POPC   C4B 8626  25.847  43.429   7.495
  309POPC   NC3 8627  23.956  19.849   9.526
  309POPC   PO4 8628  23.376  19.837   9.765
  309POPC   GL1 8629  23.532  19.738   9.275
  309POPC   GL2 8630  23.870  19.589   9.110
  309POPC   C1A 8631  23.402  19.585   8.852
  309POPC   D2A 8632  23.491  19.530   8.408
  309POPC   C3A 8633  23.441  19.849   8.124
  309POPC   C4A 8634  23.538  19.965   7.760
  309POPC   C1B 8635  23.790  19.935   8.841
  309POPC   C2B 8636  23.831  19.985   8.409
  309POPC   C3B 8637  23.960  19.784   8.019
  309POPC   C4B 8638  24.115  19.984   7.643
  310POPC   NC3 8639  41.366  39.493   9.425
  310POPC   PO4 8640  41.834  40.014   9.416
  310POPC   GL1 8641  41.656  39.979   9.049
  310POPC   GL2 8642  41.778  39.645   9.019
  310POPC   C1A 8643  41.457  40.186   8.704
  310POPC   D2A 8644  41.248  40.000   8.357
  310POPC   C3A 8645  41.282  40.176   7.931
  310POPC   C4A 8646  41.262  40.028   7.532
  310POPC   C1B 8647  41.868  39.850   8.594
  310POPC   C2B 8648  41.724  39.998   8.158
  310POPC   C3B 8649  41.596  39.746   7.792
  310POPC   C4B 8650  41.856  39.511   7.470
  311POPC   NC3 8651  16.816  33.553   9.598
  311POPC   PO4 8652  16.675  34.247   9.516
  311POPC   GL1 8653  16.712  33.896   9.236
  311POPC   GL2 8654  16.515  33.570   9.190
  311POPC   C1A 8655  16.818  33.918   8.830
  311POPC   D2A 8656  16.704  33.940   8.420
  311POPC   C3A 8657  16.996  33.904   8.080
  311POPC   C4A 8658  16.659  33.994   7.791
  311POPC   C1B 8659  16.821  33.407   8.851
  311POPC   C2B 8660  16.753  33.440   8.380
  311POPC   C3B 8661  16.802  33.474   7.921
  311POPC   C4B 8662  16.780  33.595   7.506
  312POPC   NC3 8663  44.525  41.256   9.583
  312POPC   PO4 8664  44.885  41.880   9.519
  312POPC   GL1 8665  44.687  41.645   9.210
  312POPC   GL2 8666  44.852  41.326   9.196
  312POPC   C1A 8667  44.621  41.756   8.775
  312POPC   D2A 8668  44.520  41.870   8.342
  312POPC   C3A 8669  44.580  41.653   7.953
  312POPC   C4A 8670  44.343  41.668   7.565
  312POPC   C1B 8671  44.596  41.253   8.845
  312POPC   C2B 8672  44.691  41.377   8.417
  312POPC   C3B 8673  44.652  41.150   8.032
  312POPC   C4B 8674  44.672  41.289   7.602
  313POPC   NC3 8675   4.624  14.266   9.377
  313POPC   PO4 8676   4.217  14.743   9.284
  313POPC   GL1 8677   4.320  14.450   9.009
  313POPC   GL2 8678   4.663  14.580   8.956
  313POPC   C1A 8679   4.200  14.456   8.609
  313POPC   D2A 8680   4.317  14.731   8.283
  313POPC   C3A 8681   4.183  14.547   7.903
  313POPC   C4A 8682   4.266  14.126   7.773
  313POPC   C1B 8683   4.665  14.209   8.695
  313POPC   C2B 8684   4.475  14.158   8.288
  313POPC   C3B 8685   4.703  13.962   8.001
  313POPC   C4B 8686   4.870  14.018   7.648
  314POPC   NC3 8687  22.706  33.516   9.563
  314POPC   PO4 8688  23.260  33.829   9.326
  314POPC   GL1 8689  23.009  33.988   9.045
  314POPC   GL2 8690  22.719  33.843   9.160
  314POPC   C1A 8691  22.940  33.899   8.624
  314POPC   D2A 8692  23.138  33.583   8.382
  314POPC   C3A 8693  23.217  33.769   7.988
  314POPC   C4A 8694  22.938  34.060   7.813
  314POPC   C1B 8695  22.657  33.522   8.825
  314POPC   C2B 8696  22.476  33.546   8.434
  314POPC   C3B 8697  22.707  33.646   8.069
  314POPC   C4B 8698  22.949  33.370   7.821
  315POPC   NC3 8699   2.606  34.664   9.521
  315POPC   PO4 8700   1.927  34.552   9.559
  315POPC   GL1 8701   1.944  34.446   9.179
  315POPC   GL2 8702   1.728  34.148   9.158
  315POPC   C1A 8703   2.159  34.644   8.827
  315POPC   D2A 8704   2.090  34.797   8.411
  315POPC   C3A 8705   2.283  34.734   8.011
  315POPC   C4A 8706   2.031  34.761   7.666
  315POPC   C1B 8707   2.021  34.156   8.790
  315POPC   C2B 8708   1.948  34.290   8.412
  315POPC   C3B 8709   2.026  34.309   8.013
  315POPC   C4B 8710   2.150  34.293   7.593
  316POPC   NC3 8711  42.036  42.785   9.694
  316POPC   PO4 8712  42.480  42.237   9.552
  316POPC   GL1 8713  42.449  41.979   9.165
  316POPC   GL2 8714  42.222  42.185   8.975
  316POPC   C1A 8715  42.636  42.066   8.732
  316POPC   D2A 8716  42.447  42.354   8.411
  316POPC   C3A 8717  42.504  42.340   7.956
  316POPC   C4A 8718  42.328  42.578   7.585
  316POPC   C1B 8719  41.959  42.254   8.619
  316POPC   C2B 8720  41.729  42.174   8.266
  316POPC   C3B 8721  41.988  42.269   7.928
  316POPC   C4B 8722  41.988  42.229   7.475
  317POPC   NC3 8723  38.734  22.519   9.541
  317POPC   PO4 8724  38.368  22.022   9.587
  317POPC   GL1 8725  38.474  22.238   9.167
  317POPC   GL2 8726  38.859  22.282   9.119
  317POPC   C1A 8727  38.226  22.349   8.756
  317POPC   D2A 8728  38.097  22.344   8.310
  317POPC   C3A 8729  38.184  21.942   8.120
  317POPC   C4A 8730  38.471  21.709   7.847
  317POPC   C1B 8731  38.718  22.467   8.736
  317POPC   C2B 8732  38.658  22.272   8.321
  317POPC   C3B 8733  38.524  22.267   7.891
  317POPC   C4B 8734  38.682  22.365   7.424
  318POPC   NC3 8735  30.374  24.454   9.467
  318POPC   PO4 8736  29.824  24.776   9.624
  318POPC   GL1 8737  29.868  24.623   9.208
  318POPC   GL2 8738  29.817  24.268   9.155
  318POPC   C1A 8739  30.082  24.624   8.818
  318POPC   D2A 8740  30.161  24.504   8.385
  318POPC   C3A 8741  29.956  24.755   8.072
  318POPC   C4A 8742  29.887  24.626   7.664
  318POPC   C1B 8743  30.035  24.134   8.751
  318POPC   C2B 8744  29.938  24.051   8.330
  318POPC   C3B 8745  29.694  24.292   8.034
  318POPC   C4B 8746  29.600  24.130   7.617
  319POPC   NC3 8747  16.780  23.697   9.668
  319POPC   PO4 8748  16.303  24.017   9.310
  319POPC   GL1 8749  16.566  23.645   9.217
  319POPC   GL2 8750  16.958  23.660   9.180
  319POPC   C1A 8751  16.467  23.442   8.796
  319POPC   D2A 8752  16.614  23.629   8.420
  319POPC   C3A 8753  16.793  23.460   8.085
  319POPC   C4A 8754  16.699  23.672   7.723
  319POPC   C1B 8755  16.769  23.896   8.831
  319POPC   C2B 8756  16.636  24.142   8.469
  319POPC   C3B 8757  16.804  24.018   8.066
  319POPC   C4B 8758  17.023  24.055   7.650
  320POPC   NC3 8759  34.674  32.388   9.552
  320POPC   PO4 8760  34.430  31.811   9.445
  320POPC   GL1 8761  34.317  32.184   9.184
  320POPC   GL2 8762  34.592  32.442   9.067
  320POPC   C1A 8763  34.259  32.249   8.754
  320POPC   D2A 8764  34.531  32.301   8.413
  320POPC   C3A 8765  34.402  32.395   7.997
  320POPC   C4A 8766  34.439  32.123   7.662
  320POPC   C1B 8767  34.760  32.062   8.818
  320POPC   C2B 8768  34.960  32.038   8.373
  320POPC   C3B 8769  34.879  32.180   7.954
  320POPC   C4B 8770  34.761  32.526   7.643
  321POPC   NC3 8771   0.242  26.991   9.720
  321POPC   PO4 8772   0.359  26.394   9.625
  321POPC   GL1 8773   0.502  26.702   9.269
  321POPC   GL2 8774   0.772  26.517   9.145
  321POPC   C1A 8775   0.335  26.964   8.868
  321POPC   D2A 8776   0.108  27.044   8.453
  321POPC   C3A 8777   0.119  26.804   8.026
  321POPC   C4A 8778   0.281  26.791   7.584
  321POPC   C1B 8779   0.630  26.591   8.755
  321POPC   C2B 8780   0.477  26.679   8.379
  321POPC   C3B 8781   0.625  26.792   7.980
  321POPC   C4B 8782   0.701  26.494   7.611
  322POPC   NC3 8783  33.956  32.817   9.479
  322POPC   PO4 8784  33.482  33.169   9.702
  322POPC   GL1 8785  33.530  32.898   9.204
  322POPC   GL2 8786  33.878  32.962   9.003
  322POPC   C1A 8787  33.463  32.897   8.725
  322POPC   D2A 8788  33.649  33.230   8.479
  322POPC   C3A 8789  33.779  33.275   8.058
  322POPC   C4A 8790  33.597  33.143   7.700
  322POPC   C1B 8791  34.116  33.204   8.680
  322POPC   C2B 8792  34.123  32.972   8.308
  322POPC   C3B 8793  33.901  32.776   7.967
  322POPC   C4B 8794  33.961  32.860   7.513
  323POPC   NC3 8795  18.615  35.422   9.392
  323POPC   PO4 8796  19.275  35.111   9.460
  323POPC   GL1 8797  19.124  35.274   9.079
  323POPC   GL2 8798  18.839  35.033   9.101
  323POPC   C1A 8799  19.199  35.554   8.681
  323POPC   D2A 8800  19.285  35.516   8.242
  323POPC   C3A 8801  19.239  35.073   8.169
  323POPC   C4A 8802  19.070  34.891   7.808
  323POPC   C1B 8803  18.926  35.106   8.646
  323POPC   C2B 8804  18.801  35.333   8.279
  323POPC   C3B 8805  18.765  35.330   7.828
  323POPC   C4B 8806  18.681  35.049   7.471
  324POPC   NC3 8807  33.655  29.215   9.476
  324POPC   PO4 8808  34.126  28.721   9.402
  324POPC   GL1 8809  33.870  28.933   9.115
  324POPC   GL2 8810  33.533  28.828   9.048
  324POPC   C1A 8811  33.869  29.006   8.705
  324POPC   D2A 8812  33.717  29.060   8.304
  324POPC   C3A 8813  34.046  29.152   7.999
  324POPC   C4A 8814  34.091  29.266   7.578
  324POPC   C1B 8815  33.377  29.095   8.698
  324POPC   C2B 8816  33.487  29.503   8.467
  324POPC   C3B 8817  33.614  29.490   8.026
  324POPC   C4B 8818  33.558  29.060   7.819
  325POPC   NC3 8819  11.301  15.500   9.436
  325POPC   PO4 8820  11.402  14.828   9.513
  325POPC   GL1 8821  11.372  15.076   9.153
  325POPC   GL2 8822  11.019  15.110   9.116
  325POPC   C1A 8823  11.565  15.191   8.755
  325POPC   D2A 8824  11.793  15.011   8.415
  325POPC   C3A 8825  11.548  14.983   8.023
  325POPC   C4A 8826  11.468  14.950   7.553
  325POPC   C1B 8827  11.090  15.326   8.694
  325POPC   C2B 8828  11.347  15.413   8.288
  325POPC   C3B 8829  11.299  15.379   7.804
  325POPC   C4B 8830  11.466  15.434   7.350
  326POPC   NC3 8831  29.405  24.448   9.478
  326POPC   PO4 8832  28.854  24.126   9.330
  326POPC   GL1 8833  29.005  24.485   9.064
  326POPC   GL2 8834  29.379  24.594   8.998
  326POPC   C1A 8835  29.127  24.311   8.661
  326POPC   D2A 8836  28.971  24.094   8.300
  326POPC   C3A 8837  29.063  24.406   8.011
  326POPC   C4A 8838  28.891  24.748   7.791
  326POPC   C1B 8839  29.620  24.498   8.607
  326POPC   C2B 8840  29.468  24.710   8.257
  326POPC   C3B 8841  29.422  24.701   7.831
  326POPC   C4B 8842  29.386  24.887   7.402
  327POPC   NC3 8843  43.886  30.673   9.497
  327POPC   PO4 8844  43.387  30.212   9.667
  327POPC   GL1 8845  43.504  30.445   9.243
  327POPC   GL2 8846  43.555  30.836   9.179
  327POPC   C1A 8847  43.674  30.555   8.791
  327POPC   D2A 8848  43.536  30.787   8.405
  327POPC   C3A 8849  43.646  30.566   8.035
  327POPC   C4A 8850  44.001  30.671   7.814
  327POPC   C1B 8851  43.678  31.132   8.854
  327POPC   C2B 8852  43.882  31.177   8.446
  327POPC   C3B 8853  43.778  31.102   7.996
  327POPC   C4B 8854  44.070  31.132   7.620
  328POPC   NC3 8855  31.419   1.940   9.624
  328POPC   PO4 8856  31.747   2.402   9.292
  328POPC   GL1 8857  31.404   2.161   9.127
  328POPC   GL2 8858  31.350   1.800   9.115
  328POPC   C1A 8859  31.443   2.088   8.699
  328POPC   D2A 8860  31.425   1.802   8.379
  328POPC   C3A 8861  31.511   2.030   8.030
  328POPC   C4A 8862  31.645   1.846   7.681
  328POPC   C1B 8863  31.063   1.759   8.759
  328POPC   C2B 8864  30.960   1.602   8.364
  328POPC   C3B 8865  31.092   1.720   7.952
  328POPC   C4B 8866  31.192   1.596   7.529
  329POPC   NC3 8867  23.095  17.878   9.321
  329POPC   PO4 8868  22.436  17.763   9.422
  329POPC   GL1 8869  22.726  17.584   9.096
  329POPC   GL2 8870  23.080  17.406   9.139
  329POPC   C1A 8871  22.877  17.605   8.663
  329POPC   D2A 8872  22.874  17.891   8.305
  329POPC   C3A 8873  22.921  17.721   7.874
  329POPC   C4A 8874  22.691  17.565   7.506
  329POPC   C1B 8875  23.246  17.222   8.763
  329POPC   C2B 8876  23.174  17.272   8.326
  329POPC   C3B 8877  23.171  17.262   7.911
  329POPC   C4B 8878  23.141  17.380   7.534
  330POPC   NC3 8879   5.083  26.405   9.427
  330POPC   PO4 8880   5.372  25.795   9.489
  330POPC   GL1 8881   4.997  25.926   9.196
  330POPC   GL2 8882   4.707  26.197   9.150
  330POPC   C1A 8883   4.949  25.844   8.773
  330POPC   D2A 8884   5.190  25.813   8.364
  330POPC   C3A 8885   4.967  25.837   7.955
  330POPC   C4A 8886   4.912  26.219   7.753
  330POPC   C1B 8887   4.877  26.353   8.766
  330POPC   C2B 8888   5.036  26.487   8.348
  330POPC   C3B 8889   5.290  26.512   7.964
  330POPC   C4B 8890   5.320  26.394   7.501
  331POPC   NC3 8891  31.466   4.752   9.563
  331POPC   PO4 8892  31.562   5.400   9.467
  331POPC   GL1 8893  31.485   5.014   9.126
  331POPC   GL2 8894  31.203   4.737   9.129
  331POPC   C1A 8895  31.642   4.899   8.685
  331POPC   D2A 8896  31.418   5.085   8.319
  331POPC   C3A 8897  31.473   5.225   7.851
  331POPC   C4A 8898  31.307   5.463   7.488
  331POPC   C1B 8899  31.140   4.848   8.721
  331POPC   C2B 8900  31.153   4.620   8.344
  331POPC   C3B 8901  31.255   4.770   7.972
  331POPC   C4B 8902  31.679   4.753   7.875
  332POPC   NC3 8903  40.630  41.879   9.620
  332POPC   PO4 8904  40.990  41.354   9.601
  332POPC   GL1 8905  40.882  41.627   9.183
  332POPC   GL2 8906  40.564  41.879   9.121
  332POPC   C1A 8907  41.019  41.646   8.725
  332POPC   D2A 8908  41.219  41.517   8.341
  332POPC   C3A 8909  40.952  41.599   7.958
  332POPC   C4A 8910  40.872  41.459   7.504
  332POPC   C1B 8911  40.744  42.066   8.772
  332POPC   C2B 8912  40.729  41.867   8.373
  332POPC   C3B 8913  40.630  41.997   8.008
  332POPC   C4B 8914  40.772  41.950   7.609
  333POPC   NC3 8915   8.761  43.693   9.542
  333POPC   PO4 8916   9.345  44.147   9.531
  333POPC   GL1 8917   9.021  44.057   9.230
  333POPC   GL2 8918   8.876  44.406   9.178
  333POPC   C1A 8919   8.957  43.719   8.880
  333POPC   D2A 8920   9.098  43.649   8.441
  333POPC   C3A 8921   8.860  43.770   8.088
  333POPC   C4A 8922   8.771  43.810   7.670
  333POPC   C1B 8923   8.943  44.212   8.752
  333POPC   C2B 8924   9.104  44.167   8.336
  333POPC   C3B 8925   8.943  44.217   7.909
  333POPC   C4B 8926   8.914  44.219   7.401
  334POPC   NC3 8927  31.754  42.831   9.522
  334POPC   PO4 8928  31.929  43.530   9.219
  334POPC   GL1 8929  31.618  43.237   8.990
  334POPC   GL2 8930  31.570  42.903   9.057
  334POPC   C1A 8931  31.388  43.111   8.617
  334POPC   D2A 8932  31.206  43.361   8.288
  334POPC   C3A 8933  31.341  43.251   7.912
  334POPC   C4A 8934  31.524  43.189   7.504
  334POPC   C1B 8935  31.526  42.618   8.746
  334POPC   C2B 8936  31.736  42.762   8.372
  334POPC   C3B 8937  31.489  42.773   8.043
  334POPC   C4B 8938  31.299  42.772   7.657
  335POPC   NC3 8939   6.715  19.311   9.576
  335POPC   PO4 8940   7.147  19.814   9.477
  335POPC   GL1 8941   6.819  19.688   9.228
  335POPC   GL2 8942   6.641  19.992   9.206
  335POPC   C1A 8943   6.687  19.624   8.828
  335POPC   D2A 8944   6.408  19.630   8.503
  335POPC   C3A 8945   6.597  19.604   8.117
  335POPC   C4A 8946   6.516  19.724   7.742
  335POPC   C1B 8947   6.820  20.139   8.816
  335POPC   C2B 8948   6.709  20.030   8.404
  335POPC   C3B 8949   6.616  20.163   7.977
  335POPC   C4B 8950   6.587  20.341   7.529
  336POPC   NC3 8951   8.447  29.735   9.495
  336POPC   PO4 8952   8.065  30.289   9.504
  336POPC   GL1 8953   8.366  30.129   9.201
  336POPC   GL2 8954   8.133  29.868   9.097
  336POPC   C1A 8955   8.479  30.079   8.771
  336POPC   D2A 8956   8.184  30.002   8.472
  336POPC   C3A 8957   8.261  30.167   8.102
  336POPC   C4A 8958   8.270  30.074   7.660
  336POPC   C1B 8959   7.797  29.796   8.769
  336POPC   C2B 8960   7.771  29.741   8.311
  336POPC   C3B 8961   8.013  29.735   7.929
  336POPC   C4B 8962   8.260  29.544   7.607
  337POPC   NC3 8963  43.279  20.152   9.569
  337POPC   PO4 8964  42.893  19.601   9.532
  337POPC   GL1 8965  43.187  19.661   9.185
  337POPC   GL2 8966  42.871  19.800   9.036
  337POPC   C1A 8967  43.303  19.842   8.752
  337POPC   D2A 8968  43.091  19.902   8.360
  337POPC   C3A 8969  43.259  19.869   7.952
  337POPC   C4A 8970  43.033  20.085   7.693
  337POPC   C1B 8971  42.958  19.454   8.761
  337POPC   C2B 8972  42.941  19.389   8.341
  337POPC   C3B 8973  42.828  19.613   7.991
  337POPC   C4B 8974  42.967  19.609   7.592
  338POPC   NC3 8975  43.183  24.918   9.537
  338POPC   PO4 8976  43.393  24.290   9.626
  338POPC   GL1 8977  43.272  24.469   9.182
  338POPC   GL2 8978  42.983  24.683   9.146
  338POPC   C1A 8979  43.154  24.511   8.710
  338POPC   D2A 8980  42.956  24.387   8.341
  338POPC   C3A 8981  43.106  24.504   7.931
  338POPC   C4A 8982  43.202  24.605   7.511
  338POPC   C1B 8983  42.816  24.902   8.781
  338POPC   C2B 8984  42.511  24.740   8.466
  338POPC   C3B 8985  42.628  24.639   8.045
  338POPC   C4B 8986  42.814  24.940   7.743
  339POPC   NC3 8987  35.996   3.059   9.664
  339POPC   PO4 8988  36.523   2.776   9.548
  339POPC   GL1 8989  36.222   2.732   9.195
  339POPC   GL2 8990  36.095   3.071   9.171
  339POPC   C1A 8991  36.095   2.790   8.739
  339POPC   D2A 8992  36.217   2.972   8.318
  339POPC   C3A 8993  36.099   2.669   8.011
  339POPC   C4A 8994  36.142   2.434   7.624
  339POPC   C1B 8995  35.778   3.184   8.884
  339POPC   C2B 8996  35.717   3.054   8.444
  339POPC   C3B 8997  35.796   3.095   7.996
  339POPC   C4B 8998  35.779   2.816   7.643
  340POPC   NC3 8999  37.508   3.320   9.487
  340POPC   PO4 9000  37.761   2.812   9.440
  340POPC   GL1 9001  37.850   3.164   9.095
  340POPC   GL2 9002  37.711   3.530   9.071
  340POPC   C1A 9003  37.999   3.334   8.682
  340POPC   D2A 9004  37.680   3.508   8.372
  340POPC   C3A 9005  37.493   3.420   7.991
  340POPC   C4A 9006  37.423   3.665   7.609
  340POPC   C1B 9007  37.828   3.822   8.758
  340POPC   C2B 9008  38.015   3.879   8.341
  340POPC   C3B 9009  37.796   3.822   7.974
  340POPC   C4B 9010  37.890   3.908   7.610
  341POPC   NC3 9011   6.945  12.959   9.348
  341POPC   PO4 9012   6.583  12.462   9.536
  341POPC   GL1 9013   6.682  12.570   9.117
  341POPC   GL2 9014   6.464  12.881   9.142
  341POPC   C1A 9015   6.878  12.585   8.671
  341POPC   D2A 9016   6.691  12.639   8.221
  341POPC   C3A 9017   6.900  12.794   7.850
  341POPC   C4A 9018   6.863  13.183   7.648
  341POPC   C1B 9019   6.394  12.746   8.724
  341POPC   C2B 9020   6.279  12.937   8.356
  341POPC   C3B 9021   6.092  12.748   8.040
  341POPC   C4B 9022   6.406  12.898   7.807
  342POPC   NC3 9023  44.176  20.581   9.677
  342POPC   PO4 9024  43.738  20.139   9.645
  342POPC   GL1 9025  43.964  20.436   9.255
  342POPC   GL2 9026  44.282  20.659   9.189
  342POPC   C1A 9027  43.929  20.549   8.814
  342POPC   D2A 9028  43.944  20.324   8.448
  342POPC   C3A 9029  43.729  20.570   8.118
  342POPC   C4A 9030  43.525  20.671   7.718
  342POPC   C1B 9031  44.302  20.888   8.793
  342POPC   C2B 9032  44.097  20.819   8.402
  342POPC   C3B 9033  44.017  20.989   7.995
  342POPC   C4B 9034  44.019  20.715   7.674
  343POPC   NC3 9035   6.111  21.751   9.175
  343POPC   PO4 9036   5.758  22.046   9.638
  343POPC   GL1 9037   5.710  22.106   9.186
  343POPC   GL2 9038   6.045  22.264   9.095
  343POPC   C1A 9039   5.712  22.224   8.724
  343POPC   D2A 9040   6.045  21.986   8.531
  343POPC   C3A 9041   6.034  21.974   8.095
  343POPC   C4A 9042   5.680  22.022   7.822
  343POPC   C1B 9043   6.296  22.433   8.768
  343POPC   C2B 9044   6.112  22.480   8.367
  343POPC   C3B 9045   5.801  22.450   8.085
  343POPC   C4B 9046   5.997  22.390   7.683
  344POPC   NC3 9047  24.458  10.430   9.584
  344POPC   PO4 9048  25.054  10.427   9.350
  344POPC   GL1 9049  24.696  10.425   9.120
  344POPC   GL2 9050  24.432  10.688   9.149
  344POPC   C1A 9051  24.619  10.480   8.697
  344POPC   D2A 9052  24.353  10.557   8.355
  344POPC   C3A 9053  24.426  10.390   8.000
  344POPC   C4A 9054  24.543  10.670   7.642
  344POPC   C1B 9055  24.160  10.642   8.815
  344POPC   C2B 9056  23.950  10.334   8.590
  344POPC   C3B 9057  23.883  10.477   8.181
  344POPC   C4B 9058  24.100  10.773   7.898
  345POPC   NC3 9059  20.780   8.764   9.318
  345POPC   PO4 9060  20.226   9.096   9.477
  345POPC   GL1 9061  20.509   9.144   9.117
  345POPC   GL2 9062  20.870   9.222   9.067
  345POPC   C1A 9063  20.563   8.846   8.733
  345POPC   D2A 9064  20.693   8.536   8.456
  345POPC   C3A 9065  20.575   8.713   8.073
  345POPC   C4A 9066  20.658   8.678   7.642
  345POPC   C1B 9067  20.664   9.341   8.683
  345POPC   C2B 9068  20.563   9.235   8.255
  345POPC   C3B 9069  20.736   9.480   7.902
  345POPC   C4B 9070  20.946   9.389   7.489
  346POPC   NC3 9071  19.438  28.018   9.537
  346POPC   PO4 9072  20.181  28.068   9.495
  346POPC   GL1 9073  19.843  28.179   9.181
  346POPC   GL2 9074  20.085  28.425   9.095
  346POPC   C1A 9075  19.633  28.358   8.765
  346POPC   D2A 9076  19.450  28.361   8.325
  346POPC   C3A 9077  19.666  28.260   7.945
  346POPC   C4A 9078  20.026  28.003   7.934
  346POPC   C1B 9079  20.107  28.235   8.705
  346POPC   C2B 9080  19.988  28.371   8.308
  346POPC   C3B 9081  20.130  28.531   7.894
  346POPC   C4B 9082  20.186  28.626   7.429
  347POPC   NC3 9083  11.599  30.519   9.469
  347POPC   PO4 9084  12.172  30.933   9.440
  347POPC   GL1 9085  11.974  30.697   9.128
  347POPC   GL2 9086  11.653  30.924   9.119
  347POPC   C1A 9087  12.252  30.606   8.763
  347POPC   D2A 9088  12.488  30.802   8.406
  347POPC   C3A 9089  12.388  30.530   8.053
  347POPC   C4A 9090  12.145  30.434   7.687
  347POPC   C1B 9091  11.812  30.893   8.685
  347POPC   C2B 9092  12.006  30.767   8.311
  347POPC   C3B 9093  12.082  30.910   7.906
  347POPC   C4B 9094  11.727  31.092   7.813
  348POPC   NC3 9095   1.480   7.901   9.624
  348POPC   PO4 9096   1.166   8.594   9.609
  348POPC   GL1 9097   1.341   8.482   9.166
  348POPC   GL2 9098   1.344   8.106   9.132
  348POPC   C1A 9099   1.281   8.405   8.708
  348POPC   D2A 9100   0.998   8.386   8.328
  348POPC   C3A 9101   1.148   8.351   7.924
  348POPC   C4A 9102   1.523   8.411   7.741
  348POPC   C1B 9103   1.273   7.877   8.721
  348POPC   C2B 9104   1.196   7.899   8.258
  348POPC   C3B 9105   1.410   7.922   7.867
  348POPC   C4B 9106   1.415   7.668   7.498
  349POPC   NC3 9107  21.564  42.430  10.125
  349POPC   PO4 9108  21.154  42.511   9.566
  349POPC   GL1 9109  21.313  42.367   9.196
  349POPC   GL2 9110  21.243  42.051   9.145
  349POPC   C1A 9111  21.246  42.408   8.765
  349POPC   D2A 9112  21.289  42.626   8.417
  349POPC   C3A 9113  21.376  42.427   8.045
  349POPC   C4A 9114  21.322  42.619   7.637
  349POPC   C1B 9115  21.014  41.955   8.759
  349POPC   C2B 9116  21.176  42.037   8.336
  349POPC   C3B 9117  20.999  42.107   7.914
  349POPC   C4B 9118  21.222  42.137   7.537
  350POPC   NC3 9119  42.809  31.106   9.500
  350POPC   PO4 9120  43.114  31.812   9.578
  350POPC   GL1 9121  43.109  31.489   9.315
  350POPC   GL2 9122  42.764  31.538   9.233
  350POPC   C1A 9123  43.151  31.425   8.901
  350POPC   D2A 9124  42.995  31.453   8.498
  350POPC   C3A 9125  43.196  31.167   8.201
  350POPC   C4A 9126  43.141  31.335   7.755
  350POPC   C1B 9127  42.631  31.719   8.861
  350POPC   C2B 9128  42.661  31.830   8.432
  350POPC   C3B 9129  42.916  31.765   8.078
  350POPC   C4B 9130  42.750  31.725   7.674
  351POPC   NC3 9131   1.567  10.444   9.682
  351POPC   PO4 9132   1.420  11.049   9.580
  351POPC   GL1 9133   1.472  10.797   9.207
  351POPC   GL2 9134   1.420  10.422   9.196
  351POPC   C1A 9135   1.301  10.717   8.791
  351POPC   D2A 9136   1.452  10.855   8.403
  351POPC   C3A 9137   1.187  10.721   8.057
  351POPC   C4A 9138   1.268  10.462   7.687
  351POPC   C1B 9139   1.597  10.286   8.797
  351POPC   C2B 9140   1.384  10.333   8.404
  351POPC   C3B 9141   1.372  10.116   8.028
  351POPC   C4B 9142   1.616  10.021   7.682
  352POPC   NC3 9143   2.232  40.425   9.251
  352POPC   PO4 9144   2.336  41.081   9.320
  352POPC   GL1 9145   2.003  40.882   9.073
  352POPC   GL2 9146   1.728  40.630   9.158
  352POPC   C1A 9147   2.141  40.812   8.648
  352POPC   D2A 9148   2.070  40.989   8.257
  352POPC   C3A 9149   2.344  40.880   7.919
  352POPC   C4A 9150   2.382  41.057   7.548
  352POPC   C1B 9151   1.800  40.444   8.756
  352POPC   C2B 9152   1.724  40.627   8.363
  352POPC   C3B 9153   1.545  40.822   7.999
  352POPC   C4B 9154   1.765  40.609   7.690
  353POPC   NC3 9155  23.394  44.216   9.244
  353POPC   PO4 9156  24.022  44.282   9.486
  353POPC   GL1 9157  23.863  44.107   9.121
  353POPC   GL2 9158  23.694  43.802   9.072
  353POPC   C1A 9159  23.827  44.194   8.716
  353POPC   D2A 9160  23.566  44.223   8.378
  353POPC   C3A 9161  23.608  43.989   7.996
  353POPC   C4A 9162  23.835  43.770   7.672
  353POPC   C1B 9163  23.406  43.857   8.696
  353POPC   C2B 9164  23.273  43.683   8.297
  353POPC   C3B 9165  23.404  43.539   7.878
  353POPC   C4B 9166  23.412  43.607   7.418
  354POPC   NC3 9167  37.131  31.608   9.995
  354POPC   PO4 9168  36.733  31.596   9.438
  354POPC   GL1 9169  36.837  31.652   9.023
  354POPC   GL2 9170  37.143  31.808   9.046
  354POPC   C1A 9171  37.015  31.428   8.664
  354POPC   D2A 9172  36.843  31.234   8.289
  354POPC   C3A 9173  36.856  31.588   7.971
  354POPC   C4A 9174  36.711  31.649   7.505
  354POPC   C1B 9175  37.223  32.039   8.673
  354POPC   C2B 9176  37.216  31.926   8.233
  354POPC   C3B 9177  37.355  31.874   7.810
  354POPC   C4B 9178  37.200  31.509   7.610
  355POPC   NC3 9179  22.722  37.699   9.497
  355POPC   PO4 9180  23.081  37.135   9.634
  355POPC   GL1 9181  23.139  37.472   9.268
  355POPC   GL2 9182  23.394  37.748   9.206
  355POPC   C1A 9183  23.005  37.664   8.878
  355POPC   D2A 9184  22.917  37.482   8.488
  355POPC   C3A 9185  22.954  37.640   8.078
  355POPC   C4A 9186  22.743  37.383   7.751
  355POPC   C1B 9187  23.356  37.998   8.797
  355POPC   C2B 9188  23.128  38.067   8.414
  355POPC   C3B 9189  23.281  38.074   8.005
  355POPC   C4B 9190  23.117  37.859   7.656
  356POPC   NC3 9191  12.883  29.642   9.492
  356POPC   PO4 9192  13.035  30.314   9.435
  356POPC   GL1 9193  12.905  30.000   9.111
  356POPC   GL2 9194  12.608  29.785   9.079
  356POPC   C1A 9195  13.083  30.002   8.658
  356POPC   D2A 9196  12.931  29.906   8.224
  356POPC   C3A 9197  12.949  29.999   7.779
  356POPC   C4A 9198  12.985  30.134   7.332
  356POPC   C1B 9199  12.691  29.653   8.652
  356POPC   C2B 9200  12.826  29.415   8.272
  356POPC   C3B 9201  12.662  29.565   7.869
  356POPC   C4B 9202  12.818  29.644   7.447
  357POPC   NC3 9203  20.953  32.738   9.845
  357POPC   PO4 9204  21.262  32.253   9.489
  357POPC   GL1 9205  21.144  32.232   9.106
  357POPC   GL2 9206  20.872  31.974   9.158
  357POPC   C1A 9207  21.439  32.433   8.799
  357POPC   D2A 9208  21.697  32.272   8.434
  357POPC   C3A 9209  21.766  32.519   8.055
  357POPC   C4A 9210  21.542  32.442   7.681
  357POPC   C1B 9211  21.058  31.875   8.758
  357POPC   C2B 9212  21.227  31.849   8.359
  357POPC   C3B 9213  21.386  32.043   7.998
  357POPC   C4B 9214  21.142  31.997   7.622
  358POPC   NC3 9215  34.322  14.143   9.390
  358POPC   PO4 9216  34.683  14.614   9.490
  358POPC   GL1 9217  34.711  14.550   9.088
  358POPC   GL2 9218  34.836  14.211   9.092
  358POPC   C1A 9219  34.614  14.494   8.666
  358POPC   D2A 9220  34.415  14.435   8.276
  358POPC   C3A 9221  34.661  14.598   7.963
  358POPC   C4A 9222  34.971  14.771   7.708
  358POPC   C1B 9223  34.546  14.002   8.801
  358POPC   C2B 9224  34.610  13.956   8.370
  358POPC   C3B 9225  34.444  13.997   7.966
  358POPC   C4B 9226  34.670  14.203   7.649
  359POPC   NC3 9227   2.996  16.288   9.648
  359POPC   PO4 9228   2.752  16.899   9.514
  359POPC   GL1 9229   2.847  16.644   9.196
  359POPC   GL2 9230   3.212  16.565   9.251
  359POPC   C1A 9231   2.615  16.602   8.805
  359POPC   D2A 9232   2.522  16.802   8.416
  359POPC   C3A 9233   2.711  16.715   8.044
  359POPC   C4A 9234   2.443  16.703   7.709
  359POPC   C1B 9235   3.106  16.465   8.801
  359POPC   C2B 9236   2.959  16.328   8.378
  359POPC   C3B 9237   3.077  16.378   7.911
  359POPC   C4B 9238   2.912  16.593   7.544
  360POPC   NC3 9239  20.757  42.801   9.584
  360POPC   PO4 9240  20.419  43.351   9.368
  360POPC   GL1 9241  20.602  43.361   9.042
  360POPC   GL2 9242  20.842  43.108   9.150
  360POPC   C1A 9243  20.515  43.096   8.718
  360POPC   D2A 9244  20.357  42.880   8.360
  360POPC   C3A 9245  20.511  42.968   7.956
  360POPC   C4A 9246  20.546  43.316   7.673
  360POPC   C1B 9247  21.067  42.911   8.811
  360POPC   C2B 9248  20.876  42.940   8.384
  360POPC   C3B 9249  20.971  43.174   7.995
  360POPC   C4B 9250  20.926  42.977   7.601
  361POPC   NC3 9251  30.921  34.264   9.307
  361POPC   PO4 9252  30.419  34.706   9.521
  361POPC   GL1 9253  30.572  34.636   9.100
  361POPC   GL2 9254  30.919  34.693   8.988
  361POPC   C1A 9255  30.586  34.871   8.675
  361POPC   D2A 9256  30.795  34.933   8.279
  361POPC   C3A 9257  30.443  34.838   8.020
  361POPC   C4A 9258  30.243  34.679   7.620
  361POPC   C1B 9259  30.688  34.350   8.703
  361POPC   C2B 9260  30.720  34.115   8.342
  361POPC   C3B 9261  30.702  34.329   7.946
  361POPC   C4B 9262  30.834  34.712   7.743
  362POPC   NC3 9263  44.675  23.989   9.357
  362POPC   PO4 9264  44.480  23.350   9.200
  362POPC   GL1 9265  44.668  23.629   8.970
  362POPC   GL2 9266  44.980  23.618   9.071
  362POPC   C1A 9267  44.822  23.618   8.576
  362POPC   D2A 9268  44.737  23.822   8.250
  362POPC   C3A 9269  44.362  23.751   8.054
  362POPC   C4A 9270  44.244  23.433   7.742
  362POPC   C1B 9271   0.075  24.010   8.796
  362POPC   C2B 9272   0.227  23.933   8.355
  362POPC   C3B 9273   0.109  24.021   7.940
  362POPC   C4B 9274  44.774  23.826   7.756
  363POPC   NC3 9275  31.866  28.850   9.513
  363POPC   PO4 9276  32.466  29.162   9.693
  363POPC   GL1 9277  32.243  29.128   9.248
  363POPC   GL2 9278  31.966  29.315   9.129
  363POPC   C1A 9279  32.101  28.935   8.841
  363POPC   D2A 9280  32.142  28.803   8.398
  363POPC   C3A 9281  32.125  28.970   7.977
  363POPC   C4A 9282  32.340  28.878   7.601
  363POPC   C1B 9283  32.034  29.450   8.774
  363POPC   C2B 9284  32.191  29.324   8.419
  363POPC   C3B 9285  32.180  29.475   8.027
  363POPC   C4B 9286  32.225  29.365   7.609
  364POPC   NC3 9287   2.503  37.000   9.563
  364POPC   PO4 9288   2.645  36.388   9.400
  364POPC   GL1 9289   2.643  36.736   9.163
  364POPC   GL2 9290   2.917  36.799   9.275
  364POPC   C1A 9291   2.652  36.963   8.782
  364POPC   D2A 9292   2.583  36.822   8.371
  364POPC   C3A 9293   2.803  37.110   8.122
  364POPC   C4A 9294   3.077  37.157   7.768
  364POPC   C1B 9295   3.034  36.632   8.872
  364POPC   C2B 9296   3.020  36.573   8.461
  364POPC   C3B 9297   3.205  36.787   8.135
  364POPC   C4B 9298   3.165  36.647   7.744
  365POPC   NC3 9299  19.959   3.749   9.490
  365POPC   PO4 9300  19.460   3.238   9.580
  365POPC   GL1 9301  19.686   3.426   9.191
  365POPC   GL2 9302  19.661   3.767   9.059
  365POPC   C1A 9303  19.749   3.409   8.719
  365POPC   D2A 9304  19.620   3.219   8.320
  365POPC   C3A 9305  19.834   3.314   7.935
  365POPC   C4A 9306  20.124   3.242   7.616
  365POPC   C1B 9307  19.749   3.925   8.654
  365POPC   C2B 9308  19.768   3.705   8.277
  365POPC   C3B 9309  19.773   3.824   7.863
  365POPC   C4B 9310  19.856   4.020   7.480
  366POPC   NC3 9311  33.586  14.998   9.387
  366POPC   PO4 9312  33.407  14.395   9.440
  366POPC   GL1 9313  33.642  14.446   9.093
  366POPC   GL2 9314  33.848  14.170   9.092
  366POPC   C1A 9315  33.721  14.719   8.774
  366POPC   D2A 9316  33.897  14.670   8.384
  366POPC   C3A 9317  33.546  14.549   8.112
  366POPC   C4A 9318  33.578  14.548   7.655
  366POPC   C1B 9319  34.092  14.275   8.743
  366POPC   C2B 9320  34.094  14.056   8.379
  366POPC   C3B 9321  33.980  14.280   8.075
  366POPC   C4B 9322  34.206  14.405   7.764
  367POPC   NC3 9323  44.463  22.058   9.467
  367POPC   PO4 9324  43.828  21.932   9.481
  367POPC   GL1 9325  43.943  22.074   9.104
  367POPC   GL2 9326  44.244  21.899   9.031
  367POPC   C1A 9327  43.815  21.957   8.698
  367POPC   D2A 9328  43.897  22.050   8.291
  367POPC   C3A 9329  43.752  22.396   8.208
  367POPC   C4A 9330  43.640  22.640   7.897
  367POPC   C1B 9331  44.256  22.214   8.706
  367POPC   C2B 9332  44.400  22.222   8.282
  367POPC   C3B 9333  44.266  22.164   7.900
  367POPC   C4B 9334  43.892  22.182   7.743
  368POPC   NC3 9335  39.682  11.441   9.633
  368POPC   PO4 9336  40.232  11.672   9.574
  368POPC   GL1 9337  39.989  11.504   9.223
  368POPC   GL2 9338  39.826  11.156   9.243
  368POPC   C1A 9339  40.042  11.321   8.813
  368POPC   D2A 9340  40.166  11.263   8.380
  368POPC   C3A 9341  39.973  11.463   8.015
  368POPC   C4A 9342  40.183  11.138   7.841
  368POPC   C1B 9343  39.557  11.131   8.872
  368POPC   C2B 9344  39.647  11.265   8.469
  368POPC   C3B 9345  39.750  11.017   8.103
  368POPC   C4B 9346  39.661  11.085   7.660
  369POPC   NC3 9347  34.975  43.610   9.821
  369POPC   PO4 9348  35.138  44.096   9.503
  369POPC   GL1 9349  35.287  43.750   9.276
  369POPC   GL2 9350  35.590  43.899   9.253
  369POPC   C1A 9351  35.323  43.806   8.829
  369POPC   D2A 9352  35.187  43.694   8.432
  369POPC   C3A 9353  34.972  43.917   8.155
  369POPC   C4A 9354  35.231  43.857   7.812
  369POPC   C1B 9355  35.700  44.115   8.924
  369POPC   C2B 9356  35.760  44.088   8.528
  369POPC   C3B 9357  35.566  44.011   8.157
  369POPC   C4B 9358  35.671  44.025   7.699
  370POPC   NC3 9359  32.399  35.406   9.293
  370POPC   PO4 9360  31.956  34.911   9.462
  370POPC   GL1 9361  32.173  35.022   9.053
  370POPC   GL2 9362  32.096  35.375   8.900
  370POPC   C1A 9363  32.287  35.050   8.571
  370POPC   D2A 9364  32.113  35.280   8.208
  370POPC   C3A 9365  32.232  35.140   7.791
  370POPC   C4A 9366  32.394  35.003   7.341
  370POPC   C1B 9367  32.149  35.659   8.592
  370POPC   C2B 9368  32.491  35.772   8.316
  370POPC   C3B 9369  32.395  35.616   7.916
  370POPC   C4B 9370  31.930  35.568   7.807
  371POPC   NC3 9371  28.128   1.780   9.624
  371POPC   PO4 9372  28.562   1.281   9.366
  371POPC   GL1 9373  28.321   1.311   9.043
  371POPC   GL2 9374  28.213   0.982   8.962
  371POPC   C1A 9375  28.319   1.552   8.680
  371POPC   D2A 9376  28.195   1.494   8.242
  371POPC   C3A 9377  28.516   1.317   7.962
  371POPC   C4A 9378  28.570   1.000   7.618
  371POPC   C1B 9379  28.258   1.056   8.540
  371POPC   C2B 9380  28.174   0.983   8.112
  371POPC   C3B 9381  28.075   0.965   7.701
  371POPC   C4B 9382  28.186   1.326   7.539
  372POPC   NC3 9383   6.876   0.228   9.879
  372POPC   PO4 9384   6.458   0.495   9.391
  372POPC   GL1 9385   6.702   0.510   9.025
  372POPC   GL2 9386   6.827   0.192   8.859
  372POPC   C1A 9387   6.720   0.614   8.601
  372POPC   D2A 9388   6.768   0.304   8.294
  372POPC   C3A 9389   6.867   0.523   7.924
  372POPC   C4A 9390   6.768   0.469   7.514
  372POPC   C1B 9391   6.386   0.207   8.704
  372POPC   C2B 9392   6.224   0.110   8.276
  372POPC   C3B 9393   6.420   0.235   7.878
  372POPC   C4B 9394   6.452   0.079   7.473
  373POPC   NC3 9395  25.692  44.314   9.393
  373POPC   PO4 9396  26.172  44.585   9.756
  373POPC   GL1 9397  26.062  44.762   9.351
  373POPC   GL2 9398  25.761  44.923   9.231
  373POPC   C1A 9399  26.152  44.709   8.905
  373POPC   D2A 9400  26.431  44.693   8.537
  373POPC   C3A 9401  26.317  44.731   8.113
  373POPC   C4A 9402  26.217  44.484   7.748
  373POPC   C1B 9403  25.815   0.060   8.787
  373POPC   C2B 9404  25.879  44.782   8.440
  373POPC   C3B 9405  25.792  44.674   8.020
  373POPC   C4B 9406  25.826  44.765   7.571
  374POPC   NC3 9407  38.017   2.079   9.573
  374POPC   PO4 9408  37.319   2.128   9.716
  374POPC   GL1 9409  37.523   2.132   9.241
  374POPC   GL2 9410  37.788   1.878   9.156
  374POPC   C1A 9411  37.585   2.158   8.746
  374POPC   D2A 9412  37.773   2.202   8.293
  374POPC   C3A 9413  37.533   2.238   7.916
  374POPC   C4A 9414  37.625   2.145   7.477
  374POPC   C1B 9415  37.848   1.730   8.745
  374POPC   C2B 9416  37.654   1.713   8.335
  374POPC   C3B 9417  37.747   1.776   7.895
  374POPC   C4B 9418  37.504   1.662   7.484
  375POPC   NC3 9419  20.088  20.197   9.450
  375POPC   PO4 9420  19.444  20.396   9.666
  375POPC   GL1 9421  19.635  20.398   9.222
  375POPC   GL2 9422  19.447  20.290   8.985
  375POPC   C1A 9423  19.704  20.695   8.823
  375POPC   D2A 9424  19.525  20.759   8.390
  375POPC   C3A 9425  19.777  20.694   8.036
  375POPC   C4A 9426  20.145  20.657   7.759
  375POPC   C1B 9427  19.879  20.217   8.816
  375POPC   C2B 9428  19.879  20.326   8.424
  375POPC   C3B 9429  19.958  20.229   8.012
  375POPC   C4B 9430  19.622  20.310   7.688
  376POPC   NC3 9431  24.310  30.536   9.532
  376POPC   PO4 9432  24.468  31.145   9.301
  376POPC   GL1 9433  24.373  30.811   9.110
  376POPC   GL2 9434  24.695  30.649   9.208
  376POPC   C1A 9435  24.277  30.663   8.721
  376POPC   D2A 9436  24.528  30.642   8.364
  376POPC   C3A 9437  24.406  30.396   8.048
  376POPC   C4A 9438  24.485  30.652   7.745
  376POPC   C1B 9439  24.777  30.864   8.795
  376POPC   C2B 9440  24.837  31.065   8.412
  376POPC   C3B 9441  24.765  31.013   8.001
  376POPC   C4B 9442  24.878  30.932   7.590
  377POPC   NC3 9443   1.717  11.350   9.400
  377POPC   PO4 9444   2.335  11.445   9.501
  377POPC   GL1 9445   2.198  11.349   9.116
  377POPC   GL2 9446   2.117  11.017   9.149
  377POPC   C1A 9447   2.021  11.336   8.718
  377POPC   D2A 9448   2.106  11.513   8.299
  377POPC   C3A 9449   1.895  11.352   7.929
  377POPC   C4A 9450   1.583  11.522   7.650
  377POPC   C1B 9451   2.282  10.875   8.728
  377POPC   C2B 9452   2.046  10.981   8.343
  377POPC   C3B 9453   2.083  10.873   7.914
  377POPC   C4B 9454   2.256  11.151   7.591
  378POPC   NC3 9455  19.809  35.065   9.373
  378POPC   PO4 9456  20.072  34.502   9.617
  378POPC   GL1 9457  19.937  34.533   9.194
  378POPC   GL2 9458  19.592  34.620   9.189
  378POPC   C1A 9459  20.068  34.422   8.793
  378POPC   D2A 9460  20.217  34.523   8.404
  378POPC   C3A 9461  20.018  34.475   7.994
  378POPC   C4A 9462  20.067  34.796   7.685
  378POPC   C1B 9463  19.700  34.761   8.765
  378POPC   C2B 9464  19.671  34.614   8.341
  378POPC   C3B 9465  19.607  34.800   7.919
  378POPC   C4B 9466  19.507  34.818   7.488
  379POPC   NC3 9467   1.572  38.311   9.511
  379POPC   PO4 9468   2.168  38.632   9.441
  379POPC   GL1 9469   2.024  38.356   9.163
  379POPC   GL2 9470   1.760  38.541   9.096
  379POPC   C1A 9471   2.054  38.338   8.721
  379POPC   D2A 9472   2.009  38.624   8.402
  379POPC   C3A 9473   2.050  38.439   8.020
  379POPC   C4A 9474   2.147  38.450   7.609
  379POPC   C1B 9475   1.552  38.705   8.764
  379POPC   C2B 9476   1.572  38.889   8.372
  379POPC   C3B 9477   1.581  38.657   8.052
  379POPC   C4B 9478   1.648  38.544   7.680
  380POPC   NC3 9479  38.719  41.562   9.351
  380POPC   PO4 9480  39.407  41.494   9.479
  380POPC   GL1 9481  39.195  41.697   9.146
  380POPC   GL2 9482  39.394  41.935   8.985
  380POPC   C1A 9483  39.081  41.570   8.739
  380POPC   D2A 9484  38.832  41.508   8.368
  380POPC   C3A 9485  39.096  41.425   8.030
  380POPC   C4A 9486  38.983  41.704   7.721
  380POPC   C1B 9487  39.517  41.862   8.563
  380POPC   C2B 9488  39.301  41.892   8.187
  380POPC   C3B 9489  39.446  41.868   7.772
  380POPC   C4B 9490  39.506  41.432   7.686
  381POPC   NC3 9491  41.218  32.750   9.433
  381POPC   PO4 9492  41.491  33.409   9.375
  381POPC   GL1 9493  41.348  33.109   9.069
  381POPC   GL2 9494  41.510  32.768   9.023
  381POPC   C1A 9495  41.262  33.125   8.633
  381POPC   D2A 9496  41.432  32.964   8.274
  381POPC   C3A 9497  41.577  33.145   7.935
  381POPC   C4A 9498  41.310  32.914   7.666
  381POPC   C1B 9499  41.759  32.986   8.753
  381POPC   C2B 9500  41.954  32.928   8.386
  381POPC   C3B 9501  41.873  32.708   8.070
  381POPC   C4B 9502  41.836  32.791   7.679
  382POPC   NC3 9503  28.547   7.949   9.458
  382POPC   PO4 9504  27.931   8.290   9.240
  382POPC   GL1 9505  28.257   8.078   9.057
  382POPC   GL2 9506  28.477   8.351   9.156
  382POPC   C1A 9507  28.312   7.965   8.635
  382POPC   D2A 9508  28.156   8.213   8.313
  382POPC   C3A 9509  28.084   8.169   7.872
  382POPC   C4A 9510  28.495   8.123   7.737
  382POPC   C1B 9511  28.679   8.423   8.802
  382POPC   C2B 9512  28.666   8.284   8.396
  382POPC   C3B 9513  28.898   8.376   8.041
  382POPC   C4B 9514  28.847   8.477   7.679
  383POPC   NC3 9515   0.804   5.187   9.439
  383POPC   PO4 9516   0.166   5.199   9.765
  383POPC   GL1 9517   0.138   5.163   9.219
  383POPC   GL2 9518   0.443   5.172   9.097
  383POPC   C1A 9519   0.207   4.900   8.766
  383POPC   D2A 9520   0.411   4.903   8.376
  383POPC   C3A 9521   0.398   5.065   7.983
  383POPC   C4A 9522   0.736   4.974   7.707
  383POPC   C1B 9523   0.337   5.394   8.729
  383POPC   C2B 9524   0.512   5.454   8.287
  383POPC   C3B 9525   0.438   5.561   7.822
  383POPC   C4B 9526   0.138   5.642   7.442
  384POPC   NC3 9527  14.189  18.571   9.380
  384POPC   PO4 9528  14.804  18.319   9.588
  384POPC   GL1 9529  14.788  18.277   9.167
  384POPC   GL2 9530  14.444  18.156   9.155
  384POPC   C1A 9531  14.625  18.388   8.733
  384POPC   D2A 9532  14.369  18.598   8.402
  384POPC   C3A 9533  14.320  18.420   7.988
  384POPC   C4A 9534  14.614  18.434   7.655
  384POPC   C1B 9535  14.134  18.266   8.791
  384POPC   C2B 9536  14.026  18.208   8.370
  384POPC   C3B 9537  14.107  17.913   8.063
  384POPC   C4B 9538  13.943  17.917   7.667
  385POPC   NC3 9539  27.539   2.459   9.584
  385POPC   PO4 9540  27.853   2.973   9.558
  385POPC   GL1 9541  27.793   2.742   9.207
  385POPC   GL2 9542  27.479   2.901   9.179
  385POPC   C1A 9543  27.775   2.626   8.789
  385POPC   D2A 9544  27.809   2.838   8.423
  385POPC   C3A 9545  27.851   2.661   8.018
  385POPC   C4A 9546  27.823   2.544   7.608
  385POPC   C1B 9547  27.389   2.932   8.747
  385POPC   C2B 9548  27.347   2.625   8.434
  385POPC   C3B 9549  27.336   2.873   8.108
  385POPC   C4B 9550  27.445   2.875   7.716
  386POPC   NC3 9551   2.155  32.324   9.569
  386POPC   PO4 9552   2.362  31.749   9.258
  386POPC   GL1 9553   2.000  32.056   9.114
  386POPC   GL2 9554   1.940  32.436   9.128
  386POPC   C1A 9555   1.931  32.176   8.672
  386POPC   D2A 9556   1.963  31.912   8.288
  386POPC   C3A 9557   2.171  32.076   7.938
  386POPC   C4A 9558   1.855  31.994   7.664
  386POPC   C1B 9559   1.736  32.703   8.813
  386POPC   C2B 9560   1.524  32.671   8.381
  386POPC   C3B 9561   1.686  32.780   7.979
  386POPC   C4B 9562   1.972  32.554   7.757
  387POPC   NC3 9563   8.448   4.414   9.450
  387POPC   PO4 9564   9.098   4.167   9.535
  387POPC   GL1 9565   8.914   4.331   9.201
  387POPC   GL2 9566   8.730   4.011   9.174
  387POPC   C1A 9567   9.021   4.502   8.803
  387POPC   D2A 9568   9.134   4.300   8.424
  387POPC   C3A 9569   8.986   4.473   8.062
  387POPC   C4A 9570   9.185   4.536   7.717
  387POPC   C1B 9571   8.951   3.971   8.796
  387POPC   C2B 9572   8.926   3.832   8.369
  387POPC   C3B 9573   9.082   3.959   7.988
  387POPC   C4B 9574   8.865   4.127   7.673
  388POPC   NC3 9575  10.149   0.729   9.456
  388POPC   PO4 9576  10.644   0.370   9.659
  388POPC   GL1 9577  10.653   0.334   9.185
  388POPC   GL2 9578  10.496   0.621   9.109
  388POPC   C1A 9579  10.813   0.457   8.754
  388POPC   D2A 9580  10.977   0.492   8.337
  388POPC   C3A 9581  10.653   0.502   8.009
  388POPC   C4A 9582  10.602   0.305   7.543
  388POPC   C1B 9583  10.180   0.495   8.782
  388POPC   C2B 9584  10.058   0.330   8.381
  388POPC   C3B 9585  10.164   0.344   7.952
  388POPC   C4B 9586  10.306   0.690   7.690
  389POPC   NC3 9587  40.799  24.301   9.464
  389POPC   PO4 9588  41.122  24.895   9.448
  389POPC   GL1 9589  40.779  24.841   9.121
  389POPC   GL2 9590  40.621  24.533   9.044
  389POPC   C1A 9591  40.619  24.960   8.713
  389POPC   D2A 9592  40.464  24.803   8.319
  389POPC   C3A 9593  40.733  24.875   7.956
  389POPC   C4A 9594  40.919  24.681   7.578
  389POPC   C1B 9595  40.961  24.547   8.736
  389POPC   C2B 9596  40.979  24.453   8.292
  389POPC   C3B 9597  40.669  24.362   8.012
  389POPC   C4B 9598  40.686  24.207   7.582
  390POPC   NC3 9599  13.967  44.919   9.888
  390POPC   PO4 9600  13.448  44.779   9.434
  390POPC   GL1 9601  13.602  44.648   9.028
  390POPC   GL2 9602  13.896  44.437   9.145
  390POPC   C1A 9603  13.722  44.819   8.636
  390POPC   D2A 9604  13.863   0.058   8.278
  390POPC   C3A 9605  13.759  44.822   7.926
  390POPC   C4A 9606  13.443  44.822   7.624
  390POPC   C1B 9607  13.778  44.260   8.727
  390POPC   C2B 9608  13.548  44.384   8.370
  390POPC   C3B 9609  13.456  44.406   7.947
  390POPC   C4B 9610  13.732  44.403   7.591
  391POPC   NC3 9611  10.128  13.336   9.429
  391POPC   PO4 9612   9.796  14.003   9.678
  391POPC   GL1 9613   9.741  13.671   9.276
  391POPC   GL2 9614   9.548  13.873   9.009
  391POPC   C1A 9615   9.911  13.549   8.826
  391POPC   D2A 9616  10.007  13.649   8.375
  391POPC   C3A 9617   9.776  13.497   8.013
  391POPC   C4A 9618   9.847  13.373   7.595
  391POPC   C1B 9619   9.419  13.606   8.681
  391POPC   C2B 9620   9.356  13.697   8.240
  391POPC   C3B 9621   9.388  13.916   7.842
  391POPC   C4B 9622   9.639  13.793   7.459
  392POPC   NC3 9623  35.047  12.737   9.404
  392POPC   PO4 9624  35.501  13.267   9.508
  392POPC   GL1 9625  35.404  13.038   9.164
  392POPC   GL2 9626  35.091  13.194   9.103
  392POPC   C1A 9627  35.379  12.836   8.778
  392POPC   D2A 9628  35.651  12.756   8.431
  392POPC   C3A 9629  35.436  12.739   8.066
  392POPC   C4A 9630  35.265  12.871   7.687
  392POPC   C1B 9631  34.963  13.098   8.716
  392POPC   C2B 9632  35.011  12.874   8.334
  392POPC   C3B 9633  35.058  13.168   8.014
  392POPC   C4B 9634  34.900  13.223   7.607
  393POPC   NC3 9635  38.939   9.947   9.624
  393POPC   PO4 9636  38.395   9.496   9.644
  393POPC   GL1 9637  38.515   9.820   9.278
  393POPC   GL2 9638  38.282   9.981   9.142
  393POPC   C1A 9639  38.587  10.032   8.767
  393POPC   D2A 9640  38.358  10.202   8.433
  393POPC   C3A 9641  38.539  10.026   8.027
  393POPC   C4A 9642  38.671   9.639   7.785
  393POPC   C1B 9643  38.408   9.587   8.831
  393POPC   C2B 9644  38.324   9.681   8.393
  393POPC   C3B 9645  38.173   9.675   7.973
  393POPC   C4B 9646  38.227   9.304   7.761
  394POPC   NC3 9647  42.500  34.476   9.450
  394POPC   PO4 9648  42.066  35.012   9.489
  394POPC   GL1 9649  42.224  34.693   9.088
  394POPC   GL2 9650  42.594  34.590   8.978
  394POPC   C1A 9651  42.316  34.793   8.633
  394POPC   D2A 9652  42.055  34.868   8.302
  394POPC   C3A 9653  42.071  34.592   7.963
  394POPC   C4A 9654  42.282  34.826   7.672
  394POPC   C1B 9655  42.632  34.264   8.660
  394POPC   C2B 9656  42.410  34.382   8.299
  394POPC   C3B 9657  42.582  34.481   7.934
  394POPC   C4B 9658  42.901  34.293   7.701
  395POPC   NC3 9659  34.736  26.636   9.490
  395POPC   PO4 9660  34.133  26.963   9.437
  395POPC   GL1 9661  34.431  26.989   9.093
  395POPC   GL2 9662  34.805  26.879   9.049
  395POPC   C1A 9663  34.544  27.088   8.666
  395POPC   D2A 9664  34.397  27.150   8.283
  395POPC   C3A 9665  34.572  26.920   7.989
  395POPC   C4A 9666  34.494  26.783   7.586
  395POPC   C1B 9667  34.901  26.524   8.799
  395POPC   C2B 9668  34.722  26.633   8.422
  395POPC   C3B 9669  34.645  26.435   8.066
  395POPC   C4B 9670  34.891  26.499   7.729
  396POPC   NC3 9671  14.331  20.191   9.453
  396POPC   PO4 9672  14.121  19.593   9.616
  396POPC   GL1 9673  14.223  19.725   9.202
  396POPC   GL2 9674  14.109  19.980   8.959
  396POPC   C1A 9675  14.500  19.643   8.847
  396POPC   D2A 9676  14.492  19.447   8.420
  396POPC   C3A 9677  14.557  19.745   8.083
  396POPC   C4A 9678  14.501  19.692   7.658
  396POPC   C1B 9679  13.968  20.333   8.692
  396POPC   C2B 9680  14.099  20.382   8.254
  396POPC   C3B 9681  14.133  20.079   7.902
  396POPC   C4B 9682  14.157  20.049   7.455
  397POPC   NC3 9683  39.226  38.915   9.603
  397POPC   PO4 9684  39.277  39.593   9.618
  397POPC   GL1 9685  39.268  39.184   9.194
  397POPC   GL2 9686  39.426  38.827   9.137
  397POPC   C1A 9687  39.067  39.016   8.782
  397POPC   D2A 9688  38.995  39.057   8.297
  397POPC   C3A 9689  39.183  39.388   8.014
  397POPC   C4A 9690  39.115  39.503   7.583
  397POPC   C1B 9691  39.571  38.852   8.722
  397POPC   C2B 9692  39.663  39.021   8.301
  397POPC   C3B 9693  39.439  38.948   7.914
  397POPC   C4B 9694  39.412  39.116   7.489
  398POPC   NC3 9695  33.700  11.722   9.401
  398POPC   PO4 9696  34.075  11.230   9.733
  398POPC   GL1 9697  33.932  11.280   9.252
  398POPC   GL2 9698  34.014  11.566   9.060
  398POPC   C1A 9699  33.661  11.218   8.853
  398POPC   D2A 9700  33.394  11.109   8.464
  398POPC   C3A 9701  33.574  11.214   8.031
  398POPC   C4A 9702  33.775  11.003   7.647
  398POPC   C1B 9703  33.709  11.711   8.730
  398POPC   C2B 9704  33.776  11.873   8.317
  398POPC   C3B 9705  33.936  11.808   7.927
  398POPC   C4B 9706  33.850  11.496   7.659
  399POPC   NC3 9707   4.870  20.871   9.540
  399POPC   PO4 9708   5.033  21.526   9.720
  399POPC   GL1 9709   4.976  21.338   9.260
  399POPC   GL2 9710   5.182  21.098   9.147
  399POPC   C1A 9711   5.073  21.487   8.781
  399POPC   D2A 9712   4.979  21.668   8.341
  399POPC   C3A 9713   4.934  21.404   7.961
  399POPC   C4A 9714   5.005  21.598   7.548
  399POPC   C1B 9715   5.449  21.134   8.799
  399POPC   C2B 9716   5.448  21.340   8.400
  399POPC   C3B 9717   5.439  21.128   8.011
  399POPC   C4B 9718   5.263  21.178   7.622
  400POPC   NC3 9719   3.489  20.263   9.548
  400POPC   PO4 9720   3.942  19.744   9.519
  400POPC   GL1 9721   3.523  19.762   9.273
  400POPC   GL2 9722   3.474  20.041   9.107
  400POPC   C1A 9723   3.396  19.670   8.795
  400POPC   D2A 9724   3.551  19.808   8.399
  400POPC   C3A 9725   3.329  19.774   8.046
  400POPC   C4A 9726   3.512  19.609   7.697
  400POPC   C1B 9727   3.774  20.085   8.761
  400POPC   C2B 9728   3.708  20.270   8.318
  400POPC   C3B 9729   3.709  20.093   7.890
  400POPC   C4B 9730   3.610  20.049   7.440
  401POPC   NC3 9731  44.729   2.759   9.588
  401POPC   PO4 9732   0.120   2.316   9.290
  401POPC   GL1 9733  44.812   2.608   9.110
  401POPC   GL2 9734  44.858   2.976   9.149
  401POPC   C1A 9735  44.559   2.682   8.747
  401POPC   D2A 9736  44.804   2.734   8.362
  401POPC   C3A 9737  44.722   2.821   7.936
  401POPC   C4A 9738  44.369   2.676   7.732
  401POPC   C1B 9739  44.799   3.116   8.710
  401POPC   C2B 9740  44.523   3.218   8.316
  401POPC   C3B 9741  44.350   3.173   7.875
  401POPC   C4B 9742  44.573   3.048   7.465
  402POPC   NC3 9743  22.383  11.855   9.664
  402POPC   PO4 9744  21.961  11.363   9.437
  402POPC   GL1 9745  22.019  11.382   9.022
  402POPC   GL2 9746  22.282  11.177   9.049
  402POPC   C1A 9747  22.169  11.276   8.579
  402POPC   D2A 9748  22.427  11.032   8.304
  402POPC   C3A 9749  22.397  11.338   8.043
  402POPC   C4A 9750  22.418  11.323   7.656
  402POPC   C1B 9751  21.896  10.922   8.849
  402POPC   C2B 9752  21.846  10.890   8.386
  402POPC   C3B 9753  21.957  11.097   7.974
  402POPC   C4B 9754  21.909  11.275   7.548
  403POPC   NC3 9755   1.699  15.475   9.475
  403POPC   PO4 9756   1.111  15.236   9.605
  403POPC   GL1 9757   1.374  15.159   9.241
  403POPC   GL2 9758   1.445  14.849   9.072
  403POPC   C1A 9759   1.293  15.330   8.847
  403POPC   D2A 9760   1.395  15.484   8.444
  403POPC   C3A 9761   1.291  15.282   8.061
  403POPC   C4A 9762   1.657  15.345   7.847
  403POPC   C1B 9763   1.581  14.950   8.653
  403POPC   C2B 9764   1.641  14.936   8.219
  403POPC   C3B 9765   1.455  14.869   7.808
  403POPC   C4B 9766   1.329  14.732   7.386
  404POPC   NC3 9767  23.978  20.848   9.470
  404POPC   PO4 9768  23.700  20.228   9.425
  404POPC   GL1 9769  23.801  20.497   9.097
  404POPC   GL2 9770  23.646  20.832   9.082
  404POPC   C1A 9771  23.821  20.433   8.679
  404POPC   D2A 9772  23.584  20.436   8.325
  404POPC   C3A 9773  23.818  20.313   7.997
  404POPC   C4A 9774  23.643  20.439   7.621
  404POPC   C1B 9775  23.944  20.922   8.753
  404POPC   C2B 9776  24.028  20.770   8.314
  404POPC   C3B 9777  23.828  20.828   7.907
  404POPC   C4B 9778  23.885  20.878   7.440
  405POPC   NC3 9779   0.514   2.397   9.512
  405POPC   PO4 9780   0.701   1.773   9.288
  405POPC   GL1 9781   0.481   2.031   9.058
  405POPC   GL2 9782   0.516   2.336   8.996
  405POPC   C1A 9783   0.217   2.008   8.711
  405POPC   D2A 9784   0.460   2.114   8.389
  405POPC   C3A 9785   0.550   1.858   8.078
  405POPC   C4A 9786   0.471   1.900   7.676
  405POPC   C1B 9787   0.661   2.545   8.696
  405POPC   C2B 9788   0.811   2.469   8.302
  405POPC   C3B 9789   0.582   2.375   7.901
  405POPC   C4B 9790   0.742   2.279   7.468
  406POPC   NC3 9791   3.905   9.524   9.497
  406POPC   PO4 9792   4.388  10.012   9.600
  406POPC   GL1 9793   4.215   9.902   9.173
  406POPC   GL2 9794   4.207   9.533   9.093
  406POPC   C1A 9795   4.099   9.858   8.705
  406POPC   D2A 9796   4.269  10.042   8.348
  406POPC   C3A 9797   4.442   9.888   7.966
  406POPC   C4A 9798   4.106  10.050   7.778
  406POPC   C1B 9799   4.290   9.385   8.701
  406POPC   C2B 9800   4.566   9.613   8.449
  406POPC   C3B 9801   4.824   9.609   8.119
  406POPC   C4B 9802   4.651   9.478   7.717
  407POPC   NC3 9803  41.047  16.520   9.661
  407POPC   PO4 9804  41.434  16.888   9.505
  407POPC   GL1 9805  41.368  16.880   9.072
  407POPC   GL2 9806  41.732  16.864   9.027
  407POPC   C1A 9807  41.093  16.859   8.674
  407POPC   D2A 9808  40.953  16.808   8.230
  407POPC   C3A 9809  41.181  16.774   7.845
  407POPC   C4A 9810  41.613  16.755   7.729
  407POPC   C1B 9811  41.557  16.645   8.666
  407POPC   C2B 9812  41.498  16.863   8.276
  407POPC   C3B 9813  41.887  17.020   8.056
  407POPC   C4B 9814  42.118  16.867   7.652
  408POPC   NC3 9815  37.030  28.793   9.226
  408POPC   PO4 9816  36.733  28.396   9.734
  408POPC   GL1 9817  36.666  28.411   9.251
  408POPC   GL2 9818  36.529  28.744   9.148
  408POPC   C1A 9819  36.712  28.186   8.818
  408POPC   D2A 9820  37.005  28.335   8.464
  408POPC   C3A 9821  36.944  28.190   8.040
  408POPC   C4A 9822  36.550  28.024   7.931
  408POPC   C1B 9823  36.633  28.666   8.727
  408POPC   C2B 9824  36.704  28.736   8.310
  408POPC   C3B 9825  36.621  28.590   7.936
  408POPC   C4B 9826  36.387  28.745   7.607
  409POPC   NC3 9827   9.935  15.186   9.482
  409POPC   PO4 9828   9.374  14.881   9.491
  409POPC   GL1 9829   9.707  14.938   9.115
  409POPC   GL2 9830   9.859  15.333   9.009
  409POPC   C1A 9831   9.683  15.005   8.684
  409POPC   D2A 9832   9.492  15.179   8.336
  409POPC   C3A 9833   9.743  15.114   8.015
  409POPC   C4A 9834  10.024  14.897   7.743
  409POPC   C1B 9835   9.489  15.485   8.753
  409POPC   C2B 9836   9.366  15.716   8.404
  409POPC   C3B 9837   9.606  15.625   8.060
  409POPC   C4B 9838   9.940  15.502   7.746
  410POPC   NC3 9839  41.499  27.048   9.451
  410POPC   PO4 9840  41.972  26.693   9.117
  410POPC   GL1 9841  41.567  26.686   9.042
  410POPC   GL2 9842  41.237  26.718   9.098
  410POPC   C1A 9843  41.446  26.918   8.696
  410POPC   D2A 9844  41.536  26.943   8.283
  410POPC   C3A 9845  41.848  26.704   8.058
  410POPC   C4A 9846  41.805  26.791   7.622
  410POPC   C1B 9847  41.192  26.467   8.740
  410POPC   C2B 9848  41.376  26.465   8.326
  410POPC   C3B 9849  41.357  26.636   7.894
  410POPC   C4B 9850  41.380  26.437   7.465
  411POPC   NC3 9851  28.420  26.852   9.575
  411POPC   PO4 9852  28.209  26.309   9.462
  411POPC   GL1 9853  28.364  26.557   9.110
  411POPC   GL2 9854  28.685  26.638   9.144
  411POPC   C1A 9855  28.385  26.808   8.687
  411POPC   D2A 9856  28.094  26.763   8.307
  411POPC   C3A 9857  28.152  26.984   7.913
  411POPC   C4A 9858  28.551  26.984   7.746
  411POPC   C1B 9859  28.713  26.421   8.758
  411POPC   C2B 9860  28.438  26.369   8.388
  411POPC   C3B 9861  28.416  26.529   7.962
  411POPC   C4B 9862  28.586  26.521   7.525
  412POPC   NC3 9863  43.102   3.363   9.620
  412POPC   PO4 9864  42.628   2.900   9.567
  412POPC   GL1 9865  42.951   3.137   9.193
  412POPC   GL2 9866  43.178   3.493   9.141
  412POPC   C1A 9867  43.099   3.210   8.746
  412POPC   D2A 9868  43.244   3.501   8.436
  412POPC   C3A 9869  43.047   3.397   8.094
  412POPC   C4A 9870  43.148   3.201   7.725
  412POPC   C1B 9871  42.947   3.720   8.786
  412POPC   C2B 9872  42.896   3.888   8.346
  412POPC   C3B 9873  43.156   3.870   7.954
  412POPC   C4B 9874  43.410   3.638   7.663
  413POPC   NC3 9875  29.176  25.514   9.367
  413POPC   PO4 9876  29.367  26.200   9.452
  413POPC   GL1 9877  29.285  25.943   9.111
  413POPC   GL2 9878  29.023  26.034   8.922
  413POPC   C1A 9879  29.474  25.901   8.708
  413POPC   D2A 9880  29.480  26.119   8.330
  413POPC   C3A 9881  29.460  25.963   7.891
  413POPC   C4A 9882  29.245  26.252   7.616
  413POPC   C1B 9883  29.030  25.630   8.686
  413POPC   C2B 9884  29.175  25.712   8.280
  413POPC   C3B 9885  29.003  26.096   8.043
  413POPC   C4B 9886  28.722  26.059   7.695
  414POPC   NC3 9887  36.687  12.459   9.305
  414POPC   PO4 9888  37.085  13.000   9.550
  414POPC   GL1 9889  36.805  12.952   9.183
  414POPC   GL2 9890  36.437  12.978   9.264
  414POPC   C1A 9891  36.879  12.835   8.764
  414POPC   D2A 9892  36.928  12.569   8.406
  414POPC   C3A 9893  36.993  12.860   8.073
  414POPC   C4A 9894  37.048  12.630   7.720
  414POPC   C1B 9895  36.414  13.073   8.822
  414POPC   C2B 9896  36.592  13.030   8.382
  414POPC   C3B 9897  36.500  13.135   7.946
  414POPC   C4B 9898  36.753  13.024   7.590
  415POPC   NC3 9899  41.882   4.040   9.804
  415POPC   PO4 9900  41.758   3.382   9.467
  415POPC   GL1 9901  41.644   3.525   9.072
  415POPC   GL2 9902  41.356   3.719   9.098
  415POPC   C1A 9903  41.736   3.447   8.657
  415POPC   D2A 9904  41.773   3.139   8.361
  415POPC   C3A 9905  41.685   3.401   8.037
  415POPC   C4A 9906  41.928   3.544   7.709
  415POPC   C1B 9907  41.240   3.418   8.758
  415POPC   C2B 9908  41.283   3.088   8.485
  415POPC   C3B 9909  41.172   3.197   8.069
  415POPC   C4B 9910  41.298   3.422   7.729
  416POPC   NC3 9911   8.020  27.959   9.423
  416POPC   PO4 9912   8.398  28.459   9.435
  416POPC   GL1 9913   8.389  28.160   9.093
  416POPC   GL2 9914   8.419  28.473   8.911
  416POPC   C1A 9915   8.127  28.109   8.700
  416POPC   D2A 9916   7.985  28.433   8.362
  416POPC   C3A 9917   8.034  28.388   7.898
  416POPC   C4A 9918   7.998  28.225   7.453
  416POPC   C1B 9919   8.606  28.207   8.600
  416POPC   C2B 9920   8.567  28.246   8.177
  416POPC   C3B 9921   8.498  28.614   7.924
  416POPC   C4B 9922   8.769  28.817   7.625
  417POPC   NC3 9923   5.577  19.322   9.411
  417POPC   PO4 9924   6.269  19.337   9.457
  417POPC   GL1 9925   5.992  19.133   9.116
  417POPC   GL2 9926   5.647  18.960   9.069
  417POPC   C1A 9927   5.890  19.295   8.710
  417POPC   D2A 9928   6.069  19.332   8.292
  417POPC   C3A 9929   5.916  19.046   7.995
  417POPC   C4A 9930   5.694  19.065   7.612
  417POPC   C1B 9931   5.766  18.813   8.674
  417POPC   C2B 9932   6.167  18.829   8.471
  417POPC   C3B 9933   6.195  18.645   8.096
  417POPC   C4B 9934   5.757  18.545   7.919
  418POPC   NC3 9935  37.891  26.547   9.571
  418POPC   PO4 9936  37.506  25.923   9.605
  418POPC   GL1 9937  37.664  25.983   9.216
  418POPC   GL2 9938  37.835  26.285   9.144
  418POPC   C1A 9939  37.642  25.916   8.797
  418POPC   D2A 9940  37.593  26.207   8.454
  418POPC   C3A 9941  37.658  25.974   8.100
  418POPC   C4A 9942  37.486  25.999   7.719
  418POPC   C1B 9943  38.019  26.249   8.732
  418POPC   C2B 9944  38.077  26.241   8.273
  418POPC   C3B 9945  37.973  26.292   7.846
  418POPC   C4B 9946  37.896  26.099   7.460
  419POPC   NC3 9947  12.415  20.291   9.333
  419POPC   PO4 9948  11.798  20.761   9.582
  419POPC   GL1 9949  11.900  20.618   9.130
  419POPC   GL2 9950  12.233  20.594   8.951
  419POPC   C1A 9951  11.831  20.446   8.682
  419POPC   D2A 9952  11.892  20.572   8.240
  419POPC   C3A 9953  12.101  20.786   7.901
  419POPC   C4A 9954  11.920  20.653   7.480
  419POPC   C1B 9955  12.322  20.645   8.490
  419POPC   C2B 9956  12.340  20.335   8.147
  419POPC   C3B 9957  12.151  20.304   7.767
  419POPC   C4B 9958  12.305  20.332   7.357
  420POPC   NC3 9959   7.895  32.420   9.643
  420POPC   PO4 9960   8.286  31.972   9.453
  420POPC   GL1 9961   8.290  32.242   9.122
  420POPC   GL2 9962   8.236  32.574   9.220
  420POPC   C1A 9963   8.158  32.200   8.718
  420POPC   D2A 9964   8.253  31.871   8.431
  420POPC   C3A 9965   8.180  32.061   8.045
  420POPC   C4A 9966   8.118  31.933   7.662
  420POPC   C1B 9967   7.914  32.662   8.893
  420POPC   C2B 9968   7.761  32.669   8.465
  420POPC   C3B 9969   7.885  32.512   8.054
  420POPC   C4B 9970   7.933  32.549   7.628
  421POPC   NC3 9971   5.685  39.379   9.522
  421POPC   PO4 9972   6.364  39.198   9.716
  421POPC   GL1 9973   6.134  39.293   9.250
  421POPC   GL2 9974   5.813  39.127   9.103
  421POPC   C1A 9975   6.063  39.486   8.825
  421POPC   D2A 9976   5.838  39.470   8.402
  421POPC   C3A 9977   6.058  39.440   8.001
  421POPC   C4A 9978   6.195  39.222   7.635
  421POPC   C1B 9979   5.972  38.983   8.709
  421POPC   C2B 9980   5.873  38.918   8.309
  421POPC   C3B 9981   5.650  39.133   8.016
  421POPC   C4B 9982   5.712  39.072   7.595
  422POPC   NC3 9983  43.345  34.716   9.635
  422POPC   PO4 9984  42.747  34.894   9.433
  422POPC   GL1 9985  43.028  34.586   9.224
  422POPC   GL2 9986  43.336  34.675   9.137
  422POPC   C1A 9987  43.084  34.528   8.736
  422POPC   D2A 9988  42.861  34.643   8.363
  422POPC   C3A 9989  43.030  34.737   7.943
  422POPC   C4A 9990  42.801  34.753   7.532
  422POPC   C1B 9991  43.534  34.332   8.899
  422POPC   C2B 9992  43.571  34.389   8.461
  422POPC   C3B 9993  43.314  34.307   8.106
  422POPC   C4B 9994  43.390  34.433   7.711
  423POPC   NC3 9995  21.387  38.435   9.722
  423POPC   PO4 9996  20.767  38.636   9.546
  423POPC   GL1 9997  21.159  38.501   9.258
  423POPC   GL2 9998  21.527  38.400   9.237
  423POPC   C1A 9999  21.306  38.509   8.789
  423POPC   D2A10000  21.554  38.558   8.386
  423POPC   C3A10001  21.350  38.501   7.993
  423POPC   C4A10002  21.394  38.302   7.593
  423POPC   C1B10003  21.684  38.158   8.894
  423POPC   C2B10004  21.778  38.111   8.453
  423POPC   C3B10005  21.662  38.114   8.018
  423POPC   C4B10006  21.872  38.205   7.616
  424POPC   NC310007  15.797  25.996   9.488
  424POPC   PO410008  16.373  25.733   9.360
  424POPC   GL110009  16.079  25.966   9.052
  424POPC   GL210010  15.708  25.845   9.010
  424POPC   C1A10011  16.100  26.356   8.773
  424POPC   D2A10012  16.055  26.309   8.315
  424POPC   C3A10013  16.039  25.869   8.166
  424POPC   C4A10014  16.236  25.762   7.793
  424POPC   C1B10015  15.601  26.260   8.846
  424POPC   C2B10016  15.610  26.521   8.463
  424POPC   C3B10017  15.670  26.511   8.022
  424POPC   C4B10018  15.843  26.171   7.807
  425POPC   NC310019  34.204  13.332   9.431
  425POPC   PO410020  34.709  13.878   9.494
  425POPC   GL110021  34.831  13.675   9.113
  425POPC   GL210022  34.563  13.466   9.104
  425POPC   C1A10023  34.798  13.576   8.679
  425POPC   D2A10024  34.981  13.582   8.297
  425POPC   C3A10025  34.692  13.552   7.947
  425POPC   C4A10026  34.706  13.714   7.519
  425POPC   C1B10027  34.271  13.554   8.756
  425POPC   C2B10028  34.276  13.578   8.329
  425POPC   C3B10029  34.180  13.321   7.996
  425POPC   C4B10030  34.264  13.495   7.600
  426POPC   NC310031  39.561   7.671   9.655
  426POPC   PO410032  39.068   7.250   9.603
  426POPC   GL110033  39.150   7.427   9.196
  426POPC   GL210034  39.478   7.548   9.142
  426POPC   C1A10035  39.033   7.454   8.748
  426POPC   D2A10036  38.835   7.378   8.337
  426POPC   C3A10037  39.111   7.387   7.982
  426POPC   C4A10038  39.141   7.284   7.562
  426POPC   C1B10039  39.642   7.465   8.689
  426POPC   C2B10040  39.651   7.361   8.209
  426POPC   C3B10041  39.588   7.248   7.771
  426POPC   C4B10042  39.765   7.258   7.316
  427POPC   NC310043  36.514  41.671   9.368
  427POPC   PO410044  36.980  41.211   9.549
  427POPC   GL110045  36.934  41.176   9.121
  427POPC   GL210046  36.575  41.187   9.151
  427POPC   C1A10047  36.993  41.442   8.733
  427POPC   D2A10048  37.284  41.670   8.464
  427POPC   C3A10049  37.182  41.557   8.080
  427POPC   C4A10050  36.996  41.801   7.740
  427POPC   C1B10051  36.652  41.058   8.727
  427POPC   C2B10052  36.661  41.268   8.356
  427POPC   C3B10053  36.710  41.412   7.965
  427POPC   C4B10054  36.989  41.239   7.709
  428POPC   NC310055  18.623   7.589   9.504
  428POPC   PO410056  18.014   7.219   9.570
  428POPC   GL110057  18.281   7.319   9.197
  428POPC   GL210058  18.339   7.693   9.107
  428POPC   C1A10059  18.205   7.334   8.753
  428POPC   D2A10060  18.007   7.246   8.347
  428POPC   C3A10061  18.317   7.188   8.036
  428POPC   C4A10062  18.331   7.275   7.622
  428POPC   C1B10063  18.403   7.836   8.710
  428POPC   C2B10064  18.451   7.583   8.343
  428POPC   C3B10065  18.396   7.706   7.936
  428POPC   C4B10066  18.596   7.782   7.584
  429POPC   NC310067  29.790  42.260  10.315
  429POPC   PO410068  29.880  42.468   9.706
  429POPC   GL110069  29.867  42.475   9.195
  429POPC   GL210070  30.162  42.571   9.004
  429POPC   C1A10071  29.955  42.161   8.808
  429POPC   D2A10072  30.097  42.117   8.350
  429POPC   C3A10073  29.947  41.895   7.962
  429POPC   C4A10074  30.112  41.829   7.558
  429POPC   C1B10075  30.101  42.598   8.583
  429POPC   C2B10076  30.067  42.596   8.180
  429POPC   C3B10077  29.822  42.606   7.861
  429POPC   C4B10078  30.003  42.715   7.482
  430POPC   NC310079   0.809  43.728   9.437
  430POPC   PO410080   0.259  44.049   9.524
  430POPC   GL110081   0.502  44.057   9.146
  430POPC   GL210082   0.440  43.702   9.079
  430POPC   C1A10083   0.402  44.043   8.710
  430POPC   D2A10084   0.566  43.866   8.349
  430POPC   C3A10085   0.461  44.084   7.971
  430POPC   C4A10086   0.707  44.091   7.561
  430POPC   C1B10087   0.730  43.546   8.754
  430POPC   C2B10088   0.631  43.325   8.376
  430POPC   C3B10089   0.374  43.488   8.064
  430POPC   C4B10090   0.546  43.647   7.741
  431POPC   NC310091  18.362  44.798   9.476
  431POPC   PO410092  18.869  44.388   9.191
  431POPC   GL110093  18.450  44.537   9.029
  431POPC   GL210094  18.084  44.717   9.061
  431POPC   C1A10095  18.409  44.757   8.646
  431POPC   D2A10096  18.200  44.785   8.246
  431POPC   C3A10097  18.442  44.791   7.854
  431POPC   C4A10098  18.112  44.962   7.606
  431POPC   C1B10099  18.032  44.388   8.732
  431POPC   C2B10100  18.170  44.269   8.312
  431POPC   C3B10101  18.163  44.326   7.848
  431POPC   C4B10102  17.855  44.268   7.476
  432POPC   NC310103  35.283  34.368   9.327
  432POPC   PO410104  35.777  34.713   9.556
  432POPC   GL110105  35.603  34.875   9.179
  432POPC   GL210106  35.235  34.904   9.181
  432POPC   C1A10107  35.586  34.933   8.719
  432POPC   D2A10108  35.526  34.821   8.254
  432POPC   C3A10109  35.388  34.400   8.118
  432POPC   C4A10110  35.400  34.242   7.697
  432POPC   C1B10111  34.952  34.724   8.853
  432POPC   C2B10112  34.864  34.860   8.446
  432POPC   C3B10113  34.927  34.831   8.031
  432POPC   C4B10114  35.298  34.773   7.770
  433POPC   NC310115  41.725   1.715   9.478
  433POPC   PO410116  41.318   1.143   9.510
  433POPC   GL110117  41.427   1.150   9.100
  433POPC   GL210118  41.267   0.844   9.052
  433POPC   C1A10119  41.761   1.149   8.781
  433POPC   D2A10120  41.935   1.006   8.372
  433POPC   C3A10121  41.756   1.183   7.991
  433POPC   C4A10122  41.419   1.494   7.942
  433POPC   C1B10123  41.310   0.993   8.606
  433POPC   C2B10124  41.302   1.022   8.174
  433POPC   C3B10125  41.318   1.035   7.739
  433POPC   C4B10126  41.219   1.153   7.339
  434POPC   NC310127   7.404   2.316   9.754
  434POPC   PO410128   7.233   2.895   9.499
  434POPC   GL110129   7.185   2.742   9.108
  434POPC   GL210130   7.523   2.684   9.007
  434POPC   C1A10131   7.133   2.788   8.679
  434POPC   D2A10132   7.282   2.506   8.357
  434POPC   C3A10133   7.335   2.732   8.028
  434POPC   C4A10134   7.132   2.873   7.700
  434POPC   C1B10135   7.688   2.316   8.789
  434POPC   C2B10136   7.854   2.156   8.401
  434POPC   C3B10137   7.674   2.276   8.036
  434POPC   C4B10138   7.706   2.573   7.717
  435POPC   NC310139  41.444  41.316   9.481
  435POPC   PO410140  41.543  42.019   9.439
  435POPC   GL110141  41.407  41.768   9.063
  435POPC   GL210142  41.349  41.413   9.007
  435POPC   C1A10143  41.613  41.774   8.638
  435POPC   D2A10144  41.866  41.501   8.343
  435POPC   C3A10145  41.680  41.443   7.935
  435POPC   C4A10146  41.785  41.782   7.657
  435POPC   C1B10147  41.552  41.255   8.659
  435POPC   C2B10148  41.487  41.061   8.273
  435POPC   C3B10149  41.182  41.134   7.985
  435POPC   C4B10150  41.304  41.208   7.594
  436POPC   NC310151   6.231  16.209   9.535
  436POPC   PO410152   5.554  16.186   9.487
  436POPC   GL110153   5.705  15.988   9.144
  436POPC   GL210154   6.025  15.804   9.185
  436POPC   C1A10155   5.618  15.905   8.741
  436POPC   D2A10156   5.621  15.736   8.349
  436POPC   C3A10157   5.553  15.995   8.008
  436POPC   C4A10158   5.463  15.815   7.643
  436POPC   C1B10159   6.131  15.930   8.745
  436POPC   C2B10160   5.929  16.150   8.366
  436POPC   C3B10161   6.056  16.142   7.915
  436POPC   C4B10162   5.926  16.023   7.463
  437POPC   NC310163  40.527  25.004   9.529
  437POPC   PO410164  39.888  25.328   9.386
  437POPC   GL110165  39.973  25.083   9.037
  437POPC   GL210166  40.302  25.079   9.093
  437POPC   C1A10167  40.037  25.098   8.611
  437POPC   D2A10168  39.900  25.458   8.443
  437POPC   C3A10169  39.685  25.286   8.130
  437POPC   C4A10170  39.818  25.232   7.732
  437POPC   C1B10171  40.358  25.429   8.812
  437POPC   C2B10172  40.425  25.373   8.370
  437POPC   C3B10173  40.182  25.464   8.000
  437POPC   C4B10174  40.272  25.402   7.563
  438POPC   NC310175  31.176  31.824   9.544
  438POPC   PO410176  31.845  31.657   9.398
  438POPC   GL110177  31.435  31.528   9.190
  438POPC   GL210178  31.498  31.882   9.083
  438POPC   C1A10179  31.208  31.292   8.812
  438POPC   D2A10180  31.349  31.176   8.337
  438POPC   C3A10181  31.428  31.239   7.851
  438POPC   C4A10182  31.519  31.540   7.444
  438POPC   C1B10183  31.120  31.798   8.883
  438POPC   C2B10184  31.041  31.669   8.474
  438POPC   C3B10185  31.269  31.698   8.117
  438POPC   C4B10186  31.112  31.618   7.734
  439POPC   NC310187   2.973  18.747   9.465
  439POPC   PO410188   2.497  19.183   9.395
  439POPC   GL110189   2.618  18.876   9.105
  439POPC   GL210190   2.974  18.944   9.007
  439POPC   C1A10191   2.599  18.952   8.663
  439POPC   D2A10192   2.274  19.037   8.361
  439POPC   C3A10193   2.471  19.131   7.983
  439POPC   C4A10194   2.729  18.999   7.690
  439POPC   C1B10195   2.964  19.354   8.793
  439POPC   C2B10196   3.173  19.435   8.391
  439POPC   C3B10197   3.146  19.234   7.978
  439POPC   C4B10198   3.186  19.152   7.529
  440POPC   NC310199   8.850  42.785   9.316
  440POPC   PO410200   9.162  43.333   9.508
  440POPC   GL110201   9.108  43.211   9.126
  440POPC   GL210202   8.746  43.278   9.121
  440POPC   C1A10203   9.298  42.922   8.824
  440POPC   D2A10204   9.337  42.763   8.402
  440POPC   C3A10205   9.035  42.993   8.184
  440POPC   C4A10206   9.117  43.367   7.970
  440POPC   C1B10207   8.880  43.239   8.663
  440POPC   C2B10208   8.665  43.341   8.252
  440POPC   C3B10209   8.497  43.145   7.868
  440POPC   C4B10210   8.513  42.662   7.771
  441POPC   NC310211  19.741  27.067   9.595
  441POPC   PO410212  19.983  26.363   9.483
  441POPC   GL110213  19.993  26.781   9.257
  441POPC   GL210214  19.661  26.846   9.140
  441POPC   C1A10215  20.041  26.973   8.836
  441POPC   D2A10216  19.863  26.759   8.486
  441POPC   C3A10217  19.834  26.797   8.049
  441POPC   C4A10218  20.064  27.003   7.716
  441POPC   C1B10219  19.508  26.577   8.812
  441POPC   C2B10220  19.381  26.669   8.370
  441POPC   C3B10221  19.404  26.538   7.918
  441POPC   C4B10222  19.406  26.519   7.448
  442POPC   NC310223   9.443  32.944   9.406
  442POPC   PO410224   8.837  33.264   9.333
  442POPC   GL110225   9.007  33.157   9.030
  442POPC   GL210226   9.040  32.791   9.023
  442POPC   C1A10227   8.896  33.197   8.629
  442POPC   D2A10228   8.856  32.862   8.396
  442POPC   C3A10229   8.641  32.908   8.042
  442POPC   C4A10230   8.804  32.804   7.660
  442POPC   C1B10231   9.374  32.988   8.746
  442POPC   C2B10232   9.347  33.081   8.336
  442POPC   C3B10233   9.208  32.885   7.977
  442POPC   C4B10234   9.273  32.851   7.521
  443POPC   NC310235  10.990  32.421   9.592
  443POPC   PO410236  10.604  32.934   9.544
  443POPC   GL110237  10.664  33.043   9.126
  443POPC   GL210238  10.810  33.345   9.123
  443POPC   C1A10239  10.483  32.848   8.728
  443POPC   D2A10240  10.176  32.948   8.400
  443POPC   C3A10241  10.263  32.810   7.976
  443POPC   C4A10242  10.291  32.814   7.545
  443POPC   C1B10243  10.513  33.348   8.687
  443POPC   C2B10244  10.556  33.233   8.224
  443POPC   C3B10245  10.590  33.175   7.760
  443POPC   C4B10246  10.407  33.304   7.374
  444POPC   NC310247  16.503   7.595   9.480
  444POPC   PO410248  17.109   7.275   9.475
  444POPC   GL110249  16.775   7.288   9.139
  444POPC   GL210250  16.577   6.996   9.135
  444POPC   C1A10251  16.519   7.377   8.744
  444POPC   D2A10252  16.326   7.434   8.309
  444POPC   C3A10253  16.591   7.461   7.926
  444POPC   C4A10254  16.468   7.667   7.575
  444POPC   C1B10255  16.233   6.951   8.856
  444POPC   C2B10256  16.268   6.912   8.410
  444POPC   C3B10257  16.423   6.985   8.002
  444POPC   C4B10258  16.445   7.119   7.548
  445POPC   NC310259  26.613   6.346   9.539
  445POPC   PO410260  26.922   6.981   9.479
  445POPC   GL110261  26.845   6.924   9.067
  445POPC   GL210262  26.816   6.585   9.110
  445POPC   C1A10263  26.900   6.781   8.641
  445POPC   D2A10264  26.963   6.981   8.261
  445POPC   C3A10265  26.817   6.678   7.990
  445POPC   C4A10266  26.973   6.273   8.071
  445POPC   C1B10267  26.518   6.417   8.794
  445POPC   C2B10268  26.521   6.244   8.360
  445POPC   C3B10269  26.445   6.329   7.919
  445POPC   C4B10270  26.479   6.451   7.462
  446POPC   NC310271  19.140   5.386   9.473
  446POPC   PO410272  18.865   4.773   9.484
  446POPC   GL110273  18.979   4.985   9.106
  446POPC   GL210274  18.668   5.062   8.970
  446POPC   C1A10275  19.229   4.917   8.699
  446POPC   D2A10276  19.338   5.216   8.330
  446POPC   C3A10277  19.302   5.043   7.887
  446POPC   C4A10278  19.557   5.202   7.527
  446POPC   C1B10279  18.873   5.253   8.655
  446POPC   C2B10280  18.868   5.067   8.270
  446POPC   C3B10281  18.735   5.136   7.883
  446POPC   C4B10282  18.876   4.832   7.635
  447POPC   NC310283  31.824   1.088   9.954
  447POPC   PO410284  31.452   1.238   9.417
  447POPC   GL110285  31.336   0.959   9.094
  447POPC   GL210286  31.146   1.236   8.946
  447POPC   C1A10287  31.257   0.802   8.662
  447POPC   D2A10288  31.250   1.128   8.350
  447POPC   C3A10289  31.487   0.958   8.036
  447POPC   C4A10290  31.702   0.714   7.741
  447POPC   C1B10291  31.469   1.437   8.744
  447POPC   C2B10292  31.714   1.381   8.358
  447POPC   C3B10293  31.522   1.458   7.989
  447POPC   C4B10294  31.527   1.222   7.603
  448POPC   NC310295  11.875   4.423   9.698
  448POPC   PO410296  12.413   3.982   9.576
  448POPC   GL110297  12.380   4.244   9.199
  448POPC   GL210298  12.026   4.337   9.194
  448POPC   C1A10299  12.270   4.150   8.755
  448POPC   D2A10300  12.344   4.042   8.342
  448POPC   C3A10301  12.200   4.303   8.039
  448POPC   C4A10302  12.373   4.448   7.664
  448POPC   C1B10303  11.845   4.441   8.783
  448POPC   C2B10304  11.715   4.397   8.316
  448POPC   C3B10305  11.791   4.646   7.916
  448POPC   C4B10306  11.905   4.498   7.482
  449POPC   NC310307  40.038  24.175   9.523
  449POPC   PO410308  40.097  23.499   9.555
  449POPC   GL110309  39.968  23.685   9.158
  449POPC   GL210310  40.019  24.021   9.022
  449POPC   C1A10311  39.871  23.614   8.720
  449POPC   D2A10312  40.125  23.495   8.354
  449POPC   C3A10313  39.987  23.539   7.914
  449POPC   C4A10314  39.923  23.699   7.494
  449POPC   C1B10315  40.345  23.771   8.767
  449POPC   C2B10316  40.525  23.842   8.365
  449POPC   C3B10317  40.489  23.602   8.003
  449POPC   C4B10318  40.468  23.739   7.614
  450POPC   NC310319  25.586  13.706   9.395
  450POPC   PO410320  25.193  13.260   9.645
  450POPC   GL110321  25.352  13.241   9.183
  450POPC   GL210322  25.646  13.040   9.162
  450POPC   C1A10323  25.139  13.361   8.730
  450POPC   D2A10324  25.102  13.709   8.439
  450POPC   C3A10325  25.023  13.799   8.026
  450POPC   C4A10326  25.374  13.815   7.776
  450POPC   C1B10327  25.639  13.328   8.779
  450POPC   C2B10328  25.501  13.414   8.374
  450POPC   C3B10329  25.457  13.348   7.965
  450POPC   C4B10330  25.759  13.436   7.645
  451POPC   NC310331   6.319  27.916   9.371
  451POPC   PO410332   6.596  28.591   9.392
  451POPC   GL110333   6.577  28.276   9.133
  451POPC   GL210334   6.220  28.358   9.135
  451POPC   C1A10335   6.766  28.128   8.772
  451POPC   D2A10336   6.880  28.419   8.457
  451POPC   C3A10337   6.734  28.321   8.066
  451POPC   C4A10338   6.882  27.996   7.833
  451POPC   C1B10339   6.229  28.170   8.751
  451POPC   C2B10340   6.382  28.112   8.381
  451POPC   C3B10341   6.254  28.191   7.978
  451POPC   C4B10342   6.456  28.079   7.608
  452POPC   NC310343  20.161  41.676   9.445
  452POPC   PO410344  20.867  41.593   9.407
  452POPC   GL110345  20.532  41.428   9.176
  452POPC   GL210346  20.439  41.723   9.036
  452POPC   C1A10347  20.544  41.175   8.826
  452POPC   D2A10348  20.721  41.104   8.465
  452POPC   C3A10349  20.601  41.358   8.168
  452POPC   C4A10350  20.758  41.319   7.767
  452POPC   C1B10351  20.605  41.635   8.643
  452POPC   C2B10352  20.702  41.869   8.300
  452POPC   C3B10353  20.583  41.793   7.900
  452POPC   C4B10354  20.540  42.040   7.576
  453POPC   NC310355  24.185  14.773   9.405
  453POPC   PO410356  23.718  14.224   9.542
  453POPC   GL110357  23.609  14.408   9.141
  453POPC   GL210358  23.801  14.722   9.073
  453POPC   C1A10359  23.671  14.266   8.725
  453POPC   D2A10360  23.482  14.002   8.404
  453POPC   C3A10361  23.680  14.122   8.005
  453POPC   C4A10362  24.146  14.207   7.895
  453POPC   C1B10363  24.035  14.665   8.701
  453POPC   C2B10364  23.952  14.455   8.327
  453POPC   C3B10365  23.811  14.624   7.958
  453POPC   C4B10366  23.969  14.643   7.544
  454POPC   NC310367  14.737   4.270   9.474
  454POPC   PO410368  14.110   4.547   9.641
  454POPC   GL110369  14.151   4.284   9.225
  454POPC   GL210370  14.471   4.328   9.067
  454POPC   C1A10371  14.115   4.175   8.753
  454POPC   D2A10372  14.125   4.046   8.308
  454POPC   C3A10373  14.199   4.373   8.024
  454POPC   C4A10374  14.428   4.416   7.610
  454POPC   C1B10375  14.689   4.036   8.811
  454POPC   C2B10376  14.622   4.180   8.427
  454POPC   C3B10377  14.701   4.237   8.024
  454POPC   C4B10378  14.906   4.197   7.665
  455POPC   NC310379  32.100  29.544   9.552
  455POPC   PO410380  32.647  29.947   9.423
  455POPC   GL110381  32.490  29.592   9.211
  455POPC   GL210382  32.214  29.787   9.118
  455POPC   C1A10383  32.534  29.524   8.792
  455POPC   D2A10384  32.449  29.852   8.496
  455POPC   C3A10385  32.602  29.755   8.089
  455POPC   C4A10386  32.382  29.846   7.695
  455POPC   C1B10387  31.966  29.961   8.793
  455POPC   C2B10388  31.935  29.800   8.407
  455POPC   C3B10389  31.978  29.938   8.038
  455POPC   C4B10390  31.894  29.772   7.667
  456POPC   NC310391   3.474  17.980   9.150
  456POPC   PO410392   3.591  17.440   9.455
  456POPC   GL110393   3.536  17.456   9.071
  456POPC   GL210394   3.175  17.549   9.147
  456POPC   C1A10395   3.677  17.306   8.661
  456POPC   D2A10396   3.645  17.559   8.277
  456POPC   C3A10397   3.613  17.307   7.897
  456POPC   C4A10398   3.591  17.614   7.590
  456POPC   C1B10399   3.179  17.431   8.719
  456POPC   C2B10400   3.252  17.262   8.326
  456POPC   C3B10401   3.095  17.296   7.946
  456POPC   C4B10402   3.096  17.531   7.583
  457POPC   NC310403   6.512   4.845   9.390
  457POPC   PO410404   6.624   5.480   9.563
  457POPC   GL110405   6.506   5.331   9.148
  457POPC   GL210406   6.804   5.179   9.060
  457POPC   C1A10407   6.496   5.365   8.683
  457POPC   D2A10408   6.740   5.359   8.286
  457POPC   C3A10409   6.541   5.415   7.867
  457POPC   C4A10410   6.373   5.357   7.431
  457POPC   C1B10411   6.720   4.881   8.742
  457POPC   C2B10412   6.696   4.624   8.389
  457POPC   C3B10413   6.576   4.864   8.059
  457POPC   C4B10414   6.626   4.954   7.641
  458POPC   NC310415   9.370  13.976   9.474
  458POPC   PO410416   8.910  13.467   9.420
  458POPC   GL110417   9.077  13.701   9.124
  458POPC   GL210418   8.937  14.022   9.206
  458POPC   C1A10419   8.927  13.754   8.728
  458POPC   D2A10420   8.716  13.565   8.411
  458POPC   C3A10421   8.975  13.408   8.125
  458POPC   C4A10422   8.851  13.507   7.749
  458POPC   C1B10423   8.645  14.145   8.914
  458POPC   C2B10424   8.679  14.115   8.458
  458POPC   C3B10425   8.910  13.965   8.105
  458POPC   C4B10426   8.748  13.991   7.684
  459POPC   NC310427  39.323  42.096   9.470
  459POPC   PO410428  39.127  42.751   9.401
  459POPC   GL110429  39.199  42.436   9.092
  459POPC   GL210430  38.957  42.197   9.015
  459POPC   C1A10431  39.256  42.292   8.645
  459POPC   D2A10432  39.091  42.351   8.278
  459POPC   C3A10433  39.386  42.350   7.954
  459POPC   C4A10434  39.331  42.443   7.536
  459POPC   C1B10435  38.823  42.001   8.598
  459POPC   C2B10436  38.797  41.967   8.140
  459POPC   C3B10437  38.904  42.198   7.778
  459POPC   C4B10438  38.949  42.043   7.328
  460POPC   NC310439  41.257  11.000   9.362
  460POPC   PO410440  41.116  11.579   9.428
  460POPC   GL110441  41.310  11.421   9.035
  460POPC   GL210442  41.242  11.105   8.868
  460POPC   C1A10443  41.442  11.498   8.605
  460POPC   D2A10444  41.687  11.344   8.236
  460POPC   C3A10445  41.777  11.615   7.892
  460POPC   C4A10446  41.867  11.497   7.448
  460POPC   C1B10447  40.923  10.936   8.582
  460POPC   C2B10448  40.895  10.867   8.119
  460POPC   C3B10449  41.255  10.954   7.859
  460POPC   C4B10450  41.399  11.343   7.667
  461POPC   NC310451  13.291  19.851   9.532
  461POPC   PO410452  13.885  20.171   9.368
  461POPC   GL110453  13.674  19.824   9.182
  461POPC   GL210454  13.358  19.918   9.048
  461POPC   C1A10455  13.749  19.564   8.817
  461POPC   D2A10456  13.668  19.586   8.383
  461POPC   C3A10457  14.038  19.624   8.128
  461POPC   C4A10458  13.995  19.606   7.677
  461POPC   C1B10459  13.556  20.027   8.688
  461POPC   C2B10460  13.660  20.119   8.275
  461POPC   C3B10461  13.626  19.853   7.938
  461POPC   C4B10462  13.404  19.540   7.708
  462POPC   NC310463   3.418  31.380   9.642
  462POPC   PO410464   4.079  31.643   9.496
  462POPC   GL110465   4.200  31.459   9.124
  462POPC   GL210466   4.547  31.389   9.084
  462POPC   C1A10467   4.223  31.515   8.707
  462POPC   D2A10468   4.040  31.511   8.339
  462POPC   C3A10469   4.181  31.366   7.957
  462POPC   C4A10470   4.218  31.540   7.591
  462POPC   C1B10471   4.682  31.273   8.699
  462POPC   C2B10472   4.478  31.183   8.310
  462POPC   C3B10473   4.669  31.188   7.864
  462POPC   C4B10474   4.784  31.216   7.381
  463POPC   NC310475  29.921  12.222   9.647
  463POPC   PO410476  29.495  11.829   9.300
  463POPC   GL110477  29.788  11.915   9.009
  463POPC   GL210478  30.095  12.064   9.158
  463POPC   C1A10479  29.865  12.097   8.594
  463POPC   D2A10480  30.071  11.916   8.246
  463POPC   C3A10481  29.850  11.895   7.885
  463POPC   C4A10482  29.744  12.244   7.707
  463POPC   C1B10483  30.280  12.326   8.809
  463POPC   C2B10484  30.199  12.424   8.353
  463POPC   C3B10485  30.200  12.335   7.901
  463POPC   C4B10486  30.203  12.360   7.430
  464POPC   NC310487   3.060  43.241   9.419
  464POPC   PO410488   2.698  42.683   9.491
  464POPC   GL110489   2.598  42.815   9.070
  464POPC   GL210490   2.933  42.891   9.068
  464POPC   C1A10491   2.644  42.874   8.620
  464POPC   D2A10492   2.649  43.272   8.388
  464POPC   C3A10493   2.513  43.215   8.000
  464POPC   C4A10494   2.474  42.795   7.814
  464POPC   C1B10495   3.017  43.185   8.735
  464POPC   C2B10496   3.059  42.974   8.326
  464POPC   C3B10497   2.966  42.968   7.911
  464POPC   C4B10498   3.147  43.218   7.615
  465POPC   NC310499  37.439  10.236   9.554
  465POPC   PO410500  38.104  10.304   9.697
  465POPC   GL110501  37.921  10.336   9.284
  465POPC   GL210502  37.723  10.664   9.230
  465POPC   C1A10503  37.973  10.384   8.825
  465POPC   D2A10504  37.828  10.249   8.393
  465POPC   C3A10505  38.073  10.272   8.013
  465POPC   C4A10506  37.933  10.192   7.593
  465POPC   C1B10507  37.668  10.800   8.769
  465POPC   C2B10508  37.567  10.702   8.316
  465POPC   C3B10509  37.626  10.492   7.919
  465POPC   C4B10510  37.510  10.469   7.468
  466POPC   NC310511  24.200   8.411   9.469
  466POPC   PO410512  24.909   8.443   9.464
  466POPC   GL110513  24.629   8.247   9.177
  466POPC   GL210514  24.695   7.908   9.147
  466POPC   C1A10515  24.505   8.396   8.771
  466POPC   D2A10516  24.658   8.493   8.370
  466POPC   C3A10517  24.461   8.366   8.030
  466POPC   C4A10518  24.313   8.240   7.637
  466POPC   C1B10519  24.308   7.940   8.850
  466POPC   C2B10520  24.214   8.070   8.408
  466POPC   C3B10521  24.289   7.879   7.994
  466POPC   C4B10522  24.540   7.809   7.589
  467POPC   NC310523  36.897  31.198   9.278
  467POPC   PO410524  36.816  30.602   9.518
  467POPC   GL110525  36.624  30.754   9.178
  467POPC   GL210526  36.971  30.740   9.057
  467POPC   C1A10527  36.538  30.868   8.759
  467POPC   D2A10528  36.687  30.695   8.356
  467POPC   C3A10529  36.609  30.881   7.967
  467POPC   C4A10530  36.883  31.136   7.747
  467POPC   C1B10531  37.028  30.903   8.681
  467POPC   C2B10532  37.211  30.650   8.417
  467POPC   C3B10533  37.258  30.495   8.038
  467POPC   C4B10534  37.041  30.614   7.702
  468POPC   NC310535  28.782  18.061   9.643
  468POPC   PO410536  29.235  18.495   9.555
  468POPC   GL110537  29.206  18.265   9.157
  468POPC   GL210538  28.937  18.023   9.144
  468POPC   C1A10539  29.343  18.098   8.736
  468POPC   D2A10540  29.187  18.242   8.355
  468POPC   C3A10541  29.229  18.060   7.976
  468POPC   C4A10542  29.221  18.312   7.574
  468POPC   C1B10543  28.839  18.009   8.692
  468POPC   C2B10544  28.731  18.007   8.248
  468POPC   C3B10545  28.770  18.236   7.835
  468POPC   C4B10546  28.779  18.004   7.471
  469POPC   NC310547  19.304   3.668   9.563
  469POPC   PO410548  18.741   3.891   9.343
  469POPC   GL110549  18.913   3.666   9.055
  469POPC   GL210550  19.206   3.558   9.070
  469POPC   C1A10551  18.827   3.427   8.719
  469POPC   D2A10552  18.829   3.628   8.366
  469POPC   C3A10553  18.857   3.439   7.976
  469POPC   C4A10554  18.601   3.281   7.710
  469POPC   C1B10555  19.293   3.678   8.633
  469POPC   C2B10556  19.299   3.619   8.183
  469POPC   C3B10557  19.261   3.703   7.761
  469POPC   C4B10558  19.241   3.865   7.326
  470POPC   NC310559   8.427  12.466   9.452
  470POPC   PO410560   8.111  13.138   9.429
  470POPC   GL110561   8.349  12.947   9.141
  470POPC   GL210562   8.694  12.974   9.239
  470POPC   C1A10563   8.208  12.792   8.759
  470POPC   D2A10564   8.078  12.910   8.365
  470POPC   C3A10565   8.243  12.751   8.014
  470POPC   C4A10566   8.247  12.871   7.597
  470POPC   C1B10567   8.698  12.705   8.827
  470POPC   C2B10568   8.511  12.512   8.447
  470POPC   C3B10569   8.712  12.600   8.107
  470POPC   C4B10570   8.738  12.660   7.690
  471POPC   NC310571   9.596  15.784   9.585
  471POPC   PO410572  10.069  16.283   9.526
  471POPC   GL110573   9.799  16.053   9.211
  471POPC   GL210574   9.454  16.058   9.172
  471POPC   C1A10575   9.864  15.838   8.817
  471POPC   D2A10576   9.816  16.020   8.397
  471POPC   C3A10577   9.994  15.948   7.981
  471POPC   C4A10578  10.031  16.093   7.540
  471POPC   C1B10579   9.454  16.131   8.757
  471POPC   C2B10580   9.511  16.437   8.448
  471POPC   C3B10581   9.529  16.256   8.061
  471POPC   C4B10582   9.565  15.985   7.702
  472POPC   NC310583  42.597  31.925   9.551
  472POPC   PO410584  42.378  31.293   9.563
  472POPC   GL110585  42.250  31.583   9.216
  472POPC   GL210586  42.302  31.292   9.048
  472POPC   C1A10587  42.141  31.648   8.745
  472POPC   D2A10588  42.340  31.425   8.428
  472POPC   C3A10589  42.313  31.601   7.999
  472POPC   C4A10590  42.271  31.506   7.547
  472POPC   C1B10591  42.680  31.207   8.827
  472POPC   C2B10592  42.700  31.039   8.430
  472POPC   C3B10593  42.713  31.288   8.094
  472POPC   C4B10594  42.642  31.231   7.716
  473POPC   NC310595  39.107  15.847   9.784
  473POPC   PO410596  39.341  16.387   9.639
  473POPC   GL110597  39.096  16.097   9.313
  473POPC   GL210598  38.995  15.721   9.291
  473POPC   C1A10599  38.937  16.120   8.885
  473POPC   D2A10600  39.011  16.192   8.430
  473POPC   C3A10601  39.302  15.945   8.150
  473POPC   C4A10602  39.478  15.726   7.769
  473POPC   C1B10603  38.960  15.568   8.860
  473POPC   C2B10604  38.929  15.679   8.401
  473POPC   C3B10605  39.020  15.539   7.979
  473POPC   C4B10606  39.002  15.694   7.545
  474POPC   NC310607  29.173  17.150   9.393
  474POPC   PO410608  28.767  17.612   9.602
  474POPC   GL110609  28.847  17.500   9.154
  474POPC   GL210610  28.962  17.192   8.928
  474POPC   C1A10611  29.159  17.648   8.867
  474POPC   D2A10612  29.251  17.705   8.422
  474POPC   C3A10613  29.107  17.541   8.054
  474POPC   C4A10614  28.765  17.678   7.843
  474POPC   C1B10615  29.381  17.234   8.696
  474POPC   C2B10616  29.489  17.232   8.247
  474POPC   C3B10617  29.420  17.281   7.736
  474POPC   C4B10618  29.464  17.214   7.271
  475POPC   NC310619  27.283  42.822   9.731
  475POPC   PO410620  27.292  43.369   9.708
  475POPC   GL110621  27.377  43.478   9.243
  475POPC   GL210622  27.272  43.142   9.161
  475POPC   C1A10623  27.614  43.493   8.816
  475POPC   D2A10624  27.806  43.627   8.386
  475POPC   C3A10625  27.731  43.362   8.019
  475POPC   C4A10626  27.723  43.062   7.644
  475POPC   C1B10627  27.134  43.327   8.765
  475POPC   C2B10628  27.339  43.354   8.355
  475POPC   C3B10629  27.231  43.332   7.899
  475POPC   C4B10630  27.100  43.459   7.455
  476POPC   NC310631  15.947  30.693   9.484
  476POPC   PO410632  16.539  30.955   9.393
  476POPC   GL110633  16.228  30.775   9.051
  476POPC   GL210634  15.855  30.597   9.013
  476POPC   C1A10635  16.053  30.810   8.623
  476POPC   D2A10636  15.797  30.581   8.355
  476POPC   C3A10637  16.021  30.772   8.036
  476POPC   C4A10638  16.112  30.572   7.694
  476POPC   C1B10639  15.567  30.861   8.796
  476POPC   C2B10640  15.642  31.055   8.405
  476POPC   C3B10641  15.546  30.943   8.008
  476POPC   C4B10642  15.604  30.619   7.721
  477POPC   NC310643  40.693  30.506   9.599
  477POPC   PO410644  40.566  31.141   9.517
  477POPC   GL110645  40.717  30.803   9.165
  477POPC   GL210646  40.543  30.423   9.122
  477POPC   C1A10647  40.617  30.741   8.712
  477POPC   D2A10648  40.364  30.799   8.360
  477POPC   C3A10649  40.627  30.726   8.038
  477POPC   C4A10650  40.610  30.875   7.635
  477POPC   C1B10651  40.925  30.377   8.847
  477POPC   C2B10652  41.072  30.528   8.421
  477POPC   C3B10653  40.998  30.372   7.989
  477POPC   C4B10654  40.609  30.323   7.726
  478POPC   NC310655  42.742  35.381   9.444
  478POPC   PO410656  43.249  35.144   9.795
  478POPC   GL110657  43.189  35.142   9.318
  478POPC   GL210658  43.235  35.502   9.238
  478POPC   C1A10659  43.195  35.081   8.834
  478POPC   D2A10660  43.329  34.959   8.383
  478POPC   C3A10661  43.195  35.210   8.000
  478POPC   C4A10662  43.081  35.173   7.545
  478POPC   C1B10663  43.010  35.578   8.859
  478POPC   C2B10664  43.109  35.476   8.450
  478POPC   C3B10665  43.099  35.738   8.101
  478POPC   C4B10666  43.062  35.650   7.721
  479POPC   NC310667   9.866  18.515   9.532
  479POPC   PO410668   9.727  19.152   9.520
  479POPC   GL110669   9.540  19.045   9.148
  479POPC   GL210670   9.599  18.730   9.155
  479POPC   C1A10671   9.533  19.155   8.723
  479POPC   D2A10672   9.886  19.287   8.455
  479POPC   C3A10673   9.767  19.193   8.047
  479POPC   C4A10674   9.365  19.117   7.963
  479POPC   C1B10675   9.837  18.726   8.792
  479POPC   C2B10676   9.715  18.795   8.380
  479POPC   C3B10677   9.670  18.661   7.962
  479POPC   C4B10678   9.919  18.862   7.654
  480POPC   NC310679  19.005  36.198   9.646
  480POPC   PO410680  18.909  35.727   9.223
  480POPC   GL110681  18.995  36.144   9.109
  480POPC   GL210682  19.271  36.371   9.176
  480POPC   C1A10683  19.090  36.248   8.680
  480POPC   D2A10684  19.047  36.440   8.278
  480POPC   C3A10685  18.983  36.158   7.941
  480POPC   C4A10686  18.818  35.841   7.675
  480POPC   C1B10687  19.390  36.621   8.810
  480POPC   C2B10688  19.539  36.499   8.390
  480POPC   C3B10689  19.454  36.320   8.000
  480POPC   C4B10690  19.313  36.370   7.587
  481POPC   NC310691  42.970  23.957   9.669
  481POPC   PO410692  43.449  23.583   9.490
  481POPC   GL110693  43.104  23.717   9.196
  481POPC   GL210694  42.886  24.071   9.181
  481POPC   C1A10695  43.268  23.588   8.781
  481POPC   D2A10696  43.395  23.799   8.401
  481POPC   C3A10697  43.367  23.512   8.052
  481POPC   C4A10698  43.267  23.627   7.654
  481POPC   C1B10699  42.971  24.000   8.748
  481POPC   C2B10700  42.871  23.885   8.346
  481POPC   C3B10701  43.118  23.986   7.988
  481POPC   C4B10702  43.236  24.121   7.574
  482POPC   NC310703  14.109  30.972   9.341
  482POPC   PO410704  14.613  31.357   9.532
  482POPC   GL110705  14.446  31.321   9.137
  482POPC   GL210706  14.319  31.622   9.179
  482POPC   C1A10707  14.644  31.350   8.725
  482POPC   D2A10708  14.755  31.530   8.330
  482POPC   C3A10709  14.696  31.295   7.968
  482POPC   C4A10710  14.610  31.571   7.663
  482POPC   C1B10711  14.258  31.708   8.787
  482POPC   C2B10712  14.332  31.815   8.395
  482POPC   C3B10713  14.250  31.593   8.017
  482POPC   C4B10714  14.182  31.184   7.866
  483POPC   NC310715   5.688  26.140   9.549
  483POPC   PO410716   6.076  25.643   9.406
  483POPC   GL110717   5.742  25.845   9.125
  483POPC   GL210718   5.453  26.136   9.109
  483POPC   C1A10719   5.762  26.029   8.720
  483POPC   D2A10720   5.721  25.837   8.334
  483POPC   C3A10721   6.065  25.827   8.073
  483POPC   C4A10722   5.896  25.850   7.678
  483POPC   C1B10723   5.385  26.408   8.762
  483POPC   C2B10724   5.563  26.349   8.359
  483POPC   C3B10725   5.710  26.248   7.930
  483POPC   C4B10726   5.836  26.464   7.535
  484POPC   NC310727  18.095  26.810   9.723
  484POPC   PO410728  18.624  27.134   9.473
  484POPC   GL110729  18.362  26.852   9.195
  484POPC   GL210730  18.041  26.819   9.199
  484POPC   C1A10731  18.434  26.771   8.789
  484POPC   D2A10732  18.545  26.922   8.406
  484POPC   C3A10733  18.202  26.937   8.166
  484POPC   C4A10734  18.196  26.990   7.752
  484POPC   C1B10735  17.924  26.667   8.821
  484POPC   C2B10736  18.155  26.511   8.451
  484POPC   C3B10737  18.176  26.434   8.004
  484POPC   C4B10738  17.995  26.573   7.597
  485POPC   NC310739  36.294  24.285   9.516
  485POPC   PO410740  36.085  24.910   9.540
  485POPC   GL110741  36.103  24.824   9.127
  485POPC   GL210742  36.391  24.588   9.068
  485POPC   C1A10743  35.987  24.681   8.728
  485POPC   D2A10744  35.942  24.486   8.335
  485POPC   C3A10745  35.838  24.588   7.909
  485POPC   C4A10746  35.977  24.770   7.527
  485POPC   C1B10747  36.418  24.422   8.641
  485POPC   C2B10748  36.428  24.452   8.231
  485POPC   C3B10749  36.305  24.325   7.839
  485POPC   C4B10750  36.438  24.540   7.459
  486POPC   NC310751  20.807  43.553   9.488
  486POPC   PO410752  20.334  44.057   9.508
  486POPC   GL110753  20.703  43.916   9.147
  486POPC   GL210754  21.027  43.655   9.048
  486POPC   C1A10755  20.662  43.807   8.708
  486POPC   D2A10756  20.377  43.903   8.362
  486POPC   C3A10757  20.527  44.122   7.997
  486POPC   C4A10758  20.803  44.152   7.673
  486POPC   C1B10759  20.949  43.391   8.682
  486POPC   C2B10760  20.664  43.418   8.352
  486POPC   C3B10761  20.737  43.663   8.038
  486POPC   C4B10762  20.916  43.661   7.679
  487POPC   NC310763  30.588  30.146   9.498
  487POPC   PO410764  31.210  30.152   9.497
  487POPC   GL110765  30.981  30.125   9.149
  487POPC   GL210766  30.876  29.803   9.200
  487POPC   C1A10767  30.703  30.127   8.795
  487POPC   D2A10768  30.480  30.208   8.440
  487POPC   C3A10769  30.619  30.355   8.071
  487POPC   C4A10770  30.631  30.161   7.674
  487POPC   C1B10771  31.042  29.755   8.783
  487POPC   C2B10772  30.715  29.695   8.450
  487POPC   C3B10773  30.470  29.859   8.068
  487POPC   C4B10774  30.399  29.711   7.642
  488POPC   NC310775  17.404  18.968   9.878
  488POPC   PO410776  17.814  19.335   9.487
  488POPC   GL110777  17.596  19.177   9.110
  488POPC   GL210778  17.278  19.058   9.218
  488POPC   C1A10779  17.694  19.041   8.682
  488POPC   D2A10780  17.738  19.279   8.281
  488POPC   C3A10781  17.672  19.068   7.916
  488POPC   C4A10782  17.966  18.890   7.647
  488POPC   C1B10783  17.193  18.995   8.776
  488POPC   C2B10784  17.318  18.983   8.337
  488POPC   C3B10785  17.188  18.864   7.934
  488POPC   C4B10786  17.254  19.150   7.618
  489POPC   NC310787  35.387  35.835   9.588
  489POPC   PO410788  35.040  36.396   9.481
  489POPC   GL110789  35.327  36.224   9.196
  489POPC   GL210790  35.392  35.875   9.079
  489POPC   C1A10791  35.431  36.308   8.811
  489POPC   D2A10792  35.224  36.174   8.478
  489POPC   C3A10793  35.442  36.077   8.160
  489POPC   C4A10794  35.323  36.252   7.794
  489POPC   C1B10795  35.120  35.734   8.740
  489POPC   C2B10796  35.131  35.682   8.281
  489POPC   C3B10797  35.212  35.727   7.822
  489POPC   C4B10798  35.289  35.600   7.404
  490POPC   NC310799   1.131  24.739   9.539
  490POPC   PO410800   1.619  24.289   9.493
  490POPC   GL110801   1.487  24.451   9.108
  490POPC   GL210802   1.334  24.781   9.100
  490POPC   C1A10803   1.209  24.402   8.748
  490POPC   D2A10804   1.055  24.208   8.384
  490POPC   C3A10805   1.152  24.351   7.973
  490POPC   C4A10806   0.954  24.162   7.590
  490POPC   C1B10807   1.377  24.884   8.713
  490POPC   C2B10808   1.148  24.781   8.361
  490POPC   C3B10809   1.351  24.853   7.981
  490POPC   C4B10810   1.420  25.032   7.587
  491POPC   NC310811  29.026  16.344   9.458
  491POPC   PO410812  28.708  16.976   9.335
  491POPC   GL110813  29.003  16.692   9.062
  491POPC   GL210814  29.291  16.409   9.015
  491POPC   C1A10815  29.176  16.773   8.672
  491POPC   D2A10816  29.347  16.724   8.266
  491POPC   C3A10817  29.107  16.988   8.011
  491POPC   C4A10818  28.758  16.989   7.755
  491POPC   C1B10819  29.264  16.294   8.546
  491POPC   C2B10820  28.879  16.455   8.307
  491POPC   C3B10821  28.948  16.523   7.878
  491POPC   C4B10822  29.377  16.493   7.790
  492POPC   NC310823  41.674  18.069   9.320
  492POPC   PO410824  41.818  18.705   9.462
  492POPC   GL110825  41.841  18.477   9.076
  492POPC   GL210826  41.459  18.450   9.022
  492POPC   C1A10827  41.735  18.226   8.674
  492POPC   D2A10828  41.525  18.307   8.275
  492POPC   C3A10829  41.738  18.180   7.880
  492POPC   C4A10830  41.623  17.996   7.465
  492POPC   C1B10831  41.204  18.137   8.769
  492POPC   C2B10832  41.184  17.934   8.337
  492POPC   C3B10833  41.232  18.083   7.910
  492POPC   C4B10834  41.231  18.534   7.856
  493POPC   NC310835  38.807  36.037   9.645
  493POPC   PO410836  39.461  35.980   9.514
  493POPC   GL110837  39.348  36.002   9.124
  493POPC   GL210838  38.984  35.941   9.178
  493POPC   C1A10839  39.415  36.285   8.783
  493POPC   D2A10840  39.274  36.417   8.371
  493POPC   C3A10841  39.500  36.322   8.018
  493POPC   C4A10842  39.543  36.019   7.697
  493POPC   C1B10843  38.987  35.880   8.753
  493POPC   C2B10844  38.818  36.029   8.377
  493POPC   C3B10845  38.981  36.153   8.014
  493POPC   C4B10846  38.930  35.940   7.636
  494POPC   NC310847   9.990  40.596   9.609
  494POPC   PO410848   9.401  40.746   9.356
  494POPC   GL110849   9.766  40.764   9.146
  494POPC   GL210850   9.948  41.021   9.281
  494POPC   C1A10851   9.946  40.526   8.832
  494POPC   D2A10852  10.096  40.484   8.434
  494POPC   C3A10853   9.826  40.392   8.134
  494POPC   C4A10854   9.884  40.520   7.720
  494POPC   C1B10855  10.075  41.054   8.851
  494POPC   C2B10856   9.844  40.953   8.464
  494POPC   C3B10857   9.723  40.910   8.025
  494POPC   C4B10858  10.042  41.004   7.720
  495POPC   NC310859  19.269  30.650   9.639
  495POPC   PO410860  18.568  30.626   9.652
  495POPC   GL110861  18.877  30.640   9.244
  495POPC   GL210862  19.265  30.558   9.149
  495POPC   C1A10863  18.933  30.596   8.788
  495POPC   D2A10864  18.856  30.988   8.601
  495POPC   C3A10865  18.993  31.007   8.190
  495POPC   C4A10866  18.884  30.912   7.785
  495POPC   C1B10867  19.390  30.864   8.779
  495POPC   C2B10868  19.486  30.963   8.318
  495POPC   C3B10869  19.367  30.803   7.911
  495POPC   C4B10870  19.087  30.448   7.901
  496POPC   NC310871  24.912  19.897   9.112
  496POPC   PO410872  24.437  19.806   9.563
  496POPC   GL110873  24.342  19.947   9.176
  496POPC   GL210874  24.467  19.668   8.948
  496POPC   C1A10875  24.274  20.106   8.781
  496POPC   D2A10876  24.318  19.865   8.420
  496POPC   C3A10877  24.343  20.140   8.092
  496POPC   C4A10878  24.608  19.974   7.808
  496POPC   C1B10879  24.767  19.656   8.556
  496POPC   C2B10880  24.710  19.597   8.134
  496POPC   C3B10881  24.416  19.500   7.794
  496POPC   C4B10882  24.637  19.644   7.426
  497POPC   NC310883  16.014  39.449   9.405
  497POPC   PO410884  16.198  38.856   9.314
  497POPC   GL110885  15.946  39.091   8.984
  497POPC   GL210886  15.751  39.408   8.969
  497POPC   C1A10887  15.927  39.209   8.539
  497POPC   D2A10888  16.245  39.431   8.317
  497POPC   C3A10889  16.146  39.363   7.909
  497POPC   C4A10890  16.307  39.029   7.608
  497POPC   C1B10891  15.762  39.699   8.611
  497POPC   C2B10892  15.855  39.716   8.182
  497POPC   C3B10893  15.661  39.591   7.805
  497POPC   C4B10894  15.586  39.593   7.328
  498POPC   NC310895  33.401   3.073   9.525
  498POPC   PO410896  34.046   2.716   9.564
  498POPC   GL110897  33.738   2.808   9.232
  498POPC   GL210898  33.969   2.731   9.021
  498POPC   C1A10899  33.524   2.661   8.807
  498POPC   D2A10900  33.735   2.634   8.373
  498POPC   C3A10901  33.658   2.823   7.972
  498POPC   C4A10902  33.425   3.125   7.773
  498POPC   C1B10903  33.920   2.986   8.682
  498POPC   C2B10904  34.151   3.030   8.292
  498POPC   C3B10905  34.085   3.101   7.853
  498POPC   C4B10906  34.058   3.194   7.409
  499POPC   NC310907  38.700   5.374   9.505
  499POPC   PO410908  38.321   5.892   9.545
  499POPC   GL110909  38.463   6.060   9.180
  499POPC   GL210910  38.679   5.782   9.173
  499POPC   C1A10911  38.334   6.102   8.741
  499POPC   D2A10912  38.553   5.942   8.392
  499POPC   C3A10913  38.322   5.967   8.045
  499POPC   C4A10914  38.181   6.284   7.780
  499POPC   C1B10915  38.574   5.632   8.812
  499POPC   C2B10916  38.647   5.440   8.454
  499POPC   C3B10917  38.694   5.563   8.071
  499POPC   C4B10918  38.741   5.835   7.786
  500POPC   NC310919  37.424  38.937   9.376
  500POPC   PO410920  36.824  39.027   9.739
  500POPC   GL110921  36.952  39.166   9.312
  500POPC   GL210922  37.007  38.879   9.093
  500POPC   C1A10923  36.830  39.334   8.891
  500POPC   D2A10924  36.936  39.415   8.447
  500POPC   C3A10925  36.755  39.253   8.076
  500POPC   C4A10926  36.857  39.010   7.732
  500POPC   C1B10927  37.186  38.980   8.690
  500POPC   C2B10928  37.111  38.916   8.253
  500POPC   C3B10929  37.308  38.863   7.868
  500POPC   C4B10930  37.274  38.933   7.409
  501POPC   NC310931  21.083  37.355   9.134
  501POPC   PO410932  20.869  36.741   9.328
  501POPC   GL110933  20.540  37.032   9.117
  501POPC   GL210934  20.258  36.814   9.005
  501POPC   C1A10935  20.544  37.294   8.714
  501POPC   D2A10936  20.891  37.261   8.407
  501POPC   C3A10937  20.733  37.034   8.074
  501POPC   C4A10938  20.408  37.087   7.805
  501POPC   C1B10939  20.622  36.784   8.682
  501POPC   C2B10940  20.726  36.524   8.330
  501POPC   C3B10941  20.705  36.557   7.875
  501POPC   C4B10942  21.022  36.508   7.572
  502POPC   NC310943  21.023  18.811   9.408
  502POPC   PO410944  20.374  19.053   9.649
  502POPC   GL110945  20.592  18.991   9.230
  502POPC   GL210946  20.497  18.718   9.003
  502POPC   C1A10947  20.569  19.174   8.818
  502POPC   D2A10948  20.419  19.007   8.438
  502POPC   C3A10949  20.499  19.231   8.073
  502POPC   C4A10950  20.558  19.064   7.667
  502POPC   C1B10951  20.851  18.754   8.693
  502POPC   C2B10952  20.916  18.674   8.235
  502POPC   C3B10953  20.615  18.600   7.857
  502POPC   C4B10954  20.705  18.699   7.366
  503POPC   NC310955   0.798  42.887   9.339
  503POPC   PO410956   0.200  42.868   9.669
  503POPC   GL110957   0.275  42.962   9.203
  503POPC   GL210958   0.111  43.300   9.176
  503POPC   C1A10959   0.392  42.851   8.745
  503POPC   D2A10960   0.562  42.796   8.297
  503POPC   C3A10961   0.450  43.016   7.890
  503POPC   C4A10962   0.413  42.919   7.434
  503POPC   C1B10963   0.244  43.341   8.743
  503POPC   C2B10964   0.124  43.135   8.361
  503POPC   C3B10965  44.955  43.217   7.957
  503POPC   C4B10966   0.129  43.365   7.565
  504POPC   NC310967   3.989  10.253   9.521
  504POPC   PO410968   3.504  10.767   9.494
  504POPC   GL110969   3.640  10.595   9.150
  504POPC   GL210970   3.701  10.262   9.102
  504POPC   C1A10971   3.518  10.624   8.744
  504POPC   D2A10972   3.753  10.644   8.362
  504POPC   C3A10973   3.462  10.582   7.992
  504POPC   C4A10974   3.520  10.763   7.590
  504POPC   C1B10975   3.352  10.156   8.842
  504POPC   C2B10976   3.350  10.265   8.405
  504POPC   C3B10977   3.734  10.171   8.156
  504POPC   C4B10978   3.596  10.125   7.756
  505POPC   NC310979  19.149   2.967   9.777
  505POPC   PO410980  18.869   3.538   9.701
  505POPC   GL110981  19.042   3.142   9.307
  505POPC   GL210982  19.333   3.044   9.133
  505POPC   C1A10983  18.857   2.930   8.872
  505POPC   D2A10984  18.696   2.698   8.445
  505POPC   C3A10985  18.821   2.873   7.996
  505POPC   C4A10986  19.140   2.795   7.680
  505POPC   C1B10987  19.279   3.178   8.719
  505POPC   C2B10988  19.113   3.157   8.305
  505POPC   C3B10989  19.346   3.204   7.867
  505POPC   C4B10990  19.481   3.064   7.393
  506POPC   NC310991  32.618  40.456   9.444
  506POPC   PO410992  32.120  40.899   9.441
  506POPC   GL110993  32.228  40.943   9.057
  506POPC   GL210994  32.587  40.906   9.116
  506POPC   C1A10995  32.244  40.639   8.757
  506POPC   D2A10996  32.058  40.356   8.462
  506POPC   C3A10997  32.200  40.408   8.052
  506POPC   C4A10998  32.087  40.718   7.762
  506POPC   C1B10999  32.594  41.002   8.687
  506POPC   C2B11000  32.402  40.840   8.308
  506POPC   C3B11001  32.534  40.897   7.903
  506POPC   C4B11002  32.522  41.157   7.558
  507POPC   NC311003  30.213   9.066   9.382
  507POPC   PO411004  29.814   8.621   9.406
  507POPC   GL111005  29.879   8.629   9.007
  507POPC   GL211006  29.926   9.010   8.971
  507POPC   C1A11007  29.617   8.757   8.664
  507POPC   D2A11008  29.674   9.082   8.389
  507POPC   C3A11009  29.634   8.843   8.034
  507POPC   C4A11010  29.765   8.837   7.630
  507POPC   C1B11011  30.270   9.241   8.723
  507POPC   C2B11012  30.143   9.385   8.313
  507POPC   C3B11013  30.002   9.235   7.912
  507POPC   C4B11014  30.185   9.161   7.536
  508POPC   NC311015   3.396  32.718   9.750
  508POPC   PO411016   3.429  32.018   9.746
  508POPC   GL111017   3.301  32.178   9.254
  508POPC   GL211018   3.298  32.503   9.023
  508POPC   C1A11019   3.414  32.053   8.803
  508POPC   D2A11020   3.207  32.328   8.521
  508POPC   C3A11021   3.363  32.442   8.114
  508POPC   C4A11022   3.180  32.411   7.729
  508POPC   C1B11023   3.717  32.455   8.775
  508POPC   C2B11024   3.797  32.364   8.369
  508POPC   C3B11025   3.821  32.259   7.947
  508POPC   C4B11026   4.096  32.479   7.677
  509POPC   NC311027  29.120  37.995   9.706
  509POPC   PO411028  29.021  37.284   9.712
  509POPC   GL111029  29.206  37.398   9.267
  509POPC   GL211030  28.957  37.619   9.144
  509POPC   C1A11031  29.393  37.605   8.835
  509POPC   D2A11032  29.273  37.803   8.405
  509POPC   C3A11033  29.364  37.703   7.936
  509POPC   C4A11034  29.324  37.632   7.463
  509POPC   C1B11035  28.910  37.401   8.741
  509POPC   C2B11036  28.810  37.534   8.324
  509POPC   C3B11037  28.911  37.885   8.047
  509POPC   C4B11038  28.988  37.991   7.640
  510POPC   NC311039   1.118  27.246   9.460
  510POPC   PO411040   1.396  27.802   9.543
  510POPC   GL111041   1.346  27.639   9.131
  510POPC   GL211042   1.021  27.600   9.066
  510POPC   C1A11043   1.470  27.717   8.711
  510POPC   D2A11044   1.630  27.651   8.283
  510POPC   C3A11045   1.304  27.586   7.946
  510POPC   C4A11046   1.058  27.777   7.620
  510POPC   C1B11047   0.777  27.482   8.724
  510POPC   C2B11048   0.700  27.138   8.486
  510POPC   C3B11049   0.953  27.166   8.145
  510POPC   C4B11050   0.816  27.246   7.762
  511POPC   NC311051   2.603  15.566   9.386
  511POPC   PO411052   2.491  16.180   9.648
  511POPC   GL111053   2.627  16.154   9.216
  511POPC   GL211054   2.959  16.122   9.157
  511POPC   C1A11055   2.648  16.098   8.762
  511POPC   D2A11056   2.624  15.925   8.367
  511POPC   C3A11057   2.604  16.211   8.016
  511POPC   C4A11058   2.756  16.091   7.634
  511POPC   C1B11059   3.135  15.968   8.777
  511POPC   C2B11060   3.230  15.875   8.376
  511POPC   C3B11061   3.022  15.876   8.016
  511POPC   C4B11062   3.279  15.914   7.670
  512POPC   NC311063   5.813  36.627   9.488
  512POPC   PO411064   5.673  37.321   9.597
  512POPC   GL111065   5.741  37.114   9.225
  512POPC   GL211066   6.079  36.976   9.179
  512POPC   C1A11067   5.681  36.953   8.824
  512POPC   D2A11068   5.663  36.785   8.406
  512POPC   C3A11069   5.828  36.953   8.029
  512POPC   C4A11070   5.663  36.944   7.630
  512POPC   C1B11071   6.120  36.678   8.815
  512POPC   C2B11072   6.115  36.455   8.424
  512POPC   C3B11073   6.183  36.485   7.984
  512POPC   C4B11074   6.059  36.640   7.589
  513POPC   NC311075   8.140  38.835   9.344
  513POPC   PO411076   8.270  39.461   9.598
  513POPC   GL111077   8.231  39.311   9.181
  513POPC   GL211078   8.470  39.006   9.025
  513POPC   C1A11079   8.047  39.567   8.883
  513POPC   D2A11080   8.227  39.686   8.528
  513POPC   C3A11081   8.178  39.415   8.249
  513POPC   C4A11082   8.250  39.511   7.842
  513POPC   C1B11083   8.128  39.097   8.703
  513POPC   C2B11084   7.908  38.962   8.331
  513POPC   C3B11085   7.937  39.107   7.924
  513POPC   C4B11086   8.234  39.001   7.643
  514POPC   NC311087  19.756  34.160   9.493
  514POPC   PO411088  20.087  33.516   9.491
  514POPC   GL111089  19.904  33.776   9.118
  514POPC   GL211090  19.702  34.125   8.978
  514POPC   C1A11091  20.098  33.923   8.750
  514POPC   D2A11092  19.914  34.110   8.398
  514POPC   C3A11093  20.128  33.979   8.063
  514POPC   C4A11094  19.972  33.891   7.686
  514POPC   C1B11095  19.574  33.832   8.668
  514POPC   C2B11096  19.428  33.874   8.273
  514POPC   C3B11097  19.602  34.116   7.955
  514POPC   C4B11098  19.501  33.956   7.536
  515POPC   NC311099  10.404  20.112   9.504
  515POPC   PO411100  10.683  19.472   9.575
  515POPC   GL111101  10.551  19.661   9.189
  515POPC   GL211102  10.885  19.507   9.108
  515POPC   C1A11103  10.409  19.983   8.850
  515POPC   D2A11104  10.539  20.148   8.413
  515POPC   C3A11105  10.359  20.046   8.016
  515POPC   C4A11106  10.229  20.301   7.674
  515POPC   C1B11107  10.901  19.828   8.813
  515POPC   C2B11108  10.628  19.661   8.526
  515POPC   C3B11109  10.660  19.650   8.101
  515POPC   C4B11110  10.813  19.735   7.719
  516POPC   NC311111  34.427  40.643   9.574
  516POPC   PO411112  35.036  41.036   9.612
  516POPC   GL111113  34.693  40.936   9.247
  516POPC   GL211114  34.527  40.581   9.087
  516POPC   C1A11115  34.390  41.023   8.894
  516POPC   D2A11116  34.563  41.042   8.493
  516POPC   C3A11117  34.473  40.987   8.113
  516POPC   C4A11118  34.670  41.075   7.756
  516POPC   C1B11119  34.524  40.548   8.624
  516POPC   C2B11120  34.289  40.525   8.228
  516POPC   C3B11121  34.421  40.609   7.765
  516POPC   C4B11122  34.336  40.471   7.333
  517POPC   NC311123  28.248  22.653   9.742
  517POPC   PO411124  28.715  23.097   9.428
  517POPC   GL111125  28.506  22.788   9.116
  517POPC   GL211126  28.153  22.684   9.191
  517POPC   C1A11127  28.632  22.856   8.679
  517POPC   D2A11128  28.591  23.145   8.303
  517POPC   C3A11129  28.464  22.924   7.909
  517POPC   C4A11130  28.314  23.033   7.478
  517POPC   C1B11131  28.156  22.643   8.760
  517POPC   C2B11132  28.227  22.774   8.363
  517POPC   C3B11133  28.045  23.093   8.122
  517POPC   C4B11134  27.900  22.975   7.749
  518POPC   NC311135  13.288  12.236   9.486
  518POPC   PO411136  13.600  11.646   9.496
  518POPC   GL111137  13.612  11.941   9.159
  518POPC   GL211138  13.911  12.129   9.116
  518POPC   C1A11139  13.710  11.832   8.719
  518POPC   D2A11140  13.807  12.032   8.300
  518POPC   C3A11141  13.599  11.935   7.899
  518POPC   C4A11142  13.384  11.818   7.489
  518POPC   C1B11143  13.750  12.316   8.793
  518POPC   C2B11144  13.869  12.513   8.463
  518POPC   C3B11145  13.606  12.479   8.142
  518POPC   C4B11146  13.874  12.364   7.829
  519POPC   NC311147  13.607  10.602   9.740
  519POPC   PO411148  13.313  10.109   9.523
  519POPC   GL111149  13.572  10.447   9.227
  519POPC   GL211150  13.747  10.787   9.271
  519POPC   C1A11151  13.765  10.411   8.790
  519POPC   D2A11152  13.902  10.244   8.358
  519POPC   C3A11153  13.728  10.474   7.953
  519POPC   C4A11154  13.321  10.504   7.700
  519POPC   C1B11155  13.476  10.840   8.884
  519POPC   C2B11156  13.565  10.948   8.434
  519POPC   C3B11157  13.425  10.920   8.003
  519POPC   C4B11158  13.611  10.913   7.602
  520POPC   NC311159  25.952  21.025   9.516
  520POPC   PO411160  26.448  21.516   9.441
  520POPC   GL111161  26.105  21.509   9.204
  520POPC   GL211162  26.198  21.182   9.091
  520POPC   C1A11163  25.924  21.545   8.808
  520POPC   D2A11164  26.098  21.607   8.399
  520POPC   C3A11165  25.856  21.494   8.068
  520POPC   C4A11166  25.903  21.382   7.682
  520POPC   C1B11167  26.397  21.346   8.753
  520POPC   C2B11168  26.540  21.227   8.374
  520POPC   C3B11169  26.388  21.302   7.951
  520POPC   C4B11170  26.335  21.069   7.559
  521POPC   NC311171  13.155  40.278   9.702
  521POPC   PO411172  13.517  39.880   9.770
  521POPC   GL111173  13.486  40.000   9.296
  521POPC   GL211174  13.781  40.185   9.143
  521POPC   C1A11175  13.488  39.897   8.809
  521POPC   D2A11176  13.716  39.787   8.377
  521POPC   C3A11177  13.591  39.911   7.921
  521POPC   C4A11178  13.601  39.814   7.448
  521POPC   C1B11179  13.916  40.149   8.682
  521POPC   C2B11180  13.819  40.278   8.219
  521POPC   C3B11181  13.952  40.537   7.835
  521POPC   C4B11182  13.888  40.658   7.367
  522POPC   NC311183  14.783   2.737   9.536
  522POPC   PO411184  15.337   2.464   9.353
  522POPC   GL111185  15.331   2.636   8.993
  522POPC   GL211186  15.066   2.840   9.114
  522POPC   C1A11187  15.394   2.985   8.751
  522POPC   D2A11188  15.226   3.143   8.382
  522POPC   C3A11189  15.227   2.897   7.983
  522POPC   C4A11190  15.305   2.503   7.696
  522POPC   C1B11191  14.898   2.991   8.766
  522POPC   C2B11192  14.824   2.810   8.408
  522POPC   C3B11193  14.711   2.803   8.028
  522POPC   C4B11194  14.869   2.758   7.631
  523POPC   NC311195  31.566  28.031   9.491
  523POPC   PO411196  31.018  28.514   9.467
  523POPC   GL111197  31.228  28.289   9.193
  523POPC   GL211198  31.470  28.509   9.187
  523POPC   C1A11199  31.502  28.135   8.847
  523POPC   D2A11200  31.583  28.077   8.440
  523POPC   C3A11201  31.261  28.322   8.203
  523POPC   C4A11202  31.296  28.363   7.753
  523POPC   C1B11203  31.727  28.590   8.809
  523POPC   C2B11204  31.665  28.596   8.376
  523POPC   C3B11205  31.733  28.351   8.008
  523POPC   C4B11206  31.864  28.428   7.596
  524POPC   NC311207   7.808  16.227   9.537
  524POPC   PO411208   7.214  15.843   9.344
  524POPC   GL111209   7.329  16.073   9.048
  524POPC   GL211210   7.675  16.097   9.077
  524POPC   C1A11211   7.212  16.094   8.655
  524POPC   D2A11212   7.377  15.809   8.383
  524POPC   C3A11213   7.320  16.051   8.044
  524POPC   C4A11214   7.496  15.939   7.663
  524POPC   C1B11215   7.915  16.302   8.783
  524POPC   C2B11216   7.709  16.213   8.398
  524POPC   C3B11217   7.841  16.162   7.977
  524POPC   C4B11218   7.854  16.292   7.550
  525POPC   NC311219  28.670  36.103   9.330
  525POPC   PO411220  28.016  36.066   9.334
  525POPC   GL111221  28.282  35.976   8.999
  525POPC   GL211222  28.419  36.325   8.941
  525POPC   C1A11223  28.466  35.988   8.559
  525POPC   D2A11224  28.442  36.354   8.335
  525POPC   C3A11225  28.286  36.291   7.938
  525POPC   C4A11226  28.391  35.898   7.818
  525POPC   C1B11227  28.810  36.333   8.698
  525POPC   C2B11228  28.971  36.390   8.296
  525POPC   C3B11229  28.792  36.199   7.986
  525POPC   C4B11230  28.701  36.328   7.595
  526POPC   NC311231   1.140  20.205   9.583
  526POPC   PO411232   1.138  20.859   9.529
  526POPC   GL111233   1.168  20.668   9.141
  526POPC   GL211234   0.948  20.372   9.156
  526POPC   C1A11235   1.274  20.789   8.709
  526POPC   D2A11236   1.328  21.022   8.306
  526POPC   C3A11237   1.316  20.767   7.942
  526POPC   C4A11238   1.198  20.615   7.545
  526POPC   C1B11239   1.252  20.271   8.812
  526POPC   C2B11240   1.468  20.368   8.437
  526POPC   C3B11241   1.318  20.281   8.046
  526POPC   C4B11242   1.418  20.147   7.663
  527POPC   NC311243  21.200  33.430   9.464
  527POPC   PO411244  21.661  33.844   9.489
  527POPC   GL111245  21.524  33.840   9.091
  527POPC   GL211246  21.196  33.831   9.149
  527POPC   C1A11247  21.589  33.809   8.658
  527POPC   D2A11248  21.459  33.650   8.288
  527POPC   C3A11249  21.652  33.780   7.916
  527POPC   C4A11250  21.763  34.008   7.569
  527POPC   C1B11251  21.156  33.611   8.750
  527POPC   C2B11252  20.960  33.584   8.322
  527POPC   C3B11253  21.130  33.647   7.877
  527POPC   C4B11254  21.018  33.670   7.413
  528POPC   NC311255   9.731   1.420   9.423
  528POPC   PO411256   9.670   0.759   9.543
  528POPC   GL111257   9.816   0.977   9.170
  528POPC   GL211258   9.573   1.171   9.011
  528POPC   C1A11259   9.958   0.996   8.755
  528POPC   D2A11260   9.628   1.084   8.453
  528POPC   C3A11261   9.823   1.277   8.111
  528POPC   C4A11262   9.982   1.111   7.748
  528POPC   C1B11263   9.782   1.478   8.753
  528POPC   C2B11264   9.549   1.743   8.506
  528POPC   C3B11265   9.375   1.546   8.152
  528POPC   C4B11266   9.392   1.389   7.728
  529POPC   NC311267  10.470   3.584   9.427
  529POPC   PO411268  10.423   2.933   9.345
  529POPC   GL111269  10.476   3.243   9.051
  529POPC   GL211270  10.800   3.219   9.018
  529POPC   C1A11271  10.371   3.548   8.737
  529POPC   D2A11272  10.513   3.584   8.321
  529POPC   C3A11273  10.667   3.220   8.143
  529POPC   C4A11274  10.418   3.327   7.798
  529POPC   C1B11275  10.861   3.395   8.631
  529POPC   C2B11276  11.045   3.625   8.304
  529POPC   C3B11277  10.869   3.626   7.914
  529POPC   C4B11278  10.943   3.574   7.490
  530POPC   NC311279  25.570  34.636   9.514
  530POPC   PO411280  25.152  35.076   9.518
  530POPC   GL111281  25.266  34.856   9.114
  530POPC   GL211282  25.223  34.487   9.135
  530POPC   C1A11283  25.032  34.685   8.713
  530POPC   D2A11284  24.814  34.747   8.322
  530POPC   C3A11285  25.051  34.634   7.961
  530POPC   C4A11286  25.435  34.704   7.728
  530POPC   C1B11287  25.443  34.357   8.718
  530POPC   C2B11288  25.512  34.472   8.257
  530POPC   C3B11289  25.397  34.234   7.882
  530POPC   C4B11290  25.274  33.986   7.521
  531POPC   NC311291  44.289  30.704   9.951
  531POPC   PO411292  44.832  30.532   9.550
  531POPC   GL111293  44.668  30.835   9.259
  531POPC   GL211294  44.341  30.837   9.331
  531POPC   C1A11295  44.652  30.743   8.827
  531POPC   D2A11296  44.842  30.479   8.526
  531POPC   C3A11297  44.814  30.613   8.116
  531POPC   C4A11298  44.899  30.390   7.729
  531POPC   C1B11299  44.164  30.910   8.900
  531POPC   C2B11300  44.255  30.803   8.462
  531POPC   C3B11301  44.347  31.003   8.069
  531POPC   C4B11302  44.508  30.781   7.736
  532POPC   NC311303  21.818  35.983   9.564
  532POPC   PO411304  22.400  36.402   9.560
  532POPC   GL111305  22.228  36.212   9.186
  532POPC   GL211306  21.851  36.308   9.142
  532POPC   C1A11307  22.404  35.930   8.846
  532POPC   D2A11308  22.524  36.022   8.409
  532POPC   C3A11309  22.213  36.226   8.162
  532POPC   C4A11310  22.263  36.157   7.721
  532POPC   C1B11311  22.029  36.247   8.703
  532POPC   C2B11312  21.769  36.029   8.364
  532POPC   C3B11313  21.774  36.032   7.942
  532POPC   C4B11314  21.818  36.412   7.750
  533POPC   NC311315  24.967  33.644   9.467
  533POPC   PO411316  25.379  34.209   9.541
  533POPC   GL111317  25.444  34.008   9.145
  533POPC   GL211318  25.099  33.976   9.115
  533POPC   C1A11319  25.356  33.810   8.724
  533POPC   D2A11320  25.446  33.959   8.318
  533POPC   C3A11321  25.383  33.714   7.931
  533POPC   C4A11322  25.577  33.404   7.626
  533POPC   C1B11323  24.972  34.182   8.760
  533POPC   C2B11324  25.050  34.289   8.338
  533POPC   C3B11325  24.905  34.131   7.934
  533POPC   C4B11326  24.774  33.918   7.539
  534POPC   NC311327   8.479  16.933   9.309
  534POPC   PO411328   8.225  16.370   9.673
  534POPC   GL111329   8.097  16.564   9.204
  534POPC   GL211330   7.830  16.776   9.101
  534POPC   C1A11331   8.180  16.773   8.723
  534POPC   D2A11332   8.373  17.000   8.300
  534POPC   C3A11333   8.439  16.762   7.919
  534POPC   C4A11334   8.321  16.311   7.817
  534POPC   C1B11335   7.795  17.125   8.842
  534POPC   C2B11336   7.911  17.161   8.434
  534POPC   C3B11337   7.750  17.040   8.037
  534POPC   C4B11338   7.930  16.734   7.774
  535POPC   NC311339  40.802  44.104   9.637
  535POPC   PO411340  40.922  43.450   9.583
  535POPC   GL111341  40.845  43.750   9.218
  535POPC   GL211342  41.102  44.010   9.221
  535POPC   C1A11343  40.628  43.896   8.823
  535POPC   D2A11344  40.663  44.101   8.432
  535POPC   C3A11345  40.551  43.919   8.035
  535POPC   C4A11346  40.419  44.100   7.623
  535POPC   C1B11347  41.052  44.154   8.821
  535POPC   C2B11348  41.180  44.104   8.404
  535POPC   C3B11349  40.985  44.298   8.052
  535POPC   C4B11350  40.918  44.183   7.647
  536POPC   NC311351  40.075  44.655   9.791
  536POPC   PO411352  39.615  44.259   9.519
  536POPC   GL111353  39.687  44.458   9.138
  536POPC   GL211354  40.019  44.664   9.151
  536POPC   C1A11355  39.798  44.488   8.718
  536POPC   D2A11356  40.006  44.677   8.414
  536POPC   C3A11357  39.919  44.503   8.031
  536POPC   C4A11358  39.999  44.448   7.603
  536POPC   C1B11359  40.319  44.886   8.825
  536POPC   C2B11360  40.321   0.081   8.425
  536POPC   C3B11361  40.295  44.922   8.028
  536POPC   C4B11362  40.336   0.104   7.627
  537POPC   NC311363  24.431  14.180   9.618
  537POPC   PO411364  24.521  14.592   9.122
  537POPC   GL111365  24.461  14.221   8.971
  537POPC   GL211366  24.705  14.050   9.192
  537POPC   C1A11367  24.424  14.291   8.514
  537POPC   D2A11368  24.418  14.724   8.338
  537POPC   C3A11369  24.646  14.854   7.981
  537POPC   C4A11370  24.469  14.621   7.651
  537POPC   C1B11371  24.794  13.927   8.760
  537POPC   C2B11372  24.920  14.186   8.407
  537POPC   C3B11373  24.729  14.369   8.085
  537POPC   C4B11374  24.730  14.173   7.727
  538POPC   NC311375   8.688  32.843   9.434
  538POPC   PO411376   7.973  32.882   9.561
  538POPC   GL111377   8.096  33.081   9.178
  538POPC   GL211378   8.458  33.033   9.023
  538POPC   C1A11379   8.063  33.184   8.752
  538POPC   D2A11380   8.392  33.119   8.475
  538POPC   C3A11381   8.143  32.959   8.176
  538POPC   C4A11382   8.062  33.032   7.776
  538POPC   C1B11383   8.429  32.665   8.731
  538POPC   C2B11384   8.366  32.494   8.288
  538POPC   C3B11385   8.417  32.480   7.814
  538POPC   C4B11386   8.360  32.768   7.432
  539POPC   NC311387  24.964  15.189   9.522
  539POPC   PO411388  24.585  14.636   9.641
  539POPC   GL111389  24.569  15.056   9.268
  539POPC   GL211390  24.280  15.060   9.009
  539POPC   C1A11391  24.776  15.167   8.849
  539POPC   D2A11392  24.914  15.088   8.391
  539POPC   C3A11393  24.854  15.342   8.002
  539POPC   C4A11394  24.515  15.236   7.682
  539POPC   C1B11395  24.327  15.160   8.584
  539POPC   C2B11396  24.111  15.136   8.197
  539POPC   C3B11397  24.014  15.086   7.772
  539POPC   C4B11398  24.196  15.056   7.335
  540POPC   NC311399  28.362  34.079   9.549
  540POPC   PO411400  29.017  33.866   9.506
  540POPC   GL111401  28.657  33.894   9.187
  540POPC   GL211402  28.507  33.603   9.142
  540POPC   C1A11403  28.296  33.973   8.837
  540POPC   D2A11404  28.058  33.869   8.427
  540POPC   C3A11405  28.153  33.947   7.998
  540POPC   C4A11406  28.327  33.818   7.604
  540POPC   C1B11407  28.706  33.553   8.767
  540POPC   C2B11408  28.487  33.576   8.377
  540POPC   C3B11409  28.352  33.452   7.968
  540POPC   C4B11410  28.653  33.435   7.602
  541POPC   NC311411  41.483  36.384   9.329
  541POPC   PO411412  41.971  35.936   9.374
  541POPC   GL111413  41.826  36.121   8.993
  541POPC   GL211414  41.473  36.007   8.960
  541POPC   C1A11415  41.741  36.230   8.543
  541POPC   D2A11416  41.602  36.536   8.203
  541POPC   C3A11417  41.700  36.422   7.768
  541POPC   C4A11418  41.581  36.015   7.693
  541POPC   C1B11419  41.209  36.301   8.718
  541POPC   C2B11420  41.083  36.315   8.286
  541POPC   C3B11421  41.194  36.423   7.876
  541POPC   C4B11422  41.267  36.452   7.442
  542POPC   NC311423  14.097   5.457   9.744
  542POPC   PO411424  14.231   6.042   9.532
  542POPC   GL111425  14.351   5.817   9.174
  542POPC   GL211426  14.263   5.467   9.213
  542POPC   C1A11427  14.595   5.877   8.783
  542POPC   D2A11428  14.502   6.028   8.343
  542POPC   C3A11429  14.636   6.068   7.937
  542POPC   C4A11430  14.263   5.986   7.731
  542POPC   C1B11431  14.489   5.364   8.818
  542POPC   C2B11432  14.621   5.535   8.401
  542POPC   C3B11433  14.485   5.557   7.956
  542POPC   C4B11434  14.662   5.704   7.563
  543POPC   NC311435  20.650  24.370  10.021
  543POPC   PO411436  20.663  24.511   9.423
  543POPC   GL111437  20.454  24.463   9.062
  543POPC   GL211438  20.262  24.731   9.092
  543POPC   C1A11439  20.528  24.523   8.626
  543POPC   D2A11440  20.896  24.530   8.380
  543POPC   C3A11441  20.896  24.355   7.978
  543POPC   C4A11442  20.550  24.285   7.724
  543POPC   C1B11443  20.220  24.909   8.707
  543POPC   C2B11444  20.379  24.902   8.278
  543POPC   C3B11445  20.608  24.779   7.928
  543POPC   C4B11446  20.609  24.927   7.531
  544POPC   NC311447   5.398  21.280   9.578
  544POPC   PO411448   6.083  21.312   9.406
  544POPC   GL111449   5.769  21.357   9.115
  544POPC   GL211450   5.467  21.561   9.171
  544POPC   C1A11451   5.888  21.384   8.691
  544POPC   D2A11452   5.945  21.188   8.368
  544POPC   C3A11453   5.862  21.428   8.039
  544POPC   C4A11454   5.804  21.216   7.641
  544POPC   C1B11455   5.552  21.737   8.774
  544POPC   C2B11456   5.544  21.848   8.318
  544POPC   C3B11457   5.389  21.632   7.932
  544POPC   C4B11458   5.514  21.621   7.480
  545POPC   NC311459  40.206  28.242   9.403
  545POPC   PO411460  39.693  28.304   9.890
  545POPC   GL111461  39.784  28.520   9.404
  545POPC   GL211462  39.663  28.402   9.051
  545POPC   C1A11463  40.047  28.755   9.040
  545POPC   D2A11464  40.227  28.634   8.652
  545POPC   C3A11465  40.138  28.679   8.207
  545POPC   C4A11466  40.115  28.625   7.783
  545POPC   C1B11467  39.931  28.192   8.728
  545POPC   C2B11468  40.140  28.172   8.352
  545POPC   C3B11469  39.852  28.259   8.061
  545POPC   C4B11470  39.714  28.024   7.739
  546POPC   NC311471  35.054  13.476   9.527
  546POPC   PO411472  35.438  14.075   9.643
  546POPC   GL111473  35.249  13.928   9.282
  546POPC   GL211474  35.391  13.627   9.155
  546POPC   C1A11475  35.292  14.047   8.860
  546POPC   D2A11476  35.322  14.109   8.422
  546POPC   C3A11477  35.436  13.745   8.169
  546POPC   C4A11478  35.221  13.601   7.791
  546POPC   C1B11479  35.314  13.517   8.724
  546POPC   C2B11480  35.387  13.218   8.397
  546POPC   C3B11481  35.583  13.229   7.973
  546POPC   C4B11482  35.519  13.298   7.515
  547POPC   NC311483  36.445  11.389   9.542
  547POPC   PO411484  35.827  11.035   9.502
  547POPC   GL111485  36.098  11.294   9.195
  547POPC   GL211486  36.435  11.200   9.089
  547POPC   C1A11487  36.104  11.464   8.781
  547POPC   D2A11488  36.382  11.502   8.443
  547POPC   C3A11489  36.205  11.481   8.045
  547POPC   C4A11490  35.977  11.388   7.675
  547POPC   C1B11491  36.346  11.020   8.713
  547POPC   C2B11492  36.072  11.090   8.401
  547POPC   C3B11493  36.044  11.002   8.017
  547POPC   C4B11494  36.351  11.036   7.720
  548POPC   NC311495   9.794  25.887   9.510
  548POPC   PO411496   9.230  26.264   9.456
  548POPC   GL111497   9.502  26.295   9.063
  548POPC   GL211498   9.788  26.266   9.165
  548POPC   C1A11499   9.568  26.306   8.580
  548POPC   D2A11500   9.659  25.933   8.323
  548POPC   C3A11501   9.741  25.828   7.872
  548POPC   C4A11502   9.950  25.793   7.452
  548POPC   C1B11503   9.906  26.028   8.835
  548POPC   C2B11504  10.078  26.177   8.494
  548POPC   C3B11505  10.092  26.114   8.111
  548POPC   C4B11506  10.247  26.056   7.740
  549POPC   NC311507  12.201  22.047   9.470
  549POPC   PO411508  11.905  22.661   9.353
  549POPC   GL111509  12.007  22.409   9.031
  549POPC   GL211510  12.045  22.062   8.985
  549POPC   C1A11511  11.938  22.441   8.599
  549POPC   D2A11512  11.923  22.147   8.263
  549POPC   C3A11513  11.889  22.243   7.840
  549POPC   C4A11514  11.836  22.014   7.506
  549POPC   C1B11515  12.447  21.977   8.808
  549POPC   C2B11516  12.549  21.835   8.403
  549POPC   C3B11517  12.342  21.938   8.026
  549POPC   C4B11518  12.346  22.084   7.627
  550POPC   NC311519  16.608   8.924   9.712
  550POPC   PO411520  17.190   8.709   9.412
  550POPC   GL111521  16.866   8.962   9.219
  550POPC   GL211522  16.549   9.144   9.267
  550POPC   C1A11523  16.873   9.143   8.831
  550POPC   D2A11524  16.866   9.232   8.418
  550POPC   C3A11525  16.925   8.889   8.138
  550POPC   C4A11526  16.988   9.064   7.736
  550POPC   C1B11527  16.425   8.902   8.938
  550POPC   C2B11528  16.478   8.932   8.507
  550POPC   C3B11529  16.469   9.130   8.106
  550POPC   C4B11530  16.505   8.872   7.753
  551POPC   NC311531   3.765  44.591   9.303
  551POPC   PO411532   4.374  44.878   9.547
  551POPC   GL111533   4.229  44.813   9.143
  551POPC   GL211534   4.205   0.178   9.064
  551POPC   C1A11535   4.330  44.556   8.764
  551POPC   D2A11536   4.543  44.717   8.356
  551POPC   C3A11537   4.423  44.500   7.982
  551POPC   C4A11538   4.303  44.540   7.571
  551POPC   C1B11539   4.212   0.031   8.654
  551POPC   C2B11540   3.951  44.809   8.354
  551POPC   C3B11541   3.960  44.747   7.892
  551POPC   C4B11542   3.943  44.857   7.428
  552POPC   NC311543  34.693  35.138   9.412
  552POPC   PO411544  34.085  35.202   9.445
  552POPC   GL111545  34.273  35.322   9.063
  552POPC   GL211546  34.609  35.369   8.970
  552POPC   C1A11547  34.150  35.582   8.752
  552POPC   D2A11548  33.986  35.562   8.368
  552POPC   C3A11549  34.264  35.443   8.047
  552POPC   C4A11550  34.508  35.138   7.823
  552POPC   C1B11551  34.588  35.355   8.557
  552POPC   C2B11552  34.788  35.308   8.209
  552POPC   C3B11553  34.744  35.580   7.907
  552POPC   C4B11554  34.801  35.635   7.481
  553POPC   NC311555  39.610   9.713   9.861
  553POPC   PO411556  39.083   9.474   9.604
  553POPC   GL111557  39.206   9.792   9.227
  553POPC   GL211558  38.938  10.022   9.119
  553POPC   C1A11559  39.326  10.020   8.806
  553POPC   D2A11560  39.266   9.855   8.370
  553POPC   C3A11561  39.095   9.924   7.948
  553POPC   C4A11562  39.293   9.818   7.513
  553POPC   C1B11563  38.934   9.681   8.782
  553POPC   C2B11564  38.824   9.590   8.334
  553POPC   C3B11565  39.097   9.428   8.004
  553POPC   C4B11566  39.047   9.359   7.558
  554POPC   NC311567  40.834  25.840   9.803
  554POPC   PO411568  40.461  26.298   9.650
  554POPC   GL111569  40.790  26.117   9.338
  554POPC   GL211570  40.825  26.441   9.182
  554POPC   C1A11571  40.883  25.903   8.892
  554POPC   D2A11572  40.723  25.834   8.409
  554POPC   C3A11573  40.960  25.834   7.985
  554POPC   C4A11574  41.097  26.040   7.592
  554POPC   C1B11575  40.690  26.384   8.754
  554POPC   C2B11576  40.874  26.332   8.354
  554POPC   C3B11577  40.640  26.228   8.018
  554POPC   C4B11578  40.653  26.278   7.590
  555POPC   NC311579  18.071  22.725   9.533
  555POPC   PO411580  18.362  23.321   9.465
  555POPC   GL111581  18.217  23.044   9.138
  555POPC   GL211582  17.876  23.065   9.055
  555POPC   C1A11583  18.290  22.970   8.687
  555POPC   D2A11584  18.503  22.904   8.298
  555POPC   C3A11585  18.503  22.936   7.856
  555POPC   C4A11586  18.355  23.104   7.468
  555POPC   C1B11587  17.780  22.883   8.661
  555POPC   C2B11588  17.965  23.006   8.264
  555POPC   C3B11589  17.976  22.975   7.820
  555POPC   C4B11590  18.016  22.702   7.485
  556POPC   NC311591  42.584   2.550   9.884
  556POPC   PO411592  43.075   2.302   9.495
  556POPC   GL111593  43.054   2.643   9.253
  556POPC   GL211594  42.730   2.693   9.073
  556POPC   C1A11595  43.173   2.692   8.835
  556POPC   D2A11596  42.972   2.461   8.513
  556POPC   C3A11597  43.122   2.555   8.126
  556POPC   C4A11598  43.129   2.710   7.730
  556POPC   C1B11599  42.681   2.919   8.734
  556POPC   C2B11600  42.830   2.967   8.337
  556POPC   C3B11601  42.700   2.856   7.945
  556POPC   C4B11602  42.732   2.966   7.496
  557POPC   NC311603   5.496   9.160   9.401
  557POPC   PO411604   5.036   8.726   9.678
  557POPC   GL111605   5.025   8.836   9.202
  557POPC   GL211606   5.092   9.221   9.088
  557POPC   C1A11607   4.972   8.891   8.733
  557POPC   D2A11608   5.003   9.265   8.451
  557POPC   C3A11609   5.018   9.154   8.007
  557POPC   C4A11610   5.065   8.748   7.770
  557POPC   C1B11611   5.436   9.175   8.731
  557POPC   C2B11612   5.541   9.233   8.262
  557POPC   C3B11613   5.465   9.064   7.808
  557POPC   C4B11614   5.338   8.995   7.361
  558POPC   NC311615  20.056  10.363   9.617
  558POPC   PO411616  19.672  10.949   9.469
  558POPC   GL111617  19.938  10.758   9.130
  558POPC   GL211618  20.003  10.415   9.127
  558POPC   C1A11619  19.976  10.675   8.711
  558POPC   D2A11620  19.946  10.409   8.434
  558POPC   C3A11621  19.889  10.611   8.113
  558POPC   C4A11622  19.921  10.435   7.767
  558POPC   C1B11623  19.567  10.432   8.887
  558POPC   C2B11624  19.451  10.493   8.421
  558POPC   C3B11625  19.520  10.271   8.031
  558POPC   C4B11626  19.459  10.354   7.595
  559POPC   NC311627   0.179  38.875   9.383
  559POPC   PO411628   0.409  39.469   9.549
  559POPC   GL111629   0.543  39.193   9.216
  559POPC   GL211630   0.223  39.272   9.073
  559POPC   C1A11631   0.613  39.095   8.780
  559POPC   D2A11632   0.363  39.213   8.423
  559POPC   C3A11633   0.478  39.052   8.027
  559POPC   C4A11634   0.503  39.311   7.673
  559POPC   C1B11635   0.030  39.461   8.747
  559POPC   C2B11636  44.897  39.407   8.350
  559POPC   C3B11637   0.132  39.457   8.016
  559POPC   C4B11638   0.034  39.525   7.609
  560POPC   NC311639  36.461   1.427   9.437
  560POPC   PO411640  37.044   1.216   9.411
  560POPC   GL111641  37.026   1.048   8.990
  560POPC   GL211642  36.671   1.019   8.947
  560POPC   C1A11643  37.127   1.061   8.583
  560POPC   D2A11644  37.190   1.391   8.306
  560POPC   C3A11645  36.980   1.228   7.958
  560POPC   C4A11646  37.178   0.926   7.681
  560POPC   C1B11647  36.794   1.457   8.791
  560POPC   C2B11648  36.813   1.715   8.389
  560POPC   C3B11649  36.709   1.667   7.914
  560POPC   C4B11650  36.423   1.445   7.601
  561POPC   NC311651   1.760   1.027   9.511
  561POPC   PO411652   1.618   1.719   9.453
  561POPC   GL111653   1.822   1.417   9.112
  561POPC   GL211654   1.920   1.025   9.037
  561POPC   C1A11655   2.049   1.428   8.715
  561POPC   D2A11656   2.235   1.635   8.342
  561POPC   C3A11657   1.981   1.464   7.970
  561POPC   C4A11658   1.836   1.374   7.545
  561POPC   C1B11659   2.218   0.942   8.717
  561POPC   C2B11660   2.227   1.119   8.292
  561POPC   C3B11661   2.067   0.973   7.894
  561POPC   C4B11662   1.708   0.872   7.641
  562POPC   NC311663  11.073   3.887   9.433
  562POPC   PO411664  11.699   4.001   9.544
  562POPC   GL111665  11.447   4.134   9.132
  562POPC   GL211666  11.050   4.214   9.064
  562POPC   C1A11667  11.367   4.273   8.687
  562POPC   D2A11668  11.145   4.265   8.295
  562POPC   C3A11669  11.370   4.306   7.945
  562POPC   C4A11670  11.761   4.149   7.844
  562POPC   C1B11671  10.896   4.489   8.713
  562POPC   C2B11672  10.730   4.552   8.289
  562POPC   C3B11673  10.898   4.642   7.870
  562POPC   C4B11674  10.925   4.548   7.412
  563POPC   NC311675  20.621  10.186   9.406
  563POPC   PO411676  20.366  10.715   9.514
  563POPC   GL111677  20.488  10.585   9.108
  563POPC   GL211678  20.852  10.529   9.062
  563POPC   C1A11679  20.379  10.371   8.745
  563POPC   D2A11680  20.405  10.252   8.329
  563POPC   C3A11681  20.378  10.475   7.949
  563POPC   C4A11682  20.331  10.250   7.557
  563POPC   C1B11683  20.817  10.632   8.609
  563POPC   C2B11684  20.861  10.551   8.158
  563POPC   C3B11685  20.813  10.308   7.773
  563POPC   C4B11686  20.709  10.558   7.412
  564POPC   NC311687  16.477   2.723   9.357
  564POPC   PO411688  16.950   3.120   9.561
  564POPC   GL111689  16.929   2.825   9.163
  564POPC   GL211690  16.942   2.466   9.216
  564POPC   C1A11691  16.734   2.822   8.750
  564POPC   D2A11692  16.593   2.507   8.445
  564POPC   C3A11693  16.463   2.625   8.025
  564POPC   C4A11694  16.265   2.638   7.598
  564POPC   C1B11695  17.019   2.401   8.769
  564POPC   C2B11696  17.075   2.679   8.398
  564POPC   C3B11697  16.937   2.827   8.027
  564POPC   C4B11698  16.795   2.693   7.641
  565POPC   NC311699  12.595  14.840   9.516
  565POPC   PO411700  13.063  14.325   9.612
  565POPC   GL111701  12.877  14.447   9.258
  565POPC   GL211702  13.194  14.441   9.133
  565POPC   C1A11703  12.747  14.293   8.851
  565POPC   D2A11704  12.761  14.100   8.471
  565POPC   C3A11705  12.648  14.261   8.095
  565POPC   C4A11706  12.813  14.056   7.743
  565POPC   C1B11707  13.257  14.689   8.835
  565POPC   C2B11708  13.154  14.416   8.521
  565POPC   C3B11709  13.144  14.281   8.122
  565POPC   C4B11710  13.273  14.436   7.766
  566POPC   NC311711   2.858  44.364   9.387
  566POPC   PO411712   2.804  43.676   9.462
  566POPC   GL111713   2.996  43.681   9.078
  566POPC   GL211714   3.104  44.020   9.091
  566POPC   C1A11715   2.902  43.668   8.651
  566POPC   D2A11716   2.621  43.776   8.345
  566POPC   C3A11717   2.823  43.890   8.033
  566POPC   C4A11718   2.940  43.703   7.665
  566POPC   C1B11719   2.973  44.168   8.708
  566POPC   C2B11720   2.736  44.307   8.403
  566POPC   C3B11721   2.926  44.416   8.051
  566POPC   C4B11722   2.902  44.266   7.662
  567POPC   NC311723   0.933  11.954   9.541
  567POPC   PO411724   1.283  12.515   9.562
  567POPC   GL111725   1.206  12.217   9.189
  567POPC   GL211726   0.831  12.111   9.085
  567POPC   C1A11727   1.165  12.199   8.736
  567POPC   D2A11728   1.265  12.026   8.363
  567POPC   C3A11729   1.185  12.190   7.940
  567POPC   C4A11730   1.284  11.937   7.572
  567POPC   C1B11731   0.761  11.856   8.699
  567POPC   C2B11732   0.781  11.910   8.223
  567POPC   C3B11733   0.783  11.942   7.755
  567POPC   C4B11734   0.893  12.241   7.424
  568POPC   NC311735  37.662  12.478   9.528
  568POPC   PO411736  37.821  11.818   9.574
  568POPC   GL111737  37.808  12.017   9.198
  568POPC   GL211738  37.484  12.071   9.228
  568POPC   C1A11739  37.689  11.846   8.786
  568POPC   D2A11740  37.953  11.804   8.419
  568POPC   C3A11741  37.721  12.003   8.085
  568POPC   C4A11742  37.833  12.056   7.648
  568POPC   C1B11743  37.515  12.324   8.873
  568POPC   C2B11744  37.625  12.448   8.463
  568POPC   C3B11745  37.341  12.406   8.129
  568POPC   C4B11746  37.374  12.240   7.769
  569POPC   NC311747  38.626  36.374   9.115
  569POPC   PO411748  38.433  35.813   9.489
  569POPC   GL111749  38.456  35.903   9.120
  569POPC   GL211750  38.155  36.068   9.125
  569POPC   C1A11751  38.411  35.949   8.689
  569POPC   D2A11752  38.373  36.280   8.469
  569POPC   C3A11753  38.347  36.097   8.095
  569POPC   C4A11754  38.547  36.271   7.777
  569POPC   C1B11755  37.925  36.177   8.752
  569POPC   C2B11756  37.906  36.386   8.342
  569POPC   C3B11757  37.948  36.351   7.900
  569POPC   C4B11758  37.951  35.988   7.645
  570POPC   NC311759  27.115  11.319   9.343
  570POPC   PO411760  26.479  11.185   9.474
  570POPC   GL111761  26.681  11.176   9.095
  570POPC   GL211762  26.569  11.511   9.063
  570POPC   C1A11763  26.945  11.227   8.715
  570POPC   D2A11764  26.904  11.444   8.320
  570POPC   C3A11765  26.868  11.259   7.893
  570POPC   C4A11766  27.042  11.329   7.480
  570POPC   C1B11767  26.465  11.392   8.648
  570POPC   C2B11768  26.415  11.599   8.278
  570POPC   C3B11769  26.415  11.488   7.861
  570POPC   C4B11770  26.243  11.077   7.745
  571POPC   NC311771  16.967   5.283   9.438
  571POPC   PO411772  16.566   4.834   9.538
  571POPC   GL111773  16.593   5.071   9.150
  571POPC   GL211774  16.940   5.071   8.984
  571POPC   C1A11775  16.450   4.989   8.736
  571POPC   D2A11776  16.810   4.978   8.472
  571POPC   C3A11777  16.737   5.063   8.042
  571POPC   C4A11778  16.451   5.005   7.677
  571POPC   C1B11779  17.085   5.428   8.761
  571POPC   C2B11780  17.120   5.593   8.338
  571POPC   C3B11781  16.938   5.526   7.961
  571POPC   C4B11782  16.918   5.267   7.604
  572POPC   NC311783  16.426  20.064   9.327
  572POPC   PO411784  15.867  19.682   9.553
  572POPC   GL111785  15.933  19.946   9.217
  572POPC   GL211786  16.169  19.687   9.087
  572POPC   C1A11787  16.070  20.089   8.777
  572POPC   D2A11788  16.002  19.877   8.397
  572POPC   C3A11789  16.100  19.984   8.003
  572POPC   C4A11790  16.124  19.729   7.664
  572POPC   C1B11791  15.772  19.678   8.826
  572POPC   C2B11792  15.505  19.754   8.462
  572POPC   C3B11793  15.568  19.984   8.077
  572POPC   C4B11794  15.512  19.742   7.718
  573POPC   NC311795   8.143  31.465   9.482
  573POPC   PO411796   8.734  31.486   9.484
  573POPC   GL111797   8.447  31.615   9.105
  573POPC   GL211798   8.052  31.768   9.051
  573POPC   C1A11799   8.211  31.392   8.778
  573POPC   D2A11800   8.264  31.336   8.366
  573POPC   C3A11801   8.318  31.548   7.996
  573POPC   C4A11802   8.240  31.147   7.804
  573POPC   C1B11803   7.792  31.658   8.652
  573POPC   C2B11804   7.828  31.608   8.186
  573POPC   C3B11805   7.875  31.495   7.726
  573POPC   C4B11806   7.889  31.659   7.263
  574POPC   NC311807   8.582  17.614   9.497
  574POPC   PO411808   8.905  17.080   9.484
  574POPC   GL111809   9.000  17.431   9.203
  574POPC   GL211810   8.698  17.344   9.068
  574POPC   C1A11811   9.232  17.665   8.855
  574POPC   D2A11812   9.155  17.855   8.460
  574POPC   C3A11813   9.109  17.695   8.057
  574POPC   C4A11814   9.115  17.917   7.704
  574POPC   C1B11815   8.771  17.553   8.713
  574POPC   C2B11816   8.769  17.437   8.341
  574POPC   C3B11817   8.647  17.297   7.970
  574POPC   C4B11818   8.816  17.490   7.662
  575POPC   NC311819  16.556  11.639   9.555
  575POPC   PO411820  17.107  12.083   9.584
  575POPC   GL111821  16.771  12.065   9.232
  575POPC   GL211822  16.408  12.157   9.193
  575POPC   C1A11823  16.684  12.069   8.766
  575POPC   D2A11824  16.656  11.849   8.360
  575POPC   C3A11825  16.879  11.879   7.935
  575POPC   C4A11826  16.969  11.798   7.444
  575POPC   C1B11827  16.195  12.245   8.801
  575POPC   C2B11828  16.298  12.278   8.380
  575POPC   C3B11829  16.488  12.187   8.002
  575POPC   C4B11830  16.749  12.242   7.616
  576POPC   NC311831  28.237  37.553   9.552
  576POPC   PO411832  28.710  37.969   9.454
  576POPC   GL111833  28.419  37.743   9.110
  576POPC   GL211834  28.117  37.468   9.080
  576POPC   C1A11835  28.333  37.753   8.670
  576POPC   D2A11836  28.243  37.536   8.291
  576POPC   C3A11837  28.451  37.723   7.977
  576POPC   C4A11838  28.631  37.642   7.575
  576POPC   C1B11839  27.909  37.473   8.716
  576POPC   C2B11840  27.793  37.758   8.411
  576POPC   C3B11841  27.912  37.807   7.993
  576POPC   C4B11842  28.112  37.594   7.651
  577POPC   NC311843  10.014  29.762   9.784
  577POPC   PO411844   9.676  29.702   9.185
  577POPC   GL111845   9.674  30.099   8.983
  577POPC   GL211846   9.385  30.275   9.017
  577POPC   C1A11847   9.622  30.032   8.580
  577POPC   D2A11848   9.688  29.636   8.390
  577POPC   C3A11849   9.607  29.741   7.992
  577POPC   C4A11850   9.965  29.915   7.784
  577POPC   C1B11851   9.282  30.483   8.655
  577POPC   C2B11852   9.360  30.353   8.249
  577POPC   C3B11853   9.545  30.226   7.882
  577POPC   C4B11854   9.315  30.026   7.524
  578POPC   NC311855   5.643  43.040   9.654
  578POPC   PO411856   6.154  43.012   9.235
  578POPC   GL111857   5.846  43.294   9.145
  578POPC   GL211858   5.536  43.129   9.110
  578POPC   C1A11859   5.850  43.281   8.709
  578POPC   D2A11860   6.099  42.982   8.546
  578POPC   C3A11861   6.128  43.118   8.158
  578POPC   C4A11862   6.197  42.851   7.870
  578POPC   C1B11863   5.595  42.838   8.742
  578POPC   C2B11864   5.610  42.968   8.294
  578POPC   C3B11865   5.690  42.969   7.843
  578POPC   C4B11866   5.623  43.209   7.433
  579POPC   NC311867  31.862  26.650   9.787
  579POPC   PO411868  31.265  26.946   9.486
  579POPC   GL111869  31.486  26.946   9.127
  579POPC   GL211870  31.819  26.961   9.111
  579POPC   C1A11871  31.559  26.821   8.712
  579POPC   D2A11872  31.364  26.712   8.356
  579POPC   C3A11873  31.433  26.951   8.012
  579POPC   C4A11874  31.284  26.770   7.683
  579POPC   C1B11875  32.010  27.113   8.731
  579POPC   C2B11876  32.166  27.150   8.344
  579POPC   C3B11877  31.966  27.029   7.961
  579POPC   C4B11878  31.761  26.893   7.602
  580POPC   NC311879  22.020  21.530   9.460
  580POPC   PO411880  22.536  21.083   9.322
  580POPC   GL111881  22.226  21.273   9.064
  580POPC   GL211882  22.308  21.627   9.022
  580POPC   C1A11883  22.055  21.309   8.643
  580POPC   D2A11884  22.055  21.512   8.249
  580POPC   C3A11885  22.109  21.269   7.809
  580POPC   C4A11886  22.055  21.049   7.374
  580POPC   C1B11887  22.635  21.750   8.708
  580POPC   C2B11888  22.694  21.630   8.277
  580POPC   C3B11889  22.393  21.723   7.946
  580POPC   C4B11890  22.440  21.755   7.522
  581POPC   NC311891  37.288  36.040   9.596
  581POPC   PO411892  36.678  36.264   9.721
  581POPC   GL111893  36.819  36.060   9.318
  581POPC   GL211894  36.719  36.347   9.156
  581POPC   C1A11895  36.974  36.023   8.858
  581POPC   D2A11896  37.111  36.202   8.457
  581POPC   C3A11897  37.092  36.047   8.034
  581POPC   C4A11898  36.792  35.854   7.873
  581POPC   C1B11899  36.942  36.565   8.847
  581POPC   C2B11900  36.802  36.615   8.445
  581POPC   C3B11901  36.615  36.579   8.071
  581POPC   C4B11902  36.787  36.367   7.780
  582POPC   NC311903  41.016  35.589   9.358
  582POPC   PO411904  40.413  35.307   9.433
  582POPC   GL111905  40.620  35.456   9.087
  582POPC   GL211906  40.864  35.193   9.051
  582POPC   C1A11907  40.843  35.553   8.704
  582POPC   D2A11908  40.773  35.290   8.374
  582POPC   C3A11909  40.913  35.421   7.973
  582POPC   C4A11910  40.782  35.582   7.577
  582POPC   C1B11911  40.523  35.030   8.807
  582POPC   C2B11912  40.431  34.894   8.411
  582POPC   C3B11913  40.469  35.077   8.024
  582POPC   C4B11914  40.680  35.092   7.658
  583POPC   NC311915  33.051  41.817   9.470
  583POPC   PO411916  32.873  41.165   9.468
  583POPC   GL111917  32.966  41.423   9.109
  583POPC   GL211918  33.105  41.766   8.980
  583POPC   C1A11919  32.917  41.417   8.663
  583POPC   D2A11920  33.071  41.308   8.302
  583POPC   C3A11921  32.782  41.362   7.965
  583POPC   C4A11922  33.109  41.338   7.656
  583POPC   C1B11923  32.710  41.869   8.749
  583POPC   C2B11924  32.630  41.778   8.326
  583POPC   C3B11925  33.006  41.798   8.100
  583POPC   C4B11926  33.105  41.870   7.706
  584POPC   NC311927  36.974  28.790   9.762
  584POPC   PO411928  37.155  29.252   9.267
  584POPC   GL111929  36.882  29.175   8.933
  584POPC   GL211930  36.790  29.495   8.791
  584POPC   C1A11931  36.981  29.066   8.565
  584POPC   D2A11932  37.161  29.001   8.209
  584POPC   C3A11933  37.033  29.229   7.900
  584POPC   C4A11934  36.889  28.891   7.630
  584POPC   C1B11935  36.691  29.465   8.416
  584POPC   C2B11936  36.586  29.199   8.165
  584POPC   C3B11937  36.540  29.240   7.765
  584POPC   C4B11938  36.823  29.487   7.517
  585POPC   NC311939   5.035  23.023   9.656
  585POPC   PO411940   5.332  22.454   9.498
  585POPC   GL111941   5.097  22.777   9.220
  585POPC   GL211942   5.340  23.068   9.243
  585POPC   C1A11943   4.940  23.039   8.843
  585POPC   D2A11944   4.728  23.201   8.453
  585POPC   C3A11945   4.960  23.081   8.075
  585POPC   C4A11946   5.122  22.740   7.768
  585POPC   C1B11947   5.405  22.838   8.845
  585POPC   C2B11948   5.381  22.578   8.484
  585POPC   C3B11949   5.445  22.841   8.140
  585POPC   C4B11950   5.394  23.181   7.826
  586POPC   NC311951   7.475  38.393   9.481
  586POPC   PO411952   7.729  39.026   9.297
  586POPC   GL111953   7.521  38.694   9.082
  586POPC   GL211954   7.691  38.336   9.026
  586POPC   C1A11955   7.292  38.614   8.730
  586POPC   D2A11956   7.177  38.810   8.350
  586POPC   C3A11957   7.206  38.499   8.011
  586POPC   C4A11958   7.336  38.396   7.619
  586POPC   C1B11959   7.821  38.564   8.684
  586POPC   C2B11960   7.620  38.526   8.306
  586POPC   C3B11961   7.747  38.383   7.924
  586POPC   C4B11962   7.812  38.694   7.667
  587POPC   NC311963   6.911  12.170   9.432
  587POPC   PO411964   6.266  11.904   9.559
  587POPC   GL111965   6.556  11.919   9.153
  587POPC   GL211966   6.866  12.102   8.959
  587POPC   C1A11967   6.450  11.974   8.736
  587POPC   D2A11968   6.425  12.285   8.463
  587POPC   C3A11969   6.670  12.102   8.150
  587POPC   C4A11970   6.751  11.808   7.815
  587POPC   C1B11971   6.979  12.088   8.561
  587POPC   C2B11972   7.127  12.316   8.214
  587POPC   C3B11973   6.961  12.293   7.785
  587POPC   C4B11974   7.047  12.423   7.380
  588POPC   NC311975  13.239  16.333   9.787
  588POPC   PO411976  13.591  16.852   9.451
  588POPC   GL111977  13.605  16.744   9.047
  588POPC   GL211978  13.612  16.364   8.997
  588POPC   C1A11979  13.767  16.684   8.636
  588POPC   D2A11980  13.785  17.005   8.342
  588POPC   C3A11981  13.591  16.877   7.979
  588POPC   C4A11982  13.719  16.818   7.555
  588POPC   C1B11983  13.258  16.528   8.758
  588POPC   C2B11984  13.372  16.533   8.348
  588POPC   C3B11985  13.662  16.375   8.075
  588POPC   C4B11986  13.413  16.459   7.741
  589POPC   NC311987  17.724  30.514   9.503
  589POPC   PO411988  17.085  30.738   9.446
  589POPC   GL111989  17.466  30.717   9.135
  589POPC   GL211990  17.833  30.684   9.048
  589POPC   C1A11991  17.471  30.479   8.727
  589POPC   D2A11992  17.270  30.587   8.377
  589POPC   C3A11993  17.471  30.572   8.021
  589POPC   C4A11994  17.335  30.860   7.738
  589POPC   C1B11995  17.679  30.937   8.739
  589POPC   C2B11996  17.769  30.805   8.363
  589POPC   C3B11997  17.861  30.885   7.943
  589POPC   C4B11998  17.754  31.037   7.533
  590POPC   NC311999  22.768   7.680   9.476
  590POPC   PO412000  22.912   8.269   9.532
  590POPC   GL112001  22.764   8.087   9.135
  590POPC   GL212002  23.071   7.956   9.053
  590POPC   C1A12003  22.766   8.139   8.652
  590POPC   D2A12004  23.012   8.200   8.238
  590POPC   C3A12005  22.750   8.194   7.855
  590POPC   C4A12006  22.821   8.357   7.420
  590POPC   C1B12007  23.308   7.780   8.723
  590POPC   C2B12008  23.345   7.663   8.278
  590POPC   C3B12009  23.074   7.787   7.929
  590POPC   C4B12010  23.209   8.114   7.652
  591POPC   NC312011  12.689   1.141   9.347
  591POPC   PO412012  13.097   1.584   9.614
  591POPC   GL112013  13.101   1.473   9.136
  591POPC   GL212014  13.052   1.154   9.006
  591POPC   C1A12015  13.076   1.487   8.624
  591POPC   D2A12016  12.794   1.369   8.258
  591POPC   C3A12017  12.927   1.286   7.874
  591POPC   C4A12018  12.845   1.636   7.660
  591POPC   C1B12019  12.680   1.186   8.703
  591POPC   C2B12020  12.601   0.884   8.385
  591POPC   C3B12021  12.563   0.926   7.967
  591POPC   C4B12022  12.634   0.995   7.518
  592POPC   NC312023  22.258  42.092   9.475
  592POPC   PO412024  21.628  42.088   9.820
  592POPC   GL112025  21.776  42.260   9.380
  592POPC   GL212026  22.032  42.553   9.332
  592POPC   C1A12027  21.741  42.321   8.910
  592POPC   D2A12028  21.643  42.194   8.469
  592POPC   C3A12029  21.983  42.130   8.174
  592POPC   C4A12030  22.103  42.142   7.723
  592POPC   C1B12031  22.233  42.490   8.917
  592POPC   C2B12032  22.286  42.480   8.464
  592POPC   C3B12033  22.266  42.550   8.016
  592POPC   C4B12034  22.230  42.660   7.545
  593POPC   NC312035   6.281  42.632   9.437
  593POPC   PO412036   6.387  41.969   9.409
  593POPC   GL112037   6.686  42.093   9.090
  593POPC   GL212038   6.476  42.352   9.068
  593POPC   C1A12039   6.770  42.385   8.680
  593POPC   D2A12040   6.810  42.387   8.229
  593POPC   C3A12041   6.638  42.544   7.874
  593POPC   C4A12042   6.733  42.466   7.420
  593POPC   C1B12043   6.338  42.079   8.718
  593POPC   C2B12044   6.482  41.983   8.327
  593POPC   C3B12045   6.544  42.045   7.908
  593POPC   C4B12046   6.232  41.970   7.598
  594POPC   NC312047  31.501  34.978   9.525
  594POPC   PO412048  31.137  35.483   9.427
  594POPC   GL112049  31.363  35.290   9.088
  594POPC   GL212050  31.702  35.273   9.176
  594POPC   C1A12051  31.591  35.498   8.717
  594POPC   D2A12052  31.723  35.635   8.307
  594POPC   C3A12053  31.438  35.526   8.001
  594POPC   C4A12054  31.463  35.493   7.573
  594POPC   C1B12055  31.718  35.020   8.800
  594POPC   C2B12056  31.350  34.874   8.548
  594POPC   C3B12057  31.296  35.020   8.114
  594POPC   C4B12058  31.693  35.100   7.862
  595POPC   NC312059  19.193  29.670   9.462
  595POPC   PO412060  18.954  30.285   9.586
  595POPC   GL112061  18.977  30.112   9.154
  595POPC   GL212062  19.287  29.976   9.035
  595POPC   C1A12063  18.790  30.050   8.730
  595POPC   D2A12064  18.899  30.234   8.329
  595POPC   C3A12065  18.825  29.995   7.938
  595POPC   C4A12066  18.889  29.712   7.595
  595POPC   C1B12067  19.293  29.988   8.579
  595POPC   C2B12068  19.112  29.744   8.280
  595POPC   C3B12069  19.261  29.561   7.924
  595POPC   C4B12070  19.389  29.729   7.519
  596POPC   NC312071  25.704  10.372   9.442
  596POPC   PO412072  26.128  10.814   9.725
  596POPC   GL112073  26.095  10.710   9.289
  596POPC   GL212074  26.192  10.353   9.191
  596POPC   C1A12075  25.997  10.685   8.842
  596POPC   D2A12076  26.200  10.668   8.433
  596POPC   C3A12077  25.995  10.715   8.017
  596POPC   C4A12078  25.959  10.656   7.558
  596POPC   C1B12079  26.083  10.212   8.741
  596POPC   C2B12080  25.874  10.267   8.345
  596POPC   C3B12081  25.846  10.244   7.896
  596POPC   C4B12082  26.089   9.953   7.697
  597POPC   NC312083   5.654  27.767   9.608
  597POPC   PO412084   6.159  27.390   9.426
  597POPC   GL112085   5.915  27.657   9.178
  597POPC   GL212086   5.619  27.473   9.173
  597POPC   C1A12087   5.880  27.814   8.781
  597POPC   D2A12088   6.055  27.680   8.396
  597POPC   C3A12089   5.765  27.674   8.054
  597POPC   C4A12090   6.027  27.782   7.735
  597POPC   C1B12091   5.851  27.298   8.787
  597POPC   C2B12092   5.866  27.204   8.333
  597POPC   C3B12093   6.122  27.319   7.972
  597POPC   C4B12094   6.195  27.351   7.516
  598POPC   NC312095  39.418  44.693   9.518
  598POPC   PO412096  38.868  44.234   9.601
  598POPC   GL112097  39.123  44.378   9.218
  598POPC   GL212098  39.146  44.729   9.104
  598POPC   C1A12099  39.272  44.354   8.792
  598POPC   D2A12100  39.116  44.549   8.435
  598POPC   C3A12101  39.436  44.673   8.149
  598POPC   C4A12102  39.265  44.767   7.766
  598POPC   C1B12103  38.944  44.943   8.774
  598POPC   C2B12104  38.734  44.903   8.375
  598POPC   C3B12105  38.880   0.044   7.984
  598POPC   C4B12106  38.722   0.218   7.621
  599POPC   NC312107  18.422   3.741   9.658
  599POPC   PO412108  18.003   4.317   9.704
  599POPC   GL112109  18.124   4.108   9.332
  599POPC   GL212110  18.417   4.241   9.173
  599POPC   C1A12111  18.060   4.045   8.860
  599POPC   D2A12112  18.305   4.301   8.550
  599POPC   C3A12113  18.247   4.268   8.078
  599POPC   C4A12114  18.065   4.229   7.639
  599POPC   C1B12115  18.355   4.629   8.946
  599POPC   C2B12116  18.552   4.768   8.549
  599POPC   C3B12117  18.607   4.651   8.094
  599POPC   C4B12118  18.464   4.548   7.668
  600POPC   NC312119  38.603  37.016   9.650
  600POPC   PO412120  38.241  36.565   9.277
  600POPC   GL112121  38.482  36.936   9.147
  600POPC   GL212122  38.280  37.243   9.273
  600POPC   C1A12123  38.524  36.895   8.710
  600POPC   D2A12124  38.212  36.800   8.448
  600POPC   C3A12125  38.322  36.652   8.061
  600POPC   C4A12126  38.575  36.851   7.778
  600POPC   C1B12127  38.242  37.383   8.842
  600POPC   C2B12128  38.438  37.319   8.444
  600POPC   C3B12129  38.279  37.183   8.051
  600POPC   C4B12130  38.282  37.351   7.637
  601POPC   NC312131  27.560  30.135   9.385
  601POPC   PO412132  27.252  29.521   9.441
  601POPC   GL112133  27.538  29.698   9.136
  601POPC   GL212134  27.895  29.713   9.214
  601POPC   C1A12135  27.549  29.926   8.739
  601POPC   D2A12136  27.830  29.977   8.400
  601POPC   C3A12137  27.789  30.176   8.045
  601POPC   C4A12138  27.456  30.230   7.796
  601POPC   C1B12139  28.009  29.688   8.775
  601POPC   C2B12140  28.137  29.571   8.322
  601POPC   C3B12141  27.861  29.640   7.961
  601POPC   C4B12142  27.803  29.904   7.609
  602POPC   NC312143   2.614  24.982   9.402
  602POPC   PO412144   2.986  25.475   9.462
  602POPC   GL112145   2.831  25.330   9.103
  602POPC   GL212146   3.004  25.079   9.053
  602POPC   C1A12147   2.654  25.284   8.715
  602POPC   D2A12148   2.583  25.106   8.324
  602POPC   C3A12149   2.751  25.335   7.992
  602POPC   C4A12150   2.696  25.415   7.548
  602POPC   C1B12151   3.225  24.959   8.682
  602POPC   C2B12152   3.306  24.835   8.304
  602POPC   C3B12153   3.000  24.885   8.049
  602POPC   C4B12154   2.988  25.028   7.662
  603POPC   NC312155  19.002  22.358   9.523
  603POPC   PO412156  19.031  21.724   9.781
  603POPC   GL112157  18.897  21.902   9.312
  603POPC   GL212158  19.164  21.718   9.202
  603POPC   C1A12159  18.848  22.262   8.922
  603POPC   D2A12160  18.746  22.478   8.517
  603POPC   C3A12161  18.988  22.240   8.210
  603POPC   C4A12162  19.157  22.298   7.796
  603POPC   C1B12163  19.374  21.633   8.831
  603POPC   C2B12164  19.355  21.803   8.431
  603POPC   C3B12165  19.332  21.807   8.004
  603POPC   C4B12166  19.541  22.003   7.668
  604POPC   NC312167   9.247  29.578   9.336
  604POPC   PO412168   8.823  30.117   9.503
  604POPC   GL112169   8.904  30.075   9.108
  604POPC   GL212170   8.743  29.778   9.074
  604POPC   C1A12171   9.057  30.034   8.693
  604POPC   D2A12172   9.205  29.818   8.334
  604POPC   C3A12173   9.065  30.004   7.973
  604POPC   C4A12174   8.706  30.247   7.895
  604POPC   C1B12175   8.762  29.627   8.663
  604POPC   C2B12176   8.668  29.870   8.310
  604POPC   C3B12177   8.607  29.752   7.900
  604POPC   C4B12178   8.763  29.770   7.457
  605POPC   NC312179  21.547  41.775   9.462
  605POPC   PO412180  21.758  41.148   9.504
  605POPC   GL112181  21.660  41.404   9.098
  605POPC   GL212182  21.283  41.540   9.086
  605POPC   C1A12183  21.471  41.363   8.662
  605POPC   D2A12184  21.080  41.520   8.458
  605POPC   C3A12185  21.129  41.617   8.013
  605POPC   C4A12186  21.476  41.347   7.825
  605POPC   C1B12187  21.529  41.832   8.803
  605POPC   C2B12188  21.807  41.695   8.487
  605POPC   C3B12189  21.609  41.740   8.147
  605POPC   C4B12190  21.610  42.035   7.837
  606POPC   NC312191  40.098  26.515   9.849
  606POPC   PO412192  39.982  27.051   9.498
  606POPC   GL112193  39.957  26.943   9.101
  606POPC   GL212194  39.995  26.620   9.078
  606POPC   C1A12195  39.789  26.849   8.683
  606POPC   D2A12196  40.038  26.894   8.320
  606POPC   C3A12197  39.913  26.674   7.987
  606POPC   C4A12198  39.550  26.698   7.764
  606POPC   C1B12199  40.316  26.820   8.756
  606POPC   C2B12200  40.492  26.674   8.346
  606POPC   C3B12201  40.410  26.649   7.865
  606POPC   C4B12202  40.443  26.673   7.388
  607POPC   NC312203  21.343   6.884   9.341
  607POPC   PO412204  21.800   6.445   9.679
  607POPC   GL112205  21.551   6.411   9.220
  607POPC   GL212206  21.167   6.437   9.105
  607POPC   C1A12207  21.513   6.596   8.756
  607POPC   D2A12208  21.501   6.955   8.426
  607POPC   C3A12209  21.434   6.835   7.969
  607POPC   C4A12210  21.527   6.411   7.787
  607POPC   C1B12211  21.000   6.700   8.725
  607POPC   C2B12212  20.982   6.807   8.269
  607POPC   C3B12213  20.975   6.588   7.857
  607POPC   C4B12214  21.108   6.249   7.549
  608POPC   NC312215  26.839  18.421   9.532
  608POPC   PO412216  27.100  17.786   9.469
  608POPC   GL112217  26.824  18.064   9.155
  608POPC   GL212218  26.566  18.365   9.094
  608POPC   C1A12219  26.896  18.173   8.708
  608POPC   D2A12220  26.831  17.979   8.279
  608POPC   C3A12221  26.989  18.225   7.878
  608POPC   C4A12222  27.003  18.040   7.438
  608POPC   C1B12223  26.397  18.138   8.751
  608POPC   C2B12224  26.515  18.360   8.378
  608POPC   C3B12225  26.533  18.480   7.952
  608POPC   C4B12226  26.598  18.351   7.530
  609POPC   NC312227  29.792   6.908   9.604
  609POPC   PO412228  30.184   6.383   9.446
  609POPC   GL112229  29.830   6.570   9.172
  609POPC   GL212230  29.715   6.920   9.126
  609POPC   C1A12231  29.640   6.544   8.765
  609POPC   D2A12232  29.866   6.712   8.391
  609POPC   C3A12233  29.844   6.628   7.937
  609POPC   C4A12234  30.066   6.282   7.739
  609POPC   C1B12235  29.954   7.037   8.816
  609POPC   C2B12236  29.925   7.212   8.446
  609POPC   C3B12237  30.102   7.075   8.093
  609POPC   C4B12238  30.018   7.078   7.693
  610POPC   NC312239   3.980  38.554   9.873
  610POPC   PO412240   4.582  38.504   9.662
  610POPC   GL112241   4.441  38.579   9.223
  610POPC   GL212242   4.754  38.679   9.152
  610POPC   C1A12243   4.142  38.636   8.797
  610POPC   D2A12244   3.947  38.659   8.364
  610POPC   C3A12245   4.124  38.630   7.955
  610POPC   C4A12246   4.154  38.334   7.629
  610POPC   C1B12247   4.584  38.413   8.787
  610POPC   C2B12248   4.343  38.256   8.446
  610POPC   C3B12249   4.485  38.272   8.034
  610POPC   C4B12250   4.607  38.551   7.722
  611POPC   NC312251  38.835  20.653   9.586
  611POPC   PO412252  38.336  20.179   9.532
  611POPC   GL112253  38.356  20.597   9.278
  611POPC   GL212254  38.692  20.721   9.109
  611POPC   C1A12255  38.243  20.789   8.884
  611POPC   D2A12256  38.556  20.802   8.587
  611POPC   C3A12257  38.395  20.646   8.207
  611POPC   C4A12258  38.595  20.724   7.815
  611POPC   C1B12259  38.752  20.363   8.833
  611POPC   C2B12260  38.833  20.391   8.409
  611POPC   C3B12261  38.725  20.258   8.013
  611POPC   C4B12262  38.909  20.296   7.650
  612POPC   NC312263  41.620   2.389   9.674
  612POPC   PO412264  41.196   1.905   9.507
  612POPC   GL112265  41.353   1.873   9.108
  612POPC   GL212266  41.712   1.987   9.083
  612POPC   C1A12267  41.397   2.089   8.725
  612POPC   D2A12268  41.607   2.009   8.374
  612POPC   C3A12269  41.375   2.021   7.993
  612POPC   C4A12270  41.542   2.225   7.633
  612POPC   C1B12271  41.756   1.669   8.784
  612POPC   C2B12272  41.719   1.512   8.369
  612POPC   C3B12273  41.850   1.742   7.955
  612POPC   C4B12274  41.841   1.822   7.507
  613POPC   NC312275  19.730  37.405   9.480
  613POPC   PO412276  20.099  37.938   9.576
  613POPC   GL112277  19.937  37.858   9.122
  613POPC   GL212278  19.769  37.542   9.002
  613POPC   C1A12279  19.708  37.984   8.759
  613POPC   D2A12280  19.592  37.725   8.411
  613POPC   C3A12281  19.648  37.914   8.022
  613POPC   C4A12282  19.882  37.836   7.684
  613POPC   C1B12283  20.035  37.227   8.807
  613POPC   C2B12284  20.050  37.173   8.369
  613POPC   C3B12285  19.820  37.398   8.040
  613POPC   C4B12286  20.014  37.362   7.664
  614POPC   NC312287  27.405   5.101   9.661
  614POPC   PO412288  27.771   4.709   9.279
  614POPC   GL112289  27.558   4.810   8.985
  614POPC   GL212290  27.307   4.934   9.183
  614POPC   C1A12291  27.791   4.966   8.635
  614POPC   D2A12292  27.784   5.183   8.266
  614POPC   C3A12293  27.738   4.992   7.865
  614POPC   C4A12294  27.639   5.194   7.492
  614POPC   C1B12295  27.409   5.267   8.835
  614POPC   C2B12296  27.260   5.279   8.378
  614POPC   C3B12297  27.248   5.161   7.923
  614POPC   C4B12298  27.235   5.507   7.588
  615POPC   NC312299  17.679  42.824   9.366
  615POPC   PO412300  17.024  43.040   9.392
  615POPC   GL112301  17.341  43.207   9.158
  615POPC   GL212302  17.663  43.361   9.291
  615POPC   C1A12303  17.377  43.002   8.765
  615POPC   D2A12304  17.184  43.004   8.372
  615POPC   C3A12305  17.359  43.114   8.004
  615POPC   C4A12306  17.224  43.320   7.616
  615POPC   C1B12307  17.677  43.404   8.843
  615POPC   C2B12308  17.789  43.135   8.477
  615POPC   C3B12309  17.866  43.251   8.060
  615POPC   C4B12310  18.098  43.346   7.712
  616POPC   NC312311  43.666  38.201   9.950
  616POPC   PO412312  43.927  38.687   9.502
  616POPC   GL112313  43.905  38.504   9.086
  616POPC   GL212314  43.894  38.130   9.094
  616POPC   C1A12315  43.931  38.395   8.652
  616POPC   D2A12316  44.221  38.149   8.429
  616POPC   C3A12317  44.054  38.113   8.021
  616POPC   C4A12318  44.005  38.486   7.766
  616POPC   C1B12319  43.677  37.950   8.761
  616POPC   C2B12320  43.669  38.052   8.352
  616POPC   C3B12321  43.633  38.429   8.124
  616POPC   C4B12322  43.446  38.582   7.731
  617POPC   NC312323  20.545  34.461   9.533
  617POPC   PO412324  20.230  34.938   9.218
  617POPC   GL112325  20.489  34.588   9.045
  617POPC   GL212326  20.861  34.514   9.119
  617POPC   C1A12327  20.572  34.304   8.723
  617POPC   D2A12328  20.724  34.386   8.319
  617POPC   C3A12329  20.501  34.657   8.012
  617POPC   C4A12330  20.439  34.426   7.640
  617POPC   C1B12331  20.967  34.652   8.705
  617POPC   C2B12332  20.960  34.825   8.267
  617POPC   C3B12333  20.976  34.543   7.881
  617POPC   C4B12334  21.123  34.551   7.461
  618POPC   NC312335  12.470  12.382  10.043
  618POPC   PO412336  12.133  12.063   9.577
  618POPC   GL112337  11.959  12.062   9.143
  618POPC   GL212338  11.700  12.364   9.193
  618POPC   C1A12339  12.218  12.026   8.724
  618POPC   D2A12340  12.640  12.109   8.472
  618POPC   C3A12341  12.598  11.930   8.066
  618POPC   C4A12342  12.174  11.957   7.859
  618POPC   C1B12343  11.565  12.164   8.810
  618POPC   C2B12344  11.548  12.324   8.375
  618POPC   C3B12345  11.668  12.269   7.943
  618POPC   C4B12346  11.675  11.860   7.739
  619POPC   NC312347  23.894  34.871   9.546
  619POPC   PO412348  23.417  35.360   9.585
  619POPC   GL112349  23.538  35.393   9.141
  619POPC   GL212350  23.771  35.117   9.031
  619POPC   C1A12351  23.827  35.637   8.867
  619POPC   D2A12352  24.038  35.713   8.410
  619POPC   C3A12353  23.862  35.504   8.075
  619POPC   C4A12354  23.811  35.636   7.653
  619POPC   C1B12355  23.636  35.265   8.586
  619POPC   C2B12356  23.334  35.343   8.240
  619POPC   C3B12357  23.428  35.337   7.815
  619POPC   C4B12358  23.807  35.119   7.728
  620POPC   NC312359  20.035  29.405   9.340
  620POPC   PO412360  19.478  29.389   9.720
  620POPC   GL112361  19.605  29.113   9.241
  620POPC   GL212362  19.915  28.905   9.176
  620POPC   C1A12363  19.775  29.159   8.762
  620POPC   D2A12364  20.092  29.399   8.518
  620POPC   C3A12365  20.084  29.365   8.073
  620POPC   C4A12366  19.750  29.458   7.772
  620POPC   C1B12367  20.225  28.834   8.799
  620POPC   C2B12368  20.124  28.881   8.365
  620POPC   C3B12369  19.823  28.907   8.043
  620POPC   C4B12370  20.013  29.035   7.682
  621POPC   NC312371  26.315  27.852   9.400
  621POPC   PO412372  26.436  27.243   9.462
  621POPC   GL112373  26.201  27.422   9.094
  621POPC   GL212374  25.956  27.670   9.057
  621POPC   C1A12375  26.215  27.524   8.631
  621POPC   D2A12376  26.373  27.844   8.322
  621POPC   C3A12377  26.285  27.762   7.893
  621POPC   C4A12378  26.120  27.424   7.628
  621POPC   C1B12379  25.853  27.872   8.659
  621POPC   C2B12380  25.875  27.658   8.237
  621POPC   C3B12381  25.760  27.747   7.815
  621POPC   C4B12382  25.579  27.714   7.372
  622POPC   NC312383  29.667  32.953   9.734
  622POPC   PO412384  30.173  32.909   9.267
  622POPC   GL112385  29.907  33.147   9.083
  622POPC   GL212386  29.619  32.997   8.920
  622POPC   C1A12387  30.013  33.295   8.700
  622POPC   D2A12388  29.839  33.158   8.310
  622POPC   C3A12389  30.016  33.118   7.911
  622POPC   C4A12390  29.887  33.320   7.483
  622POPC   C1B12391  29.943  32.792   8.671
  622POPC   C2B12392  30.004  32.653   8.281
  622POPC   C3B12393  29.748  32.667   7.925
  622POPC   C4B12394  29.847  32.823   7.522
  623POPC   NC312395  10.649  24.391   9.744
  623POPC   PO412396  10.116  23.966   9.532
  623POPC   GL112397  10.364  24.318   9.288
  623POPC   GL212398  10.744  24.261   9.264
  623POPC   C1A12399  10.343  24.578   8.855
  623POPC   D2A12400  10.627  24.717   8.496
  623POPC   C3A12401  10.521  24.655   8.053
  623POPC   C4A12402  10.391  24.586   7.604
  623POPC   C1B12403  10.766  24.274   8.830
  623POPC   C2B12404  10.948  24.086   8.449
  623POPC   C3B12405  10.862  24.272   8.083
  623POPC   C4B12406  10.924  24.508   7.730
  624POPC   NC312407  11.098  19.794   9.485
  624POPC   PO412408  11.739  20.091   9.490
  624POPC   GL112409  11.511  19.994   9.139
  624POPC   GL212410  11.374  19.677   9.008
  624POPC   C1A12411  11.548  20.013   8.697
  624POPC   D2A12412  11.244  19.887   8.396
  624POPC   C3A12413  11.492  19.910   8.017
  624POPC   C4A12414  11.270  19.941   7.658
  624POPC   C1B12415  11.199  19.400   8.729
  624POPC   C2B12416  11.018  19.402   8.368
  624POPC   C3B12417  11.175  19.517   8.029
  624POPC   C4B12418  11.235  19.434   7.639
  625POPC   NC312419  31.919   1.118   9.417
  625POPC   PO412420  32.351   1.612   9.191
  625POPC   GL112421  32.264   1.234   9.008
  625POPC   GL212422  31.909   1.267   8.957
  625POPC   C1A12423  32.209   1.229   8.553
  625POPC   D2A12424  32.219   1.575   8.279
  625POPC   C3A12425  32.460   1.453   7.925
  625POPC   C4A12426  32.472   1.009   7.743
  625POPC   C1B12427  31.720   0.998   8.721
  625POPC   C2B12428  31.877   0.894   8.348
  625POPC   C3B12429  31.991   1.117   7.988
  625POPC   C4B12430  31.977   1.467   7.787
  626POPC   NC312431  19.209  11.510   9.418
  626POPC   PO412432  18.781  10.951   9.507
  626POPC   GL112433  19.000  10.989   9.111
  626POPC   GL212434  19.048  11.290   8.989
  626POPC   C1A12435  19.170  10.821   8.726
  626POPC   D2A12436  19.304  11.129   8.393
  626POPC   C3A12437  19.182  11.216   7.936
  626POPC   C4A12438  19.302  11.579   7.674
  626POPC   C1B12439  18.827  11.178   8.635
  626POPC   C2B12440  18.733  11.275   8.213
  626POPC   C3B12441  18.823  11.587   7.858
  626POPC   C4B12442  18.925  11.881   7.501
  627POPC   NC312443   5.906   2.422   9.720
  627POPC   PO412444   5.569   2.304   9.196
  627POPC   GL112445   5.776   2.647   9.107
  627POPC   GL212446   6.133   2.596   9.212
  627POPC   C1A12447   5.680   2.859   8.728
  627POPC   D2A12448   5.778   2.738   8.345
  627POPC   C3A12449   5.570   2.748   7.997
  627POPC   C4A12450   5.723   2.871   7.620
  627POPC   C1B12451   6.233   2.777   8.774
  627POPC   C2B12452   6.234   2.935   8.358
  627POPC   C3B12453   6.135   2.835   7.942
  627POPC   C4B12454   6.252   2.905   7.522
  628POPC   NC312455  29.682  12.387   9.151
  628POPC   PO412456  29.593  12.852   9.623
  628POPC   GL112457  29.787  12.933   9.102
  628POPC   GL212458  29.585  13.001   8.811
  628POPC   C1A12459  30.029  12.762   8.744
  628POPC   D2A12460  29.829  12.760   8.387
  628POPC   C3A12461  29.993  12.901   8.015
  628POPC   C4A12462  29.925  12.720   7.667
  628POPC   C1B12463  29.330  12.735   8.508
  628POPC   C2B12464  29.476  12.363   8.346
  628POPC   C3B12465  29.545  12.582   7.999
  628POPC   C4B12466  29.415  12.698   7.605
  629POPC   NC312467  30.665   9.804   9.722
  629POPC   PO412468  30.343  10.253   9.421
  629POPC   GL112469  30.521   9.887   9.174
  629POPC   GL212470  30.822   9.721   9.199
  629POPC   C1A12471  30.446   9.846   8.737
  629POPC   D2A12472  30.618  10.042   8.357
  629POPC   C3A12473  30.474   9.967   7.930
  629POPC   C4A12474  30.683   9.778   7.544
  629POPC   C1B12475  30.750   9.445   8.816
  629POPC   C2B12476  30.628   9.534   8.373
  629POPC   C3B12477  30.509   9.435   7.948
  629POPC   C4B12478  30.676   9.271   7.582
  630POPC   NC312479  30.049  30.986   9.568
  630POPC   PO412480  30.004  31.597   9.528
  630POPC   GL112481  29.949  31.355   9.174
  630POPC   GL212482  30.283  31.388   9.100
  630POPC   C1A12483  29.643  31.326   8.837
  630POPC   D2A12484  29.581  31.485   8.412
  630POPC   C3A12485  29.843  31.358   8.011
  630POPC   C4A12486  29.725  31.226   7.592
  630POPC   C1B12487  30.154  31.594   8.748
  630POPC   C2B12488  30.056  31.672   8.344
  630POPC   C3B12489  30.197  31.750   7.942
  630POPC   C4B12490  30.186  31.453   7.632
  631POPC   NC312491  30.977  13.612   9.405
  631POPC   PO412492  30.546  13.120   9.477
  631POPC   GL112493  30.662  13.355   9.087
  631POPC   GL212494  30.533  13.700   9.148
  631POPC   C1A12495  30.440  13.531   8.689
  631POPC   D2A12496  30.417  13.830   8.355
  631POPC   C3A12497  30.525  13.582   8.000
  631POPC   C4A12498  30.609  13.670   7.572
  631POPC   C1B12499  30.815  13.866   8.791
  631POPC   C2B12500  30.934  13.716   8.380
  631POPC   C3B12501  30.947  13.859   7.963
  631POPC   C4B12502  31.165  13.762   7.572
  632POPC   NC312503  10.921  16.898   9.332
  632POPC   PO412504  11.432  17.184   9.573
  632POPC   GL112505  11.451  16.858   9.196
  632POPC   GL212506  11.232  16.562   9.143
  632POPC   C1A12507  11.523  16.654   8.760
  632POPC   D2A12508  11.497  16.841   8.368
  632POPC   C3A12509  11.649  16.677   7.996
  632POPC   C4A12510  11.587  16.862   7.602
  632POPC   C1B12511  11.017  16.720   8.736
  632POPC   C2B12512  10.989  16.888   8.340
  632POPC   C3B12513  11.175  16.873   7.939
  632POPC   C4B12514  11.140  16.712   7.503
  633POPC   NC312515  11.796  13.719   9.426
  633POPC   PO412516  12.420  13.597   9.628
  633POPC   GL112517  12.262  13.583   9.209
  633POPC   GL212518  12.158  13.231   9.238
  633POPC   C1A12519  12.060  13.893   8.854
  633POPC   D2A12520  11.806  14.046   8.486
  633POPC   C3A12521  11.971  13.941   8.092
  633POPC   C4A12522  11.919  13.765   7.691
  633POPC   C1B12523  11.975  13.391   8.844
  633POPC   C2B12524  11.908  13.536   8.431
  633POPC   C3B12525  12.036  13.411   8.031
  633POPC   C4B12526  11.710  13.275   7.725
  634POPC   NC312527   0.121  27.639   9.390
  634POPC   PO412528   0.634  27.154   9.527
  634POPC   GL112529   0.532  27.430   9.175
  634POPC   GL212530   0.593  27.807   9.280
  634POPC   C1A12531   0.275  27.461   8.779
  634POPC   D2A12532   0.376  27.598   8.380
  634POPC   C3A12533   0.376  27.283   8.060
  634POPC   C4A12534   0.027  27.221   7.769
  634POPC   C1B12535   0.546  27.915   8.860
  634POPC   C2B12536   0.784  27.941   8.457
  634POPC   C3B12537   0.792  27.677   8.071
  634POPC   C4B12538   0.517  27.646   7.709
  635POPC   NC312539   7.379  41.056   9.534
  635POPC   PO412540   7.277  41.793   9.574
  635POPC   GL112541   7.412  41.776   9.163
  635POPC   GL212542   7.522  41.451   9.243
  635POPC   C1A12543   7.368  41.809   8.710
  635POPC   D2A12544   7.431  41.670   8.291
  635POPC   C3A12545   7.415  41.820   7.865
  635POPC   C4A12546   7.243  41.832   7.421
  635POPC   C1B12547   7.301  41.340   8.861
  635POPC   C2B12548   7.409  41.179   8.491
  635POPC   C3B12549   7.464  41.187   8.069
  635POPC   C4B12550   7.236  41.339   7.738
  636POPC   NC312551  37.321  21.922   9.450
  636POPC   PO412552  36.908  21.343   9.590
  636POPC   GL112553  36.929  21.368   9.172
  636POPC   GL212554  37.242  21.474   9.177
  636POPC   C1A12555  36.941  21.600   8.772
  636POPC   D2A12556  36.718  21.463   8.447
  636POPC   C3A12557  36.918  21.428   8.090
  636POPC   C4A12558  36.711  21.278   7.743
  636POPC   C1B12559  37.218  21.196   8.784
  636POPC   C2B12560  37.126  21.044   8.359
  636POPC   C3B12561  37.122  21.003   7.871
  636POPC   C4B12562  37.249  21.016   7.422
  637POPC   NC312563  37.249  32.829   9.509
  637POPC   PO412564  36.655  33.232   9.476
  637POPC   GL112565  36.942  33.143   9.172
  637POPC   GL212566  36.925  32.792   9.110
  637POPC   C1A12567  37.119  33.078   8.758
  637POPC   D2A12568  36.931  32.941   8.387
  637POPC   C3A12569  36.981  33.294   8.085
  637POPC   C4A12570  37.103  33.377   7.641
  637POPC   C1B12571  36.684  32.592   8.753
  637POPC   C2B12572  36.481  32.596   8.350
  637POPC   C3B12573  36.726  32.606   7.988
  637POPC   C4B12574  36.642  32.504   7.576
  638POPC   NC312575  30.226  21.322   9.589
  638POPC   PO412576  29.672  21.044   9.589
  638POPC   GL112577  29.614  21.304   9.219
  638POPC   GL212578  29.946  21.304   9.117
  638POPC   C1A12579  29.559  21.431   8.767
  638POPC   D2A12580  29.780  21.512   8.345
  638POPC   C3A12581  29.702  21.290   7.935
  638POPC   C4A12582  29.869  21.477   7.531
  638POPC   C1B12583  30.018  21.183   8.678
  638POPC   C2B12584  30.084  21.087   8.225
  638POPC   C3B12585  30.117  21.054   7.776
  638POPC   C4B12586  30.366  21.151   7.405
  639POPC   NC312587  18.921   8.285   9.400
  639POPC   PO412588  19.476   7.855   9.181
  639POPC   GL112589  19.172   8.078   9.022
  639POPC   GL212590  19.139   8.373   8.970
  639POPC   C1A12591  18.900   7.999   8.684
  639POPC   D2A12592  18.972   7.766   8.335
  639POPC   C3A12593  18.938   7.909   7.932
  639POPC   C4A12594  19.183   8.036   7.584
  639POPC   C1B12595  18.991   8.510   8.613
  639POPC   C2B12596  19.016   8.313   8.238
  639POPC   C3B12597  18.996   8.452   7.819
  639POPC   C4B12598  18.627   8.680   7.683
  640POPC   NC312599  19.338  28.959   9.641
  640POPC   PO412600  18.728  29.027   9.417
  640POPC   GL112601  19.075  28.997   9.120
  640POPC   GL212602  19.183  29.356   9.051
  640POPC   C1A12603  19.136  29.029   8.648
  640POPC   D2A12604  18.957  29.250   8.281
  640POPC   C3A12605  18.662  28.972   8.062
  640POPC   C4A12606  18.815  28.736   7.729
  640POPC   C1B12607  19.384  29.483   8.641
  640POPC   C2B12608  19.529  29.259   8.281
  640POPC   C3B12609  19.308  29.019   7.962
  640POPC   C4B12610  18.990  29.206   7.701
  641POPC   NC312611  35.895  13.956   9.637
  641POPC   PO412612  36.286  13.454   9.499
  641POPC   GL112613  36.059  13.684   9.164
  641POPC   GL212614  35.789  13.972   9.142
  641POPC   C1A12615  36.070  13.498   8.761
  641POPC   D2A12616  35.810  13.488   8.399
  641POPC   C3A12617  36.071  13.426   8.040
  641POPC   C4A12618  36.415  13.691   7.908
  641POPC   C1B12619  35.850  13.950   8.704
  641POPC   C2B12620  36.156  13.862   8.388
  641POPC   C3B12621  35.926  13.916   8.062
  641POPC   C4B12622  35.965  13.792   7.656
  642POPC   NC312623  18.785  34.003   9.309
  642POPC   PO412624  18.232  33.609   9.425
  642POPC   GL112625  18.379  33.794   9.044
  642POPC   GL212626  18.725  33.625   8.967
  642POPC   C1A12627  18.128  33.841   8.650
  642POPC   D2A12628  17.983  34.145   8.351
  642POPC   C3A12629  17.988  33.965   7.949
  642POPC   C4A12630  18.220  33.602   7.784
  642POPC   C1B12631  18.637  33.944   8.631
  642POPC   C2B12632  18.436  33.908   8.211
  642POPC   C3B12633  18.621  33.934   7.806
  642POPC   C4B12634  18.761  34.200   7.443
  643POPC   NC312635  44.002  44.470   9.490
  643POPC   PO412636  43.559  44.935   9.489
  643POPC   GL112637  43.759  44.729   9.134
  643POPC   GL212638  44.029  44.952   9.137
  643POPC   C1A12639  43.736  44.517   8.743
  643POPC   D2A12640  43.851  44.610   8.353
  643POPC   C3A12641  43.506  44.684   8.073
  643POPC   C4A12642  43.494  44.514   7.642
  643POPC   C1B12643  44.128  44.980   8.701
  643POPC   C2B12644  44.320  44.854   8.324
  643POPC   C3B12645  44.232  44.598   8.011
  643POPC   C4B12646  43.923  44.736   7.785
  644POPC   NC312647   7.584  31.766   9.302
  644POPC   PO412648   7.413  32.415   9.521
  644POPC   GL112649   7.519  32.435   9.148
  644POPC   GL212650   7.792  32.224   9.167
  644POPC   C1A12651   7.350  32.593   8.787
  644POPC   D2A12652   7.311  32.369   8.413
  644POPC   C3A12653   7.345  32.520   8.016
  644POPC   C4A12654   7.273  32.225   7.703
  644POPC   C1B12655   7.632  32.145   8.752
  644POPC   C2B12656   7.775  32.112   8.350
  644POPC   C3B12657   7.684  32.029   7.908
  644POPC   C4B12658   7.706  32.110   7.427
  645POPC   NC312659  30.907  37.829   9.665
  645POPC   PO412660  30.352  37.971   9.450
  645POPC   GL112661  30.649  37.776   9.222
  645POPC   GL212662  30.906  38.011   9.176
  645POPC   C1A12663  30.791  37.498   8.943
  645POPC   D2A12664  30.841  37.485   8.530
  645POPC   C3A12665  30.691  37.549   8.132
  645POPC   C4A12666  30.668  37.652   7.703
  645POPC   C1B12667  31.044  37.880   8.789
  645POPC   C2B12668  31.191  37.812   8.406
  645POPC   C3B12669  31.059  37.852   7.975
  645POPC   C4B12670  31.061  37.912   7.517
  646POPC   NC312671  28.285  10.373   9.558
  646POPC   PO412672  28.442   9.690   9.452
  646POPC   GL112673  28.332   9.772   9.077
  646POPC   GL212674  28.131   9.497   9.036
  646POPC   C1A12675  28.402   9.913   8.681
  646POPC   D2A12676  28.672   9.672   8.441
  646POPC   C3A12677  28.713   9.832   8.051
  646POPC   C4A12678  28.530   9.822   7.640
  646POPC   C1B12679  28.216   9.441   8.614
  646POPC   C2B12680  28.220   9.687   8.242
  646POPC   C3B12681  28.092   9.606   7.860
  646POPC   C4B12682  27.908   9.240   7.681
  647POPC   NC312683   5.652  23.571   9.537
  647POPC   PO412684   6.226  23.858   9.545
  647POPC   GL112685   6.030  23.697   9.164
  647POPC   GL212686   5.667  23.761   9.075
  647POPC   C1A12687   6.033  23.617   8.721
  647POPC   D2A12688   6.121  23.465   8.327
  647POPC   C3A12689   6.100  23.727   7.983
  647POPC   C4A12690   5.955  24.008   7.637
  647POPC   C1B12691   5.514  23.367   8.872
  647POPC   C2B12692   5.274  23.318   8.480
  647POPC   C3B12693   5.534  23.548   8.163
  647POPC   C4B12694   5.681  23.593   7.742
  648POPC   NC312695   3.915  21.167   9.564
  648POPC   PO412696   3.541  20.678   9.751
  648POPC   GL112697   3.665  20.798   9.278
  648POPC   GL212698   3.472  20.548   9.076
  648POPC   C1A12699   3.645  20.963   8.834
  648POPC   D2A12700   3.522  20.695   8.500
  648POPC   C3A12701   3.722  20.734   8.096
  648POPC   C4A12702   3.596  20.840   7.718
  648POPC   C1B12703   3.311  20.281   8.703
  648POPC   C2B12704   3.180  20.272   8.269
  648POPC   C3B12705   3.316  20.442   7.893
  648POPC   C4B12706   3.341  20.490   7.451
  649POPC   NC312707  22.994  38.658   9.421
  649POPC   PO412708  23.105  37.982   9.548
  649POPC   GL112709  22.933  38.098   9.194
  649POPC   GL212710  23.190  38.299   9.135
  649POPC   C1A12711  22.782  38.157   8.786
  649POPC   D2A12712  22.736  38.398   8.370
  649POPC   C3A12713  22.797  38.189   7.945
  649POPC   C4A12714  22.836  38.287   7.467
  649POPC   C1B12715  23.168  38.490   8.720
  649POPC   C2B12716  23.285  38.525   8.263
  649POPC   C3B12717  23.122  38.562   7.836
  649POPC   C4B12718  23.073  38.751   7.434
  650POPC   NC312719   4.167   7.082   9.470
  650POPC   PO412720   4.211   7.735   9.594
  650POPC   GL112721   4.353   7.544   9.206
  650POPC   GL212722   4.287   7.216   9.013
  650POPC   C1A12723   4.434   7.612   8.765
  650POPC   D2A12724   4.259   7.330   8.495
  650POPC   C3A12725   4.473   7.398   8.156
  650POPC   C4A12726   4.459   7.427   7.763
  650POPC   C1B12727   4.537   6.949   8.748
  650POPC   C2B12728   4.504   6.910   8.313
  650POPC   C3B12729   4.388   6.944   7.886
  650POPC   C4B12730   4.271   7.000   7.456
  651POPC   NC312731  13.237  15.622   9.556
  651POPC   PO412732  12.724  15.226   9.765
  651POPC   GL112733  12.887  15.263   9.302
  651POPC   GL212734  13.071  14.936   9.254
  651POPC   C1A12735  13.031  15.203   8.831
  651POPC   D2A12736  13.134  15.004   8.439
  651POPC   C3A12737  13.060  15.249   8.078
  651POPC   C4A12738  12.786  15.152   7.744
  651POPC   C1B12739  12.748  14.802   8.886
  651POPC   C2B12740  12.724  14.663   8.441
  651POPC   C3B12741  12.910  14.727   8.010
  651POPC   C4B12742  12.895  14.701   7.520
  652POPC   NC312743  30.317   1.851   9.453
  652POPC   PO412744  29.750   2.288   9.542
  652POPC   GL112745  29.799   2.178   9.104
  652POPC   GL212746  30.157   2.022   9.012
  652POPC   C1A12747  29.775   2.000   8.700
  652POPC   D2A12748  30.051   2.044   8.387
  652POPC   C3A12749  29.820   1.965   8.006
  652POPC   C4A12750  29.979   2.090   7.597
  652POPC   C1B12751  30.200   1.615   8.787
  652POPC   C2B12752  29.986   1.542   8.427
  652POPC   C3B12753  30.199   1.659   8.074
  652POPC   C4B12754  30.321   1.689   7.691
  653POPC   NC312755  23.182  41.050   9.402
  653POPC   PO412756  23.110  40.458   9.586
  653POPC   GL112757  23.397  40.597   9.209
  653POPC   GL212758  23.313  40.853   8.946
  653POPC   C1A12759  23.679  40.545   8.814
  653POPC   D2A12760  23.540  40.609   8.369
  653POPC   C3A12761  23.718  40.720   7.957
  653POPC   C4A12762  23.460  40.885   7.653
  653POPC   C1B12763  23.617  41.045   8.679
  653POPC   C2B12764  23.748  41.129   8.257
  653POPC   C3B12765  23.715  41.274   7.823
  653POPC   C4B12766  23.526  41.320   7.390
  654POPC   NC312767  14.560  22.966   9.448
  654POPC   PO412768  14.046  23.291   9.144
  654POPC   GL112769  14.196  22.892   9.053
  654POPC   GL212770  13.930  22.617   9.071
  654POPC   C1A12771  14.577  22.752   8.823
  654POPC   D2A12772  14.710  22.999   8.501
  654POPC   C3A12773  14.585  22.917   8.107
  654POPC   C4A12774  14.356  23.179   7.831
  654POPC   C1B12775  14.098  22.654   8.625
  654POPC   C2B12776  14.055  22.878   8.222
  654POPC   C3B12777  14.191  22.689   7.856
  654POPC   C4B12778  14.585  22.560   7.745
  655POPC   NC312779  18.591  41.700   9.726
  655POPC   PO412780  19.021  41.274   9.418
  655POPC   GL112781  19.210  41.452   9.106
  655POPC   GL212782  19.031  41.783   9.121
  655POPC   C1A12783  19.150  41.561   8.685
  655POPC   D2A12784  19.275  41.716   8.312
  655POPC   C3A12785  19.062  41.489   8.054
  655POPC   C4A12786  19.106  41.271   7.706
  655POPC   C1B12787  18.746  41.903   8.781
  655POPC   C2B12788  18.709  41.671   8.410
  655POPC   C3B12789  18.564  41.704   7.999
  655POPC   C4B12790  18.800  41.654   7.644
  656POPC   NC312791  28.400  24.164   9.354
  656POPC   PO412792  28.157  24.752   9.358
  656POPC   GL112793  28.478  24.569   9.066
  656POPC   GL212794  28.641  24.807   8.856
  656POPC   C1A12795  28.627  24.282   8.727
  656POPC   D2A12796  28.753  24.547   8.383
  656POPC   C3A12797  28.482  24.553   8.039
  656POPC   C4A12798  28.182  24.295   7.834
  656POPC   C1B12799  28.273  24.605   8.579
  656POPC   C2B12800  28.044  24.788   8.219
  656POPC   C3B12801  28.062  24.795   7.785
  656POPC   C4B12802  28.390  24.703   7.520
  657POPC   NC312803  10.500  44.954   9.489
  657POPC   PO412804  10.331  44.277   9.637
  657POPC   GL112805  10.247  44.459   9.202
  657POPC   GL212806  10.222  44.823   9.081
  657POPC   C1A12807  10.561  44.524   8.845
  657POPC   D2A12808  10.704  44.669   8.430
  657POPC   C3A12809  10.473  44.499   8.087
  657POPC   C4A12810  10.330  44.515   7.666
  657POPC   C1B12811  10.484   0.044   8.782
  657POPC   C2B12812  10.544   0.152   8.359
  657POPC   C3B12813  10.580  44.976   7.941
  657POPC   C4B12814  10.933  44.794   7.710
  658POPC   NC312815  19.066   6.651   9.612
  658POPC   PO412816  18.771   7.162   9.333
  658POPC   GL112817  18.847   6.708   9.165
  658POPC   GL212818  19.168   6.484   9.143
  658POPC   C1A12819  18.798   6.511   8.784
  658POPC   D2A12820  18.877   6.802   8.491
  658POPC   C3A12821  18.779   6.802   8.072
  658POPC   C4A12822  18.872   6.586   7.705
  658POPC   C1B12823  19.297   6.684   8.754
  658POPC   C2B12824  19.252   6.503   8.333
  658POPC   C3B12825  19.322   6.695   7.937
  658POPC   C4B12826  19.377   6.580   7.510
  659POPC   NC312827  21.709   9.205   9.306
  659POPC   PO412828  21.094   9.045   9.480
  659POPC   GL112829  21.303   8.871   9.130
  659POPC   GL212830  21.380   9.172   8.915
  659POPC   C1A12831  21.586   8.726   8.812
  659POPC   D2A12832  21.639   8.972   8.423
  659POPC   C3A12833  21.468   8.778   8.056
  659POPC   C4A12834  21.639   8.666   7.644
  659POPC   C1B12835  21.077   8.957   8.681
  659POPC   C2B12836  20.985   8.932   8.279
  659POPC   C3B12837  20.947   9.021   7.874
  659POPC   C4B12838  21.309   9.060   7.651
  660POPC   NC312839  23.547  18.068   9.679
  660POPC   PO412840  23.878  18.575   9.609
  660POPC   GL112841  23.730  18.296   9.240
  660POPC   GL212842  23.637  17.955   9.190
  660POPC   C1A12843  23.671  18.203   8.770
  660POPC   D2A12844  23.528  18.278   8.380
  660POPC   C3A12845  23.665  18.272   7.970
  660POPC   C4A12846  23.652  18.230   7.581
  660POPC   C1B12847  23.473  17.704   8.837
  660POPC   C2B12848  23.356  17.723   8.442
  660POPC   C3B12849  23.348  17.902   8.066
  660POPC   C4B12850  23.406  17.778   7.667
  661POPC   NC312851  16.881  30.428   9.722
  661POPC   PO412852  16.701  29.820   9.541
  661POPC   GL112853  16.713  30.029   9.167
  661POPC   GL212854  16.390  29.998   9.016
  661POPC   C1A12855  16.811  29.976   8.732
  661POPC   D2A12856  16.633  30.103   8.315
  661POPC   C3A12857  16.762  30.044   7.897
  661POPC   C4A12858  16.723  30.243   7.497
  661POPC   C1B12859  16.485  29.608   8.791
  661POPC   C2B12860  16.691  29.548   8.377
  661POPC   C3B12861  16.515  29.604   7.960
  661POPC   C4B12862  16.407  29.767   7.548
  662POPC   NC312863   7.799  22.673   9.519
  662POPC   PO412864   8.286  23.162   9.462
  662POPC   GL112865   8.192  22.859   9.145
  662POPC   GL212866   7.988  22.598   9.069
  662POPC   C1A12867   8.418  22.751   8.791
  662POPC   D2A12868   8.372  22.954   8.398
  662POPC   C3A12869   8.466  22.794   7.987
  662POPC   C4A12870   8.354  22.908   7.562
  662POPC   C1B12871   7.824  22.645   8.717
  662POPC   C2B12872   7.868  22.909   8.429
  662POPC   C3B12873   7.955  22.732   8.074
  662POPC   C4B12874   7.969  22.597   7.664
  663POPC   NC312875  27.107   7.416   9.460
  663POPC   PO412876  26.461   7.737   9.355
  663POPC   GL112877  26.713   7.445   9.118
  663POPC   GL212878  26.967   7.668   9.062
  663POPC   C1A12879  26.822   7.307   8.701
  663POPC   D2A12880  26.575   7.321   8.341
  663POPC   C3A12881  26.690   7.252   7.925
  663POPC   C4A12882  27.040   7.066   7.748
  663POPC   C1B12883  26.890   7.939   8.790
  663POPC   C2B12884  26.664   7.809   8.469
  663POPC   C3B12885  26.624   7.757   8.042
  663POPC   C4B12886  26.915   7.675   7.747
  664POPC   NC312887   7.956  33.416   9.571
  664POPC   PO412888   8.456  33.758   9.564
  664POPC   GL112889   8.198  33.744   9.203
  664POPC   GL212890   8.063  34.059   9.092
  664POPC   C1A12891   8.250  33.670   8.744
  664POPC   D2A12892   8.075  33.498   8.328
  664POPC   C3A12893   8.218  33.537   7.924
  664POPC   C4A12894   8.090  33.472   7.506
  664POPC   C1B12895   8.343  34.180   8.738
  664POPC   C2B12896   8.521  34.151   8.331
  664POPC   C3B12897   8.233  34.037   8.017
  664POPC   C4B12898   7.899  34.285   7.790
  665POPC   NC312899  29.611  15.558   9.258
  665POPC   PO412900  30.270  15.681   9.452
  665POPC   GL112901  30.039  15.852   9.109
  665POPC   GL212902  29.740  16.067   9.242
  665POPC   C1A12903  30.062  15.803   8.646
  665POPC   D2A12904  30.052  16.039   8.250
  665POPC   C3A12905  30.049  15.880   7.824
  665POPC   C4A12906  30.156  15.977   7.410
  665POPC   C1B12907  29.624  16.041   8.806
  665POPC   C2B12908  29.571  15.884   8.377
  665POPC   C3B12909  29.617  16.082   7.965
  665POPC   C4B12910  29.694  16.190   7.521
  666POPC   NC312911  44.267  28.424   9.705
  666POPC   PO412912  43.620  28.203   9.481
  666POPC   GL112913  43.670  28.514   9.151
  666POPC   GL212914  43.996  28.598   9.046
  666POPC   C1A12915  43.599  28.403   8.723
  666POPC   D2A12916  43.496  28.047   8.458
  666POPC   C3A12917  43.597  28.172   8.037
  666POPC   C4A12918  43.503  27.999   7.625
  666POPC   C1B12919  44.141  28.417   8.696
  666POPC   C2B12920  44.020  28.126   8.412
  666POPC   C3B12921  44.160  28.296   8.067
  666POPC   C4B12922  43.951  28.597   7.785
  667POPC   NC312923  35.348   4.556   9.471
  667POPC   PO412924  35.311   3.846   9.606
  667POPC   GL112925  35.404   4.019   9.168
  667POPC   GL212926  35.382   4.368   9.010
  667POPC   C1A12927  35.495   3.991   8.719
  667POPC   D2A12928  35.399   4.338   8.431
  667POPC   C3A12929  35.664   4.324   8.098
  667POPC   C4A12930  35.456   4.129   7.738
  667POPC   C1B12931  35.105   4.613   8.763
  667POPC   C2B12932  35.118   4.774   8.334
  667POPC   C3B12933  35.246   4.591   7.947
  667POPC   C4B12934  35.006   4.384   7.619
  668POPC   NC312935  28.995  44.394   9.373
  668POPC   PO412936  29.426  44.904   9.529
  668POPC   GL112937  29.201  44.857   9.134
  668POPC   GL212938  28.883  44.727   8.963
  668POPC   C1A12939  29.241  44.966   8.709
  668POPC   D2A12940  28.915  44.935   8.429
  668POPC   C3A12941  28.987  44.791   8.049
  668POPC   C4A12942  29.272  44.907   7.763
  668POPC   C1B12943  29.156  44.452   8.714
  668POPC   C2B12944  29.183  44.268   8.322
  668POPC   C3B12945  29.331  44.419   7.951
  668POPC   C4B12946  29.247  44.313   7.557
  669POPC   NC312947  44.754  19.266   9.210
  669POPC   PO412948  44.404  18.827   9.601
  669POPC   GL112949  44.534  18.762   9.156
  669POPC   GL212950  44.907  18.745   9.191
  669POPC   C1A12951  44.500  18.943   8.710
  669POPC   D2A12952  44.655  18.938   8.267
  669POPC   C3A12953  44.365  19.122   7.934
  669POPC   C4A12954  44.253  19.574   7.837
  669POPC   C1B12955   0.019  18.875   8.762
  669POPC   C2B12956   0.155  19.106   8.402
  669POPC   C3B12957   0.203  18.912   8.020
  669POPC   C4B12958  44.874  18.979   7.801
  670POPC   NC312959  15.040   2.085   9.358
  670POPC   PO412960  15.592   1.812   9.553
  670POPC   GL112961  15.414   1.793   9.130
  670POPC   GL212962  15.281   2.110   8.933
  670POPC   C1A12963  15.260   1.663   8.740
  670POPC   D2A12964  15.073   1.977   8.447
  670POPC   C3A12965  15.325   2.017   8.086
  670POPC   C4A12966  15.128   1.786   7.776
  670POPC   C1B12967  15.489   2.290   8.613
  670POPC   C2B12968  15.265   2.553   8.390
  670POPC   C3B12969  15.003   2.410   8.100
  670POPC   C4B12970  14.863   2.251   7.719
  671POPC   NC312971  41.888  33.192   9.465
  671POPC   PO412972  42.512  33.027   9.689
  671POPC   GL112973  42.431  32.898   9.163
  671POPC   GL212974  42.083  32.853   9.121
  671POPC   C1A12975  42.313  33.076   8.718
  671POPC   D2A12976  42.430  33.103   8.280
  671POPC   C3A12977  42.114  33.165   7.956
  671POPC   C4A12978  42.212  33.106   7.526
  671POPC   C1B12979  42.126  32.603   8.741
  671POPC   C2B12980  42.369  32.586   8.346
  671POPC   C3B12981  42.339  32.713   7.889
  671POPC   C4B12982  42.470  32.676   7.464
  672POPC   NC312983  11.842  14.998   9.625
  672POPC   PO412984  11.750  15.615   9.517
  672POPC   GL112985  11.886  15.337   9.224
  672POPC   GL212986  12.230  15.172   9.251
  672POPC   C1A12987  12.021  15.374   8.824
  672POPC   D2A12988  12.152  15.401   8.438
  672POPC   C3A12989  11.865  15.453   8.105
  672POPC   C4A12990  11.802  15.290   7.701
  672POPC   C1B12991  12.529  15.301   8.901
  672POPC   C2B12992  12.661  15.311   8.435
  672POPC   C3B12993  12.417  15.379   8.014
  672POPC   C4B12994  12.284  15.214   7.616
  673POPC   NC312995  17.249  19.510   9.456
  673POPC   PO412996  17.224  20.138   9.402
  673POPC   GL112997  17.473  20.054   9.080
  673POPC   GL212998  17.570  19.707   9.117
  673POPC   C1A12999  17.373  19.970   8.692
  673POPC   D2A13000  17.540  19.729   8.396
  673POPC   C3A13001  17.378  19.934   8.076
  673POPC   C4A13002  17.514  20.160   7.740
  673POPC   C1B13003  17.350  19.469   8.788
  673POPC   C2B13004  17.120  19.467   8.386
  673POPC   C3B13005  17.309  19.433   8.019
  673POPC   C4B13006  17.418  19.652   7.645
  674POPC   NC313007   0.471  29.517   9.459
  674POPC   PO413008   0.190  28.857   9.506
  674POPC   GL113009   0.362  28.880   9.122
  674POPC   GL213010   0.639  29.095   9.179
  674POPC   C1A13011   0.611  28.864   8.730
  674POPC   D2A13012   0.706  28.971   8.299
  674POPC   C3A13013   0.708  28.750   7.889
  674POPC   C4A13014   0.612  29.024   7.537
  674POPC   C1B13015   0.384  29.313   8.828
  674POPC   C2B13016   0.429  29.442   8.397
  674POPC   C3B13017   0.467  29.302   7.972
  674POPC   C4B13018   0.284  29.428   7.559
  675POPC   NC313019  11.834  29.651   9.432
  675POPC   PO413020  12.381  30.002   9.486
  675POPC   GL113021  12.224  30.147   9.133
  675POPC   GL213022  11.868  30.153   9.236
  675POPC   C1A13023  12.234  29.921   8.747
  675POPC   D2A13024  12.406  29.964   8.333
  675POPC   C3A13025  12.224  29.838   7.938
  675POPC   C4A13026  12.455  29.965   7.603
  675POPC   C1B13027  11.860  30.270   8.816
  675POPC   C2B13028  11.832  30.032   8.454
  675POPC   C3B13029  11.963  30.224   8.126
  675POPC   C4B13030  11.771  30.109   7.752
  676POPC   NC313031   8.983   1.795   9.390
  676POPC   PO413032   8.740   2.404   9.360
  676POPC   GL113033   9.084   2.212   9.065
  676POPC   GL213034   9.056   1.841   8.900
  676POPC   C1A13035   9.191   2.227   8.628
  676POPC   D2A13036   9.083   1.904   8.390
  676POPC   C3A13037   8.921   2.142   8.109
  676POPC   C4A13038   8.978   2.183   7.714
  676POPC   C1B13039   8.705   1.665   8.701
  676POPC   C2B13040   8.626   1.743   8.274
  676POPC   C3B13041   8.935   1.671   7.918
  676POPC   C4B13042   9.048   1.719   7.464
  677POPC   NC313043  41.017   4.865   9.515
  677POPC   PO413044  40.409   5.049   9.360
  677POPC   GL113045  40.574   4.862   9.009
  677POPC   GL213046  40.862   5.064   9.060
  677POPC   C1A13047  40.642   4.950   8.550
  677POPC   D2A13048  40.904   5.194   8.243
  677POPC   C3A13049  40.667   5.183   7.852
  677POPC   C4A13050  40.426   4.835   7.946
  677POPC   C1B13051  41.053   4.777   8.799
  677POPC   C2B13052  41.088   4.697   8.387
  677POPC   C3B13053  40.970   4.745   7.970
  677POPC   C4B13054  41.152   5.109   7.781
  678POPC   NC313055  34.528  38.944   9.779
  678POPC   PO413056  34.372  39.456   9.345
  678POPC   GL113057  34.594  39.237   9.073
  678POPC   GL213058  34.535  38.868   9.029
  678POPC   C1A13059  34.525  39.224   8.653
  678POPC   D2A13060  34.342  39.109   8.276
  678POPC   C3A13061  34.633  39.288   7.986
  678POPC   C4A13062  34.570  39.516   7.624
  678POPC   C1B13063  34.238  38.754   8.657
  678POPC   C2B13064  34.141  38.638   8.199
  678POPC   C3B13065  34.501  38.729   7.917
  678POPC   C4B13066  34.608  38.903   7.493
  679POPC   NC313067  14.307  41.116   9.658
  679POPC   PO413068  14.175  40.608   9.475
  679POPC   GL113069  14.281  40.915   9.107
  679POPC   GL213070  14.457  41.238   9.168
  679POPC   C1A13071  14.417  40.888   8.644
  679POPC   D2A13072  14.290  40.819   8.194
  679POPC   C3A13073  14.531  40.582   7.914
  679POPC   C4A13074  14.737  40.714   7.516
  679POPC   C1B13075  14.727  41.267   8.778
  679POPC   C2B13076  14.822  41.071   8.344
  679POPC   C3B13077  14.659  41.102   7.895
  679POPC   C4B13078  14.622  41.218   7.448
  680POPC   NC313079  28.582   8.747   9.478
  680POPC   PO413080  27.953   8.768   9.620
  680POPC   GL113081  28.214   9.015   9.257
  680POPC   GL213082  28.499   9.224   9.245
  680POPC   C1A13083  28.424   8.888   8.847
  680POPC   D2A13084  28.348   8.692   8.442
  680POPC   C3A13085  28.419   8.579   8.024
  680POPC   C4A13086  28.463   8.825   7.676
  680POPC   C1B13087  28.684   9.341   8.841
  680POPC   C2B13088  28.596   9.167   8.440
  680POPC   C3B13089  28.337   9.162   8.076
  680POPC   C4B13090  28.470   9.320   7.675
  681POPC   NC313091  28.048  44.691   9.495
  681POPC   PO413092  28.717  44.747   9.439
  681POPC   GL113093  28.427  44.601   9.156
  681POPC   GL213094  28.512  44.271   9.183
  681POPC   C1A13095  28.395  44.690   8.728
  681POPC   D2A13096  28.180  44.658   8.328
  681POPC   C3A13097  28.451  44.755   7.996
  681POPC   C4A13098  28.124  44.698   7.701
  681POPC   C1B13099  28.686  44.272   8.785
  681POPC   C2B13100  28.713  44.479   8.381
  681POPC   C3B13101  28.797  44.335   7.965
  681POPC   C4B13102  28.494  44.353   7.699
  682POPC   NC313103   5.652  44.012   9.892
  682POPC   PO413104   5.880  43.423   9.665
  682POPC   GL113105   5.969  43.764   9.337
  682POPC   GL213106   5.839  44.097   9.351
  682POPC   C1A13107   6.045  43.748   8.882
  682POPC   D2A13108   6.034  43.975   8.478
  682POPC   C3A13109   6.097  43.707   8.104
  682POPC   C4A13110   5.909  43.432   7.804
  682POPC   C1B13111   5.691  44.119   8.901
  682POPC   C2B13112   5.535  44.098   8.453
  682POPC   C3B13113   5.717  44.020   8.038
  682POPC   C4B13114   5.576  44.043   7.619
  683POPC   NC313115  11.573  14.446   9.307
  683POPC   PO413116  12.159  14.703   9.482
  683POPC   GL113117  12.011  14.619   9.117
  683POPC   GL213118  11.825  14.866   9.047
  683POPC   C1A13119  11.923  14.493   8.701
  683POPC   D2A13120  12.268  14.358   8.458
  683POPC   C3A13121  12.176  14.426   8.041
  683POPC   C4A13122  12.291  14.128   7.745
  683POPC   C1B13123  12.219  14.911   8.757
  683POPC   C2B13124  12.310  14.926   8.313
  683POPC   C3B13125  12.056  14.928   7.963
  683POPC   C4B13126  11.792  14.617   7.765
  684POPC   NC313127  44.625  35.142   9.833
  684POPC   PO413128   0.193  35.494   9.725
  684POPC   GL113129  44.881  35.408   9.387
  684POPC   GL213130  44.820  35.080   9.292
  684POPC   C1A13131  44.773  35.499   8.927
  684POPC   D2A13132  44.632  35.715   8.515
  684POPC   C3A13133  44.695  35.508   8.091
  684POPC   C4A13134  44.381  35.486   7.762
  684POPC   C1B13135  44.875  34.981   8.873
  684POPC   C2B13136  44.709  35.162   8.495
  684POPC   C3B13137  44.608  35.019   8.087
  684POPC   C4B13138  44.623  35.031   7.653
  685POPC   NC313139  36.747  35.272   9.346
  685POPC   PO413140  37.392  35.618   9.448
  685POPC   GL113141  37.093  35.611   9.153
  685POPC   GL213142  37.218  35.295   9.054
  685POPC   C1A13143  36.884  35.530   8.750
  685POPC   D2A13144  37.020  35.677   8.371
  685POPC   C3A13145  36.914  35.398   8.049
  685POPC   C4A13146  36.695  35.207   7.699
  685POPC   C1B13147  37.143  35.073   8.682
  685POPC   C2B13148  37.228  34.840   8.313
  685POPC   C3B13149  37.076  34.940   7.930
  685POPC   C4B13150  37.095  34.917   7.488
  686POPC   NC313151  41.644  23.877   9.747
  686POPC   PO413152  41.834  23.330   9.377
  686POPC   GL113153  41.528  23.650   9.275
  686POPC   GL213154  41.672  23.973   9.228
  686POPC   C1A13155  41.324  23.754   8.883
  686POPC   D2A13156  41.338  23.574   8.468
  686POPC   C3A13157  41.434  23.904   8.154
  686POPC   C4A13158  41.325  23.681   7.811
  686POPC   C1B13159  41.874  23.803   8.853
  686POPC   C2B13160  41.845  23.709   8.435
  686POPC   C3B13161  41.791  23.544   8.040
  686POPC   C4B13162  41.822  23.832   7.707
  687POPC   NC313163  14.175  42.250   9.920
  687POPC   PO413164  14.351  41.587   9.578
  687POPC   GL113165  14.437  41.750   9.175
  687POPC   GL213166  14.143  41.684   9.028
  687POPC   C1A13167  14.570  41.756   8.729
  687POPC   D2A13168  14.453  41.823   8.295
  687POPC   C3A13169  14.502  41.640   7.883
  687POPC   C4A13170  14.522  41.730   7.415
  687POPC   C1B13171  14.212  41.369   8.736
  687POPC   C2B13172  14.388  41.321   8.342
  687POPC   C3B13173  14.173  41.260   7.974
  687POPC   C4B13174  14.168  41.397   7.581
  688POPC   NC313175  36.882  34.347   9.428
  688POPC   PO413176  37.106  34.935   9.410
  688POPC   GL113177  37.183  34.742   9.059
  688POPC   GL213178  37.278  34.425   9.107
  688POPC   C1A13179  36.924  34.579   8.749
  688POPC   D2A13180  36.554  34.512   8.542
  688POPC   C3A13181  36.760  34.629   8.188
  688POPC   C4A13182  36.672  34.691   7.761
  688POPC   C1B13183  37.309  34.239   8.719
  688POPC   C2B13184  37.147  34.304   8.299
  688POPC   C3B13185  37.099  34.423   7.856
  688POPC   C4B13186  37.244  34.364   7.420
  689POPC   NC313187  40.798  40.950   9.432
  689POPC   PO413188  40.866  40.257   9.471
  689POPC   GL113189  40.910  40.550   9.122
  689POPC   GL213190  40.608  40.755   9.002
  689POPC   C1A13191  41.006  40.609   8.693
  689POPC   D2A13192  40.896  40.847   8.324
  689POPC   C3A13193  40.928  40.635   7.941
  689POPC   C4A13194  41.109  40.512   7.528
  689POPC   C1B13195  40.814  41.139   8.772
  689POPC   C2B13196  40.733  41.329   8.350
  689POPC   C3B13197  40.684  41.170   7.905
  689POPC   C4B13198  40.813  40.937   7.519
  690POPC   NC313199   3.294  43.766   9.489
  690POPC   PO413200   3.837  44.190   9.614
  690POPC   GL113201   3.624  44.098   9.211
  690POPC   GL213202   3.715  43.769   9.104
  690POPC   C1A13203   3.475  44.117   8.761
  690POPC   D2A13204   3.289  43.868   8.368
  690POPC   C3A13205   3.288  44.024   7.915
  690POPC   C4A13206   3.338  43.979   7.441
  690POPC   C1B13207   3.425  43.594   8.793
  690POPC   C2B13208   3.412  43.334   8.443
  690POPC   C3B13209   3.194  43.445   8.072
  690POPC   C4B13210   3.466  43.584   7.734
  691POPC   NC313211  27.667   8.402   9.595
  691POPC   PO413212  27.220   7.880   9.442
  691POPC   GL113213  27.294   8.108   9.066
  691POPC   GL213214  27.425   8.441   9.130
  691POPC   C1A13215  27.545   8.001   8.698
  691POPC   D2A13216  27.656   8.146   8.293
  691POPC   C3A13217  27.635   7.895   7.907
  691POPC   C4A13218  27.362   7.792   7.562
  691POPC   C1B13219  27.422   8.497   8.668
  691POPC   C2B13220  27.338   8.550   8.228
  691POPC   C3B13221  27.544   8.400   7.865
  691POPC   C4B13222  27.535   8.535   7.499
  692POPC   NC313223  18.738  26.673   9.454
  692POPC   PO413224  19.320  26.880   9.541
  692POPC   GL113225  19.150  26.845   9.142
  692POPC   GL213226  18.844  26.988   9.030
  692POPC   C1A13227  19.281  27.027   8.762
  692POPC   D2A13228  19.033  27.112   8.398
  692POPC   C3A13229  19.216  27.020   8.035
  692POPC   C4A13230  19.061  26.866   7.655
  692POPC   C1B13231  18.932  26.672   8.676
  692POPC   C2B13232  18.904  26.620   8.202
  692POPC   C3B13233  18.607  26.719   7.883
  692POPC   C4B13234  18.589  26.909   7.443
  693POPC   NC313235  29.746   6.194   9.510
  693POPC   PO413236  30.150   5.537   9.484
  693POPC   GL113237  29.935   5.648   9.099
  693POPC   GL213238  29.873   6.036   9.057
  693POPC   C1A13239  30.066   5.720   8.689
  693POPC   D2A13240  30.048   5.519   8.321
  693POPC   C3A13241  30.049   5.777   7.961
  693POPC   C4A13242  30.196   5.835   7.548
  693POPC   C1B13243  29.596   5.925   8.756
  693POPC   C2B13244  29.714   5.956   8.369
  693POPC   C3B13245  29.537   5.880   8.031
  693POPC   C4B13246  29.568   6.193   7.730
  694POPC   NC313247   0.656  44.442   9.457
  694POPC   PO413248   0.109  44.878   9.554
  694POPC   GL113249   0.039  44.740   9.117
  694POPC   GL213250   0.378  44.612   9.086
  694POPC   C1A13251   0.138  44.623   8.662
  694POPC   D2A13252   0.412  44.660   8.328
  694POPC   C3A13253   0.235  44.661   7.928
  694POPC   C4A13254   0.411  44.781   7.531
  694POPC   C1B13255   0.676  44.479   8.744
  694POPC   C2B13256   0.806  44.334   8.310
  694POPC   C3B13257   0.714  44.508   7.870
  694POPC   C4B13258   0.886  44.586   7.436
  695POPC   NC313259  42.416  41.095   9.493
  695POPC   PO413260  41.853  40.852   9.546
  695POPC   GL113261  42.258  40.681   9.244
  695POPC   GL213262  42.647  40.795   9.159
  695POPC   C1A13263  42.313  40.739   8.782
  695POPC   D2A13264  42.314  40.586   8.358
  695POPC   C3A13265  42.303  40.832   7.970
  695POPC   C4A13266  42.547  41.116   7.746
  695POPC   C1B13267  42.822  40.765   8.709
  695POPC   C2B13268  42.815  40.707   8.253
  695POPC   C3B13269  42.616  40.410   7.989
  695POPC   C4B13270  42.229  40.334   7.839
  696POPC   NC313271  31.387  12.822   9.373
  696POPC   PO413272  32.080  12.669   9.403
  696POPC   GL113273  31.825  12.814   9.085
  696POPC   GL213274  31.681  13.152   9.096
  696POPC   C1A13275  31.661  12.852   8.686
  696POPC   D2A13276  31.809  12.785   8.303
  696POPC   C3A13277  31.500  12.761   8.019
  696POPC   C4A13278  31.501  12.669   7.632
  696POPC   C1B13279  31.282  13.178   8.818
  696POPC   C2B13280  31.367  13.162   8.397
  696POPC   C3B13281  31.682  13.240   8.099
  696POPC   C4B13282  31.538  13.188   7.678
  697POPC   NC313283  16.927  24.673   9.453
  697POPC   PO413284  16.919  24.124   9.830
  697POPC   GL113285  16.811  24.147   9.303
  697POPC   GL213286  16.571  24.424   9.199
  697POPC   C1A13287  16.950  24.368   8.854
  697POPC   D2A13288  17.110  24.322   8.413
  697POPC   C3A13289  16.875  24.510   8.107
  697POPC   C4A13290  16.812  24.518   7.681
  697POPC   C1B13291  16.534  24.681   8.828
  697POPC   C2B13292  16.476  24.668   8.411
  697POPC   C3B13293  16.387  24.900   8.077
  697POPC   C4B13294  16.360  24.755   7.697
  698POPC   NC313295  40.973  22.635   9.303
  698POPC   PO413296  40.797  22.001   9.558
  698POPC   GL113297  40.771  22.166   9.151
  698POPC   GL213298  41.105  22.100   9.143
  698POPC   C1A13299  40.640  21.981   8.734
  698POPC   D2A13300  40.484  21.919   8.307
  698POPC   C3A13301  40.747  22.138   8.014
  698POPC   C4A13302  40.610  22.356   7.624
  698POPC   C1B13303  41.057  22.269   8.743
  698POPC   C2B13304  41.042  22.496   8.383
  698POPC   C3B13305  41.206  22.456   8.020
  698POPC   C4B13306  41.102  22.254   7.659
  699POPC   NC313307  20.985  32.677   9.318
  699POPC   PO413308  21.529  33.094   9.470
  699POPC   GL113309  21.455  33.299   9.041
  699POPC   GL213310  21.161  33.095   9.044
  699POPC   C1A13311  21.390  33.176   8.577
  699POPC   D2A13312  21.423  32.749   8.364
  699POPC   C3A13313  21.350  32.842   7.944
  699POPC   C4A13314  21.493  33.282   7.926
  699POPC   C1B13315  21.037  32.801   8.700
  699POPC   C2B13316  20.930  32.862   8.291
  699POPC   C3B13317  20.978  33.179   8.025
  699POPC   C4B13318  21.123  33.181   7.581
  700POPC   NC313319  37.087  18.384   9.300
  700POPC   PO413320  36.643  18.538   9.698
  700POPC   GL113321  36.751  18.085   9.152
  700POPC   GL213322  37.215  18.009   8.986
  700POPC   C1A13323  36.887  18.108   8.654
  700POPC   D2A13324  37.063  18.386   8.310
  700POPC   C3A13325  36.960  18.350   7.873
  700POPC   C4A13326  36.566  18.429   7.672
  700POPC   C1B13327  37.430  18.240   8.648
  700POPC   C2B13328  37.510  18.140   8.205
  700POPC   C3B13329  37.503  17.911   7.820
  700POPC   C4B13330  37.220  18.029   7.475
  701POPC   NC313331   9.866   5.046   9.831
  701POPC   PO413332   9.251   5.162   9.567
  701POPC   GL113333   9.489   5.097   9.183
  701POPC   GL213334   9.833   4.923   9.159
  701POPC   C1A13335   9.563   5.045   8.726
  701POPC   D2A13336   9.344   5.234   8.404
  701POPC   C3A13337   9.604   5.246   8.042
  701POPC   C4A13338   9.493   5.142   7.654
  701POPC   C1B13339  10.055   4.936   8.723
  701POPC   C2B13340   9.933   4.917   8.265
  701POPC   C3B13341  10.032   4.984   7.801
  701POPC   C4B13342  10.173   5.083   7.370
  702POPC   NC313343  37.139  40.798   9.416
  702POPC   PO413344  36.479  40.519   9.429
  702POPC   GL113345  36.521  40.685   9.082
  702POPC   GL213346  36.880  40.663   8.980
  702POPC   C1A13347  36.459  40.575   8.697
  702POPC   D2A13348  36.767  40.654   8.418
  702POPC   C3A13349  36.551  40.661   8.075
  702POPC   C4A13350  36.721  40.798   7.710
  702POPC   C1B13351  37.179  40.460   8.648
  702POPC   C2B13352  37.294  40.358   8.252
  702POPC   C3B13353  37.172  40.573   7.860
  702POPC   C4B13354  37.282  40.709   7.448
  703POPC   NC313355  16.788   1.655   9.427
  703POPC   PO413356  16.461   2.270   9.365
  703POPC   GL113357  16.508   1.953   9.095
  703POPC   GL213358  16.876   1.970   9.045
  703POPC   C1A13359  16.556   1.820   8.682
  703POPC   D2A13360  16.640   2.022   8.286
  703POPC   C3A13361  16.651   1.755   7.941
  703POPC   C4A13362  17.021   1.759   7.726
  703POPC   C1B13363  17.074   1.896   8.648
  703POPC   C2B13364  17.225   2.194   8.332
  703POPC   C3B13365  16.986   2.321   7.982
  703POPC   C4B13366  16.602   2.223   7.760
  704POPC   NC313367   3.724  44.604   9.826
  704POPC   PO413368   3.286  44.512   9.307
  704POPC   GL113369   3.406  44.777   8.991
  704POPC   GL213370   3.769  44.930   8.937
  704POPC   C1A13371   3.497  44.639   8.602
  704POPC   D2A13372   3.361  44.366   8.324
  704POPC   C3A13373   3.629  44.377   7.988
  704POPC   C4A13374   3.338  44.522   7.715
  704POPC   C1B13375   3.524   0.146   8.674
  704POPC   C2B13376   3.256   0.058   8.391
  704POPC   C3B13377   3.471  44.849   8.111
  704POPC   C4B13378   3.558   0.011   7.737
  705POPC   NC313379  28.300  17.633   9.566
  705POPC   PO413380  27.873  17.163   9.587
  705POPC   GL113381  28.148  17.354   9.186
  705POPC   GL213382  28.249  17.760   9.091
  705POPC   C1A13383  28.469  17.340   8.852
  705POPC   D2A13384  28.758  17.511   8.528
  705POPC   C3A13385  28.675  17.273   8.162
  705POPC   C4A13386  28.329  17.242   7.841
  705POPC   C1B13387  28.063  17.626   8.734
  705POPC   C2B13388  28.238  17.405   8.402
  705POPC   C3B13389  28.335  17.665   8.098
  705POPC   C4B13390  28.080  17.742   7.767
  706POPC   NC313391  35.812   3.924   9.468
  706POPC   PO413392  36.225   3.444   9.545
  706POPC   GL113393  36.333   3.516   9.130
  706POPC   GL213394  35.998   3.632   9.045
  706POPC   C1A13395  36.262   3.295   8.730
  706POPC   D2A13396  36.149   3.498   8.301
  706POPC   C3A13397  36.230   3.352   7.865
  706POPC   C4A13398  35.900   3.302   7.508
  706POPC   C1B13399  36.290   3.805   8.702
  706POPC   C2B13400  36.235   4.045   8.320
  706POPC   C3B13401  36.157   3.934   7.929
  706POPC   C4B13402  36.443   3.798   7.638
  707POPC   NC313403   6.105  12.479   9.502
  707POPC   PO413404   6.161  13.177   9.465
  707POPC   GL113405   5.841  12.912   9.220
  707POPC   GL213406   5.995  12.650   9.022
  707POPC   C1A13407   5.510  12.776   8.872
  707POPC   D2A13408   5.412  12.553   8.450
  707POPC   C3A13409   5.526  12.742   8.047
  707POPC   C4A13410   5.681  12.541   7.671
  707POPC   C1B13411   5.940  13.016   8.725
  707POPC   C2B13412   5.805  13.122   8.292
  707POPC   C3B13413   5.966  13.192   7.853
  707POPC   C4B13414   6.018  12.920   7.476
  708POPC   NC313415  24.450  16.877   9.665
  708POPC   PO413416  24.589  16.269   9.491
  708POPC   GL113417  24.409  16.606   9.240
  708POPC   GL213418  24.153  16.504   9.075
  708POPC   C1A13419  24.508  16.935   8.944
  708POPC   D2A13420  24.688  16.887   8.528
  708POPC   C3A13421  24.452  16.943   8.173
  708POPC   C4A13422  24.432  16.706   7.818
  708POPC   C1B13423  24.468  16.468   8.723
  708POPC   C2B13424  24.435  16.434   8.271
  708POPC   C3B13425  24.629  16.256   7.880
  708POPC   C4B13426  24.510  16.407   7.408
  709POPC   NC313427  35.595  14.714   9.585
  709POPC   PO413428  36.197  14.325   9.639
  709POPC   GL113429  36.268  14.169   9.239
  709POPC   GL213430  36.146  14.469   9.072
  709POPC   C1A13431  36.369  14.005   8.848
  709POPC   D2A13432  36.225  14.325   8.591
  709POPC   C3A13433  36.286  14.340   8.183
  709POPC   C4A13434  36.157  14.269   7.797
  709POPC   C1B13435  36.278  14.813   8.741
  709POPC   C2B13436  36.291  14.867   8.273
  709POPC   C3B13437  36.088  14.777   7.852
  709POPC   C4B13438  35.808  14.760   7.464
  710POPC   NC313439   2.479  17.279   9.539
  710POPC   PO413440   1.914  17.644   9.462
  710POPC   GL113441   1.924  17.254   9.169
  710POPC   GL213442   2.270  17.104   9.115
  710POPC   C1A13443   1.879  17.362   8.737
  710POPC   D2A13444   1.838  17.790   8.576
  710POPC   C3A13445   1.792  17.753   8.133
  710POPC   C4A13446   2.096  17.833   7.825
  710POPC   C1B13447   2.385  17.271   8.715
  710POPC   C2B13448   2.256  17.523   8.325
  710POPC   C3B13449   2.068  17.339   7.936
  710POPC   C4B13450   2.249  17.164   7.548
  711POPC   NC313451  18.918  37.795   9.517
  711POPC   PO413452  19.303  37.230   9.520
  711POPC   GL113453  19.172  37.489   9.203
  711POPC   GL213454  18.790  37.454   9.159
  711POPC   C1A13455  19.285  37.692   8.830
  711POPC   D2A13456  19.057  37.917   8.538
  711POPC   C3A13457  19.126  37.895   8.103
  711POPC   C4A13458  18.961  37.714   7.748
  711POPC   C1B13459  18.690  37.863   8.903
  711POPC   C2B13460  18.562  38.070   8.489
  711POPC   C3B13461  18.618  38.083   8.025
  711POPC   C4B13462  18.546  37.996   7.577
  712POPC   NC313463  34.940  30.865   9.494
  712POPC   PO413464  34.441  30.381   9.458
  712POPC   GL113465  34.572  30.701   9.167
  712POPC   GL213466  34.327  30.567   8.966
  712POPC   C1A13467  34.812  30.764   8.772
  712POPC   D2A13468  34.974  30.874   8.332
  712POPC   C3A13469  34.777  30.733   7.950
  712POPC   C4A13470  34.542  30.437   7.691
  712POPC   C1B13471  34.329  30.973   8.778
  712POPC   C2B13472  34.467  30.879   8.387
  712POPC   C3B13473  34.283  30.673   8.063
  712POPC   C4B13474  34.163  30.959   7.809
  713POPC   NC313475  22.303  36.857   9.590
  713POPC   PO413476  21.722  37.144   9.604
  713POPC   GL113477  21.790  36.833   9.232
  713POPC   GL213478  22.126  36.745   9.136
  713POPC   C1A13479  21.791  36.856   8.754
  713POPC   D2A13480  21.535  37.105   8.433
  713POPC   C3A13481  21.763  37.272   8.034
  713POPC   C4A13482  21.866  37.063   7.655
  713POPC   C1B13483  22.336  36.903   8.779
  713POPC   C2B13484  22.301  36.704   8.366
  713POPC   C3B13485  22.177  36.750   7.938
  713POPC   C4B13486  22.376  37.046   7.617
  714POPC   NC313487   9.713  37.072   9.841
  714POPC   PO413488   9.458  36.489   9.698
  714POPC   GL113489   9.510  36.818   9.360
  714POPC   GL213490   9.850  36.765   9.272
  714POPC   C1A13491   9.595  36.919   8.877
  714POPC   D2A13492   9.660  37.136   8.478
  714POPC   C3A13493   9.652  36.926   8.071
  714POPC   C4A13494   9.651  36.971   7.629
  714POPC   C1B13495   9.907  36.521   8.847
  714POPC   C2B13496   9.786  36.581   8.441
  714POPC   C3B13497   9.893  36.461   8.017
  714POPC   C4B13498   9.956  36.571   7.600
  715POPC   NC313499   0.092  31.059   9.471
  715POPC   PO413500   0.615  30.685   9.557
  715POPC   GL113501   0.453  30.840   9.169
  715POPC   GL213502   0.137  30.656   9.144
  715POPC   C1A13503   0.638  31.002   8.768
  715POPC   D2A13504   0.850  30.825   8.425
  715POPC   C3A13505   0.720  30.950   8.031
  715POPC   C4A13506   0.753  30.697   7.674
  715POPC   C1B13507   0.143  30.887   8.751
  715POPC   C2B13508   0.320  30.748   8.357
  715POPC   C3B13509   0.271  30.723   7.919
  715POPC   C4B13510  44.980  30.910   7.664
  716POPC   NC313511   2.362  21.388   9.450
  716POPC   PO413512   1.686  21.214   9.606
  716POPC   GL113513   1.922  21.194   9.212
  716POPC   GL213514   1.950  21.562   9.136
  716POPC   C1A13515   2.218  21.220   8.838
  716POPC   D2A13516   2.168  21.489   8.486
  716POPC   C3A13517   2.304  21.335   8.093
  716POPC   C4A13518   2.058  21.129   7.772
  716POPC   C1B13519   1.863  21.867   8.794
  716POPC   C2B13520   1.745  21.836   8.376
  716POPC   C3B13521   1.823  21.578   8.050
  716POPC   C4B13522   1.723  21.674   7.657
  717POPC   NC313523  27.213   1.958   9.262
  717POPC   PO413524  27.860   2.158   9.451
  717POPC   GL113525  27.679   2.063   9.114
  717POPC   GL213526  27.432   2.373   9.074
  717POPC   C1A13527  27.777   1.780   8.764
  717POPC   D2A13528  27.664   1.571   8.386
  717POPC   C3A13529  27.829   1.795   8.062
  717POPC   C4A13530  27.756   2.064   7.753
  717POPC   C1B13531  27.524   2.201   8.661
  717POPC   C2B13532  27.694   2.256   8.271
  717POPC   C3B13533  27.414   2.385   7.935
  717POPC   C4B13534  27.382   2.358   7.490
  718POPC   NC313535  27.418  44.522   9.549
  718POPC   PO413536  27.773   0.051   9.546
  718POPC   GL113537  27.695  44.846   9.146
  718POPC   GL213538  27.722  44.484   9.123
  718POPC   C1A13539  27.875  44.761   8.737
  718POPC   D2A13540  27.709  44.915   8.373
  718POPC   C3A13541  27.739  44.754   8.025
  718POPC   C4A13542  27.730   0.009   7.653
  718POPC   C1B13543  27.487  44.404   8.730
  718POPC   C2B13544  27.379  44.491   8.313
  718POPC   C3B13545  27.403  44.319   7.930
  718POPC   C4B13546  27.608  44.521   7.605
  719POPC   NC313547   5.468  44.508   9.477
  719POPC   PO413548   6.030  44.310   9.816
  719POPC   GL113549   6.014  44.574   9.341
  719POPC   GL213550   5.714  44.609   9.075
  719POPC   C1A13551   6.146  44.620   8.866
  719POPC   D2A13552   5.861  44.487   8.546
  719POPC   C3A13553   5.915  44.631   8.120
  719POPC   C4A13554   5.892  44.452   7.722
  719POPC   C1B13555   5.536  44.946   8.811
  719POPC   C2B13556   5.477   0.159   8.435
  719POPC   C3B13557   5.568   0.011   8.048
  719POPC   C4B13558   5.522  44.799   7.687
  720POPC   NC313559  19.679  20.787   9.522
  720POPC   PO413560  19.965  21.445   9.557
  720POPC   GL113561  19.807  21.517   9.134
  720POPC   GL213562  19.613  21.199   9.110
  720POPC   C1A13563  19.856  21.447   8.678
  720POPC   D2A13564  19.857  21.191   8.303
  720POPC   C3A13565  19.756  21.492   8.006
  720POPC   C4A13566  19.569  21.510   7.663
  720POPC   C1B13567  19.444  21.146   8.700
  720POPC   C2B13568  19.352  21.303   8.294
  720POPC   C3B13569  19.458  21.087   7.955
  720POPC   C4B13570  19.827  21.067   7.690
  721POPC   NC313571  35.947  13.117   9.448
  721POPC   PO413572  36.239  12.503   9.355
  721POPC   GL113573  35.876  12.714   9.140
  721POPC   GL213574  35.739  12.498   8.890
  721POPC   C1A13575  35.842  13.040   8.808
  721POPC   D2A13576  36.089  13.070   8.427
  721POPC   C3A13577  36.030  12.857   8.053
  721POPC   C4A13578  36.004  13.079   7.657
  721POPC   C1B13579  36.140  12.633   8.711
  721POPC   C2B13580  36.436  12.513   8.430
  721POPC   C3B13581  36.553  12.628   8.028
  721POPC   C4B13582  36.351  12.710   7.659
  722POPC   NC313583  43.186  39.488   9.253
  722POPC   PO413584  42.993  38.840   9.459
  722POPC   GL113585  43.082  38.917   9.051
  722POPC   GL213586  42.762  38.992   8.955
  722POPC   C1A13587  43.380  38.979   8.704
  722POPC   D2A13588  43.506  39.313   8.391
  722POPC   C3A13589  43.431  39.222   7.937
  722POPC   C4A13590  43.090  38.975   7.726
  722POPC   C1B13591  42.931  39.260   8.627
  722POPC   C2B13592  42.952  39.256   8.171
  722POPC   C3B13593  42.770  39.397   7.770
  722POPC   C4B13594  42.793  39.295   7.293
  723POPC   NC313595  30.605  39.751   9.610
  723POPC   PO413596  30.657  40.369   9.521
  723POPC   GL113597  30.630  40.059   9.144
  723POPC   GL213598  30.932  39.940   8.975
  723POPC   C1A13599  30.517  39.940   8.685
  723POPC   D2A13600  30.285  39.953   8.270
  723POPC   C3A13601  30.406  40.127   7.847
  723POPC   C4A13602  30.739  40.262   7.538
  723POPC   C1B13603  30.993  39.668   8.653
  723POPC   C2B13604  30.778  39.708   8.278
  723POPC   C3B13605  30.814  39.828   7.854
  723POPC   C4B13606  30.712  39.752   7.421
  724POPC   NC313607  20.784  38.174   9.279
  724POPC   PO413608  20.210  38.480   9.401
  724POPC   GL113609  20.577  38.592   9.077
  724POPC   GL213610  20.849  38.869   9.085
  724POPC   C1A13611  20.641  38.637   8.627
  724POPC   D2A13612  20.555  38.799   8.198
  724POPC   C3A13613  20.440  38.507   7.868
  724POPC   C4A13614  20.639  38.117   7.690
  724POPC   C1B13615  21.084  38.963   8.710
  724POPC   C2B13616  21.072  38.742   8.352
  724POPC   C3B13617  20.873  38.419   8.122
  724POPC   C4B13618  20.930  38.542   7.693
  725POPC   NC313619   4.101  13.352   9.554
  725POPC   PO413620   4.555  13.829   9.507
  725POPC   GL113621   4.301  13.681   9.197
  725POPC   GL213622   4.405  13.345   9.133
  725POPC   C1A13623   4.354  13.797   8.790
  725POPC   D2A13624   4.487  13.652   8.384
  725POPC   C3A13625   4.274  13.680   8.028
  725POPC   C4A13626   4.436  13.677   7.606
  725POPC   C1B13627   4.218  13.308   8.688
  725POPC   C2B13628   3.860  13.421   8.374
  725POPC   C3B13629   3.867  13.377   7.944
  725POPC   C4B13630   4.279  13.212   7.831
  726POPC   NC313631  33.426  30.914   9.624
  726POPC   PO413632  32.762  30.851   9.436
  726POPC   GL113633  32.945  30.646   9.112
  726POPC   GL213634  33.254  30.587   9.262
  726POPC   C1A13635  32.863  30.756   8.697
  726POPC   D2A13636  32.610  30.725   8.348
  726POPC   C3A13637  32.901  30.869   8.058
  726POPC   C4A13638  32.864  30.576   7.754
  726POPC   C1B13639  33.380  30.586   8.822
  726POPC   C2B13640  33.249  30.536   8.394
  726POPC   C3B13641  33.304  30.396   7.965
  726POPC   C4B13642  33.323  30.797   7.751
  727POPC   NC313643   3.646   5.547   9.649
  727POPC   PO413644   3.343   6.135   9.539
  727POPC   GL113645   3.469   5.840   9.203
  727POPC   GL213646   3.828   5.772   9.242
  727POPC   C1A13647   3.554   5.865   8.738
  727POPC   D2A13648   3.576   5.905   8.299
  727POPC   C3A13649   3.320   6.093   7.991
  727POPC   C4A13650   3.383   6.046   7.573
  727POPC   C1B13651   3.960   5.576   8.880
  727POPC   C2B13652   4.008   5.651   8.431
  727POPC   C3B13653   3.858   5.586   7.988
  727POPC   C4B13654   3.615   5.574   7.618
  728POPC   NC313655  15.207  18.106   9.505
  728POPC   PO413656  15.534  18.728   9.580
  728POPC   GL113657  15.305  18.519   9.220
  728POPC   GL213658  15.349  18.183   9.030
  728POPC   C1A13659  15.083  18.543   8.830
  728POPC   D2A13660  15.080  18.310   8.436
  728POPC   C3A13661  14.972  18.437   8.032
  728POPC   C4A13662  15.099  18.312   7.595
  728POPC   C1B13663  14.981  17.979   8.810
  728POPC   C2B13664  14.948  17.816   8.376
  728POPC   C3B13665  15.119  17.931   7.963
  728POPC   C4B13666  14.930  17.827   7.570
  729POPC   NC313667  24.975   3.038   9.339
  729POPC   PO413668  25.317   2.575   9.705
  729POPC   GL113669  25.277   2.634   9.226
  729POPC   GL213670  25.427   2.943   9.081
  729POPC   C1A13671  25.109   2.658   8.781
  729POPC   D2A13672  25.007   2.515   8.353
  729POPC   C3A13673  25.216   2.713   8.017
  729POPC   C4A13674  25.282   2.565   7.607
  729POPC   C1B13675  25.491   2.989   8.621
  729POPC   C2B13676  25.589   3.037   8.184
  729POPC   C3B13677  25.457   3.097   7.768
  729POPC   C4B13678  25.528   3.487   7.519
  730POPC   NC313679  23.180  12.418   9.445
  730POPC   PO413680  22.727  12.937   9.351
  730POPC   GL113681  23.075  12.824   9.075
  730POPC   GL213682  23.021  12.447   8.963
  730POPC   C1A13683  23.144  13.104   8.678
  730POPC   D2A13684  22.872  13.209   8.328
  730POPC   C3A13685  22.954  12.980   7.937
  730POPC   C4A13686  22.624  12.947   7.664
  730POPC   C1B13687  22.738  12.729   8.706
  730POPC   C2B13688  22.616  12.774   8.285
  730POPC   C3B13689  22.760  12.493   7.980
  730POPC   C4B13690  22.952  12.517   7.608
  731POPC   NC313691  31.788  40.062   9.503
  731POPC   PO413692  32.532  40.001   9.562
  731POPC   GL113693  32.269  40.128   9.216
  731POPC   GL213694  31.973  39.989   9.024
  731POPC   C1A13695  32.394  40.158   8.799
  731POPC   D2A13696  32.336  39.905   8.443
  731POPC   C3A13697  32.516  39.989   8.053
  731POPC   C4A13698  32.433  40.185   7.641
  731POPC   C1B13699  31.843  39.904   8.622
  731POPC   C2B13700  31.811  39.988   8.192
  731POPC   C3B13701  32.053  39.933   7.865
  731POPC   C4B13702  32.052  39.914   7.428
  732POPC   NC313703  17.609  36.615   9.594
  732POPC   PO413704  17.388  37.263   9.626
  732POPC   GL113705  17.677  37.072   9.258
  732POPC   GL213706  17.549  36.775   9.106
  732POPC   C1A13707  17.886  37.039   8.792
  732POPC   D2A13708  17.684  36.949   8.354
  732POPC   C3A13709  17.790  36.795   7.905
  732POPC   C4A13710  17.627  36.511   7.555
  732POPC   C1B13711  17.366  37.041   8.775
  732POPC   C2B13712  17.177  37.027   8.358
  732POPC   C3B13713  17.403  37.191   7.994
  732POPC   C4B13714  17.274  37.422   7.672
  733POPC   NC313715  33.079  27.984  10.004
  733POPC   PO413716  32.736  28.237   9.426
  733POPC   GL113717  32.919  28.325   9.047
  733POPC   GL213718  33.039  28.694   9.031
  733POPC   C1A13719  32.828  28.277   8.613
  733POPC   D2A13720  32.606  28.548   8.327
  733POPC   C3A13721  32.764  28.521   7.908
  733POPC   C4A13722  32.810  28.621   7.472
  733POPC   C1B13723  32.994  28.770   8.607
  733POPC   C2B13724  33.150  28.554   8.248
  733POPC   C3B13725  33.338  28.556   7.832
  733POPC   C4B13726  33.257  28.289   7.472
  734POPC   NC313727  38.699  24.963   9.445
  734POPC   PO413728  38.358  25.479   9.381
  734POPC   GL113729  38.435  25.259   9.066
  734POPC   GL213730  38.094  25.177   9.016
  734POPC   C1A13731  38.463  25.315   8.641
  734POPC   D2A13732  38.240  25.234   8.285
  734POPC   C3A13733  38.466  25.465   7.998
  734POPC   C4A13734  38.424  25.420   7.600
  734POPC   C1B13735  38.288  24.844   8.753
  734POPC   C2B13736  38.411  24.745   8.312
  734POPC   C3B13737  38.534  24.955   7.896
  734POPC   C4B13738  38.686  25.001   7.421
  735POPC   NC313739   6.807  41.786   9.521
  735POPC   PO413740   6.292  41.363   9.645
  735POPC   GL113741   6.519  41.491   9.219
  735POPC   GL213742   6.898  41.600   9.063
  735POPC   C1A13743   6.475  41.583   8.790
  735POPC   D2A13744   6.694  41.456   8.407
  735POPC   C3A13745   6.500  41.545   8.015
  735POPC   C4A13746   6.412  41.508   7.571
  735POPC   C1B13747   6.873  41.876   8.664
  735POPC   C2B13748   6.971  41.880   8.205
  735POPC   C3B13749   6.915  41.725   7.803
  735POPC   C4B13750   6.731  41.936   7.451
  736POPC   NC313751  13.171   5.070   9.491
  736POPC   PO413752  13.782   5.092   9.630
  736POPC   GL113753  13.772   4.943   9.219
  736POPC   GL213754  14.079   4.793   9.179
  736POPC   C1A13755  13.558   4.935   8.826
  736POPC   D2A13756  13.348   5.212   8.549
  736POPC   C3A13757  13.463   5.132   8.115
  736POPC   C4A13758  13.512   4.997   7.687
  736POPC   C1B13759  14.052   5.017   8.772
  736POPC   C2B13760  13.821   4.882   8.399
  736POPC   C3B13761  13.705   4.601   8.090
  736POPC   C4B13762  13.929   4.675   7.720
  737POPC   NC313763  41.281  26.355   9.462
  737POPC   PO413764  41.787  26.718   9.612
  737POPC   GL113765  41.762  26.277   9.292
  737POPC   GL213766  41.775  25.915   9.311
  737POPC   C1A13767  41.540  26.115   8.876
  737POPC   D2A13768  41.244  25.979   8.516
  737POPC   C3A13769  41.419  26.014   8.094
  737POPC   C4A13770  41.695  26.249   7.841
  737POPC   C1B13771  41.830  25.699   8.899
  737POPC   C2B13772  41.722  25.753   8.473
  737POPC   C3B13773  41.896  25.837   8.091
  737POPC   C4B13774  41.821  25.708   7.706
  738POPC   NC313775  22.390   6.876   9.934
  738POPC   PO413776  22.580   6.638   9.373
  738POPC   GL113777  22.733   6.708   8.949
  738POPC   GL213778  22.429   6.899   8.920
  738POPC   C1A13779  23.099   6.787   8.658
  738POPC   D2A13780  23.281   6.937   8.253
  738POPC   C3A13781  23.038   6.773   7.905
  738POPC   C4A13782  22.626   6.956   7.818
  738POPC   C1B13783  22.668   7.113   8.626
  738POPC   C2B13784  22.735   6.832   8.301
  738POPC   C3B13785  22.600   6.473   8.017
  738POPC   C4B13786  22.410   6.444   7.587
  739POPC   NC313787  28.088  33.259   9.417
  739POPC   PO413788  27.434  33.360   9.458
  739POPC   GL113789  27.658  33.261   9.119
  739POPC   GL213790  27.486  32.937   9.027
  739POPC   C1A13791  27.857  33.137   8.738
  739POPC   D2A13792  27.773  32.957   8.332
  739POPC   C3A13793  27.866  33.207   7.936
  739POPC   C4A13794  27.849  32.949   7.557
  739POPC   C1B13795  27.333  33.237   8.727
  739POPC   C2B13796  27.221  33.118   8.304
  739POPC   C3B13797  27.434  32.944   7.954
  739POPC   C4B13798  27.362  32.805   7.562
  740POPC   NC313799  33.233  33.415   9.396
  740POPC   PO413800  32.978  34.070   9.460
  740POPC   GL113801  32.928  33.957   9.056
  740POPC   GL213802  33.242  33.792   9.040
  740POPC   C1A13803  33.015  33.878   8.595
  740POPC   D2A13804  32.819  33.676   8.248
  740POPC   C3A13805  32.958  33.896   7.863
  740POPC   C4A13806  32.902  33.792   7.418
  740POPC   C1B13807  33.250  33.456   8.701
  740POPC   C2B13808  33.333  33.531   8.202
  740POPC   C3B13809  33.260  33.528   7.718
  740POPC   C4B13810  33.385  33.702   7.277
  741POPC   NC313811  21.355   8.641   9.578
  741POPC   PO413812  21.705   8.041   9.487
  741POPC   GL113813  21.686   8.329   9.156
  741POPC   GL213814  21.345   8.328   9.176
  741POPC   C1A13815  21.591   8.205   8.751
  741POPC   D2A13816  21.265   7.998   8.511
  741POPC   C3A13817  21.355   7.947   8.081
  741POPC   C4A13818  21.382   8.152   7.688
  741POPC   C1B13819  21.119   8.439   8.834
  741POPC   C2B13820  21.262   8.516   8.452
  741POPC   C3B13821  21.070   8.417   8.095
  741POPC   C4B13822  21.134   8.575   7.716
  742POPC   NC313823   8.402   5.171   9.378
  742POPC   PO413824   7.747   5.199   9.523
  742POPC   GL113825   7.936   4.931   9.100
  742POPC   GL213826   8.278   4.760   9.097
  742POPC   C1A13827   8.044   4.899   8.637
  742POPC   D2A13828   7.999   5.226   8.293
  742POPC   C3A13829   8.010   5.190   7.847
  742POPC   C4A13830   8.088   4.751   7.676
  742POPC   C1B13831   8.572   4.885   8.776
  742POPC   C2B13832   8.480   5.006   8.385
  742POPC   C3B13833   8.452   4.967   7.980
  742POPC   C4B13834   8.435   5.145   7.566
  743POPC   NC313835  25.645   7.331   9.555
  743POPC   PO413836  25.042   7.633   9.498
  743POPC   GL113837  25.326   7.482   9.180
  743POPC   GL213838  25.520   7.802   9.177
  743POPC   C1A13839  25.208   7.249   8.792
  743POPC   D2A13840  24.986   7.430   8.427
  743POPC   C3A13841  25.084   7.211   8.011
  743POPC   C4A13842  25.345   7.191   7.617
  743POPC   C1B13843  25.490   7.703   8.745
  743POPC   C2B13844  25.311   7.831   8.352
  743POPC   C3B13845  25.209   7.686   7.957
  743POPC   C4B13846  25.437   7.694   7.566
  744POPC   NC313847   8.416  36.864   9.358
  744POPC   PO413848   8.004  37.199   9.743
  744POPC   GL113849   7.921  36.997   9.264
  744POPC   GL213850   7.988  36.620   9.199
  744POPC   C1A13851   8.001  37.011   8.821
  744POPC   D2A13852   7.872  37.150   8.436
  744POPC   C3A13853   8.128  37.152   8.106
  744POPC   C4A13854   8.233  37.015   7.703
  744POPC   C1B13855   8.253  36.560   8.811
  744POPC   C2B13856   8.350  36.844   8.465
  744POPC   C3B13857   8.488  36.751   8.080
  744POPC   C4B13858   8.440  36.564   7.692
  745POPC   NC313859  29.686  18.476   9.546
  745POPC   PO413860  30.169  18.090   9.495
  745POPC   GL113861  30.004  17.999   9.048
  745POPC   GL213862  29.658  17.997   9.139
  745POPC   C1A13863  29.983  18.024   8.575
  745POPC   D2A13864  29.657  17.939   8.242
  745POPC   C3A13865  29.758  17.999   7.797
  745POPC   C4A13866  30.174  18.222   7.730
  745POPC   C1B13867  29.712  18.389   8.885
  745POPC   C2B13868  29.666  18.422   8.434
  745POPC   C3B13869  29.583  18.441   7.973
  745POPC   C4B13870  29.722  18.429   7.514
  746POPC   NC313871  19.023  38.711   9.443
  746POPC   PO413872  19.315  38.034   9.414
  746POPC   GL113873  19.012  38.258   9.173
  746POPC   GL213874  19.260  38.513   9.063
  746POPC   C1A13875  18.855  38.380   8.764
  746POPC   D2A13876  18.954  38.363   8.323
  746POPC   C3A13877  18.860  38.556   7.931
  746POPC   C4A13878  19.000  38.216   7.647
  746POPC   C1B13879  19.317  38.549   8.662
  746POPC   C2B13880  19.441  38.230   8.382
  746POPC   C3B13881  19.347  38.353   8.002
  746POPC   C4B13882  19.316  38.653   7.686
  747POPC   NC313883  29.234  21.195   9.571
  747POPC   PO413884  28.715  21.616   9.433
  747POPC   GL113885  28.913  21.566   9.069
  747POPC   GL213886  28.935  21.226   9.133
  747POPC   C1A13887  29.029  21.660   8.632
  747POPC   D2A13888  29.283  21.433   8.344
  747POPC   C3A13889  29.297  21.574   7.963
  747POPC   C4A13890  29.002  21.524   7.736
  747POPC   C1B13891  29.120  21.134   8.748
  747POPC   C2B13892  29.115  20.936   8.356
  747POPC   C3B13893  29.229  21.063   7.982
  747POPC   C4B13894  28.911  21.019   7.760
  748POPC   NC313895  28.589  28.866   9.396
  748POPC   PO413896  28.296  28.345   9.659
  748POPC   GL113897  28.368  28.379   9.224
  748POPC   GL213898  28.168  28.647   9.222
  748POPC   C1A13899  28.599  28.362   8.820
  748POPC   D2A13900  28.672  28.073   8.454
  748POPC   C3A13901  28.498  28.165   8.024
  748POPC   C4A13902  28.696  28.472   7.718
  748POPC   C1B13903  28.247  28.731   8.783
  748POPC   C2B13904  28.303  28.493   8.387
  748POPC   C3B13905  28.236  28.608   7.943
  748POPC   C4B13906  28.238  28.411   7.549
  749POPC   NC313907  42.247   3.168   9.653
  749POPC   PO413908  42.278   3.835   9.623
  749POPC   GL113909  42.367   3.664   9.218
  749POPC   GL213910  42.676   3.547   9.322
  749POPC   C1A13911  42.196   3.639   8.750
  749POPC   D2A13912  42.132   3.520   8.277
  749POPC   C3A13913  42.333   3.767   7.918
  749POPC   C4A13914  42.369   3.786   7.461
  749POPC   C1B13915  42.612   3.378   8.905
  749POPC   C2B13916  42.622   3.435   8.465
  749POPC   C3B13917  42.553   3.331   8.025
  749POPC   C4B13918  42.757   3.531   7.684
  750POPC   NC313919   2.149   1.693   9.403
  750POPC   PO413920   1.835   2.302   9.446
  750POPC   GL113921   1.906   2.037   9.075
  750POPC   GL213922   2.236   1.853   8.930
  750POPC   C1A13923   1.880   2.018   8.635
  750POPC   D2A13924   1.735   1.701   8.398
  750POPC   C3A13925   1.877   1.936   8.076
  750POPC   C4A13926   1.829   1.930   7.650
  750POPC   C1B13927   2.356   2.216   8.661
  750POPC   C2B13928   2.285   2.419   8.286
  750POPC   C3B13929   2.244   2.253   7.898
  750POPC   C4B13930   2.306   1.823   7.818
  751POPC   NC313931   0.273  21.613   9.497
  751POPC   PO413932   0.748  21.269   9.770
  751POPC   GL113933   0.626  21.265   9.279
  751POPC   GL213934   0.667  21.555   9.105
  751POPC   C1A13935   0.419  21.177   8.835
  751POPC   D2A13936   0.166  21.111   8.453
  751POPC   C3A13937   0.374  21.358   8.137
  751POPC   C4A13938   0.542  21.262   7.709
  751POPC   C1B13939   0.572  21.634   8.660
  751POPC   C2B13940   0.761  21.673   8.223
  751POPC   C3B13941   0.584  21.752   7.797
  751POPC   C4B13942   0.508  21.759   7.339
  752POPC   NC313943  33.511   7.474   9.528
  752POPC   PO413944  32.990   7.282   9.580
  752POPC   GL113945  33.096   7.482   9.197
  752POPC   GL213946  33.025   7.194   9.044
  752POPC   C1A13947  33.014   7.621   8.746
  752POPC   D2A13948  32.990   7.434   8.312
  752POPC   C3A13949  32.858   7.656   7.909
  752POPC   C4A13950  33.161   7.792   7.577
  752POPC   C1B13951  33.239   7.126   8.645
  752POPC   C2B13952  33.079   6.951   8.223
  752POPC   C3B13953  32.906   7.164   7.857
  752POPC   C4B13954  33.050   7.302   7.449
  753POPC   NC313955   2.511  10.207   9.453
  753POPC   PO413956   1.803  10.152   9.435
  753POPC   GL113957   1.923  10.529   9.199
  753POPC   GL213958   2.282  10.533   9.126
  753POPC   C1A13959   1.806  10.754   8.805
  753POPC   D2A13960   1.857  10.524   8.411
  753POPC   C3A13961   1.667  10.567   8.031
  753POPC   C4A13962   1.779  10.549   7.621
  753POPC   C1B13963   2.138  10.301   8.773
  753POPC   C2B13964   2.136  10.115   8.340
  753POPC   C3B13965   2.008  10.206   7.929
  753POPC   C4B13966   2.115  10.126   7.486
  754POPC   NC313967  39.134   2.578   9.546
  754POPC   PO413968  39.454   3.123   9.552
  754POPC   GL113969  39.343   2.923   9.184
  754POPC   GL213970  39.554   2.619   9.224
  754POPC   C1A13971  39.337   2.807   8.748
  754POPC   D2A13972  39.518   2.877   8.345
  754POPC   C3A13973  39.277   2.967   7.989
  754POPC   C4A13974  39.019   2.679   7.822
  754POPC   C1B13975  39.543   2.352   8.855
  754POPC   C2B13976  39.401   2.365   8.405
  754POPC   C3B13977  39.524   2.472   7.977
  754POPC   C4B13978  39.318   2.348   7.590
  755POPC   NC313979  36.995  42.423   9.586
  755POPC   PO413980  36.925  41.861   9.226
  755POPC   GL113981  37.062  42.296   9.097
  755POPC   GL213982  36.771  42.480   9.136
  755POPC   C1A13983  37.102  42.522   8.706
  755POPC   D2A13984  36.977  42.306   8.320
  755POPC   C3A13985  37.214  42.387   7.929
  755POPC   C4A13986  37.241  42.196   7.499
  755POPC   C1B13987  36.565  42.504   8.765
  755POPC   C2B13988  36.612  42.668   8.364
  755POPC   C3B13989  36.758  42.600   7.967
  755POPC   C4B13990  36.885  42.562   7.556
  756POPC   NC313991  30.225  40.639   9.554
  756POPC   PO413992  29.660  40.438   9.552
  756POPC   GL113993  29.918  40.623   9.156
  756POPC   GL213994  30.091  40.968   9.125
  756POPC   C1A13995  30.323  40.580   8.899
  756POPC   D2A13996  30.294  40.414   8.509
  756POPC   C3A13997  30.047  40.651   8.244
  756POPC   C4A13998  30.083  40.824   7.869
  756POPC   C1B13999  30.154  41.015   8.640
  756POPC   C2B14000  30.195  41.196   8.191
  756POPC   C3B14001  30.016  41.349   7.754
  756POPC   C4B14002  29.948  41.420   7.284
  757POPC   NC314003  18.268   2.536   9.583
  757POPC   PO414004  18.016   1.870   9.451
  757POPC   GL114005  18.229   1.976   9.110
  757POPC   GL214006  18.483   2.189   9.233
  757POPC   C1A14007  18.040   2.061   8.722
  757POPC   D2A14008  18.024   1.825   8.309
  757POPC   C3A14009  18.126   2.086   7.958
  757POPC   C4A14010  18.298   2.234   7.595
  757POPC   C1B14011  18.428   2.402   8.821
  757POPC   C2B14012  18.324   2.308   8.388
  757POPC   C3B14013  18.483   2.467   8.022
  757POPC   C4B14014  18.740   2.468   7.657
  758POPC   NC314015  22.258  29.540   9.986
  758POPC   PO414016  22.029  30.116   9.553
  758POPC   GL114017  22.101  29.852   9.221
  758POPC   GL214018  22.407  29.779   9.312
  758POPC   C1A14019  21.949  29.647   8.845
  758POPC   D2A14020  22.136  29.746   8.466
  758POPC   C3A14021  21.942  29.652   8.112
  758POPC   C4A14022  22.110  29.871   7.794
  758POPC   C1B14023  22.471  29.693   8.863
  758POPC   C2B14024  22.579  29.504   8.437
  758POPC   C3B14025  22.531  29.664   7.972
  758POPC   C4B14026  22.489  29.634   7.448
  759POPC   NC314027  16.959  29.442   9.570
  759POPC   PO414028  16.549  28.949   9.395
  759POPC   GL114029  16.735  29.259   9.115
  759POPC   GL214030  16.954  29.565   9.084
  759POPC   C1A14031  16.848  29.162   8.714
  759POPC   D2A14032  16.659  28.976   8.345
  759POPC   C3A14033  16.795  29.165   7.988
  759POPC   C4A14034  16.663  29.274   7.579
  759POPC   C1B14035  17.251  29.491   8.747
  759POPC   C2B14036  17.280  29.603   8.317
  759POPC   C3B14037  17.044  29.625   7.941
  759POPC   C4B14038  16.897  29.707   7.511
  760POPC   NC314039  36.387  20.774   9.358
  760POPC   PO414040  36.040  20.195   9.446
  760POPC   GL114041  36.212  20.393   9.050
  760POPC   GL214042  36.535  20.577   8.916
  760POPC   C1A14043  36.157  20.386   8.613
  760POPC   D2A14044  36.401  20.529   8.281
  760POPC   C3A14045  36.160  20.493   7.939
  760POPC   C4A14046  36.206  20.169   7.657
  760POPC   C1B14047  36.260  20.876   8.643
  760POPC   C2B14048  36.092  20.950   8.205
  760POPC   C3B14049  36.267  20.971   7.778
  760POPC   C4B14050  36.320  20.641   7.483
  761POPC   NC314051   1.076  26.631   9.522
  761POPC   PO414052   1.529  27.119   9.263
  761POPC   GL114053   1.161  26.895   9.096
  761POPC   GL214054   0.859  27.052   9.006
  761POPC   C1A14055   1.120  26.609   8.791
  761POPC   D2A14056   1.036  26.711   8.373
  761POPC   C3A14057   1.400  26.598   8.134
  761POPC   C4A14058   1.512  26.574   7.705
  761POPC   C1B14059   1.201  27.200   8.679
  761POPC   C2B14060   1.480  27.153   8.298
  761POPC   C3B14061   1.376  27.056   7.877
  761POPC   C4B14062   1.071  26.788   7.767
  762POPC   NC314063  34.357  25.840   9.384
  762POPC   PO414064  33.702  26.104   9.483
  762POPC   GL114065  33.774  26.167   9.083
  762POPC   GL214066  34.095  26.141   9.075
  762POPC   C1A14067  33.839  26.358   8.685
  762POPC   D2A14068  33.551  26.469   8.377
  762POPC   C3A14069  33.812  26.393   8.070
  762POPC   C4A14070  33.785  26.232   7.728
  762POPC   C1B14071  34.089  25.873   8.723
  762POPC   C2B14072  33.825  25.957   8.359
  762POPC   C3B14073  33.789  25.777   7.961
  762POPC   C4B14074  33.892  25.796   7.530
  763POPC   NC314075   1.416   0.092   9.436
  763POPC   PO414076   1.936   0.516   9.501
  763POPC   GL114077   1.822   0.418   9.139
  763POPC   GL214078   1.849   0.096   9.086
  763POPC   C1A14079   1.959   0.487   8.737
  763POPC   D2A14080   1.902   0.727   8.382
  763POPC   C3A14081   2.070   0.503   8.092
  763POPC   C4A14082   1.956   0.376   7.717
  763POPC   C1B14083   2.278   0.101   8.830
  763POPC   C2B14084   2.418   0.340   8.456
  763POPC   C3B14085   2.443   0.161   8.044
  763POPC   C4B14086   2.626   0.123   7.663
  764POPC   NC314087  12.913  18.901   9.554
  764POPC   PO414088  13.192  19.483   9.262
  764POPC   GL114089  12.932  19.187   9.130
  764POPC   GL214090  12.607  19.205   9.260
  764POPC   C1A14091  12.941  18.933   8.782
  764POPC   D2A14092  12.915  19.168   8.413
  764POPC   C3A14093  12.958  18.930   8.072
  764POPC   C4A14094  13.280  19.026   7.753
  764POPC   C1B14095  12.476  19.254   8.847
  764POPC   C2B14096  12.418  19.154   8.427
  764POPC   C3B14097  12.408  18.852   8.098
  764POPC   C4B14098  12.601  18.737   7.722
  765POPC   NC314099  14.640  15.888   9.471
  765POPC   PO414100  14.093  16.116   9.225
  765POPC   GL114101  14.436  16.102   8.999
  765POPC   GL214102  14.418  15.750   9.004
  765POPC   C1A14103  14.479  16.086   8.551
  765POPC   D2A14104  14.347  15.994   8.152
  765POPC   C3A14105  14.619  16.145   7.833
  765POPC   C4A14106  14.649  16.365   7.429
  765POPC   C1B14107  14.342  15.603   8.575
  765POPC   C2B14108  14.488  15.478   8.153
  765POPC   C3B14109  14.429  15.682   7.736
  765POPC   C4B14110  14.317  15.642   7.282
  766POPC   NC314111  14.765  11.482   9.504
  766POPC   PO414112  15.387  11.233   9.446
  766POPC   GL114113  15.072  11.270   9.131
  766POPC   GL214114  14.723  11.302   9.043
  766POPC   C1A14115  15.062  11.086   8.723
  766POPC   D2A14116  15.484  11.066   8.578
  766POPC   C3A14117  15.474  11.025   8.153
  766POPC   C4A14118  15.327  11.281   7.799
  766POPC   C1B14119  14.966  11.576   8.745
  766POPC   C2B14120  15.199  11.457   8.345
  766POPC   C3B14121  14.985  11.595   7.973
  766POPC   C4B14122  14.983  11.798   7.567
  767POPC   NC314123  43.385  25.474   9.433
  767POPC   PO414124  42.748  25.042   9.487
  767POPC   GL114125  42.959  25.257   9.184
  767POPC   GL214126  43.280  25.115   9.075
  767POPC   C1A14127  42.863  25.431   8.808
  767POPC   D2A14128  43.078  25.315   8.444
  767POPC   C3A14129  42.871  25.328   8.069
  767POPC   C4A14130  43.060  25.414   7.668
  767POPC   C1B14131  43.422  24.989   8.684
  767POPC   C2B14132  43.292  24.864   8.263
  767POPC   C3B14133  43.318  25.004   7.826
  767POPC   C4B14134  43.221  25.065   7.341
  768POPC   NC314135  13.739  13.751   9.487
  768POPC   PO414136  13.781  13.158   9.456
  768POPC   GL114137  13.511  13.432   9.163
  768POPC   GL214138  13.302  13.768   9.209
  768POPC   C1A14139  13.610  13.668   8.784
  768POPC   D2A14140  13.858  13.621   8.364
  768POPC   C3A14141  13.774  13.750   7.943
  768POPC   C4A14142  13.688  13.669   7.518
  768POPC   C1B14143  13.121  13.889   8.812
  768POPC   C2B14144  13.346  13.935   8.432
  768POPC   C3B14145  13.276  13.797   8.035
  768POPC   C4B14146  13.293  13.933   7.661
  769POPC   NC314147  15.395  33.968   9.419
  769POPC   PO414148  16.073  33.708   9.509
  769POPC   GL114149  16.016  33.784   9.073
  769POPC   GL214150  16.274  33.998   8.980
  769POPC   C1A14151  15.812  33.808   8.646
  769POPC   D2A14152  15.410  33.741   8.398
  769POPC   C3A14153  15.541  33.827   7.969
  769POPC   C4A14154  15.982  33.977   7.897
  769POPC   C1B14155  16.350  33.643   8.709
  769POPC   C2B14156  16.219  33.698   8.307
  769POPC   C3B14157  16.316  33.597   7.913
  769POPC   C4B14158  16.295  33.725   7.495
  770POPC   NC314159   2.163  34.131   9.547
  770POPC   PO414160   1.923  33.449   9.660
  770POPC   GL114161   2.022  33.685   9.286
  770POPC   GL214162   2.377  33.813   9.234
  770POPC   C1A14163   1.855  33.707   8.893
  770POPC   D2A14164   1.866  33.601   8.467
  770POPC   C3A14165   1.738  33.868   8.152
  770POPC   C4A14166   1.746  33.990   7.728
  770POPC   C1B14167   2.387  33.793   8.807
  770POPC   C2B14168   2.272  33.900   8.383
  770POPC   C3B14169   2.202  33.845   7.922
  770POPC   C4B14170   2.315  33.832   7.485
  771POPC   NC314171  30.030  29.529   9.397
  771POPC   PO414172  30.077  28.848   9.410
  771POPC   GL114173  29.930  29.102   9.070
  771POPC   GL214174  30.214  29.284   9.003
  771POPC   C1A14175  29.936  29.023   8.632
  771POPC   D2A14176  29.895  28.905   8.206
  771POPC   C3A14177  29.849  29.211   7.860
  771POPC   C4A14178  29.504  29.490   7.812
  771POPC   C1B14179  30.349  29.338   8.593
  771POPC   C2B14180  30.400  29.374   8.170
  771POPC   C3B14181  30.375  29.230   7.802
  771POPC   C4B14182  30.141  29.300   7.453
  772POPC   NC314183  16.961  21.936   9.659
  772POPC   PO414184  16.750  22.588   9.647
  772POPC   GL114185  16.750  22.302   9.267
  772POPC   GL214186  16.530  22.020   9.395
  772POPC   C1A14187  16.797  22.301   8.777
  772POPC   D2A14188  16.746  22.562   8.399
  772POPC   C3A14189  16.888  22.463   7.978
  772POPC   C4A14190  16.887  22.671   7.565
  772POPC   C1B14191  16.494  21.945   8.957
  772POPC   C2B14192  16.744  21.785   8.606
  772POPC   C3B14193  16.636  21.721   8.167
  772POPC   C4B14194  16.720  21.971   7.783
  773POPC   NC314195   4.899   2.008   9.674
  773POPC   PO414196   5.448   2.298   9.741
  773POPC   GL114197   5.160   2.035   9.262
  773POPC   GL214198   5.369   1.826   9.077
  773POPC   C1A14199   5.100   2.109   8.785
  773POPC   D2A14200   4.924   1.902   8.431
  773POPC   C3A14201   4.946   2.116   8.032
  773POPC   C4A14202   4.809   1.812   7.725
  773POPC   C1B14203   5.323   1.634   8.756
  773POPC   C2B14204   5.430   1.815   8.431
  773POPC   C3B14205   5.274   1.742   8.063
  773POPC   C4B14206   5.334   1.910   7.715
  774POPC   NC314207   5.049   7.553   9.473
  774POPC   PO414208   4.653   7.101   9.380
  774POPC   GL114209   4.814   7.352   9.028
  774POPC   GL214210   5.178   7.352   9.030
  774POPC   C1A14211   4.817   7.328   8.569
  774POPC   D2A14212   4.947   7.150   8.174
  774POPC   C3A14213   4.973   7.473   7.877
  774POPC   C4A14214   4.886   7.724   7.532
  774POPC   C1B14215   5.204   7.645   8.713
  774POPC   C2B14216   5.228   7.543   8.323
  774POPC   C3B14217   5.466   7.338   8.080
  774POPC   C4B14218   5.397   7.222   7.722
  775POPC   NC314219  19.495  31.609   9.468
  775POPC   PO414220  20.059  31.259   9.175
  775POPC   GL114221  19.649  31.279   9.057
  775POPC   GL214222  19.703  31.631   9.019
  775POPC   C1A14223  19.680  31.291   8.635
  775POPC   D2A14224  20.046  31.474   8.564
  775POPC   C3A14225  20.071  31.492   8.141
  775POPC   C4A14226  19.803  31.585   7.828
  775POPC   C1B14227  19.471  31.749   8.700
  775POPC   C2B14228  19.650  31.755   8.309
  775POPC   C3B14229  19.432  31.897   7.958
  775POPC   C4B14230  19.382  31.680   7.576
  776POPC   NC314231   4.908  25.517   9.496
  776POPC   PO414232   5.345  24.964   9.472
  776POPC   GL114233   5.066  25.125   9.200
  776POPC   GL214234   5.212  25.440   9.109
  776POPC   C1A14235   4.837  25.115   8.851
  776POPC   D2A14236   5.000  25.382   8.574
  776POPC   C3A14237   4.762  25.464   8.241
  776POPC   C4A14238   4.769  25.278   7.847
  776POPC   C1B14239   5.428  25.612   8.794
  776POPC   C2B14240   5.497  25.384   8.442
  776POPC   C3B14241   5.296  25.410   8.031
  776POPC   C4B14242   5.413  25.713   7.717
  777POPC   NC314243  29.745  36.658   9.134
  777POPC   PO414244  29.990  37.084   9.571
  777POPC   GL114245  29.882  37.180   9.150
  777POPC   GL214246  30.154  36.972   9.075
  777POPC   C1A14247  29.948  37.218   8.674
  777POPC   D2A14248  29.729  37.044   8.297
  777POPC   C3A14249  29.860  36.919   7.892
  777POPC   C4A14250  30.104  37.128   7.604
  777POPC   C1B14251  30.222  36.762   8.686
  777POPC   C2B14252  30.224  36.883   8.301
  777POPC   C3B14253  30.441  36.614   8.061
  777POPC   C4B14254  30.285  36.662   7.689
  778POPC   NC314255   3.511  34.826   9.488
  778POPC   PO414256   3.700  34.235   9.292
  778POPC   GL114257   3.787  34.592   9.040
  778POPC   GL214258   3.470  34.729   8.979
  778POPC   C1A14259   3.799  34.515   8.614
  778POPC   D2A14260   3.463  34.316   8.361
  778POPC   C3A14261   3.338  34.616   8.034
  778POPC   C4A14262   3.710  34.752   7.788
  778POPC   C1B14263   3.214  34.401   8.811
  778POPC   C2B14264   2.956  34.364   8.456
  778POPC   C3B14265   3.026  34.190   8.063
  778POPC   C4B14266   3.113  34.309   7.675
  779POPC   NC314267  38.622   7.361   9.559
  779POPC   PO414268  38.561   7.941   9.355
  779POPC   GL114269  38.647   7.531   9.076
  779POPC   GL214270  38.718   7.134   9.124
  779POPC   C1A14271  38.471   7.306   8.704
  779POPC   D2A14272  38.381   7.086   8.301
  779POPC   C3A14273  38.249   7.296   7.887
  779POPC   C4A14274  38.185   7.644   7.533
  779POPC   C1B14275  38.841   6.952   8.712
  779POPC   C2B14276  38.807   6.795   8.269
  779POPC   C3B14277  38.738   7.043   7.889
  779POPC   C4B14278  38.686   7.471   7.656
  780POPC   NC314279   9.927  35.823   9.504
  780POPC   PO414280  10.063  35.143   9.494
  780POPC   GL114281   9.769  35.373   9.237
  780POPC   GL214282   9.464  35.145   9.241
  780POPC   C1A14283   9.856  35.490   8.813
  780POPC   D2A14284   9.778  35.230   8.442
  780POPC   C3A14285   9.916  35.383   8.039
  780POPC   C4A14286  10.062  35.283   7.639
  780POPC   C1B14287   9.388  35.297   8.816
  780POPC   C2B14288   9.258  35.408   8.373
  780POPC   C3B14289   9.413  35.508   7.943
  780POPC   C4B14290   9.581  35.137   7.706
  781POPC   NC314291  27.830  35.634   9.414
  781POPC   PO414292  27.603  35.026   9.482
  781POPC   GL114293  27.788  35.175   9.140
  781POPC   GL214294  27.524  35.406   9.073
  781POPC   C1A14295  27.924  35.417   8.772
  781POPC   D2A14296  27.785  35.555   8.401
  781POPC   C3A14297  27.661  35.316   8.054
  781POPC   C4A14298  27.413  35.581   7.784
  781POPC   C1B14299  27.417  35.115   8.732
  781POPC   C2B14300  27.348  34.970   8.297
  781POPC   C3B14301  27.193  35.127   7.878
  781POPC   C4B14302  27.340  35.127   7.429
  782POPC   NC314303   4.327   0.334   9.537
  782POPC   PO414304   3.855   0.791   9.511
  782POPC   GL114305   4.142   0.691   9.149
  782POPC   GL214306   4.468   0.638   9.141
  782POPC   C1A14307   4.216   0.794   8.726
  782POPC   D2A14308   4.104   0.837   8.297
  782POPC   C3A14309   4.282   0.518   8.037
  782POPC   C4A14310   4.533   0.557   7.639
  782POPC   C1B14311   4.576   0.406   8.785
  782POPC   C2B14312   4.622   0.238   8.396
  782POPC   C3B14313   4.668   0.198   7.977
  782POPC   C4B14314   4.341   0.052   7.729
  783POPC   NC314315  35.609  42.851   9.575
  783POPC   PO414316  35.273  43.327   9.620
  783POPC   GL114317  35.441  43.206   9.235
  783POPC   GL214318  35.658  43.429   9.043
  783POPC   C1A14319  35.623  42.922   8.926
  783POPC   D2A14320  35.605  42.987   8.485
  783POPC   C3A14321  35.391  42.744   8.223
  783POPC   C4A14322  35.460  42.918   7.852
  783POPC   C1B14323  35.313  43.299   8.759
  783POPC   C2B14324  35.054  43.198   8.419
  783POPC   C3B14325  35.018  43.398   8.053
  783POPC   C4B14326  35.262  43.350   7.719
  784POPC   NC314327  44.233  35.858   9.381
  784POPC   PO414328  43.770  36.383   9.478
  784POPC   GL114329  43.751  36.123   9.135
  784POPC   GL214330  43.767  35.748   9.125
  784POPC   C1A14331  43.631  36.058   8.735
  784POPC   D2A14332  43.902  36.131   8.429
  784POPC   C3A14333  43.812  36.247   8.038
  784POPC   C4A14334  43.775  36.410   7.631
  784POPC   C1B14335  43.997  35.690   8.677
  784POPC   C2B14336  44.087  35.719   8.181
  784POPC   C3B14337  44.051  35.915   7.737
  784POPC   C4B14338  43.971  35.693   7.334
  785POPC   NC314339  32.009  24.440   9.465
  785POPC   PO414340  32.577  24.867   9.422
  785POPC   GL114341  32.299  24.684   9.115
  785POPC   GL214342  32.326  24.323   9.088
  785POPC   C1A14343  32.253  24.650   8.685
  785POPC   D2A14344  32.538  24.427   8.445
  785POPC   C3A14345  32.457  24.394   8.025
  785POPC   C4A14346  32.081  24.484   7.810
  785POPC   C1B14347  32.150  24.168   8.712
  785POPC   C2B14348  32.040  24.278   8.310
  785POPC   C3B14349  32.115  24.016   7.958
  785POPC   C4B14350  32.003  23.996   7.534
  786POPC   NC314351  31.037  30.984   9.539
  786POPC   PO414352  30.395  30.665   9.489
  786POPC   GL114353  30.800  30.585   9.294
  786POPC   GL214354  30.587  30.545   9.028
  786POPC   C1A14355  31.035  30.723   8.899
  786POPC   D2A14356  30.857  30.592   8.499
  786POPC   C3A14357  31.103  30.533   8.098
  786POPC   C4A14358  31.148  30.540   7.660
  786POPC   C1B14359  30.339  30.624   8.675
  786POPC   C2B14360  30.412  30.792   8.316
  786POPC   C3B14361  30.734  30.904   8.081
  786POPC   C4B14362  30.677  30.708   7.714
  787POPC   NC314363   0.283  24.211   9.589
  787POPC   PO414364   0.640  24.769   9.563
  787POPC   GL114365   0.531  24.525   9.233
  787POPC   GL214366   0.213  24.552   9.053
  787POPC   C1A14367   0.667  24.488   8.826
  787POPC   D2A14368   0.346  24.384   8.537
  787POPC   C3A14369   0.578  24.264   8.207
  787POPC   C4A14370   0.686  24.494   7.871
  787POPC   C1B14371  44.946  24.632   8.702
  787POPC   C2B14372   0.062  24.767   8.330
  787POPC   C3B14373   0.186  24.534   8.011
  787POPC   C4B14374   0.007  24.425   7.632
  788POPC   NC314375   4.678   6.631   9.365
  788POPC   PO414376   5.169   6.284   9.639
  788POPC   GL114377   5.134   6.450   9.162
  788POPC   GL214378   5.037   6.833   9.063
  788POPC   C1A14379   4.963   6.419   8.724
  788POPC   D2A14380   4.954   6.679   8.364
  788POPC   C3A14381   4.735   6.573   7.975
  788POPC   C4A14382   4.866   6.554   7.555
  788POPC   C1B14383   5.205   7.001   8.667
  788POPC   C2B14384   5.417   6.877   8.280
  788POPC   C3B14385   5.199   6.780   7.896
  788POPC   C4B14386   4.844   7.033   7.671
  789POPC   NC314387  22.656  40.483   9.528
  789POPC   PO414388  22.740  41.114   9.324
  789POPC   GL114389  22.872  40.734   9.138
  789POPC   GL214390  22.933  40.390   9.102
  789POPC   C1A14391  22.870  40.742   8.710
  789POPC   D2A14392  23.165  40.953   8.439
  789POPC   C3A14393  23.077  40.904   8.006
  789POPC   C4A14394  22.812  40.619   7.751
  789POPC   C1B14395  23.197  40.377   8.725
  789POPC   C2B14396  23.048  40.463   8.286
  789POPC   C3B14397  23.284  40.453   7.896
  789POPC   C4B14398  23.205  40.506   7.448
  790POPC   NC314399  14.531  28.989   9.338
  790POPC   PO414400  14.128  29.526   9.534
  790POPC   GL114401  14.198  29.514   9.101
  790POPC   GL214402  14.376  29.225   8.940
  790POPC   C1A14403  13.985  29.437   8.722
  790POPC   D2A14404  13.911  29.588   8.356
  790POPC   C3A14405  14.063  29.410   7.945
  790POPC   C4A14406  14.428  29.136   7.833
  790POPC   C1B14407  14.502  28.946   8.635
  790POPC   C2B14408  14.483  28.826   8.231
  790POPC   C3B14409  14.417  28.537   7.916
  790POPC   C4B14410  14.255  28.590   7.500
  791POPC   NC314411  30.388  36.769   9.543
  791POPC   PO414412  30.736  37.393   9.573
  791POPC   GL114413  30.603  37.143   9.223
  791POPC   GL214414  30.943  37.006   9.142
  791POPC   C1A14415  30.484  37.175   8.735
  791POPC   D2A14416  30.702  37.041   8.350
  791POPC   C3A14417  30.534  37.100   7.940
  791POPC   C4A14418  30.590  37.196   7.522
  791POPC   C1B14419  30.735  36.725   8.842
  791POPC   C2B14420  30.834  36.556   8.420
  791POPC   C3B14421  31.023  36.759   8.065
  791POPC   C4B14422  30.836  36.778   7.681
  792POPC   NC314423  31.261  24.875  10.005
  792POPC   PO414424  31.594  24.684   9.439
  792POPC   GL114425  31.550  24.794   9.051
  792POPC   GL214426  31.822  24.568   8.955
  792POPC   C1A14427  31.436  24.723   8.629
  792POPC   D2A14428  31.548  24.510   8.248
  792POPC   C3A14429  31.236  24.462   7.961
  792POPC   C4A14430  31.426  24.751   7.725
  792POPC   C1B14431  31.640  24.254   8.682
  792POPC   C2B14432  31.611  24.007   8.289
  792POPC   C3B14433  31.632  24.144   7.859
  792POPC   C4B14434  31.508  23.997   7.437
  793POPC   NC314435   7.934  23.515   9.469
  793POPC   PO414436   8.460  23.936   9.700
  793POPC   GL114437   8.356  23.838   9.274
  793POPC   GL214438   8.549  23.538   9.168
  793POPC   C1A14439   8.275  23.793   8.822
  793POPC   D2A14440   8.501  23.875   8.455
  793POPC   C3A14441   8.309  23.705   8.077
  793POPC   C4A14442   8.443  23.736   7.705
  793POPC   C1B14443   8.298  23.282   8.830
  793POPC   C2B14444   8.098  23.385   8.448
  793POPC   C3B14445   8.129  23.221   8.031
  793POPC   C4B14446   8.088  23.367   7.619
  794POPC   NC314447  42.293  32.642   9.562
  794POPC   PO414448  42.133  31.992   9.506
  794POPC   GL114449  42.391  32.088   9.126
  794POPC   GL214450  42.433  32.409   9.080
  794POPC   C1A14451  42.318  32.122   8.685
  794POPC   D2A14452  42.003  32.214   8.412
  794POPC   C3A14453  42.149  32.250   8.005
  794POPC   C4A14454  42.316  32.007   7.675
  794POPC   C1B14455  42.760  32.363   8.773
  794POPC   C2B14456  42.871  32.290   8.358
  794POPC   C3B14457  42.745  32.412   7.934
  794POPC   C4B14458  42.739  32.244   7.501
  795POPC   NC314459   9.150  34.529   9.538
  795POPC   PO414460   8.529  34.474   9.557
  795POPC   GL114461   8.817  34.344   9.188
  795POPC   GL214462   8.854  34.698   9.120
  795POPC   C1A14463   9.014  34.333   8.742
  795POPC   D2A14464   9.107  34.090   8.341
  795POPC   C3A14465   9.066  34.370   7.997
  795POPC   C4A14466   8.802  34.721   7.849
  795POPC   C1B14467   9.235  34.805   8.921
  795POPC   C2B14468   9.440  34.869   8.518
  795POPC   C3B14469   9.444  34.777   8.070
  795POPC   C4B14470   9.282  34.689   7.661
  796POPC   NC314471   7.111  33.641   9.470
  796POPC   PO414472   7.799  33.923   9.524
  796POPC   GL114473   7.581  33.767   9.156
  796POPC   GL214474   7.775  33.475   9.079
  796POPC   C1A14475   7.244  33.598   8.827
  796POPC   D2A14476   7.101  33.403   8.433
  796POPC   C3A14477   7.264  33.622   8.091
  796POPC   C4A14478   7.233  34.071   7.937
  796POPC   C1B14479   7.744  33.657   8.691
  796POPC   C2B14480   7.902  33.974   8.416
  796POPC   C3B14481   7.757  33.840   8.015
  796POPC   C4B14482   7.699  33.433   7.848
  797POPC   NC314483   9.991  12.502   9.380
  797POPC   PO414484   9.666  13.162   9.432
  797POPC   GL114485   9.747  12.890   9.071
  797POPC   GL214486   9.602  12.537   9.055
  797POPC   C1A14487   9.809  13.053   8.648
  797POPC   D2A14488   9.504  13.210   8.344
  797POPC   C3A14489   9.561  13.026   7.941
  797POPC   C4A14490   9.968  12.912   7.719
  797POPC   C1B14491   9.832  12.541   8.655
  797POPC   C2B14492   9.866  12.668   8.201
  797POPC   C3B14493   9.659  12.544   7.801
  797POPC   C4B14494   9.664  12.559   7.323
  798POPC   NC314495   5.201  37.416   9.525
  798POPC   PO414496   4.909  36.859   9.437
  798POPC   GL114497   5.243  36.871   9.145
  798POPC   GL214498   5.250  37.214   9.063
  798POPC   C1A14499   5.226  36.776   8.702
  798POPC   D2A14500   5.179  36.547   8.346
  798POPC   C3A14501   4.970  36.664   7.998
  798POPC   C4A14502   5.221  36.614   7.683
  798POPC   C1B14503   4.845  37.090   8.842
  798POPC   C2B14504   4.910  37.088   8.414
  798POPC   C3B14505   5.265  37.041   8.170
  798POPC   C4B14506   5.221  37.135   7.738
  799POPC   NC314507   4.251  23.194   9.412
  799POPC   PO414508   4.724  22.689   9.555
  799POPC   GL114509   4.569  22.831   9.178
  799POPC   GL214510   4.192  22.771   9.144
  799POPC   C1A14511   4.497  22.794   8.757
  799POPC   D2A14512   4.245  22.947   8.481
  799POPC   C3A14513   4.439  22.939   8.119
  799POPC   C4A14514   4.636  22.869   7.743
  799POPC   C1B14515   4.007  22.580   8.780
  799POPC   C2B14516   3.875  22.630   8.363
  799POPC   C3B14517   3.912  22.963   8.083
  799POPC   C4B14518   4.141  22.933   7.700
  800POPC   NC314519   0.906  41.007   9.436
  800POPC   PO414520   0.222  40.974   9.334
  800POPC   GL114521   0.538  40.915   9.084
  800POPC   GL214522   0.614  40.582   9.179
  800POPC   C1A14523   0.542  41.013   8.674
  800POPC   D2A14524   0.497  40.803   8.294
  800POPC   C3A14525   0.537  40.983   7.902
  800POPC   C4A14526   0.554  40.738   7.536
  800POPC   C1B14527   0.343  40.551   8.778
  800POPC   C2B14528   0.282  40.348   8.369
  800POPC   C3B14529   0.395  40.419   7.916
  800POPC   C4B14530   0.183  40.430   7.484
  801POPC   NC314531   0.687  25.221   9.616
  801POPC   PO414532   1.365  25.188   9.514
  801POPC   GL114533   1.301  25.298   9.107
  801POPC   GL214534   0.979  25.163   9.181
  801POPC   C1A14535   1.190  25.338   8.679
  801POPC   D2A14536   1.448  25.240   8.335
  801POPC   C3A14537   1.376  25.418   7.946
  801POPC   C4A14538   1.116  25.422   7.554
  801POPC   C1B14539   0.876  24.968   8.822
  801POPC   C2B14540   0.727  25.231   8.484
  801POPC   C3B14541   0.959  25.199   8.122
  801POPC   C4B14542   0.920  24.950   7.725
  802POPC   NC314543  18.158  40.551   9.351
  802POPC   PO414544  18.399  41.140   9.479
  802POPC   GL114545  18.497  40.964   9.038
  802POPC   GL214546  18.170  40.821   8.928
  802POPC   C1A14547  18.525  40.839   8.582
  802POPC   D2A14548  18.081  40.865   8.395
  802POPC   C3A14549  18.162  40.980   7.981
  802POPC   C4A14550  18.476  40.696   7.844
  802POPC   C1B14551  18.239  40.428   8.683
  802POPC   C2B14552  18.326  40.421   8.261
  802POPC   C3B14553  18.162  40.193   7.936
  802POPC   C4B14554  18.179  40.376   7.573
  803POPC   NC314555  17.704   1.449   9.363
  803POPC   PO414556  18.322   1.113   9.424
  803POPC   GL114557  18.124   1.154   9.066
  803POPC   GL214558  18.094   1.491   9.047
  803POPC   C1A14559  17.888   1.164   8.702
  803POPC   D2A14560  17.900   0.932   8.311
  803POPC   C3A14561  18.215   1.180   8.106
  803POPC   C4A14562  18.207   1.258   7.678
  803POPC   C1B14563  18.331   1.643   8.701
  803POPC   C2B14564  18.486   1.585   8.272
  803POPC   C3B14565  18.437   1.691   7.819
  803POPC   C4B14566  18.326   1.740   7.372
  804POPC   NC314567  38.289  43.337   9.587
  804POPC   PO414568  38.741  42.911   9.787
  804POPC   GL114569  38.635  43.008   9.366
  804POPC   GL214570  38.276  42.873   9.333
  804POPC   C1A14571  38.542  43.049   8.920
  804POPC   D2A14572  38.691  43.190   8.538
  804POPC   C3A14573  38.562  43.061   8.129
  804POPC   C4A14574  38.421  43.162   7.684
  804POPC   C1B14575  38.150  42.725   8.920
  804POPC   C2B14576  38.307  42.802   8.508
  804POPC   C3B14577  38.154  42.772   8.087
  804POPC   C4B14578  38.025  42.832   7.675
  805POPC   NC314579  22.320  39.187   9.605
  805POPC   PO414580  21.754  38.791   9.503
  805POPC   GL114581  22.004  38.932   9.120
  805POPC   GL214582  22.297  39.175   9.105
  805POPC   C1A14583  21.961  39.254   8.755
  805POPC   D2A14584  22.230  39.236   8.382
  805POPC   C3A14585  22.123  39.033   7.973
  805POPC   C4A14586  21.892  39.161   7.616
  805POPC   C1B14587  22.305  39.607   8.839
  805POPC   C2B14588  22.249  39.755   8.380
  805POPC   C3B14589  22.353  39.534   7.956
  805POPC   C4B14590  22.357  39.327   7.515
  806POPC   NC314591  28.883   9.520   9.438
  806POPC   PO414592  29.396   9.938   9.484
  806POPC   GL114593  29.188   9.844   9.144
  806POPC   GL214594  28.841   9.989   9.218
  806POPC   C1A14595  29.314   9.691   8.734
  806POPC   D2A14596  29.151   9.707   8.340
  806POPC   C3A14597  29.370   9.623   8.015
  806POPC   C4A14598  29.341   9.826   7.655
  806POPC   C1B14599  28.891   9.993   8.773
  806POPC   C2B14600  29.084  10.207   8.453
  806POPC   C3B14601  29.178  10.150   8.037
  806POPC   C4B14602  28.896  10.159   7.710
  807POPC   NC314603  25.570   9.686   9.524
  807POPC   PO414604  24.981   9.440   9.490
  807POPC   GL114605  25.172   9.617   9.109
  807POPC   GL214606  25.490   9.650   9.030
  807POPC   C1A14607  25.134   9.722   8.665
  807POPC   D2A14608  25.434   9.547   8.409
  807POPC   C3A14609  25.313   9.531   7.989
  807POPC   C4A14610  24.953   9.729   7.759
  807POPC   C1B14611  25.607   9.951   8.695
  807POPC   C2B14612  25.399  10.086   8.302
  807POPC   C3B14613  25.386  10.028   7.848
  807POPC   C4B14614  25.641  10.039   7.448
  808POPC   NC314615  12.593  15.658   9.622
  808POPC   PO414616  13.117  16.053   9.433
  808POPC   GL114617  12.858  15.814   9.195
  808POPC   GL214618  12.641  16.062   9.029
  808POPC   C1A14619  12.858  15.686   8.776
  808POPC   D2A14620  13.032  15.697   8.391
  808POPC   C3A14621  12.793  15.740   8.053
  808POPC   C4A14622  13.052  15.637   7.731
  808POPC   C1B14623  12.758  16.316   8.713
  808POPC   C2B14624  12.974  16.221   8.398
  808POPC   C3B14625  12.807  16.323   8.034
  808POPC   C4B14626  12.822  16.084   7.660
  809POPC   NC314627  31.802  15.474   9.445
  809POPC   PO414628  31.262  15.067   9.396
  809POPC   GL114629  31.366  14.932   9.040
  809POPC   GL214630  31.713  15.079   9.100
  809POPC   C1A14631  31.529  14.957   8.645
  809POPC   D2A14632  31.679  15.253   8.384
  809POPC   C3A14633  31.755  15.153   7.980
  809POPC   C4A14634  31.423  15.061   7.732
  809POPC   C1B14635  31.489  15.429   8.858
  809POPC   C2B14636  31.371  15.658   8.489
  809POPC   C3B14637  31.348  15.491   8.069
  809POPC   C4B14638  31.554  15.554   7.714
  810POPC   NC314639  17.974  44.075   9.490
  810POPC   PO414640  17.388  43.756   9.494
  810POPC   GL114641  17.585  43.867   9.120
  810POPC   GL214642  17.305  44.026   9.058
  810POPC   C1A14643  17.745  43.886   8.663
  810POPC   D2A14644  17.571  43.578   8.346
  810POPC   C3A14645  17.528  43.612   7.887
  810POPC   C4A14646  17.456  43.919   7.520
  810POPC   C1B14647  17.226  43.754   8.747
  810POPC   C2B14648  17.285  44.012   8.399
  810POPC   C3B14649  17.320  44.078   7.988
  810POPC   C4B14650  17.035  43.763   7.799
  811POPC   NC314651  28.173   7.139   9.428
  811POPC   PO414652  28.110   7.789   9.491
  811POPC   GL114653  28.374   7.565   9.127
  811POPC   GL214654  28.526   7.204   9.083
  811POPC   C1A14655  28.520   7.499   8.685
  811POPC   D2A14656  28.236   7.475   8.343
  811POPC   C3A14657  28.379   7.679   7.992
  811POPC   C4A14658  28.787   7.495   7.799
  811POPC   C1B14659  28.153   7.129   8.773
  811POPC   C2B14660  27.903   7.087   8.375
  811POPC   C3B14661  28.026   6.941   7.991
  811POPC   C4B14662  28.405   7.181   7.881
  812POPC   NC314663   9.329  41.201   9.196
  812POPC   PO414664   8.802  41.074   9.537
  812POPC   GL114665   8.896  40.879   9.105
  812POPC   GL214666   9.106  40.575   8.994
  812POPC   C1A14667   8.861  40.929   8.669
  812POPC   D2A14668   9.072  41.244   8.390
  812POPC   C3A14669   9.205  41.026   8.016
  812POPC   C4A14670   9.270  40.841   7.631
  812POPC   C1B14671   9.440  40.592   8.670
  812POPC   C2B14672   9.355  40.567   8.225
  812POPC   C3B14673   8.979  40.558   7.974
  812POPC   C4B14674   8.915  40.477   7.524
  813POPC   NC314675   0.360  19.471   9.514
  813POPC   PO414676   0.690  20.021   9.557
  813POPC   GL114677   0.472  19.896   9.171
  813POPC   GL214678   0.418  20.271   9.144
  813POPC   C1A14679   0.412  19.676   8.705
  813POPC   D2A14680   0.295  19.823   8.263
  813POPC   C3A14681   0.485  19.896   7.796
  813POPC   C4A14682   0.648  19.925   7.338
  813POPC   C1B14683   0.373  20.174   8.727
  813POPC   C2B14684   0.475  20.313   8.334
  813POPC   C3B14685   0.333  20.364   7.923
  813POPC   C4B14686   0.319  20.291   7.475
  814POPC   NC314687  41.026  27.422   9.565
  814POPC   PO414688  40.471  27.744   9.741
  814POPC   GL114689  40.618  27.897   9.304
  814POPC   GL214690  40.955  27.755   9.189
  814POPC   C1A14691  40.686  27.975   8.831
  814POPC   D2A14692  41.050  27.862   8.545
  814POPC   C3A14693  40.952  27.849   8.082
  814POPC   C4A14694  40.615  27.590   7.888
  814POPC   C1B14695  41.083  27.393   8.913
  814POPC   C2B14696  41.218  27.334   8.508
  814POPC   C3B14697  41.003  27.316   8.135
  814POPC   C4B14698  41.106  27.171   7.752
  815POPC   NC314699  38.888  16.492   9.617
  815POPC   PO414700  38.332  16.919   9.542
  815POPC   GL114701  38.391  16.898   9.136
  815POPC   GL214702  38.674  16.689   9.177
  815POPC   C1A14703  38.369  16.711   8.716
  815POPC   D2A14704  38.254  16.520   8.311
  815POPC   C3A14705  38.415  16.808   8.005
  815POPC   C4A14706  38.238  17.123   7.741
  815POPC   C1B14707  38.887  16.656   8.782
  815POPC   C2B14708  38.758  16.618   8.368
  815POPC   C3B14709  38.803  16.482   7.990
  815POPC   C4B14710  38.993  16.626   7.675
  816POPC   NC314711   8.735  28.135   9.486
  816POPC   PO414712   8.925  28.815   9.536
  816POPC   GL114713   8.865  28.556   9.162
  816POPC   GL214714   8.904  28.231   9.023
  816POPC   C1A14715   8.852  28.635   8.705
  816POPC   D2A14716   9.012  28.417   8.387
  816POPC   C3A14717   8.996  28.569   8.014
  816POPC   C4A14718   9.229  28.528   7.669
  816POPC   C1B14719   9.043  27.959   8.694
  816POPC   C2B14720   8.987  27.927   8.256
  816POPC   C3B14721   9.000  28.022   7.808
  816POPC   C4B14722   9.136  27.833   7.378
  817POPC   NC314723  16.991  43.499   9.453
  817POPC   PO414724  16.410  43.108   9.686
  817POPC   GL114725  16.555  43.148   9.188
  817POPC   GL214726  16.679  42.847   9.036
  817POPC   C1A14727  16.787  43.227   8.747
  817POPC   D2A14728  16.687  43.006   8.328
  817POPC   C3A14729  16.850  43.254   7.992
  817POPC   C4A14730  16.691  43.432   7.616
  817POPC   C1B14731  16.931  42.700   8.708
  817POPC   C2B14732  17.018  42.507   8.319
  817POPC   C3B14733  16.949  42.732   7.934
  817POPC   C4B14734  16.740  42.919   7.581
  818POPC   NC314735  26.110  35.603   9.578
  818POPC   PO414736  25.883  34.965   9.466
  818POPC   GL114737  25.979  35.226   9.106
  818POPC   GL214738  26.264  35.426   9.130
  818POPC   C1A14739  25.989  35.434   8.683
  818POPC   D2A14740  25.696  35.585   8.369
  818POPC   C3A14741  25.691  35.449   7.938
  818POPC   C4A14742  25.769  35.039   7.880
  818POPC   C1B14743  26.446  35.183   8.806
  818POPC   C2B14744  26.439  35.341   8.409
  818POPC   C3B14745  26.185  35.332   8.071
  818POPC   C4B14746  26.344  35.434   7.684
  819POPC   NC314747   0.682  32.630   9.424
  819POPC   PO414748   0.162  33.059   9.485
  819POPC   GL114749   0.408  32.925   9.123
  819POPC   GL214750   0.360  33.199   9.002
  819POPC   C1A14751   0.562  32.764   8.709
  819POPC   D2A14752   0.458  32.763   8.243
  819POPC   C3A14753   0.764  32.873   7.921
  819POPC   C4A14754   0.647  32.985   7.494
  819POPC   C1B14755   0.140  33.040   8.656
  819POPC   C2B14756   0.261  33.220   8.308
  819POPC   C3B14757   0.312  33.155   7.907
  819POPC   C4B14758   0.077  33.396   7.644
  820POPC   NC314759  10.875  39.312   9.721
  820POPC   PO414760  10.301  39.081   9.472
  820POPC   GL114761  10.140  39.248   9.078
  820POPC   GL214762  10.350  39.573   9.075
  820POPC   C1A14763  10.294  39.267   8.653
  820POPC   D2A14764  10.661  39.086   8.480
  820POPC   C3A14765  10.620  39.081   8.044
  820POPC   C4A14766  10.260  39.071   7.812
  820POPC   C1B14767  10.631  39.683   8.745
  820POPC   C2B14768  10.618  39.572   8.330
  820POPC   C3B14769  10.352  39.564   7.991
  820POPC   C4B14770  10.604  39.463   7.652
  821POPC   NC314771  22.334  19.749   9.408
  821POPC   PO414772  22.023  20.361   9.478
  821POPC   GL114773  22.048  20.067   9.128
  821POPC   GL214774  21.882  19.744   9.113
  821POPC   C1A14775  22.266  19.900   8.754
  821POPC   D2A14776  22.179  19.720   8.360
  821POPC   C3A14777  22.498  19.640   8.043
  821POPC   C4A14778  22.362  19.764   7.629
  821POPC   C1B14779  21.850  19.516   8.724
  821POPC   C2B14780  21.939  19.248   8.377
  821POPC   C3B14781  22.039  19.411   7.978
  821POPC   C4B14782  21.933  19.512   7.537
  822POPC   NC314783  23.962  43.819   9.541
  822POPC   PO414784  24.651  43.871   9.462
  822POPC   GL114785  24.324  43.886   9.137
  822POPC   GL214786  24.319  44.197   8.934
  822POPC   C1A14787  24.111  43.767   8.754
  822POPC   D2A14788  23.986  43.878   8.324
  822POPC   C3A14789  24.264  43.815   7.948
  822POPC   C4A14790  24.313  43.573   7.540
  822POPC   C1B14791  24.565  43.997   8.596
  822POPC   C2B14792  24.615  44.126   8.154
  822POPC   C3B14793  24.686  44.038   7.733
  822POPC   C4B14794  24.664  43.894   7.300
  823POPC   NC314795  40.192  25.689   9.431
  823POPC   PO414796  39.871  26.321   9.497
  823POPC   GL114797  40.067  26.113   9.168
  823POPC   GL214798  40.350  26.235   9.097
  823POPC   C1A14799  39.994  25.854   8.801
  823POPC   D2A14800  39.760  25.962   8.438
  823POPC   C3A14801  39.772  25.773   8.029
  823POPC   C4A14802  39.955  25.782   7.613
  823POPC   C1B14803  40.166  26.336   8.672
  823POPC   C2B14804  40.151  26.276   8.225
  823POPC   C3B14805  40.131  26.227   7.785
  823POPC   C4B14806  40.210  26.159   7.353
  824POPC   NC314807  26.734  29.573   9.337
  824POPC   PO414808  26.496  30.205   9.535
  824POPC   GL114809  26.712  30.038   9.114
  824POPC   GL214810  27.074  29.934   9.130
  824POPC   C1A14811  26.717  29.850   8.666
  824POPC   D2A14812  26.634  29.808   8.192
  824POPC   C3A14813  26.612  30.136   7.877
  824POPC   C4A14814  26.977  30.267   7.646
  824POPC   C1B14815  27.152  29.600   8.801
  824POPC   C2B14816  27.082  29.574   8.376
  824POPC   C3B14817  27.126  29.887   8.042
  824POPC   C4B14818  27.338  29.728   7.697
  825POPC   NC314819  30.065   8.214   9.428
  825POPC   PO414820  29.456   8.089   9.554
  825POPC   GL114821  29.612   8.187   9.139
  825POPC   GL214822  29.861   7.914   9.073
  825POPC   C1A14823  29.689   8.237   8.679
  825POPC   D2A14824  29.867   8.456   8.328
  825POPC   C3A14825  29.806   8.365   7.915
  825POPC   C4A14826  29.644   8.049   7.605
  825POPC   C1B14827  30.145   8.059   8.751
  825POPC   C2B14828  30.083   7.988   8.358
  825POPC   C3B14829  30.223   8.055   7.988
  825POPC   C4B14830  30.139   7.887   7.668
  826POPC   NC314831   7.003  43.324   9.426
  826POPC   PO414832   7.578  43.011   9.459
  826POPC   GL114833   7.655  43.097   9.064
  826POPC   GL214834   7.350  43.263   9.051
  826POPC   C1A14835   7.566  43.007   8.652
  826POPC   D2A14836   7.651  43.161   8.257
  826POPC   C3A14837   7.257  43.063   8.041
  826POPC   C4A14838   7.091  42.757   7.757
  826POPC   C1B14839   7.064  43.429   8.765
  826POPC   C2B14840   6.958  43.343   8.363
  826POPC   C3B14841   6.990  43.497   7.934
  826POPC   C4B14842   7.009  43.257   7.571
  827POPC   NC314843  34.812  43.106   9.478
  827POPC   PO414844  34.355  43.484   9.169
  827POPC   GL114845  34.562  43.143   9.014
  827POPC   GL214846  34.891  43.284   9.015
  827POPC   C1A14847  34.568  43.092   8.585
  827POPC   D2A14848  34.575  43.117   8.148
  827POPC   C3A14849  34.299  43.185   7.794
  827POPC   C4A14850  34.407  42.917   7.474
  827POPC   C1B14851  34.977  42.870   8.815
  827POPC   C2B14852  34.897  42.712   8.388
  827POPC   C3B14853  34.979  42.887   7.965
  827POPC   C4B14854  34.806  43.151   7.649
  828POPC   NC314855  42.826  21.541   9.482
  828POPC   PO414856  43.451  21.167   9.395
  828POPC   GL114857  43.236  21.426   9.213
  828POPC   GL214858  43.329  21.742   9.388
  828POPC   C1A14859  43.016  21.413   8.832
  828POPC   D2A14860  43.044  21.304   8.396
  828POPC   C3A14861  43.138  21.659   8.136
  828POPC   C4A14862  43.213  21.541   7.725
  828POPC   C1B14863  43.390  21.798   8.941
  828POPC   C2B14864  43.503  21.501   8.631
  828POPC   C3B14865  43.641  21.572   8.235
  828POPC   C4B14866  43.564  21.855   7.907
  829POPC   NC314867  19.345   9.840   9.537
  829POPC   PO414868  18.746   9.415   9.530
  829POPC   GL114869  18.859   9.727   9.172
  829POPC   GL214870  19.139   9.974   9.106
  829POPC   C1A14871  18.956   9.726   8.715
  829POPC   D2A14872  19.087   9.468   8.381
  829POPC   C3A14873  18.895   9.723   8.031
  829POPC   C4A14874  18.703   9.601   7.641
  829POPC   C1B14875  19.421   9.935   8.755
  829POPC   C2B14876  19.295   9.927   8.312
  829POPC   C3B14877  19.440   9.801   7.853
  829POPC   C4B14878  19.462   9.894   7.367
  830POPC   NC314879  33.834   2.311   9.631
  830POPC   PO414880  33.593   1.709   9.476
  830POPC   GL114881  33.806   1.957   9.163
  830POPC   GL214882  33.698   2.307   9.150
  830POPC   C1A14883  33.865   1.797   8.751
  830POPC   D2A14884  33.547   1.704   8.440
  830POPC   C3A14885  33.711   1.746   8.045
  830POPC   C4A14886  33.650   1.885   7.668
  830POPC   C1B14887  33.936   2.303   8.756
  830POPC   C2B14888  33.864   2.147   8.335
  830POPC   C3B14889  33.686   2.318   7.913
  830POPC   C4B14890  33.562   2.442   7.453
  831POPC   NC314891  12.065   3.833   9.320
  831POPC   PO414892  12.044   3.291   9.701
  831POPC   GL114893  12.004   3.341   9.192
  831POPC   GL214894  12.127   3.613   8.897
  831POPC   C1A14895  11.815   3.271   8.758
  831POPC   D2A14896  11.900   3.570   8.392
  831POPC   C3A14897  11.873   3.331   7.986
  831POPC   C4A14898  11.867   3.256   7.538
  831POPC   C1B14899  12.407   3.589   8.587
  831POPC   C2B14900  12.390   3.575   8.183
  831POPC   C3B14901  12.105   3.788   7.959
  831POPC   C4B14902  12.245   3.563   7.659
  832POPC   NC314903  20.930  36.257   9.320
  832POPC   PO414904  20.414  36.293   9.744
  832POPC   GL114905  20.263  36.307   9.215
  832POPC   GL214906  20.555  36.383   9.004
  832POPC   C1A14907  20.247  36.052   8.779
  832POPC   D2A14908  20.426  36.092   8.340
  832POPC   C3A14909  20.202  35.939   7.968
  832POPC   C4A14910  20.227  36.130   7.570
  832POPC   C1B14911  20.749  35.995   8.764
  832POPC   C2B14912  20.827  35.796   8.400
  832POPC   C3B14913  20.892  36.085   8.084
  832POPC   C4B14914  20.690  36.068   7.747
  833POPC   NC314915  32.863  31.302   9.445
  833POPC   PO414916  33.522  31.453   9.664
  833POPC   GL114917  33.332  31.373   9.243
  833POPC   GL214918  33.068  31.590   9.063
  833POPC   C1A14919  33.217  31.095   8.894
  833POPC   D2A14920  33.128  31.139   8.439
  833POPC   C3A14921  33.244  31.269   8.001
  833POPC   C4A14922  33.197  31.565   7.695
  833POPC   C1B14923  32.747  31.310   8.803
  833POPC   C2B14924  32.623  31.246   8.369
  833POPC   C3B14925  32.785  31.449   8.018
  833POPC   C4B14926  32.813  31.225   7.628
  834POPC   NC314927  18.161  21.068   9.384
  834POPC   PO414928  18.512  21.620   9.485
  834POPC   GL114929  18.177  21.572   9.204
  834POPC   GL214930  18.337  21.738   8.961
  834POPC   C1A14931  18.031  21.345   8.815
  834POPC   D2A14932  18.030  21.075   8.435
  834POPC   C3A14933  17.944  21.207   7.997
  834POPC   C4A14934  18.315  21.267   7.707
  834POPC   C1B14935  18.472  21.475   8.605
  834POPC   C2B14936  18.349  21.445   8.212
  834POPC   C3B14937  18.155  21.696   7.929
  834POPC   C4B14938  18.434  21.795   7.601
  835POPC   NC314939  20.828  11.353   9.635
  835POPC   PO414940  20.360  11.482   9.243
  835POPC   GL114941  20.693  11.343   9.094
  835POPC   GL214942  20.718  11.028   9.240
  835POPC   C1A14943  20.712  11.350   8.673
  835POPC   D2A14944  20.395  11.283   8.389
  835POPC   C3A14945  20.568  11.329   8.033
  835POPC   C4A14946  20.600  11.649   7.802
  835POPC   C1B14947  21.036  11.023   8.911
  835POPC   C2B14948  21.082  11.084   8.466
  835POPC   C3B14949  21.005  11.045   8.028
  835POPC   C4B14950  20.660  10.886   7.786
  836POPC   NC314951  35.889  40.201   9.457
  836POPC   PO414952  36.412  39.771   9.433
  836POPC   GL114953  36.386  39.892   9.036
  836POPC   GL214954  36.028  39.956   9.039
  836POPC   C1A14955  36.578  39.745   8.658
  836POPC   D2A14956  36.504  39.661   8.243
  836POPC   C3A14957  36.500  39.945   7.881
  836POPC   C4A14958  36.486  40.341   7.685
  836POPC   C1B14959  36.143  40.054   8.622
  836POPC   C2B14960  36.093  39.959   8.190
  836POPC   C3B14961  35.999  40.210   7.848
  836POPC   C4B14962  35.649  40.422   7.711
  837POPC   NC314963   4.112  28.427   9.539
  837POPC   PO414964   4.643  28.824   9.353
  837POPC   GL114965   4.384  28.549   9.129
  837POPC   GL214966   4.506  28.230   9.130
  837POPC   C1A14967   4.220  28.379   8.745
  837POPC   D2A14968   4.386  28.067   8.455
  837POPC   C3A14969   4.194  28.098   8.029
  837POPC   C4A14970   4.008  28.460   7.824
  837POPC   C1B14971   4.739  28.416   8.782
  837POPC   C2B14972   4.744  28.677   8.432
  837POPC   C3B14973   4.495  28.569   8.083
  837POPC   C4B14974   4.556  28.502   7.666
  838POPC   NC314975  12.572  17.970   9.415
  838POPC   PO414976  13.045  18.430   9.500
  838POPC   GL114977  12.968  18.135   9.152
  838POPC   GL214978  12.684  18.379   9.093
  838POPC   C1A14979  12.881  18.113   8.698
  838POPC   D2A14980  12.861  18.515   8.450
  838POPC   C3A14981  12.718  18.398   8.086
  838POPC   C4A14982  12.896  18.059   7.831
  838POPC   C1B14983  12.422  18.394   8.724
  838POPC   C2B14984  12.407  18.080   8.430
  838POPC   C3B14985  12.395  17.981   8.030
  838POPC   C4B14986  12.409  18.267   7.707
  839POPC   NC314987  29.388  11.596   9.687
  839POPC   PO414988  30.011  11.327   9.479
  839POPC   GL114989  30.127  11.538   9.116
  839POPC   GL214990  30.013  11.237   8.968
  839POPC   C1A14991  30.011  11.622   8.674
  839POPC   D2A14992  29.965  11.279   8.458
  839POPC   C3A14993  29.912  11.433   8.114
  839POPC   C4A14994  30.103  11.452   7.754
  839POPC   C1B14995  30.187  10.925   8.777
  839POPC   C2B14996  30.424  10.887   8.443
  839POPC   C3B14997  30.267  11.060   8.095
  839POPC   C4B14998  30.259  10.982   7.701
  840POPC   NC314999  20.998  31.906   9.657
  840POPC   PO415000  20.648  32.491   9.585
  840POPC   GL115001  20.556  32.390   9.153
  840POPC   GL215002  20.289  32.118   9.130
  840POPC   C1A15003  20.787  32.354   8.754
  840POPC   D2A15004  21.114  32.343   8.427
  840POPC   C3A15005  21.022  32.418   8.008
  840POPC   C4A15006  20.693  32.273   7.761
  840POPC   C1B15007  20.282  32.345   8.713
  840POPC   C2B15008  20.317  32.387   8.230
  840POPC   C3B15009  20.236  32.467   7.827
  840POPC   C4B15010  20.270  32.189   7.462
  841POPC   NC315011  14.780  27.062   9.490
  841POPC   PO415012  14.158  26.786   9.572
  841POPC   GL115013  14.455  26.774   9.229
  841POPC   GL215014  14.268  26.563   9.070
  841POPC   C1A15015  14.450  26.977   8.828
  841POPC   D2A15016  14.246  26.792   8.465
  841POPC   C3A15017  14.522  26.786   8.135
  841POPC   C4A15018  14.682  26.981   7.760
  841POPC   C1B15019  13.980  26.380   8.829
  841POPC   C2B15020  13.831  26.445   8.444
  841POPC   C3B15021  13.986  26.554   8.063
  841POPC   C4B15022  14.193  26.782   7.739
  842POPC   NC315023  36.845   0.789   9.373
  842POPC   PO415024  36.501   0.163   9.349
  842POPC   GL115025  36.656   0.471   9.033
  842POPC   GL215026  37.001   0.384   9.002
  842POPC   C1A15027  36.795   0.641   8.624
  842POPC   D2A15028  37.059   0.603   8.270
  842POPC   C3A15029  36.781   0.736   7.960
  842POPC   C4A15030  36.564   0.504   7.654
  842POPC   C1B15031  36.806   0.101   8.704
  842POPC   C2B15032  36.751  44.922   8.315
  842POPC   C3B15033  36.923   0.075   7.882
  842POPC   C4B15034  37.183   0.429   7.784
  843POPC   NC315035  10.735  34.054   9.278
  843POPC   PO415036  10.473  34.574   9.595
  843POPC   GL115037  10.381  34.488   9.171
  843POPC   GL215038  10.226  34.790   9.108
  843POPC   C1A15039  10.405  34.464   8.697
  843POPC   D2A15040  10.680  34.439   8.327
  843POPC   C3A15041  10.509  34.529   7.944
  843POPC   C4A15042  10.188  34.305   7.772
  843POPC   C1B15043  10.627  34.869   8.879
  843POPC   C2B15044  10.910  34.849   8.548
  843POPC   C3B15045  10.878  34.868   8.104
  843POPC   C4B15046  10.833  34.843   7.677
  844POPC   NC315047  23.329  16.159   9.344
  844POPC   PO415048  22.813  15.975   9.540
  844POPC   GL115049  22.883  16.034   9.109
  844POPC   GL215050  22.925  16.377   9.140
  844POPC   C1A15051  23.155  15.862   8.763
  844POPC   D2A15052  23.037  15.567   8.452
  844POPC   C3A15053  22.753  15.750   8.205
  844POPC   C4A15054  22.871  15.791   7.805
  844POPC   C1B15055  23.057  16.367   8.717
  844POPC   C2B15056  22.956  16.194   8.318
  844POPC   C3B15057  22.843  16.311   7.886
  844POPC   C4B15058  22.969  16.149   7.453
  845POPC   NC315059  44.675  19.150   9.813
  845POPC   PO415060  44.926  19.657   9.407
  845POPC   GL115061   0.011  19.704   9.012
  845POPC   GL215062  44.679  19.801   8.974
  845POPC   C1A15063  44.891  19.553   8.584
  845POPC   D2A15064  44.525  19.447   8.312
  845POPC   C3A15065  44.745  19.463   7.926
  845POPC   C4A15066  44.998  19.797   7.851
  845POPC   C1B15067  44.848  20.116   8.673
  845POPC   C2B15068  44.866  20.182   8.200
  845POPC   C3B15069  44.535  20.010   7.911
  845POPC   C4B15070  44.232  20.005   7.528
  846POPC   NC315071  32.735  11.479   9.501
  846POPC   PO415072  33.456  11.346   9.578
  846POPC   GL115073  33.180  11.404   9.207
  846POPC   GL215074  32.939  11.117   9.203
  846POPC   C1A15075  33.131  11.527   8.759
  846POPC   D2A15076  33.328  11.610   8.343
  846POPC   C3A15077  33.168  11.623   7.902
  846POPC   C4A15078  33.348  11.500   7.521
  846POPC   C1B15079  33.005  11.014   8.800
  846POPC   C2B15080  32.858  11.201   8.443
  846POPC   C3B15081  33.022  11.144   8.071
  846POPC   C4B15082  32.974  11.166   7.651
  847POPC   NC315083  32.363  41.298   9.409
  847POPC   PO415084  32.594  41.954   9.392
  847POPC   GL115085  32.345  41.730   9.076
  847POPC   GL215086  32.484  41.431   8.949
  847POPC   C1A15087  32.198  41.795   8.643
  847POPC   D2A15088  32.012  41.773   8.222
  847POPC   C3A15089  32.305  41.734   7.861
  847POPC   C4A15090  32.257  41.885   7.411
  847POPC   C1B15091  32.179  41.287   8.678
  847POPC   C2B15092  32.331  41.346   8.266
  847POPC   C3B15093  32.148  41.232   7.891
  847POPC   C4B15094  32.008  41.438   7.537
  848POPC   NC315095  13.600  43.566   9.472
  848POPC   PO415096  13.818  42.928   9.560
  848POPC   GL115097  13.742  42.958   9.121
  848POPC   GL215098  13.484  43.154   9.168
  848POPC   C1A15099  13.860  43.241   8.767
  848POPC   D2A15100  14.063  43.309   8.365
  848POPC   C3A15101  13.851  43.205   7.951
  848POPC   C4A15102  13.650  42.828   7.693
  848POPC   C1B15103  13.357  43.132   8.739
  848POPC   C2B15104  13.505  43.289   8.343
  848POPC   C3B15105  13.337  43.186   7.920
  848POPC   C4B15106  13.175  43.332   7.528
  849POPC   NC315107  14.874  12.314   9.348
  849POPC   PO415108  15.445  12.030   9.531
  849POPC   GL115109  15.396  11.791   9.162
  849POPC   GL215110  15.236  12.092   9.042
  849POPC   C1A15111  15.427  11.764   8.708
  849POPC   D2A15112  15.147  11.956   8.402
  849POPC   C3A15113  15.338  11.987   8.039
  849POPC   C4A15114  15.258  12.197   7.687
  849POPC   C1B15115  15.097  12.341   8.717
  849POPC   C2B15116  14.836  12.445   8.337
  849POPC   C3B15117  14.961  12.564   7.880
  849POPC   C4B15118  14.984  12.483   7.374
  850POPC   NC315119   8.876  25.717   9.806
  850POPC   PO415120   8.901  25.125   9.535
  850POPC   GL115121   8.847  25.129   9.093
  850POPC   GL215122   9.197  25.161   9.096
  850POPC   C1A15123   8.937  25.408   8.707
  850POPC   D2A15124   8.934  25.613   8.317
  850POPC   C3A15125   9.252  25.680   8.014
  850POPC   C4A15126   9.022  25.674   7.638
  850POPC   C1B15127   9.362  25.132   8.711
  850POPC   C2B15128   9.175  25.139   8.306
  850POPC   C3B15129   8.978  25.236   7.923
  850POPC   C4B15130   9.273  25.215   7.591
  851POPC   NC315131  43.371  36.153   9.531
  851POPC   PO415132  42.779  36.353   9.537
  851POPC   GL115133  42.889  36.004   9.250
  851POPC   GL215134  43.247  36.000   9.070
  851POPC   C1A15135  42.829  36.064   8.817
  851POPC   D2A15136  43.139  36.001   8.543
  851POPC   C3A15137  42.935  36.224   8.256
  851POPC   C4A15138  42.827  36.130   7.851
  851POPC   C1B15139  43.289  36.420   8.817
  851POPC   C2B15140  43.453  36.414   8.374
  851POPC   C3B15141  43.312  36.332   7.940
  851POPC   C4B15142  43.456  35.982   7.761
  852POPC   NC315143  44.190  26.223   9.480
  852POPC   PO415144  43.735  25.762   9.385
  852POPC   GL115145  43.846  25.914   9.046
  852POPC   GL215146  44.171  25.726   9.006
  852POPC   C1A15147  43.578  26.029   8.695
  852POPC   D2A15148  43.415  26.171   8.333
  852POPC   C3A15149  43.676  25.989   8.026
  852POPC   C4A15150  43.743  26.215   7.661
  852POPC   C1B15151  44.068  25.903   8.589
  852POPC   C2B15152  43.980  26.266   8.331
  852POPC   C3B15153  44.173  26.261   7.948
  852POPC   C4B15154  44.204  25.913   7.717
  853POPC   NC315155  10.459  10.973   9.598
  853POPC   PO415156  10.637  10.487   9.580
  853POPC   GL115157  10.584  10.686   9.153
  853POPC   GL215158  10.232  10.720   9.020
  853POPC   C1A15159  10.618  10.642   8.678
  853POPC   D2A15160  10.372  10.513   8.305
  853POPC   C3A15161  10.493  10.576   7.872
  853POPC   C4A15162  10.775  10.477   7.527
  853POPC   C1B15163  10.171  10.914   8.581
  853POPC   C2B15164  10.009  10.977   8.146
  853POPC   C3B15165  10.062  10.837   7.711
  853POPC   C4B15166  10.269  10.590   7.382
  854POPC   NC315167  12.531  31.235   9.541
  854POPC   PO415168  13.141  31.448   9.247
  854POPC   GL115169  12.745  31.408   9.050
  854POPC   GL215170  12.905  31.631   8.782
  854POPC   C1A15171  12.483  31.379   8.675
  854POPC   D2A15172  12.600  31.661   8.327
  854POPC   C3A15173  12.771  31.438   7.954
  854POPC   C4A15174  12.616  31.278   7.535
  854POPC   C1B15175  13.107  31.299   8.589
  854POPC   C2B15176  13.370  31.229   8.247
  854POPC   C3B15177  13.284  31.143   7.844
  854POPC   C4B15178  13.116  31.346   7.523
  855POPC   NC315179  17.979  28.210   9.436
  855POPC   PO415180  17.375  28.400   9.647
  855POPC   GL115181  17.483  28.304   9.228
  855POPC   GL215182  17.161  28.409   9.170
  855POPC   C1A15183  17.710  28.328   8.817
  855POPC   D2A15184  17.808  28.147   8.399
  855POPC   C3A15185  17.768  28.446   8.073
  855POPC   C4A15186  17.865  28.406   7.689
  855POPC   C1B15187  17.214  28.248   8.763
  855POPC   C2B15188  17.357  28.455   8.380
  855POPC   C3B15189  17.313  28.327   7.925
  855POPC   C4B15190  17.190  28.514   7.555
  856POPC   NC315191   1.423  18.166   9.514
  856POPC   PO415192   1.012  18.594   9.317
  856POPC   GL115193   0.998  18.320   9.029
  856POPC   GL215194   1.029  18.023   9.195
  856POPC   C1A15195   1.218  18.377   8.665
  856POPC   D2A15196   1.127  18.557   8.286
  856POPC   C3A15197   1.238  18.340   7.943
  856POPC   C4A15198   1.356  18.323   7.538
  856POPC   C1B15199   1.255  17.884   8.828
  856POPC   C2B15200   1.144  17.936   8.394
  856POPC   C3B15201   1.098  17.855   7.972
  856POPC   C4B15202   1.448  17.867   7.769
  857POPC   NC315203   4.163  25.019   9.447
  857POPC   PO415204   4.529  24.378   9.502
  857POPC   GL115205   4.272  24.580   9.210
  857POPC   GL215206   4.536  24.810   9.150
  857POPC   C1A15207   4.095  24.600   8.799
  857POPC   D2A15208   4.090  24.368   8.409
  857POPC   C3A15209   4.317  24.505   8.036
  857POPC   C4A15210   4.172  24.485   7.589
  857POPC   C1B15211   4.603  24.594   8.780
  857POPC   C2B15212   4.605  24.241   8.485
  857POPC   C3B15213   4.807  24.286   8.093
  857POPC   C4B15214   4.671  24.391   7.682
  858POPC   NC315215  27.565  18.008   9.591
  858POPC   PO415216  27.291  18.590   9.715
  858POPC   GL115217  27.278  18.261   9.257
  858POPC   GL215218  27.637  18.154   9.126
  858POPC   C1A15219  27.353  18.374   8.750
  858POPC   D2A15220  27.174  18.407   8.320
  858POPC   C3A15221  27.449  18.435   7.948
  858POPC   C4A15222  27.558  18.647   7.537
  858POPC   C1B15223  27.841  18.166   8.761
  858POPC   C2B15224  27.703  18.252   8.374
  858POPC   C3B15225  27.804  18.068   8.041
  858POPC   C4B15226  27.844  18.233   7.681
  859POPC   NC315227  40.179  29.325   9.539
  859POPC   PO415228  39.701  28.993   9.532
  859POPC   GL115229  39.840  29.271   9.162
  859POPC   GL215230  40.183  29.447   9.065
  859POPC   C1A15231  39.805  29.344   8.756
  859POPC   D2A15232  39.957  29.094   8.452
  859POPC   C3A15233  39.813  29.219   8.081
  859POPC   C4A15234  39.803  29.029   7.698
  859POPC   C1B15235  40.370  29.284   8.690
  859POPC   C2B15236  40.448  29.074   8.308
  859POPC   C3B15237  40.286  29.113   7.894
  859POPC   C4B15238  40.147  29.494   7.719
  860POPC   NC315239  16.985  37.072   9.722
  860POPC   PO415240  17.171  36.507   9.663
  860POPC   GL115241  17.042  36.754   9.263
  860POPC   GL215242  17.133  37.090   9.221
  860POPC   C1A15243  16.900  36.821   8.784
  860POPC   D2A15244  16.649  36.848   8.363
  860POPC   C3A15245  16.843  36.786   7.954
  860POPC   C4A15246  17.276  36.716   7.867
  860POPC   C1B15247  16.931  37.324   8.879
  860POPC   C2B15248  16.770  37.340   8.452
  860POPC   C3B15249  16.884  37.292   8.019
  860POPC   C4B15250  16.789  37.228   7.592
  861POPC   NC315251  17.275   2.987   9.899
  861POPC   PO415252  17.801   2.594   9.571
  861POPC   GL115253  17.670   2.779   9.183
  861POPC   GL215254  17.392   2.951   9.291
  861POPC   C1A15255  17.789   3.082   8.840
  861POPC   D2A15256  17.580   3.273   8.454
  861POPC   C3A15257  17.815   3.099   8.077
  861POPC   C4A15258  17.792   2.923   7.672
  861POPC   C1B15259  17.333   2.820   8.831
  861POPC   C2B15260  17.565   2.763   8.439
  861POPC   C3B15261  17.461   2.586   8.033
  861POPC   C4B15262  17.305   2.652   7.619
  862POPC   NC315263  39.618  31.983   9.493
  862POPC   PO415264  40.159  32.206   9.867
  862POPC   GL115265  40.112  32.129   9.332
  862POPC   GL215266  39.828  32.259   9.114
  862POPC   C1A15267  40.243  32.144   8.852
  862POPC   D2A15268  39.931  32.431   8.621
  862POPC   C3A15269  39.944  32.486   8.176
  862POPC   C4A15270  40.086  32.352   7.806
  862POPC   C1B15271  39.783  31.942   8.778
  862POPC   C2B15272  39.930  31.998   8.348
  862POPC   C3B15273  39.654  32.083   7.985
  862POPC   C4B15274  39.643  32.260   7.570
  863POPC   NC315275  39.217  19.566   9.747
  863POPC   PO415276  39.301  20.053   9.300
  863POPC   GL115277  39.345  19.938   8.930
  863POPC   GL215278  39.445  19.609   9.004
  863POPC   C1A15279  39.031  19.929   8.624
  863POPC   D2A15280  38.931  19.680   8.303
  863POPC   C3A15281  39.040  19.830   7.880
  863POPC   C4A15282  39.258  19.500   7.682
  863POPC   C1B15283  39.370  19.513   8.576
  863POPC   C2B15284  39.428  19.657   8.154
  863POPC   C3B15285  39.639  19.835   7.786
  863POPC   C4B15286  39.948  20.153   7.716
  864POPC   NC315287  31.585  25.733   9.605
  864POPC   PO415288  31.166  25.243   9.712
  864POPC   GL115289  31.338  25.289   9.259
  864POPC   GL215290  31.708  25.282   9.154
  864POPC   C1A15291  31.322  25.202   8.795
  864POPC   D2A15292  31.532  25.151   8.371
  864POPC   C3A15293  31.289  25.167   7.995
  864POPC   C4A15294  31.229  25.534   7.748
  864POPC   C1B15295  31.884  25.047   8.762
  864POPC   C2B15296  31.932  24.828   8.345
  864POPC   C3B15297  31.867  24.947   7.916
  864POPC   C4B15298  31.663  25.258   7.667
  865POPC   NC315299  12.586  27.991   9.466
  865POPC   PO415300  13.209  28.231   9.557
  865POPC   GL115301  12.922  28.234   9.188
  865POPC   GL215302  12.834  28.553   9.056
  865POPC   C1A15303  12.747  28.148   8.756
  865POPC   D2A15304  13.008  28.066   8.374
  865POPC   C3A15305  12.840  28.066   7.962
  865POPC   C4A15306  12.786  28.280   7.576
  865POPC   C1B15307  12.640  28.649   8.696
  865POPC   C2B15308  12.663  28.441   8.321
  865POPC   C3B15309  12.643  28.577   7.941
  865POPC   C4B15310  12.427  28.682   7.565
  866POPC   NC315311   4.311  18.080   9.897
  866POPC   PO415312   4.139  18.769   9.626
  866POPC   GL115313   4.184  18.499   9.195
  866POPC   GL215314   4.523  18.328   9.190
  866POPC   C1A15315   4.346  18.583   8.728
  866POPC   D2A15316   4.530  18.681   8.290
  866POPC   C3A15317   4.393  18.399   7.928
  866POPC   C4A15318   4.125  18.370   7.536
  866POPC   C1B15319   4.295  18.066   8.885
  866POPC   C2B15320   4.278  18.112   8.430
  866POPC   C3B15321   4.405  17.886   8.044
  866POPC   C4B15322   4.454  17.984   7.582
  867POPC   NC315323  39.561  27.216   9.380
  867POPC   PO415324  39.013  26.806   9.472
  867POPC   GL115325  39.169  27.004   9.097
  867POPC   GL215326  39.469  26.803   9.073
  867POPC   C1A15327  39.301  27.055   8.642
  867POPC   D2A15328  39.450  26.867   8.270
  867POPC   C3A15329  39.301  27.102   7.967
  867POPC   C4A15330  39.440  27.157   7.552
  867POPC   C1B15331  39.220  26.560   8.783
  867POPC   C2B15332  39.008  26.623   8.403
  867POPC   C3B15333  39.097  26.553   7.982
  867POPC   C4B15334  39.076  26.760   7.594
  868POPC   NC315335   8.219  34.143   9.615
  868POPC   PO415336   7.973  34.731   9.410
  868POPC   GL115337   8.163  34.803   9.049
  868POPC   GL215338   8.357  34.541   9.082
  868POPC   C1A15339   8.077  34.659   8.656
  868POPC   D2A15340   7.978  34.476   8.273
  868POPC   C3A15341   7.965  34.794   7.967
  868POPC   C4A15342   8.038  34.767   7.561
  868POPC   C1B15343   8.592  34.647   8.692
  868POPC   C2B15344   8.448  34.693   8.274
  868POPC   C3B15345   8.372  34.492   7.885
  868POPC   C4B15346   8.684  34.194   7.682
  869POPC   NC315347   9.537  14.474   9.622
  869POPC   PO415348   9.949  14.115   9.205
  869POPC   GL115349   9.690  14.401   8.995
  869POPC   GL215350   9.995  14.456   8.759
  869POPC   C1A15351   9.545  14.537   8.571
  869POPC   D2A15352   9.898  14.702   8.313
  869POPC   C3A15353   9.949  14.463   7.983
  869POPC   C4A15354   9.588  14.506   7.788
  869POPC   C1B15355   9.795  14.076   8.597
  869POPC   C2B15356   9.716  14.046   8.216
  869POPC   C3B15357   9.898  13.960   7.868
  869POPC   C4B15358   9.955  14.183   7.532
  870POPC   NC315359   3.027  40.093   9.640
  870POPC   PO415360   3.259  39.573   9.312
  870POPC   GL115361   2.878  39.871   9.208
  870POPC   GL215362   2.529  39.778   9.037
  870POPC   C1A15363   2.869  40.223   8.889
  870POPC   D2A15364   2.910  40.304   8.441
  870POPC   C3A15365   2.610  40.078   8.156
  870POPC   C4A15366   2.772  40.090   7.730
  870POPC   C1B15367   2.860  39.728   8.728
  870POPC   C2B15368   2.984  39.787   8.336
  870POPC   C3B15369   3.051  39.654   7.918
  870POPC   C4B15370   2.950  39.691   7.472
  871POPC   NC315371  10.105  17.033   9.425
  871POPC   PO415372  10.662  16.548   9.529
  871POPC   GL115373  10.460  16.769   9.222
  871POPC   GL215374  10.186  16.603   9.144
  871POPC   C1A15375  10.418  16.984   8.820
  871POPC   D2A15376  10.208  16.991   8.439
  871POPC   C3A15377  10.345  16.820   8.080
  871POPC   C4A15378  10.420  16.957   7.714
  871POPC   C1B15379  10.533  16.474   8.848
  871POPC   C2B15380  10.586  16.597   8.462
  871POPC   C3B15381  10.765  16.517   8.065
  871POPC   C4B15382  10.700  16.539   7.637
  872POPC   NC315383  25.599  20.091   9.470
  872POPC   PO415384  25.174  19.600   9.352
  872POPC   GL115385  25.428  19.745   9.063
  872POPC   GL215386  25.381  20.108   9.012
  872POPC   C1A15387  25.318  19.684   8.640
  872POPC   D2A15388  25.417  19.846   8.274
  872POPC   C3A15389  25.102  19.962   7.996
  872POPC   C4A15390  25.067  19.635   7.717
  872POPC   C1B15391  25.671  20.042   8.724
  872POPC   C2B15392  25.787  20.182   8.344
  872POPC   C3B15393  25.633  20.178   7.959
  872POPC   C4B15394  25.462  19.998   7.626
  873POPC   NC315395   4.060  38.871   9.390
  873POPC   PO415396   4.288  39.579   9.479
  873POPC   GL115397   4.172  39.330   9.153
  873POPC   GL215398   4.447  39.093   9.134
  873POPC   C1A15399   4.107  39.149   8.757
  873POPC   D2A15400   4.273  39.164   8.390
  873POPC   C3A15401   4.008  39.113   8.088
  873POPC   C4A15402   4.138  39.107   7.690
  873POPC   C1B15403   4.584  38.908   8.736
  873POPC   C2B15404   4.524  38.725   8.329
  873POPC   C3B15405   4.528  38.971   7.969
  873POPC   C4B15406   4.732  39.017   7.552
  874POPC   NC315407   8.496  44.626   9.509
  874POPC   PO415408   7.832  44.807   9.301
  874POPC   GL115409   8.186  44.664   9.126
  874POPC   GL215410   8.417  44.904   9.093
  874POPC   C1A15411   8.256  44.438   8.774
  874POPC   D2A15412   7.956  44.468   8.460
  874POPC   C3A15413   8.145  44.518   8.068
  874POPC   C4A15414   7.900  44.714   7.743
  874POPC   C1B15415   8.145  44.934   8.713
  874POPC   C2B15416   8.367  44.883   8.361
  874POPC   C3B15417   8.298  44.998   7.956
  874POPC   C4B15418   8.425  44.902   7.584
  875POPC   NC315419  26.548  16.056   9.569
  875POPC   PO415420  25.930  15.825   9.404
  875POPC   GL115421  25.920  16.010   9.075
  875POPC   GL215422  26.236  16.150   9.122
  875POPC   C1A15423  25.934  15.875   8.685
  875POPC   D2A15424  25.672  15.879   8.366
  875POPC   C3A15425  25.874  15.925   7.990
  875POPC   C4A15426  25.669  15.813   7.636
  875POPC   C1B15427  26.109  16.352   8.749
  875POPC   C2B15428  25.986  16.294   8.350
  875POPC   C3B15429  26.176  16.328   7.937
  875POPC   C4B15430  26.089  16.191   7.560
  876POPC   NC315431  20.942  40.355   9.712
  876POPC   PO415432  20.627  39.762   9.668
  876POPC   GL115433  20.515  39.901   9.234
  876POPC   GL215434  20.690  40.224   9.136
  876POPC   C1A15435  20.671  39.784   8.805
  876POPC   D2A15436  20.537  39.642   8.380
  876POPC   C3A15437  20.679  39.871   7.974
  876POPC   C4A15438  20.406  40.118   7.713
  876POPC   C1B15439  20.967  40.245   8.796
  876POPC   C2B15440  20.794  40.116   8.421
  876POPC   C3B15441  20.566  40.345   8.126
  876POPC   C4B15442  20.859  40.365   7.767
  877POPC   NC315443  23.560  38.139   9.498
  877POPC   PO415444  23.441  38.707   9.344
  877POPC   GL115445  23.679  38.401   9.046
  877POPC   GL215446  23.817  38.037   9.062
  877POPC   C1A15447  23.649  38.364   8.599
  877POPC   D2A15448  23.882  38.445   8.240
  877POPC   C3A15449  23.630  38.453   7.849
  877POPC   C4A15450  23.607  38.696   7.429
  877POPC   C1B15451  23.822  37.894   8.631
  877POPC   C2B15452  23.753  37.958   8.198
  877POPC   C3B15453  24.013  38.116   7.856
  877POPC   C4B15454  23.870  38.239   7.429
  878POPC   NC315455  17.884  24.530   9.513
  878POPC   PO415456  17.235  24.348   9.457
  878POPC   GL115457  17.369  24.583   9.143
  878POPC   GL215458  17.655  24.367   9.108
  878POPC   C1A15459  17.436  24.572   8.705
  878POPC   D2A15460  17.655  24.817   8.424
  878POPC   C3A15461  17.607  24.705   8.021
  878POPC   C4A15462  17.252  24.716   7.806
  878POPC   C1B15463  17.785  24.204   8.743
  878POPC   C2B15464  17.596  24.155   8.350
  878POPC   C3B15465  17.402  24.224   7.963
  878POPC   C4B15466  17.648  24.246   7.595
  879POPC   NC315467  25.035  16.078   9.526
  879POPC   PO415468  25.487  16.703   9.426
  879POPC   GL115469  25.227  16.727   9.084
  879POPC   GL215470  24.933  16.534   9.203
  879POPC   C1A15471  25.105  17.045   8.798
  879POPC   D2A15472  25.184  16.832   8.445
  879POPC   C3A15473  25.369  16.904   8.088
  879POPC   C4A15474  25.425  16.801   7.661
  879POPC   C1B15475  25.026  16.366   8.800
  879POPC   C2B15476  24.919  16.405   8.382
  879POPC   C3B15477  24.913  16.660   8.028
  879POPC   C4B15478  25.099  16.386   7.732
  880POPC   NC315479   2.543  31.356   9.452
  880POPC   PO415480   3.155  31.667   9.382
  880POPC   GL115481   2.861  31.563   9.109
  880POPC   GL215482   2.860  31.229   9.067
  880POPC   C1A15483   2.650  31.554   8.729
  880POPC   D2A15484   2.425  31.704   8.395
  880POPC   C3A15485   2.672  31.751   8.025
  880POPC   C4A15486   2.813  31.477   7.647
  880POPC   C1B15487   3.015  31.114   8.683
  880POPC   C2B15488   2.876  31.372   8.331
  880POPC   C3B15489   2.608  31.249   8.042
  880POPC   C4B15490   2.953  31.020   7.886
  881POPC   NC315491  36.454  20.014   9.602
  881POPC   PO415492  36.835  19.458   9.495
  881POPC   GL115493  36.906  19.788   9.136
  881POPC   GL215494  36.680  20.105   9.105
  881POPC   C1A15495  37.076  19.915   8.703
  881POPC   D2A15496  37.216  19.772   8.270
  881POPC   C3A15497  37.031  19.864   7.851
  881POPC   C4A15498  37.059  19.607   7.480
  881POPC   C1B15499  36.621  20.158   8.640
  881POPC   C2B15500  36.725  19.992   8.239
  881POPC   C3B15501  36.498  19.772   7.888
  881POPC   C4B15502  36.163  19.668   7.563
  882POPC   NC315503   4.625  40.013   9.336
  882POPC   PO415504   4.090  40.384   9.508
  882POPC   GL115505   4.254  40.295   9.110
  882POPC   GL215506   4.193  39.940   9.100
  882POPC   C1A15507   4.356  40.170   8.676
  882POPC   D2A15508   4.673  40.262   8.390
  882POPC   C3A15509   4.584  40.016   8.066
  882POPC   C4A15510   4.223  40.001   7.816
  882POPC   C1B15511   4.186  39.680   8.770
  882POPC   C2B15512   4.348  39.675   8.363
  882POPC   C3B15513   4.337  39.509   7.951
  882POPC   C4B15514   4.454  39.452   7.497
  883POPC   NC315515  31.991  36.961   9.532
  883POPC   PO415516  32.473  36.550   9.471
  883POPC   GL115517  32.314  36.875   9.154
  883POPC   GL215518  31.963  36.749   9.066
  883POPC   C1A15519  32.236  37.046   8.735
  883POPC   D2A15520  32.120  37.038   8.300
  883POPC   C3A15521  32.386  36.894   7.959
  883POPC   C4A15522  32.241  37.174   7.651
  883POPC   C1B15523  31.826  36.534   8.672
  883POPC   C2B15524  31.964  36.552   8.230
  883POPC   C3B15525  31.896  36.813   7.882
  883POPC   C4B15526  31.822  36.708   7.490
  884POPC   NC315527  37.729  13.469   9.410
  884POPC   PO415528  37.790  14.133   9.389
  884POPC   GL115529  37.788  13.981   8.995
  884POPC   GL215530  37.916  13.632   8.922
  884POPC   C1A15531  37.591  13.925   8.595
  884POPC   D2A15532  37.835  13.757   8.263
  884POPC   C3A15533  37.719  13.626   7.848
  884POPC   C4A15534  37.384  13.596   7.564
  884POPC   C1B15535  37.536  13.406   8.781
  884POPC   C2B15536  37.225  13.376   8.486
  884POPC   C3B15537  37.310  13.377   8.061
  884POPC   C4B15538  37.242  13.119   7.710
  885POPC   NC315539  28.544  35.051   9.803
  885POPC   PO415540  28.430  34.542   9.511
  885POPC   GL115541  28.562  34.427   9.120
  885POPC   GL215542  28.508  34.785   9.066
  885POPC   C1A15543  28.488  34.485   8.673
  885POPC   D2A15544  28.598  34.622   8.263
  885POPC   C3A15545  28.434  34.363   7.922
  885POPC   C4A15546  28.394  34.299   7.475
  885POPC   C1B15547  28.069  34.785   8.861
  885POPC   C2B15548  27.851  34.866   8.459
  885POPC   C3B15549  28.043  34.805   8.039
  885POPC   C4B15550  28.303  34.800   7.653
  886POPC   NC315551  24.530  36.077   9.495
  886POPC   PO415552  23.921  36.039   9.729
  886POPC   GL115553  24.160  35.865   9.245
  886POPC   GL215554  24.400  36.223   9.029
  886POPC   C1A15555  24.314  35.806   8.819
  886POPC   D2A15556  24.344  36.126   8.485
  886POPC   C3A15557  24.455  36.036   8.080
  886POPC   C4A15558  24.630  35.985   7.679
  886POPC   C1B15559  24.647  36.481   8.719
  886POPC   C2B15560  24.660  36.489   8.247
  886POPC   C3B15561  24.548  36.460   7.820
  886POPC   C4B15562  24.499  36.342   7.344
  887POPC   NC315563   9.548  32.413   9.880
  887POPC   PO415564  10.144  32.050   9.626
  887POPC   GL115565   9.967  32.276   9.259
  887POPC   GL215566   9.596  32.339   9.286
  887POPC   C1A15567   9.845  32.141   8.867
  887POPC   D2A15568   9.654  32.192   8.486
  887POPC   C3A15569   9.985  32.278   8.205
  887POPC   C4A15570   9.881  32.357   7.808
  887POPC   C1B15571   9.459  32.499   8.878
  887POPC   C2B15572   9.280  32.554   8.425
  887POPC   C3B15573   9.407  32.423   7.990
  887POPC   C4B15574   9.472  32.379   7.509
  888POPC   NC315575  16.121   3.889   9.348
  888POPC   PO415576  15.930   4.599   9.306
  888POPC   GL115577  15.974   4.265   9.043
  888POPC   GL215578  15.660   4.149   9.162
  888POPC   C1A15579  16.183   4.159   8.657
  888POPC   D2A15580  16.244   4.220   8.201
  888POPC   C3A15581  16.219   4.642   8.023
  888POPC   C4A15582  16.262   4.529   7.608
  888POPC   C1B15583  15.584   4.353   8.741
  888POPC   C2B15584  15.735   4.232   8.327
  888POPC   C3B15585  15.820   4.337   7.891
  888POPC   C4B15586  15.479   4.495   7.650
  889POPC   NC315587   0.684  26.115   9.460
  889POPC   PO415588  44.988  26.198   9.320
  889POPC   GL115589   0.335  26.227   9.087
  889POPC   GL215590   0.487  25.886   9.053
  889POPC   C1A15591   0.386  26.170   8.656
  889POPC   D2A15592   0.633  26.059   8.309
  889POPC   C3A15593   0.445  26.313   8.007
  889POPC   C4A15594   0.079  26.356   7.782
  889POPC   C1B15595   0.754  25.689   8.706
  889POPC   C2B15596   1.021  25.680   8.346
  889POPC   C3B15597   1.001  25.768   7.934
  889POPC   C4B15598   0.662  25.931   7.758
  890POPC   NC315599  20.992  18.151   9.472
  890POPC   PO415600  21.431  18.585   9.442
  890POPC   GL115601  21.313  18.512   9.065
  890POPC   GL215602  20.975  18.422   9.043
  890POPC   C1A15603  21.620  18.348   8.815
  890POPC   D2A15604  21.623  18.172   8.445
  890POPC   C3A15605  21.418  18.414   8.150
  890POPC   C4A15606  21.523  18.271   7.777
  890POPC   C1B15607  21.137  18.243   8.651
  890POPC   C2B15608  21.195  17.961   8.274
  890POPC   C3B15609  21.068  18.082   7.888
  890POPC   C4B15610  21.087  18.539   7.725
  891POPC   NC315611   3.321  25.812   9.464
  891POPC   PO415612   3.890  26.259   9.484
  891POPC   GL115613   3.762  25.927   9.186
  891POPC   GL215614   3.477  26.092   9.071
  891POPC   C1A15615   3.666  25.668   8.809
  891POPC   D2A15616   3.388  25.913   8.527
  891POPC   C3A15617   3.397  25.749   8.106
  891POPC   C4A15618   3.399  25.949   7.718
  891POPC   C1B15619   3.412  26.447   8.834
  891POPC   C2B15620   3.304  26.472   8.426
  891POPC   C3B15621   3.534  26.271   8.120
  891POPC   C4B15622   3.661  26.417   7.746
  892POPC   NC315623  39.641  39.529   9.339
  892POPC   PO415624  40.073  40.052   9.537
  892POPC   GL115625  40.039  39.856   9.189
  892POPC   GL215626  39.701  40.006   9.148
  892POPC   C1A15627  40.117  40.051   8.807
  892POPC   D2A15628  40.088  40.251   8.405
  892POPC   C3A15629  40.328  39.998   8.132
  892POPC   C4A15630  40.256  39.953   7.707
  892POPC   C1B15631  39.622  40.168   8.723
  892POPC   C2B15632  39.623  40.066   8.284
  892POPC   C3B15633  39.760  39.970   7.888
  892POPC   C4B15634  39.608  39.598   7.691
  893POPC   NC315635   9.601  11.313   9.613
  893POPC   PO415636  10.287  11.423   9.540
  893POPC   GL115637   9.914  11.501   9.217
  893POPC   GL215638   9.609  11.279   9.113
  893POPC   C1A15639   9.790  11.573   8.751
  893POPC   D2A15640   9.535  11.475   8.396
  893POPC   C3A15641   9.775  11.434   8.038
  893POPC   C4A15642   9.891  11.737   7.766
  893POPC   C1B15643   9.679  11.062   8.708
  893POPC   C2B15644   9.449  10.984   8.314
  893POPC   C3B15645   9.554  11.008   7.861
  893POPC   C4B15646   9.617  10.825   7.444
  894POPC   NC315647  22.198  41.208   9.319
  894POPC   PO415648  22.133  40.509   9.505
  894POPC   GL115649  22.044  40.742   9.146
  894POPC   GL215650  22.378  40.754   9.090
  894POPC   C1A15651  22.036  40.679   8.718
  894POPC   D2A15652  22.144  40.836   8.308
  894POPC   C3A15653  21.991  40.554   8.027
  894POPC   C4A15654  21.851  40.523   7.647
  894POPC   C1B15655  22.434  40.998   8.714
  894POPC   C2B15656  22.654  40.983   8.315
  894POPC   C3B15657  22.583  41.059   7.900
  894POPC   C4B15658  22.320  40.784   7.737
  895POPC   NC315659   6.511  24.888   9.575
  895POPC   PO415660   6.933  25.415   9.440
  895POPC   GL115661   6.809  25.079   9.189
  895POPC   GL215662   6.454  25.163   9.154
  895POPC   C1A15663   6.842  24.967   8.752
  895POPC   D2A15664   6.898  24.766   8.349
  895POPC   C3A15665   6.802  24.937   7.936
  895POPC   C4A15666   6.425  24.997   7.691
  895POPC   C1B15667   6.326  25.056   8.745
  895POPC   C2B15668   6.527  25.142   8.330
  895POPC   C3B15669   6.432  25.429   7.987
  895POPC   C4B15670   6.146  25.419   7.645
  896POPC   NC315671   5.319  27.070   9.557
  896POPC   PO415672   4.703  26.712   9.535
  896POPC   GL115673   4.992  26.843   9.171
  896POPC   GL215674   5.189  27.152   9.084
  896POPC   C1A15675   4.983  26.851   8.723
  896POPC   D2A15676   4.736  26.944   8.373
  896POPC   C3A15677   5.024  26.958   8.043
  896POPC   C4A15678   4.977  26.759   7.682
  896POPC   C1B15679   5.346  27.419   8.747
  896POPC   C2B15680   5.389  27.375   8.315
  896POPC   C3B15681   5.264  27.424   7.905
  896POPC   C4B15682   5.167  27.214   7.536
  897POPC   NC315683   6.974  14.589   9.534
  897POPC   PO415684   6.500  14.056   9.644
  897POPC   GL115685   6.519  14.512   9.316
  897POPC   GL215686   6.168  14.717   9.352
  897POPC   C1A15687   6.627  14.643   8.860
  897POPC   D2A15688   6.710  14.334   8.521
  897POPC   C3A15689   6.573  14.436   8.097
  897POPC   C4A15690   6.599  14.341   7.665
  897POPC   C1B15691   6.102  14.711   8.904
  897POPC   C2B15692   6.281  14.640   8.480
  897POPC   C3B15693   6.219  14.813   8.083
  897POPC   C4B15694   6.444  14.829   7.706
  898POPC   NC315695   1.545  28.228   9.466
  898POPC   PO415696   0.982  28.598   9.455
  898POPC   GL115697   1.258  28.486   9.152
  898POPC   GL215698   1.097  28.157   9.084
  898POPC   C1A15699   1.445  28.324   8.771
  898POPC   D2A15700   1.474  28.574   8.373
  898POPC   C3A15701   1.393  28.488   7.935
  898POPC   C4A15702   1.497  28.082   7.711
  898POPC   C1B15703   1.006  28.541   8.734
  898POPC   C2B15704   0.926  28.486   8.304
  898POPC   C3B15705   1.030  28.150   8.018
  898POPC   C4B15706   1.061  28.295   7.582
  899POPC   NC315707  10.286  32.505   9.576
  899POPC   PO415708  10.831  32.005   9.521
  899POPC   GL115709  10.541  32.211   9.247
  899POPC   GL215710  10.666  32.538   9.224
  899POPC   C1A15711  10.454  32.331   8.822
  899POPC   D2A15712  10.485  32.145   8.439
  899POPC   C3A15713  10.511  32.371   8.093
  899POPC   C4A15714  10.358  32.306   7.699
  899POPC   C1B15715  10.914  32.614   8.883
  899POPC   C2B15716  10.897  32.647   8.458
  899POPC   C3B15717  10.809  32.795   8.067
  899POPC   C4B15718  10.742  32.653   7.703
  900POPC   NC315719  35.296  40.313   9.511
  900POPC   PO415720  35.354  39.642   9.384
  900POPC   GL115721  35.233  39.990   9.109
  900POPC   GL215722  35.535  40.149   9.085
  900POPC   C1A15723  35.121  40.201   8.714
  900POPC   D2A15724  35.133  40.063   8.306
  900POPC   C3A15725  35.232  40.305   7.971
  900POPC   C4A15726  35.306  40.038   7.625
  900POPC   C1B15727  35.628  40.047   8.691
  900POPC   C2B15728  35.652  40.228   8.310
  900POPC   C3B15729  35.590  39.934   8.038
  900POPC   C4B15730  35.712  39.712   7.716
  901POPC   NC315731  43.122  44.117   9.479
  901POPC   PO415732  43.454  43.549   9.800
  901POPC   GL115733  43.380  43.628   9.309
  901POPC   GL215734  43.005  43.638   9.254
  901POPC   C1A15735  43.425  43.787   8.850
  901POPC   D2A15736  43.555  43.785   8.373
  901POPC   C3A15737  43.394  44.134   8.104
  901POPC   C4A15738  43.251  44.082   7.664
  901POPC   C1B15739  42.831  43.635   8.834
  901POPC   C2B15740  43.036  43.844   8.482
  901POPC   C3B15741  42.929  43.907   8.062
  901POPC   C4B15742  42.742  44.123   7.746
  902POPC   NC315743  16.670  42.768   9.527
  902POPC   PO415744  16.787  42.087   9.523
  902POPC   GL115745  16.600  42.357   9.235
  902POPC   GL215746  16.957  42.444   9.163
  902POPC   C1A15747  16.544  42.384   8.803
  902POPC   D2A15748  16.659  42.131   8.472
  902POPC   C3A15749  16.646  42.248   8.041
  902POPC   C4A15750  16.541  42.306   7.596
  902POPC   C1B15751  17.014  42.133   8.842
  902POPC   C2B15752  17.204  42.017   8.447
  902POPC   C3B15753  17.173  41.976   7.997
  902POPC   C4B15754  17.046  42.279   7.690
  903POPC   NC315755  36.383  18.227   9.466
  903POPC   PO415756  35.693  18.291   9.505
  903POPC   GL115757  35.830  17.999   9.150
  903POPC   GL215758  36.166  17.964   9.097
  903POPC   C1A15759  35.862  18.075   8.696
  903POPC   D2A15760  36.151  18.291   8.367
  903POPC   C3A15761  36.122  18.325   7.904
  903POPC   C4A15762  36.117  18.643   7.527
  903POPC   C1B15763  36.386  18.051   8.774
  903POPC   C2B15764  36.489  17.917   8.422
  903POPC   C3B15765  36.584  18.116   8.115
  903POPC   C4B15766  36.488  17.937   7.768
  904POPC   NC315767   0.751  36.654   9.437
  904POPC   PO415768   1.233  37.041   9.725
  904POPC   GL115769   1.216  36.833   9.296
  904POPC   GL215770   0.950  36.978   9.127
  904POPC   C1A15771   1.278  36.747   8.838
  904POPC   D2A15772   1.138  36.906   8.441
  904POPC   C3A15773   1.341  36.734   8.094
  904POPC   C4A15774   1.157  36.819   7.741
  904POPC   C1B15775   1.045  37.249   8.829
  904POPC   C2B15776   0.912  37.386   8.453
  904POPC   C3B15777   0.812  37.197   8.121
  904POPC   C4B15778   0.889  37.244   7.738
  905POPC   NC315779  18.624  10.525   9.441
  905POPC   PO415780  18.073  10.723   9.405
  905POPC   GL115781  18.259  10.347   9.139
  905POPC   GL215782  18.454  10.060   9.258
  905POPC   C1A15783  18.149  10.246   8.704
  905POPC   D2A15784  18.282  10.431   8.339
  905POPC   C3A15785  18.056  10.567   8.004
  905POPC   C4A15786  18.394  10.684   7.747
  905POPC   C1B15787  18.630  10.112   8.838
  905POPC   C2B15788  18.500   9.981   8.410
  905POPC   C3B15789  18.486  10.128   7.960
  905POPC   C4B15790  18.161  10.229   7.625
  906POPC   NC315791   7.592  19.975   9.448
  906POPC   PO415792   7.990  19.396   9.364
  906POPC   GL115793   7.650  19.633   9.059
  906POPC   GL215794   7.719  19.778   8.782
  906POPC   C1A15795   7.220  19.800   8.840
  906POPC   D2A15796   7.221  19.972   8.439
  906POPC   C3A15797   7.048  19.858   8.053
  906POPC   C4A15798   7.286  19.725   7.706
  906POPC   C1B15799   7.512  19.469   8.570
  906POPC   C2B15800   7.475  19.603   8.198
  906POPC   C3B15801   7.604  19.981   8.035
  906POPC   C4B15802   7.801  19.746   7.735
  907POPC   NC315803  14.065  22.093   9.425
  907POPC   PO415804  14.177  22.710   9.516
  907POPC   GL115805  14.397  22.427   9.191
  907POPC   GL215806  14.586  22.117   9.236
  907POPC   C1A15807  14.440  22.258   8.760
  907POPC   D2A15808  14.589  22.442   8.359
  907POPC   C3A15809  14.323  22.237   8.059
  907POPC   C4A15810  14.197  22.061   7.668
  907POPC   C1B15811  14.819  21.913   8.890
  907POPC   C2B15812  14.794  21.960   8.472
  907POPC   C3B15813  14.484  21.777   8.242
  907POPC   C4B15814  14.640  21.876   7.847
  908POPC   NC315815  10.924  30.157   9.443
  908POPC   PO415816  11.232  30.801   9.434
  908POPC   GL115817  11.055  30.630   9.129
  908POPC   GL215818  11.213  30.322   9.073
  908POPC   C1A15819  11.008  30.795   8.737
  908POPC   D2A15820  11.321  30.920   8.459
  908POPC   C3A15821  11.188  30.694   8.107
  908POPC   C4A15822  11.273  30.850   7.717
  908POPC   C1B15823  11.449  30.550   8.807
  908POPC   C2B15824  11.598  30.493   8.409
  908POPC   C3B15825  11.664  30.596   7.973
  908POPC   C4B15826  11.680  30.605   7.547
  909POPC   NC315827  32.345  27.954   9.536
  909POPC   PO415828  31.860  28.396   9.478
  909POPC   GL115829  32.272  28.396   9.215
  909POPC   GL215830  32.422  28.067   9.051
  909POPC   C1A15831  32.327  28.474   8.763
  909POPC   D2A15832  32.080  28.299   8.401
  909POPC   C3A15833  32.225  28.459   7.994
  909POPC   C4A15834  32.375  28.389   7.598
  909POPC   C1B15835  32.397  27.975   8.617
  909POPC   C2B15836  32.471  28.034   8.167
  909POPC   C3B15837  32.349  27.926   7.731
  909POPC   C4B15838  32.503  27.831   7.304
  910POPC   NC315839  35.973  35.147   9.453
  910POPC   PO415840  36.450  35.651   9.301
  910POPC   GL115841  36.031  35.552   9.094
  910POPC   GL215842  35.968  35.207   8.952
  910POPC   C1A15843  36.101  35.613   8.659
  910POPC   D2A15844  36.495  35.635   8.410
  910POPC   C3A15845  36.411  35.548   7.998
  910POPC   C4A15846  36.056  35.323   7.941
  910POPC   C1B15847  36.411  35.218   8.776
  910POPC   C2B15848  36.676  35.105   8.430
  910POPC   C3B15849  36.434  35.010   8.072
  910POPC   C4B15850  36.098  34.847   7.761
  911POPC   NC315851   5.532  16.639   9.591
  911POPC   PO415852   6.230  16.728   9.641
  911POPC   GL115853   6.029  16.646   9.217
  911POPC   GL215854   6.088  16.331   9.069
  911POPC   C1A15855   5.844  16.714   8.777
  911POPC   D2A15856   5.756  17.054   8.469
  911POPC   C3A15857   5.973  17.067   8.071
  911POPC   C4A15858   5.864  17.050   7.636
  911POPC   C1B15859   6.246  16.425   8.677
  911POPC   C2B15860   6.104  16.640   8.323
  911POPC   C3B15861   5.828  16.598   7.961
  911POPC   C4B15862   6.042  16.561   7.567
  912POPC   NC315863  42.994  37.670   9.435
  912POPC   PO415864  43.598  38.091   9.496
  912POPC   GL115865  43.388  37.876   9.151
  912POPC   GL215866  43.308  37.564   9.076
  912POPC   C1A15867  43.140  37.948   8.783
  912POPC   D2A15868  42.856  37.733   8.475
  912POPC   C3A15869  43.051  37.679   8.071
  912POPC   C4A15870  42.869  37.894   7.727
  912POPC   C1B15871  43.078  37.387   8.797
  912POPC   C2B15872  43.193  37.275   8.428
  912POPC   C3B15873  43.266  37.192   8.032
  912POPC   C4B15874  43.112  37.336   7.650
  913POPC   NC315875  25.480  22.560   9.468
  913POPC   PO415876  25.594  23.144   9.356
  913POPC   GL115877  25.847  22.890   9.046
  913POPC   GL215878  25.787  22.527   9.065
  913POPC   C1A15879  25.968  22.868   8.597
  913POPC   D2A15880  25.745  22.889   8.197
  913POPC   C3A15881  25.993  23.059   7.858
  913POPC   C4A15882  26.345  22.843   7.634
  913POPC   C1B15883  25.583  22.549   8.664
  913POPC   C2B15884  25.872  22.419   8.325
  913POPC   C3B15885  26.040  22.528   7.930
  913POPC   C4B15886  25.770  22.675   7.633
  914POPC   NC315887  42.342  23.387   9.834
  914POPC   PO415888  42.466  22.787   9.515
  914POPC   GL115889  42.343  23.012   9.129
  914POPC   GL215890  42.355  22.701   9.007
  914POPC   C1A15891  42.283  23.311   8.776
  914POPC   D2A15892  42.424  23.247   8.336
  914POPC   C3A15893  42.277  23.407   7.904
  914POPC   C4A15894  42.223  23.043   7.573
  914POPC   C1B15895  42.229  22.809   8.599
  914POPC   C2B15896  42.372  22.625   8.233
  914POPC   C3B15897  42.328  22.608   7.802
  914POPC   C4B15898  42.525  22.375   7.514
  915POPC   NC315899  44.372   2.025   9.573
  915POPC   PO415900  43.719   2.230   9.515
  915POPC   GL115901  43.897   1.988   9.180
  915POPC   GL215902  44.187   2.211   9.109
  915POPC   C1A15903  43.909   2.053   8.723
  915POPC   D2A15904  43.968   2.180   8.314
  915POPC   C3A15905  43.796   1.953   8.000
  915POPC   C4A15906  43.760   2.051   7.548
  915POPC   C1B15907  44.366   1.864   8.838
  915POPC   C2B15908  44.509   1.783   8.414
  915POPC   C3B15909  44.307   1.894   8.042
  915POPC   C4B15910  44.107   1.708   7.683
  916POPC   NC315911  43.541  29.917   9.346
  916POPC   PO415912  42.816  29.763   9.449
  916POPC   GL115913  42.828  29.921   9.088
  916POPC   GL215914  43.109  30.093   9.151
  916POPC   C1A15915  42.957  29.775   8.716
  916POPC   D2A15916  43.304  29.767   8.456
  916POPC   C3A15917  43.136  29.786   8.074
  916POPC   C4A15918  42.948  29.964   7.726
  916POPC   C1B15919  43.301  30.183   8.791
  916POPC   C2B15920  43.435  30.279   8.422
  916POPC   C3B15921  43.598  30.045   8.120
  916POPC   C4B15922  43.488  29.886   7.739
  917POPC   NC315923   3.062  33.642   9.566
  917POPC   PO415924   2.653  34.190   9.483
  917POPC   GL115925   2.873  33.954   9.160
  917POPC   GL215926   2.846  33.590   9.107
  917POPC   C1A15927   2.889  33.944   8.737
  917POPC   D2A15928   2.733  33.632   8.464
  917POPC   C3A15929   2.684  33.794   8.087
  917POPC   C4A15930   2.776  33.806   7.667
  917POPC   C1B15931   3.131  33.497   8.755
  917POPC   C2B15932   3.160  33.312   8.367
  917POPC   C3B15933   3.012  33.418   7.990
  917POPC   C4B15934   3.253  33.705   7.736
  918POPC   NC315935  10.499  31.748   9.720
  918POPC   PO415936  10.423  31.092   9.550
  918POPC   GL115937  10.511  31.330   9.185
  918POPC   GL215938  10.494  31.697   9.216
  918POPC   C1A15939  10.690  31.187   8.815
  918POPC   D2A15940  10.690  31.279   8.396
  918POPC   C3A15941  10.752  30.987   8.083
  918POPC   C4A15942  10.847  31.184   7.717
  918POPC   C1B15943  10.284  31.830   8.846
  918POPC   C2B15944  10.334  31.660   8.427
  918POPC   C3B15945  10.287  31.868   8.006
  918POPC   C4B15946   9.987  31.893   7.650
  919POPC   NC315947   6.146  26.931   9.365
  919POPC   PO415948   5.509  26.594   9.486
  919POPC   GL115949   5.707  26.611   9.138
  919POPC   GL215950   5.680  26.964   9.142
  919POPC   C1A15951   5.870  26.590   8.735
  919POPC   D2A15952   6.121  26.781   8.457
  919POPC   C3A15953   5.946  26.722   8.059
  919POPC   C4A15954   6.115  26.876   7.710
  919POPC   C1B15955   5.489  26.923   8.750
  919POPC   C2B15956   5.456  26.851   8.338
  919POPC   C3B15957   5.549  27.014   7.953
  919POPC   C4B15958   5.514  26.855   7.574
  920POPC   NC315959   1.859   6.991   9.442
  920POPC   PO415960   2.085   7.624   9.563
  920POPC   GL115961   2.115   7.539   9.140
  920POPC   GL215962   2.150   7.178   9.073
  920POPC   C1A15963   1.930   7.582   8.729
  920POPC   D2A15964   1.951   7.402   8.303
  920POPC   C3A15965   1.817   7.610   7.943
  920POPC   C4A15966   1.923   7.547   7.515
  920POPC   C1B15967   1.972   7.060   8.693
  920POPC   C2B15968   2.062   6.912   8.268
  920POPC   C3B15969   1.924   7.103   7.843
  920POPC   C4B15970   1.523   7.155   7.560
  921POPC   NC315971  32.051  13.143   9.460
  921POPC   PO415972  32.715  13.049   9.456
  921POPC   GL115973  32.424  13.054   9.143
  921POPC   GL215974  32.384  12.769   8.945
  921POPC   C1A15975  32.374  13.261   8.777
  921POPC   D2A15976  32.058  13.204   8.467
  921POPC   C3A15977  32.251  12.960   8.130
  921POPC   C4A15978  32.415  12.743   7.781
  921POPC   C1B15979  32.064  12.515   8.727
  921POPC   C2B15980  31.962  12.295   8.333
  921POPC   C3B15981  31.952  12.474   7.898
  921POPC   C4B15982  31.978  12.520   7.434
  922POPC   NC315983  13.411  44.299   9.334
  922POPC   PO415984  13.952  43.916   9.482
  922POPC   GL115985  13.769  43.907   9.108
  922POPC   GL215986  14.128  43.982   9.009
  922POPC   C1A15987  13.506  43.676   8.786
  922POPC   D2A15988  13.572  43.844   8.372
  922POPC   C3A15989  13.465  43.682   7.978
  922POPC   C4A15990  13.420  44.009   7.638
  922POPC   C1B15991  13.997  43.771   8.666
  922POPC   C2B15992  14.044  44.044   8.321
  922POPC   C3B15993  13.834  44.050   7.968
  922POPC   C4B15994  14.051  43.998   7.624
  923POPC   NC315995  43.963  26.935   9.600
  923POPC   PO415996  43.817  26.253   9.729
  923POPC   GL115997  43.820  26.420   9.220
  923POPC   GL215998  43.845  26.794   9.130
  923POPC   C1A15999  43.809  26.481   8.753
  923POPC   D2A16000  43.599  26.667   8.374
  923POPC   C3A16001  43.830  26.650   7.975
  923POPC   C4A16002  44.241  26.704   7.721
  923POPC   C1B16003  44.116  26.936   8.812
  923POPC   C2B16004  43.940  27.095   8.429
  923POPC   C3B16005  44.057  27.250   8.038
  923POPC   C4B16006  43.881  27.065   7.690
  924POPC   NC316007  26.575  32.429   9.564
  924POPC   PO416008  27.187  32.582   9.339
  924POPC   GL116009  26.891  32.304   9.184
  924POPC   GL216010  26.712  32.561   9.021
  924POPC   C1A16011  26.759  32.088   8.820
  924POPC   D2A16012  26.892  31.967   8.413
  924POPC   C3A16013  26.802  32.228   8.053
  924POPC   C4A16014  26.692  32.047   7.640
  924POPC   C1B16015  27.102  32.449   8.716
  924POPC   C2B16016  27.334  32.588   8.340
  924POPC   C3B16017  27.327  32.439   7.924
  924POPC   C4B16018  27.054  32.405   7.609
  925POPC   NC316019  30.185  25.071   9.542
  925POPC   PO416020  29.624  25.463   9.606
  925POPC   GL116021  29.884  25.399   9.205
  925POPC   GL216022  30.091  25.108   9.064
  925POPC   C1A16023  29.715  25.462   8.789
  925POPC   D2A16024  29.785  25.649   8.364
  925POPC   C3A16025  29.950  25.404   7.992
  925POPC   C4A16026  29.710  25.099   7.748
  925POPC   C1B16027  30.426  24.980   8.783
  925POPC   C2B16028  30.305  25.001   8.391
  925POPC   C3B16029  30.379  25.093   8.000
  925POPC   C4B16030  30.184  25.059   7.641
  926POPC   NC316031   8.963  25.540   9.341
  926POPC   PO416032   8.605  26.069   9.684
  926POPC   GL116033   8.829  26.023   9.218
  926POPC   GL216034   9.181  25.906   9.097
  926POPC   C1A16035   8.761  25.930   8.756
  926POPC   D2A16036   8.609  26.049   8.343
  926POPC   C3A16037   8.810  25.983   7.975
  926POPC   C4A16038   8.851  26.177   7.601
  926POPC   C1B16039   9.271  25.827   8.681
  926POPC   C2B16040   9.148  26.070   8.357
  926POPC   C3B16041   9.347  26.253   8.043
  926POPC   C4B16042   9.343  26.094   7.666
  927POPC   NC316043  29.688   5.374   9.512
  927POPC   PO416044  30.081   4.814   9.519
  927POPC   GL116045  29.900   5.035   9.169
  927POPC   GL216046  29.830   4.743   8.976
  927POPC   C1A16047  29.914   5.230   8.744
  927POPC   D2A16048  29.822   5.052   8.329
  927POPC   C3A16049  29.775   5.319   7.960
  927POPC   C4A16050  30.041   5.357   7.626
  927POPC   C1B16051  29.485   4.934   8.723
  927POPC   C2B16052  29.317   4.982   8.307
  927POPC   C3B16053  29.557   4.728   7.986
  927POPC   C4B16054  29.866   4.873   7.727
  928POPC   NC316055  19.846   7.746   9.417
  928POPC   PO416056  20.174   7.211   9.494
  928POPC   GL116057  20.255   7.185   9.087
  928POPC   GL216058  19.891   7.157   9.050
  928POPC   C1A16059  20.233   7.167   8.667
  928POPC   D2A16060  19.909   7.210   8.403
  928POPC   C3A16061  19.989   7.178   7.999
  928POPC   C4A16062  19.731   7.330   7.703
  928POPC   C1B16063  19.901   7.522   8.805
  928POPC   C2B16064  19.647   7.670   8.492
  928POPC   C3B16065  19.777   7.650   8.086
  928POPC   C4B16066  19.645   7.831   7.697
  929POPC   NC316067  19.298  35.617   9.444
  929POPC   PO416068  20.001  35.492   9.494
  929POPC   GL116069  20.013  35.400   9.039
  929POPC   GL216070  19.628  35.452   9.086
  929POPC   C1A16071  20.125  35.153   8.623
  929POPC   D2A16072  20.042  34.985   8.190
  929POPC   C3A16073  20.218  35.261   7.864
  929POPC   C4A16074  20.166  35.599   7.561
  929POPC   C1B16075  19.618  35.267   8.707
  929POPC   C2B16076  19.794  35.444   8.354
  929POPC   C3B16077  19.689  35.330   7.969
  929POPC   C4B16078  19.323  35.331   7.726
  930POPC   NC316079  11.184  37.502   9.521
  930POPC   PO416080  11.240  38.175   9.567
  930POPC   GL116081  11.246  37.900   9.191
  930POPC   GL216082  10.886  37.895   9.263
  930POPC   C1A16083  11.359  37.734   8.744
  930POPC   D2A16084  11.428  37.476   8.338
  930POPC   C3A16085  11.376  37.682   7.910
  930POPC   C4A16086  11.558  37.771   7.475
  930POPC   C1B16087  10.863  37.694   8.865
  930POPC   C2B16088  10.982  37.391   8.570
  930POPC   C3B16089  10.965  37.372   8.121
  930POPC   C4B16090  10.853  37.708   7.895
  931POPC   NC316091   3.210  13.212   9.514
  931POPC   PO416092   3.857  13.011   9.351
  931POPC   GL116093   3.502  12.940   9.164
  931POPC   GL216094   3.498  12.599   9.286
  931POPC   C1A16095   3.379  13.101   8.771
  931POPC   D2A16096   3.578  12.955   8.405
  931POPC   C3A16097   3.441  13.078   8.048
  931POPC   C4A16098   3.399  12.859   7.656
  931POPC   C1B16099   3.680  12.473   8.867
  931POPC   C2B16100   3.726  12.432   8.431
  931POPC   C3B16101   3.509  12.538   8.063
  931POPC   C4B16102   3.732  12.485   7.682
  932POPC   NC316103  19.232  32.678   9.859
  932POPC   PO416104  19.121  33.274   9.396
  932POPC   GL116105  19.096  33.054   9.054
  932POPC   GL216106  19.467  32.946   9.173
  932POPC   C1A16107  18.980  33.073   8.619
  932POPC   D2A16108  19.139  33.252   8.251
  932POPC   C3A16109  19.016  33.104   7.871
  932POPC   C4A16110  18.971  32.716   7.796
  932POPC   C1B16111  19.497  33.060   8.763
  932POPC   C2B16112  19.546  32.889   8.400
  932POPC   C3B16113  19.429  32.722   8.036
  932POPC   C4B16114  19.420  32.903   7.647
  933POPC   NC316115  41.945  31.212   9.447
  933POPC   PO416116  41.439  31.619   9.415
  933POPC   GL116117  41.510  31.276   9.146
  933POPC   GL216118  41.782  31.450   9.032
  933POPC   C1A16119  41.357  31.320   8.725
  933POPC   D2A16120  41.127  31.471   8.363
  933POPC   C3A16121  41.357  31.339   8.004
  933POPC   C4A16122  41.427  31.510   7.595
  933POPC   C1B16123  41.862  31.183   8.695
  933POPC   C2B16124  41.819  31.291   8.261
  933POPC   C3B16125  41.858  31.364   7.815
  933POPC   C4B16126  41.842  31.319   7.342
  934POPC   NC316127  18.108  42.204   9.531
  934POPC   PO416128  18.779  42.065   9.495
  934POPC   GL116129  18.426  42.109   9.152
  934POPC   GL216130  18.205  42.448   9.109
  934POPC   C1A16131  18.243  42.090   8.737
  934POPC   D2A16132  18.463  42.122   8.369
  934POPC   C3A16133  18.298  42.149   7.984
  934POPC   C4A16134  18.406  42.494   7.742
  934POPC   C1B16135  17.929  42.506   8.767
  934POPC   C2B16136  17.987  42.387   8.313
  934POPC   C3B16137  17.910  42.481   7.848
  934POPC   C4B16138  17.781  42.550   7.395
  935POPC   NC316139   7.345  39.792   9.509
  935POPC   PO416140   7.220  40.470   9.554
  935POPC   GL116141   7.328  40.193   9.144
  935POPC   GL216142   7.185  39.874   9.047
  935POPC   C1A16143   7.378  40.129   8.669
  935POPC   D2A16144   7.641  40.265   8.306
  935POPC   C3A16145   7.474  40.117   7.934
  935POPC   C4A16146   7.722  40.149   7.558
  935POPC   C1B16147   6.987  39.795   8.639
  935POPC   C2B16148   7.188  39.717   8.249
  935POPC   C3B16149   6.968  39.710   7.870
  935POPC   C4B16150   7.004  40.139   7.690
  936POPC   NC316151   1.613  20.755   9.452
  936POPC   PO416152   2.327  20.838   9.399
  936POPC   GL116153   2.025  20.702   9.066
  936POPC   GL216154   1.668  20.577   8.980
  936POPC   C1A16155   1.871  20.893   8.662
  936POPC   D2A16156   1.846  21.115   8.285
  936POPC   C3A16157   1.811  20.764   8.055
  936POPC   C4A16158   2.129  20.576   7.824
  936POPC   C1B16159   1.911  20.352   8.702
  936POPC   C2B16160   2.064  20.374   8.313
  936POPC   C3B16161   1.818  20.227   7.962
  936POPC   C4B16162   1.904  20.049   7.560
  937POPC   NC316163  44.276  22.961   9.363
  937POPC   PO416164  43.536  23.025   9.253
  937POPC   GL116165  43.860  22.911   9.092
  937POPC   GL216166  43.869  22.579   9.220
  937POPC   C1A16167  43.998  23.020   8.712
  937POPC   D2A16168  43.766  22.904   8.334
  937POPC   C3A16169  43.863  23.124   7.967
  937POPC   C4A16170  43.505  23.126   7.711
  937POPC   C1B16171  43.835  22.511   8.754
  937POPC   C2B16172  44.158  22.621   8.440
  937POPC   C3B16173  44.150  22.677   8.001
  937POPC   C4B16174  44.068  22.616   7.548
  938POPC   NC316175  19.891  21.902   9.526
  938POPC   PO416176  19.397  22.300   9.282
  938POPC   GL116177  19.820  22.294   9.171
  938POPC   GL216178  19.967  22.009   9.046
  938POPC   C1A16179  19.927  22.467   8.775
  938POPC   D2A16180  19.861  22.353   8.348
  938POPC   C3A16181  19.592  22.535   8.032
  938POPC   C4A16182  19.570  22.494   7.580
  938POPC   C1B16183  19.793  21.957   8.685
  938POPC   C2B16184  19.956  21.848   8.302
  938POPC   C3B16185  19.999  21.947   7.862
  938POPC   C4B16186  20.024  21.683   7.487
  939POPC   NC316187   6.305  36.037   9.451
  939POPC   PO416188   5.584  36.134   9.578
  939POPC   GL116189   5.806  35.971   9.220
  939POPC   GL216190   5.899  36.282   9.113
  939POPC   C1A16191   5.819  35.855   8.757
  939POPC   D2A16192   5.639  35.799   8.312
  939POPC   C3A16193   5.921  36.027   8.008
  939POPC   C4A16194   5.900  36.130   7.555
  939POPC   C1B16195   5.655  36.401   8.754
  939POPC   C2B16196   5.630  36.302   8.319
  939POPC   C3B16197   5.666  36.471   7.874
  939POPC   C4B16198   5.606  36.495   7.373
  940POPC   NC316199   6.366   8.143   9.745
  940POPC   PO416200   6.766   7.798   9.291
  940POPC   GL116201   6.546   8.084   9.071
  940POPC   GL216202   6.387   8.372   9.148
  940POPC   C1A16203   6.726   8.338   8.739
  940POPC   D2A16204   6.917   8.410   8.330
  940POPC   C3A16205   6.753   8.373   7.902
  940POPC   C4A16206   6.639   8.130   7.550
  940POPC   C1B16207   6.212   8.334   8.793
  940POPC   C2B16208   6.366   8.410   8.392
  940POPC   C3B16209   6.252   8.279   8.015
  940POPC   C4B16210   6.290   8.451   7.651
  941POPC   NC316211  15.816   1.423   9.457
  941POPC   PO416212  16.011   0.870   9.735
  941POPC   GL116213  16.098   1.008   9.286
  941POPC   GL216214  16.426   0.841   9.146
  941POPC   C1A16215  15.810   1.152   8.891
  941POPC   D2A16216  15.752   1.429   8.525
  941POPC   C3A16217  15.734   1.248   8.154
  941POPC   C4A16218  16.035   1.238   7.840
  941POPC   C1B16219  16.082   0.732   8.851
  941POPC   C2B16220  15.870   0.858   8.462
  941POPC   C3B16221  15.985   0.761   8.042
  941POPC   C4B16222  16.402   0.868   7.855
  942POPC   NC316223  40.046  32.553   9.587
  942POPC   PO416224  39.915  33.221   9.525
  942POPC   GL116225  39.976  33.125   9.146
  942POPC   GL216226  40.001  32.761   9.108
  942POPC   C1A16227  40.102  33.186   8.761
  942POPC   D2A16228  40.097  32.918   8.427
  942POPC   C3A16229  39.987  33.093   8.062
  942POPC   C4A16230  40.152  32.879   7.733
  942POPC   C1B16231  39.702  32.864   8.770
  942POPC   C2B16232  39.537  32.728   8.350
  942POPC   C3B16233  39.646  32.739   7.866
  942POPC   C4B16234  39.718  33.154   7.621
  943POPC   NC316235  17.583   5.330   9.684
  943POPC   PO416236  17.192   4.860   9.485
  943POPC   GL116237  17.427   5.134   9.221
  943POPC   GL216238  17.600   4.852   9.124
  943POPC   C1A16239  17.547   5.235   8.774
  943POPC   D2A16240  17.294   5.106   8.381
  943POPC   C3A16241  17.407   5.309   7.979
  943POPC   C4A16242  17.791   5.529   7.888
  943POPC   C1B16243  17.345   4.764   8.805
  943POPC   C2B16244  17.509   4.634   8.410
  943POPC   C3B16245  17.551   4.820   8.029
  943POPC   C4B16246  17.260   4.898   7.695
  944POPC   NC316247  33.182  13.107   9.468
  944POPC   PO416248  33.031  12.509   9.436
  944POPC   GL116249  32.880  12.661   9.063
  944POPC   GL216250  32.904  13.025   9.003
  944POPC   C1A16251  32.853  12.677   8.638
  944POPC   D2A16252  32.736  12.961   8.358
  944POPC   C3A16253  32.870  12.750   8.001
  944POPC   C4A16254  32.904  12.862   7.556
  944POPC   C1B16255  33.216  13.002   8.734
  944POPC   C2B16256  33.247  13.155   8.320
  944POPC   C3B16257  33.231  13.095   7.887
  944POPC   C4B16258  33.371  13.143   7.457
  945POPC   NC316259  44.852  18.224   9.587
  945POPC   PO416260   0.325  17.756   9.766
  945POPC   GL116261   0.148  17.904   9.276
  945POPC   GL216262  44.926  18.237   9.096
  945POPC   C1A16263   0.039  17.897   8.780
  945POPC   D2A16264  44.728  18.047   8.439
  945POPC   C3A16265  44.786  18.117   7.990
  945POPC   C4A16266  44.714  18.053   7.526
  945POPC   C1B16267  44.710  18.472   8.727
  945POPC   C2B16268  44.430  18.474   8.319
  945POPC   C3B16269  44.490  18.616   7.872
  945POPC   C4B16270  44.569  18.823   7.446
  946POPC   NC316271  37.882  31.327   9.397
  946POPC   PO416272  37.471  31.778   9.721
  946POPC   GL116273  37.586  31.727   9.290
  946POPC   GL216274  37.459  31.392   9.092
  946POPC   C1A16275  37.638  31.798   8.856
  946POPC   D2A16276  37.467  31.619   8.538
  946POPC   C3A16277  37.634  31.609   8.163
  946POPC   C4A16278  37.672  31.459   7.768
  946POPC   C1B16279  37.809  31.314   8.759
  946POPC   C2B16280  37.914  31.226   8.321
  946POPC   C3B16281  37.874  31.009   7.908
  946POPC   C4B16282  37.891  31.139   7.450
  947POPC   NC316283  34.021   0.459   9.456
  947POPC   PO416284  33.440   0.184   9.214
  947POPC   GL116285  33.759   0.343   9.027
  947POPC   GL216286  33.716   0.676   9.115
  947POPC   C1A16287  33.818   0.427   8.626
  947POPC   D2A16288  33.733   0.579   8.262
  947POPC   C3A16289  33.772   0.249   7.997
  947POPC   C4A16290  34.092   0.246   7.713
  947POPC   C1B16291  33.515   0.837   8.749
  947POPC   C2B16292  33.264   0.711   8.402
  947POPC   C3B16293  33.401   0.876   8.018
  947POPC   C4B16294  33.683   0.706   7.725
  948POPC   NC316295   7.706  34.341   9.353
  948POPC   PO416296   7.303  34.804   9.438
  948POPC   GL116297   7.316  34.695   9.028
  948POPC   GL216298   7.648  34.796   9.010
  948POPC   C1A16299   7.105  34.472   8.679
  948POPC   D2A16300   7.106  34.509   8.227
  948POPC   C3A16301   7.498  34.559   8.040
  948POPC   C4A16302   7.559  34.659   7.628
  948POPC   C1B16303   7.568  34.758   8.554
  948POPC   C2B16304   7.599  35.062   8.223
  948POPC   C3B16305   7.616  35.144   7.778
  948POPC   C4B16306   7.712  35.061   7.308
  949POPC   NC316307  44.910   4.861   9.552
  949POPC   PO416308  44.209   4.928   9.659
  949POPC   GL116309  44.434   4.829   9.295
  949POPC   GL216310  44.618   5.108   9.199
  949POPC   C1A16311  44.460   4.785   8.816
  949POPC   D2A16312  44.767   4.827   8.464
  949POPC   C3A16313  44.808   4.858   7.994
  949POPC   C4A16314  44.472   5.045   7.722
  949POPC   C1B16315  44.820   5.211   8.802
  949POPC   C2B16316   0.024   5.245   8.373
  949POPC   C3B16317  44.974   5.361   7.965
  949POPC   C4B16318  44.959   5.203   7.600
  950POPC   NC316319  41.189  25.362   9.535
  950POPC   PO416320  40.579  25.479   9.606
  950POPC   GL116321  40.739  25.377   9.154
  950POPC   GL216322  41.061  25.265   9.082
  950POPC   C1A16323  40.856  25.410   8.664
  950POPC   D2A16324  40.977  25.386   8.226
  950POPC   C3A16325  40.671  25.413   7.909
  950POPC   C4A16326  40.487  25.819   7.719
  950POPC   C1B16327  41.193  25.016   8.793
  950POPC   C2B16328  41.047  24.934   8.411
  950POPC   C3B16329  41.270  24.962   8.054
  950POPC   C4B16330  41.097  25.157   7.731
  951POPC   NC316331   9.197  13.104   9.463
  951POPC   PO416332   8.893  12.515   9.404
  951POPC   GL116333   9.149  12.781   9.076
  951POPC   GL216334   9.119  13.177   8.976
  951POPC   C1A16335   9.323  12.817   8.660
  951POPC   D2A16336   9.089  12.918   8.273
  951POPC   C3A16337   9.200  12.613   7.972
  951POPC   C4A16338   9.237  12.438   7.553
  951POPC   C1B16339   8.710  13.224   8.793
  951POPC   C2B16340   8.577  13.027   8.415
  951POPC   C3B16341   8.632  13.083   7.971
  951POPC   C4B16342   9.057  13.041   7.751
  952POPC   NC316343  16.249  29.741   9.448
  952POPC   PO416344  16.274  30.369   9.391
  952POPC   GL116345  15.924  30.122   9.158
  952POPC   GL216346  15.903  29.768   9.085
  952POPC   C1A16347  15.914  30.053   8.671
  952POPC   D2A16348  16.192  29.842   8.312
  952POPC   C3A16349  16.246  30.111   7.889
  952POPC   C4A16350  16.208  30.198   7.379
  952POPC   C1B16351  15.966  29.526   8.727
  952POPC   C2B16352  15.735  29.273   8.474
  952POPC   C3B16353  15.739  29.357   8.051
  952POPC   C4B16354  16.007  29.646   7.857
  953POPC   NC316355  38.444   9.119   9.887
  953POPC   PO416356  38.681   8.708   9.603
  953POPC   GL116357  38.472   9.066   9.348
  953POPC   GL216358  38.666   9.342   9.198
  953POPC   C1A16359  38.351   9.065   8.905
  953POPC   D2A16360  38.431   9.178   8.460
  953POPC   C3A16361  38.312   8.879   8.094
  953POPC   C4A16362  38.440   8.656   7.689
  953POPC   C1B16363  38.840   9.180   8.785
  953POPC   C2B16364  38.897   9.062   8.314
  953POPC   C3B16365  38.694   9.145   7.906
  953POPC   C4B16366  38.569   9.091   7.464
  954POPC   NC316367   5.624   5.480   9.055
  954POPC   PO416368   5.804   6.035   9.426
  954POPC   GL116369   6.130   6.077   9.112
  954POPC   GL216370   5.855   5.937   8.923
  954POPC   C1A16371   6.156   6.270   8.712
  954POPC   D2A16372   5.870   6.113   8.424
  954POPC   C3A16373   6.027   6.087   8.044
  954POPC   C4A16374   5.877   5.831   7.745
  954POPC   C1B16375   6.039   5.665   8.631
  954POPC   C2B16376   5.820   5.506   8.301
  954POPC   C3B16377   5.641   5.433   7.918
  954POPC   C4B16378   5.653   5.422   7.465
  955POPC   NC316379  32.398  34.869   9.581
  955POPC   PO416380  32.489  34.299   9.661
  955POPC   GL116381  32.276  34.472   9.253
  955POPC   GL216382  32.420  34.172   9.038
  955POPC   C1A16383  32.272  34.591   8.809
  955POPC   D2A16384  32.423  34.547   8.387
  955POPC   C3A16385  32.154  34.698   8.065
  955POPC   C4A16386  32.429  34.672   7.742
  955POPC   C1B16387  32.084  34.131   8.664
  955POPC   C2B16388  32.047  34.208   8.200
  955POPC   C3B16389  32.150  34.151   7.738
  955POPC   C4B16390  31.899  34.098   7.345
  956POPC   NC316391  33.105  17.086   9.443
  956POPC   PO416392  33.395  17.630   9.588
  956POPC   GL116393  33.221  17.516   9.148
  956POPC   GL216394  32.867  17.384   9.104
  956POPC   C1A16395  33.094  17.675   8.722
  956POPC   D2A16396  32.869  17.486   8.364
  956POPC   C3A16397  32.989  17.585   7.939
  956POPC   C4A16398  32.737  17.659   7.563
  956POPC   C1B16399  33.050  17.168   8.751
  956POPC   C2B16400  33.145  17.040   8.358
  956POPC   C3B16401  33.222  17.113   7.960
  956POPC   C4B16402  33.546  16.878   7.836
  957POPC   NC316403  16.099  28.936   9.495
  957POPC   PO416404  15.745  29.528   9.507
  957POPC   GL116405  15.849  29.254   9.155
  957POPC   GL216406  16.212  29.308   9.144
  957POPC   C1A16407  15.883  28.897   8.846
  957POPC   D2A16408  16.107  28.754   8.471
  957POPC   C3A16409  15.905  28.897   8.129
  957POPC   C4A16410  15.820  28.895   7.674
  957POPC   C1B16411  16.327  29.134   8.739
  957POPC   C2B16412  16.236  29.286   8.310
  957POPC   C3B16413  16.246  29.171   7.866
  957POPC   C4B16414  16.155  29.329   7.445
  958POPC   NC316415   8.052  25.200   9.573
  958POPC   PO416416   8.496  25.645   9.368
  958POPC   GL116417   8.363  25.284   9.171
  958POPC   GL216418   8.028  25.263   9.058
  958POPC   C1A16419   8.457  25.249   8.761
  958POPC   D2A16420   8.463  25.495   8.448
  958POPC   C3A16421   8.490  25.326   8.072
  958POPC   C4A16422   8.518  25.593   7.746
  958POPC   C1B16423   7.963  25.428   8.663
  958POPC   C2B16424   7.967  25.453   8.244
  958POPC   C3B16425   8.038  25.418   7.832
  958POPC   C4B16426   8.276  25.085   7.631
  959POPC   NC316427  10.922  28.280   9.546
  959POPC   PO416428  11.586  28.347   9.654
  959POPC   GL116429  11.451  28.357   9.235
  959POPC   GL216430  11.199  28.593   9.213
  959POPC   C1A16431  11.405  28.190   8.811
  959POPC   D2A16432  11.556  28.313   8.417
  959POPC   C3A16433  11.261  28.240   8.105
  959POPC   C4A16434  11.260  28.195   7.654
  959POPC   C1B16435  11.160  28.642   8.749
  959POPC   C2B16436  11.258  28.739   8.298
  959POPC   C3B16437  11.365  28.672   7.835
  959POPC   C4B16438  11.156  28.607   7.392
  960POPC   NC316439  34.666   2.357   9.471
  960POPC   PO416440  34.101   1.930   9.580
  960POPC   GL116441  34.334   1.997   9.251
  960POPC   GL216442  34.198   2.313   9.227
  960POPC   C1A16443  34.376   1.850   8.862
  960POPC   D2A16444  34.670   1.636   8.589
  960POPC   C3A16445  34.626   1.691   8.158
  960POPC   C4A16446  34.773   2.019   7.895
  960POPC   C1B16447  34.436   2.354   8.853
  960POPC   C2B16448  34.453   2.119   8.448
  960POPC   C3B16449  34.278   2.066   8.067
  960POPC   C4B16450  34.139   1.824   7.742
  961POPC   NC316451  17.844  26.306   9.402
  961POPC   PO416452  17.363  25.792   9.490
  961POPC   GL116453  17.571  25.938   9.135
  961POPC   GL216454  17.938  25.806   9.181
  961POPC   C1A16455  17.421  26.236   8.815
  961POPC   D2A16456  17.217  26.334   8.418
  961POPC   C3A16457  17.344  26.207   8.017
  961POPC   C4A16458  17.583  26.291   7.639
  961POPC   C1B16459  17.794  25.671   8.766
  961POPC   C2B16460  17.467  25.827   8.480
  961POPC   C3B16461  17.417  25.695   8.085
  961POPC   C4B16462  17.391  25.821   7.659
  962POPC   NC316463   5.210   2.511   9.393
  962POPC   PO416464   5.581   3.068   9.392
  962POPC   GL116465   5.299   2.938   9.064
  962POPC   GL216466   5.268   2.604   8.895
  962POPC   C1A16467   5.015   3.076   8.725
  962POPC   D2A16468   4.775   3.061   8.327
  962POPC   C3A16469   5.030   2.823   8.029
  962POPC   C4A16470   5.204   2.904   7.640
  962POPC   C1B16471   5.495   2.367   8.560
  962POPC   C2B16472   5.450   2.263   8.136
  962POPC   C3B16473   5.255   2.410   7.763
  962POPC   C4B16474   4.971   2.229   7.476
  963POPC   NC316475  43.344  41.454   9.392
  963POPC   PO416476  44.097  41.436   9.480
  963POPC   GL116477  44.196  41.553   9.071
  963POPC   GL216478  43.885  41.733   9.075
  963POPC   C1A16479  44.148  41.615   8.627
  963POPC   D2A16480  44.186  41.485   8.219
  963POPC   C3A16481  43.841  41.378   8.008
  963POPC   C4A16482  43.844  41.562   7.622
  963POPC   C1B16483  43.745  41.944   8.706
  963POPC   C2B16484  43.675  41.781   8.291
  963POPC   C3B16485  43.608  41.986   7.910
  963POPC   C4B16486  43.497  41.908   7.498
  964POPC   NC316487  42.282  39.838   9.422
  964POPC   PO416488  42.805  40.190   9.580
  964POPC   GL116489  42.530  40.240   9.199
  964POPC   GL216490  42.731  40.343   8.953
  964POPC   C1A16491  42.308  40.085   8.790
  964POPC   D2A16492  42.288  40.067   8.325
  964POPC   C3A16493  42.154  39.734   8.100
  964POPC   C4A16494  42.073  39.884   7.693
  964POPC   C1B16495  42.707  40.289   8.520
  964POPC   C2B16496  42.789  39.967   8.218
  964POPC   C3B16497  42.556  39.901   7.861
  964POPC   C4B16498  42.512  39.727   7.464
  965POPC   NC316499  35.724   9.640   9.598
  965POPC   PO416500  35.921  10.153   9.588
  965POPC   GL116501  35.889   9.993   9.134
  965POPC   GL216502  35.586   9.780   9.101
  965POPC   C1A16503  36.038  10.050   8.668
  965POPC   D2A16504  36.212  10.108   8.219
  965POPC   C3A16505  35.924  10.169   7.858
  965POPC   C4A16506  35.860   9.988   7.446
  965POPC   C1B16507  35.790   9.602   8.721
  965POPC   C2B16508  36.088   9.615   8.367
  965POPC   C3B16509  36.003   9.673   7.925
  965POPC   C4B16510  35.703   9.522   7.598
  966POPC   NC316511  24.932  14.543   9.333
  966POPC   PO416512  25.192  13.916   9.304
  966POPC   GL116513  25.343  14.310   9.145
  966POPC   GL216514  25.045  14.356   8.889
  966POPC   C1A16515  25.491  14.599   8.839
  966POPC   D2A16516  25.297  14.578   8.424
  966POPC   C3A16517  25.587  14.570   8.083
  966POPC   C4A16518  25.495  14.639   7.659
  966POPC   C1B16519  25.357  14.112   8.669
  966POPC   C2B16520  25.415  14.099   8.224
  966POPC   C3B16521  25.203  14.286   7.888
  966POPC   C4B16522  25.182  14.173   7.444
  967POPC   NC316523   7.758  14.540   9.443
  967POPC   PO416524   8.379  14.801   9.442
  967POPC   GL116525   8.167  14.476   9.129
  967POPC   GL216526   7.806  14.535   8.949
  967POPC   C1A16527   8.185  14.266   8.728
  967POPC   D2A16528   8.257  14.456   8.334
  967POPC   C3A16529   8.450  14.285   7.973
  967POPC   C4A16530   8.399  14.320   7.518
  967POPC   C1B16531   7.643  14.167   8.749
  967POPC   C2B16532   7.698  13.994   8.340
  967POPC   C3B16533   7.953  14.180   8.016
  967POPC   C4B16534   7.895  14.576   7.749
  968POPC   NC316535   4.502  18.854   9.326
  968POPC   PO416536   4.656  19.443   9.581
  968POPC   GL116537   4.282  19.334   9.237
  968POPC   GL216538   4.052  19.009   9.174
  968POPC   C1A16539   4.327  19.194   8.770
  968POPC   D2A16540   4.588  19.199   8.372
  968POPC   C3A16541   4.425  19.086   7.946
  968POPC   C4A16542   4.372  18.870   7.519
  968POPC   C1B16543   3.896  18.934   8.735
  968POPC   C2B16544   4.042  18.971   8.287
  968POPC   C3B16545   4.004  18.741   7.878
  968POPC   C4B16546   3.863  18.795   7.404
  969POPC   NC316547  11.163  16.289   9.580
  969POPC   PO416548  10.866  15.679   9.515
  969POPC   GL116549  11.094  15.914   9.191
  969POPC   GL216550  10.863  16.204   9.140
  969POPC   C1A16551  11.383  15.760   8.834
  969POPC   D2A16552  11.486  15.929   8.424
  969POPC   C3A16553  11.311  15.864   8.025
  969POPC   C4A16554  11.638  15.764   7.748
  969POPC   C1B16555  11.172  16.231   8.764
  969POPC   C2B16556  11.230  16.404   8.334
  969POPC   C3B16557  11.215  16.356   7.885
  969POPC   C4B16558  11.462  16.298   7.556
  970POPC   NC316559  42.479  16.794  10.152
  970POPC   PO416560  42.667  17.165   9.659
  970POPC   GL116561  42.547  17.016   9.158
  970POPC   GL216562  42.206  17.100   9.019
  970POPC   C1A16563  42.446  16.753   8.704
  970POPC   D2A16564  42.312  16.818   8.254
  970POPC   C3A16565  42.439  16.571   7.923
  970POPC   C4A16566  42.766  16.332   7.728
  970POPC   C1B16567  42.405  17.253   8.646
  970POPC   C2B16568  42.271  17.342   8.219
  970POPC   C3B16569  42.299  17.315   7.772
  970POPC   C4B16570  42.186  17.325   7.313
  971POPC   NC316571  13.154  22.331   9.545
  971POPC   PO416572  13.637  21.890   9.511
  971POPC   GL116573  13.633  22.177   9.177
  971POPC   GL216574  13.301  22.041   9.149
  971POPC   C1A16575  13.839  22.215   8.737
  971POPC   D2A16576  13.871  22.054   8.279
  971POPC   C3A16577  13.809  22.323   7.867
  971POPC   C4A16578  13.963  22.511   7.444
  971POPC   C1B16579  13.310  22.267   8.823
  971POPC   C2B16580  13.384  22.160   8.461
  971POPC   C3B16581  13.314  22.267   8.080
  971POPC   C4B16582  13.338  22.123   7.708
  972POPC   NC316583  34.445  44.881   9.617
  972POPC   PO416584  34.157  44.279   9.438
  972POPC   GL116585  34.423  44.558   9.188
  972POPC   GL216586  34.562  44.916   9.128
  972POPC   C1A16587  34.355  44.590   8.783
  972POPC   D2A16588  34.462  44.777   8.448
  972POPC   C3A16589  34.625  44.574   8.065
  972POPC   C4A16590  34.498  44.528   7.652
  972POPC   C1B16591  34.842  44.751   8.837
  972POPC   C2B16592  34.968  44.652   8.440
  972POPC   C3B16593  35.176  44.865   8.106
  972POPC   C4B16594  34.970  44.737   7.718
  973POPC   NC316595   7.464  19.354   9.417
  973POPC   PO416596   7.818  18.818   9.574
  973POPC   GL116597   7.629  18.809   9.125
  973POPC   GL216598   7.271  18.861   9.012
  973POPC   C1A16599   7.699  18.673   8.667
  973POPC   D2A16600   7.652  18.515   8.220
  973POPC   C3A16601   7.400  18.853   7.996
  973POPC   C4A16602   7.554  19.261   7.829
  973POPC   C1B16603   7.113  19.304   8.854
  973POPC   C2B16604   6.997  19.490   8.445
  973POPC   C3B16605   7.064  19.353   8.023
  973POPC   C4B16606   6.905  19.376   7.620
  974POPC   NC316607  13.889  44.966   9.301
  974POPC   PO416608  14.396  44.829   9.696
  974POPC   GL116609  14.366  44.780   9.220
  974POPC   GL216610  14.422  44.427   9.088
  974POPC   C1A16611  14.605  44.874   8.831
  974POPC   D2A16612  14.804  44.635   8.494
  974POPC   C3A16613  14.563  44.536   8.146
  974POPC   C4A16614  14.601  44.655   7.716
  974POPC   C1B16615  14.186  44.584   8.728
  974POPC   C2B16616  14.041  44.568   8.301
  974POPC   C3B16617  14.136  44.460   7.884
  974POPC   C4B16618  14.210  44.466   7.434
  975POPC   NC316619  33.408  13.948   9.259
  975POPC   PO416620  34.063  13.775   9.333
  975POPC   GL116621  33.781  13.630   9.079
  975POPC   GL216622  33.635  13.298   9.180
  975POPC   C1A16623  33.789  13.787   8.670
  975POPC   D2A16624  33.776  13.548   8.278
  975POPC   C3A16625  33.974  13.778   7.936
  975POPC   C4A16626  33.806  14.066   7.671
  975POPC   C1B16627  33.537  13.370   8.726
  975POPC   C2B16628  33.310  13.646   8.468
  975POPC   C3B16629  33.264  13.597   8.025
  975POPC   C4B16630  33.590  13.469   7.799
  976POPC   NC316631  38.075  14.525   9.440
  976POPC   PO416632  38.652  14.167   9.345
  976POPC   GL116633  38.449  14.459   9.093
  976POPC   GL216634  38.146  14.375   8.956
  976POPC   C1A16635  38.513  14.729   8.782
  976POPC   D2A16636  38.340  14.526   8.445
  976POPC   C3A16637  38.650  14.409   8.145
  976POPC   C4A16638  38.393  14.434   7.774
  976POPC   C1B16639  38.107  14.067   8.615
  976POPC   C2B16640  38.261  14.051   8.195
  976POPC   C3B16641  38.035  14.044   7.830
  976POPC   C4B16642  37.930  14.319   7.489
  977POPC   NC316643   8.866  20.947   9.505
  977POPC   PO416644   9.268  20.352   9.531
  977POPC   GL116645   9.189  20.635   9.191
  977POPC   GL216646   8.847  20.497   9.242
  977POPC   C1A16647   9.241  20.730   8.725
  977POPC   D2A16648   8.998  20.860   8.363
  977POPC   C3A16649   8.992  20.596   8.010
  977POPC   C4A16650   9.116  20.695   7.600
  977POPC   C1B16651   8.752  20.642   8.842
  977POPC   C2B16652   8.572  20.567   8.437
  977POPC   C3B16653   8.533  20.889   8.113
  977POPC   C4B16654   8.637  20.943   7.678
  978POPC   NC316655  35.493  32.817   9.523
  978POPC   PO416656  35.107  32.160   9.514
  978POPC   GL116657  35.276  32.276   9.155
  978POPC   GL216658  35.098  32.603   9.204
  978POPC   C1A16659  35.287  32.082   8.761
  978POPC   D2A16660  35.488  31.994   8.383
  978POPC   C3A16661  35.412  32.238   8.046
  978POPC   C4A16662  35.366  32.179   7.639
  978POPC   C1B16663  35.001  32.508   8.778
  978POPC   C2B16664  35.232  32.496   8.442
  978POPC   C3B16665  35.076  32.627   8.073
  978POPC   C4B16666  35.332  32.690   7.746
  979POPC   NC316667  31.658   2.834   9.438
  979POPC   PO416668  32.318   2.896   9.508
  979POPC   GL116669  32.130   2.799   9.131
  979POPC   GL216670  31.965   3.114   9.120
  979POPC   C1A16671  32.160   2.532   8.740
  979POPC   D2A16672  32.228   2.365   8.301
  979POPC   C3A16673  32.350   2.651   8.016
  979POPC   C4A16674  32.692   2.687   7.796
  979POPC   C1B16675  32.088   3.059   8.687
  979POPC   C2B16676  31.932   2.798   8.338
  979POPC   C3B16677  31.872   2.775   7.909
  979POPC   C4B16678  32.165   3.032   7.667
  980POPC   NC316679  20.881  22.032   9.462
  980POPC   PO416680  20.237  22.318   9.501
  980POPC   GL116681  20.352  22.327   9.067
  980POPC   GL216682  20.629  22.133   9.038
  980POPC   C1A16683  20.302  22.166   8.624
  980POPC   D2A16684  20.313  22.216   8.179
  980POPC   C3A16685  20.509  21.930   7.931
  980POPC   C4A16686  20.533  21.752   7.514
  980POPC   C1B16687  20.757  21.932   8.666
  980POPC   C2B16688  20.934  21.957   8.236
  980POPC   C3B16689  20.959  22.064   7.791
  980POPC   C4B16690  21.075  21.830   7.411
  981POPC   NC316691  28.332  13.025   9.593
  981POPC   PO416692  28.730  12.453   9.617
  981POPC   GL116693  28.599  12.743   9.279
  981POPC   GL216694  28.221  12.703   9.198
  981POPC   C1A16695  28.529  13.032   8.936
  981POPC   D2A16696  28.301  12.906   8.588
  981POPC   C3A16697  28.190  13.064   8.240
  981POPC   C4A16698  28.484  13.003   7.884
  981POPC   C1B16699  27.923  12.688   8.833
  981POPC   C2B16700  27.955  12.587   8.357
  981POPC   C3B16701  27.992  12.754   7.906
  981POPC   C4B16702  28.000  12.793   7.453
  982POPC   NC316703  25.980  36.987   9.611
  982POPC   PO416704  25.614  36.588   9.255
  982POPC   GL116705  25.921  36.817   9.091
  982POPC   GL216706  26.240  36.736   9.240
  982POPC   C1A16707  25.861  36.944   8.657
  982POPC   D2A16708  25.596  36.741   8.343
  982POPC   C3A16709  25.672  36.902   7.920
  982POPC   C4A16710  26.038  37.095   7.684
  982POPC   C1B16711  26.335  36.750   8.790
  982POPC   C2B16712  26.528  36.699   8.354
  982POPC   C3B16713  26.409  36.748   7.910
  982POPC   C4B16714  26.369  36.758   7.461
  983POPC   NC316715   1.020  11.280   9.646
  983POPC   PO416716   1.398  11.793   9.474
  983POPC   GL116717   1.252  11.433   9.217
  983POPC   GL216718   0.945  11.602   9.154
  983POPC   C1A16719   1.441  11.219   8.814
  983POPC   D2A16720   1.621  11.340   8.396
  983POPC   C3A16721   1.377  11.215   8.040
  983POPC   C4A16722   1.531  10.979   7.744
  983POPC   C1B16723   1.236  11.702   8.803
  983POPC   C2B16724   1.148  11.534   8.410
  983POPC   C3B16725   1.173  11.669   7.999
  983POPC   C4B16726   1.013  11.477   7.669
  984POPC   NC316727  12.041  20.386   9.690
  984POPC   PO416728  12.351  19.825   9.411
  984POPC   GL116729  12.188  19.870   9.071
  984POPC   GL216730  12.012  20.131   9.053
  984POPC   C1A16731  11.985  19.702   8.741
  984POPC   D2A16732  12.161  19.600   8.353
  984POPC   C3A16733  12.178  19.322   8.016
  984POPC   C4A16734  12.272  19.471   7.648
  984POPC   C1B16735  12.216  20.148   8.630
  984POPC   C2B16736  11.912  20.049   8.300
  984POPC   C3B16737  12.018  19.839   7.920
  984POPC   C4B16738  12.463  19.919   7.799
  985POPC   NC316739  32.346  23.562   9.804
  985POPC   PO416740  32.150  24.008   9.559
  985POPC   GL116741  32.131  23.848   9.141
  985POPC   GL216742  31.848  24.063   9.104
  985POPC   C1A16743  32.322  23.691   8.734
  985POPC   D2A16744  32.444  23.924   8.350
  985POPC   C3A16745  32.477  23.663   7.991
  985POPC   C4A16746  32.264  23.568   7.599
  985POPC   C1B16747  31.819  23.775   8.725
  985POPC   C2B16748  31.993  23.669   8.306
  985POPC   C3B16749  31.803  23.635   7.867
  985POPC   C4B16750  31.768  23.551   7.410
  986POPC   NC316751  32.755  12.139   9.494
  986POPC   PO416752  33.375  11.939   9.651
  986POPC   GL116753  33.262  11.934   9.170
  986POPC   GL216754  32.925  12.070   9.015
  986POPC   C1A16755  33.293  12.023   8.688
  986POPC   D2A16756  32.955  12.195   8.411
  986POPC   C3A16757  33.060  12.159   7.996
  986POPC   C4A16758  33.219  12.481   7.714
  986POPC   C1B16759  32.707  11.818   8.645
  986POPC   C2B16760  32.813  11.674   8.264
  986POPC   C3B16761  32.641  11.498   7.916
  986POPC   C4B16762  32.703  11.870   7.738
  987POPC   NC316763  40.917   1.523   9.460
  987POPC   PO416764  40.594   0.906   9.501
  987POPC   GL116765  40.799   1.035   9.153
  987POPC   GL216766  40.536   0.815   8.996
  987POPC   C1A16767  40.990   1.326   8.828
  987POPC   D2A16768  41.150   1.488   8.405
  987POPC   C3A16769  40.942   1.360   8.002
  987POPC   C4A16770  40.619   1.495   7.783
  987POPC   C1B16771  40.843   0.818   8.702
  987POPC   C2B16772  40.813   0.988   8.322
  987POPC   C3B16773  40.588   0.975   7.944
  987POPC   C4B16774  40.764   1.029   7.566
  988POPC   NC316775  27.416  38.105   9.403
  988POPC   PO416776  27.777  37.613   9.519
  988POPC   GL116777  27.592  37.636   9.148
  988POPC   GL216778  27.782  37.881   9.024
  988POPC   C1A16779  27.415  37.570   8.744
  988POPC   D2A16780  27.517  37.329   8.386
  988POPC   C3A16781  27.460  37.575   8.013
  988POPC   C4A16782  27.615  37.611   7.590
  988POPC   C1B16783  27.495  38.059   8.712
  988POPC   C2B16784  27.366  38.022   8.280
  988POPC   C3B16785  27.361  38.044   7.812
  988POPC   C4B16786  27.386  38.067   7.354
  989POPC   NC316787  18.519  27.649   9.397
  989POPC   PO416788  17.819  27.728   9.493
  989POPC   GL116789  17.955  27.585   9.120
  989POPC   GL216790  18.186  27.325   9.192
  989POPC   C1A16791  18.188  27.729   8.787
  989POPC   D2A16792  18.317  27.925   8.435
  989POPC   C3A16793  18.079  27.757   8.129
  989POPC   C4A16794  18.171  27.799   7.712
  989POPC   C1B16795  18.463  27.291   8.822
  989POPC   C2B16796  18.333  27.397   8.420
  989POPC   C3B16797  18.391  27.380   8.000
  989POPC   C4B16798  18.751  27.211   7.869
  990POPC   NC316799  27.116  29.109   9.613
  990POPC   PO416800  26.529  29.206   9.562
  990POPC   GL116801  26.748  29.080   9.194
  990POPC   GL216802  27.054  29.196   9.108
  990POPC   C1A16803  26.723  29.279   8.758
  990POPC   D2A16804  26.619  29.333   8.384
  990POPC   C3A16805  26.859  29.231   8.051
  990POPC   C4A16806  26.833  29.551   7.759
  990POPC   C1B16807  27.201  29.095   8.676
  990POPC   C2B16808  27.265  28.991   8.236
  990POPC   C3B16809  27.233  28.910   7.762
  990POPC   C4B16810  27.103  28.830   7.298
  991POPC   NC316811   3.248   2.409   9.377
  991POPC   PO416812   3.879   2.692   9.557
  991POPC   GL116813   3.716   2.793   9.155
  991POPC   GL216814   3.639   2.461   9.038
  991POPC   C1A16815   3.905   2.806   8.749
  991POPC   D2A16816   3.828   2.582   8.383
  991POPC   C3A16817   3.760   2.870   8.058
  991POPC   C4A16818   3.596   2.831   7.685
  991POPC   C1B16819   3.362   2.576   8.710
  991POPC   C2B16820   3.345   2.726   8.302
  991POPC   C3B16821   3.167   2.645   7.912
  991POPC   C4B16822   2.901   2.928   7.711
  992POPC   NC316823  11.018  14.552   9.585
  992POPC   PO416824  11.444  14.011   9.387
  992POPC   GL116825  11.152  14.214   9.104
  992POPC   GL216826  11.149  14.588   9.092
  992POPC   C1A16827  11.343  14.279   8.686
  992POPC   D2A16828  11.511  14.562   8.359
  992POPC   C3A16829  11.344  14.445   7.958
  992POPC   C4A16830  11.584  14.135   7.766
  992POPC   C1B16831  11.233  14.801   8.735
  992POPC   C2B16832  11.152  14.945   8.337
  992POPC   C3B16833  11.050  14.871   7.906
  992POPC   C4B16834  11.085  14.640   7.525
  993POPC   NC316835  30.608  43.233   9.308
  993POPC   PO416836  31.280  42.947   9.460
  993POPC   GL116837  31.124  43.202   9.146
  993POPC   GL216838  30.919  42.941   8.993
  993POPC   C1A16839  30.984  43.404   8.763
  993POPC   D2A16840  30.799  43.123   8.474
  993POPC   C3A16841  30.638  43.299   8.159
  993POPC   C4A16842  30.808  43.547   7.859
  993POPC   C1B16843  30.554  42.785   8.736
  993POPC   C2B16844  30.570  42.642   8.317
  993POPC   C3B16845  30.440  42.790   7.903
  993POPC   C4B16846  30.539  43.133   7.697
  994POPC   NC316847  17.816   0.471   9.542
  994POPC   PO416848  17.281   0.312   9.890
  994POPC   GL116849  17.331   0.412   9.389
  994POPC   GL216850  17.493   0.173   9.185
  994POPC   C1A16851  17.321   0.538   8.914
  994POPC   D2A16852  17.269   0.432   8.468
  994POPC   C3A16853  17.546   0.560   8.158
  994POPC   C4A16854  17.383   0.341   7.823
  994POPC   C1B16855  17.655   0.126   8.779
  994POPC   C2B16856  17.645  44.946   8.390
  994POPC   C3B16857  17.802   0.066   7.988
  994POPC   C4B16858  17.925   0.457   7.786
  995POPC   NC316859  12.345  39.700   9.801
  995POPC   PO416860  11.994  40.128   9.571
  995POPC   GL116861  12.152  40.059   9.183
  995POPC   GL216862  12.123  39.705   9.248
  995POPC   C1A16863  12.263  40.263   8.772
  995POPC   D2A16864  12.278  40.472   8.332
  995POPC   C3A16865  12.154  40.311   7.914
  995POPC   C4A16866  12.155  40.358   7.447
  995POPC   C1B16867  12.074  39.749   8.788
  995POPC   C2B16868  12.356  39.860   8.450
  995POPC   C3B16869  12.337  39.837   8.001
  995POPC   C4B16870  12.108  39.872   7.627
  996POPC   NC316871  12.397  44.671   9.422
  996POPC   PO416872  11.789   0.030   9.368
  996POPC   GL116873  11.947  44.641   9.149
  996POPC   GL216874  12.224  44.646   8.946
  996POPC   C1A16875  11.826  44.404   8.774
  996POPC   D2A16876  12.083  44.548   8.431
  996POPC   C3A16877  12.223  44.256   8.143
  996POPC   C4A16878  12.266  44.352   7.737
  996POPC   C1B16879  11.910  44.946   8.722
  996POPC   C2B16880  12.016   0.066   8.290
  996POPC   C3B16881  11.940  44.787   7.919
  996POPC   C4B16882  11.851   0.009   7.532
  997POPC   NC316883   1.954  24.174   9.209
  997POPC   PO416884   2.234  24.728   9.479
  997POPC   GL116885   2.062  24.665   9.096
  997POPC   GL216886   1.817  24.858   9.016
  997POPC   C1A16887   2.237  24.496   8.714
  997POPC   D2A16888   2.070  24.360   8.316
  997POPC   C3A16889   2.226  24.526   7.948
  997POPC   C4A16890   2.142  24.373   7.576
  997POPC   C1B16891   1.738  24.545   8.684
  997POPC   C2B16892   1.537  24.433   8.314
  997POPC   C3B16893   1.712  24.502   7.911
  997POPC   C4B16894   1.863  24.879   7.778
  998POPC   NC316895  20.436  44.464   9.307
  998POPC   PO416896  21.044  44.653   9.474
  998POPC   GL116897  20.853  44.722   9.110
  998POPC   GL216898  20.860  44.396   9.014
  998POPC   C1A16899  20.731  44.784   8.677
  998POPC   D2A16900  20.872  44.555   8.327
  998POPC   C3A16901  20.678  44.688   7.970
  998POPC   C4A16902  20.829  44.953   7.627
  998POPC   C1B16903  20.557  44.299   8.683
  998POPC   C2B16904  20.359  44.469   8.342
  998POPC   C3B16905  20.192  44.485   7.941
  998POPC   C4B16906  20.122  44.209   7.618
  999POPC   NC316907  13.335  12.976   9.408
  999POPC   PO416908  13.740  12.443   9.501
  999POPC   GL116909  13.487  12.577   9.123
  999POPC   GL216910  13.698  12.878   9.024
  999POPC   C1A16911  13.424  12.673   8.648
  999POPC   D2A16912  13.670  12.964   8.337
  999POPC   C3A16913  13.678  12.882   7.860
  999POPC   C4A16914  13.414  12.826   7.503
  999POPC   C1B16915  13.414  13.161   8.764
  999POPC   C2B16916  13.386  13.418   8.409
  999POPC   C3B16917  13.491  13.331   8.028
  999POPC   C4B16918  13.359  13.321   7.648
 1000POPC   NC316919  34.738  33.317   9.786
 1000POPC   PO416920  34.408  32.781   9.563
 1000POPC   GL116921  34.699  32.926   9.284
 1000POPC   GL216922  34.399  33.055   9.089
 1000POPC   C1A16923  34.842  32.980   8.872
 1000POPC   D2A16924  34.644  33.228   8.562
 1000POPC   C3A16925  34.737  33.238   8.105
 1000POPC   C4A16926  34.885  32.984   7.764
 1000POPC   C1B16927  34.407  32.763   8.710
 1000POPC   C2B16928  34.605  32.782   8.284
 1000POPC   C3B16929  34.398  32.896   7.874
 1000POPC   C4B16930  34.449  33.053   7.464
 1001POPC   NC316931  40.531  20.700   9.549
 1001POPC   PO416932  41.111  20.814   9.359
 1001POPC   GL116933  40.806  20.661   9.112
 1001POPC   GL216934  40.580  20.948   9.111
 1001POPC   C1A16935  40.742  20.626   8.692
 1001POPC   D2A16936  40.982  20.519   8.343
 1001POPC   C3A16937  40.699  20.543   8.042
 1001POPC   C4A16938  40.866  20.515   7.691
 1001POPC   C1B16939  40.827  21.117   8.804
 1001POPC   C2B16940  40.853  21.020   8.379
 1001POPC   C3B16941  40.861  21.024   7.963
 1001POPC   C4B16942  40.545  20.927   7.688
 1002POPC   NC316943   6.250   5.708   9.437
 1002POPC   PO416944   6.801   6.079   9.487
 1002POPC   GL116945   6.680   5.836   9.142
 1002POPC   GL216946   7.005   5.881   9.014
 1002POPC   C1A16947   6.477   5.888   8.744
 1002POPC   D2A16948   6.397   5.735   8.295
 1002POPC   C3A16949   6.520   5.935   7.922
 1002POPC   C4A16950   6.293   6.019   7.542
 1002POPC   C1B16951   6.917   5.713   8.614
 1002POPC   C2B16952   6.851   6.014   8.303
 1002POPC   C3B16953   7.058   6.039   7.927
 1002POPC   C4B16954   6.992   5.623   7.896
 1003POPC   NC316955   0.046  11.489   9.560
 1003POPC   PO416956   0.674  11.581   9.606
 1003POPC   GL116957   0.453  11.445   9.241
 1003POPC   GL216958   0.432  11.771   9.138
 1003POPC   C1A16959   0.442  11.333   8.791
 1003POPC   D2A16960   0.637  11.456   8.401
 1003POPC   C3A16961   0.782  11.213   8.040
 1003POPC   C4A16962   0.512  11.028   7.710
 1003POPC   C1B16963   0.075  11.687   8.863
 1003POPC   C2B16964   0.032  11.534   8.423
 1003POPC   C3B16965   0.274  11.371   8.056
 1003POPC   C4B16966   0.455  11.558   7.659
 1004POPC   NC316967   3.179  23.800   9.793
 1004POPC   PO416968   2.506  23.799   9.615
 1004POPC   GL116969   2.611  23.946   9.190
 1004POPC   GL216970   2.923  24.134   9.242
 1004POPC   C1A16971   2.598  23.757   8.747
 1004POPC   D2A16972   2.471  23.426   8.457
 1004POPC   C3A16973   2.628  23.615   8.094
 1004POPC   C4A16974   2.433  23.560   7.715
 1004POPC   C1B16975   3.113  23.913   8.886
 1004POPC   C2B16976   3.190  23.893   8.433
 1004POPC   C3B16977   3.023  23.972   8.010
 1004POPC   C4B16978   2.876  23.793   7.654
 1005POPC   NC316979   3.872  29.988   9.413
 1005POPC   PO416980   3.378  29.532   9.520
 1005POPC   GL116981   3.398  29.731   9.134
 1005POPC   GL216982   3.467  30.100   9.119
 1005POPC   C1A16983   3.472  29.733   8.714
 1005POPC   D2A16984   3.716  29.721   8.375
 1005POPC   C3A16985   3.477  29.553   8.059
 1005POPC   C4A16986   3.459  29.723   7.678
 1005POPC   C1B16987   3.765  30.144   8.772
 1005POPC   C2B16988   3.845  30.223   8.346
 1005POPC   C3B16989   3.776  30.037   7.949
 1005POPC   C4B16990   3.922  30.120   7.512
 1006POPC   NC316991   0.551  35.770   9.840
 1006POPC   PO416992   0.433  36.452   9.720
 1006POPC   GL116993   0.434  36.308   9.267
 1006POPC   GL216994   0.703  36.076   9.333
 1006POPC   C1A16995   0.396  36.388   8.794
 1006POPC   D2A16996   0.110  36.305   8.385
 1006POPC   C3A16997   0.303  36.350   7.941
 1006POPC   C4A16998   0.487  36.315   7.478
 1006POPC   C1B16999   0.633  35.955   8.888
 1006POPC   C2B17000   0.520  36.015   8.454
 1006POPC   C3B17001   0.576  35.734   8.127
 1006POPC   C4B17002   0.579  35.944   7.787
 1007POPC   NC317003  32.341  43.415   9.392
 1007POPC   PO417004  32.471  44.141   9.424
 1007POPC   GL117005  32.326  43.959   9.021
 1007POPC   GL217006  31.956  43.977   8.942
 1007POPC   C1A17007  32.433  43.973   8.580
 1007POPC   D2A17008  32.662  43.706   8.275
 1007POPC   C3A17009  32.551  43.800   7.884
 1007POPC   C4A17010  32.268  44.123   7.833
 1007POPC   C1B17011  31.974  43.699   8.600
 1007POPC   C2B17012  32.150  43.728   8.229
 1007POPC   C3B17013  32.044  43.626   7.892
 1007POPC   C4B17014  31.672  43.610   7.764
 1008POPC   NC317015  21.349  36.745   9.513
 1008POPC   PO417016  21.548  37.312   9.150
 1008POPC   GL117017  21.319  36.897   9.012
 1008POPC   GL217018  21.351  36.511   9.067
 1008POPC   C1A17019  21.148  36.721   8.623
 1008POPC   D2A17020  21.154  36.767   8.171
 1008POPC   C3A17021  21.246  37.163   7.996
 1008POPC   C4A17022  21.406  37.297   7.602
 1008POPC   C1B17023  21.562  36.410   8.696
 1008POPC   C2B17024  21.812  36.539   8.340
 1008POPC   C3B17025  21.664  36.782   8.055
 1008POPC   C4B17026  21.438  36.772   7.712
 1009POPC   NC317027  28.780   4.215   9.488
 1009POPC   PO417028  29.318   4.623   9.353
 1009POPC   GL117029  29.253   4.300   9.092
 1009POPC   GL217030  28.919   4.442   9.022
 1009POPC   C1A17031  29.255   4.310   8.639
 1009POPC   D2A17032  29.200   4.494   8.258
 1009POPC   C3A17033  29.243   4.249   7.917
 1009POPC   C4A17034  29.335   4.309   7.485
 1009POPC   C1B17035  28.916   4.003   8.840
 1009POPC   C2B17036  29.075   3.875   8.423
 1009POPC   C3B17037  28.882   3.909   8.030
 1009POPC   C4B17038  28.857   3.876   7.585
 1010POPC   NC317039  36.822  18.994   9.605
 1010POPC   PO417040  36.601  18.540   9.166
 1010POPC   GL117041  36.928  18.838   9.069
 1010POPC   GL217042  37.021  18.581   8.820
 1010POPC   C1A17043  37.014  19.271   8.855
 1010POPC   D2A17044  36.795  19.541   8.514
 1010POPC   C3A17045  36.849  19.435   8.070
 1010POPC   C4A17046  37.183  19.270   7.839
 1010POPC   C1B17047  36.617  18.510   8.534
 1010POPC   C2B17048  36.561  18.634   8.132
 1010POPC   C3B17049  36.776  18.879   7.807
 1010POPC   C4B17050  36.575  18.858   7.415
 1011POPC   NC317051  25.183  10.779   9.666
 1011POPC   PO417052  25.375  10.103   9.632
 1011POPC   GL117053  25.401  10.139   9.129
 1011POPC   GL217054  25.093  10.091   8.992
 1011POPC   C1A17055  25.533  10.464   8.775
 1011POPC   D2A17056  25.641  10.721   8.400
 1011POPC   C3A17057  25.436  10.554   8.026
 1011POPC   C4A17058  25.481  10.502   7.584
 1011POPC   C1B17059  25.082  10.273   8.664
 1011POPC   C2B17060  24.988  10.464   8.330
 1011POPC   C3B17061  24.922  10.140   8.104
 1011POPC   C4B17062  24.819  10.224   7.752
 1012POPC   NC317063  30.350  33.321   9.405
 1012POPC   PO417064  30.866  32.985   9.702
 1012POPC   GL117065  30.717  32.966   9.270
 1012POPC   GL217066  30.891  33.208   9.193
 1012POPC   C1A17067  30.646  32.978   8.786
 1012POPC   D2A17068  30.381  33.100   8.400
 1012POPC   C3A17069  30.568  33.059   7.989
 1012POPC   C4A17070  30.379  33.084   7.566
 1012POPC   C1B17071  31.007  33.349   8.795
 1012POPC   C2B17072  30.951  33.259   8.335
 1012POPC   C3B17073  30.889  33.443   7.897
 1012POPC   C4B17074  30.796  33.361   7.447
 1013POPC   NC317075   1.458   2.149   9.659
 1013POPC   PO417076   0.847   2.065   9.678
 1013POPC   GL117077   0.962   2.271   9.250
 1013POPC   GL217078   1.329   2.261   9.170
 1013POPC   C1A17079   0.941   2.146   8.790
 1013POPC   D2A17080   0.930   1.911   8.415
 1013POPC   C3A17081   0.995   2.090   8.016
 1013POPC   C4A17082   0.966   1.826   7.673
 1013POPC   C1B17083   1.417   1.995   8.806
 1013POPC   C2B17084   1.399   2.055   8.349
 1013POPC   C3B17085   1.410   1.819   7.946
 1013POPC   C4B17086   1.358   2.156   7.618
 1014POPC   NC317087   7.827   3.943   9.439
 1014POPC   PO417088   7.917   4.613   9.504
 1014POPC   GL117089   7.957   4.369   9.096
 1014POPC   GL217090   8.237   4.169   9.061
 1014POPC   C1A17091   8.098   4.392   8.622
 1014POPC   D2A17092   8.141   4.610   8.208
 1014POPC   C3A17093   8.026   4.298   7.890
 1014POPC   C4A17094   7.755   4.236   7.508
 1014POPC   C1B17095   8.553   4.346   8.826
 1014POPC   C2B17096   8.619   4.478   8.439
 1014POPC   C3B17097   8.522   4.274   8.072
 1014POPC   C4B17098   8.557   4.528   7.727
 1015POPC   NC317099  28.632  20.436   9.430
 1015POPC   PO417100  28.147  20.902   9.457
 1015POPC   GL117101  28.307  20.901   9.048
 1015POPC   GL217102  28.631  20.821   9.061
 1015POPC   C1A17103  28.335  20.883   8.599
 1015POPC   D2A17104  28.249  20.477   8.394
 1015POPC   C3A17105  28.144  20.483   7.966
 1015POPC   C4A17106  28.300  20.547   7.503
 1015POPC   C1B17107  28.642  20.500   8.757
 1015POPC   C2B17108  28.753  20.571   8.332
 1015POPC   C3B17109  28.653  20.595   7.889
 1015POPC   C4B17110  28.809  20.450   7.479
 1016POPC   NC317111  44.998  40.589   9.442
 1016POPC   PO417112  44.459  40.830   9.763
 1016POPC   GL117113  44.511  40.888   9.242
 1016POPC   GL217114  44.802  40.829   9.064
 1016POPC   C1A17115  44.408  40.697   8.792
 1016POPC   D2A17116  44.250  40.579   8.375
 1016POPC   C3A17117  44.542  40.656   8.082
 1016POPC   C4A17118  44.387  40.671   7.709
 1016POPC   C1B17119  44.986  40.926   8.702
 1016POPC   C2B17120  44.970  40.751   8.339
 1016POPC   C3B17121   0.060  40.825   7.938
 1016POPC   C4B17122  44.848  40.825   7.589
 1017POPC   NC317123  37.627  40.612   9.620
 1017POPC   PO417124  37.490  41.093   9.332
 1017POPC   GL117125  37.713  40.770   9.132
 1017POPC   GL217126  37.400  40.709   9.003
 1017POPC   C1A17127  37.766  40.594   8.708
 1017POPC   D2A17128  37.545  40.777   8.371
 1017POPC   C3A17129  37.675  40.607   8.012
 1017POPC   C4A17130  37.981  40.614   7.754
 1017POPC   C1B17131  37.172  40.971   8.672
 1017POPC   C2B17132  37.109  41.027   8.204
 1017POPC   C3B17133  37.411  41.010   7.850
 1017POPC   C4B17134  37.732  40.987   7.492
 1018POPC   NC317135   2.823  19.524   9.445
 1018POPC   PO417136   2.316  19.946   9.559
 1018POPC   GL117137   2.614  19.951   9.169
 1018POPC   GL217138   2.986  19.824   9.079
 1018POPC   C1A17139   2.532  19.647   8.811
 1018POPC   D2A17140   2.613  19.421   8.424
 1018POPC   C3A17141   2.547  19.609   8.037
 1018POPC   C4A17142   2.778  19.497   7.654
 1018POPC   C1B17143   2.887  19.997   8.706
 1018POPC   C2B17144   2.881  19.856   8.321
 1018POPC   C3B17145   2.851  19.981   7.903
 1018POPC   C4B17146   3.155  20.033   7.641
 1019POPC   NC317147   8.806  19.452  10.252
 1019POPC   PO417148   8.904  19.717   9.566
 1019POPC   GL117149   8.971  19.975   9.202
 1019POPC   GL217150   8.717  19.764   9.076
 1019POPC   C1A17151   9.117  20.241   8.865
 1019POPC   D2A17152   8.993  20.292   8.443
 1019POPC   C3A17153   9.176  20.060   8.095
 1019POPC   C4A17154   9.181  20.185   7.662
 1019POPC   C1B17155   8.907  19.812   8.665
 1019POPC   C2B17156   8.916  19.671   8.237
 1019POPC   C3B17157   9.015  19.611   7.783
 1019POPC   C4B17158   8.759  19.486   7.368
 1020POPC   NC317159  12.281  32.093   9.361
 1020POPC   PO417160  12.811  32.391   9.299
 1020POPC   GL117161  12.691  32.240   8.936
 1020POPC   GL217162  12.555  31.925   8.974
 1020POPC   C1A17163  12.920  32.112   8.563
 1020POPC   D2A17164  13.189  32.243   8.200
 1020POPC   C3A17165  12.944  32.502   7.896
 1020POPC   C4A17166  12.501  32.562   7.856
 1020POPC   C1B17167  12.391  32.078   8.565
 1020POPC   C2B17168  12.567  32.201   8.204
 1020POPC   C3B17169  12.825  31.959   7.970
 1020POPC   C4B17170  12.814  31.761   7.546
 1021POPC   NC317171  44.950  43.284   9.691
 1021POPC   PO417172  44.305  43.302   9.729
 1021POPC   GL117173  44.478  43.146   9.332
 1021POPC   GL217174  44.769  42.928   9.286
 1021POPC   C1A17175  44.442  43.212   8.893
 1021POPC   D2A17176  44.627  43.435   8.520
 1021POPC   C3A17177  44.474  43.346   8.091
 1021POPC   C4A17178  44.526  42.935   7.864
 1021POPC   C1B17179  44.889  42.964   8.831
 1021POPC   C2B17180  44.977  42.648   8.489
 1021POPC   C3B17181  44.871  42.585   8.053
 1021POPC   C4B17182   0.021  42.785   7.714
 1022POPC   NC317183  38.284  29.783   9.422
 1022POPC   PO417184  38.525  30.333   9.405
 1022POPC   GL117185  38.497  30.097   9.015
 1022POPC   GL217186  38.582  29.730   9.031
 1022POPC   C1A17187  38.413  30.178   8.580
 1022POPC   D2A17188  38.127  30.272   8.280
 1022POPC   C3A17189  38.255  30.073   7.892
 1022POPC   C4A17190  38.444  30.090   7.483
 1022POPC   C1B17191  38.253  29.687   8.735
 1022POPC   C2B17192  38.293  29.687   8.310
 1022POPC   C3B17193  38.267  29.559   7.906
 1022POPC   C4B17194  38.600  29.641   7.643
 1023POPC   NC317195  30.387   0.893   9.594
 1023POPC   PO417196  30.821   0.462   9.423
 1023POPC   GL117197  30.493   0.458   9.100
 1023POPC   GL217198  30.333   0.150   8.952
 1023POPC   C1A17199  30.521   0.525   8.662
 1023POPC   D2A17200  30.865   0.406   8.400
 1023POPC   C3A17201  30.692   0.436   8.004
 1023POPC   C4A17202  30.362   0.735   7.904
 1023POPC   C1B17203  30.752   0.069   8.784
 1023POPC   C2B17204  30.903  44.865   8.415
 1023POPC   C3B17205  31.007  44.964   8.015
 1023POPC   C4B17206  30.864   0.103   7.668
 1024POPC   NC317207   7.522  32.854   9.439
 1024POPC   PO417208   7.507  33.412   9.514
 1024POPC   GL117209   7.325  33.238   9.165
 1024POPC   GL217210   7.075  32.977   9.213
 1024POPC   C1A17211   7.557  33.094   8.790
 1024POPC   D2A17212   7.637  33.247   8.379
 1024POPC   C3A17213   7.628  32.960   8.054
 1024POPC   C4A17214   7.559  32.988   7.638
 1024POPC   C1B17215   7.059  33.028   8.784
 1024POPC   C2B17216   7.240  32.908   8.391
 1024POPC   C3B17217   7.112  33.017   7.971
 1024POPC   C4B17218   7.083  32.750   7.630
 1025POPC   NC317219   8.955  36.421   9.835
 1025POPC   PO417220   8.974  37.047   9.554
 1025POPC   GL117221   8.885  36.898   9.149
 1025POPC   GL217222   9.146  36.747   8.989
 1025POPC   C1A17223   8.644  37.068   8.806
 1025POPC   D2A17224   8.742  37.200   8.406
 1025POPC   C3A17225   8.629  37.240   8.007
 1025POPC   C4A17226   8.744  36.965   7.687
 1025POPC   C1B17227   9.155  37.062   8.667
 1025POPC   C2B17228   9.225  37.253   8.255
 1025POPC   C3B17229   9.197  37.134   7.854
 1025POPC   C4B17230   9.300  37.303   7.466
 1026POPC   NC317231  27.831  25.046   9.487
 1026POPC   PO417232  27.375  25.510   9.498
 1026POPC   GL117233  27.555  25.332   9.148
 1026POPC   GL217234  27.829  25.546   9.122
 1026POPC   C1A17235  27.498  25.317   8.704
 1026POPC   D2A17236  27.472  25.633   8.368
 1026POPC   C3A17237  27.522  25.455   7.967
 1026POPC   C4A17238  27.596  24.990   7.947
 1026POPC   C1B17239  27.961  25.504   8.684
 1026POPC   C2B17240  27.860  25.262   8.314
 1026POPC   C3B17241  27.990  25.305   7.870
 1026POPC   C4B17242  27.748  25.435   7.488
 1027POPC   NC317243  25.303  30.449   9.629
 1027POPC   PO417244  25.251  31.092   9.559
 1027POPC   GL117245  25.177  30.920   9.171
 1027POPC   GL217246  25.397  30.681   9.180
 1027POPC   C1A17247  25.257  31.016   8.752
 1027POPC   D2A17248  25.338  31.155   8.354
 1027POPC   C3A17249  25.308  30.898   7.975
 1027POPC   C4A17250  25.413  30.835   7.527
 1027POPC   C1B17251  25.246  30.510   8.799
 1027POPC   C2B17252  25.060  30.615   8.407
 1027POPC   C3B17253  24.929  30.533   7.991
 1027POPC   C4B17254  25.080  30.464   7.553
 1028POPC   NC317255   4.775  38.172   9.401
 1028POPC   PO417256   4.734  37.535   9.470
 1028POPC   GL117257   5.006  37.733   9.159
 1028POPC   GL217258   5.392  37.750   9.203
 1028POPC   C1A17259   5.022  37.544   8.757
 1028POPC   D2A17260   5.242  37.526   8.427
 1028POPC   C3A17261   5.018  37.501   8.073
 1028POPC   C4A17262   5.165  37.669   7.705
 1028POPC   C1B17263   5.352  37.922   8.810
 1028POPC   C2B17264   5.241  38.040   8.412
 1028POPC   C3B17265   5.429  37.961   8.046
 1028POPC   C4B17266   5.345  38.173   7.716
 1029POPC   NC317267  32.596  37.738   9.524
 1029POPC   PO417268  33.224  37.660   9.522
 1029POPC   GL117269  33.003  37.637   9.141
 1029POPC   GL217270  32.719  37.412   9.129
 1029POPC   C1A17271  33.058  37.512   8.718
 1029POPC   D2A17272  32.854  37.641   8.348
 1029POPC   C3A17273  32.918  37.778   7.930
 1029POPC   C4A17274  33.154  37.694   7.544
 1029POPC   C1B17275  32.747  37.110   8.792
 1029POPC   C2B17276  32.817  37.104   8.350
 1029POPC   C3B17277  32.683  37.286   7.986
 1029POPC   C4B17278  32.733  37.448   7.606
 1030POPC   NC317279  10.289  28.284   9.285
 1030POPC   PO417280  10.777  28.712   9.506
 1030POPC   GL117281  10.761  28.378   9.094
 1030POPC   GL217282  10.546  28.467   8.871
 1030POPC   C1A17283  10.898  28.205   8.667
 1030POPC   D2A17284  10.796  28.449   8.329
 1030POPC   C3A17285  10.801  28.313   7.917
 1030POPC   C4A17286  10.585  28.124   7.614
 1030POPC   C1B17287  10.351  28.162   8.647
 1030POPC   C2B17288  10.224  28.296   8.272
 1030POPC   C3B17289  10.361  28.578   7.983
 1030POPC   C4B17290  10.259  28.555   7.577
 1031POPC   NC317291  17.342  11.686   9.536
 1031POPC   PO417292  17.837  11.275   9.575
 1031POPC   GL117293  17.678  11.231   9.157
 1031POPC   GL217294  17.991  11.104   9.051
 1031POPC   C1A17295  17.354  11.273   8.826
 1031POPC   D2A17296  17.411  11.467   8.426
 1031POPC   C3A17297  17.307  11.289   8.049
 1031POPC   C4A17298  17.008  11.434   7.772
 1031POPC   C1B17299  17.838  11.287   8.659
 1031POPC   C2B17300  17.858  11.289   8.203
 1031POPC   C3B17301  17.725  11.454   7.820
 1031POPC   C4B17302  17.420  11.552   7.497
 1032POPC   NC317303  15.285  10.701   9.511
 1032POPC   PO417304  14.647  11.008   9.482
 1032POPC   GL117305  14.912  10.786   9.160
 1032POPC   GL217306  14.735  10.542   8.980
 1032POPC   C1A17307  15.268  10.646   8.857
 1032POPC   D2A17308  15.174  10.664   8.410
 1032POPC   C3A17309  15.367  10.539   8.020
 1032POPC   C4A17310  15.101  10.816   7.805
 1032POPC   C1B17311  14.966  10.264   8.679
 1032POPC   C2B17312  15.025  10.203   8.207
 1032POPC   C3B17313  15.000  10.260   7.746
 1032POPC   C4B17314  14.656  10.241   7.447
 1033POPC   NC317315  27.342  17.345   9.357
 1033POPC   PO417316  27.857  17.706   9.421
 1033POPC   GL117317  27.661  17.612   9.056
 1033POPC   GL217318  27.328  17.760   9.020
 1033POPC   C1A17319  27.615  17.403   8.659
 1033POPC   D2A17320  27.798  17.626   8.286
 1033POPC   C3A17321  27.600  17.556   7.909
 1033POPC   C4A17322  27.343  17.192   7.849
 1033POPC   C1B17323  27.435  17.883   8.606
 1033POPC   C2B17324  27.330  17.937   8.165
 1033POPC   C3B17325  27.416  17.973   7.722
 1033POPC   C4B17326  27.462  17.628   7.401
 1034POPC   NC317327  31.289  29.666   9.488
 1034POPC   PO417328  31.872  29.947   9.513
 1034POPC   GL117329  31.695  29.755   9.185
 1034POPC   GL217330  31.508  30.050   9.072
 1034POPC   C1A17331  31.555  29.629   8.781
 1034POPC   D2A17332  31.434  29.881   8.450
 1034POPC   C3A17333  31.510  29.723   8.065
 1034POPC   C4A17334  31.412  29.675   7.639
 1034POPC   C1B17335  31.240  30.255   8.737
 1034POPC   C2B17336  30.995  30.113   8.365
 1034POPC   C3B17337  31.053  30.008   7.932
 1034POPC   C4B17338  31.119  30.063   7.479
 1035POPC   NC317339  40.963   4.041   9.602
 1035POPC   PO417340  40.624   4.584   9.569
 1035POPC   GL117341  40.869   4.435   9.159
 1035POPC   GL217342  40.945   4.048   9.084
 1035POPC   C1A17343  40.805   4.326   8.676
 1035POPC   D2A17344  40.976   4.233   8.243
 1035POPC   C3A17345  40.654   4.336   7.927
 1035POPC   C4A17346  40.437   4.486   7.543
 1035POPC   C1B17347  41.147   3.906   8.658
 1035POPC   C2B17348  41.230   3.670   8.284
 1035POPC   C3B17349  41.032   3.824   7.915
 1035POPC   C4B17350  41.098   4.226   7.714
 1036POPC   NC317351  35.104  12.022   9.704
 1036POPC   PO417352  35.461  12.486   9.365
 1036POPC   GL117353  35.272  12.330   9.005
 1036POPC   GL217354  34.954  12.269   8.972
 1036POPC   C1A17355  35.261  12.401   8.545
 1036POPC   D2A17356  35.536  12.143   8.286
 1036POPC   C3A17357  35.538  12.280   7.867
 1036POPC   C4A17358  35.110  12.393   7.805
 1036POPC   C1B17359  35.218  11.919   8.668
 1036POPC   C2B17360  35.353  11.678   8.312
 1036POPC   C3B17361  35.240  11.860   7.896
 1036POPC   C4B17362  35.348  11.996   7.468
 1037POPC   NC317363  38.617   0.179   9.524
 1037POPC   PO417364  38.186   0.688   9.483
 1037POPC   GL117365  38.280   0.340   9.210
 1037POPC   GL217366  38.067   0.224   9.012
 1037POPC   C1A17367  38.555   0.247   8.831
 1037POPC   D2A17368  38.824   0.390   8.457
 1037POPC   C3A17369  38.637   0.515   8.043
 1037POPC   C4A17370  38.650   0.779   7.645
 1037POPC   C1B17371  38.258   0.644   8.834
 1037POPC   C2B17372  38.324   0.700   8.451
 1037POPC   C3B17373  38.077   0.587   8.098
 1037POPC   C4B17374  38.239   0.499   7.685
 1038POPC   NC317375  26.560  10.646   9.626
 1038POPC   PO417376  27.192  10.877   9.426
 1038POPC   GL117377  26.839  10.680   9.183
 1038POPC   GL217378  26.725  10.315   9.267
 1038POPC   C1A17379  26.867  10.593   8.731
 1038POPC   D2A17380  27.088  10.316   8.397
 1038POPC   C3A17381  26.856  10.362   8.003
 1038POPC   C4A17382  26.572  10.740   7.936
 1038POPC   C1B17383  26.607  10.177   8.865
 1038POPC   C2B17384  26.548  10.260   8.443
 1038POPC   C3B17385  26.325  10.311   8.079
 1038POPC   C4B17386  26.341  10.369   7.680
 1039POPC   NC317387  24.124  34.459   9.320
 1039POPC   PO417388  23.479  34.744   9.355
 1039POPC   GL117389  23.693  34.480   9.061
 1039POPC   GL217390  23.982  34.662   8.865
 1039POPC   C1A17391  23.778  34.256   8.670
 1039POPC   D2A17392  23.743  34.447   8.280
 1039POPC   C3A17393  24.055  34.304   7.981
 1039POPC   C4A17394  23.946  34.229   7.563
 1039POPC   C1B17395  23.577  34.769   8.687
 1039POPC   C2B17396  23.316  34.824   8.384
 1039POPC   C3B17397  23.366  34.860   7.978
 1039POPC   C4B17398  23.670  34.605   7.758
 1040POPC   NC317399  34.390  34.251   9.762
 1040POPC   PO417400  34.915  34.646   9.502
 1040POPC   GL117401  34.550  34.502   9.249
 1040POPC   GL217402  34.363  34.826   9.198
 1040POPC   C1A17403  34.571  34.284   8.844
 1040POPC   D2A17404  34.498  34.482   8.448
 1040POPC   C3A17405  34.604  34.276   8.083
 1040POPC   C4A17406  34.932  34.333   7.841
 1040POPC   C1B17407  34.476  34.910   8.770
 1040POPC   C2B17408  34.370  34.971   8.309
 1040POPC   C3B17409  34.357  34.686   7.952
 1040POPC   C4B17410  34.247  34.798   7.515
 1041POPC   NC317411  20.765   9.446   9.528
 1041POPC   PO417412  20.238   9.932   9.461
 1041POPC   GL117413  20.328   9.641   9.156
 1041POPC   GL217414  20.677   9.696   9.095
 1041POPC   C1A17415  20.295   9.706   8.713
 1041POPC   D2A17416  20.547   9.732   8.342
 1041POPC   C3A17417  20.503   9.942   7.947
 1041POPC   C4A17418  20.610   9.830   7.551
 1041POPC   C1B17419  20.752  10.011   8.802
 1041POPC   C2B17420  20.869  10.118   8.426
 1041POPC   C3B17421  20.993   9.901   8.091
 1041POPC   C4B17422  21.079   9.840   7.699
 1042POPC   NC317423  32.585  32.104   9.415
 1042POPC   PO417424  33.289  32.288   9.434
 1042POPC   GL117425  33.206  32.176   9.027
 1042POPC   GL217426  32.853  32.083   8.985
 1042POPC   C1A17427  33.245  32.065   8.577
 1042POPC   D2A17428  33.215  31.799   8.170
 1042POPC   C3A17429  33.087  32.044   7.779
 1042POPC   C4A17430  33.171  32.344   7.440
 1042POPC   C1B17431  32.902  32.451   8.727
 1042POPC   C2B17432  33.064  32.601   8.351
 1042POPC   C3B17433  33.024  32.549   7.903
 1042POPC   C4B17434  32.694  32.361   7.669
 1043POPC   NC317435  39.284  18.046   9.512
 1043POPC   PO417436  38.774  18.431   9.503
 1043POPC   GL117437  39.030  18.316   9.143
 1043POPC   GL217438  39.398  18.385   9.150
 1043POPC   C1A17439  39.181  18.063   8.800
 1043POPC   D2A17440  39.165  18.293   8.411
 1043POPC   C3A17441  39.250  18.084   8.045
 1043POPC   C4A17442  39.306  18.175   7.622
 1043POPC   C1B17443  39.612  18.321   8.755
 1043POPC   C2B17444  39.712  18.409   8.359
 1043POPC   C3B17445  39.516  18.533   8.008
 1043POPC   C4B17446  39.723  18.474   7.641
 1044POPC   NC317447  26.506  13.214   9.255
 1044POPC   PO417448  26.058  12.772   9.529
 1044POPC   GL117449  26.086  12.770   9.118
 1044POPC   GL217450  26.415  12.717   9.076
 1044POPC   C1A17451  25.924  12.924   8.734
 1044POPC   D2A17452  25.681  12.953   8.342
 1044POPC   C3A17453  25.915  13.127   8.014
 1044POPC   C4A17454  25.969  12.922   7.622
 1044POPC   C1B17455  26.254  12.528   8.695
 1044POPC   C2B17456  25.885  12.502   8.446
 1044POPC   C3B17457  26.025  12.637   8.061
 1044POPC   C4B17458  26.423  12.504   7.891
 1045POPC   NC317459   1.711  12.679   9.656
 1045POPC   PO417460   2.254  12.649   9.364
 1045POPC   GL117461   2.087  12.865   9.065
 1045POPC   GL217462   2.089  13.201   9.070
 1045POPC   C1A17463   1.940  12.705   8.701
 1045POPC   D2A17464   2.127  12.532   8.373
 1045POPC   C3A17465   1.928  12.602   8.012
 1045POPC   C4A17466   2.070  12.676   7.621
 1045POPC   C1B17467   2.264  13.112   8.654
 1045POPC   C2B17468   2.103  13.030   8.254
 1045POPC   C3B17469   2.189  13.122   7.837
 1045POPC   C4B17470   1.933  13.106   7.432
 1046POPC   NC317471   1.557  25.635   9.416
 1046POPC   PO417472   1.155  26.180   9.474
 1046POPC   GL117473   1.043  26.070   9.116
 1046POPC   GL217474   0.986  25.717   9.155
 1046POPC   C1A17475   0.903  26.158   8.749
 1046POPC   D2A17476   1.154  26.195   8.416
 1046POPC   C3A17477   0.973  26.319   8.035
 1046POPC   C4A17478   1.134  26.210   7.676
 1046POPC   C1B17479   1.298  25.798   8.795
 1046POPC   C2B17480   1.519  25.783   8.401
 1046POPC   C3B17481   1.455  26.006   8.036
 1046POPC   C4B17482   1.490  25.800   7.641
 1047POPC   NC317483   9.113  31.221   9.509
 1047POPC   PO417484   9.247  31.874   9.518
 1047POPC   GL117485   9.005  31.719   9.097
 1047POPC   GL217486   8.933  31.355   9.040
 1047POPC   C1A17487   9.192  31.618   8.685
 1047POPC   D2A17488   9.401  31.533   8.300
 1047POPC   C3A17489   9.142  31.678   7.968
 1047POPC   C4A17490   8.791  31.530   7.739
 1047POPC   C1B17491   8.711  31.437   8.666
 1047POPC   C2B17492   8.755  31.395   8.226
 1047POPC   C3B17493   8.722  31.072   7.917
 1047POPC   C4B17494   8.613  31.112   7.431
 1048POPC   NC317495  37.803  43.737   9.680
 1048POPC   PO417496  37.529  44.244   9.483
 1048POPC   GL117497  37.906  44.013   9.224
 1048POPC   GL217498  37.998  43.632   9.200
 1048POPC   C1A17499  38.103  43.930   8.792
 1048POPC   D2A17500  37.913  43.788   8.389
 1048POPC   C3A17501  37.919  43.982   7.988
 1048POPC   C4A17502  37.880  43.843   7.541
 1048POPC   C1B17503  37.696  43.574   8.831
 1048POPC   C2B17504  37.423  43.652   8.452
 1048POPC   C3B17505  37.581  43.521   8.033
 1048POPC   C4B17506  37.484  43.509   7.591
 1049POPC   NC317507  24.624  20.235   9.579
 1049POPC   PO417508  24.445  20.885   9.504
 1049POPC   GL117509  24.337  20.530   9.202
 1049POPC   GL217510  24.653  20.354   9.081
 1049POPC   C1A17511  24.344  20.605   8.749
 1049POPC   D2A17512  24.636  20.833   8.493
 1049POPC   C3A17513  24.521  20.850   8.086
 1049POPC   C4A17514  24.674  20.970   7.673
 1049POPC   C1B17515  24.812  20.359   8.646
 1049POPC   C2B17516  24.854  20.389   8.186
 1049POPC   C3B17517  24.660  20.466   7.800
 1049POPC   C4B17518  24.219  20.537   7.756
 1050POPC   NC317519   7.324  10.359   9.542
 1050POPC   PO417520   7.242  10.943   9.489
 1050POPC   GL117521   7.368  10.713   9.090
 1050POPC   GL217522   7.604  10.437   9.125
 1050POPC   C1A17523   7.367  10.583   8.631
 1050POPC   D2A17524   7.284  10.767   8.257
 1050POPC   C3A17525   7.477  10.753   7.873
 1050POPC   C4A17526   7.523  11.055   7.557
 1050POPC   C1B17527   7.851  10.508   8.747
 1050POPC   C2B17528   7.793  10.647   8.312
 1050POPC   C3B17529   7.933  10.503   7.900
 1050POPC   C4B17530   7.740  10.449   7.521
 1051POPC   NC317531   5.207   0.377   9.550
 1051POPC   PO417532   4.655   0.783   9.578
 1051POPC   GL117533   4.976   0.680   9.227
 1051POPC   GL217534   4.928   0.304   9.132
 1051POPC   C1A17535   5.193   0.588   8.810
 1051POPC   D2A17536   5.074   0.502   8.381
 1051POPC   C3A17537   5.354   0.481   8.038
 1051POPC   C4A17538   5.096   0.597   7.683
 1051POPC   C1B17539   5.030   0.099   8.709
 1051POPC   C2B17540   5.042  44.966   8.245
 1051POPC   C3B17541   5.120   0.093   7.796
 1051POPC   C4B17542   4.848   0.231   7.413
 1052POPC   NC317543  28.098  16.065   9.584
 1052POPC   PO417544  28.339  15.424   9.734
 1052POPC   GL117545  28.471  15.719   9.280
 1052POPC   GL217546  28.212  15.898   9.113
 1052POPC   C1A17547  28.560  15.699   8.793
 1052POPC   D2A17548  28.221  15.723   8.453
 1052POPC   C3A17549  28.328  15.713   7.987
 1052POPC   C4A17550  28.601  15.724   7.582
 1052POPC   C1B17551  28.358  16.158   8.780
 1052POPC   C2B17552  28.352  16.381   8.394
 1052POPC   C3B17553  28.163  16.185   8.073
 1052POPC   C4B17554  28.218  16.055   7.639
 1053POPC   NC317555  34.145  31.470   9.536
 1053POPC   PO417556  33.732  31.067   9.328
 1053POPC   GL117557  33.929  31.323   9.081
 1053POPC   GL217558  33.790  31.621   9.176
 1053POPC   C1A17559  34.011  31.369   8.662
 1053POPC   D2A17560  34.025  31.136   8.284
 1053POPC   C3A17561  34.116  31.460   7.986
 1053POPC   C4A17562  34.181  31.415   7.555
 1053POPC   C1B17563  33.530  31.514   8.783
 1053POPC   C2B17564  33.604  31.451   8.324
 1053POPC   C3B17565  33.653  31.670   7.909
 1053POPC   C4B17566  33.682  31.558   7.465
 1054POPC   NC317567  41.914  35.493   9.474
 1054POPC   PO417568  41.255  35.176   9.423
 1054POPC   GL117569  41.557  35.319   9.136
 1054POPC   GL217570  41.306  35.382   8.902
 1054POPC   C1A17571  41.758  35.606   8.817
 1054POPC   D2A17572  41.822  35.716   8.378
 1054POPC   C3A17573  41.485  35.648   8.060
 1054POPC   C4A17574  41.700  35.458   7.732
 1054POPC   C1B17575  41.124  35.006   8.658
 1054POPC   C2B17576  41.133  34.929   8.197
 1054POPC   C3B17577  41.299  35.145   7.802
 1054POPC   C4B17578  41.093  35.181   7.393
 1055POPC   NC317579  34.116   3.742   9.323
 1055POPC   PO417580  33.532   3.528   9.483
 1055POPC   GL117581  33.752   3.327   9.121
 1055POPC   GL217582  34.114   3.224   9.107
 1055POPC   C1A17583  33.719   3.453   8.676
 1055POPC   D2A17584  33.689   3.238   8.276
 1055POPC   C3A17585  33.746   3.491   7.925
 1055POPC   C4A17586  33.649   3.516   7.489
 1055POPC   C1B17587  34.236   3.395   8.674
 1055POPC   C2B17588  34.204   3.514   8.191
 1055POPC   C3B17589  34.205   3.618   7.733
 1055POPC   C4B17590  34.331   3.617   7.281
 1056POPC   NC317591   1.768   2.753   9.507
 1056POPC   PO417592   1.208   2.561   9.637
 1056POPC   GL117593   1.251   2.763   9.255
 1056POPC   GL217594   1.503   3.007   9.160
 1056POPC   C1A17595   1.127   2.670   8.849
 1056POPC   D2A17596   1.238   2.858   8.458
 1056POPC   C3A17597   1.298   2.547   8.139
 1056POPC   C4A17598   1.050   2.534   7.768
 1056POPC   C1B17599   1.162   3.178   8.917
 1056POPC   C2B17600   1.018   3.377   8.530
 1056POPC   C3B17601   1.147   3.254   8.133
 1056POPC   C4B17602   1.154   3.083   7.690
 1057POPC   NC317603   6.355  33.453   9.493
 1057POPC   PO417604   6.813  34.002   9.381
 1057POPC   GL117605   6.681  33.654   9.105
 1057POPC   GL217606   6.308  33.592   9.001
 1057POPC   C1A17607   6.689  33.657   8.650
 1057POPC   D2A17608   6.861  33.900   8.303
 1057POPC   C3A17609   6.744  33.711   7.895
 1057POPC   C4A17610   6.796  33.492   7.508
 1057POPC   C1B17611   6.223  33.907   8.654
 1057POPC   C2B17612   6.341  33.942   8.204
 1057POPC   C3B17613   6.274  34.036   7.760
 1057POPC   C4B17614   6.421  33.850   7.421
 1058POPC   NC317615   2.219  18.031   9.455
 1058POPC   PO417616   1.732  18.543   9.471
 1058POPC   GL117617   1.861  18.293   9.160
 1058POPC   GL217618   2.182  18.399   9.111
 1058POPC   C1A17619   1.741  18.307   8.738
 1058POPC   D2A17620   1.576  18.191   8.329
 1058POPC   C3A17621   1.775  18.253   7.940
 1058POPC   C4A17622   1.778  18.564   7.642
 1058POPC   C1B17623   2.213  18.119   8.749
 1058POPC   C2B17624   2.112  18.141   8.319
 1058POPC   C3B17625   2.310  18.262   7.956
 1058POPC   C4B17626   2.523  18.034   7.627
 1059POPC   NC317627   1.289  28.943   9.423
 1059POPC   PO417628   0.911  29.524   9.316
 1059POPC   GL117629   1.110  29.320   9.045
 1059POPC   GL217630   1.474  29.308   9.141
 1059POPC   C1A17631   0.907  29.319   8.645
 1059POPC   D2A17632   0.922  29.458   8.213
 1059POPC   C3A17633   0.994  29.169   7.889
 1059POPC   C4A17634   1.069  29.260   7.442
 1059POPC   C1B17635   1.352  28.969   8.782
 1059POPC   C2B17636   1.217  29.016   8.369
 1059POPC   C3B17637   1.459  28.989   8.023
 1059POPC   C4B17638   1.513  29.040   7.622
 1060POPC   NC317639  30.626  12.658   9.532
 1060POPC   PO417640  30.029  12.585   9.367
 1060POPC   GL117641  30.382  12.799   9.109
 1060POPC   GL217642  30.798  12.811   9.087
 1060POPC   C1A17643  30.484  13.020   8.746
 1060POPC   D2A17644  30.343  12.936   8.366
 1060POPC   C3A17645  30.492  13.065   7.979
 1060POPC   C4A17646  30.426  12.764   7.701
 1060POPC   C1B17647  31.118  12.693   8.744
 1060POPC   C2B17648  31.059  12.769   8.276
 1060POPC   C3B17649  30.993  12.782   7.800
 1060POPC   C4B17650  31.105  12.994   7.390
 1061POPC   NC317651  16.348   3.415   9.628
 1061POPC   PO417652  15.745   3.633   9.490
 1061POPC   GL117653  15.660   3.649   9.103
 1061POPC   GL217654  15.957   3.518   8.991
 1061POPC   C1A17655  15.746   3.865   8.708
 1061POPC   D2A17656  16.007   3.778   8.348
 1061POPC   C3A17657  15.764   3.824   7.989
 1061POPC   C4A17658  15.651   3.490   7.747
 1061POPC   C1B17659  15.826   3.258   8.644
 1061POPC   C2B17660  15.787   3.314   8.210
 1061POPC   C3B17661  16.126   3.432   7.954
 1061POPC   C4B17662  16.252   3.798   7.858
 1062POPC   NC317663  20.695  19.394   9.545
 1062POPC   PO417664  20.521  20.029   9.484
 1062POPC   GL117665  20.860  20.006   9.147
 1062POPC   GL217666  21.058  19.691   9.193
 1062POPC   C1A17667  20.664  20.110   8.679
 1062POPC   D2A17668  20.288  20.019   8.404
 1062POPC   C3A17669  20.414  19.827   8.006
 1062POPC   C4A17670  20.783  19.983   7.796
 1062POPC   C1B17671  20.733  19.644   8.853
 1062POPC   C2B17672  20.637  19.615   8.443
 1062POPC   C3B17673  20.875  19.583   8.098
 1062POPC   C4B17674  20.775  19.496   7.690
 1063POPC   NC317675  40.328  37.393   9.455
 1063POPC   PO417676  40.911  37.751   9.497
 1063POPC   GL117677  40.760  37.748   9.086
 1063POPC   GL217678  40.387  37.709   9.072
 1063POPC   C1A17679  40.687  37.583   8.676
 1063POPC   D2A17680  40.707  37.474   8.276
 1063POPC   C3A17681  40.807  37.820   8.101
 1063POPC   C4A17682  40.808  37.680   7.720
 1063POPC   C1B17683  40.170  37.545   8.721
 1063POPC   C2B17684  40.248  37.732   8.337
 1063POPC   C3B17685  40.328  37.723   7.927
 1063POPC   C4B17686  40.430  38.032   7.654
 1064POPC   NC317687  18.650  25.715   9.363
 1064POPC   PO417688  19.115  25.267   9.626
 1064POPC   GL117689  19.065  25.442   9.223
 1064POPC   GL217690  18.797  25.204   9.161
 1064POPC   C1A17691  18.912  25.552   8.783
 1064POPC   D2A17692  18.942  25.746   8.377
 1064POPC   C3A17693  19.214  25.491   8.114
 1064POPC   C4A17694  19.012  25.318   7.753
 1064POPC   C1B17695  18.806  25.055   8.714
 1064POPC   C2B17696  18.816  25.162   8.255
 1064POPC   C3B17697  18.712  24.921   7.852
 1064POPC   C4B17698  18.821  25.020   7.380
 1065POPC   NC317699  25.763  14.688   9.451
 1065POPC   PO417700  26.330  14.504   9.680
 1065POPC   GL117701  26.131  14.375   9.252
 1065POPC   GL217702  25.995  14.641   9.010
 1065POPC   C1A17703  25.826  14.196   8.924
 1065POPC   D2A17704  25.810  14.373   8.508
 1065POPC   C3A17705  25.947  14.176   8.131
 1065POPC   C4A17706  25.875  14.319   7.718
 1065POPC   C1B17707  26.349  14.585   8.813
 1065POPC   C2B17708  26.340  14.419   8.422
 1065POPC   C3B17709  26.107  14.638   8.123
 1065POPC   C4B17710  26.233  14.702   7.729
 1066POPC   NC317711  31.168  14.593   9.426
 1066POPC   PO417712  31.694  14.205   9.560
 1066POPC   GL117713  31.476  14.262   9.192
 1066POPC   GL217714  31.694  14.559   9.162
 1066POPC   C1A17715  31.376  14.463   8.784
 1066POPC   D2A17716  31.624  14.519   8.428
 1066POPC   C3A17717  31.390  14.786   8.172
 1066POPC   C4A17718  31.314  14.563   7.807
 1066POPC   C1B17719  31.864  14.263   8.855
 1066POPC   C2B17720  31.781  14.042   8.475
 1066POPC   C3B17721  31.909  14.136   8.032
 1066POPC   C4B17722  31.728  14.293   7.613
 1067POPC   NC317723  15.895  40.140   9.530
 1067POPC   PO417724  15.606  39.659   9.393
 1067POPC   GL117725  15.937  39.890   9.068
 1067POPC   GL217726  16.104  40.251   9.095
 1067POPC   C1A17727  16.175  39.985   8.659
 1067POPC   D2A17728  16.345  39.927   8.226
 1067POPC   C3A17729  16.086  40.026   7.853
 1067POPC   C4A17730  15.701  40.044   7.582
 1067POPC   C1B17731  15.839  40.341   8.733
 1067POPC   C2B17732  15.918  40.231   8.298
 1067POPC   C3B17733  15.793  40.423   7.932
 1067POPC   C4B17734  15.822  40.547   7.499
 1068POPC   NC317735   7.522  17.182   9.459
 1068POPC   PO417736   7.497  17.871   9.562
 1068POPC   GL117737   7.485  17.813   9.128
 1068POPC   GL217738   7.737  17.567   9.160
 1068POPC   C1A17739   7.407  17.554   8.759
 1068POPC   D2A17740   7.120  17.625   8.446
 1068POPC   C3A17741   7.241  17.537   8.038
 1068POPC   C4A17742   7.237  17.751   7.650
 1068POPC   C1B17743   7.910  17.623   8.739
 1068POPC   C2B17744   7.772  17.613   8.321
 1068POPC   C3B17745   7.726  17.646   7.894
 1068POPC   C4B17746   7.548  17.346   7.655
 1069POPC   NC317747  10.276  27.436   9.593
 1069POPC   PO417748  10.675  27.923   9.393
 1069POPC   GL117749  10.466  27.679   9.089
 1069POPC   GL217750  10.434  27.316   9.127
 1069POPC   C1A17751  10.546  27.675   8.638
 1069POPC   D2A17752  10.622  27.943   8.256
 1069POPC   C3A17753  10.482  27.686   7.905
 1069POPC   C4A17754  10.428  27.233   7.967
 1069POPC   C1B17755  10.784  27.201   8.875
 1069POPC   C2B17756  11.034  27.321   8.539
 1069POPC   C3B17757  10.864  27.409   8.169
 1069POPC   C4B17758  10.892  27.289   7.764
 1070POPC   NC317759  24.411  18.574   9.994
 1070POPC   PO417760  24.809  18.210   9.591
 1070POPC   GL117761  24.524  18.343   9.276
 1070POPC   GL217762  24.215  18.098   9.297
 1070POPC   C1A17763  24.632  18.433   8.839
 1070POPC   D2A17764  24.612  18.245   8.444
 1070POPC   C3A17765  24.574  18.469   8.095
 1070POPC   C4A17766  24.680  18.390   7.703
 1070POPC   C1B17767  24.138  18.353   8.935
 1070POPC   C2B17768  24.105  18.258   8.517
 1070POPC   C3B17769  24.146  18.202   8.096
 1070POPC   C4B17770  24.157  18.398   7.709
 1071POPC   NC317771   4.322  26.427   9.457
 1071POPC   PO417772   4.551  25.804   9.437
 1071POPC   GL117773   4.302  25.884   9.057
 1071POPC   GL217774   4.156  26.220   9.040
 1071POPC   C1A17775   4.466  26.048   8.695
 1071POPC   D2A17776   4.712  26.039   8.359
 1071POPC   C3A17777   4.404  26.107   8.102
 1071POPC   C4A17778   4.430  26.080   7.732
 1071POPC   C1B17779   3.901  26.086   8.701
 1071POPC   C2B17780   3.856  25.890   8.282
 1071POPC   C3B17781   3.941  26.022   7.851
 1071POPC   C4B17782   4.091  26.344   7.476
 1072POPC   NC317783  44.143  34.124   9.517
 1072POPC   PO417784  43.632  33.635   9.498
 1072POPC   GL117785  43.829  33.867   9.186
 1072POPC   GL217786  44.087  33.592   9.140
 1072POPC   C1A17787  43.850  33.941   8.744
 1072POPC   D2A17788  43.958  33.682   8.397
 1072POPC   C3A17789  43.935  33.870   8.001
 1072POPC   C4A17790  43.580  33.973   7.746
 1072POPC   C1B17791  43.744  33.442   8.863
 1072POPC   C2B17792  43.492  33.482   8.484
 1072POPC   C3B17793  43.661  33.380   8.072
 1072POPC   C4B17794  44.078  33.417   7.868
 1073POPC   NC317795   8.401  42.209   9.527
 1073POPC   PO417796   8.434  42.709   9.149
 1073POPC   GL117797   8.133  42.364   9.097
 1073POPC   GL217798   8.080  41.995   9.194
 1073POPC   C1A17799   8.210  42.173   8.716
 1073POPC   D2A17800   8.145  42.414   8.377
 1073POPC   C3A17801   8.252  42.304   8.017
 1073POPC   C4A17802   8.066  42.399   7.684
 1073POPC   C1B17803   7.765  42.049   8.901
 1073POPC   C2B17804   7.716  42.107   8.468
 1073POPC   C3B17805   7.773  42.144   8.039
 1073POPC   C4B17806   7.955  41.903   7.710
 1074POPC   NC317807  28.167   0.941   9.450
 1074POPC   PO417808  28.684   0.574   9.538
 1074POPC   GL117809  28.423   0.514   9.186
 1074POPC   GL217810  28.430   0.140   9.225
 1074POPC   C1A17811  28.485   0.627   8.742
 1074POPC   D2A17812  28.284   0.560   8.341
 1074POPC   C3A17813  28.431   0.584   7.889
 1074POPC   C4A17814  28.303   0.612   7.401
 1074POPC   C1B17815  28.240   0.171   8.824
 1074POPC   C2B17816  28.415   0.093   8.418
 1074POPC   C3B17817  28.118   0.125   8.078
 1074POPC   C4B17818  28.236   0.181   7.675
 1075POPC   NC317819  13.230   1.980   9.391
 1075POPC   PO417820  13.883   2.110   9.499
 1075POPC   GL117821  13.707   2.080   9.129
 1075POPC   GL217822  13.615   2.392   9.127
 1075POPC   C1A17823  13.740   2.144   8.687
 1075POPC   D2A17824  13.951   1.880   8.386
 1075POPC   C3A17825  13.716   1.762   8.021
 1075POPC   C4A17826  13.625   1.501   7.700
 1075POPC   C1B17827  13.292   2.396   8.872
 1075POPC   C2B17828  13.281   2.345   8.462
 1075POPC   C3B17829  13.403   2.191   8.092
 1075POPC   C4B17830  13.579   2.304   7.749
 1076POPC   NC317831  12.699  43.718   9.412
 1076POPC   PO417832  13.034  44.206   9.566
 1076POPC   GL117833  12.968  44.046   9.132
 1076POPC   GL217834  12.602  44.102   9.063
 1076POPC   C1A17835  12.883  43.755   8.775
 1076POPC   D2A17836  13.107  43.642   8.406
 1076POPC   C3A17837  13.071  43.966   8.086
 1076POPC   C4A17838  13.002  43.767   7.690
 1076POPC   C1B17839  12.380  44.191   8.693
 1076POPC   C2B17840  12.615  43.987   8.373
 1076POPC   C3B17841  12.592  43.805   7.984
 1076POPC   C4B17842  12.569  43.974   7.562
 1077POPC   NC317843  38.207   2.766   9.342
 1077POPC   PO417844  38.817   2.410   9.261
 1077POPC   GL117845  38.651   2.730   9.047
 1077POPC   GL217846  38.402   2.519   8.932
 1077POPC   C1A17847  38.818   2.846   8.659
 1077POPC   D2A17848  38.857   3.082   8.288
 1077POPC   C3A17849  38.591   2.824   8.048
 1077POPC   C4A17850  38.504   2.517   7.757
 1077POPC   C1B17851  38.262   2.839   8.668
 1077POPC   C2B17852  38.212   2.608   8.319
 1077POPC   C3B17853  37.966   2.615   8.012
 1077POPC   C4B17854  38.163   2.898   7.754
 1078POPC   NC317855  26.640  38.485   9.905
 1078POPC   PO417856  27.032  38.288   9.540
 1078POPC   GL117857  26.943  38.318   9.079
 1078POPC   GL217858  27.271  38.408   9.005
 1078POPC   C1A17859  26.653  38.400   8.678
 1078POPC   D2A17860  26.703  38.649   8.274
 1078POPC   C3A17861  26.752  38.420   7.852
 1078POPC   C4A17862  26.446  38.369   7.493
 1078POPC   C1B17863  27.146  38.415   8.583
 1078POPC   C2B17864  27.173  38.486   8.157
 1078POPC   C3B17865  27.132  38.750   7.810
 1078POPC   C4B17866  27.113  38.534   7.424
 1079POPC   NC317867  20.070  30.118   9.433
 1079POPC   PO417868  19.604  29.608   9.240
 1079POPC   GL117869  19.803  29.896   9.028
 1079POPC   GL217870  20.141  29.775   8.967
 1079POPC   C1A17871  19.792  29.822   8.596
 1079POPC   D2A17872  19.670  29.745   8.192
 1079POPC   C3A17873  19.421  30.056   7.977
 1079POPC   C4A17874  19.543  30.368   7.671
 1079POPC   C1B17875  20.120  30.194   8.772
 1079POPC   C2B17876  19.916  30.274   8.404
 1079POPC   C3B17877  19.938  30.141   7.975
 1079POPC   C4B17878  20.127  29.800   7.792
 1080POPC   NC317879   5.787  29.458   9.544
 1080POPC   PO417880   5.632  28.831   9.502
 1080POPC   GL117881   5.794  29.118   9.175
 1080POPC   GL217882   5.713  29.477   9.058
 1080POPC   C1A17883   6.003  29.155   8.811
 1080POPC   D2A17884   5.918  29.028   8.428
 1080POPC   C3A17885   6.140  29.210   8.121
 1080POPC   C4A17886   5.780  29.105   7.845
 1080POPC   C1B17887   5.641  29.473   8.636
 1080POPC   C2B17888   5.876  29.616   8.312
 1080POPC   C3B17889   5.585  29.562   8.015
 1080POPC   C4B17890   5.557  29.668   7.581
 1081POPC   NC317891   3.000   2.095   9.767
 1081POPC   PO417892   2.503   2.004   9.334
 1081POPC   GL117893   2.743   1.825   9.044
 1081POPC   GL217894   3.006   1.999   9.225
 1081POPC   C1A17895   2.684   1.821   8.596
 1081POPC   D2A17896   2.788   2.191   8.338
 1081POPC   C3A17897   2.748   2.097   7.914
 1081POPC   C4A17898   2.778   1.723   7.675
 1081POPC   C1B17899   3.089   2.087   8.783
 1081POPC   C2B17900   3.179   1.747   8.482
 1081POPC   C3B17901   3.084   1.708   8.059
 1081POPC   C4B17902   3.218   2.032   7.727
 1082POPC   NC317903  18.710   9.851   9.654
 1082POPC   PO417904  18.113   9.731   9.524
 1082POPC   GL117905  18.162   9.617   9.142
 1082POPC   GL217906  17.991   9.887   9.016
 1082POPC   C1A17907  18.463   9.650   8.847
 1082POPC   D2A17908  18.576   9.496   8.452
 1082POPC   C3A17909  18.316   9.556   8.117
 1082POPC   C4A17910  18.230   9.743   7.744
 1082POPC   C1B17911  17.995   9.577   8.653
 1082POPC   C2B17912  17.766   9.391   8.320
 1082POPC   C3B17913  17.821   9.484   7.936
 1082POPC   C4B17914  17.929   9.391   7.559
 1083POPC   NC317915  40.389  38.949   9.369
 1083POPC   PO417916  39.659  39.067   9.511
 1083POPC   GL117917  39.979  39.198   9.182
 1083POPC   GL217918  39.958  38.867   9.102
 1083POPC   C1A17919  40.117  39.502   8.820
 1083POPC   D2A17920  39.983  39.727   8.429
 1083POPC   C3A17921  40.091  39.561   8.017
 1083POPC   C4A17922  40.482  39.496   7.787
 1083POPC   C1B17923  40.073  38.999   8.708
 1083POPC   C2B17924  40.216  38.822   8.343
 1083POPC   C3B17925  40.051  38.836   7.963
 1083POPC   C4B17926  39.866  39.181   7.770
 1084POPC   NC317927   5.721  34.226   9.450
 1084POPC   PO417928   5.915  33.603   9.569
 1084POPC   GL117929   5.767  33.615   9.168
 1084POPC   GL217930   5.923  33.943   9.079
 1084POPC   C1A17931   5.851  33.571   8.739
 1084POPC   D2A17932   5.844  33.792   8.317
 1084POPC   C3A17933   5.948  33.691   7.889
 1084POPC   C4A17934   5.960  33.634   7.401
 1084POPC   C1B17935   5.670  34.047   8.724
 1084POPC   C2B17936   5.586  34.249   8.325
 1084POPC   C3B17937   5.810  34.201   7.932
 1084POPC   C4B17938   5.744  34.087   7.483
 1085POPC   NC317939   9.590  20.686   9.551
 1085POPC   PO417940  10.245  20.563   9.548
 1085POPC   GL117941  10.000  20.717   9.201
 1085POPC   GL217942   9.664  20.906   9.108
 1085POPC   C1A17943  10.081  20.815   8.776
 1085POPC   D2A17944   9.832  20.723   8.411
 1085POPC   C3A17945   9.977  20.596   8.004
 1085POPC   C4A17946   9.668  20.740   7.684
 1085POPC   C1B17947   9.666  20.512   8.852
 1085POPC   C2B17948   9.511  20.282   8.476
 1085POPC   C3B17949   9.510  20.410   8.029
 1085POPC   C4B17950   9.713  20.246   7.628
 1086POPC   NC317951  29.496   3.425   9.552
 1086POPC   PO417952  28.871   3.758   9.501
 1086POPC   GL117953  29.167   3.674   9.210
 1086POPC   GL217954  28.989   3.335   9.177
 1086POPC   C1A17955  29.427   3.826   8.847
 1086POPC   D2A17956  29.611   3.944   8.426
 1086POPC   C3A17957  29.488   3.730   8.055
 1086POPC   C4A17958  29.369   3.830   7.627
 1086POPC   C1B17959  29.049   3.490   8.765
 1086POPC   C2B17960  29.384   3.420   8.487
 1086POPC   C3B17961  29.278   3.248   8.110
 1086POPC   C4B17962  29.068   3.478   7.823
 1087POPC   NC317963  34.129  27.401   9.272
 1087POPC   PO417964  34.509  27.850   9.708
 1087POPC   GL117965  34.637  27.711   9.248
 1087POPC   GL217966  34.731  27.380   9.181
 1087POPC   C1A17967  34.639  27.760   8.812
 1087POPC   D2A17968  34.612  27.605   8.413
 1087POPC   C3A17969  34.465  27.897   8.144
 1087POPC   C4A17970  34.487  27.844   7.758
 1087POPC   C1B17971  34.946  27.358   8.758
 1087POPC   C2B17972  34.925  27.224   8.307
 1087POPC   C3B17973  34.753  27.366   7.866
 1087POPC   C4B17974  34.720  27.207   7.430
 1088POPC   NC317975  43.833  23.853   9.452
 1088POPC   PO417976  44.215  23.369   9.735
 1088POPC   GL117977  43.984  23.399   9.304
 1088POPC   GL217978  44.182  23.733   9.131
 1088POPC   C1A17979  43.810  23.496   8.873
 1088POPC   D2A17980  43.733  23.403   8.437
 1088POPC   C3A17981  43.856  23.673   8.100
 1088POPC   C4A17982  43.761  23.565   7.693
 1088POPC   C1B17983  44.193  23.921   8.726
 1088POPC   C2B17984  43.924  24.108   8.406
 1088POPC   C3B17985  43.992  24.195   7.981
 1088POPC   C4B17986  44.104  23.935   7.655
 1089POPC   NC317987  23.351   8.100   9.456
 1089POPC   PO417988  24.075   7.890   9.479
 1089POPC   GL117989  23.756   7.925   9.135
 1089POPC   GL217990  23.568   8.249   9.024
 1089POPC   C1A17991  23.796   7.948   8.699
 1089POPC   D2A17992  23.647   8.273   8.429
 1089POPC   C3A17993  23.559   8.092   8.023
 1089POPC   C4A17994  23.873   8.001   7.685
 1089POPC   C1B17995  23.967   8.423   8.842
 1089POPC   C2B17996  24.123   8.557   8.445
 1089POPC   C3B17997  23.965   8.401   8.034
 1089POPC   C4B17998  23.715   8.470   7.669
 1090POPC   NC317999  28.957  27.263   9.544
 1090POPC   PO418000  28.800  27.945   9.520
 1090POPC   GL118001  29.073  27.671   9.239
 1090POPC   GL218002  29.007  27.339   9.049
 1090POPC   C1A18003  29.343  27.669   8.865
 1090POPC   D2A18004  29.188  27.866   8.454
 1090POPC   C3A18005  29.218  27.608   8.091
 1090POPC   C4A18006  29.115  27.783   7.711
 1090POPC   C1B18007  28.847  27.654   8.759
 1090POPC   C2B18008  28.745  27.579   8.345
 1090POPC   C3B18009  28.847  27.222   8.114
 1090POPC   C4B18010  28.899  27.342   7.734
 1091POPC   NC318011   0.967  19.638   9.609
 1091POPC   PO418012   1.442  19.927   9.795
 1091POPC   GL118013   1.379  19.795   9.321
 1091POPC   GL218014   1.047  19.872   9.183
 1091POPC   C1A18015   1.395  19.748   8.838
 1091POPC   D2A18016   1.224  19.585   8.425
 1091POPC   C3A18017   1.397  19.777   8.057
 1091POPC   C4A18018   1.507  19.618   7.664
 1091POPC   C1B18019   0.845  19.945   8.823
 1091POPC   C2B18020   0.968  20.078   8.442
 1091POPC   C3B18021   0.852  20.107   8.064
 1091POPC   C4B18022   0.997  19.882   7.732
 1092POPC   NC318023  42.238  43.612   9.627
 1092POPC   PO418024  42.673  44.016   9.398
 1092POPC   GL118025  42.426  43.707   9.149
 1092POPC   GL218026  42.077  43.575   9.160
 1092POPC   C1A18027  42.289  43.761   8.726
 1092POPC   D2A18028  42.532  43.741   8.363
 1092POPC   C3A18029  42.349  43.915   8.004
 1092POPC   C4A18030  42.291  43.544   7.787
 1092POPC   C1B18031  41.824  43.514   8.837
 1092POPC   C2B18032  41.828  43.701   8.468
 1092POPC   C3B18033  41.890  43.667   8.073
 1092POPC   C4B18034  41.890  43.874   7.687
 1093POPC   NC318035  33.337   2.092   9.427
 1093POPC   PO418036  32.717   2.186   9.408
 1093POPC   GL118037  33.012   1.998   9.042
 1093POPC   GL218038  33.337   1.769   9.024
 1093POPC   C1A18039  33.055   1.887   8.588
 1093POPC   D2A18040  32.915   1.569   8.298
 1093POPC   C3A18041  32.888   1.764   7.914
 1093POPC   C4A18042  32.682   1.758   7.553
 1093POPC   C1B18043  33.461   2.120   8.770
 1093POPC   C2B18044  33.373   2.279   8.408
 1093POPC   C3B18045  33.280   2.041   8.076
 1093POPC   C4B18046  33.196   2.100   7.647
 1094POPC   NC318047  23.109  42.602   9.596
 1094POPC   PO418048  22.542  42.428   9.603
 1094POPC   GL118049  22.694  42.590   9.214
 1094POPC   GL218050  22.646  42.255   9.101
 1094POPC   C1A18051  22.862  42.583   8.753
 1094POPC   D2A18052  22.823  42.445   8.287
 1094POPC   C3A18053  23.107  42.375   7.931
 1094POPC   C4A18054  23.378  42.064   7.712
 1094POPC   C1B18055  22.613  42.131   8.660
 1094POPC   C2B18056  22.493  42.082   8.212
 1094POPC   C3B18057  22.613  42.210   7.833
 1094POPC   C4B18058  22.709  42.616   7.697
 1095POPC   NC318059  11.628  33.821   9.471
 1095POPC   PO418060  10.901  33.673   9.534
 1095POPC   GL118061  11.154  33.742   9.192
 1095POPC   GL218062  11.310  33.474   9.264
 1095POPC   C1A18063  11.349  33.894   8.819
 1095POPC   D2A18064  11.396  34.019   8.388
 1095POPC   C3A18065  11.027  34.057   8.136
 1095POPC   C4A18066  11.160  33.866   7.749
 1095POPC   C1B18067  11.324  33.389   8.850
 1095POPC   C2B18068  11.406  33.474   8.463
 1095POPC   C3B18069  11.458  33.562   8.053
 1095POPC   C4B18070  11.471  33.418   7.636
 1096POPC   NC318071   3.805  27.485   9.408
 1096POPC   PO418072   4.446  27.666   9.690
 1096POPC   GL118073   4.307  27.590   9.266
 1096POPC   GL218074   4.119  27.899   9.229
 1096POPC   C1A18075   4.385  27.597   8.817
 1096POPC   D2A18076   4.406  27.369   8.430
 1096POPC   C3A18077   4.446  27.645   8.100
 1096POPC   C4A18078   4.410  27.719   7.682
 1096POPC   C1B18079   3.958  27.895   8.808
 1096POPC   C2B18080   4.027  27.709   8.398
 1096POPC   C3B18081   3.953  27.639   7.930
 1096POPC   C4B18082   3.759  28.012   7.703
 1097POPC   NC318083  22.403  11.224   9.529
 1097POPC   PO418084  22.315  10.604   9.625
 1097POPC   GL118085  22.170  10.712   9.201
 1097POPC   GL218086  22.091  10.451   8.938
 1097POPC   C1A18087  22.366  10.794   8.743
 1097POPC   D2A18088  22.176  10.519   8.418
 1097POPC   C3A18089  22.307  10.545   7.987
 1097POPC   C4A18090  22.567  10.818   7.744
 1097POPC   C1B18091  21.751  10.343   8.668
 1097POPC   C2B18092  21.843  10.095   8.309
 1097POPC   C3B18093  21.861  10.256   7.902
 1097POPC   C4B18094  21.980  10.191   7.475
 1098POPC   NC318095  19.550  26.101   9.564
 1098POPC   PO418096  18.890  26.070   9.546
 1098POPC   GL118097  19.170  25.962   9.222
 1098POPC   GL218098  19.208  26.319   9.138
 1098POPC   C1A18099  19.246  25.952   8.780
 1098POPC   D2A18100  19.113  26.234   8.471
 1098POPC   C3A18101  19.214  26.080   8.075
 1098POPC   C4A18102  18.969  25.821   7.810
 1098POPC   C1B18103  18.798  26.224   8.905
 1098POPC   C2B18104  18.599  26.282   8.501
 1098POPC   C3B18105  18.646  26.187   8.049
 1098POPC   C4B18106  18.947  26.361   7.742
 1099POPC   NC318107  31.766  33.681   9.475
 1099POPC   PO418108  31.298  34.174   9.568
 1099POPC   GL118109  31.359  33.911   9.203
 1099POPC   GL218110  31.224  33.590   9.245
 1099POPC   C1A18111  31.592  34.004   8.798
 1099POPC   D2A18112  31.743  33.818   8.407
 1099POPC   C3A18113  31.588  33.985   8.018
 1099POPC   C4A18114  31.446  34.029   7.581
 1099POPC   C1B18115  31.511  33.520   8.899
 1099POPC   C2B18116  31.434  33.422   8.516
 1099POPC   C3B18117  31.353  33.529   8.146
 1099POPC   C4B18118  31.374  33.551   7.727
 1100POPC   NC318119   9.517  23.178   9.528
 1100POPC   PO418120   9.727  22.606   9.351
 1100POPC   GL118121   9.713  22.948   9.115
 1100POPC   GL218122  10.036  23.056   8.980
 1100POPC   C1A18123   9.586  23.052   8.747
 1100POPC   D2A18124   9.825  23.072   8.393
 1100POPC   C3A18125   9.602  23.147   8.044
 1100POPC   C4A18126   9.741  23.016   7.658
 1100POPC   C1B18127   9.955  22.680   8.694
 1100POPC   C2B18128   9.955  22.575   8.256
 1100POPC   C3B18129  10.227  22.667   7.890
 1100POPC   C4B18130  10.336  22.405   7.537
 1101POPC   NC318131  14.731  15.150   9.557
 1101POPC   PO418132  15.043  15.689   9.524
 1101POPC   GL118133  14.812  15.461   9.159
 1101POPC   GL218134  14.963  15.114   9.110
 1101POPC   C1A18135  14.695  15.302   8.723
 1101POPC   D2A18136  14.853  15.073   8.367
 1101POPC   C3A18137  14.985  15.243   7.970
 1101POPC   C4A18138  15.030  14.977   7.564
 1101POPC   C1B18139  15.199  15.245   8.752
 1101POPC   C2B18140  15.369  15.121   8.354
 1101POPC   C3B18141  15.388  14.944   7.951
 1101POPC   C4B18142  15.517  15.084   7.543
 1102POPC   NC318143  44.256  31.515   9.653
 1102POPC   PO418144  44.914  31.528   9.513
 1102POPC   GL118145  44.561  31.419   9.206
 1102POPC   GL218146  44.351  31.755   9.221
 1102POPC   C1A18147  44.597  31.254   8.741
 1102POPC   D2A18148  44.875  31.099   8.356
 1102POPC   C3A18149  44.867  31.328   7.936
 1102POPC   C4A18150  44.576  31.246   7.563
 1102POPC   C1B18151  44.586  31.785   8.842
 1102POPC   C2B18152  44.720  31.811   8.436
 1102POPC   C3B18153  44.504  31.670   8.098
 1102POPC   C4B18154  44.617  31.735   7.704
 1103POPC   NC318155  13.341   1.212   9.527
 1103POPC   PO418156  13.997   1.123   9.610
 1103POPC   GL118157  13.785   1.230   9.220
 1103POPC   GL218158  13.973   1.471   9.007
 1103POPC   C1A18159  13.523   1.246   8.845
 1103POPC   D2A18160  13.658   1.394   8.441
 1103POPC   C3A18161  13.434   1.250   8.087
 1103POPC   C4A18162  13.342   1.051   7.670
 1103POPC   C1B18163  13.999   1.086   8.706
 1103POPC   C2B18164  13.923   0.978   8.247
 1103POPC   C3B18165  13.821   1.016   7.796
 1103POPC   C4B18166  13.795   1.187   7.342
 1104POPC   NC318167  31.630  13.767   9.594
 1104POPC   PO418168  31.307  13.274   9.448
 1104POPC   GL118169  31.443  13.594   9.125
 1104POPC   GL218170  31.743  13.821   9.090
 1104POPC   C1A18171  31.625  13.524   8.681
 1104POPC   D2A18172  31.464  13.688   8.295
 1104POPC   C3A18173  31.233  13.451   7.999
 1104POPC   C4A18174  30.915  13.308   7.753
 1104POPC   C1B18175  31.366  13.957   8.782
 1104POPC   C2B18176  31.235  14.158   8.365
 1104POPC   C3B18177  31.408  14.062   7.942
 1104POPC   C4B18178  31.659  13.686   7.813
 1105POPC   NC318179  40.686  18.963   9.382
 1105POPC   PO418180  40.760  19.560   9.563
 1105POPC   GL118181  40.927  19.361   9.182
 1105POPC   GL218182  40.560  19.279   9.005
 1105POPC   C1A18183  40.983  19.139   8.790
 1105POPC   D2A18184  40.687  19.231   8.445
 1105POPC   C3A18185  40.824  19.310   8.040
 1105POPC   C4A18186  40.683  19.461   7.653
 1105POPC   C1B18187  40.528  18.856   8.748
 1105POPC   C2B18188  40.398  18.803   8.318
 1105POPC   C3B18189  40.497  18.954   7.902
 1105POPC   C4B18190  40.925  18.920   7.714
 1106POPC   NC318191  12.608  17.297   9.690
 1106POPC   PO418192  13.062  17.700   9.475
 1106POPC   GL118193  12.906  17.587   9.100
 1106POPC   GL218194  12.550  17.498   9.169
 1106POPC   C1A18195  13.075  17.617   8.673
 1106POPC   D2A18196  13.074  17.640   8.217
 1106POPC   C3A18197  12.868  17.249   8.096
 1106POPC   C4A18198  12.808  17.126   7.709
 1106POPC   C1B18199  12.548  17.703   8.753
 1106POPC   C2B18200  12.563  17.574   8.310
 1106POPC   C3B18201  12.567  17.567   7.825
 1106POPC   C4B18202  12.616  17.881   7.448
 1107POPC   NC318203  13.386  33.434   9.374
 1107POPC   PO418204  12.823  33.838   9.444
 1107POPC   GL118205  12.946  33.596   9.089
 1107POPC   GL218206  13.123  33.895   9.020
 1107POPC   C1A18207  12.778  33.665   8.681
 1107POPC   D2A18208  12.766  33.842   8.280
 1107POPC   C3A18209  12.737  33.580   7.920
 1107POPC   C4A18210  12.607  33.747   7.534
 1107POPC   C1B18211  13.290  33.664   8.685
 1107POPC   C2B18212  13.342  33.805   8.269
 1107POPC   C3B18213  13.134  33.890   7.915
 1107POPC   C4B18214  12.765  34.142   7.828
 1108POPC   NC318215  30.461  11.353   9.544
 1108POPC   PO418216  31.038  11.537   9.407
 1108POPC   GL118217  30.860  11.227   9.131
 1108POPC   GL218218  30.510  11.186   9.080
 1108POPC   C1A18219  30.849  11.044   8.719
 1108POPC   D2A18220  30.815  11.232   8.329
 1108POPC   C3A18221  30.755  10.949   8.024
 1108POPC   C4A18222  30.772  11.048   7.604
 1108POPC   C1B18223  30.444  11.357   8.689
 1108POPC   C2B18224  30.397  11.529   8.288
 1108POPC   C3B18225  30.592  11.434   7.891
 1108POPC   C4B18226  30.556  11.484   7.444
 1109POPC   NC318227  18.801  28.269   9.158
 1109POPC   PO418228  19.276  28.488   9.564
 1109POPC   GL118229  19.268  28.491   9.113
 1109POPC   GL218230  19.297  28.140   9.073
 1109POPC   C1A18231  19.102  28.512   8.661
 1109POPC   D2A18232  19.033  28.675   8.242
 1109POPC   C3A18233  19.210  28.463   7.878
 1109POPC   C4A18234  18.991  28.246   7.504
 1109POPC   C1B18235  19.248  28.012   8.676
 1109POPC   C2B18236  19.034  28.030   8.304
 1109POPC   C3B18237  19.155  27.957   7.902
 1109POPC   C4B18238  19.571  27.795   7.757
 1110POPC   NC318239   7.958  17.954   9.450
 1110POPC   PO418240   8.205  17.283   9.487
 1110POPC   GL118241   8.191  17.349   9.100
 1110POPC   GL218242   8.264  17.697   9.104
 1110POPC   C1A18243   8.326  17.308   8.702
 1110POPC   D2A18244   8.284  17.536   8.318
 1110POPC   C3A18245   8.136  17.340   7.978
 1110POPC   C4A18246   8.243  17.136   7.613
 1110POPC   C1B18247   8.376  17.855   8.700
 1110POPC   C2B18248   8.638  17.965   8.375
 1110POPC   C3B18249   8.617  17.862   7.974
 1110POPC   C4B18250   8.254  17.766   7.743
 1111POPC   NC318251   6.527  29.688   9.537
 1111POPC   PO418252   6.371  30.378   9.492
 1111POPC   GL118253   6.549  30.042   9.155
 1111POPC   GL218254   6.313  29.747   9.087
 1111POPC   C1A18255   6.708  29.863   8.752
 1111POPC   D2A18256   6.935  29.806   8.364
 1111POPC   C3A18257   6.767  29.903   7.972
 1111POPC   C4A18258   6.793  29.774   7.522
 1111POPC   C1B18259   6.256  29.588   8.676
 1111POPC   C2B18260   6.407  29.661   8.263
 1111POPC   C3B18261   6.505  29.491   7.828
 1111POPC   C4B18262   6.408  29.484   7.345
 1112POPC   NC318263   6.428  39.624   9.488
 1112POPC   PO418264   6.395  40.368   9.645
 1112POPC   GL118265   6.624  40.121   9.301
 1112POPC   GL218266   6.383  39.951   9.095
 1112POPC   C1A18267   6.850  40.231   8.897
 1112POPC   D2A18268   6.957  40.329   8.455
 1112POPC   C3A18269   6.717  40.073   8.139
 1112POPC   C4A18270   6.385  40.258   7.835
 1112POPC   C1B18271   6.437  39.900   8.644
 1112POPC   C2B18272   6.231  39.901   8.228
 1112POPC   C3B18273   6.412  39.760   7.819
 1112POPC   C4B18274   6.447  39.616   7.412
 1113POPC   NC318275  25.822  17.833   9.375
 1113POPC   PO418276  26.412  18.154   9.520
 1113POPC   GL118277  26.057  18.228   9.132
 1113POPC   GL218278  25.880  18.527   9.050
 1113POPC   C1A18279  25.881  18.221   8.659
 1113POPC   D2A18280  26.120  18.038   8.317
 1113POPC   C3A18281  26.163  18.092   7.874
 1113POPC   C4A18282  26.120  18.180   7.442
 1113POPC   C1B18283  26.216  18.603   8.749
 1113POPC   C2B18284  26.182  18.746   8.342
 1113POPC   C3B18285  26.015  18.576   7.972
 1113POPC   C4B18286  26.182  18.671   7.569
 1114POPC   NC318287  13.640   4.600   9.580
 1114POPC   PO418288  13.527   3.974   9.323
 1114POPC   GL118289  13.629   4.372   9.077
 1114POPC   GL218290  13.376   4.610   9.153
 1114POPC   C1A18291  13.667   4.428   8.605
 1114POPC   D2A18292  13.622   4.098   8.262
 1114POPC   C3A18293  13.790   4.144   7.824
 1114POPC   C4A18294  13.984   4.266   7.403
 1114POPC   C1B18295  13.202   4.573   8.777
 1114POPC   C2B18296  13.269   4.742   8.394
 1114POPC   C3B18297  13.200   4.676   7.981
 1114POPC   C4B18298  13.435   4.477   7.652
 1115POPC   NC318299   1.258  41.566   9.637
 1115POPC   PO418300   0.999  42.268   9.638
 1115POPC   GL118301   1.161  41.929   9.231
 1115POPC   GL218302   1.165  41.543   9.144
 1115POPC   C1A18303   1.127  41.855   8.745
 1115POPC   D2A18304   1.111  41.582   8.354
 1115POPC   C3A18305   1.000  41.743   7.951
 1115POPC   C4A18306   1.328  41.812   7.620
 1115POPC   C1B18307   1.335  41.337   8.771
 1115POPC   C2B18308   1.576  41.185   8.400
 1115POPC   C3B18309   1.586  41.386   8.025
 1115POPC   C4B18310   1.226  41.337   7.772
 1116POPC   NC318311  32.509  25.304   9.534
 1116POPC   PO418312  31.987  25.672   9.398
 1116POPC   GL118313  32.273  25.520   9.130
 1116POPC   GL218314  32.214  25.182   9.137
 1116POPC   C1A18315  32.125  25.533   8.729
 1116POPC   D2A18316  32.314  25.498   8.351
 1116POPC   C3A18317  32.013  25.537   8.023
 1116POPC   C4A18318  32.174  25.332   7.704
 1116POPC   C1B18319  32.422  25.121   8.742
 1116POPC   C2B18320  32.430  24.981   8.290
 1116POPC   C3B18321  32.386  24.897   7.837
 1116POPC   C4B18322  32.114  24.833   7.440
 1117POPC   NC318323  24.249  15.771   9.408
 1117POPC   PO418324  24.949  15.632   9.384
 1117POPC   GL118325  24.803  15.991   9.078
 1117POPC   GL218326  24.426  16.071   9.035
 1117POPC   C1A18327  24.708  15.967   8.626
 1117POPC   D2A18328  24.637  15.552   8.432
 1117POPC   C3A18329  24.390  15.564   8.060
 1117POPC   C4A18330  24.470  15.813   7.707
 1117POPC   C1B18331  24.177  16.057   8.615
 1117POPC   C2B18332  24.162  16.032   8.129
 1117POPC   C3B18333  24.152  16.217   7.705
 1117POPC   C4B18334  24.002  16.439   7.309
 1118POPC   NC318335  37.840  33.541   9.638
 1118POPC   PO418336  38.103  34.138   9.542
 1118POPC   GL118337  37.847  33.892   9.205
 1118POPC   GL218338  37.541  33.693   9.243
 1118POPC   C1A18339  37.692  33.887   8.771
 1118POPC   D2A18340  37.495  33.924   8.358
 1118POPC   C3A18341  37.783  33.900   8.060
 1118POPC   C4A18342  37.868  33.985   7.682
 1118POPC   C1B18343  37.545  33.392   8.882
 1118POPC   C2B18344  37.350  33.442   8.462
 1118POPC   C3B18345  37.434  33.520   8.021
 1118POPC   C4B18346  37.578  33.565   7.596
 1119POPC   NC318347  25.125  17.034   9.462
 1119POPC   PO418348  25.543  17.532   9.600
 1119POPC   GL118349  25.374  17.646   9.215
 1119POPC   GL218350  25.060  17.491   9.190
 1119POPC   C1A18351  25.442  17.446   8.821
 1119POPC   D2A18352  25.533  17.240   8.447
 1119POPC   C3A18353  25.409  17.438   8.055
 1119POPC   C4A18354  25.343  17.808   7.809
 1119POPC   C1B18355  24.902  17.675   8.788
 1119POPC   C2B18356  24.930  17.792   8.338
 1119POPC   C3B18357  24.902  17.548   7.929
 1119POPC   C4B18358  25.066  17.152   7.763
 1120POPC   NC318359   5.345  14.951   9.485
 1120POPC   PO418360   4.861  15.430   9.398
 1120POPC   GL118361   5.026  15.370   9.038
 1120POPC   GL218362   5.353  15.337   9.106
 1120POPC   C1A18363   5.116  15.025   8.752
 1120POPC   D2A18364   5.386  14.920   8.397
 1120POPC   C3A18365   5.179  14.979   8.007
 1120POPC   C4A18366   4.990  15.286   7.720
 1120POPC   C1B18367   5.435  15.427   8.711
 1120POPC   C2B18368   5.203  15.417   8.361
 1120POPC   C3B18369   5.415  15.440   8.004
 1120POPC   C4B18370   5.541  15.284   7.684
 1121POPC   NC318371  12.921  24.402   9.574
 1121POPC   PO418372  12.881  23.761   9.651
 1121POPC   GL118373  12.756  23.897   9.246
 1121POPC   GL218374  12.711  23.588   9.188
 1121POPC   C1A18375  12.634  23.843   8.785
 1121POPC   D2A18376  12.716  23.640   8.442
 1121POPC   C3A18377  12.821  23.785   8.060
 1121POPC   C4A18378  12.567  23.634   7.728
 1121POPC   C1B18379  13.069  23.565   8.867
 1121POPC   C2B18380  13.164  23.430   8.425
 1121POPC   C3B18381  12.941  23.288   8.074
 1121POPC   C4B18382  13.040  23.490   7.656
 1122POPC   NC318383   1.645  30.911   9.508
 1122POPC   PO418384   2.208  30.678   9.523
 1122POPC   GL118385   2.071  30.584   9.105
 1122POPC   GL218386   1.720  30.669   9.060
 1122POPC   C1A18387   2.300  30.408   8.742
 1122POPC   D2A18388   2.300  30.605   8.339
 1122POPC   C3A18389   2.050  30.578   7.934
 1122POPC   C4A18390   2.248  30.661   7.497
 1122POPC   C1B18391   1.870  30.659   8.632
 1122POPC   C2B18392   1.857  30.895   8.282
 1122POPC   C3B18393   1.637  30.884   7.930
 1122POPC   C4B18394   1.737  30.746   7.533
 1123POPC   NC318395  33.689  44.458   9.499
 1123POPC   PO418396  34.011   0.059   9.687
 1123POPC   GL118397  34.076  44.983   9.247
 1123POPC   GL218398  33.809  44.819   9.163
 1123POPC   C1A18399  34.155   0.067   8.792
 1123POPC   D2A18400  34.194   0.211   8.338
 1123POPC   C3A18401  34.199  44.870   8.015
 1123POPC   C4A18402  34.049  44.749   7.574
 1123POPC   C1B18403  33.837  44.620   8.787
 1123POPC   C2B18404  33.807  44.850   8.391
 1123POPC   C3B18405  33.688  44.714   7.983
 1123POPC   C4B18406  33.653  44.302   7.751
 1124POPC   NC318407   4.152   2.005   9.259
 1124POPC   PO418408   4.461   2.140   9.774
 1124POPC   GL118409   4.633   1.909   9.247
 1124POPC   GL218410   4.415   1.698   8.954
 1124POPC   C1A18411   4.605   2.121   8.794
 1124POPC   D2A18412   4.408   1.941   8.471
 1124POPC   C3A18413   4.472   1.981   8.067
 1124POPC   C4A18414   4.332   2.161   7.700
 1124POPC   C1B18415   3.997   1.791   8.691
 1124POPC   C2B18416   3.939   2.048   8.300
 1124POPC   C3B18417   4.043   1.764   7.967
 1124POPC   C4B18418   4.208   1.688   7.577
 1125POPC   NC318419   3.843  18.518   9.902
 1125POPC   PO418420   3.311  18.306   9.450
 1125POPC   GL118421   3.655  18.486   9.215
 1125POPC   GL218422   3.560  18.814   9.133
 1125POPC   C1A18423   3.852  18.428   8.795
 1125POPC   D2A18424   3.881  18.484   8.325
 1125POPC   C3A18425   3.508  18.321   8.047
 1125POPC   C4A18426   3.293  17.892   7.926
 1125POPC   C1B18427   3.294  18.568   8.804
 1125POPC   C2B18428   3.087  18.444   8.373
 1125POPC   C3B18429   3.102  18.639   7.920
 1125POPC   C4B18430   3.399  18.573   7.567
 1126POPC   NC318431  32.271   2.051   9.341
 1126POPC   PO418432  31.783   1.651   9.738
 1126POPC   GL118433  31.847   1.732   9.206
 1126POPC   GL218434  31.916   2.069   8.976
 1126POPC   C1A18435  31.911   1.683   8.701
 1126POPC   D2A18436  31.878   2.007   8.412
 1126POPC   C3A18437  32.038   1.968   8.020
 1126POPC   C4A18438  31.970   2.289   7.751
 1126POPC   C1B18439  32.303   2.026   8.690
 1126POPC   C2B18440  32.594   1.973   8.362
 1126POPC   C3B18441  32.761   2.236   8.073
 1126POPC   C4B18442  32.486   2.200   7.773
 1127POPC   NC318443  30.065  34.015   9.415
 1127POPC   PO418444  29.872  33.350   9.560
 1127POPC   GL118445  29.792  33.634   9.194
 1127POPC   GL218446  30.126  33.640   9.066
 1127POPC   C1A18447  29.706  33.699   8.746
 1127POPC   D2A18448  29.982  33.677   8.373
 1127POPC   C3A18449  29.813  33.589   7.981
 1127POPC   C4A18450  29.993  33.777   7.640
 1127POPC   C1B18451  30.319  33.949   8.804
 1127POPC   C2B18452  30.215  34.112   8.447
 1127POPC   C3B18453  30.289  34.005   8.046
 1127POPC   C4B18454  30.310  34.179   7.658
 1128POPC   NC318455  37.273  43.001   9.565
 1128POPC   PO418456  37.843  43.299   9.577
 1128POPC   GL118457  37.708  42.938   9.290
 1128POPC   GL218458  37.880  43.130   9.077
 1128POPC   C1A18459  37.563  42.800   8.847
 1128POPC   D2A18460  37.786  42.783   8.442
 1128POPC   C3A18461  37.650  42.962   8.013
 1128POPC   C4A18462  37.260  42.880   7.771
 1128POPC   C1B18463  38.096  43.233   8.736
 1128POPC   C2B18464  37.958  43.272   8.345
 1128POPC   C3B18465  38.122  43.471   8.007
 1128POPC   C4B18466  37.954  43.350   7.644
 1129POPC   NC318467  18.596  37.106   9.589
 1129POPC   PO418468  18.066  36.653   9.498
 1129POPC   GL118469  18.215  36.789   9.120
 1129POPC   GL218470  18.479  37.007   9.120
 1129POPC   C1A18471  18.326  36.724   8.701
 1129POPC   D2A18472  18.147  36.759   8.291
 1129POPC   C3A18473  18.303  36.656   7.862
 1129POPC   C4A18474  18.079  36.702   7.466
 1129POPC   C1B18475  18.535  37.196   8.754
 1129POPC   C2B18476  18.495  37.133   8.323
 1129POPC   C3B18477  18.221  37.149   7.964
 1129POPC   C4B18478  18.353  37.128   7.527
 1130POPC   NC318479  35.355  40.839   9.889
 1130POPC   PO418480  35.500  40.623   9.253
 1130POPC   GL118481  35.332  40.612   8.944
 1130POPC   GL218482  35.024  40.523   9.114
 1130POPC   C1A18483  35.402  40.869   8.593
 1130POPC   D2A18484  35.490  40.719   8.201
 1130POPC   C3A18485  35.560  41.029   7.908
 1130POPC   C4A18486  35.695  40.889   7.546
 1130POPC   C1B18487  34.917  40.833   8.787
 1130POPC   C2B18488  34.954  40.734   8.334
 1130POPC   C3B18489  35.077  40.808   7.897
 1130POPC   C4B18490  35.207  40.981   7.495
 1131POPC   NC318491  39.788  34.771   9.373
 1131POPC   PO418492  40.446  34.594   9.340
 1131POPC   GL118493  40.128  34.557   9.045
 1131POPC   GL218494  39.931  34.260   8.950
 1131POPC   C1A18495  40.016  34.672   8.644
 1131POPC   D2A18496  39.854  34.531   8.275
 1131POPC   C3A18497  40.173  34.566   8.006
 1131POPC   C4A18498  40.131  34.887   7.714
 1131POPC   C1B18499  39.556  34.445   8.708
 1131POPC   C2B18500  39.403  34.752   8.376
 1131POPC   C3B18501  39.567  34.792   7.943
 1131POPC   C4B18502  39.768  34.482   7.711
 1132POPC   NC318503  12.621  34.249   9.477
 1132POPC   PO418504  12.710  34.819   9.424
 1132POPC   GL118505  12.836  34.494   9.088
 1132POPC   GL218506  12.490  34.469   9.020
 1132POPC   C1A18507  12.856  34.205   8.692
 1132POPC   D2A18508  13.070  34.254   8.272
 1132POPC   C3A18509  12.980  34.591   7.964
 1132POPC   C4A18510  13.154  34.899   7.670
 1132POPC   C1B18511  12.648  34.674   8.644
 1132POPC   C2B18512  12.589  34.435   8.274
 1132POPC   C3B18513  12.297  34.446   7.959
 1132POPC   C4B18514  12.376  34.355   7.567
 1133POPC   NC318515   6.927   8.220   9.377
 1133POPC   PO418516   7.223   7.766   9.763
 1133POPC   GL118517   7.289   7.852   9.304
 1133POPC   GL218518   7.638   7.896   9.365
 1133POPC   C1A18519   7.282   8.054   8.829
 1133POPC   D2A18520   7.441   8.316   8.431
 1133POPC   C3A18521   7.278   8.351   7.963
 1133POPC   C4A18522   7.133   8.039   7.665
 1133POPC   C1B18523   7.623   7.673   8.959
 1133POPC   C2B18524   7.638   7.825   8.518
 1133POPC   C3B18525   7.403   7.891   8.136
 1133POPC   C4B18526   7.633   8.002   7.790
 1134POPC   NC318527   3.821  11.079   9.853
 1134POPC   PO418528   4.493  11.238   9.631
 1134POPC   GL118529   4.278  11.313   9.242
 1134POPC   GL218530   4.431  11.027   9.083
 1134POPC   C1A18531   4.184  11.391   8.788
 1134POPC   D2A18532   4.453  11.441   8.404
 1134POPC   C3A18533   4.288  11.322   8.010
 1134POPC   C4A18534   4.223  11.496   7.587
 1134POPC   C1B18535   4.732  11.045   8.747
 1134POPC   C2B18536   4.693  10.961   8.304
 1134POPC   C3B18537   4.816  11.157   7.966
 1134POPC   C4B18538   4.630  11.193   7.603
 1135POPC   NC318539  23.951   9.992   9.394
 1135POPC   PO418540  23.486   9.496   9.399
 1135POPC   GL118541  23.787   9.584   9.103
 1135POPC   GL218542  24.149   9.498   9.189
 1135POPC   C1A18543  23.663   9.770   8.715
 1135POPC   D2A18544  23.553  10.065   8.403
 1135POPC   C3A18545  23.508   9.818   8.045
 1135POPC   C4A18546  23.578   9.839   7.622
 1135POPC   C1B18547  24.179   9.768   8.793
 1135POPC   C2B18548  24.026   9.866   8.356
 1135POPC   C3B18549  24.002   9.977   7.925
 1135POPC   C4B18550  24.093   9.594   7.700
 1136POPC   NC318551  22.286   9.325   9.588
 1136POPC   PO418552  21.863   8.784   9.470
 1136POPC   GL118553  22.056   8.804   9.124
 1136POPC   GL218554  22.314   9.022   9.181
 1136POPC   C1A18555  22.076   8.992   8.726
 1136POPC   D2A18556  22.258   8.856   8.360
 1136POPC   C3A18557  21.988   8.756   8.032
 1136POPC   C4A18558  22.115   8.516   7.679
 1136POPC   C1B18559  22.521   9.262   8.854
 1136POPC   C2B18560  22.757   9.164   8.475
 1136POPC   C3B18561  22.610   9.162   8.057
 1136POPC   C4B18562  22.257   9.085   7.794
 1137POPC   NC318563   2.430  25.968   9.389
 1137POPC   PO418564   3.128  26.244   9.457
 1137POPC   GL118565   2.942  26.103   9.122
 1137POPC   GL218566   3.000  25.799   9.035
 1137POPC   C1A18567   2.953  26.203   8.707
 1137POPC   D2A18568   2.729  26.156   8.332
 1137POPC   C3A18569   3.036  26.148   8.035
 1137POPC   C4A18570   3.163  26.389   7.713
 1137POPC   C1B18571   2.609  25.800   8.733
 1137POPC   C2B18572   2.478  25.693   8.275
 1137POPC   C3B18573   2.690  25.815   7.854
 1137POPC   C4B18574   2.461  25.830   7.384
 1138POPC   NC318575   5.387  42.693   9.362
 1138POPC   PO418576   4.867  42.277   9.498
 1138POPC   GL118577   5.219  42.107   9.233
 1138POPC   GL218578   5.189  42.363   9.054
 1138POPC   C1A18579   5.107  41.903   8.835
 1138POPC   D2A18580   4.741  42.002   8.502
 1138POPC   C3A18581   4.897  42.136   8.086
 1138POPC   C4A18582   5.201  42.006   7.769
 1138POPC   C1B18583   5.035  42.390   8.681
 1138POPC   C2B18584   5.269  42.397   8.333
 1138POPC   C3B18585   5.308  42.634   7.962
 1138POPC   C4B18586   5.045  42.481   7.652
 1139POPC   NC318587  17.468   6.226   9.256
 1139POPC   PO418588  17.259   5.628   9.528
 1139POPC   GL118589  17.442   5.666   9.109
 1139POPC   GL218590  17.776   5.868   9.053
 1139POPC   C1A18591  17.381   5.867   8.694
 1139POPC   D2A18592  17.599   5.805   8.304
 1139POPC   C3A18593  17.349   5.813   7.905
 1139POPC   C4A18594  17.097   5.748   7.527
 1139POPC   C1B18595  17.812   6.188   8.698
 1139POPC   C2B18596  17.992   6.218   8.286
 1139POPC   C3B18597  17.792   6.070   7.920
 1139POPC   C4B18598  17.740   6.198   7.525
 1140POPC   NC318599   6.834  22.430   9.625
 1140POPC   PO418600   6.328  22.042   9.454
 1140POPC   GL118601   6.589  22.015   9.129
 1140POPC   GL218602   6.829  22.290   9.141
 1140POPC   C1A18603   6.536  21.950   8.717
 1140POPC   D2A18604   6.516  22.179   8.355
 1140POPC   C3A18605   6.670  22.089   7.981
 1140POPC   C4A18606   6.351  22.053   7.690
 1140POPC   C1B18607   6.842  22.379   8.714
 1140POPC   C2B18608   7.008  22.374   8.296
 1140POPC   C3B18609   7.025  22.447   7.841
 1140POPC   C4B18610   6.734  22.316   7.511
 1141POPC   NC318611  37.290  19.475   9.497
 1141POPC   PO418612  37.763  19.887   9.541
 1141POPC   GL118613  37.732  19.611   9.207
 1141POPC   GL218614  38.036  19.467   9.120
 1141POPC   C1A18615  37.534  19.665   8.795
 1141POPC   D2A18616  37.553  20.072   8.535
 1141POPC   C3A18617  37.621  20.023   8.070
 1141POPC   C4A18618  37.494  19.683   7.777
 1141POPC   C1B18619  38.049  19.703   8.754
 1141POPC   C2B18620  37.826  19.663   8.363
 1141POPC   C3B18621  37.974  19.633   7.942
 1141POPC   C4B18622  37.840  19.331   7.631
 1142POPC   NC318623   8.365  41.212   9.469
 1142POPC   PO418624   7.816  40.956   9.486
 1142POPC   GL118625   8.029  40.785   9.140
 1142POPC   GL218626   8.378  40.819   9.132
 1142POPC   C1A18627   8.075  40.573   8.743
 1142POPC   D2A18628   8.323  40.653   8.382
 1142POPC   C3A18629   8.054  40.521   8.036
 1142POPC   C4A18630   8.002  40.602   7.587
 1142POPC   C1B18631   8.302  41.064   8.760
 1142POPC   C2B18632   8.282  41.179   8.317
 1142POPC   C3B18633   8.395  40.950   7.954
 1142POPC   C4B18634   8.752  40.914   7.715
 1143POPC   NC318635  20.431  36.693   9.504
 1143POPC   PO418636  19.872  36.979   9.404
 1143POPC   GL118637  19.728  36.910   9.035
 1143POPC   GL218638  19.479  37.119   9.033
 1143POPC   C1A18639  19.862  36.787   8.648
 1143POPC   D2A18640  20.208  36.545   8.519
 1143POPC   C3A18641  20.276  36.718   8.129
 1143POPC   C4A18642  19.931  36.901   7.872
 1143POPC   C1B18643  19.557  37.225   8.620
 1143POPC   C2B18644  19.579  36.992   8.242
 1143POPC   C3B18645  19.416  36.825   7.872
 1143POPC   C4B18646  19.558  37.088   7.530
 1144POPC   NC318647  39.335   1.072   9.456
 1144POPC   PO418648  38.973   1.562   9.160
 1144POPC   GL118649  39.231   1.250   8.998
 1144POPC   GL218650  39.596   1.248   9.053
 1144POPC   C1A18651  39.313   0.932   8.703
 1144POPC   D2A18652  39.308   1.082   8.304
 1144POPC   C3A18653  38.985   1.310   8.155
 1144POPC   C4A18654  39.019   1.095   7.789
 1144POPC   C1B18655  39.554   1.440   8.634
 1144POPC   C2B18656  39.675   1.419   8.190
 1144POPC   C3B18657  39.382   1.535   7.850
 1144POPC   C4B18658  38.960   1.669   7.799
 1145POPC   NC318659  26.650   2.184   9.581
 1145POPC   PO418660  26.949   1.591   9.371
 1145POPC   GL118661  26.785   1.873   9.010
 1145POPC   GL218662  26.807   2.241   9.073
 1145POPC   C1A18663  27.042   2.035   8.629
 1145POPC   D2A18664  27.281   1.960   8.238
 1145POPC   C3A18665  26.987   1.996   7.897
 1145POPC   C4A18666  26.538   1.820   7.793
 1145POPC   C1B18667  26.600   2.268   8.663
 1145POPC   C2B18668  26.617   2.132   8.227
 1145POPC   C3B18669  26.535   2.321   7.810
 1145POPC   C4B18670  26.570   2.553   7.426
 1146POPC   NC318671  21.810  22.178   9.802
 1146POPC   PO418672  21.193  22.431   9.489
 1146POPC   GL118673  21.133  22.311   9.068
 1146POPC   GL218674  21.349  22.008   9.030
 1146POPC   C1A18675  21.151  22.243   8.621
 1146POPC   D2A18676  21.429  22.327   8.295
 1146POPC   C3A18677  21.430  22.126   7.922
 1146POPC   C4A18678  21.295  22.285   7.476
 1146POPC   C1B18679  21.667  22.206   8.727
 1146POPC   C2B18680  21.947  22.380   8.416
 1146POPC   C3B18681  21.859  22.471   7.991
 1146POPC   C4B18682  21.802  22.245   7.628
 1147POPC   NC318683   3.809   3.173   9.482
 1147POPC   PO418684   3.503   3.738   9.494
 1147POPC   GL118685   3.409   3.563   9.113
 1147POPC   GL218686   3.363   3.226   9.202
 1147POPC   C1A18687   3.550   3.601   8.695
 1147POPC   D2A18688   3.724   3.895   8.411
 1147POPC   C3A18689   3.843   3.738   8.021
 1147POPC   C4A18690   3.769   3.339   7.856
 1147POPC   C1B18691   3.497   3.104   8.797
 1147POPC   C2B18692   3.539   3.208   8.366
 1147POPC   C3B18693   3.288   3.155   8.007
 1147POPC   C4B18694   3.331   3.248   7.598
 1148POPC   NC318695   1.795  26.543   9.680
 1148POPC   PO418696   2.158  26.311   9.222
 1148POPC   GL118697   1.872  26.021   9.154
 1148POPC   GL218698   1.626  26.139   9.315
 1148POPC   C1A18699   1.820  25.797   8.810
 1148POPC   D2A18700   2.023  25.943   8.454
 1148POPC   C3A18701   1.943  25.829   8.050
 1148POPC   C4A18702   2.267  26.062   7.817
 1148POPC   C1B18703   1.489  26.252   8.885
 1148POPC   C2B18704   1.653  26.319   8.492
 1148POPC   C3B18705   1.868  26.352   8.105
 1148POPC   C4B18706   1.810  26.190   7.706
 1149POPC   NC318707  44.775  33.351   9.477
 1149POPC   PO418708  44.596  34.038   9.451
 1149POPC   GL118709  44.564  33.811   9.066
 1149POPC   GL218710  44.291  34.045   9.015
 1149POPC   C1A18711  44.414  33.744   8.626
 1149POPC   D2A18712  44.430  33.691   8.177
 1149POPC   C3A18713  44.808  33.833   7.969
 1149POPC   C4A18714  44.882  34.159   7.703
 1149POPC   C1B18715  44.503  34.251   8.705
 1149POPC   C2B18716  44.626  34.199   8.314
 1149POPC   C3B18717  44.403  34.179   7.961
 1149POPC   C4B18718  44.370  33.859   7.695
 1150POPC   NC318719  28.500   3.479   9.476
 1150POPC   PO418720  28.312   4.153   9.531
 1150POPC   GL118721  28.247   3.811   9.184
 1150POPC   GL218722  28.580   3.689   9.037
 1150POPC   C1A18723  28.138   3.593   8.790
 1150POPC   D2A18724  28.387   3.585   8.422
 1150POPC   C3A18725  28.133   3.517   8.073
 1150POPC   C4A18726  28.064   3.535   7.641
 1150POPC   C1B18727  28.583   3.272   8.812
 1150POPC   C2B18728  28.785   3.232   8.400
 1150POPC   C3B18729  28.617   3.382   8.006
 1150POPC   C4B18730  28.478   3.194   7.630
 1151POPC   NC318731  42.239  24.662   9.580
 1151POPC   PO418732  42.524  24.074   9.597
 1151POPC   GL118733  42.364  24.291   9.215
 1151POPC   GL218734  42.479  24.645   9.130
 1151POPC   C1A18735  42.137  24.254   8.807
 1151POPC   D2A18736  41.891  24.273   8.419
 1151POPC   C3A18737  42.126  24.492   8.126
 1151POPC   C4A18738  42.184  24.322   7.741
 1151POPC   C1B18739  42.644  24.384   8.799
 1151POPC   C2B18740  42.475  24.221   8.399
 1151POPC   C3B18741  42.627  24.136   7.963
 1151POPC   C4B18742  42.747  24.345   7.581
 1152POPC   NC318743  28.946  31.849   9.529
 1152POPC   PO418744  29.415  32.294   9.487
 1152POPC   GL118745  29.461  32.125   9.139
 1152POPC   GL218746  29.107  32.115   9.125
 1152POPC   C1A18747  29.417  32.275   8.744
 1152POPC   D2A18748  29.521  32.548   8.418
 1152POPC   C3A18749  29.403  32.308   8.096
 1152POPC   C4A18750  29.573  32.219   7.710
 1152POPC   C1B18751  28.924  32.092   8.778
 1152POPC   C2B18752  28.721  32.330   8.559
 1152POPC   C3B18753  28.805  32.191   8.178
 1152POPC   C4B18754  29.016  32.274   7.782
 1153POPC   NC318755  39.788  21.176   9.519
 1153POPC   PO418756  40.088  21.782   9.691
 1153POPC   GL118757  40.065  21.510   9.259
 1153POPC   GL218758  40.107  21.139   9.131
 1153POPC   C1A18759  39.902  21.497   8.830
 1153POPC   D2A18760  40.125  21.493   8.414
 1153POPC   C3A18761  39.844  21.340   8.109
 1153POPC   C4A18762  39.714  21.405   7.687
 1153POPC   C1B18763  39.815  20.979   8.769
 1153POPC   C2B18764  39.936  20.874   8.334
 1153POPC   C3B18765  40.285  21.055   8.107
 1153POPC   C4B18766  40.225  21.363   7.749
 1154POPC   NC318767  35.638  30.188   9.514
 1154POPC   PO418768  35.081  29.711   9.642
 1154POPC   GL118769  35.158  29.831   9.207
 1154POPC   GL218770  35.529  29.856   9.134
 1154POPC   C1A18771  35.203  29.687   8.763
 1154POPC   D2A18772  34.999  29.842   8.409
 1154POPC   C3A18773  35.303  29.953   8.127
 1154POPC   C4A18774  35.340  29.921   7.713
 1154POPC   C1B18775  35.729  29.645   8.775
 1154POPC   C2B18776  35.590  29.571   8.351
 1154POPC   C3B18777  35.754  29.779   7.998
 1154POPC   C4B18778  35.703  30.236   7.913
 1155POPC   NC318779  35.722  43.516   9.549
 1155POPC   PO418780  35.866  44.133   9.604
 1155POPC   GL118781  36.106  44.000   9.238
 1155POPC   GL218782  36.124  43.621   9.227
 1155POPC   C1A18783  36.214  44.208   8.837
 1155POPC   D2A18784  36.336  43.984   8.467
 1155POPC   C3A18785  36.079  44.055   8.121
 1155POPC   C4A18786  36.128  44.193   7.745
 1155POPC   C1B18787  36.002  43.720   8.800
 1155POPC   C2B18788  35.672  43.577   8.516
 1155POPC   C3B18789  35.592  43.512   8.075
 1155POPC   C4B18790  35.941  43.612   7.780
 1156POPC   NC318791  36.688  11.937   9.801
 1156POPC   PO418792  37.215  12.331   9.638
 1156POPC   GL118793  36.994  12.010   9.345
 1156POPC   GL218794  36.727  12.004   9.118
 1156POPC   C1A18795  37.146  11.858   8.904
 1156POPC   D2A18796  37.217  12.097   8.519
 1156POPC   C3A18797  37.230  11.876   8.129
 1156POPC   C4A18798  36.989  11.856   7.758
 1156POPC   C1B18799  36.531  12.071   8.736
 1156POPC   C2B18800  36.409  11.995   8.331
 1156POPC   C3B18801  36.733  12.143   8.097
 1156POPC   C4B18802  36.701  12.263   7.685
 1157POPC   NC318803  33.108  14.189   9.728
 1157POPC   PO418804  33.206  13.555   9.426
 1157POPC   GL118805  33.145  13.479   9.012
 1157POPC   GL218806  33.075  13.782   8.920
 1157POPC   C1A18807  32.868  13.402   8.629
 1157POPC   D2A18808  32.502  13.440   8.308
 1157POPC   C3A18809  32.647  13.241   7.922
 1157POPC   C4A18810  32.936  13.406   7.617
 1157POPC   C1B18811  33.013  14.035   8.606
 1157POPC   C2B18812  32.865  13.808   8.262
 1157POPC   C3B18813  32.855  13.866   7.848
 1157POPC   C4B18814  32.712  14.271   7.776
 1158POPC   NC318815  10.485  16.077   9.491
 1158POPC   PO418816  10.057  15.593   9.657
 1158POPC   GL118817  10.195  15.742   9.234
 1158POPC   GL218818  10.270  16.086   9.053
 1158POPC   C1A18819  10.326  15.632   8.815
 1158POPC   D2A18820  10.171  15.656   8.387
 1158POPC   C3A18821  10.457  15.700   8.038
 1158POPC   C4A18822  10.376  15.737   7.601
 1158POPC   C1B18823  10.277  16.103   8.623
 1158POPC   C2B18824  10.361  16.188   8.240
 1158POPC   C3B18825  10.428  16.185   7.850
 1158POPC   C4B18826  10.808  16.020   7.749
 1159POPC   NC318827  22.080   8.353   9.474
 1159POPC   PO418828  22.336   7.763   9.340
 1159POPC   GL118829  22.131   8.021   9.071
 1159POPC   GL218830  22.321   8.332   9.033
 1159POPC   C1A18831  22.252   8.028   8.636
 1159POPC   D2A18832  22.323   8.328   8.336
 1159POPC   C3A18833  22.254   8.136   7.966
 1159POPC   C4A18834  22.371   8.099   7.504
 1159POPC   C1B18835  22.037   8.480   8.745
 1159POPC   C2B18836  21.795   8.473   8.389
 1159POPC   C3B18837  21.753   8.288   8.003
 1159POPC   C4B18838  21.875   8.066   7.621
 1160POPC   NC318839  27.209  18.922   9.389
 1160POPC   PO418840  26.565  18.793   9.407
 1160POPC   GL118841  26.802  18.913   9.069
 1160POPC   GL218842  27.005  18.622   9.031
 1160POPC   C1A18843  26.845  19.199   8.705
 1160POPC   D2A18844  26.602  19.147   8.307
 1160POPC   C3A18845  26.739  19.291   7.912
 1160POPC   C4A18846  27.087  19.234   7.634
 1160POPC   C1B18847  26.871  18.700   8.610
 1160POPC   C2B18848  27.080  18.938   8.274
 1160POPC   C3B18849  27.042  18.781   7.885
 1160POPC   C4B18850  26.687  18.847   7.608
 1161POPC   NC318851  26.119  29.418   9.557
 1161POPC   PO418852  25.900  28.885   9.859
 1161POPC   GL118853  25.950  28.964   9.343
 1161POPC   GL218854  26.246  29.097   9.137
 1161POPC   C1A18855  25.837  29.067   8.853
 1161POPC   D2A18856  25.958  29.180   8.391
 1161POPC   C3A18857  25.928  29.060   7.920
 1161POPC   C4A18858  25.733  29.132   7.482
 1161POPC   C1B18859  26.333  28.935   8.669
 1161POPC   C2B18860  26.372  28.961   8.183
 1161POPC   C3B18861  26.392  29.286   7.853
 1161POPC   C4B18862  26.469  29.423   7.385
 1162POPC   NC318863  19.560  39.294   9.462
 1162POPC   PO418864  18.903  39.142   9.567
 1162POPC   GL118865  18.903  39.166   9.151
 1162POPC   GL218866  19.235  39.063   9.076
 1162POPC   C1A18867  18.806  38.911   8.813
 1162POPC   D2A18868  18.865  38.849   8.392
 1162POPC   C3A18869  18.985  39.113   8.031
 1162POPC   C4A18870  19.062  39.078   7.598
 1162POPC   C1B18871  19.267  39.070   8.638
 1162POPC   C2B18872  19.346  38.850   8.247
 1162POPC   C3B18873  19.613  38.983   7.928
 1162POPC   C4B18874  19.576  39.114   7.516
 1163POPC   NC318875  16.661  10.945   9.346
 1163POPC   PO418876  17.008  11.382   9.462
 1163POPC   GL118877  16.723  11.413   9.117
 1163POPC   GL218878  16.353  11.423   9.148
 1163POPC   C1A18879  16.798  11.290   8.711
 1163POPC   D2A18880  16.902  11.409   8.305
 1163POPC   C3A18881  16.732  11.114   8.030
 1163POPC   C4A18882  16.613  11.196   7.557
 1163POPC   C1B18883  16.358  11.583   8.756
 1163POPC   C2B18884  16.405  11.371   8.371
 1163POPC   C3B18885  16.467  11.541   7.969
 1163POPC   C4B18886  16.182  11.448   7.663
 1164POPC   NC318887  12.761  13.948   9.558
 1164POPC   PO418888  13.091  13.363   9.464
 1164POPC   GL118889  12.986  13.323   9.086
 1164POPC   GL218890  12.785  13.621   9.134
 1164POPC   C1A18891  12.951  13.386   8.682
 1164POPC   D2A18892  12.917  13.637   8.372
 1164POPC   C3A18893  12.967  13.393   8.034
 1164POPC   C4A18894  12.904  13.542   7.630
 1164POPC   C1B18895  12.546  13.704   8.782
 1164POPC   C2B18896  12.341  13.821   8.424
 1164POPC   C3B18897  12.514  13.753   8.049
 1164POPC   C4B18898  12.399  13.612   7.680
 1165POPC   NC318899  41.859  28.000   9.398
 1165POPC   PO418900  41.259  27.801   9.705
 1165POPC   GL118901  41.446  27.580   9.308
 1165POPC   GL218902  41.463  27.840   9.090
 1165POPC   C1A18903  41.612  27.370   8.895
 1165POPC   D2A18904  41.760  27.371   8.439
 1165POPC   C3A18905  41.592  27.322   7.967
 1165POPC   C4A18906  41.867  27.309   7.614
 1165POPC   C1B18907  41.592  27.823   8.668
 1165POPC   C2B18908  41.446  27.710   8.247
 1165POPC   C3B18909  41.430  27.826   7.828
 1165POPC   C4B18910  41.120  27.893   7.508
 1166POPC   NC318911  23.303  34.295   9.373
 1166POPC   PO418912  22.754  34.617   9.676
 1166POPC   GL118913  22.855  34.457   9.235
 1166POPC   GL218914  23.104  34.664   9.019
 1166POPC   C1A18915  22.763  34.362   8.789
 1166POPC   D2A18916  22.946  34.472   8.371
 1166POPC   C3A18917  22.797  34.684   7.982
 1166POPC   C4A18918  22.654  34.433   7.620
 1166POPC   C1B18919  23.280  34.328   8.742
 1166POPC   C2B18920  23.334  34.125   8.356
 1166POPC   C3B18921  23.308  34.348   8.022
 1166POPC   C4B18922  23.162  34.510   7.664
 1167POPC   NC318923  40.356  29.888   9.371
 1167POPC   PO418924  40.963  30.134   9.536
 1167POPC   GL118925  40.831  29.952   9.143
 1167POPC   GL218926  40.604  29.720   8.951
 1167POPC   C1A18927  41.078  29.853   8.801
 1167POPC   D2A18928  41.041  30.032   8.441
 1167POPC   C3A18929  41.246  29.901   8.102
 1167POPC   C4A18930  41.069  29.694   7.773
 1167POPC   C1B18931  40.533  30.102   8.707
 1167POPC   C2B18932  40.602  30.280   8.318
 1167POPC   C3B18933  40.732  29.954   8.035
 1167POPC   C4B18934  40.588  29.791   7.640
 1168POPC   NC318935  21.759  18.930   9.478
 1168POPC   PO418936  21.167  19.272   9.470
 1168POPC   GL118937  21.394  19.046   9.147
 1168POPC   GL218938  21.483  19.369   9.031
 1168POPC   C1A18939  21.367  18.906   8.722
 1168POPC   D2A18940  21.422  19.273   8.411
 1168POPC   C3A18941  21.548  19.165   7.984
 1168POPC   C4A18942  21.527  18.773   7.746
 1168POPC   C1B18943  21.078  19.294   8.813
 1168POPC   C2B18944  20.912  19.174   8.405
 1168POPC   C3B18945  21.006  19.095   7.958
 1168POPC   C4B18946  21.189  19.113   7.559
 1169POPC   NC318947  12.483  33.565   9.316
 1169POPC   PO418948  11.999  34.119   9.357
 1169POPC   GL118949  12.050  33.752   9.079
 1169POPC   GL218950  11.745  33.602   9.027
 1169POPC   C1A18951  12.262  33.589   8.675
 1169POPC   D2A18952  12.319  33.563   8.203
 1169POPC   C3A18953  12.297  33.930   7.900
 1169POPC   C4A18954  11.921  34.161   7.668
 1169POPC   C1B18955  11.794  33.760   8.610
 1169POPC   C2B18956  11.866  33.841   8.169
 1169POPC   C3B18957  11.896  33.667   7.742
 1169POPC   C4B18958  11.708  33.771   7.335
 1170POPC   NC318959  21.367  28.223   9.621
 1170POPC   PO418960  21.163  28.819   9.511
 1170POPC   GL118961  21.449  28.557   9.229
 1170POPC   GL218962  21.211  28.486   9.018
 1170POPC   C1A18963  21.667  28.458   8.834
 1170POPC   D2A18964  21.417  28.305   8.508
 1170POPC   C3A18965  21.348  28.362   8.078
 1170POPC   C4A18966  21.507  28.077   7.739
 1170POPC   C1B18967  21.013  28.160   8.797
 1170POPC   C2B18968  20.854  28.036   8.414
 1170POPC   C3B18969  20.981  27.935   8.007
 1170POPC   C4B18970  21.012  28.227   7.710
 1171POPC   NC318971   4.523  10.367   9.866
 1171POPC   PO418972   4.020  10.709   9.637
 1171POPC   GL118973   4.177  10.607   9.232
 1171POPC   GL218974   4.497  10.448   9.320
 1171POPC   C1A18975   4.078  10.648   8.808
 1171POPC   D2A18976   4.239  10.956   8.532
 1171POPC   C3A18977   4.206  10.822   8.109
 1171POPC   C4A18978   3.946  10.541   7.819
 1171POPC   C1B18979   4.596  10.535   8.878
 1171POPC   C2B18980   4.470  10.512   8.443
 1171POPC   C3B18981   4.444  10.388   8.000
 1171POPC   C4B18982   4.659  10.279   7.606
 1172POPC   NC318983  22.252  10.230   9.367
 1172POPC   PO418984  21.902   9.612   9.459
 1172POPC   GL118985  22.143   9.520   9.116
 1172POPC   GL218986  22.412   9.773   9.104
 1172POPC   C1A18987  22.033   9.509   8.691
 1172POPC   D2A18988  22.055   9.313   8.298
 1172POPC   C3A18989  22.270   9.539   7.994
 1172POPC   C4A18990  22.629   9.540   7.679
 1172POPC   C1B18991  22.212   9.995   8.727
 1172POPC   C2B18992  22.340  10.063   8.296
 1172POPC   C3B18993  22.322  10.020   7.833
 1172POPC   C4B18994  21.919   9.765   7.736
 1173POPC   NC318995  35.310  24.103   9.508
 1173POPC   PO418996  35.276  24.741   9.395
 1173POPC   GL118997  35.330  24.462   9.075
 1173POPC   GL218998  35.100  24.159   9.041
 1173POPC   C1A18999  35.517  24.494   8.677
 1173POPC   D2A19000  35.298  24.526   8.318
 1173POPC   C3A19001  35.326  24.746   7.970
 1173POPC   C4A19002  35.326  24.504   7.628
 1173POPC   C1B19003  35.217  24.089   8.613
 1173POPC   C2B19004  35.172  24.039   8.171
 1173POPC   C3B19005  35.145  24.049   7.726
 1173POPC   C4B19006  35.098  23.924   7.308
 1174POPC   NC319007  13.401  42.731   9.509
 1174POPC   PO419008  13.860  42.233   9.573
 1174POPC   GL119009  13.745  42.452   9.181
 1174POPC   GL219010  13.368  42.393   9.135
 1174POPC   C1A19011  13.941  42.619   8.766
 1174POPC   D2A19012  13.838  42.832   8.367
 1174POPC   C3A19013  13.869  42.501   8.021
 1174POPC   C4A19014  13.976  42.388   7.593
 1174POPC   C1B19015  13.431  42.596   8.774
 1174POPC   C2B19016  13.568  42.398   8.427
 1174POPC   C3B19017  13.373  42.288   8.053
 1174POPC   C4B19018  13.497  42.288   7.667
 1175POPC   NC319019  41.063  19.888   9.462
 1175POPC   PO419020  40.339  20.198   9.591
 1175POPC   GL119021  40.670  20.137   9.248
 1175POPC   GL219022  40.658  19.799   9.124
 1175POPC   C1A19023  40.856  20.152   8.813
 1175POPC   D2A19024  40.678  20.120   8.393
 1175POPC   C3A19025  40.924  20.074   7.974
 1175POPC   C4A19026  41.069  19.868   7.568
 1175POPC   C1B19027  40.868  19.639   8.755
 1175POPC   C2B19028  40.993  19.715   8.345
 1175POPC   C3B19029  41.220  19.617   7.985
 1175POPC   C4B19030  41.176  19.357   7.605
 1176POPC   NC319031  23.904  13.801   9.491
 1176POPC   PO419032  23.516  13.257   9.390
 1176POPC   GL119033  23.814  13.464   9.119
 1176POPC   GL219034  23.664  13.835   9.043
 1176POPC   C1A19035  23.932  13.572   8.711
 1176POPC   D2A19036  23.764  13.572   8.314
 1176POPC   C3A19037  23.937  13.690   7.943
 1176POPC   C4A19038  23.972  13.324   7.705
 1176POPC   C1B19039  23.421  13.567   8.741
 1176POPC   C2B19040  23.266  13.515   8.306
 1176POPC   C3B19041  23.456  13.428   7.900
 1176POPC   C4B19042  23.556  13.746   7.600
 1177POPC   NC319043   0.947  30.874   9.306
 1177POPC   PO419044   1.417  31.269   9.678
 1177POPC   GL119045   1.354  31.050   9.126
 1177POPC   GL219046   1.225  30.715   8.923
 1177POPC   C1A19047   1.188  31.135   8.692
 1177POPC   D2A19048   1.360  30.851   8.374
 1177POPC   C3A19049   1.166  30.706   7.987
 1177POPC   C4A19050   1.217  30.904   7.565
 1177POPC   C1B19051   1.425  30.425   8.669
 1177POPC   C2B19052   1.460  30.315   8.248
 1177POPC   C3B19053   1.541  30.376   7.829
 1177POPC   C4B19054   1.374  30.435   7.382
 1178POPC   NC319055  22.490  15.685   9.675
 1178POPC   PO419056  22.251  16.218   9.758
 1178POPC   GL119057  22.368  16.113   9.306
 1178POPC   GL219058  22.450  15.766   9.183
 1178POPC   C1A19059  22.202  16.099   8.876
 1178POPC   D2A19060  22.403  16.037   8.464
 1178POPC   C3A19061  22.223  15.959   8.048
 1178POPC   C4A19062  22.446  16.066   7.694
 1178POPC   C1B19063  22.279  15.568   8.810
 1178POPC   C2B19064  22.135  15.554   8.369
 1178POPC   C3B19065  21.992  15.485   7.926
 1178POPC   C4B19066  22.208  15.625   7.577
 1179POPC   NC319067   9.361  19.886   9.542
 1179POPC   PO419068  10.058  19.788   9.487
 1179POPC   GL119069   9.971  20.126   9.204
 1179POPC   GL219070   9.611  20.176   9.201
 1179POPC   C1A19071   9.911  20.078   8.771
 1179POPC   D2A19072  10.032  20.253   8.391
 1179POPC   C3A19073   9.852  20.008   8.068
 1179POPC   C4A19074  10.021  19.833   7.672
 1179POPC   C1B19075   9.458  19.859   8.899
 1179POPC   C2B19076   9.384  19.715   8.498
 1179POPC   C3B19077   9.437  19.596   8.107
 1179POPC   C4B19078   9.501  19.802   7.751
 1180POPC   NC319079  30.416  32.644   9.552
 1180POPC   PO419080  30.785  32.067   9.400
 1180POPC   GL119081  30.530  32.153   9.082
 1180POPC   GL219082  30.656  32.490   9.098
 1180POPC   C1A19083  30.753  32.136   8.707
 1180POPC   D2A19084  30.852  32.172   8.296
 1180POPC   C3A19085  30.539  32.144   7.985
 1180POPC   C4A19086  30.892  32.093   7.723
 1180POPC   C1B19087  30.403  32.531   8.735
 1180POPC   C2B19088  30.507  32.598   8.309
 1180POPC   C3B19089  30.346  32.624   7.887
 1180POPC   C4B19090  30.533  32.414   7.521
 1181POPC   NC319091  34.949  41.489   9.682
 1181POPC   PO419092  34.368  41.773   9.501
 1181POPC   GL119093  34.647  41.485   9.270
 1181POPC   GL219094  34.924  41.718   9.199
 1181POPC   C1A19095  34.783  41.347   8.864
 1181POPC   D2A19096  34.561  41.540   8.499
 1181POPC   C3A19097  34.671  41.462   8.087
 1181POPC   C4A19098  34.542  41.566   7.682
 1181POPC   C1B19099  34.885  41.843   8.758
 1181POPC   C2B19100  34.982  41.799   8.313
 1181POPC   C3B19101  34.948  41.851   7.860
 1181POPC   C4B19102  34.861  41.791   7.366
 1182POPC   NC319103  11.013  17.289   9.755
 1182POPC   PO419104  11.135  17.965   9.687
 1182POPC   GL119105  11.239  17.699   9.244
 1182POPC   GL219106  11.178  17.331   9.163
 1182POPC   C1A19107  11.250  17.672   8.741
 1182POPC   D2A19108  11.569  17.731   8.368
 1182POPC   C3A19109  11.610  17.738   7.913
 1182POPC   C4A19110  11.387  17.688   7.541
 1182POPC   C1B19111  11.376  17.157   8.782
 1182POPC   C2B19112  11.265  17.309   8.375
 1182POPC   C3B19113  11.197  17.447   7.984
 1182POPC   C4B19114  11.188  17.228   7.565
 1183POPC   NC319115  13.949  15.744   9.479
 1183POPC   PO419116  13.662  15.050   9.469
 1183POPC   GL119117  13.683  15.199   9.083
 1183POPC   GL219118  13.395  15.386   9.137
 1183POPC   C1A19119  13.586  15.077   8.676
 1183POPC   D2A19120  13.839  15.043   8.301
 1183POPC   C3A19121  13.661  15.153   7.926
 1183POPC   C4A19122  13.299  14.970   7.713
 1183POPC   C1B19123  13.377  15.542   8.740
 1183POPC   C2B19124  13.470  15.436   8.329
 1183POPC   C3B19125  13.500  15.619   7.934
 1183POPC   C4B19126  13.463  15.432   7.516
 1184POPC   NC319127  35.297   2.598   9.554
 1184POPC   PO419128  35.048   2.078   9.515
 1184POPC   GL119129  35.176   1.798   9.128
 1184POPC   GL219130  34.828   1.716   9.088
 1184POPC   C1A19131  35.331   1.840   8.689
 1184POPC   D2A19132  35.448   2.214   8.429
 1184POPC   C3A19133  35.472   2.123   7.992
 1184POPC   C4A19134  35.688   1.692   7.893
 1184POPC   C1B19135  34.861   2.081   8.822
 1184POPC   C2B19136  34.951   2.100   8.396
 1184POPC   C3B19137  35.150   1.771   8.182
 1184POPC   C4B19138  35.202   1.780   7.746
 1185POPC   NC319139   0.664  42.589   9.770
 1185POPC   PO419140   0.383  42.290   9.295
 1185POPC   GL119141   0.529  42.236   8.964
 1185POPC   GL219142   0.692  41.921   9.038
 1185POPC   C1A19143   0.429  42.355   8.575
 1185POPC   D2A19144   0.214  42.253   8.239
 1185POPC   C3A19145   0.373  42.497   7.923
 1185POPC   C4A19146   0.790  42.604   7.806
 1185POPC   C1B19147   0.416  41.832   8.707
 1185POPC   C2B19148   0.683  41.920   8.427
 1185POPC   C3B19149   0.663  42.108   8.032
 1185POPC   C4B19150   0.436  41.954   7.652
 1186POPC   NC319151   0.326  41.819   9.378
 1186POPC   PO419152   0.829  41.441   9.556
 1186POPC   GL119153   0.670  41.411   9.160
 1186POPC   GL219154   0.345  41.412   9.065
 1186POPC   C1A19155   0.779  41.474   8.749
 1186POPC   D2A19156   0.642  41.377   8.340
 1186POPC   C3A19157   0.445  41.646   8.093
 1186POPC   C4A19158   0.571  41.468   7.742
 1186POPC   C1B19159   0.171  41.394   8.667
 1186POPC   C2B19160   0.158  41.229   8.268
 1186POPC   C3B19161   0.067  41.398   7.892
 1186POPC   C4B19162   0.191  41.199   7.561
 1187POPC   NC319163   3.045   8.518   9.465
 1187POPC   PO419164   2.815   9.116   9.447
 1187POPC   GL119165   2.614   9.060   9.044
 1187POPC   GL219166   2.565   8.709   9.052
 1187POPC   C1A19167   2.581   9.018   8.593
 1187POPC   D2A19168   2.861   9.093   8.244
 1187POPC   C3A19169   2.673   8.969   7.856
 1187POPC   C4A19170   2.551   9.197   7.472
 1187POPC   C1B19171   2.948   8.708   8.768
 1187POPC   C2B19172   2.962   8.599   8.315
 1187POPC   C3B19173   3.137   8.778   7.923
 1187POPC   C4B19174   3.010   8.890   7.474
 1188POPC   NC319175   5.561   6.432   9.458
 1188POPC   PO419176   6.011   6.907   9.586
 1188POPC   GL119177   5.790   6.863   9.192
 1188POPC   GL219178   5.914   6.539   9.076
 1188POPC   C1A19179   5.692   6.854   8.750
 1188POPC   D2A19180   5.907   6.621   8.463
 1188POPC   C3A19181   5.887   6.641   8.059
 1188POPC   C4A19182   5.684   6.810   7.720
 1188POPC   C1B19183   5.570   6.367   8.784
 1188POPC   C2B19184   5.432   6.373   8.328
 1188POPC   C3B19185   5.554   6.280   7.872
 1188POPC   C4B19186   5.955   6.379   7.623
 1189POPC   NC319187  34.870  15.999   9.562
 1189POPC   PO419188  34.248  16.227   9.389
 1189POPC   GL119189  34.530  16.052   9.109
 1189POPC   GL219190  34.333  15.807   9.054
 1189POPC   C1A19191  34.480  16.049   8.645
 1189POPC   D2A19192  34.598  15.869   8.273
 1189POPC   C3A19193  34.603  16.002   7.833
 1189POPC   C4A19194  34.907  15.747   7.638
 1189POPC   C1B19195  34.494  15.541   8.759
 1189POPC   C2B19196  34.415  15.383   8.361
 1189POPC   C3B19197  34.441  15.516   7.954
 1189POPC   C4B19198  34.456  15.599   7.512
 1190POPC   NC319199   4.874  22.279   9.375
 1190POPC   PO419200   4.126  22.033   9.402
 1190POPC   GL119201   4.091  22.119   9.005
 1190POPC   GL219202   4.415  22.326   9.000
 1190POPC   C1A19203   4.095  22.124   8.563
 1190POPC   D2A19204   4.339  22.450   8.402
 1190POPC   C3A19205   4.201  22.503   7.985
 1190POPC   C4A19206   4.317  22.162   7.779
 1190POPC   C1B19207   4.609  22.077   8.669
 1190POPC   C2B19208   4.525  22.001   8.228
 1190POPC   C3B19209   4.700  21.850   7.850
 1190POPC   C4B19210   4.740  22.035   7.412
 1191POPC   NC319211  37.791  18.835   9.794
 1191POPC   PO419212  37.565  18.378   9.306
 1191POPC   GL119213  37.868  18.390   9.014
 1191POPC   GL219214  38.011  18.107   9.200
 1191POPC   C1A19215  37.842  18.670   8.659
 1191POPC   D2A19216  37.678  18.768   8.281
 1191POPC   C3A19217  37.786  18.486   7.966
 1191POPC   C4A19218  37.452  18.420   7.704
 1191POPC   C1B19219  37.822  17.945   8.818
 1191POPC   C2B19220  37.961  18.158   8.445
 1191POPC   C3B19221  38.012  18.013   8.017
 1191POPC   C4B19222  37.909  18.146   7.588
 1192POPC   NC319223  44.870  28.501   9.387
 1192POPC   PO419224  44.382  27.985   9.481
 1192POPC   GL119225  44.479  28.216   9.066
 1192POPC   GL219226  44.582  28.556   8.962
 1192POPC   C1A19227  44.594  28.192   8.613
 1192POPC   D2A19228  44.888  28.427   8.382
 1192POPC   C3A19229  44.943  28.248   8.024
 1192POPC   C4A19230  44.599  28.039   7.894
 1192POPC   C1B19231  44.406  28.909   8.736
 1192POPC   C2B19232  44.607  28.880   8.365
 1192POPC   C3B19233  44.573  28.587   8.021
 1192POPC   C4B19234  44.773  28.608   7.648
 1193POPC   NC319235  41.577  34.135   9.355
 1193POPC   PO419236  41.791  33.704   9.748
 1193POPC   GL119237  41.902  33.684   9.268
 1193POPC   GL219238  41.922  33.941   9.048
 1193POPC   C1A19239  41.899  33.478   8.841
 1193POPC   D2A19240  41.715  33.376   8.417
 1193POPC   C3A19241  41.823  33.587   8.034
 1193POPC   C4A19242  41.560  33.590   7.661
 1193POPC   C1B19243  41.636  34.084   8.724
 1193POPC   C2B19244  41.581  33.929   8.333
 1193POPC   C3B19245  41.701  34.074   7.918
 1193POPC   C4B19246  41.598  34.081   7.466
 1194POPC   NC319247  10.499  15.444   9.673
 1194POPC   PO419248  10.296  14.846   9.483
 1194POPC   GL119249  10.234  14.981   9.090
 1194POPC   GL219250  10.365  15.274   9.190
 1194POPC   C1A19251  10.210  14.928   8.659
 1194POPC   D2A19252  10.187  15.165   8.266
 1194POPC   C3A19253  10.387  15.224   7.866
 1194POPC   C4A19254  10.632  14.964   7.622
 1194POPC   C1B19255  10.607  15.223   8.831
 1194POPC   C2B19256  10.641  15.416   8.441
 1194POPC   C3B19257  10.851  15.312   8.081
 1194POPC   C4B19258  10.809  15.481   7.683
 1195POPC   NC319259  15.118  33.000   9.461
 1195POPC   PO419260  15.104  33.627   9.276
 1195POPC   GL119261  15.378  33.274   9.122
 1195POPC   GL219262  15.057  33.133   8.969
 1195POPC   C1A19263  15.505  33.007   8.775
 1195POPC   D2A19264  15.305  33.193   8.422
 1195POPC   C3A19265  15.453  33.083   8.033
 1195POPC   C4A19266  15.351  33.259   7.614
 1195POPC   C1B19267  15.019  32.799   8.648
 1195POPC   C2B19268  15.094  32.769   8.215
 1195POPC   C3B19269  14.978  32.988   7.857
 1195POPC   C4B19270  14.587  32.912   7.738
 1196POPC   NC319271  13.243  24.019   9.356
 1196POPC   PO419272  13.602  23.498   9.584
 1196POPC   GL119273  13.624  23.735   9.164
 1196POPC   GL219274  13.556  23.463   9.049
 1196POPC   C1A19275  13.446  23.930   8.762
 1196POPC   D2A19276  13.153  23.955   8.427
 1196POPC   C3A19277  13.322  23.989   7.999
 1196POPC   C4A19278  13.559  24.307   7.767
 1196POPC   C1B19279  13.707  23.527   8.651
 1196POPC   C2B19280  13.598  23.632   8.268
 1196POPC   C3B19281  13.913  23.446   8.018
 1196POPC   C4B19282  13.987  23.440   7.608
 1197POPC   NC319283  39.480  36.444   9.507
 1197POPC   PO419284  40.197  36.272   9.522
 1197POPC   GL119285  39.901  36.082   9.259
 1197POPC   GL219286  39.811  36.385   9.115
 1197POPC   C1A19287  39.871  35.925   8.854
 1197POPC   D2A19288  39.694  35.995   8.421
 1197POPC   C3A19289  39.955  35.872   8.072
 1197POPC   C4A19290  40.048  35.858   7.652
 1197POPC   C1B19291  39.932  36.384   8.675
 1197POPC   C2B19292  39.956  36.430   8.250
 1197POPC   C3B19293  39.970  36.347   7.821
 1197POPC   C4B19294  39.694  36.452   7.491
 1198POPC   NC319295  17.617  28.791   9.584
 1198POPC   PO419296  17.425  29.393   9.541
 1198POPC   GL119297  17.357  29.185   9.171
 1198POPC   GL219298  17.119  28.925   9.241
 1198POPC   C1A19299  17.651  29.178   8.819
 1198POPC   D2A19300  17.730  29.370   8.423
 1198POPC   C3A19301  17.514  29.212   8.051
 1198POPC   C4A19302  17.205  29.216   7.679
 1198POPC   C1B19303  17.311  28.788   8.834
 1198POPC   C2B19304  17.223  28.976   8.423
 1198POPC   C3B19305  17.204  28.817   8.013
 1198POPC   C4B19306  17.557  28.805   7.737
 1199POPC   NC319307  23.750   7.518   9.462
 1199POPC   PO419308  24.002   6.943   9.420
 1199POPC   GL119309  23.962   7.255   9.083
 1199POPC   GL219310  23.591   7.443   8.997
 1199POPC   C1A19311  24.049   7.487   8.732
 1199POPC   D2A19312  23.935   7.621   8.334
 1199POPC   C3A19313  24.162   7.376   8.071
 1199POPC   C4A19314  24.031   7.534   7.698
 1199POPC   C1B19315  23.616   7.089   8.747
 1199POPC   C2B19316  23.775   7.124   8.369
 1199POPC   C3B19317  23.641   7.310   8.017
 1199POPC   C4B19318  23.521   7.649   7.764
 1200POPC   NC319319   2.956   5.830   9.464
 1200POPC   PO419320   2.272   5.697   9.360
 1200POPC   GL119321   2.608   5.754   9.073
 1200POPC   GL219322   2.834   6.058   9.017
 1200POPC   C1A19323   2.642   5.784   8.637
 1200POPC   D2A19324   2.910   6.078   8.464
 1200POPC   C3A19325   2.862   5.874   8.096
 1200POPC   C4A19326   2.526   5.656   7.851
 1200POPC   C1B19327   3.087   5.706   8.850
 1200POPC   C2B19328   3.160   5.616   8.439
 1200POPC   C3B19329   3.281   5.587   8.008
 1200POPC   C4B19330   3.036   5.403   7.703
 1201POPC   NC319331  31.262  26.478   9.396
 1201POPC   PO419332  31.731  26.159   9.779
 1201POPC   GL119333  31.758  26.154   9.290
 1201POPC   GL219334  31.684  26.466   9.103
 1201POPC   C1A19335  31.733  26.085   8.790
 1201POPC   D2A19336  31.629  26.239   8.359
 1201POPC   C3A19337  31.558  25.935   7.984
 1201POPC   C4A19338  31.388  25.958   7.555
 1201POPC   C1B19339  31.310  26.386   8.775
 1201POPC   C2B19340  31.078  26.294   8.400
 1201POPC   C3B19341  31.250  26.351   7.989
 1201POPC   C4B19342  31.049  26.343   7.612
 1202POPC   NC319343  20.844  20.382   9.494
 1202POPC   PO419344  20.238  20.697   9.453
 1202POPC   GL119345  20.606  20.729   9.177
 1202POPC   GL219346  20.740  20.467   9.012
 1202POPC   C1A19347  20.704  20.892   8.781
 1202POPC   D2A19348  20.768  20.602   8.440
 1202POPC   C3A19349  20.756  20.779   8.021
 1202POPC   C4A19350  20.777  20.487   7.689
 1202POPC   C1B19351  20.332  20.509   8.769
 1202POPC   C2B19352  20.271  20.614   8.324
 1202POPC   C3B19353  20.462  20.345   8.045
 1202POPC   C4B19354  20.357  20.189   7.636
 1203POPC   NC319355   6.001  40.376   9.393
 1203POPC   PO419356   5.955  39.753   9.437
 1203POPC   GL119357   5.866  39.944   9.071
 1203POPC   GL219358   5.576  40.129   9.065
 1203POPC   C1A19359   5.895  39.930   8.646
 1203POPC   D2A19360   5.676  40.004   8.295
 1203POPC   C3A19361   5.922  40.341   8.119
 1203POPC   C4A19362   5.936  40.446   7.694
 1203POPC   C1B19363   5.393  39.798   8.756
 1203POPC   C2B19364   5.347  39.584   8.327
 1203POPC   C3B19365   5.548  39.636   7.915
 1203POPC   C4B19366   5.894  39.920   7.835
 1204POPC   NC319367  16.322  19.411   9.572
 1204POPC   PO419368  17.034  19.166   9.679
 1204POPC   GL119369  16.819  19.276   9.244
 1204POPC   GL219370  16.771  18.985   9.074
 1204POPC   C1A19371  16.831  19.362   8.775
 1204POPC   D2A19372  16.807  19.062   8.431
 1204POPC   C3A19373  16.833  19.219   7.998
 1204POPC   C4A19374  16.552  19.386   7.692
 1204POPC   C1B19375  16.488  18.807   8.810
 1204POPC   C2B19376  16.544  18.631   8.430
 1204POPC   C3B19377  16.682  18.725   8.042
 1204POPC   C4B19378  16.358  18.868   7.839
 1205POPC   NC319379  37.801   3.887   9.456
 1205POPC   PO419380  37.570   4.518   9.509
 1205POPC   GL119381  37.656   4.268   9.140
 1205POPC   GL219382  37.447   3.980   9.087
 1205POPC   C1A19383  37.770   4.327   8.697
 1205POPC   D2A19384  37.995   4.523   8.310
 1205POPC   C3A19385  38.102   4.264   7.948
 1205POPC   C4A19386  37.871   4.405   7.569
 1205POPC   C1B19387  37.314   4.057   8.706
 1205POPC   C2B19388  37.520   4.023   8.361
 1205POPC   C3B19389  37.584   4.284   8.034
 1205POPC   C4B19390  37.446   4.159   7.665
 1206POPC   NC319391  22.486  30.274   9.509
 1206POPC   PO419392  22.878  29.619   9.375
 1206POPC   GL119393  22.951  29.844   9.055
 1206POPC   GL219394  22.779  30.116   9.129
 1206POPC   C1A19395  22.895  29.854   8.623
 1206POPC   D2A19396  23.012  29.722   8.211
 1206POPC   C3A19397  22.926  29.961   7.882
 1206POPC   C4A19398  22.577  30.076   7.671
 1206POPC   C1B19399  22.925  30.352   8.784
 1206POPC   C2B19400  23.033  30.249   8.354
 1206POPC   C3B19401  22.984  30.450   7.965
 1206POPC   C4B19402  23.067  30.328   7.545
 1207POPC   NC319403  39.427  33.961   9.600
 1207POPC   PO419404  38.949  33.621   9.457
 1207POPC   GL119405  39.119  33.828   9.144
 1207POPC   GL219406  39.453  33.855   9.118
 1207POPC   C1A19407  39.137  33.640   8.745
 1207POPC   D2A19408  39.203  33.481   8.355
 1207POPC   C3A19409  39.218  33.790   8.036
 1207POPC   C4A19410  38.971  33.845   7.719
 1207POPC   C1B19411  39.581  33.925   8.750
 1207POPC   C2B19412  39.646  33.751   8.333
 1207POPC   C3B19413  39.672  33.582   7.908
 1207POPC   C4B19414  39.466  33.640   7.475
 1208POPC   NC319415  38.091   6.278   9.508
 1208POPC   PO419416  38.414   6.944   9.625
 1208POPC   GL119417  38.399   6.709   9.210
 1208POPC   GL219418  38.733   6.566   9.166
 1208POPC   C1A19419  38.438   6.624   8.730
 1208POPC   D2A19420  38.369   6.456   8.299
 1208POPC   C3A19421  38.255   6.768   7.929
 1208POPC   C4A19422  38.119   6.711   7.482
 1208POPC   C1B19423  38.815   6.236   8.842
 1208POPC   C2B19424  38.888   6.308   8.401
 1208POPC   C3B19425  38.718   6.318   7.959
 1208POPC   C4B19426  38.590   6.574   7.618
 1209POPC   NC319427  14.696  33.766   9.452
 1209POPC   PO419428  14.017  33.923   9.380
 1209POPC   GL119429  14.339  33.723   9.056
 1209POPC   GL219430  14.566  33.424   9.091
 1209POPC   C1A19431  14.349  33.592   8.601
 1209POPC   D2A19432  14.378  33.882   8.250
 1209POPC   C3A19433  14.551  33.946   7.838
 1209POPC   C4A19434  14.339  34.131   7.440
 1209POPC   C1B19435  14.829  33.530   8.723
 1209POPC   C2B19436  14.854  33.617   8.310
 1209POPC   C3B19437  15.105  33.500   7.996
 1209POPC   C4B19438  15.106  33.717   7.598
 1210POPC   NC319439  20.973  39.924   9.408
 1210POPC   PO419440  21.472  40.295   9.696
 1210POPC   GL119441  21.404  40.205   9.244
 1210POPC   GL219442  21.458  39.830   9.184
 1210POPC   C1A19443  21.497  40.287   8.788
 1210POPC   D2A19444  21.484  39.999   8.411
 1210POPC   C3A19445  21.258  40.048   8.021
 1210POPC   C4A19446  21.585  40.053   7.681
 1210POPC   C1B19447  21.217  39.803   8.801
 1210POPC   C2B19448  21.049  39.666   8.411
 1210POPC   C3B19449  21.025  39.524   7.983
 1210POPC   C4B19450  21.206  39.720   7.623
 1211POPC   NC319451  35.410  33.983  10.241
 1211POPC   PO419452  35.438  33.939   9.517
 1211POPC   GL119453  35.558  33.885   9.123
 1211POPC   GL219454  35.386  33.599   9.050
 1211POPC   C1A19455  35.693  33.840   8.704
 1211POPC   D2A19456  35.419  33.938   8.377
 1211POPC   C3A19457  35.643  33.906   8.010
 1211POPC   C4A19458  35.536  33.761   7.585
 1211POPC   C1B19459  35.123  33.401   8.766
 1211POPC   C2B19460  35.051  33.521   8.376
 1211POPC   C3B19461  35.200  33.660   7.994
 1211POPC   C4B19462  35.049  33.853   7.619
 1212POPC   NC319463  35.637  31.056   9.419
 1212POPC   PO419464  35.219  30.477   9.449
 1212POPC   GL119465  35.268  30.767   9.114
 1212POPC   GL219466  35.593  30.652   9.090
 1212POPC   C1A19467  35.317  30.663   8.670
 1212POPC   D2A19468  35.221  30.326   8.454
 1212POPC   C3A19469  35.221  30.462   8.057
 1212POPC   C4A19470  35.269  30.833   7.851
 1212POPC   C1B19471  35.640  30.295   8.838
 1212POPC   C2B19472  35.766  30.361   8.424
 1212POPC   C3B19473  35.682  30.698   8.159
 1212POPC   C4B19474  35.766  30.716   7.736
 1213POPC   NC319475  32.540   4.250   9.234
 1213POPC   PO419476  31.971   4.494   9.578
 1213POPC   GL119477  32.056   4.404   9.155
 1213POPC   GL219478  32.092   4.092   9.081
 1213POPC   C1A19479  32.175   4.463   8.718
 1213POPC   D2A19480  32.307   4.309   8.335
 1213POPC   C3A19481  32.194   4.542   7.984
 1213POPC   C4A19482  32.052   4.612   7.571
 1213POPC   C1B19483  32.303   3.941   8.716
 1213POPC   C2B19484  32.485   3.836   8.337
 1213POPC   C3B19485  32.475   4.034   7.930
 1213POPC   C4B19486  32.406   4.246   7.566
 1214POPC   NC319487  21.709  13.268   9.611
 1214POPC   PO419488  21.247  12.763   9.602
 1214POPC   GL119489  21.459  12.711   9.163
 1214POPC   GL219490  21.532  13.020   9.206
 1214POPC   C1A19491  21.586  12.548   8.722
 1214POPC   D2A19492  21.496  12.410   8.265
 1214POPC   C3A19493  21.588  12.669   7.866
 1214POPC   C4A19494  21.216  12.901   7.632
 1214POPC   C1B19495  21.666  13.047   8.793
 1214POPC   C2B19496  21.649  12.936   8.362
 1214POPC   C3B19497  21.437  13.139   8.025
 1214POPC   C4B19498  21.513  13.399   7.666
 1215POPC   NC319499   6.331  21.629   9.665
 1215POPC   PO419500   7.048  21.494   9.576
 1215POPC   GL119501   6.850  21.560   9.146
 1215POPC   GL219502   6.513  21.431   9.152
 1215POPC   C1A19503   6.730  21.465   8.689
 1215POPC   D2A19504   6.338  21.549   8.424
 1215POPC   C3A19505   6.416  21.635   7.990
 1215POPC   C4A19506   6.676  21.678   7.629
 1215POPC   C1B19507   6.337  21.158   8.798
 1215POPC   C2B19508   6.436  21.033   8.376
 1215POPC   C3B19509   6.295  21.146   7.973
 1215POPC   C4B19510   6.305  21.321   7.540
 1216POPC   NC319511  30.027  34.495   9.691
 1216POPC   PO419512  29.650  34.922   9.434
 1216POPC   GL119513  29.836  34.728   9.075
 1216POPC   GL219514  30.064  34.470   9.158
 1216POPC   C1A19515  29.865  34.626   8.635
 1216POPC   D2A19516  30.244  34.602   8.433
 1216POPC   C3A19517  30.086  34.494   8.058
 1216POPC   C4A19518  29.727  34.663   7.807
 1216POPC   C1B19519  29.837  34.180   8.851
 1216POPC   C2B19520  29.689  34.136   8.419
 1216POPC   C3B19521  29.791  34.112   7.978
 1216POPC   C4B19522  29.835  34.249   7.521
 1217POPC   NC319523   5.476  28.408   9.433
 1217POPC   PO419524   4.894  28.222   9.660
 1217POPC   GL119525   4.981  28.449   9.263
 1217POPC   GL219526   5.032  28.160   9.110
 1217POPC   C1A19527   5.227  28.543   8.854
 1217POPC   D2A19528   5.167  28.272   8.499
 1217POPC   C3A19529   5.056  28.432   8.093
 1217POPC   C4A19530   5.264  28.309   7.735
 1217POPC   C1B19531   4.867  27.897   8.754
 1217POPC   C2B19532   4.846  27.914   8.308
 1217POPC   C3B19533   4.703  28.083   7.917
 1217POPC   C4B19534   4.700  28.072   7.442
 1218POPC   NC319535  39.173  21.177   9.584
 1218POPC   PO419536  39.599  21.595   9.444
 1218POPC   GL119537  39.441  21.287   9.122
 1218POPC   GL219538  39.050  21.257   9.095
 1218POPC   C1A19539  39.451  21.331   8.656
 1218POPC   D2A19540  39.549  21.692   8.394
 1218POPC   C3A19541  39.385  21.572   8.037
 1218POPC   C4A19542  39.399  21.101   7.951
 1218POPC   C1B19543  39.086  21.632   8.846
 1218POPC   C2B19544  39.005  21.601   8.419
 1218POPC   C3B19545  38.883  21.471   8.020
 1218POPC   C4B19546  38.927  21.113   7.758
 1219POPC   NC319547  15.353  29.550   9.240
 1219POPC   PO419548  14.909  29.110   9.598
 1219POPC   GL119549  15.032  29.080   9.203
 1219POPC   GL219550  15.390  29.034   9.288
 1219POPC   C1A19551  14.933  29.242   8.782
 1219POPC   D2A19552  15.208  29.271   8.421
 1219POPC   C3A19553  14.916  29.205   8.085
 1219POPC   C4A19554  15.028  29.407   7.737
 1219POPC   C1B19555  15.373  28.970   8.832
 1219POPC   C2B19556  15.501  28.819   8.446
 1219POPC   C3B19557  15.440  28.698   8.021
 1219POPC   C4B19558  15.264  28.951   7.727
 1220POPC   NC319559   0.733  17.681   9.953
 1220POPC   PO419560   0.445  17.308   9.416
 1220POPC   GL119561   0.415  17.495   9.032
 1220POPC   GL219562   0.539  17.194   8.929
 1220POPC   C1A19563   0.481  17.695   8.632
 1220POPC   D2A19564   0.712  17.716   8.263
 1220POPC   C3A19565   0.424  17.785   7.916
 1220POPC   C4A19566   0.045  17.711   7.712
 1220POPC   C1B19567   0.549  17.194   8.560
 1220POPC   C2B19568   0.392  17.347   8.244
 1220POPC   C3B19569   0.315  17.284   7.878
 1220POPC   C4B19570   0.488  17.011   7.650
 1221POPC   NC319571  19.551  41.228   9.474
 1221POPC   PO419572  19.767  41.913   9.527
 1221POPC   GL119573  19.763  41.607   9.146
 1221POPC   GL219574  19.551  41.801   8.956
 1221POPC   C1A19575  20.070  41.371   8.841
 1221POPC   D2A19576  20.068  41.216   8.407
 1221POPC   C3A19577  20.010  41.464   8.013
 1221POPC   C4A19578  20.152  41.672   7.632
 1221POPC   C1B19579  19.656  41.543   8.609
 1221POPC   C2B19580  19.447  41.216   8.363
 1221POPC   C3B19581  19.538  41.253   7.971
 1221POPC   C4B19582  19.495  41.666   7.811
 1222POPC   NC319583  40.849  27.999   9.838
 1222POPC   PO419584  40.582  28.522   9.477
 1222POPC   GL119585  40.913  28.426   9.150
 1222POPC   GL219586  41.165  28.702   9.088
 1222POPC   C1A19587  40.876  28.450   8.692
 1222POPC   D2A19588  40.630  28.571   8.369
 1222POPC   C3A19589  40.590  28.276   8.096
 1222POPC   C4A19590  40.816  28.250   7.742
 1222POPC   C1B19591  41.266  28.895   8.732
 1222POPC   C2B19592  41.313  28.645   8.435
 1222POPC   C3B19593  41.086  28.497   8.107
 1222POPC   C4B19594  41.150  28.677   7.700
 1223POPC   NC319595  33.910  28.244   9.395
 1223POPC   PO419596  33.353  28.217   9.743
 1223POPC   GL119597  33.416  28.347   9.216
 1223POPC   GL219598  33.717  28.218   8.945
 1223POPC   C1A19599  33.326  28.406   8.740
 1223POPC   D2A19600  33.631  28.497   8.421
 1223POPC   C3A19601  33.694  28.201   8.069
 1223POPC   C4A19602  33.766  28.285   7.631
 1223POPC   C1B19603  34.042  28.513   8.767
 1223POPC   C2B19604  34.096  28.710   8.356
 1223POPC   C3B19605  33.867  28.676   7.974
 1223POPC   C4B19606  33.974  28.785   7.566
 1224POPC   NC319607  41.880  25.589   9.693
 1224POPC   PO419608  41.246  25.878   9.586
 1224POPC   GL119609  41.340  25.697   9.175
 1224POPC   GL219610  41.595  25.409   9.241
 1224POPC   C1A19611  41.354  25.532   8.766
 1224POPC   D2A19612  41.470  25.279   8.427
 1224POPC   C3A19613  41.439  25.492   8.032
 1224POPC   C4A19614  41.586  25.248   7.712
 1224POPC   C1B19615  41.758  25.183   8.886
 1224POPC   C2B19616  41.994  25.303   8.540
 1224POPC   C3B19617  41.917  25.338   8.114
 1224POPC   C4B19618  42.085  25.279   7.717
 1225POPC   NC319619  12.577  30.413   9.419
 1225POPC   PO419620  12.934  30.904   9.685
 1225POPC   GL119621  12.869  30.855   9.229
 1225POPC   GL219622  12.863  30.524   9.024
 1225POPC   C1A19623  12.798  30.952   8.785
 1225POPC   D2A19624  12.997  30.846   8.371
 1225POPC   C3A19625  12.770  30.917   7.975
 1225POPC   C4A19626  12.953  30.849   7.593
 1225POPC   C1B19627  12.629  30.248   8.776
 1225POPC   C2B19628  12.740  30.353   8.412
 1225POPC   C3B19629  12.878  30.419   8.044
 1225POPC   C4B19630  12.690  30.412   7.656
 1226POPC   NC319631  44.692  21.047   9.500
 1226POPC   PO419632  44.831  21.796   9.587
 1226POPC   GL119633  44.698  21.667   9.176
 1226POPC   GL219634  44.949  21.457   9.076
 1226POPC   C1A19635  44.538  21.423   8.772
 1226POPC   D2A19636  44.270  21.283   8.389
 1226POPC   C3A19637  44.430  21.291   7.965
 1226POPC   C4A19638  44.562  20.944   7.743
 1226POPC   C1B19639   0.031  21.560   8.658
 1226POPC   C2B19640  44.810  21.418   8.292
 1226POPC   C3B19641  44.948  21.253   7.884
 1226POPC   C4B19642   0.119  21.497   7.534
 1227POPC   NC319643  31.128  24.856   9.429
 1227POPC   PO419644  30.731  24.374   9.748
 1227POPC   GL119645  30.820  24.435   9.255
 1227POPC   GL219646  31.128  24.497   9.060
 1227POPC   C1A19647  30.590  24.464   8.835
 1227POPC   D2A19648  30.664  24.622   8.424
 1227POPC   C3A19649  30.608  24.367   8.063
 1227POPC   C4A19650  30.386  24.618   7.822
 1227POPC   C1B19651  30.946  24.846   8.806
 1227POPC   C2B19652  31.020  24.984   8.391
 1227POPC   C3B19653  30.872  24.843   7.982
 1227POPC   C4B19654  30.895  24.597   7.595
 1228POPC   NC319655  14.140  32.793   9.436
 1228POPC   PO419656  14.685  33.201   9.561
 1228POPC   GL119657  14.626  32.917   9.157
 1228POPC   GL219658  14.370  32.685   8.982
 1228POPC   C1A19659  14.580  33.076   8.707
 1228POPC   D2A19660  14.714  33.117   8.269
 1228POPC   C3A19661  14.581  33.403   7.906
 1228POPC   C4A19662  14.330  33.307   7.529
 1228POPC   C1B19663  14.076  32.976   8.772
 1228POPC   C2B19664  13.910  32.980   8.348
 1228POPC   C3B19665  14.127  33.053   7.946
 1228POPC   C4B19666  14.128  32.851   7.530
 1229POPC   NC319667  16.270  10.688   9.678
 1229POPC   PO419668  15.667  10.381   9.688
 1229POPC   GL119669  15.852  10.579   9.323
 1229POPC   GL219670  16.090  10.382   9.139
 1229POPC   C1A19671  15.817  10.752   8.874
 1229POPC   D2A19672  15.685  10.613   8.460
 1229POPC   C3A19673  15.871  10.658   8.055
 1229POPC   C4A19674  15.809  10.289   7.809
 1229POPC   C1B19675  16.290  10.550   8.736
 1229POPC   C2B19676  16.530  10.717   8.396
 1229POPC   C3B19677  16.373  10.555   8.044
 1229POPC   C4B19678  16.343  10.400   7.641
 1230POPC   NC319679  18.612  25.891   9.866
 1230POPC   PO419680  18.298  26.440   9.537
 1230POPC   GL119681  18.357  26.120   9.233
 1230POPC   GL219682  18.273  26.349   9.004
 1230POPC   C1A19683  18.367  25.893   8.797
 1230POPC   D2A19684  18.189  25.988   8.375
 1230POPC   C3A19685  18.269  25.752   8.012
 1230POPC   C4A19686  18.495  25.833   7.667
 1230POPC   C1B19687  17.925  26.166   8.776
 1230POPC   C2B19688  17.727  26.252   8.383
 1230POPC   C3B19689  17.820  26.034   8.009
 1230POPC   C4B19690  18.065  26.075   7.642
 1231POPC   NC319691   3.383   7.314   9.591
 1231POPC   PO419692   3.392   7.979   9.420
 1231POPC   GL119693   3.440   7.603   9.177
 1231POPC   GL219694   3.801   7.520   9.283
 1231POPC   C1A19695   3.494   7.304   8.847
 1231POPC   D2A19696   3.730   7.324   8.466
 1231POPC   C3A19697   3.565   7.323   8.077
 1231POPC   C4A19698   3.241   7.422   7.816
 1231POPC   C1B19699   3.944   7.569   8.859
 1231POPC   C2B19700   3.985   7.763   8.418
 1231POPC   C3B19701   4.006   7.641   7.989
 1231POPC   C4B19702   3.969   7.265   7.778
 1232POPC   NC319703  37.962  35.805   9.556
 1232POPC   PO419704  37.609  36.360   9.637
 1232POPC   GL119705  37.659  36.221   9.223
 1232POPC   GL219706  37.669  35.881   9.128
 1232POPC   C1A19707  37.430  36.310   8.849
 1232POPC   D2A19708  37.438  36.595   8.483
 1232POPC   C3A19709  37.465  36.366   8.111
 1232POPC   C4A19710  37.471  36.211   7.705
 1232POPC   C1B19711  37.443  35.786   8.751
 1232POPC   C2B19712  37.507  35.875   8.302
 1232POPC   C3B19713  37.505  35.729   7.862
 1232POPC   C4B19714  37.530  35.818   7.386
 1233POPC   NC319715  43.096  19.198   9.447
 1233POPC   PO419716  42.815  18.627   9.453
 1233POPC   GL119717  42.866  18.859   9.060
 1233POPC   GL219718  43.216  19.042   8.983
 1233POPC   C1A19719  42.862  18.960   8.619
 1233POPC   D2A19720  43.271  18.997   8.398
 1233POPC   C3A19721  43.202  18.850   7.968
 1233POPC   C4A19722  42.975  19.093   7.696
 1233POPC   C1B19723  43.470  19.358   8.756
 1233POPC   C2B19724  43.453  19.514   8.353
 1233POPC   C3B19725  43.321  19.363   7.985
 1233POPC   C4B19726  43.409  19.340   7.580
 1234POPC   NC319727  27.429   1.095   9.375
 1234POPC   PO419728  27.987   1.330   9.642
 1234POPC   GL119729  27.833   1.419   9.200
 1234POPC   GL219730  27.470   1.519   9.084
 1234POPC   C1A19731  27.876   1.296   8.766
 1234POPC   D2A19732  27.761   1.042   8.413
 1234POPC   C3A19733  27.712   1.179   8.000
 1234POPC   C4A19734  27.561   0.887   7.694
 1234POPC   C1B19735  27.382   1.231   8.711
 1234POPC   C2B19736  27.239   1.299   8.291
 1234POPC   C3B19737  27.374   1.542   7.934
 1234POPC   C4B19738  27.327   1.317   7.529
 1235POPC   NC319739  17.380  44.930   9.611
 1235POPC   PO419740  17.830  44.492   9.589
 1235POPC   GL119741  17.581  44.658   9.226
 1235POPC   GL219742  17.682  44.368   9.108
 1235POPC   C1A19743  17.277  44.776   8.858
 1235POPC   D2A19744  17.177  44.626   8.396
 1235POPC   C3A19745  17.328  44.870   8.001
 1235POPC   C4A19746  17.327  44.967   7.503
 1235POPC   C1B19747  17.501  44.343   8.723
 1235POPC   C2B19748  17.665  44.363   8.332
 1235POPC   C3B19749  17.716  44.534   7.945
 1235POPC   C4B19750  17.402  44.484   7.660
 1236POPC   NC319751   8.405  21.828   9.392
 1236POPC   PO419752   8.223  22.468   9.539
 1236POPC   GL119753   8.371  22.288   9.174
 1236POPC   GL219754   8.045  22.089   9.122
 1236POPC   C1A19755   8.404  22.207   8.738
 1236POPC   D2A19756   8.247  22.462   8.412
 1236POPC   C3A19757   8.258  22.317   8.006
 1236POPC   C4A19758   8.405  22.348   7.589
 1236POPC   C1B19759   7.869  22.137   8.711
 1236POPC   C2B19760   7.803  22.268   8.289
 1236POPC   C3B19761   7.850  21.994   7.919
 1236POPC   C4B19762   8.247  21.869   7.778
 1237POPC   NC319763  28.906  23.679   9.470
 1237POPC   PO419764  29.513  24.019   9.602
 1237POPC   GL119765  29.310  23.832   9.235
 1237POPC   GL219766  29.328  24.101   9.111
 1237POPC   C1A19767  29.094  23.782   8.813
 1237POPC   D2A19768  29.136  23.611   8.408
 1237POPC   C3A19769  28.878  23.603   8.074
 1237POPC   C4A19770  29.014  23.502   7.626
 1237POPC   C1B19771  29.545  24.030   8.778
 1237POPC   C2B19772  29.453  24.020   8.397
 1237POPC   C3B19773  29.359  23.906   8.010
 1237POPC   C4B19774  29.035  23.980   7.772
 1238POPC   NC319775  17.456   8.719   9.799
 1238POPC   PO419776  17.545   8.102   9.581
 1238POPC   GL119777  17.538   8.368   9.175
 1238POPC   GL219778  17.209   8.417   8.998
 1238POPC   C1A19779  17.554   8.127   8.772
 1238POPC   D2A19780  17.502   7.998   8.334
 1238POPC   C3A19781  17.719   8.254   8.003
 1238POPC   C4A19782  17.746   7.960   7.695
 1238POPC   C1B19783  17.045   8.174   8.644
 1238POPC   C2B19784  16.994   8.165   8.201
 1238POPC   C3B19785  17.250   8.072   7.874
 1238POPC   C4B19786  17.331   8.296   7.519
 1239POPC   NC319787  26.665   1.191   9.463
 1239POPC   PO419788  27.116   0.732   9.429
 1239POPC   GL119789  26.863   0.875   9.103
 1239POPC   GL219790  27.021   1.195   9.066
 1239POPC   C1A19791  26.752   1.017   8.687
 1239POPC   D2A19792  26.969   0.858   8.359
 1239POPC   C3A19793  27.016   0.985   7.929
 1239POPC   C4A19794  26.792   1.134   7.575
 1239POPC   C1B19795  26.971   1.510   8.714
 1239POPC   C2B19796  26.860   1.668   8.306
 1239POPC   C3B19797  26.890   1.489   7.915
 1239POPC   C4B19798  26.908   1.619   7.495
 1240POPC   NC319799  14.188  42.747   9.362
 1240POPC   PO419800  14.558  42.515   9.886
 1240POPC   GL119801  14.503  42.346   9.407
 1240POPC   GL219802  14.204  42.199   9.215
 1240POPC   C1A19803  14.507  42.469   8.917
 1240POPC   D2A19804  14.449  42.237   8.574
 1240POPC   C3A19805  14.603  42.333   8.158
 1240POPC   C4A19806  14.548  42.540   7.779
 1240POPC   C1B19807  13.994  42.112   8.807
 1240POPC   C2B19808  13.999  42.125   8.356
 1240POPC   C3B19809  14.203  42.094   7.947
 1240POPC   C4B19810  14.073  41.893   7.584
 1241POPC   NC319811  27.402  23.172   9.810
 1241POPC   PO419812  27.807  22.716   9.600
 1241POPC   GL119813  27.642  22.765   9.206
 1241POPC   GL219814  27.387  22.543   9.234
 1241POPC   C1A19815  27.634  22.813   8.748
 1241POPC   D2A19816  27.703  22.754   8.304
 1241POPC   C3A19817  27.491  23.047   8.044
 1241POPC   C4A19818  27.457  23.228   7.627
 1241POPC   C1B19819  27.145  22.609   8.847
 1241POPC   C2B19820  27.180  22.775   8.401
 1241POPC   C3B19821  27.075  22.748   7.930
 1241POPC   C4B19822  27.176  22.816   7.470
 1242POPC   NC319823  14.403  24.672   9.409
 1242POPC   PO419824  14.429  24.045   9.454
 1242POPC   GL119825  14.381  24.255   9.046
 1242POPC   GL219826  14.451  24.610   8.907
 1242POPC   C1A19827  14.386  24.199   8.605
 1242POPC   D2A19828  14.359  24.543   8.320
 1242POPC   C3A19829  14.542  24.434   7.922
 1242POPC   C4A19830  14.607  24.168   7.579
 1242POPC   C1B19831  14.175  24.908   8.714
 1242POPC   C2B19832  13.975  24.926   8.327
 1242POPC   C3B19833  14.225  24.846   7.936
 1242POPC   C4B19834  14.265  24.776   7.497
 1243POPC   NC319835   2.020  29.429   9.480
 1243POPC   PO419836   1.725  28.745   9.494
 1243POPC   GL119837   1.916  28.990   9.173
 1243POPC   GL219838   2.245  29.124   9.100
 1243POPC   C1A19839   1.817  29.178   8.804
 1243POPC   D2A19840   1.775  28.972   8.451
 1243POPC   C3A19841   2.034  29.152   8.204
 1243POPC   C4A19842   1.862  29.315   7.859
 1243POPC   C1B19843   2.253  28.919   8.680
 1243POPC   C2B19844   2.415  28.779   8.281
 1243POPC   C3B19845   2.328  28.919   7.858
 1243POPC   C4B19846   2.363  29.362   7.781
 1244POPC   NC319847  33.613  37.406   9.555
 1244POPC   PO419848  33.883  37.984   9.450
 1244POPC   GL119849  33.830  37.665   9.137
 1244POPC   GL219850  33.518  37.482   9.065
 1244POPC   C1A19851  33.873  37.748   8.696
 1244POPC   D2A19852  33.821  37.523   8.326
 1244POPC   C3A19853  33.885  37.730   7.956
 1244POPC   C4A19854  33.601  37.473   7.660
 1244POPC   C1B19855  33.410  37.855   8.892
 1244POPC   C2B19856  33.375  37.852   8.467
 1244POPC   C3B19857  33.404  37.773   8.042
 1244POPC   C4B19858  33.549  37.981   7.632
 1245POPC   NC319859  35.328  34.813   9.690
 1245POPC   PO419860  35.523  35.394   9.573
 1245POPC   GL119861  35.453  35.373   9.162
 1245POPC   GL219862  35.090  35.441   9.197
 1245POPC   C1A19863  35.578  35.475   8.758
 1245POPC   D2A19864  35.774  35.315   8.393
 1245POPC   C3A19865  35.647  35.590   8.063
 1245POPC   C4A19866  35.645  35.373   7.664
 1245POPC   C1B19867  35.069  35.223   8.804
 1245POPC   C2B19868  35.257  35.213   8.428
 1245POPC   C3B19869  35.267  35.238   7.997
 1245POPC   C4B19870  34.989  35.203   7.654
 1246POPC   NC319871  35.493  44.414   9.521
 1246POPC   PO419872  34.860  44.687   9.494
 1246POPC   GL119873  35.097  44.502   9.188
 1246POPC   GL219874  35.356  44.750   9.135
 1246POPC   C1A19875  35.256  44.360   8.787
 1246POPC   D2A19876  35.436  44.471   8.384
 1246POPC   C3A19877  35.222  44.366   8.003
 1246POPC   C4A19878  35.300  44.349   7.545
 1246POPC   C1B19879  35.335  44.895   8.710
 1246POPC   C2B19880  35.642  44.951   8.399
 1246POPC   C3B19881  35.743  44.949   8.000
 1246POPC   C4B19882  35.485  44.840   7.669
 1247POPC   NC319883  21.530  19.654   9.477
 1247POPC   PO419884  21.295  20.263   9.466
 1247POPC   GL119885  21.445  20.046   9.124
 1247POPC   GL219886  21.630  20.340   9.016
 1247POPC   C1A19887  21.298  19.791   8.754
 1247POPC   D2A19888  21.075  19.979   8.401
 1247POPC   C3A19889  21.255  19.926   8.012
 1247POPC   C4A19890  21.293  19.563   7.793
 1247POPC   C1B19891  21.749  20.022   8.709
 1247POPC   C2B19892  21.654  19.796   8.336
 1247POPC   C3B19893  21.765  19.827   7.919
 1247POPC   C4B19894  21.570  19.923   7.535
 1248POPC   NC319895  17.236  21.332   9.660
 1248POPC   PO419896  17.763  21.590   9.553
 1248POPC   GL119897  17.462  21.545   9.216
 1248POPC   GL219898  17.279  21.182   9.191
 1248POPC   C1A19899  17.644  21.693   8.799
 1248POPC   D2A19900  17.855  21.563   8.394
 1248POPC   C3A19901  17.650  21.651   8.032
 1248POPC   C4A19902  17.476  21.664   7.656
 1248POPC   C1B19903  17.552  21.188   8.858
 1248POPC   C2B19904  17.496  21.183   8.458
 1248POPC   C3B19905  17.310  21.206   8.090
 1248POPC   C4B19906  17.486  21.065   7.733
 1249POPC   NC319907  25.131  18.548   9.491
 1249POPC   PO419908  25.526  18.061   9.666
 1249POPC   GL119909  25.463  18.207   9.234
 1249POPC   GL219910  25.096  18.142   9.141
 1249POPC   C1A19911  25.414  18.447   8.816
 1249POPC   D2A19912  25.106  18.281   8.510
 1249POPC   C3A19913  25.058  18.208   8.051
 1249POPC   C4A19914  25.203  18.382   7.661
 1249POPC   C1B19915  25.352  17.942   8.812
 1249POPC   C2B19916  25.454  17.826   8.403
 1249POPC   C3B19917  25.662  18.073   8.111
 1249POPC   C4B19918  25.682  18.212   7.705
 1250POPC   NC319919  21.728  30.482   9.542
 1250POPC   PO419920  22.302  30.838   9.555
 1250POPC   GL119921  22.141  30.543   9.226
 1250POPC   GL219922  22.297  30.280   9.037
 1250POPC   C1A19923  21.998  30.644   8.814
 1250POPC   D2A19924  22.168  30.565   8.421
 1250POPC   C3A19925  22.029  30.847   8.098
 1250POPC   C4A19926  22.165  30.872   7.689
 1250POPC   C1B19927  22.458  30.163   8.623
 1250POPC   C2B19928  22.431  30.162   8.160
 1250POPC   C3B19929  22.168  30.378   7.828
 1250POPC   C4B19930  21.879  30.503   7.460
 1251POPC   NC319931   1.518  13.775   9.525
 1251POPC   PO419932   0.926  13.390   9.550
 1251POPC   GL119933   1.140  13.605   9.220
 1251POPC   GL219934   1.447  13.415   9.183
 1251POPC   C1A19935   1.047  13.628   8.790
 1251POPC   D2A19936   1.029  13.490   8.360
 1251POPC   C3A19937   1.109  13.655   7.938
 1251POPC   C4A19938   0.754  13.813   7.703
 1251POPC   C1B19939   1.552  13.562   8.777
 1251POPC   C2B19940   1.527  13.415   8.346
 1251POPC   C3B19941   1.666  13.564   7.959
 1251POPC   C4B19942   1.582  13.482   7.537
 1252POPC   NC319943  28.832  22.066   9.356
 1252POPC   PO419944  29.347  22.390   9.471
 1252POPC   GL119945  29.189  22.373   9.078
 1252POPC   GL219946  28.906  22.512   9.124
 1252POPC   C1A19947  29.284  22.134   8.709
 1252POPC   D2A19948  29.372  21.946   8.293
 1252POPC   C3A19949  29.258  22.117   7.850
 1252POPC   C4A19950  29.335  22.258   7.399
 1252POPC   C1B19951  28.675  22.342   8.771
 1252POPC   C2B19952  28.866  22.132   8.435
 1252POPC   C3B19953  28.890  21.863   8.098
 1252POPC   C4B19954  28.580  21.828   7.785
 1253POPC   NC319955  43.872  33.201   9.500
 1253POPC   PO419956  44.323  32.640   9.611
 1253POPC   GL119957  44.027  32.800   9.256
 1253POPC   GL219958  44.081  33.072   9.052
 1253POPC   C1A19959  43.649  32.872   8.938
 1253POPC   D2A19960  43.787  33.045   8.545
 1253POPC   C3A19961  43.731  32.839   8.144
 1253POPC   C4A19962  43.949  32.938   7.764
 1253POPC   C1B19963  44.250  33.273   8.739
 1253POPC   C2B19964  44.213  33.243   8.320
 1253POPC   C3B19965  44.414  33.012   8.011
 1253POPC   C4B19966  44.436  32.925   7.578
 1254POPC   NC319967  27.261  13.495   9.307
 1254POPC   PO419968  26.643  13.584   9.521
 1254POPC   GL119969  26.785  13.736   9.081
 1254POPC   GL219970  26.971  13.486   8.893
 1254POPC   C1A19971  26.724  13.783   8.584
 1254POPC   D2A19972  26.735  13.379   8.320
 1254POPC   C3A19973  26.744  13.442   7.858
 1254POPC   C4A19974  26.567  13.779   7.598
 1254POPC   C1B19975  27.168  13.916   8.782
 1254POPC   C2B19976  27.106  14.100   8.411
 1254POPC   C3B19977  26.968  13.833   8.108
 1254POPC   C4B19978  27.058  13.892   7.694
 1255POPC   NC319979  17.925  31.485   9.511
 1255POPC   PO419980  17.286  31.541   9.380
 1255POPC   GL119981  17.474  31.357   9.046
 1255POPC   GL219982  17.706  31.649   9.095
 1255POPC   C1A19983  17.329  31.284   8.602
 1255POPC   D2A19984  17.358  31.064   8.204
 1255POPC   C3A19985  17.485  31.341   7.866
 1255POPC   C4A19986  17.299  31.745   7.748
 1255POPC   C1B19987  17.448  31.795   8.758
 1255POPC   C2B19988  17.417  31.724   8.316
 1255POPC   C3B19989  17.744  31.767   8.031
 1255POPC   C4B19990  17.955  31.801   7.684
 1256POPC   NC319991  25.189   8.074   9.487
 1256POPC   PO419992  25.734   8.413   9.476
 1256POPC   GL119993  25.385   8.533   9.215
 1256POPC   GL219994  25.143   8.279   9.029
 1256POPC   C1A19995  25.391   8.657   8.800
 1256POPC   D2A19996  25.142   8.384   8.515
 1256POPC   C3A19997  25.127   8.441   8.088
 1256POPC   C4A19998  25.305   8.159   7.803
 1256POPC   C1B19999  24.993   7.936   8.751
 1256POPC   C2B20000  24.799   7.980   8.350
 1256POPC   C3B20001  24.826   8.035   7.931
 1256POPC   C4B20002  24.850   8.395   7.649
 1257POPC   NC320003  31.079  42.511   9.427
 1257POPC   PO420004  31.643  42.239   9.487
 1257POPC   GL120005  31.542  42.128   9.093
 1257POPC   GL220006  31.196  42.144   9.070
 1257POPC   C1A20007  31.766  42.153   8.725
 1257POPC   D2A20008  31.586  42.282   8.336
 1257POPC   C3A20009  31.848  42.332   7.994
 1257POPC   C4A20010  31.785  42.637   7.660
 1257POPC   C1B20011  31.271  41.977   8.663
 1257POPC   C2B20012  31.074  42.190   8.338
 1257POPC   C3B20013  31.108  42.393   7.971
 1257POPC   C4B20014  31.432  42.252   7.740
 1258POPC   NC320015  32.733  36.944   9.440
 1258POPC   PO420016  33.287  36.567   9.425
 1258POPC   GL120017  33.076  36.776   9.074
 1258POPC   GL220018  33.150  37.127   9.151
 1258POPC   C1A20019  33.019  36.706   8.613
 1258POPC   D2A20020  33.254  36.807   8.234
 1258POPC   C3A20021  32.960  36.845   7.897
 1258POPC   C4A20022  32.711  36.554   7.701
 1258POPC   C1B20023  33.353  37.091   8.734
 1258POPC   C2B20024  33.347  37.316   8.331
 1258POPC   C3B20025  33.182  37.319   7.924
 1258POPC   C4B20026  33.141  37.161   7.496
 1259POPC   NC320027  17.142  22.965   9.813
 1259POPC   PO420028  17.643  22.776   9.385
 1259POPC   GL120029  17.396  22.840   9.015
 1259POPC   GL220030  17.267  23.133   9.213
 1259POPC   C1A20031  17.276  22.686   8.589
 1259POPC   D2A20032  17.566  22.637   8.212
 1259POPC   C3A20033  17.365  22.679   7.785
 1259POPC   C4A20034  17.341  22.550   7.321
 1259POPC   C1B20035  17.469  23.294   8.826
 1259POPC   C2B20036  17.440  23.155   8.401
 1259POPC   C3B20037  17.524  23.152   7.987
 1259POPC   C4B20038  17.269  23.313   7.704
 1260POPC   NC320039   6.511  24.191   9.378
 1260POPC   PO420040   7.053  24.628   9.529
 1260POPC   GL120041   6.839  24.558   9.157
 1260POPC   GL220042   6.489  24.641   9.135
 1260POPC   C1A20043   6.781  24.448   8.744
 1260POPC   D2A20044   6.668  24.292   8.396
 1260POPC   C3A20045   6.874  24.404   8.000
 1260POPC   C4A20046   6.740  24.532   7.616
 1260POPC   C1B20047   6.277  24.508   8.782
 1260POPC   C2B20048   6.339  24.677   8.408
 1260POPC   C3B20049   6.405  24.605   8.018
 1260POPC   C4B20050   6.226  24.443   7.655
 1261POPC   NC320051   2.394  38.171   9.488
 1261POPC   PO420052   2.915  38.642   9.430
 1261POPC   GL120053   2.945  38.354   9.065
 1261POPC   GL220054   3.276  38.325   8.953
 1261POPC   C1A20055   2.887  38.355   8.596
 1261POPC   D2A20056   2.486  38.401   8.369
 1261POPC   C3A20057   2.554  38.314   7.937
 1261POPC   C4A20058   2.953  38.137   7.767
 1261POPC   C1B20059   3.170  38.741   8.809
 1261POPC   C2B20060   3.038  38.854   8.411
 1261POPC   C3B20061   2.986  38.592   8.055
 1261POPC   C4B20062   2.873  38.634   7.606
 1262POPC   NC320063   7.797  30.669   9.520
 1262POPC   PO420064   7.204  30.633   9.350
 1262POPC   GL120065   7.422  30.866   9.054
 1262POPC   GL220066   7.711  30.720   9.027
 1262POPC   C1A20067   7.148  30.985   8.726
 1262POPC   D2A20068   6.952  30.744   8.401
 1262POPC   C3A20069   7.063  30.969   8.039
 1262POPC   C4A20070   7.222  30.978   7.612
 1262POPC   C1B20071   7.489  30.579   8.672
 1262POPC   C2B20072   7.477  30.782   8.332
 1262POPC   C3B20073   7.364  30.526   8.056
 1262POPC   C4B20074   7.470  30.485   7.682
 1263POPC   NC320075  28.753  13.856   9.520
 1263POPC   PO420076  28.223  14.277   9.528
 1263POPC   GL120077  28.437  14.502   9.201
 1263POPC   GL220078  28.151  14.715   9.132
 1263POPC   C1A20079  28.565  14.625   8.775
 1263POPC   D2A20080  28.405  14.576   8.376
 1263POPC   C3A20081  28.534  14.216   8.129
 1263POPC   C4A20082  28.805  14.125   7.734
 1263POPC   C1B20083  28.081  14.370   8.823
 1263POPC   C2B20084  27.964  14.329   8.385
 1263POPC   C3B20085  28.102  14.485   7.981
 1263POPC   C4B20086  28.379  14.423   7.689
 1264POPC   NC320087  11.889   2.871   9.530
 1264POPC   PO420088  11.884   2.209   9.394
 1264POPC   GL120089  11.986   2.581   9.118
 1264POPC   GL220090  12.218   2.874   9.171
 1264POPC   C1A20091  11.989   2.763   8.705
 1264POPC   D2A20092  11.952   2.455   8.385
 1264POPC   C3A20093  12.052   2.625   7.984
 1264POPC   C4A20094  12.189   2.392   7.638
 1264POPC   C1B20095  12.327   3.143   8.822
 1264POPC   C2B20096  12.183   3.153   8.396
 1264POPC   C3B20097  12.366   3.093   7.991
 1264POPC   C4B20098  12.288   2.955   7.610
 1265POPC   NC320099  37.502  24.580   9.487
 1265POPC   PO420100  37.866  24.054   9.529
 1265POPC   GL120101  37.866  24.342   9.207
 1265POPC   GL220102  38.042  24.670   9.237
 1265POPC   C1A20103  37.660  24.297   8.820
 1265POPC   D2A20104  37.400  24.551   8.563
 1265POPC   C3A20105  37.505  24.520   8.127
 1265POPC   C4A20106  37.386  24.259   7.783
 1265POPC   C1B20107  37.779  24.793   8.875
 1265POPC   C2B20108  37.854  24.939   8.468
 1265POPC   C3B20109  37.940  24.839   8.056
 1265POPC   C4B20110  37.641  24.844   7.725
 1266POPC   NC320111  27.969   9.696   9.506
 1266POPC   PO420112  27.554  10.146   9.194
 1266POPC   GL120113  27.858   9.947   9.069
 1266POPC   GL220114  27.656   9.668   9.093
 1266POPC   C1A20115  27.887   9.843   8.649
 1266POPC   D2A20116  27.564   9.942   8.334
 1266POPC   C3A20117  27.683  10.076   7.924
 1266POPC   C4A20118  27.867   9.935   7.539
 1266POPC   C1B20119  27.727   9.385   8.742
 1266POPC   C2B20120  27.780   9.450   8.306
 1266POPC   C3B20121  27.591   9.565   7.928
 1266POPC   C4B20122  27.387   9.317   7.633
 1267POPC   NC320123  43.441   1.031   9.536
 1267POPC   PO420124  42.821   1.338   9.577
 1267POPC   GL120125  43.133   1.429   9.268
 1267POPC   GL220126  43.046   1.099   9.180
 1267POPC   C1A20127  43.105   1.471   8.798
 1267POPC   D2A20128  43.199   1.294   8.360
 1267POPC   C3A20129  43.095   1.431   7.925
 1267POPC   C4A20130  43.096   1.575   7.430
 1267POPC   C1B20131  43.018   0.957   8.766
 1267POPC   C2B20132  43.072   0.793   8.353
 1267POPC   C3B20133  43.295   0.935   7.999
 1267POPC   C4B20134  43.529   0.741   7.683
 1268POPC   NC320135   0.107  34.270   9.542
 1268POPC   PO420136  44.652  34.745   9.617
 1268POPC   GL120137  44.828  34.561   9.240
 1268POPC   GL220138  44.554  34.562   9.096
 1268POPC   C1A20139  44.954  34.480   8.792
 1268POPC   D2A20140  44.909  34.694   8.394
 1268POPC   C3A20141  44.777  34.565   7.970
 1268POPC   C4A20142  44.867  34.598   7.471
 1268POPC   C1B20143  44.412  34.787   8.747
 1268POPC   C2B20144  44.387  34.648   8.364
 1268POPC   C3B20145  44.233  34.668   7.993
 1268POPC   C4B20146  44.394  34.581   7.642
 1269POPC   NC320147  42.017  37.806   9.476
 1269POPC   PO420148  42.662  37.923   9.239
 1269POPC   GL120149  42.302  37.678   9.079
 1269POPC   GL220150  42.019  37.417   9.127
 1269POPC   C1A20151  42.201  37.691   8.688
 1269POPC   D2A20152  42.354  37.922   8.387
 1269POPC   C3A20153  42.507  37.704   8.053
 1269POPC   C4A20154  42.207  37.839   7.787
 1269POPC   C1B20155  42.039  37.218   8.741
 1269POPC   C2B20156  42.200  37.342   8.316
 1269POPC   C3B20157  42.011  37.390   7.886
 1269POPC   C4B20158  42.012  37.475   7.386
 1270POPC   NC320159  14.575  19.484   9.516
 1270POPC   PO420160  14.071  19.022   9.380
 1270POPC   GL120161  14.332  19.205   9.114
 1270POPC   GL220162  14.649  19.064   9.231
 1270POPC   C1A20163  14.288  19.041   8.689
 1270POPC   D2A20164  14.053  19.143   8.332
 1270POPC   C3A20165  14.247  19.202   7.911
 1270POPC   C4A20166  14.295  19.253   7.447
 1270POPC   C1B20167  14.751  19.199   8.813
 1270POPC   C2B20168  14.752  18.946   8.415
 1270POPC   C3B20169  14.640  18.867   7.982
 1270POPC   C4B20170  14.743  19.221   7.700
 1271POPC   NC320171  41.932  37.148   9.551
 1271POPC   PO420172  41.313  36.842   9.383
 1271POPC   GL120173  41.570  37.125   9.168
 1271POPC   GL220174  41.814  36.872   9.138
 1271POPC   C1A20175  41.528  37.160   8.747
 1271POPC   D2A20176  41.334  36.918   8.447
 1271POPC   C3A20177  41.459  37.075   8.068
 1271POPC   C4A20178  41.411  36.864   7.706
 1271POPC   C1B20179  41.839  36.721   8.731
 1271POPC   C2B20180  41.888  36.933   8.348
 1271POPC   C3B20181  41.928  36.850   7.932
 1271POPC   C4B20182  41.858  37.027   7.568
 1272POPC   NC320183  21.860  41.480  10.047
 1272POPC   PO420184  22.008  41.697   9.418
 1272POPC   GL120185  21.951  41.875   9.065
 1272POPC   GL220186  22.107  41.572   8.913
 1272POPC   C1A20187  22.116  42.033   8.685
 1272POPC   D2A20188  22.328  41.689   8.467
 1272POPC   C3A20189  22.237  41.676   8.035
 1272POPC   C4A20190  21.922  41.618   7.772
 1272POPC   C1B20191  21.959  41.214   8.665
 1272POPC   C2B20192  21.751  41.185   8.257
 1272POPC   C3B20193  21.935  41.089   7.842
 1272POPC   C4B20194  22.268  41.280   7.541
 1273POPC   NC320195  38.660  25.801   9.276
 1273POPC   PO420196  38.248  26.252   9.504
 1273POPC   GL120197  38.347  26.165   9.104
 1273POPC   GL220198  38.162  25.872   9.104
 1273POPC   C1A20199  38.482  26.061   8.671
 1273POPC   D2A20200  38.565  26.365   8.344
 1273POPC   C3A20201  38.476  26.250   7.942
 1273POPC   C4A20202  38.783  26.293   7.652
 1273POPC   C1B20203  38.097  25.665   8.741
 1273POPC   C2B20204  38.160  25.745   8.317
 1273POPC   C3B20205  38.093  25.795   7.871
 1273POPC   C4B20206  38.364  25.930   7.552
 1274POPC   NC320207  20.620   7.113   9.448
 1274POPC   PO420208  20.756   7.736   9.562
 1274POPC   GL120209  20.700   7.526   9.162
 1274POPC   GL220210  21.012   7.294   9.149
 1274POPC   C1A20211  20.460   7.623   8.757
 1274POPC   D2A20212  20.243   7.593   8.333
 1274POPC   C3A20213  20.490   7.673   7.938
 1274POPC   C4A20214  20.683   7.529   7.534
 1274POPC   C1B20215  20.758   7.172   8.777
 1274POPC   C2B20216  20.620   7.199   8.344
 1274POPC   C3B20217  20.726   7.157   7.922
 1274POPC   C4B20218  20.757   6.952   7.499
 1275POPC   NC320219   4.137   5.233   9.760
 1275POPC   PO420220   4.590   4.790   9.513
 1275POPC   GL120221   4.304   5.075   9.260
 1275POPC   GL220222   4.332   5.400   9.232
 1275POPC   C1A20223   4.202   5.108   8.848
 1275POPC   D2A20224   4.258   4.932   8.482
 1275POPC   C3A20225   4.064   5.130   8.167
 1275POPC   C4A20226   4.382   5.045   7.869
 1275POPC   C1B20227   4.444   5.547   8.778
 1275POPC   C2B20228   4.459   5.410   8.375
 1275POPC   C3B20229   4.369   5.552   7.985
 1275POPC   C4B20230   4.415   5.430   7.558
 1276POPC   NC320231   7.508   4.779   9.320
 1276POPC   PO420232   7.378   4.110   9.513
 1276POPC   GL120233   7.189   4.153   9.128
 1276POPC   GL220234   7.446   4.367   9.043
 1276POPC   C1A20235   7.298   4.042   8.703
 1276POPC   D2A20236   7.652   4.132   8.431
 1276POPC   C3A20237   7.538   4.118   8.001
 1276POPC   C4A20238   7.215   4.283   7.707
 1276POPC   C1B20239   7.646   4.591   8.717
 1276POPC   C2B20240   7.623   4.661   8.286
 1276POPC   C3B20241   7.598   4.590   7.835
 1276POPC   C4B20242   7.441   4.591   7.347
 1277POPC   NC320243  32.522  14.960   9.912
 1277POPC   PO420244  32.245  15.459   9.564
 1277POPC   GL120245  32.253  15.227   9.160
 1277POPC   GL220246  32.601  15.017   9.106
 1277POPC   C1A20247  32.049  15.212   8.746
 1277POPC   D2A20248  32.305  15.307   8.386
 1277POPC   C3A20249  32.516  15.024   8.147
 1277POPC   C4A20250  32.245  15.075   7.784
 1277POPC   C1B20251  32.723  15.166   8.683
 1277POPC   C2B20252  32.679  15.611   8.532
 1277POPC   C3B20253  32.463  15.826   8.181
 1277POPC   C4B20254  32.473  15.703   7.737
 1278POPC   NC320255  34.030  25.041   9.480
 1278POPC   PO420256  33.445  25.136   9.431
 1278POPC   GL120257  33.735  25.335   9.134
 1278POPC   GL220258  33.892  25.665   9.188
 1278POPC   C1A20259  33.947  25.337   8.730
 1278POPC   D2A20260  34.157  25.061   8.412
 1278POPC   C3A20261  33.850  25.020   8.064
 1278POPC   C4A20262  33.794  25.317   7.743
 1278POPC   C1B20263  33.602  25.715   8.815
 1278POPC   C2B20264  33.600  25.512   8.376
 1278POPC   C3B20265  33.360  25.515   7.995
 1278POPC   C4B20266  33.389  25.530   7.546
 1279POPC   NC320267  38.169  30.621   9.461
 1279POPC   PO420268  38.768  31.051   9.583
 1279POPC   GL120269  38.547  30.834   9.208
 1279POPC   GL220270  38.209  31.001   9.125
 1279POPC   C1A20271  38.427  30.627   8.819
 1279POPC   D2A20272  38.659  30.700   8.446
 1279POPC   C3A20273  38.609  30.428   8.072
 1279POPC   C4A20274  38.556  30.553   7.629
 1279POPC   C1B20275  38.259  31.077   8.682
 1279POPC   C2B20276  38.200  30.813   8.308
 1279POPC   C3B20277  38.455  30.907   7.996
 1279POPC   C4B20278  38.375  31.072   7.642
 1280POPC   NC320279  40.836  17.816   9.632
 1280POPC   PO420280  40.683  17.155   9.501
 1280POPC   GL120281  40.782  17.485   9.196
 1280POPC   GL220282  40.568  17.753   9.193
 1280POPC   C1A20283  40.947  17.342   8.795
 1280POPC   D2A20284  40.670  17.125   8.508
 1280POPC   C3A20285  40.697  17.215   8.049
 1280POPC   C4A20286  40.930  17.212   7.654
 1280POPC   C1B20287  40.777  17.821   8.785
 1280POPC   C2B20288  40.818  17.595   8.379
 1280POPC   C3B20289  40.999  17.623   7.958
 1280POPC   C4B20290  40.886  17.723   7.519
 1281POPC   NC320291  41.163  42.674   9.907
 1281POPC   PO420292  40.661  42.333   9.706
 1281POPC   GL120293  40.658  42.422   9.241
 1281POPC   GL220294  40.983  42.361   9.131
 1281POPC   C1A20295  40.446  42.491   8.838
 1281POPC   D2A20296  40.446  42.286   8.415
 1281POPC   C3A20297  40.461  42.499   8.027
 1281POPC   C4A20298  40.662  42.445   7.629
 1281POPC   C1B20299  40.949  42.554   8.713
 1281POPC   C2B20300  40.903  42.460   8.267
 1281POPC   C3B20301  41.059  42.251   7.897
 1281POPC   C4B20302  41.123  42.280   7.420
 1282POPC   NC320303  21.879  32.741   9.469
 1282POPC   PO420304  22.382  33.153   9.541
 1282POPC   GL120305  22.241  32.986   9.170
 1282POPC   GL220306  21.935  33.138   9.153
 1282POPC   C1A20307  22.255  33.171   8.759
 1282POPC   D2A20308  22.410  33.003   8.411
 1282POPC   C3A20309  22.453  33.186   8.057
 1282POPC   C4A20310  22.458  33.386   7.709
 1282POPC   C1B20311  21.757  32.913   8.822
 1282POPC   C2B20312  21.899  32.921   8.417
 1282POPC   C3B20313  21.953  33.092   8.048
 1282POPC   C4B20314  21.786  32.935   7.690
 1283POPC   NC320315  29.541  20.597   9.510
 1283POPC   PO420316  28.904  20.860   9.513
 1283POPC   GL120317  29.102  20.675   9.195
 1283POPC   GL220318  29.325  20.892   9.160
 1283POPC   C1A20319  29.148  20.601   8.741
 1283POPC   D2A20320  29.262  20.418   8.307
 1283POPC   C3A20321  29.162  20.549   7.871
 1283POPC   C4A20322  29.327  20.407   7.429
 1283POPC   C1B20323  29.590  20.922   8.836
 1283POPC   C2B20324  29.604  21.026   8.408
 1283POPC   C3B20325  29.659  20.776   8.056
 1283POPC   C4B20326  29.544  20.807   7.657
 1284POPC   NC320327  37.335   2.600   9.367
 1284POPC   PO420328  38.012   2.373   9.217
 1284POPC   GL120329  37.870   2.666   8.956
 1284POPC   GL220330  37.510   2.779   8.950
 1284POPC   C1A20331  37.784   2.606   8.577
 1284POPC   D2A20332  37.388   2.527   8.441
 1284POPC   C3A20333  37.472   2.710   8.108
 1284POPC   C4A20334  37.655   2.977   7.822
 1284POPC   C1B20335  37.569   3.060   8.613
 1284POPC   C2B20336  37.866   3.035   8.286
 1284POPC   C3B20337  37.995   3.333   7.982
 1284POPC   C4B20338  37.851   3.387   7.587
 1285POPC   NC320339  14.873  12.400   9.884
 1285POPC   PO420340  15.330  12.766   9.528
 1285POPC   GL120341  15.137  12.688   9.129
 1285POPC   GL220342  15.464  12.554   9.067
 1285POPC   C1A20343  14.900  12.804   8.731
 1285POPC   D2A20344  15.105  12.888   8.301
 1285POPC   C3A20345  15.178  13.011   7.857
 1285POPC   C4A20346  15.127  13.294   7.530
 1285POPC   C1B20347  15.428  12.709   8.658
 1285POPC   C2B20348  15.354  12.448   8.284
 1285POPC   C3B20349  15.511  12.583   7.924
 1285POPC   C4B20350  15.417  12.655   7.524
 1286POPC   NC320351  10.969  43.135   9.599
 1286POPC   PO420352  11.622  43.265   9.537
 1286POPC   GL120353  11.510  43.270   9.130
 1286POPC   GL220354  11.202  43.058   9.136
 1286POPC   C1A20355  11.541  43.064   8.747
 1286POPC   D2A20356  11.255  43.094   8.444
 1286POPC   C3A20357  11.367  43.015   8.041
 1286POPC   C4A20358  11.458  43.140   7.634
 1286POPC   C1B20359  11.154  42.721   8.822
 1286POPC   C2B20360  10.912  42.706   8.426
 1286POPC   C3B20361  11.036  42.615   8.010
 1286POPC   C4B20362  11.125  42.753   7.610
 1287POPC   NC320363  23.030   9.605   9.427
 1287POPC   PO420364  22.725  10.143   9.422
 1287POPC   GL120365  22.944  10.000   9.061
 1287POPC   GL220366  23.315   9.890   9.103
 1287POPC   C1A20367  22.722   9.886   8.701
 1287POPC   D2A20368  22.501   9.606   8.459
 1287POPC   C3A20369  22.698   9.761   8.112
 1287POPC   C4A20370  23.005   9.892   7.822
 1287POPC   C1B20371  23.164   9.607   8.777
 1287POPC   C2B20372  23.118   9.686   8.366
 1287POPC   C3B20373  23.080   9.438   8.004
 1287POPC   C4B20374  23.419   9.383   7.768
 1288POPC   NC320375  40.596  43.145   9.443
 1288POPC   PO420376  41.207  42.885   9.498
 1288POPC   GL120377  40.949  42.888   9.159
 1288POPC   GL220378  40.971  43.243   9.120
 1288POPC   C1A20379  40.655  42.971   8.809
 1288POPC   D2A20380  40.515  42.799   8.440
 1288POPC   C3A20381  40.585  43.013   8.098
 1288POPC   C4A20382  40.792  42.949   7.733
 1288POPC   C1B20383  40.835  43.442   8.758
 1288POPC   C2B20384  40.845  43.607   8.352
 1288POPC   C3B20385  40.792  43.451   7.934
 1288POPC   C4B20386  40.759  43.708   7.610
 1289POPC   NC320387  29.201   7.711   9.522
 1289POPC   PO420388  28.856   8.353   9.504
 1289POPC   GL120389  29.066   8.217   9.193
 1289POPC   GL220390  28.944   7.918   9.142
 1289POPC   C1A20391  29.204   8.271   8.803
 1289POPC   D2A20392  29.307   8.439   8.382
 1289POPC   C3A20393  29.355   8.173   8.029
 1289POPC   C4A20394  29.349   8.492   7.690
 1289POPC   C1B20395  28.812   7.928   8.769
 1289POPC   C2B20396  29.060   7.970   8.421
 1289POPC   C3B20397  28.830   7.900   8.083
 1289POPC   C4B20398  29.011   7.954   7.706
 1290POPC   NC320399  26.291  15.577   9.240
 1290POPC   PO420400  26.105  14.978   9.360
 1290POPC   GL120401  25.760  15.102   9.056
 1290POPC   GL220402  25.781  15.486   9.047
 1290POPC   C1A20403  25.901  14.958   8.619
 1290POPC   D2A20404  26.358  14.965   8.431
 1290POPC   C3A20405  26.254  15.110   8.020
 1290POPC   C4A20406  25.810  14.987   7.854
 1290POPC   C1B20407  25.652  15.429   8.630
 1290POPC   C2B20408  25.832  15.402   8.219
 1290POPC   C3B20409  25.967  15.464   7.814
 1290POPC   C4B20410  26.170  15.699   7.510
 1291POPC   NC320411   4.835  36.441   9.584
 1291POPC   PO420412   4.899  35.829   9.406
 1291POPC   GL120413   4.999  36.115   9.113
 1291POPC   GL220414   5.342  36.237   9.130
 1291POPC   C1A20415   4.886  36.343   8.731
 1291POPC   D2A20416   4.679  36.352   8.302
 1291POPC   C3A20417   4.819  36.033   7.990
 1291POPC   C4A20418   4.596  35.707   7.748
 1291POPC   C1B20419   5.324  35.986   8.740
 1291POPC   C2B20420   5.171  36.047   8.363
 1291POPC   C3B20421   5.330  36.096   7.972
 1291POPC   C4B20422   5.283  36.114   7.561
 1292POPC   NC320423  31.068   1.486   9.393
 1292POPC   PO420424  30.440   1.365   9.548
 1292POPC   GL120425  30.651   1.250   9.201
 1292POPC   GL220426  30.870   0.991   9.336
 1292POPC   C1A20427  30.699   1.417   8.791
 1292POPC   D2A20428  30.482   1.401   8.419
 1292POPC   C3A20429  30.641   1.416   8.017
 1292POPC   C4A20430  30.447   1.185   7.742
 1292POPC   C1B20431  30.817   0.859   8.911
 1292POPC   C2B20432  30.766   0.960   8.486
 1292POPC   C3B20433  30.837   0.928   8.059
 1292POPC   C4B20434  31.073   1.218   7.845
 1293POPC   NC320435  30.203   3.629   9.339
 1293POPC   PO420436  30.792   3.467   9.648
 1293POPC   GL120437  30.617   3.374   9.168
 1293POPC   GL220438  30.545   3.685   8.944
 1293POPC   C1A20439  30.589   3.252   8.698
 1293POPC   D2A20440  30.626   3.130   8.254
 1293POPC   C3A20441  30.359   3.398   7.996
 1293POPC   C4A20442  30.521   3.790   7.830
 1293POPC   C1B20443  30.869   3.670   8.607
 1293POPC   C2B20444  30.885   3.888   8.211
 1293POPC   C3B20445  31.033   3.912   7.789
 1293POPC   C4B20446  30.842   3.691   7.410
 1294POPC   NC320447  19.020   0.110   9.600
 1294POPC   PO420448  18.433   0.265   9.391
 1294POPC   GL120449  18.795   0.491   9.205
 1294POPC   GL220450  18.705   0.859   9.159
 1294POPC   C1A20451  19.120   0.512   8.858
 1294POPC   D2A20452  19.238   0.239   8.502
 1294POPC   C3A20453  19.282   0.455   8.095
 1294POPC   C4A20454  19.392   0.326   7.680
 1294POPC   C1B20455  18.661   0.684   8.740
 1294POPC   C2B20456  18.818   0.508   8.377
 1294POPC   C3B20457  18.813   0.688   8.007
 1294POPC   C4B20458  18.851   0.592   7.626
 1295POPC   NC320459  32.683  42.476   9.412
 1295POPC   PO420460  33.254  42.235   9.478
 1295POPC   GL120461  33.227  42.423   9.088
 1295POPC   GL220462  33.229  42.808   9.088
 1295POPC   C1A20463  33.075  42.222   8.707
 1295POPC   D2A20464  32.724  42.301   8.412
 1295POPC   C3A20465  32.863  42.289   7.976
 1295POPC   C4A20466  32.663  42.119   7.610
 1295POPC   C1B20467  32.899  42.690   8.797
 1295POPC   C2B20468  33.114  42.650   8.402
 1295POPC   C3B20469  33.044  42.771   8.002
 1295POPC   C4B20470  32.619  42.789   7.914
 1296POPC   NC320471  40.900   2.279   9.478
 1296POPC   PO420472  40.523   1.717   9.313
 1296POPC   GL120473  40.754   1.964   9.115
 1296POPC   GL220474  40.503   2.257   9.155
 1296POPC   C1A20475  40.954   1.861   8.760
 1296POPC   D2A20476  41.010   2.081   8.397
 1296POPC   C3A20477  40.821   1.873   8.094
 1296POPC   C4A20478  40.905   1.931   7.679
 1296POPC   C1B20479  40.551   2.203   8.710
 1296POPC   C2B20480  40.595   2.372   8.291
 1296POPC   C3B20481  40.533   2.243   7.853
 1296POPC   C4B20482  40.611   2.305   7.405
 1297POPC   NC320483   8.109  21.113   9.441
 1297POPC   PO420484   8.678  21.414   9.451
 1297POPC   GL120485   8.541  21.143   9.092
 1297POPC   GL220486   8.158  21.199   8.955
 1297POPC   C1A20487   8.486  21.027   8.636
 1297POPC   D2A20488   8.217  21.262   8.375
 1297POPC   C3A20489   8.464  21.508   8.083
 1297POPC   C4A20490   8.419  21.410   7.675
 1297POPC   C1B20491   8.058  21.621   8.770
 1297POPC   C2B20492   8.069  21.771   8.330
 1297POPC   C3B20493   7.973  21.477   7.957
 1297POPC   C4B20494   7.912  21.504   7.508
 1298POPC   NC320495   2.021   6.050   9.740
 1298POPC   PO420496   2.141   6.632   9.449
 1298POPC   GL120497   2.051   6.636   9.036
 1298POPC   GL220498   1.888   6.333   8.905
 1298POPC   C1A20499   2.321   6.702   8.695
 1298POPC   D2A20500   2.507   6.587   8.317
 1298POPC   C3A20501   2.249   6.568   7.948
 1298POPC   C4A20502   2.264   6.820   7.576
 1298POPC   C1B20503   1.962   6.317   8.446
 1298POPC   C2B20504   1.694   6.125   8.117
 1298POPC   C3B20505   1.646   6.088   7.679
 1298POPC   C4B20506   1.690   6.235   7.231
 1299POPC   NC320507  35.580  20.261   9.480
 1299POPC   PO420508  35.182  20.689   9.573
 1299POPC   GL120509  35.517  20.702   9.232
 1299POPC   GL220510  35.407  20.435   9.012
 1299POPC   C1A20511  35.789  20.726   8.839
 1299POPC   D2A20512  35.536  20.714   8.457
 1299POPC   C3A20513  35.612  20.769   8.008
 1299POPC   C4A20514  35.306  20.665   7.647
 1299POPC   C1B20515  35.670  20.249   8.689
 1299POPC   C2B20516  35.777  20.317   8.247
 1299POPC   C3B20517  35.563  20.273   7.862
 1299POPC   C4B20518  35.725  20.118   7.500
 1300POPC   NC320519  12.353   2.124   9.352
 1300POPC   PO420520  11.946   1.566   9.515
 1300POPC   GL120521  11.986   1.749   9.143
 1300POPC   GL220522  12.302   1.706   9.065
 1300POPC   C1A20523  11.951   2.015   8.784
 1300POPC   D2A20524  12.027   1.899   8.391
 1300POPC   C3A20525  11.846   2.090   8.038
 1300POPC   C4A20526  11.939   1.920   7.662
 1300POPC   C1B20527  12.472   1.916   8.714
 1300POPC   C2B20528  12.440   2.199   8.364
 1300POPC   C3B20529  12.364   2.037   7.958
 1300POPC   C4B20530  12.411   1.865   7.526
 1301POPC   NC320531   3.403  30.866   9.313
 1301POPC   PO420532   3.841  30.438   9.479
 1301POPC   GL120533   3.760  30.550   9.078
 1301POPC   GL220534   3.817  30.880   9.002
 1301POPC   C1A20535   3.430  30.542   8.758
 1301POPC   D2A20536   3.220  30.655   8.389
 1301POPC   C3A20537   3.459  30.469   8.044
 1301POPC   C4A20538   3.430  30.263   7.646
 1301POPC   C1B20539   3.534  31.066   8.670
 1301POPC   C2B20540   3.332  31.141   8.263
 1301POPC   C3B20541   3.446  30.943   7.874
 1301POPC   C4B20542   3.620  30.876   7.477
 1302POPC   NC320543  18.448  43.198   9.567
 1302POPC   PO420544  18.369  43.882   9.644
 1302POPC   GL120545  18.359  43.831   9.187
 1302POPC   GL220546  18.053  43.680   9.092
 1302POPC   C1A20547  18.348  43.955   8.733
 1302POPC   D2A20548  18.577  43.975   8.336
 1302POPC   C3A20549  18.368  43.861   7.935
 1302POPC   C4A20550  18.508  43.592   7.571
 1302POPC   C1B20551  18.144  43.481   8.684
 1302POPC   C2B20552  18.104  43.658   8.319
 1302POPC   C3B20553  17.861  43.940   8.078
 1302POPC   C4B20554  17.934  43.824   7.670
 1303POPC   NC320555  23.075  29.268   9.637
 1303POPC   PO420556  22.760  28.632   9.552
 1303POPC   GL120557  22.919  28.956   9.211
 1303POPC   GL220558  23.125  29.256   9.137
 1303POPC   C1A20559  22.774  29.147   8.782
 1303POPC   D2A20560  22.499  28.966   8.444
 1303POPC   C3A20561  22.561  28.856   7.976
 1303POPC   C4A20562  22.590  29.104   7.588
 1303POPC   C1B20563  23.204  29.475   8.771
 1303POPC   C2B20564  23.126  29.254   8.399
 1303POPC   C3B20565  22.844  29.260   8.065
 1303POPC   C4B20566  22.921  29.479   7.704
 1304POPC   NC320567  30.094  35.063   9.393
 1304POPC   PO420568  29.744  35.659   9.619
 1304POPC   GL120569  29.935  35.544   9.215
 1304POPC   GL220570  29.753  35.253   9.064
 1304POPC   C1A20571  29.937  35.586   8.772
 1304POPC   D2A20572  29.718  35.342   8.486
 1304POPC   C3A20573  29.837  35.451   8.060
 1304POPC   C4A20574  29.721  35.511   7.634
 1304POPC   C1B20575  30.060  35.071   8.724
 1304POPC   C2B20576  30.001  34.995   8.229
 1304POPC   C3B20577  30.008  35.092   7.764
 1304POPC   C4B20578  30.074  35.116   7.313
 1305POPC   NC320579  25.706  32.142   9.430
 1305POPC   PO420580  26.393  31.987   9.461
 1305POPC   GL120581  26.359  32.169   9.099
 1305POPC   GL220582  26.062  32.309   9.110
 1305POPC   C1A20583  26.259  31.990   8.681
 1305POPC   D2A20584  26.326  31.755   8.286
 1305POPC   C3A20585  26.246  31.969   7.883
 1305POPC   C4A20586  26.270  31.950   7.392
 1305POPC   C1B20587  26.018  32.452   8.710
 1305POPC   C2B20588  25.891  32.259   8.381
 1305POPC   C3B20589  25.909  32.355   7.998
 1305POPC   C4B20590  26.072  32.408   7.621
 1306POPC   NC320591  34.124  30.799   9.407
 1306POPC   PO420592  33.636  30.460   9.686
 1306POPC   GL120593  33.756  30.515   9.206
 1306POPC   GL220594  33.872  30.810   8.947
 1306POPC   C1A20595  33.870  30.349   8.804
 1306POPC   D2A20596  34.011  30.618   8.493
 1306POPC   C3A20597  33.799  30.499   8.143
 1306POPC   C4A20598  33.784  30.585   7.719
 1306POPC   C1B20599  33.641  30.999   8.625
 1306POPC   C2B20600  33.552  30.934   8.206
 1306POPC   C3B20601  33.701  31.151   7.834
 1306POPC   C4B20602  33.832  31.021   7.435
 1307POPC   NC320603   6.226  15.209   9.532
 1307POPC   PO420604   5.589  15.357   9.538
 1307POPC   GL120605   5.796  15.086   9.253
 1307POPC   GL220606   6.026  15.292   9.062
 1307POPC   C1A20607   5.673  15.010   8.843
 1307POPC   D2A20608   5.893  14.965   8.477
 1307POPC   C3A20609   5.870  15.227   8.137
 1307POPC   C4A20610   6.012  15.115   7.712
 1307POPC   C1B20611   5.960  15.459   8.633
 1307POPC   C2B20612   6.110  15.678   8.239
 1307POPC   C3B20613   5.908  15.631   7.824
 1307POPC   C4B20614   6.087  15.527   7.400
 1308POPC   NC320615  41.396  43.316   9.558
 1308POPC   PO420616  41.603  42.660   9.782
 1308POPC   GL120617  41.708  42.929   9.336
 1308POPC   GL220618  41.454  43.070   9.100
 1308POPC   C1A20619  41.875  43.005   8.863
 1308POPC   D2A20620  41.643  43.176   8.463
 1308POPC   C3A20621  41.716  43.026   8.024
 1308POPC   C4A20622  41.840  42.688   7.695
 1308POPC   C1B20623  41.193  43.018   8.732
 1308POPC   C2B20624  41.012  43.103   8.362
 1308POPC   C3B20625  41.212  43.157   7.973
 1308POPC   C4B20626  41.511  43.459   7.822
 1309POPC   NC320627  30.114  30.406   9.232
 1309POPC   PO420628  29.597  30.688   9.442
 1309POPC   GL120629  29.817  30.809   9.066
 1309POPC   GL220630  30.175  30.888   9.076
 1309POPC   C1A20631  29.824  30.608   8.654
 1309POPC   D2A20632  29.571  30.587   8.292
 1309POPC   C3A20633  29.777  30.523   7.908
 1309POPC   C4A20634  29.803  30.725   7.519
 1309POPC   C1B20635  30.062  31.073   8.685
 1309POPC   C2B20636  29.936  30.942   8.263
 1309POPC   C3B20637  30.155  30.892   7.846
 1309POPC   C4B20638  30.194  31.016   7.397
 1310POPC   NC320639   4.785  33.354   9.391
 1310POPC   PO420640   5.188  32.843   9.566
 1310POPC   GL120641   5.119  33.030   9.155
 1310POPC   GL220642   5.355  33.263   9.104
 1310POPC   C1A20643   5.022  33.210   8.727
 1310POPC   D2A20644   5.218  33.138   8.320
 1310POPC   C3A20645   5.137  32.806   8.008
 1310POPC   C4A20646   4.884  33.069   7.752
 1310POPC   C1B20647   5.538  33.102   8.760
 1310POPC   C2B20648   5.711  33.233   8.411
 1310POPC   C3B20649   5.588  33.397   8.089
 1310POPC   C4B20650   5.370  33.206   7.809
 1311POPC   NC320651   9.385  43.714   9.398
 1311POPC   PO420652   9.988  43.466   9.407
 1311POPC   GL120653   9.838  43.716   9.035
 1311POPC   GL220654   9.707  44.025   9.153
 1311POPC   C1A20655   9.961  44.068   8.711
 1311POPC   D2A20656  10.047  44.202   8.278
 1311POPC   C3A20657   9.968  43.831   8.022
 1311POPC   C4A20658   9.764  43.803   7.632
 1311POPC   C1B20659   9.438  43.953   8.777
 1311POPC   C2B20660   9.569  43.868   8.368
 1311POPC   C3B20661   9.361  43.823   8.005
 1311POPC   C4B20662   9.269  43.927   7.622
 1312POPC   NC320663  14.265  17.770   9.477
 1312POPC   PO420664  14.514  17.173   9.359
 1312POPC   GL120665  14.216  17.393   9.054
 1312POPC   GL220666  14.066  17.725   9.010
 1312POPC   C1A20667  14.219  17.453   8.573
 1312POPC   D2A20668  14.481  17.570   8.237
 1312POPC   C3A20669  14.328  17.489   7.828
 1312POPC   C4A20670  14.569  17.384   7.487
 1312POPC   C1B20671  14.453  17.862   8.751
 1312POPC   C2B20672  14.519  18.080   8.353
 1312POPC   C3B20673  14.606  17.988   7.931
 1312POPC   C4B20674  14.430  17.895   7.517
 1313POPC   NC320675   0.202  35.820   9.378
 1313POPC   PO420676  44.564  36.187   9.372
 1313POPC   GL120677  44.675  36.093   8.970
 1313POPC   GL220678  44.988  36.221   9.021
 1313POPC   C1A20679  44.618  36.266   8.553
 1313POPC   D2A20680  44.332  36.230   8.195
 1313POPC   C3A20681  44.521  35.949   7.931
 1313POPC   C4A20682  44.615  35.895   7.475
 1313POPC   C1B20683   0.097  35.884   8.723
 1313POPC   C2B20684   0.096  35.753   8.288
 1313POPC   C3B20685   0.026  35.927   7.866
 1313POPC   C4B20686  44.966  36.298   7.538
 1314POPC   NC320687  26.417  11.634   9.562
 1314POPC   PO420688  26.929  12.077   9.487
 1314POPC   GL120689  26.771  11.983   9.091
 1314POPC   GL220690  26.644  12.253   8.884
 1314POPC   C1A20691  26.838  11.774   8.714
 1314POPC   D2A20692  26.727  11.978   8.356
 1314POPC   C3A20693  26.844  11.811   7.979
 1314POPC   C4A20694  26.773  12.142   7.750
 1314POPC   C1B20695  27.035  12.270   8.637
 1314POPC   C2B20696  27.085  12.313   8.159
 1314POPC   C3B20697  27.201  12.385   7.712
 1314POPC   C4B20698  27.082  12.631   7.360
 1315POPC   NC320699   3.219  22.722   9.660
 1315POPC   PO420700   3.785  22.973   9.402
 1315POPC   GL120701   3.665  22.861   9.061
 1315POPC   GL220702   3.387  22.657   9.164
 1315POPC   C1A20703   3.748  23.013   8.668
 1315POPC   D2A20704   3.430  22.904   8.381
 1315POPC   C3A20705   3.390  23.053   7.986
 1315POPC   C4A20706   3.654  23.089   7.657
 1315POPC   C1B20707   3.493  22.502   8.729
 1315POPC   C2B20708   3.468  22.388   8.279
 1315POPC   C3B20709   3.614  22.586   7.870
 1315POPC   C4B20710   3.465  22.712   7.405
 1316POPC   NC320711  24.958  29.838   9.478
 1316POPC   PO420712  25.514  30.022   9.590
 1316POPC   GL120713  25.417  30.172   9.188
 1316POPC   GL220714  25.048  30.272   9.207
 1316POPC   C1A20715  25.624  30.123   8.766
 1316POPC   D2A20716  25.757  29.873   8.358
 1316POPC   C3A20717  25.625  29.799   7.907
 1316POPC   C4A20718  25.462  29.593   7.499
 1316POPC   C1B20719  25.074  30.032   8.813
 1316POPC   C2B20720  25.273  30.147   8.409
 1316POPC   C3B20721  25.381  30.277   8.018
 1316POPC   C4B20722  25.209  30.003   7.704
 1317POPC   NC320723   8.285   2.297   9.372
 1317POPC   PO420724   8.522   1.576   9.442
 1317POPC   GL120725   8.349   1.813   9.139
 1317POPC   GL220726   8.601   2.027   9.046
 1317POPC   C1A20727   8.218   1.910   8.720
 1317POPC   D2A20728   8.143   1.650   8.387
 1317POPC   C3A20729   8.075   1.833   8.010
 1317POPC   C4A20730   8.080   2.191   7.749
 1317POPC   C1B20731   8.653   2.177   8.599
 1317POPC   C2B20732   8.417   2.200   8.171
 1317POPC   C3B20733   8.518   1.915   7.787
 1317POPC   C4B20734   8.545   1.719   7.372
 1318POPC   NC320735  35.078  38.178   9.489
 1318POPC   PO420736  35.535  38.659   9.348
 1318POPC   GL120737  35.287  38.451   9.088
 1318POPC   GL220738  35.024  38.690   9.082
 1318POPC   C1A20739  35.472  38.385   8.715
 1318POPC   D2A20740  35.555  38.558   8.356
 1318POPC   C3A20741  35.630  38.260   8.041
 1318POPC   C4A20742  35.584  38.192   7.620
 1318POPC   C1B20743  35.002  38.568   8.639
 1318POPC   C2B20744  35.117  38.303   8.280
 1318POPC   C3B20745  35.156  38.305   7.817
 1318POPC   C4B20746  35.178  38.258   7.317
 1319POPC   NC320747  15.749  11.586   9.489
 1319POPC   PO420748  16.339  11.172   9.594
 1319POPC   GL120749  16.004  11.090   9.303
 1319POPC   GL220750  16.219  10.885   9.142
 1319POPC   C1A20751  15.888  11.279   8.875
 1319POPC   D2A20752  15.854  11.404   8.426
 1319POPC   C3A20753  15.812  11.362   7.990
 1319POPC   C4A20754  15.618  11.683   7.742
 1319POPC   C1B20755  16.330  11.052   8.770
 1319POPC   C2B20756  16.085  10.958   8.421
 1319POPC   C3B20757  16.223  11.048   8.009
 1319POPC   C4B20758  16.103  10.923   7.620
 1320POPC   NC320759  15.586  32.375   9.462
 1320POPC   PO420760  16.291  32.229   9.609
 1320POPC   GL120761  16.016  32.137   9.243
 1320POPC   GL220762  15.971  32.493   9.155
 1320POPC   C1A20763  16.096  32.180   8.776
 1320POPC   D2A20764  16.006  32.415   8.406
 1320POPC   C3A20765  16.047  32.140   8.063
 1320POPC   C4A20766  16.267  32.055   7.651
 1320POPC   C1B20767  15.667  32.438   8.808
 1320POPC   C2B20768  15.474  32.558   8.461
 1320POPC   C3B20769  15.634  32.543   8.046
 1320POPC   C4B20770  15.982  32.496   7.726
 1321POPC   NC320771  22.457  14.127   9.277
 1321POPC   PO420772  22.045  13.616   9.614
 1321POPC   GL120773  22.138  13.741   9.172
 1321POPC   GL220774  22.399  13.544   9.025
 1321POPC   C1A20775  22.190  13.865   8.702
 1321POPC   D2A20776  22.475  14.092   8.427
 1321POPC   C3A20777  22.393  14.023   7.981
 1321POPC   C4A20778  22.568  13.775   7.696
 1321POPC   C1B20779  22.574  13.498   8.650
 1321POPC   C2B20780  22.358  13.532   8.283
 1321POPC   C3B20781  22.367  13.350   7.889
 1321POPC   C4B20782  22.001  13.545   7.732
 1322POPC   NC320783  44.905  25.739   9.268
 1322POPC   PO420784  44.467  25.155   9.420
 1322POPC   GL120785  44.621  25.353   9.095
 1322POPC   GL220786  44.996  25.261   9.159
 1322POPC   C1A20787  44.593  25.503   8.684
 1322POPC   D2A20788  44.649  25.210   8.325
 1322POPC   C3A20789  44.350  25.162   8.013
 1322POPC   C4A20790  44.513  25.176   7.611
 1322POPC   C1B20791  44.944  25.135   8.736
 1322POPC   C2B20792   0.172  25.243   8.344
 1322POPC   C3B20793   0.030  25.187   7.923
 1322POPC   C4B20794  44.976  25.008   7.500
 1323POPC   NC320795  18.918  12.724  10.083
 1323POPC   PO420796  19.006  12.689   9.589
 1323POPC   GL120797  19.125  12.854   9.141
 1323POPC   GL220798  18.921  13.138   9.046
 1323POPC   C1A20799  19.134  12.838   8.659
 1323POPC   D2A20800  19.069  12.566   8.275
 1323POPC   C3A20801  19.302  12.656   7.880
 1323POPC   C4A20802  19.197  12.984   7.550
 1323POPC   C1B20803  18.646  12.990   8.710
 1323POPC   C2B20804  18.741  12.982   8.272
 1323POPC   C3B20805  18.804  12.798   7.859
 1323POPC   C4B20806  18.536  12.705   7.496
 1324POPC   NC320807  44.026  40.765   9.600
 1324POPC   PO420808  43.455  40.364   9.481
 1324POPC   GL120809  43.710  40.580   9.141
 1324POPC   GL220810  44.012  40.796   9.113
 1324POPC   C1A20811  43.839  40.628   8.685
 1324POPC   D2A20812  43.800  40.975   8.382
 1324POPC   C3A20813  43.686  40.866   7.926
 1324POPC   C4A20814  43.522  40.530   7.651
 1324POPC   C1B20815  44.089  41.110   8.825
 1324POPC   C2B20816  44.303  41.067   8.456
 1324POPC   C3B20817  44.171  40.985   8.049
 1324POPC   C4B20818  44.201  41.184   7.698
 1325POPC   NC320819   9.246  24.791   9.497
 1325POPC   PO420820   8.804  24.264   9.301
 1325POPC   GL120821   8.733  24.553   9.026
 1325POPC   GL220822   9.060  24.676   9.034
 1325POPC   C1A20823   8.910  24.365   8.642
 1325POPC   D2A20824   9.138  24.207   8.300
 1325POPC   C3A20825   8.917  24.327   7.942
 1325POPC   C4A20826   8.726  24.156   7.607
 1325POPC   C1B20827   8.872  24.883   8.660
 1325POPC   C2B20828   8.876  24.730   8.257
 1325POPC   C3B20829   9.174  24.760   7.917
 1325POPC   C4B20830   8.937  24.836   7.539
 1326POPC   NC320831  13.006  44.653   9.652
 1326POPC   PO420832  12.777   0.113   9.234
 1326POPC   GL120833  13.052  44.796   9.122
 1326POPC   GL220834  12.846  44.536   9.190
 1326POPC   C1A20835  13.191  44.720   8.703
 1326POPC   D2A20836  12.947  44.911   8.349
 1326POPC   C3A20837  13.048  44.728   7.951
 1326POPC   C4A20838  12.981  44.333   7.711
 1326POPC   C1B20839  12.696  44.602   8.784
 1326POPC   C2B20840  12.613  44.519   8.376
 1326POPC   C3B20841  12.439  44.771   8.099
 1326POPC   C4B20842  12.588  44.763   7.716
 1327POPC   NC320843  27.051  14.014   9.504
 1327POPC   PO420844  27.605  13.494   9.607
 1327POPC   GL120845  27.770  13.489   9.178
 1327POPC   GL220846  28.108  13.327   9.190
 1327POPC   C1A20847  27.598  13.606   8.760
 1327POPC   D2A20848  27.272  13.542   8.441
 1327POPC   C3A20849  27.432  13.613   8.036
 1327POPC   C4A20850  27.365  13.417   7.681
 1327POPC   C1B20851  27.998  13.280   8.754
 1327POPC   C2B20852  27.864  13.454   8.348
 1327POPC   C3B20853  27.817  13.262   7.949
 1327POPC   C4B20854  27.859  13.608   7.725
 1328POPC   NC320855   9.803  24.252   9.749
 1328POPC   PO420856   9.558  23.635   9.488
 1328POPC   GL120857   9.671  23.561   9.096
 1328POPC   GL220858  10.020  23.549   9.158
 1328POPC   C1A20859   9.616  23.787   8.702
 1328POPC   D2A20860   9.683  23.565   8.332
 1328POPC   C3A20861   9.424  23.659   8.002
 1328POPC   C4A20862   9.295  24.017   7.816
 1328POPC   C1B20863  10.113  23.599   8.708
 1328POPC   C2B20864  10.023  23.947   8.396
 1328POPC   C3B20865   9.810  24.011   8.022
 1328POPC   C4B20866   9.920  23.640   7.770
 1329POPC   NC320867  16.969  10.105   9.246
 1329POPC   PO420868  16.512  10.242   9.780
 1329POPC   GL120869  16.470  10.020   9.299
 1329POPC   GL220870  16.540   9.664   9.211
 1329POPC   C1A20871  16.517   9.978   8.793
 1329POPC   D2A20872  16.865   9.734   8.554
 1329POPC   C3A20873  16.833   9.628   8.077
 1329POPC   C4A20874  16.682   9.910   7.783
 1329POPC   C1B20875  16.462   9.450   8.788
 1329POPC   C2B20876  16.408   9.608   8.353
 1329POPC   C3B20877  16.327   9.573   7.902
 1329POPC   C4B20878  16.541   9.338   7.595
 1330POPC   NC320879   2.503  11.892   9.578
 1330POPC   PO420880   3.070  12.278   9.546
 1330POPC   GL120881   2.884  12.127   9.147
 1330POPC   GL220882   2.549  12.147   9.132
 1330POPC   C1A20883   2.808  12.148   8.679
 1330POPC   D2A20884   2.562  12.291   8.334
 1330POPC   C3A20885   2.668  12.221   7.897
 1330POPC   C4A20886   3.083  12.387   7.753
 1330POPC   C1B20887   2.450  11.803   8.815
 1330POPC   C2B20888   2.543  11.779   8.360
 1330POPC   C3B20889   2.443  11.711   7.946
 1330POPC   C4B20890   2.457  11.778   7.502
 1331POPC   NC320891  37.252  30.399   9.459
 1331POPC   PO420892  37.773  30.874   9.416
 1331POPC   GL120893  37.788  30.527   9.101
 1331POPC   GL220894  37.445  30.414   8.949
 1331POPC   C1A20895  37.922  30.572   8.674
 1331POPC   D2A20896  37.698  30.725   8.316
 1331POPC   C3A20897  37.760  30.464   7.993
 1331POPC   C4A20898  38.114  30.566   7.827
 1331POPC   C1B20899  37.519  30.864   8.800
 1331POPC   C2B20900  37.416  31.135   8.453
 1331POPC   C3B20901  37.299  31.235   8.053
 1331POPC   C4B20902  37.383  31.023   7.686
 1332POPC   NC320903  14.071  25.594   9.212
 1332POPC   PO420904  14.043  24.969   9.438
 1332POPC   GL120905  14.329  25.141   9.131
 1332POPC   GL220906  14.599  25.346   9.154
 1332POPC   C1A20907  14.383  25.362   8.696
 1332POPC   D2A20908  14.428  25.141   8.290
 1332POPC   C3A20909  14.302  25.350   7.896
 1332POPC   C4A20910  13.964  25.194   7.688
 1332POPC   C1B20911  14.749  25.028   8.839
 1332POPC   C2B20912  14.778  24.790   8.498
 1332POPC   C3B20913  14.897  24.780   8.077
 1332POPC   C4B20914  14.707  25.065   7.840
 1333POPC   NC320915  15.371  44.025   9.586
 1333POPC   PO420916  15.439  43.337   9.621
 1333POPC   GL120917  15.330  43.614   9.242
 1333POPC   GL220918  15.563  43.895   9.150
 1333POPC   C1A20919  15.096  43.759   8.877
 1333POPC   D2A20920  14.908  43.613   8.488
 1333POPC   C3A20921  15.042  43.812   8.089
 1333POPC   C4A20922  14.946  43.862   7.686
 1333POPC   C1B20923  15.627  43.724   8.779
 1333POPC   C2B20924  15.387  43.790   8.443
 1333POPC   C3B20925  15.542  43.823   8.032
 1333POPC   C4B20926  15.482  43.836   7.621
 1334POPC   NC320927  30.452  26.389   9.498
 1334POPC   PO420928  31.059  26.043   9.379
 1334POPC   GL120929  30.683  26.004   9.100
 1334POPC   GL220930  30.402  26.213   9.030
 1334POPC   C1A20931  30.530  25.837   8.722
 1334POPC   D2A20932  30.720  25.911   8.347
 1334POPC   C3A20933  30.748  26.140   7.986
 1334POPC   C4A20934  30.840  25.881   7.617
 1334POPC   C1B20935  30.592  26.342   8.647
 1334POPC   C2B20936  30.396  26.454   8.282
 1334POPC   C3B20937  30.277  26.317   7.890
 1334POPC   C4B20938  30.580  26.544   7.660
 1335POPC   NC320939  16.985  31.181   9.361
 1335POPC   PO420940  16.714  31.804   9.491
 1335POPC   GL120941  16.898  31.703   9.098
 1335POPC   GL220942  16.638  31.473   9.051
 1335POPC   C1A20943  16.944  31.645   8.658
 1335POPC   D2A20944  16.546  31.587   8.504
 1335POPC   C3A20945  16.614  31.324   8.225
 1335POPC   C4A20946  17.031  31.444   8.093
 1335POPC   C1B20947  16.233  31.700   8.894
 1335POPC   C2B20948  16.078  31.782   8.441
 1335POPC   C3B20949  16.348  31.732   8.043
 1335POPC   C4B20950  16.648  31.489   7.754
 1336POPC   NC320951  36.293  14.850   9.433
 1336POPC   PO420952  35.815  15.246   9.708
 1336POPC   GL120953  35.901  15.377   9.213
 1336POPC   GL220954  36.258  15.296   9.164
 1336POPC   C1A20955  35.930  15.223   8.729
 1336POPC   D2A20956  35.789  15.028   8.316
 1336POPC   C3A20957  35.708  15.324   7.958
 1336POPC   C4A20958  36.012  15.237   7.633
 1336POPC   C1B20959  36.497  15.308   8.809
 1336POPC   C2B20960  36.340  15.430   8.458
 1336POPC   C3B20961  36.196  15.361   8.103
 1336POPC   C4B20962  36.457  15.151   7.866
 1337POPC   NC320963   2.675  26.937   9.416
 1337POPC   PO420964   2.251  26.608   9.678
 1337POPC   GL120965   2.614  26.493   9.225
 1337POPC   GL220966   2.986  26.619   9.121
 1337POPC   C1A20967   2.654  26.627   8.733
 1337POPC   D2A20968   2.881  26.755   8.308
 1337POPC   C3A20969   2.836  26.764   7.842
 1337POPC   C4A20970   2.491  26.687   7.556
 1337POPC   C1B20971   3.126  26.873   8.742
 1337POPC   C2B20972   3.272  27.106   8.353
 1337POPC   C3B20973   3.136  27.202   7.898
 1337POPC   C4B20974   3.110  27.231   7.415
 1338POPC   NC320975   4.848  10.998   9.445
 1338POPC   PO420976   4.925  10.336   9.639
 1338POPC   GL120977   4.977  10.295   9.193
 1338POPC   GL220978   5.051  10.658   9.079
 1338POPC   C1A20979   5.056  10.248   8.781
 1338POPC   D2A20980   4.987  10.597   8.514
 1338POPC   C3A20981   4.919  10.545   8.072
 1338POPC   C4A20982   4.885  10.750   7.659
 1338POPC   C1B20983   5.291  10.931   8.778
 1338POPC   C2B20984   5.422  10.842   8.368
 1338POPC   C3B20985   5.260  10.908   7.969
 1338POPC   C4B20986   5.397  10.791   7.529
 1339POPC   NC320987  25.897   6.366   9.283
 1339POPC   PO420988  25.922   6.986   9.451
 1339POPC   GL120989  26.009   6.846   9.073
 1339POPC   GL220990  26.339   6.779   9.137
 1339POPC   C1A20991  26.031   6.647   8.689
 1339POPC   D2A20992  25.808   6.857   8.379
 1339POPC   C3A20993  25.959   6.758   8.019
 1339POPC   C4A20994  26.025   6.482   7.693
 1339POPC   C1B20995  26.416   6.976   8.721
 1339POPC   C2B20996  26.406   6.827   8.272
 1339POPC   C3B20997  26.393   6.861   7.787
 1339POPC   C4B20998  26.589   7.072   7.433
 1340POPC   NC320999  24.543   9.435   9.635
 1340POPC   PO421000  24.196   8.882   9.500
 1340POPC   GL121001  24.465   9.048   9.183
 1340POPC   GL221002  24.663   8.758   9.143
 1340POPC   C1A21003  24.400   8.920   8.728
 1340POPC   D2A21004  24.212   9.056   8.364
 1340POPC   C3A21005  24.230   8.839   8.017
 1340POPC   C4A21006  24.164   8.703   7.630
 1340POPC   C1B21007  24.879   8.767   8.748
 1340POPC   C2B21008  24.745   8.994   8.340
 1340POPC   C3B21009  24.725   8.793   7.943
 1340POPC   C4B21010  24.637   8.882   7.516
 1341POPC   NC321011  33.284  43.412   9.616
 1341POPC   PO421012  32.890  42.899   9.482
 1341POPC   GL121013  32.920  43.219   9.167
 1341POPC   GL221014  33.240  43.390   9.118
 1341POPC   C1A21015  33.008  43.178   8.713
 1341POPC   D2A21016  32.747  42.995   8.398
 1341POPC   C3A21017  32.794  43.250   8.117
 1341POPC   C4A21018  32.891  43.193   7.768
 1341POPC   C1B21019  33.310  43.634   8.741
 1341POPC   C2B21020  33.146  43.571   8.354
 1341POPC   C3B21021  33.233  43.520   7.945
 1341POPC   C4B21022  33.295  43.368   7.547
 1342POPC   NC321023   1.856  19.751   9.562
 1342POPC   PO421024   1.534  20.297   9.363
 1342POPC   GL121025   1.814  20.053   9.135
 1342POPC   GL221026   2.136  20.188   9.123
 1342POPC   C1A21027   1.935  19.823   8.765
 1342POPC   D2A21028   1.776  19.927   8.362
 1342POPC   C3A21029   1.959  19.733   7.951
 1342POPC   C4A21030   2.310  19.728   7.618
 1342POPC   C1B21031   2.373  20.129   8.743
 1342POPC   C2B21032   2.307  19.900   8.379
 1342POPC   C3B21033   2.328  20.087   7.977
 1342POPC   C4B21034   2.420  20.233   7.596
 1343POPC   NC321035  13.719  26.824   9.690
 1343POPC   PO421036  13.230  26.373   9.700
 1343POPC   GL121037  13.442  26.406   9.264
 1343POPC   GL221038  13.778  26.619   9.228
 1343POPC   C1A21039  13.477  26.564   8.822
 1343POPC   D2A21040  13.547  26.856   8.498
 1343POPC   C3A21041  13.484  26.667   8.109
 1343POPC   C4A21042  13.188  26.786   7.828
 1343POPC   C1B21043  13.927  26.899   8.856
 1343POPC   C2B21044  13.919  27.178   8.439
 1343POPC   C3B21045  13.839  27.047   8.039
 1343POPC   C4B21046  13.668  26.899   7.677
 1344POPC   NC321047   9.356  17.271   9.543
 1344POPC   PO421048  10.006  17.481   9.504
 1344POPC   GL121049   9.726  17.421   9.219
 1344POPC   GL221050   9.783  17.743   9.028
 1344POPC   C1A21051   9.574  17.314   8.845
 1344POPC   D2A21052   9.642  17.665   8.512
 1344POPC   C3A21053   9.652  17.538   8.067
 1344POPC   C4A21054   9.482  17.590   7.646
 1344POPC   C1B21055  10.044  17.446   8.762
 1344POPC   C2B21056  10.165  17.507   8.367
 1344POPC   C3B21057  10.127  17.287   8.014
 1344POPC   C4B21058  10.153  17.392   7.596
 1345POPC   NC321059  14.569  10.536   9.474
 1345POPC   PO421060  13.963  10.366   9.555
 1345POPC   GL121061  14.138  10.465   9.145
 1345POPC   GL221062  14.272  10.787   9.139
 1345POPC   C1A21063  14.293  10.499   8.702
 1345POPC   D2A21064  14.548  10.313   8.377
 1345POPC   C3A21065  14.549  10.425   7.942
 1345POPC   C4A21066  14.220  10.427   7.643
 1345POPC   C1B21067  13.965  10.878   8.782
 1345POPC   C2B21068  14.007  10.728   8.320
 1345POPC   C3B21069  14.055  10.872   7.871
 1345POPC   C4B21070  14.080  10.854   7.414
 1346POPC   NC321071  22.753   7.071   9.313
 1346POPC   PO421072  23.257   7.601   9.414
 1346POPC   GL121073  23.034   7.447   9.080
 1346POPC   GL221074  23.172   7.128   9.027
 1346POPC   C1A21075  22.771   7.616   8.758
 1346POPC   D2A21076  22.435   7.578   8.449
 1346POPC   C3A21077  22.579   7.754   8.097
 1346POPC   C4A21078  22.673   7.483   7.777
 1346POPC   C1B21079  23.157   7.300   8.608
 1346POPC   C2B21080  22.924   7.349   8.229
 1346POPC   C3B21081  23.138   7.277   7.843
 1346POPC   C4B21082  23.226   7.011   7.494
 1347POPC   NC321083  41.318  33.718   9.666
 1347POPC   PO421084  40.635  33.718   9.500
 1347POPC   GL121085  40.924  33.956   9.173
 1347POPC   GL221086  41.268  33.815   9.128
 1347POPC   C1A21087  41.039  34.017   8.706
 1347POPC   D2A21088  40.851  34.034   8.314
 1347POPC   C3A21089  40.775  33.632   8.147
 1347POPC   C4A21090  40.726  33.640   7.731
 1347POPC   C1B21091  41.395  33.620   8.740
 1347POPC   C2B21092  41.251  33.551   8.311
 1347POPC   C3B21093  41.213  33.833   7.942
 1347POPC   C4B21094  41.131  33.852   7.474
 1348POPC   NC321095  20.741  23.544   9.510
 1348POPC   PO421096  20.416  24.046   9.799
 1348POPC   GL121097  20.312  23.899   9.335
 1348POPC   GL221098  20.267  23.543   9.212
 1348POPC   C1A21099  20.296  23.946   8.869
 1348POPC   D2A21100  20.314  24.097   8.432
 1348POPC   C3A21101  20.322  23.905   8.020
 1348POPC   C4A21102  20.272  23.680   7.635
 1348POPC   C1B21103  20.506  23.487   8.806
 1348POPC   C2B21104  20.616  23.625   8.360
 1348POPC   C3B21105  20.659  23.466   7.908
 1348POPC   C4B21106  20.723  23.562   7.452
 1349POPC   NC321107   9.520   0.315   9.574
 1349POPC   PO421108  10.146   0.225   9.375
 1349POPC   GL121109   9.825   0.454   9.161
 1349POPC   GL221110   9.557   0.252   9.081
 1349POPC   C1A21111   9.579   0.674   8.832
 1349POPC   D2A21112   9.577   0.512   8.447
 1349POPC   C3A21113   9.797   0.720   8.109
 1349POPC   C4A21114   9.820   0.635   7.694
 1349POPC   C1B21115   9.825   0.086   8.782
 1349POPC   C2B21116   9.702  44.933   8.389
 1349POPC   C3B21117   9.663   0.199   8.046
 1349POPC   C4B21118   9.312   0.320   7.826
 1350POPC   NC321119  40.674  11.523   9.532
 1350POPC   PO421120  40.831  10.886   9.426
 1350POPC   GL121121  40.821  11.245   9.126
 1350POPC   GL221122  40.495  11.416   9.059
 1350POPC   C1A21123  40.895  11.434   8.698
 1350POPC   D2A21124  40.671  11.325   8.298
 1350POPC   C3A21125  40.842  11.353   7.863
 1350POPC   C4A21126  40.942  11.106   7.500
 1350POPC   C1B21127  40.420  11.651   8.668
 1350POPC   C2B21128  40.372  11.732   8.206
 1350POPC   C3B21129  40.369  11.666   7.751
 1350POPC   C4B21130  40.514  11.743   7.308
 1351POPC   NC321131  30.094   7.578   9.676
 1351POPC   PO421132  29.493   7.274   9.615
 1351POPC   GL121133  29.773   7.425   9.276
 1351POPC   GL221134  30.116   7.350   9.170
 1351POPC   C1A21135  29.654   7.507   8.847
 1351POPC   D2A21136  29.599   7.753   8.467
 1351POPC   C3A21137  29.832   7.591   8.103
 1351POPC   C4A21138  29.779   7.533   7.672
 1351POPC   C1B21139  30.141   7.559   8.741
 1351POPC   C2B21140  30.319   7.522   8.318
 1351POPC   C3B21141  30.337   7.474   7.875
 1351POPC   C4B21142  30.226   7.460   7.442
 1352POPC   NC321143  38.723  34.027   9.380
 1352POPC   PO421144  38.292  33.622   9.699
 1352POPC   GL121145  38.304  33.684   9.256
 1352POPC   GL221146  38.588  33.692   9.042
 1352POPC   C1A21147  38.120  33.566   8.845
 1352POPC   D2A21148  37.963  33.596   8.428
 1352POPC   C3A21149  38.281  33.772   8.133
 1352POPC   C4A21150  38.259  33.653   7.717
 1352POPC   C1B21151  38.549  33.794   8.595
 1352POPC   C2B21152  38.766  34.012   8.254
 1352POPC   C3B21153  38.767  34.274   7.880
 1352POPC   C4B21154  38.746  34.137   7.384
 1353POPC   NC321155   2.820  28.841   9.326
 1353POPC   PO421156   2.493  29.386   9.484
 1353POPC   GL121157   2.687  29.396   9.136
 1353POPC   GL221158   3.023  29.319   9.165
 1353POPC   C1A21159   2.649  29.243   8.734
 1353POPC   D2A21160   2.526  29.296   8.307
 1353POPC   C3A21161   2.766  29.116   8.021
 1353POPC   C4A21162   2.766  28.974   7.611
 1353POPC   C1B21163   2.990  29.618   8.818
 1353POPC   C2B21164   3.024  29.735   8.415
 1353POPC   C3B21165   2.891  29.603   8.026
 1353POPC   C4B21166   3.075  29.383   7.716
 1354POPC   NC321167  43.142   0.104   9.436
 1354POPC   PO421168  42.863  44.553   9.409
 1354POPC   GL121169  43.214  44.490   9.122
 1354POPC   GL221170  43.267  44.806   9.051
 1354POPC   C1A21171  43.216  44.402   8.666
 1354POPC   D2A21172  42.906  44.354   8.322
 1354POPC   C3A21173  43.050  44.485   7.928
 1354POPC   C4A21174  43.003  44.525   7.487
 1354POPC   C1B21175  43.104   0.082   8.776
 1354POPC   C2B21176  43.093  44.857   8.402
 1354POPC   C3B21177  42.938  44.965   8.031
 1354POPC   C4B21178  43.214  44.944   7.704
 1355POPC   NC321179  28.840   6.408   9.283
 1355POPC   PO421180  29.425   6.617   9.501
 1355POPC   GL121181  29.244   6.722   9.089
 1355POPC   GL221182  28.934   6.881   9.055
 1355POPC   C1A21183  29.142   6.676   8.637
 1355POPC   D2A21184  28.836   6.505   8.367
 1355POPC   C3A21185  28.941   6.541   7.933
 1355POPC   C4A21186  29.346   6.648   7.784
 1355POPC   C1B21187  28.865   7.100   8.684
 1355POPC   C2B21188  28.974   6.986   8.254
 1355POPC   C3B21189  28.994   7.035   7.826
 1355POPC   C4B21190  29.039   7.119   7.412
 1356POPC   NC321191   3.871   8.755   9.349
 1356POPC   PO421192   3.519   9.272   9.563
 1356POPC   GL121193   3.620   9.146   9.131
 1356POPC   GL221194   3.978   9.029   8.937
 1356POPC   C1A21195   3.295   9.136   8.789
 1356POPC   D2A21196   3.255   9.369   8.408
 1356POPC   C3A21197   3.428   9.194   8.052
 1356POPC   C4A21198   3.840   9.176   7.833
 1356POPC   C1B21199   3.682   8.820   8.696
 1356POPC   C2B21200   3.465   8.722   8.361
 1356POPC   C3B21201   3.670   8.734   8.001
 1356POPC   C4B21202   3.506   8.678   7.600
 1357POPC   NC321203  21.616  11.751   9.389
 1357POPC   PO421204  21.255  11.167   9.581
 1357POPC   GL121205  21.200  11.415   9.239
 1357POPC   GL221206  21.519  11.285   9.106
 1357POPC   C1A21207  21.206  11.557   8.814
 1357POPC   D2A21208  21.356  11.640   8.406
 1357POPC   C3A21209  21.021  11.545   8.173
 1357POPC   C4A21210  21.097  11.554   7.759
 1357POPC   C1B21211  21.609  11.277   8.650
 1357POPC   C2B21212  21.493  11.201   8.202
 1357POPC   C3B21213  21.443  11.173   7.787
 1357POPC   C4B21214  21.521  10.967   7.430
 1358POPC   NC321215  24.035  29.859   9.837
 1358POPC   PO421216  24.654  30.180   9.581
 1358POPC   GL121217  24.545  30.088   9.180
 1358POPC   GL221218  24.285  30.308   9.077
 1358POPC   C1A21219  24.412  29.942   8.747
 1358POPC   D2A21220  24.466  29.768   8.322
 1358POPC   C3A21221  24.324  29.881   7.895
 1358POPC   C4A21222  24.424  29.782   7.438
 1358POPC   C1B21223  24.682  30.370   8.797
 1358POPC   C2B21224  24.755  30.194   8.431
 1358POPC   C3B21225  24.857  30.027   8.078
 1358POPC   C4B21226  24.711  30.158   7.718
 1359POPC   NC321227  38.693  33.281   9.657
 1359POPC   PO421228  38.452  32.662   9.469
 1359POPC   GL121229  38.589  32.849   9.120
 1359POPC   GL221230  38.476  33.189   9.186
 1359POPC   C1A21231  38.546  32.867   8.668
 1359POPC   D2A21232  38.243  33.172   8.488
 1359POPC   C3A21233  38.299  33.253   8.065
 1359POPC   C4A21234  38.416  32.922   7.821
 1359POPC   C1B21235  38.770  33.274   8.863
 1359POPC   C2B21236  38.725  33.336   8.438
 1359POPC   C3B21237  38.744  33.527   8.048
 1359POPC   C4B21238  38.680  33.347   7.641
 1360POPC   NC321239  44.994  17.274   9.544
 1360POPC   PO421240  44.492  17.745   9.522
 1360POPC   GL121241  44.679  17.754   9.136
 1360POPC   GL221242  44.899  17.504   9.080
 1360POPC   C1A21243  44.581  17.641   8.690
 1360POPC   D2A21244  44.447  17.500   8.268
 1360POPC   C3A21245  44.536  17.692   7.851
 1360POPC   C4A21246  44.641  17.529   7.430
 1360POPC   C1B21247   0.051  17.421   8.640
 1360POPC   C2B21248  44.948  17.579   8.210
 1360POPC   C3B21249  44.811  17.275   7.865
 1360POPC   C4B21250  44.977  17.116   7.474
 1361POPC   NC321251   0.588  33.306   9.465
 1361POPC   PO421252   0.423  33.919   9.505
 1361POPC   GL121253   0.417  33.844   9.119
 1361POPC   GL221254   0.100  33.640   9.117
 1361POPC   C1A21255   0.238  34.065   8.792
 1361POPC   D2A21256   0.087  33.987   8.388
 1361POPC   C3A21257   0.291  33.686   8.105
 1361POPC   C4A21258   0.269  33.855   7.680
 1361POPC   C1B21259   0.294  33.579   8.689
 1361POPC   C2B21260   0.665  33.469   8.481
 1361POPC   C3B21261   0.785  33.365   8.091
 1361POPC   C4B21262   0.614  33.502   7.709
 1362POPC   NC321263  13.992  11.901   9.542
 1362POPC   PO421264  14.649  12.060   9.664
 1362POPC   GL121265  14.436  12.119   9.169
 1362POPC   GL221266  14.625  12.368   8.909
 1362POPC   C1A21267  14.213  12.053   8.728
 1362POPC   D2A21268  14.333  12.272   8.365
 1362POPC   C3A21269  14.290  12.104   7.970
 1362POPC   C4A21270  14.228  12.165   7.513
 1362POPC   C1B21271  14.714  12.010   8.699
 1362POPC   C2B21272  14.644  11.848   8.299
 1362POPC   C3B21273  14.819  12.066   7.991
 1362POPC   C4B21274  14.692  12.217   7.657
 1363POPC   NC321275  39.683  24.814   9.348
 1363POPC   PO421276  40.360  24.512   9.479
 1363POPC   GL121277  40.063  24.539   9.111
 1363POPC   GL221278  40.200  24.670   8.810
 1363POPC   C1A21279  39.774  24.403   8.742
 1363POPC   D2A21280  39.574  24.252   8.332
 1363POPC   C3A21281  39.836  24.401   8.060
 1363POPC   C4A21282  39.747  24.739   7.802
 1363POPC   C1B21283  40.283  24.274   8.660
 1363POPC   C2B21284  40.038  24.007   8.389
 1363POPC   C3B21285  40.171  24.018   7.954
 1363POPC   C4B21286  40.252  24.423   7.750
 1364POPC   NC321287  41.818  38.773   9.325
 1364POPC   PO421288  41.504  38.402   9.829
 1364POPC   GL121289  41.466  38.393   9.365
 1364POPC   GL221290  41.734  38.191   9.256
 1364POPC   C1A21291  41.303  38.532   8.943
 1364POPC   D2A21292  41.292  38.486   8.473
 1364POPC   C3A21293  41.240  38.178   8.117
 1364POPC   C4A21294  41.408  38.328   7.698
 1364POPC   C1B21295  41.592  38.127   8.850
 1364POPC   C2B21296  41.638  38.077   8.434
 1364POPC   C3B21297  41.714  38.378   8.109
 1364POPC   C4B21298  41.955  38.291   7.750
 1365POPC   NC321299  18.822  40.825   9.456
 1365POPC   PO421300  19.535  40.712   9.470
 1365POPC   GL121301  19.295  40.889   9.164
 1365POPC   GL221302  19.080  40.606   9.091
 1365POPC   C1A21303  19.110  41.032   8.787
 1365POPC   D2A21304  18.913  41.169   8.425
 1365POPC   C3A21305  19.079  40.937   8.089
 1365POPC   C4A21306  18.926  40.818   7.665
 1365POPC   C1B21307  18.936  40.468   8.674
 1365POPC   C2B21308  18.822  40.533   8.262
 1365POPC   C3B21309  19.024  40.408   7.917
 1365POPC   C4B21310  19.217  40.370   7.501
 1366POPC   NC321311  20.776  27.566   9.444
 1366POPC   PO421312  20.222  27.150   9.621
 1366POPC   GL121313  20.354  27.367   9.181
 1366POPC   GL221314  20.381  27.738   9.151
 1366POPC   C1A21315  20.334  27.402   8.706
 1366POPC   D2A21316  20.634  27.558   8.349
 1366POPC   C3A21317  20.712  27.361   7.935
 1366POPC   C4A21318  20.548  27.082   7.615
 1366POPC   C1B21319  20.488  27.893   8.754
 1366POPC   C2B21320  20.344  27.966   8.330
 1366POPC   C3B21321  20.492  27.832   7.885
 1366POPC   C4B21322  20.299  27.890   7.457
 1367POPC   NC321323  37.618  21.191   9.958
 1367POPC   PO421324  37.845  21.692   9.589
 1367POPC   GL121325  37.760  21.537   9.152
 1367POPC   GL221326  37.648  21.172   9.073
 1367POPC   C1A21327  37.492  21.640   8.778
 1367POPC   D2A21328  37.277  21.705   8.389
 1367POPC   C3A21329  37.435  21.390   8.128
 1367POPC   C4A21330  37.592  21.216   7.787
 1367POPC   C1B21331  37.677  21.157   8.602
 1367POPC   C2B21332  37.849  21.519   8.419
 1367POPC   C3B21333  38.010  21.469   8.043
 1367POPC   C4B21334  38.017  21.595   7.656
 1368POPC   NC321335  42.679   4.059   9.513
 1368POPC   PO421336  42.058   4.304   9.460
 1368POPC   GL121337  42.311   4.173   9.160
 1368POPC   GL221338  42.241   4.440   8.960
 1368POPC   C1A21339  42.523   4.024   8.800
 1368POPC   D2A21340  42.346   3.972   8.391
 1368POPC   C3A21341  42.379   4.264   8.069
 1368POPC   C4A21342  42.245   4.246   7.640
 1368POPC   C1B21343  41.983   4.330   8.609
 1368POPC   C2B21344  41.914   4.474   8.187
 1368POPC   C3B21345  42.161   4.689   7.875
 1368POPC   C4B21346  42.209   4.713   7.395
 1369POPC   NC321347  26.114  33.108   9.377
 1369POPC   PO421348  25.702  32.599   9.355
 1369POPC   GL121349  25.896  32.799   9.057
 1369POPC   GL221350  25.686  33.074   9.061
 1369POPC   C1A21351  26.058  32.957   8.676
 1369POPC   D2A21352  26.319  32.806   8.349
 1369POPC   C3A21353  26.155  32.818   7.938
 1369POPC   C4A21354  26.021  33.177   7.711
 1369POPC   C1B21355  25.575  32.815   8.682
 1369POPC   C2B21356  25.741  32.764   8.273
 1369POPC   C3B21357  25.649  32.831   7.831
 1369POPC   C4B21358  25.750  32.750   7.393
 1370POPC   NC321359  21.684  10.989   9.505
 1370POPC   PO421360  21.796  10.366   9.323
 1370POPC   GL121361  21.419  10.412   9.131
 1370POPC   GL221362  21.413  10.765   9.131
 1370POPC   C1A21363  21.213  10.305   8.762
 1370POPC   D2A21364  21.358  10.135   8.380
 1370POPC   C3A21365  21.291  10.306   7.950
 1370POPC   C4A21366  21.161  10.677   7.696
 1370POPC   C1B21367  21.430  10.772   8.692
 1370POPC   C2B21368  21.364  10.688   8.273
 1370POPC   C3B21369  21.624  10.709   7.906
 1370POPC   C4B21370  21.968  10.711   7.612
 1371POPC   NC321371  41.750  20.226   9.450
 1371POPC   PO421372  41.483  19.646   9.514
 1371POPC   GL121373  41.410  19.552   9.068
 1371POPC   GL221374  41.267  19.882   8.984
 1371POPC   C1A21375  41.429  19.627   8.596
 1371POPC   D2A21376  41.494  19.946   8.322
 1371POPC   C3A21377  41.711  19.710   8.046
 1371POPC   C4A21378  41.605  19.629   7.648
 1371POPC   C1B21379  41.727  19.930   8.846
 1371POPC   C2B21380  42.002  19.876   8.487
 1371POPC   C3B21381  41.949  20.146   8.130
 1371POPC   C4B21382  41.882  20.044   7.701
 1372POPC   NC321383  44.095  29.101   9.508
 1372POPC   PO421384  43.580  29.516   9.587
 1372POPC   GL121385  43.790  29.407   9.162
 1372POPC   GL221386  43.750  29.054   9.069
 1372POPC   C1A21387  44.059  29.345   8.760
 1372POPC   D2A21388  44.086  29.255   8.298
 1372POPC   C3A21389  43.756  29.016   8.063
 1372POPC   C4A21390  43.567  29.005   7.649
 1372POPC   C1B21391  43.854  28.876   8.641
 1372POPC   C2B21392  44.123  28.747   8.298
 1372POPC   C3B21393  44.286  28.970   7.923
 1372POPC   C4B21394  44.317  28.851   7.480
 1373POPC   NC321395  16.606  25.400   9.533
 1373POPC   PO421396  17.115  25.423   9.855
 1373POPC   GL121397  17.068  25.411   9.346
 1373POPC   GL221398  17.108  25.097   9.228
 1373POPC   C1A21399  16.807  25.384   8.918
 1373POPC   D2A21400  16.671  25.144   8.551
 1373POPC   C3A21401  16.584  25.409   8.179
 1373POPC   C4A21402  16.448  25.291   7.738
 1373POPC   C1B21403  17.012  24.885   8.844
 1373POPC   C2B21404  17.106  24.858   8.429
 1373POPC   C3B21405  16.887  25.008   8.093
 1373POPC   C4B21406  16.858  25.025   7.678
 1374POPC   NC321407  28.215  16.869   9.455
 1374POPC   PO421408  28.548  16.180   9.517
 1374POPC   GL121409  28.558  16.437   9.185
 1374POPC   GL221410  28.212  16.421   9.185
 1374POPC   C1A21411  28.604  16.620   8.772
 1374POPC   D2A21412  28.398  16.915   8.506
 1374POPC   C3A21413  28.451  16.797   8.102
 1374POPC   C4A21414  28.428  16.534   7.761
 1374POPC   C1B21415  28.072  16.573   8.791
 1374POPC   C2B21416  27.858  16.500   8.405
 1374POPC   C3B21417  27.959  16.642   8.028
 1374POPC   C4B21418  27.924  16.444   7.670
 1375POPC   NC321419  18.567  31.052   9.482
 1375POPC   PO421420  18.334  31.718   9.444
 1375POPC   GL121421  18.307  31.374   9.155
 1375POPC   GL221422  17.997  31.198   9.073
 1375POPC   C1A21423  18.352  31.366   8.719
 1375POPC   D2A21424  18.191  31.617   8.363
 1375POPC   C3A21425  18.401  31.713   7.996
 1375POPC   C4A21426  18.459  31.605   7.574
 1375POPC   C1B21427  17.842  31.403   8.679
 1375POPC   C2B21428  17.797  31.316   8.258
 1375POPC   C3B21429  18.054  31.341   7.850
 1375POPC   C4B21430  18.063  31.384   7.355
 1376POPC   NC321431  39.397  17.265   9.465
 1376POPC   PO421432  38.925  17.723   9.587
 1376POPC   GL121433  39.122  17.663   9.192
 1376POPC   GL221434  38.830  17.828   9.096
 1376POPC   C1A21435  39.340  17.558   8.789
 1376POPC   D2A21436  39.163  17.370   8.390
 1376POPC   C3A21437  39.348  17.369   8.007
 1376POPC   C4A21438  39.451  17.701   7.758
 1376POPC   C1B21439  38.836  17.644   8.724
 1376POPC   C2B21440  38.894  17.804   8.323
 1376POPC   C3B21441  38.941  17.678   7.900
 1376POPC   C4B21442  38.881  17.859   7.486
 1377POPC   NC321443  27.566  21.359   9.473
 1377POPC   PO421444  27.787  21.925   9.639
 1377POPC   GL121445  27.677  21.622   9.080
 1377POPC   GL221446  27.302  21.401   9.047
 1377POPC   C1A21447  27.553  21.468   8.623
 1377POPC   D2A21448  27.785  21.320   8.268
 1377POPC   C3A21449  27.771  21.624   7.933
 1377POPC   C4A21450  27.524  21.644   7.584
 1377POPC   C1B21451  27.336  21.008   8.752
 1377POPC   C2B21452  27.368  20.968   8.284
 1377POPC   C3B21453  27.383  21.256   7.913
 1377POPC   C4B21454  27.358  21.182   7.445
 1378POPC   NC321455  25.276  36.353   9.466
 1378POPC   PO421456  25.672  35.887   9.789
 1378POPC   GL121457  25.350  35.894   9.319
 1378POPC   GL221458  25.580  36.110   9.111
 1378POPC   C1A21459  25.088  36.059   8.904
 1378POPC   D2A21460  24.858  36.059   8.479
 1378POPC   C3A21461  24.978  36.133   8.038
 1378POPC   C4A21462  25.017  36.293   7.641
 1378POPC   C1B21463  25.558  36.068   8.683
 1378POPC   C2B21464  25.367  36.270   8.354
 1378POPC   C3B21465  25.587  36.384   7.981
 1378POPC   C4B21466  25.465  36.517   7.622
 1379POPC   NC321467  10.605  41.362   9.799
 1379POPC   PO421468  10.289  41.904   9.385
 1379POPC   GL121469  10.525  41.650   9.073
 1379POPC   GL221470  10.845  41.600   9.212
 1379POPC   C1A21471  10.625  41.449   8.670
 1379POPC   D2A21472  10.383  41.151   8.431
 1379POPC   C3A21473  10.389  41.296   7.992
 1379POPC   C4A21474  10.491  41.544   7.642
 1379POPC   C1B21475  10.919  41.840   8.783
 1379POPC   C2B21476  10.905  41.735   8.313
 1379POPC   C3B21477  10.855  41.842   7.873
 1379POPC   C4B21478  10.631  42.018   7.507
 1380POPC   NC321479   1.558  42.908   9.526
 1380POPC   PO421480   1.015  43.308   9.340
 1380POPC   GL121481   1.223  43.231   8.974
 1380POPC   GL221482   1.547  43.156   9.068
 1380POPC   C1A21483   1.240  43.403   8.551
 1380POPC   D2A21484   1.093  43.459   8.103
 1380POPC   C3A21485   0.965  43.094   7.892
 1380POPC   C4A21486   0.913  42.987   7.469
 1380POPC   C1B21487   1.762  43.261   8.673
 1380POPC   C2B21488   1.666  43.403   8.260
 1380POPC   C3B21489   1.491  43.159   7.942
 1380POPC   C4B21490   1.355  43.232   7.563
 1381POPC   NC321491   1.737  38.923   9.437
 1381POPC   PO421492   2.268  39.366   9.441
 1381POPC   GL121493   2.177  39.341   9.070
 1381POPC   GL221494   2.126  38.973   9.067
 1381POPC   C1A21495   2.100  39.571   8.684
 1381POPC   D2A21496   1.823  39.587   8.307
 1381POPC   C3A21497   2.055  39.446   7.936
 1381POPC   C4A21498   2.186  39.253   7.530
 1381POPC   C1B21499   1.881  39.099   8.733
 1381POPC   C2B21500   2.062  39.126   8.341
 1381POPC   C3B21501   1.978  38.945   7.944
 1381POPC   C4B21502   1.665  39.143   7.719
 1382POPC   NC321503   9.971  42.116   9.631
 1382POPC   PO421504   9.543  42.570   9.376
 1382POPC   GL121505   9.906  42.418   9.183
 1382POPC   GL221506   9.902  42.085   9.120
 1382POPC   C1A21507   9.962  42.401   8.723
 1382POPC   D2A21508   9.614  42.336   8.388
 1382POPC   C3A21509   9.713  42.428   7.930
 1382POPC   C4A21510   9.439  42.541   7.543
 1382POPC   C1B21511   9.769  41.931   8.730
 1382POPC   C2B21512   9.941  41.967   8.345
 1382POPC   C3B21513   9.745  41.907   7.953
 1382POPC   C4B21514   9.779  42.063   7.545
 1383POPC   NC321515   9.300  29.080   9.627
 1383POPC   PO421516   8.749  29.394   9.400
 1383POPC   GL121517   8.948  29.312   9.025
 1383POPC   GL221518   8.773  29.033   9.014
 1383POPC   C1A21519   9.267  29.374   8.663
 1383POPC   D2A21520   9.303  29.324   8.202
 1383POPC   C3A21521   8.946  29.130   8.011
 1383POPC   C4A21522   8.732  29.317   7.665
 1383POPC   C1B21523   9.215  28.905   8.917
 1383POPC   C2B21524   9.311  28.838   8.458
 1383POPC   C3B21525   9.432  28.854   8.004
 1383POPC   C4B21526   9.237  29.044   7.596
 1384POPC   NC321527  34.517  23.359   9.366
 1384POPC   PO421528  34.841  23.879   9.656
 1384POPC   GL121529  34.787  23.778   9.202
 1384POPC   GL221530  34.965  23.494   9.127
 1384POPC   C1A21531  34.488  23.703   8.819
 1384POPC   D2A21532  34.339  23.471   8.444
 1384POPC   C3A21533  34.436  23.525   8.007
 1384POPC   C4A21534  34.289  23.835   7.719
 1384POPC   C1B21535  34.975  23.651   8.711
 1384POPC   C2B21536  34.736  23.869   8.407
 1384POPC   C3B21537  34.709  23.965   7.997
 1384POPC   C4B21538  34.797  23.709   7.689
 1385POPC   NC321539  19.267  42.122   9.409
 1385POPC   PO421540  19.165  42.777   9.178
 1385POPC   GL121541  19.236  42.413   8.996
 1385POPC   GL221542  18.915  42.300   9.061
 1385POPC   C1A21543  19.228  42.088   8.695
 1385POPC   D2A21544  18.961  42.123   8.362
 1385POPC   C3A21545  19.030  41.996   7.945
 1385POPC   C4A21546  19.275  42.060   7.567
 1385POPC   C1B21547  18.597  42.486   8.789
 1385POPC   C2B21548  18.512  42.628   8.374
 1385POPC   C3B21549  18.794  42.490   8.050
 1385POPC   C4B21550  18.872  42.359   7.610
 1386POPC   NC321551  28.849  36.898   9.507
 1386POPC   PO421552  28.188  37.100   9.446
 1386POPC   GL121553  28.423  36.942   9.098
 1386POPC   GL221554  28.592  37.256   9.140
 1386POPC   C1A21555  28.331  36.741   8.653
 1386POPC   D2A21556  27.991  36.579   8.321
 1386POPC   C3A21557  28.146  36.784   7.949
 1386POPC   C4A21558  28.598  36.695   7.995
 1386POPC   C1B21559  28.413  37.249   8.701
 1386POPC   C2B21560  28.525  37.104   8.285
 1386POPC   C3B21561  28.430  37.212   7.839
 1386POPC   C4B21562  28.387  37.256   7.368
 1387POPC   NC321563  26.477   9.651   9.674
 1387POPC   PO421564  25.928   9.961   9.443
 1387POPC   GL121565  25.984   9.852   9.083
 1387POPC   GL221566  26.347   9.851   9.138
 1387POPC   C1A21567  25.914   9.515   8.820
 1387POPC   D2A21568  25.952   9.491   8.419
 1387POPC   C3A21569  25.777   9.781   8.119
 1387POPC   C4A21570  25.729   9.612   7.713
 1387POPC   C1B21571  26.323   9.785   8.679
 1387POPC   C2B21572  26.260   9.862   8.279
 1387POPC   C3B21573  26.211   9.554   7.978
 1387POPC   C4B21574  26.355   9.521   7.579
 1388POPC   NC321575  44.215   1.167   9.460
 1388POPC   PO421576  43.501   1.485   9.617
 1388POPC   GL121577  43.662   1.390   9.199
 1388POPC   GL221578  43.524   1.074   9.035
 1388POPC   C1A21579  43.964   1.550   8.875
 1388POPC   D2A21580  44.008   1.664   8.412
 1388POPC   C3A21581  44.139   1.379   8.071
 1388POPC   C4A21582  43.909   1.110   7.747
 1388POPC   C1B21583  43.574   1.294   8.695
 1388POPC   C2B21584  43.710   1.241   8.305
 1388POPC   C3B21585  43.611   1.449   7.963
 1388POPC   C4B21586  43.422   1.233   7.606
 1389POPC   NC321587  38.311  35.172   9.607
 1389POPC   PO421588  38.889  35.458   9.755
 1389POPC   GL121589  38.740  35.450   9.296
 1389POPC   GL221590  38.588  35.151   9.161
 1389POPC   C1A21591  38.613  35.523   8.848
 1389POPC   D2A21592  38.543  35.331   8.459
 1389POPC   C3A21593  38.575  35.597   8.089
 1389POPC   C4A21594  38.450  35.771   7.695
 1389POPC   C1B21595  38.223  35.120   8.849
 1389POPC   C2B21596  38.034  35.288   8.462
 1389POPC   C3B21597  38.228  35.155   8.093
 1389POPC   C4B21598  38.346  35.267   7.731
 1390POPC   NC321599  31.078  38.421   9.414
 1390POPC   PO421600  30.492  38.589   9.510
 1390POPC   GL121601  30.684  38.543   9.117
 1390POPC   GL221602  30.982  38.749   9.047
 1390POPC   C1A21603  30.765  38.317   8.742
 1390POPC   D2A21604  30.720  37.996   8.405
 1390POPC   C3A21605  30.555  38.047   8.011
 1390POPC   C4A21606  30.604  38.308   7.648
 1390POPC   C1B21607  31.217  38.643   8.712
 1390POPC   C2B21608  31.153  38.331   8.407
 1390POPC   C3B21609  30.981  38.346   8.026
 1390POPC   C4B21610  31.081  38.536   7.653
 1391POPC   NC321611  36.765  36.684   9.557
 1391POPC   PO421612  37.315  36.936   9.343
 1391POPC   GL121613  36.973  37.093   9.085
 1391POPC   GL221614  36.610  37.088   9.186
 1391POPC   C1A21615  36.891  37.112   8.634
 1391POPC   D2A21616  36.835  37.055   8.203
 1391POPC   C3A21617  37.114  36.733   8.026
 1391POPC   C4A21618  37.169  36.596   7.586
 1391POPC   C1B21619  36.484  36.848   8.779
 1391POPC   C2B21620  36.314  36.855   8.365
 1391POPC   C3B21621  36.397  37.021   7.925
 1391POPC   C4B21622  36.762  36.911   7.693
 1392POPC   NC321623  43.539  31.601   9.636
 1392POPC   PO421624  44.051  31.065   9.714
 1392POPC   GL121625  44.040  31.248   9.263
 1392POPC   GL221626  43.877  31.546   9.261
 1392POPC   C1A21627  44.122  31.467   8.836
 1392POPC   D2A21628  43.932  31.755   8.519
 1392POPC   C3A21629  43.968  31.576   8.118
 1392POPC   C4A21630  44.127  31.629   7.697
 1392POPC   C1B21631  43.613  31.658   8.922
 1392POPC   C2B21632  43.492  31.507   8.520
 1392POPC   C3B21633  43.421  31.598   8.110
 1392POPC   C4B21634  43.625  31.531   7.748
 1393POPC   NC321635  25.092   0.113   9.367
 1393POPC   PO421636  25.469  44.629   9.697
 1393POPC   GL121637  25.328  44.653   9.244
 1393POPC   GL221638  24.989  44.664   9.127
 1393POPC   C1A21639  25.543  44.629   8.832
 1393POPC   D2A21640  25.433  44.475   8.419
 1393POPC   C3A21641  25.276  44.688   8.072
 1393POPC   C4A21642  25.406  44.508   7.719
 1393POPC   C1B21643  25.077  44.754   8.691
 1393POPC   C2B21644  25.388  44.988   8.465
 1393POPC   C3B21645  25.546   0.133   8.091
 1393POPC   C4B21646  25.418   0.022   7.692
 1394POPC   NC321647  31.897  37.856   9.524
 1394POPC   PO421648  32.362  37.307   9.490
 1394POPC   GL121649  32.255  37.655   9.165
 1394POPC   GL221650  31.970  37.829   9.042
 1394POPC   C1A21651  32.456  37.716   8.767
 1394POPC   D2A21652  32.385  37.469   8.393
 1394POPC   C3A21653  32.427  37.712   8.012
 1394POPC   C4A21654  32.307  37.704   7.612
 1394POPC   C1B21655  32.028  38.027   8.680
 1394POPC   C2B21656  32.011  37.817   8.298
 1394POPC   C3B21657  31.969  37.520   7.948
 1394POPC   C4B21658  31.867  37.907   7.702
 1395POPC   NC321659   5.041   1.018   9.691
 1395POPC   PO421660   5.279   1.597   9.582
 1395POPC   GL121661   5.074   1.446   9.220
 1395POPC   GL221662   5.224   1.131   9.236
 1395POPC   C1A21663   4.864   1.437   8.796
 1395POPC   D2A21664   4.961   1.168   8.406
 1395POPC   C3A21665   4.968   1.350   7.999
 1395POPC   C4A21666   5.140   1.436   7.634
 1395POPC   C1B21667   5.257   1.101   8.823
 1395POPC   C2B21668   5.411   0.901   8.450
 1395POPC   C3B21669   5.287   0.971   8.020
 1395POPC   C4B21670   5.400   1.001   7.603
 1396POPC   NC321671  18.794  44.137   9.560
 1396POPC   PO421672  18.887  43.472   9.592
 1396POPC   GL121673  18.883  43.778   9.209
 1396POPC   GL221674  19.209  43.939   9.159
 1396POPC   C1A21675  18.906  43.906   8.739
 1396POPC   D2A21676  19.134  43.798   8.334
 1396POPC   C3A21677  18.878  43.830   7.961
 1396POPC   C4A21678  18.695  44.221   7.775
 1396POPC   C1B21679  19.426  44.004   8.741
 1396POPC   C2B21680  19.426  44.240   8.334
 1396POPC   C3B21681  19.296  44.134   7.929
 1396POPC   C4B21682  19.350  43.721   7.822
 1397POPC   NC321683   0.579  18.737   9.411
 1397POPC   PO421684   0.043  19.138   9.539
 1397POPC   GL121685   0.301  19.133   9.133
 1397POPC   GL221686   0.587  19.388   9.079
 1397POPC   C1A21687   0.519  18.981   8.745
 1397POPC   D2A21688   0.614  18.758   8.326
 1397POPC   C3A21689   0.698  18.989   7.910
 1397POPC   C4A21690   0.574  18.979   7.466
 1397POPC   C1B21691   0.843  19.386   8.713
 1397POPC   C2B21692   0.610  19.338   8.322
 1397POPC   C3B21693   0.385  19.401   7.930
 1397POPC   C4B21694   0.686  19.477   7.592
 1398POPC   NC321695  42.078  27.025   9.418
 1398POPC   PO421696  42.683  26.691   9.414
 1398POPC   GL121697  42.497  26.923   9.106
 1398POPC   GL221698  42.460  26.618   8.917
 1398POPC   C1A21699  42.302  27.139   8.754
 1398POPC   D2A21700  42.134  27.033   8.338
 1398POPC   C3A21701  42.370  27.216   7.985
 1398POPC   C4A21702  42.425  27.179   7.545
 1398POPC   C1B21703  42.313  26.539   8.513
 1398POPC   C2B21704  42.483  26.701   8.150
 1398POPC   C3B21705  42.305  26.720   7.769
 1398POPC   C4B21706  42.096  26.390   7.567
 1399POPC   NC321707  28.599  31.111  10.108
 1399POPC   PO421708  29.000  31.390   9.584
 1399POPC   GL121709  28.966  31.371   9.164
 1399POPC   GL221710  28.819  31.679   9.073
 1399POPC   C1A21711  29.022  31.230   8.754
 1399POPC   D2A21712  28.794  31.093   8.415
 1399POPC   C3A21713  28.943  31.292   8.070
 1399POPC   C4A21714  29.355  31.412   7.941
 1399POPC   C1B21715  29.227  31.694   8.842
 1399POPC   C2B21716  29.237  31.877   8.434
 1399POPC   C3B21717  29.108  31.828   8.040
 1399POPC   C4B21718  29.252  31.816   7.650
 1400POPC   NC321719  34.329  42.232   9.428
 1400POPC   PO421720  34.919  42.605   9.426
 1400POPC   GL121721  34.624  42.559   9.160
 1400POPC   GL221722  34.717  42.198   9.116
 1400POPC   C1A21723  34.479  42.633   8.780
 1400POPC   D2A21724  34.356  42.677   8.371
 1400POPC   C3A21725  34.556  42.611   7.995
 1400POPC   C4A21726  34.290  42.469   7.730
 1400POPC   C1B21727  34.894  42.347   8.761
 1400POPC   C2B21728  34.678  42.242   8.379
 1400POPC   C3B21729  34.514  42.075   7.994
 1400POPC   C4B21730  34.699  42.202   7.616
 1401POPC   NC321731   9.329  39.936   9.391
 1401POPC   PO421732   9.848  39.934   9.731
 1401POPC   GL121733   9.844  40.104   9.235
 1401POPC   GL221734   9.544  40.302   9.105
 1401POPC   C1A21735   9.781  40.041   8.728
 1401POPC   D2A21736   9.868  39.826   8.295
 1401POPC   C3A21737   9.920  39.998   7.839
 1401POPC   C4A21738  10.009  40.183   7.383
 1401POPC   C1B21739   9.255  40.108   8.774
 1401POPC   C2B21740   9.340  39.808   8.441
 1401POPC   C3B21741   9.443  39.999   8.032
 1401POPC   C4B21742   9.392  40.358   7.733
 1402POPC   NC321743  40.228   4.803   9.730
 1402POPC   PO421744  40.123   4.160   9.472
 1402POPC   GL121745  39.929   4.236   9.078
 1402POPC   GL221746  39.668   4.016   9.027
 1402POPC   C1A21747  40.123   4.413   8.683
 1402POPC   D2A21748  40.406   4.465   8.353
 1402POPC   C3A21749  40.136   4.427   8.001
 1402POPC   C4A21750  40.225   4.076   7.794
 1402POPC   C1B21751  39.790   4.031   8.625
 1402POPC   C2B21752  39.772   4.099   8.206
 1402POPC   C3B21753  39.709   4.154   7.817
 1402POPC   C4B21754  39.915   4.356   7.499
 1403POPC   NC321755  24.207  17.428   9.513
 1403POPC   PO421756  23.446  17.622   9.511
 1403POPC   GL121757  23.702  17.416   9.201
 1403POPC   GL221758  24.006  17.603   9.095
 1403POPC   C1A21759  23.780  17.277   8.768
 1403POPC   D2A21760  23.984  17.357   8.379
 1403POPC   C3A21761  23.638  17.411   8.106
 1403POPC   C4A21762  23.630  17.328   7.681
 1403POPC   C1B21763  23.960  17.783   8.712
 1403POPC   C2B21764  23.828  17.863   8.305
 1403POPC   C3B21765  23.861  17.797   7.865
 1403POPC   C4B21766  23.827  17.771   7.387
 1404POPC   NC321767   1.733  27.510   9.430
 1404POPC   PO421768   2.308  27.225   9.380
 1404POPC   GL121769   2.293  27.490   9.046
 1404POPC   GL221770   1.946  27.647   8.980
 1404POPC   C1A21771   2.361  27.488   8.613
 1404POPC   D2A21772   2.134  27.783   8.431
 1404POPC   C3A21773   2.258  27.896   8.053
 1404POPC   C4A21774   1.992  27.854   7.707
 1404POPC   C1B21775   1.870  27.311   8.670
 1404POPC   C2B21776   2.004  27.293   8.241
 1404POPC   C3B21777   1.771  27.382   7.862
 1404POPC   C4B21778   1.709  27.121   7.472
 1405POPC   NC321779  20.243  25.484   9.563
 1405POPC   PO421780  20.629  26.171   9.578
 1405POPC   GL121781  20.719  26.083   9.107
 1405POPC   GL221782  20.501  25.844   8.936
 1405POPC   C1A21783  20.577  26.270   8.690
 1405POPC   D2A21784  20.704  26.395   8.295
 1405POPC   C3A21785  20.541  26.233   7.919
 1405POPC   C4A21786  20.719  26.191   7.515
 1405POPC   C1B21787  20.187  25.943   8.657
 1405POPC   C2B21788  20.419  25.918   8.287
 1405POPC   C3B21789  20.636  25.744   7.892
 1405POPC   C4B21790  20.473  25.707   7.468
 1406POPC   NC321791  42.501  17.585   9.541
 1406POPC   PO421792  42.106  18.142   9.422
 1406POPC   GL121793  42.345  18.214   9.084
 1406POPC   GL221794  42.528  17.893   9.137
 1406POPC   C1A21795  42.228  18.382   8.690
 1406POPC   D2A21796  42.041  18.366   8.283
 1406POPC   C3A21797  42.204  18.439   7.887
 1406POPC   C4A21798  42.096  18.208   7.514
 1406POPC   C1B21799  42.622  17.935   8.708
 1406POPC   C2B21800  42.336  17.874   8.340
 1406POPC   C3B21801  42.420  17.964   7.904
 1406POPC   C4B21802  42.561  17.705   7.565
 1407POPC   NC321803  16.639  28.501   9.463
 1407POPC   PO421804  16.957  27.930   9.302
 1407POPC   GL121805  16.711  28.254   9.006
 1407POPC   GL221806  16.732  28.665   8.994
 1407POPC   C1A21807  16.422  28.377   8.673
 1407POPC   D2A21808  16.243  28.179   8.297
 1407POPC   C3A21809  16.585  27.968   8.048
 1407POPC   C4A21810  16.861  28.167   7.751
 1407POPC   C1B21811  16.894  28.603   8.599
 1407POPC   C2B21812  16.852  28.466   8.177
 1407POPC   C3B21813  16.755  28.688   7.785
 1407POPC   C4B21814  16.903  28.872   7.393
 1408POPC   NC321815  36.000  10.600   9.557
 1408POPC   PO421816  36.546  10.933   9.599
 1408POPC   GL121817  36.379  10.708   9.188
 1408POPC   GL221818  36.041  10.810   9.091
 1408POPC   C1A21819  36.232  10.518   8.744
 1408POPC   D2A21820  36.033  10.575   8.317
 1408POPC   C3A21821  36.246  10.551   7.911
 1408POPC   C4A21822  36.575  10.601   7.642
 1408POPC   C1B21823  35.781  10.822   8.726
 1408POPC   C2B21824  35.595  10.831   8.299
 1408POPC   C3B21825  35.710  10.636   7.895
 1408POPC   C4B21826  35.931  10.832   7.552
 1409POPC   NC321827   3.351  38.458   9.435
 1409POPC   PO421828   4.033  38.383   9.450
 1409POPC   GL121829   3.769  38.352   9.142
 1409POPC   GL221830   3.657  38.695   9.073
 1409POPC   C1A21831   3.717  38.353   8.713
 1409POPC   D2A21832   3.413  38.484   8.440
 1409POPC   C3A21833   3.549  38.411   8.044
 1409POPC   C4A21834   3.461  38.289   7.647
 1409POPC   C1B21835   3.620  38.936   8.649
 1409POPC   C2B21836   3.516  38.923   8.163
 1409POPC   C3B21837   3.349  38.783   7.720
 1409POPC   C4B21838   3.164  38.889   7.276
 1410POPC   NC321839  39.173  34.922   9.498
 1410POPC   PO421840  39.054  34.265   9.616
 1410POPC   GL121841  38.974  34.484   9.227
 1410POPC   GL221842  39.310  34.356   9.155
 1410POPC   C1A21843  39.066  34.655   8.783
 1410POPC   D2A21844  38.953  34.486   8.355
 1410POPC   C3A21845  39.069  34.673   7.967
 1410POPC   C4A21846  39.033  34.522   7.530
 1410POPC   C1B21847  39.100  34.161   8.789
 1410POPC   C2B21848  39.269  34.108   8.414
 1410POPC   C3B21849  39.422  34.294   8.068
 1410POPC   C4B21850  39.384  34.149   7.656
 1411POPC   NC321851   2.967  21.815   9.455
 1411POPC   PO421852   2.402  21.803   9.233
 1411POPC   GL121853   2.693  21.992   9.005
 1411POPC   GL221854   2.716  22.251   9.155
 1411POPC   C1A21855   2.679  21.944   8.587
 1411POPC   D2A21856   2.663  21.692   8.226
 1411POPC   C3A21857   2.562  21.953   7.918
 1411POPC   C4A21858   2.834  22.231   7.735
 1411POPC   C1B21859   2.708  22.445   8.749
 1411POPC   C2B21860   2.556  22.377   8.319
 1411POPC   C3B21861   2.622  22.628   7.969
 1411POPC   C4B21862   2.588  22.645   7.521
 1412POPC   NC321863  23.124  11.749   9.786
 1412POPC   PO421864  22.694  12.217   9.571
 1412POPC   GL121865  22.822  11.978   9.220
 1412POPC   GL221866  23.142  11.967   9.187
 1412POPC   C1A21867  22.775  11.789   8.777
 1412POPC   D2A21868  22.869  11.951   8.367
 1412POPC   C3A21869  22.663  11.788   7.991
 1412POPC   C4A21870  22.573  12.062   7.680
 1412POPC   C1B21871  23.292  11.885   8.784
 1412POPC   C2B21872  23.366  11.727   8.379
 1412POPC   C3B21873  23.207  11.820   7.977
 1412POPC   C4B21874  23.010  11.576   7.682
 1413POPC   NC321875  36.923  15.694   9.521
 1413POPC   PO421876  36.925  16.318   9.452
 1413POPC   GL121877  36.892  16.012   9.112
 1413POPC   GL221878  36.582  15.791   9.076
 1413POPC   C1A21879  37.159  16.011   8.713
 1413POPC   D2A21880  37.390  15.962   8.314
 1413POPC   C3A21881  37.146  15.717   7.991
 1413POPC   C4A21882  37.318  15.646   7.552
 1413POPC   C1B21883  36.651  16.105   8.692
 1413POPC   C2B21884  36.879  16.118   8.290
 1413POPC   C3B21885  36.846  16.151   7.864
 1413POPC   C4B21886  36.546  16.104   7.540
 1414POPC   NC321887   2.552  13.963   9.459
 1414POPC   PO421888   3.094  13.644   9.396
 1414POPC   GL121889   2.753  13.543   9.211
 1414POPC   GL221890   2.800  13.879   9.023
 1414POPC   C1A21891   2.552  13.474   8.860
 1414POPC   D2A21892   2.614  13.612   8.459
 1414POPC   C3A21893   2.540  13.306   8.171
 1414POPC   C4A21894   2.574  13.449   7.747
 1414POPC   C1B21895   3.137  14.145   8.839
 1414POPC   C2B21896   3.168  14.211   8.383
 1414POPC   C3B21897   2.906  13.977   8.077
 1414POPC   C4B21898   2.991  13.780   7.691
 1415POPC   NC321899  31.638  38.511   9.670
 1415POPC   PO421900  31.158  38.866   9.496
 1415POPC   GL121901  31.501  38.594   9.189
 1415POPC   GL221902  31.667  38.244   9.229
 1415POPC   C1A21903  31.746  38.517   8.800
 1415POPC   D2A21904  31.622  38.612   8.399
 1415POPC   C3A21905  31.300  38.770   8.138
 1415POPC   C4A21906  31.550  38.698   7.774
 1415POPC   C1B21907  31.406  38.187   8.870
 1415POPC   C2B21908  31.597  38.113   8.458
 1415POPC   C3B21909  31.716  38.222   8.076
 1415POPC   C4B21910  31.421  38.166   7.773
 1416POPC   NC321911   9.181  18.918   9.494
 1416POPC   PO421912   8.654  19.288   9.807
 1416POPC   GL121913   8.848  19.244   9.264
 1416POPC   GL221914   9.039  18.979   9.016
 1416POPC   C1A21915   8.786  19.333   8.788
 1416POPC   D2A21916   9.078  19.250   8.457
 1416POPC   C3A21917   8.850  19.156   8.072
 1416POPC   C4A21918   8.980  19.125   7.638
 1416POPC   C1B21919   8.799  18.820   8.648
 1416POPC   C2B21920   8.703  18.641   8.210
 1416POPC   C3B21921   8.667  18.766   7.766
 1416POPC   C4B21922   8.995  18.677   7.419
 1417POPC   NC321923  27.261  32.123   9.504
 1417POPC   PO421924  27.925  32.066   9.685
 1417POPC   GL121925  27.735  32.005   9.243
 1417POPC   GL221926  27.383  31.933   9.058
 1417POPC   C1A21927  27.753  32.196   8.823
 1417POPC   D2A21928  27.825  32.455   8.459
 1417POPC   C3A21929  27.801  32.275   8.058
 1417POPC   C4A21930  27.775  32.475   7.674
 1417POPC   C1B21931  27.366  31.857   8.627
 1417POPC   C2B21932  27.363  32.038   8.225
 1417POPC   C3B21933  27.155  31.940   7.823
 1417POPC   C4B21934  27.130  31.980   7.324
 1418POPC   NC321935   8.453  34.923   9.454
 1418POPC   PO421936   8.025  35.495   9.484
 1418POPC   GL121937   8.014  35.298   9.125
 1418POPC   GL221938   8.365  35.292   9.120
 1418POPC   C1A21939   7.880  35.154   8.735
 1418POPC   D2A21940   8.087  35.088   8.363
 1418POPC   C3A21941   8.010  35.360   8.034
 1418POPC   C4A21942   8.074  35.263   7.625
 1418POPC   C1B21943   8.419  35.129   8.742
 1418POPC   C2B21944   8.581  35.187   8.331
 1418POPC   C3B21945   8.446  35.082   7.941
 1418POPC   C4B21946   8.558  35.355   7.659
 1419POPC   NC321947  11.994  43.091   9.743
 1419POPC   PO421948  12.459  43.333   9.404
 1419POPC   GL121949  12.035  43.292   9.238
 1419POPC   GL221950  11.966  42.994   9.119
 1419POPC   C1A21951  11.937  43.377   8.794
 1419POPC   D2A21952  12.177  43.250   8.418
 1419POPC   C3A21953  12.284  43.365   7.992
 1419POPC   C4A21954  12.211  43.188   7.587
 1419POPC   C1B21955  12.060  42.848   8.719
 1419POPC   C2B21956  11.815  42.898   8.346
 1419POPC   C3B21957  11.870  43.049   7.944
 1419POPC   C4B21958  11.869  42.808   7.571
 1420POPC   NC321959  44.272  34.859   9.397
 1420POPC   PO421960  43.703  34.428   9.536
 1420POPC   GL121961  43.826  34.706   9.198
 1420POPC   GL221962  44.054  34.475   9.138
 1420POPC   C1A21963  43.669  34.817   8.767
 1420POPC   D2A21964  43.891  34.781   8.370
 1420POPC   C3A21965  43.708  34.847   7.965
 1420POPC   C4A21966  43.795  34.662   7.520
 1420POPC   C1B21967  44.026  34.436   8.732
 1420POPC   C2B21968  44.059  34.245   8.350
 1420POPC   C3B21969  43.845  34.357   7.971
 1420POPC   C4B21970  44.043  34.226   7.583
 1421POPC   NC321971   3.147  34.272   9.444
 1421POPC   PO421972   3.006  34.864   9.641
 1421POPC   GL121973   3.010  34.716   9.203
 1421POPC   GL221974   2.782  34.465   9.083
 1421POPC   C1A21975   2.914  34.825   8.764
 1421POPC   D2A21976   2.593  34.838   8.471
 1421POPC   C3A21977   2.797  34.713   8.098
 1421POPC   C4A21978   2.743  34.683   7.693
 1421POPC   C1B21979   2.528  34.305   8.750
 1421POPC   C2B21980   2.459  34.361   8.312
 1421POPC   C3B21981   2.551  34.251   7.890
 1421POPC   C4B21982   2.634  34.237   7.436
 1422POPC   NC321983  15.781  27.988   9.508
 1422POPC   PO421984  16.199  28.508   9.605
 1422POPC   GL121985  16.022  28.490   9.167
 1422POPC   GL221986  15.664  28.372   9.176
 1422POPC   C1A21987  15.906  28.345   8.723
 1422POPC   D2A21988  15.741  28.406   8.310
 1422POPC   C3A21989  15.973  28.447   7.934
 1422POPC   C4A21990  16.374  28.333   7.744
 1422POPC   C1B21991  15.572  27.993   8.898
 1422POPC   C2B21992  15.534  27.979   8.463
 1422POPC   C3B21993  15.821  27.950   8.086
 1422POPC   C4B21994  15.960  28.047   7.641
 1423POPC   NC321995   2.000  33.307  10.089
 1423POPC   PO421996   1.944  32.777   9.648
 1423POPC   GL121997   1.869  33.028   9.278
 1423POPC   GL221998   2.138  32.892   9.066
 1423POPC   C1A21999   1.793  33.211   8.861
 1423POPC   D2A22000   1.794  33.101   8.407
 1423POPC   C3A22001   1.839  33.327   8.004
 1423POPC   C4A22002   1.943  33.097   7.639
 1423POPC   C1B22003   2.254  32.582   8.769
 1423POPC   C2B22004   2.222  32.812   8.419
 1423POPC   C3B22005   2.210  32.954   8.041
 1423POPC   C4B22006   2.421  32.885   7.677
 1424POPC   NC322007  16.154  18.426   9.531
 1424POPC   PO422008  15.645  18.035   9.446
 1424POPC   GL122009  15.814  18.354   9.158
 1424POPC   GL222010  15.869  18.699   9.198
 1424POPC   C1A22011  16.062  18.450   8.787
 1424POPC   D2A22012  16.193  18.280   8.413
 1424POPC   C3A22013  16.014  18.346   8.024
 1424POPC   C4A22014  15.935  17.912   7.860
 1424POPC   C1B22015  15.588  18.619   8.789
 1424POPC   C2B22016  15.616  18.376   8.379
 1424POPC   C3B22017  15.507  18.304   7.920
 1424POPC   C4B22018  15.793  18.274   7.556
 1425POPC   NC322019   7.467  24.390   9.592
 1425POPC   PO422020   7.780  24.919   9.320
 1425POPC   GL122021   7.504  24.633   9.134
 1425POPC   GL222022   7.600  24.274   9.112
 1425POPC   C1A22023   7.255  24.617   8.781
 1425POPC   D2A22024   7.196  24.359   8.406
 1425POPC   C3A22025   7.368  24.633   8.073
 1425POPC   C4A22026   7.726  24.501   7.779
 1425POPC   C1B22027   7.326  24.082   8.833
 1425POPC   C2B22028   7.385  23.843   8.443
 1425POPC   C3B22029   7.469  24.061   8.059
 1425POPC   C4B22030   7.282  24.269   7.738
 1426POPC   NC322031   7.606  26.734   9.515
 1426POPC   PO422032   7.017  27.072   9.539
 1426POPC   GL122033   7.237  26.885   9.157
 1426POPC   GL222034   7.561  26.765   9.017
 1426POPC   C1A22035   7.259  27.108   8.735
 1426POPC   D2A22036   7.112  27.038   8.338
 1426POPC   C3A22037   7.440  26.894   8.113
 1426POPC   C4A22038   7.664  26.938   7.741
 1426POPC   C1B22039   7.494  26.687   8.591
 1426POPC   C2B22040   7.547  26.393   8.284
 1426POPC   C3B22041   7.470  26.461   7.868
 1426POPC   C4B22042   7.525  26.509   7.437
 1427POPC   NC322043  33.315  15.520   9.673
 1427POPC   PO422044  33.937  15.281   9.482
 1427POPC   GL122045  33.910  15.197   9.035
 1427POPC   GL222046  33.591  15.355   8.953
 1427POPC   C1A22047  33.891  15.164   8.567
 1427POPC   D2A22048  33.568  15.058   8.275
 1427POPC   C3A22049  33.760  14.959   7.914
 1427POPC   C4A22050  33.554  15.149   7.644
 1427POPC   C1B22051  33.973  15.619   8.775
 1427POPC   C2B22052  34.076  15.755   8.380
 1427POPC   C3B22053  33.939  15.429   8.063
 1427POPC   C4B22054  34.050  15.302   7.645
 1428POPC   NC322055   0.769  35.115   9.383
 1428POPC   PO422056   1.383  35.391   9.520
 1428POPC   GL122057   1.108  35.430   9.153
 1428POPC   GL222058   1.145  35.070   9.073
 1428POPC   C1A22059   1.217  35.397   8.702
 1428POPC   D2A22060   1.401  35.558   8.352
 1428POPC   C3A22061   1.291  35.472   7.950
 1428POPC   C4A22062   0.901  35.544   7.742
 1428POPC   C1B22063   1.250  34.874   8.707
 1428POPC   C2B22064   1.257  35.011   8.313
 1428POPC   C3B22065   1.401  34.990   7.917
 1428POPC   C4B22066   1.143  35.122   7.578
 1429POPC   NC322067  39.139  41.117   9.562
 1429POPC   PO422068  39.459  40.530   9.536
 1429POPC   GL122069  39.168  40.755   9.218
 1429POPC   GL222070  38.838  40.592   9.120
 1429POPC   C1A22071  39.243  41.083   8.907
 1429POPC   D2A22072  39.107  41.090   8.485
 1429POPC   C3A22073  39.218  40.800   8.152
 1429POPC   C4A22074  39.422  40.892   7.742
 1429POPC   C1B22075  38.745  40.956   8.854
 1429POPC   C2B22076  38.573  41.083   8.475
 1429POPC   C3B22077  38.767  41.028   8.105
 1429POPC   C4B22078  38.903  40.806   7.758
 1430POPC   NC322079  15.300  34.668   9.517
 1430POPC   PO422080  14.980  34.155   9.520
 1430POPC   GL122081  15.126  34.279   9.083
 1430POPC   GL222082  15.062  34.626   9.051
 1430POPC   C1A22083  15.258  34.203   8.613
 1430POPC   D2A22084  15.131  34.106   8.177
 1430POPC   C3A22085  15.382  34.316   7.860
 1430POPC   C4A22086  15.317  34.306   7.412
 1430POPC   C1B22087  14.931  34.591   8.616
 1430POPC   C2B22088  15.069  34.616   8.196
 1430POPC   C3B22089  14.908  34.506   7.789
 1430POPC   C4B22090  14.603  34.596   7.438
 1431POPC   NC322091  24.730  35.243   9.456
 1431POPC   PO422092  24.230  34.900   9.227
 1431POPC   GL122093  24.265  35.314   9.119
 1431POPC   GL222094  24.591  35.395   9.014
 1431POPC   C1A22095  24.208  35.339   8.699
 1431POPC   D2A22096  24.096  35.175   8.378
 1431POPC   C3A22097  24.326  35.240   8.029
 1431POPC   C4A22098  24.303  35.616   7.816
 1431POPC   C1B22099  24.767  35.612   8.718
 1431POPC   C2B22100  24.558  35.633   8.362
 1431POPC   C3B22101  24.786  35.629   7.999
 1431POPC   C4B22102  24.731  35.292   7.726
 1432POPC   NC322103  16.347  40.940   9.704
 1432POPC   PO422104  16.965  40.533   9.572
 1432POPC   GL122105  16.857  40.591   9.166
 1432POPC   GL222106  16.513  40.588   9.224
 1432POPC   C1A22107  16.787  40.732   8.722
 1432POPC   D2A22108  16.899  40.656   8.280
 1432POPC   C3A22109  16.811  40.967   7.940
 1432POPC   C4A22110  16.687  40.943   7.488
 1432POPC   C1B22111  16.532  40.322   8.850
 1432POPC   C2B22112  16.372  40.422   8.461
 1432POPC   C3B22113  16.386  40.700   8.139
 1432POPC   C4B22114  16.273  40.532   7.752
 1433POPC   NC322115  25.478  12.865   9.621
 1433POPC   PO422116  24.906  13.008   9.299
 1433POPC   GL122117  25.210  12.747   9.146
 1433POPC   GL222118  25.033  12.493   8.988
 1433POPC   C1A22119  25.362  12.893   8.756
 1433POPC   D2A22120  25.137  13.016   8.369
 1433POPC   C3A22121  25.236  12.891   7.990
 1433POPC   C4A22122  25.443  12.964   7.618
 1433POPC   C1B22123  24.871  12.344   8.603
 1433POPC   C2B22124  24.873  12.563   8.212
 1433POPC   C3B22125  25.044  12.464   7.792
 1433POPC   C4B22126  25.033  12.699   7.417
 1434POPC   NC322127  33.747  36.579   9.366
 1434POPC   PO422128  34.059  37.192   9.536
 1434POPC   GL122129  33.879  37.109   9.171
 1434POPC   GL222130  34.136  36.863   9.105
 1434POPC   C1A22131  33.866  37.210   8.744
 1434POPC   D2A22132  33.767  36.969   8.386
 1434POPC   C3A22133  33.757  37.103   7.986
 1434POPC   C4A22134  33.459  36.907   7.767
 1434POPC   C1B22135  33.947  36.647   8.762
 1434POPC   C2B22136  33.957  36.476   8.375
 1434POPC   C3B22137  33.716  36.543   8.043
 1434POPC   C4B22138  33.782  36.559   7.605
 1435POPC   NC322139   9.253  38.942   9.305
 1435POPC   PO422140   9.522  39.539   9.276
 1435POPC   GL122141   9.586  39.219   8.973
 1435POPC   GL222142   9.719  38.919   9.112
 1435POPC   C1A22143   9.801  39.122   8.588
 1435POPC   D2A22144   9.961  39.294   8.206
 1435POPC   C3A22145   9.712  39.534   7.894
 1435POPC   C4A22146   9.848  39.264   7.589
 1435POPC   C1B22147   9.438  38.784   8.727
 1435POPC   C2B22148   9.514  38.794   8.298
 1435POPC   C3B22149   9.532  39.068   7.942
 1435POPC   C4B22150   9.458  39.001   7.460
 1436POPC   NC322151   2.433  23.332   9.760
 1436POPC   PO422152   2.013  23.757   9.385
 1436POPC   GL122153   1.913  23.550   9.069
 1436POPC   GL222154   1.613  23.399   9.161
 1436POPC   C1A22155   2.038  23.678   8.681
 1436POPC   D2A22156   2.232  23.876   8.385
 1436POPC   C3A22157   2.096  23.714   8.045
 1436POPC   C4A22158   1.981  23.904   7.686
 1436POPC   C1B22159   1.563  23.506   8.718
 1436POPC   C2B22160   1.758  23.430   8.310
 1436POPC   C3B22161   1.597  23.563   7.899
 1436POPC   C4B22162   1.642  23.677   7.392
 1437POPC   NC322163   0.899  38.958   9.537
 1437POPC   PO422164   1.430  39.270   9.346
 1437POPC   GL122165   1.082  39.159   9.125
 1437POPC   GL222166   0.946  39.507   9.234
 1437POPC   C1A22167   1.139  39.006   8.713
 1437POPC   D2A22168   1.425  39.335   8.553
 1437POPC   C3A22169   1.400  39.333   8.125
 1437POPC   C4A22170   1.189  39.047   7.859
 1437POPC   C1B22171   0.979  39.487   8.776
 1437POPC   C2B22172   0.874  39.304   8.354
 1437POPC   C3B22173   0.929  39.481   7.929
 1437POPC   C4B22174   1.311  39.525   7.646
 1438POPC   NC322175  13.765  19.373   9.432
 1438POPC   PO422176  13.157  19.359   9.743
 1438POPC   GL122177  13.395  19.053   9.332
 1438POPC   GL222178  13.278  18.792   9.197
 1438POPC   C1A22179  13.451  19.108   8.806
 1438POPC   D2A22180  13.418  19.127   8.310
 1438POPC   C3A22181  13.709  19.240   7.981
 1438POPC   C4A22182  13.828  19.098   7.587
 1438POPC   C1B22183  13.687  18.687   8.936
 1438POPC   C2B22184  13.876  18.684   8.517
 1438POPC   C3B22185  13.891  18.730   8.050
 1438POPC   C4B22186  13.637  18.630   7.679
 1439POPC   NC322187  35.146  42.166   9.401
 1439POPC   PO422188  35.750  42.410   9.532
 1439POPC   GL122189  35.536  42.421   9.147
 1439POPC   GL222190  35.590  42.057   9.152
 1439POPC   C1A22191  35.370  42.528   8.709
 1439POPC   D2A22192  35.194  42.264   8.369
 1439POPC   C3A22193  35.026  42.370   7.993
 1439POPC   C4A22194  35.330  42.462   7.706
 1439POPC   C1B22195  35.372  41.998   8.776
 1439POPC   C2B22196  35.483  41.839   8.364
 1439POPC   C3B22197  35.416  42.005   7.953
 1439POPC   C4B22198  35.350  41.833   7.535
 1440POPC   NC322199  19.816   8.746   9.424
 1440POPC   PO422200  19.477   9.384   9.470
 1440POPC   GL122201  19.688   9.172   9.154
 1440POPC   GL222202  19.994   9.252   9.072
 1440POPC   C1A22203  19.736   8.942   8.768
 1440POPC   D2A22204  19.671   9.098   8.375
 1440POPC   C3A22205  19.657   8.756   8.137
 1440POPC   C4A22206  19.792   8.765   7.741
 1440POPC   C1B22207  20.184   9.197   8.732
 1440POPC   C2B22208  20.161   8.953   8.411
 1440POPC   C3B22209  20.126   9.013   8.026
 1440POPC   C4B22210  20.419   9.106   7.773
 1441POPC   NC322211   4.793   5.647   9.284
 1441POPC   PO422212   4.193   5.685   9.641
 1441POPC   GL122213   4.326   5.897   9.212
 1441POPC   GL222214   4.235   6.212   9.237
 1441POPC   C1A22215   4.466   6.044   8.778
 1441POPC   D2A22216   4.421   5.921   8.358
 1441POPC   C3A22217   4.500   6.067   7.961
 1441POPC   C4A22218   4.206   5.878   7.633
 1441POPC   C1B22219   3.961   6.130   8.903
 1441POPC   C2B22220   3.976   6.204   8.475
 1441POPC   C3B22221   3.997   6.067   8.065
 1441POPC   C4B22222   3.845   6.224   7.687
 1442POPC   NC322223  21.217   0.078   9.418
 1442POPC   PO422224  20.942   0.637   9.333
 1442POPC   GL122225  21.224   0.420   9.026
 1442POPC   GL222226  21.152   0.081   8.916
 1442POPC   C1A22227  21.378   0.402   8.597
 1442POPC   D2A22228  21.190   0.405   8.194
 1442POPC   C3A22229  21.500   0.297   7.931
 1442POPC   C4A22230  21.758   0.006   7.720
 1442POPC   C1B22231  20.853   0.280   8.617
 1442POPC   C2B22232  20.698   0.254   8.170
 1442POPC   C3B22233  20.820   0.437   7.761
 1442POPC   C4B22234  20.864   0.392   7.287
 1443POPC   NC322235  10.165  38.647   9.568
 1443POPC   PO422236   9.452  38.551   9.483
 1443POPC   GL122237   9.570  38.428   9.099
 1443POPC   GL222238   9.916  38.434   9.167
 1443POPC   C1A22239   9.691  38.348   8.718
 1443POPC   D2A22240   9.927  38.389   8.404
 1443POPC   C3A22241   9.632  38.317   8.115
 1443POPC   C4A22242   9.460  38.598   7.816
 1443POPC   C1B22243  10.057  38.730   8.801
 1443POPC   C2B22244  10.191  38.836   8.364
 1443POPC   C3B22245   9.939  38.734   8.012
 1443POPC   C4B22246   9.889  38.770   7.582
 1444POPC   NC322247  22.267   5.379   9.395
 1444POPC   PO422248  22.550   4.915   9.335
 1444POPC   GL122249  22.349   5.082   8.972
 1444POPC   GL222250  22.006   5.035   8.963
 1444POPC   C1A22251  22.227   5.416   8.693
 1444POPC   D2A22252  22.146   5.517   8.266
 1444POPC   C3A22253  21.925   5.366   7.934
 1444POPC   C4A22254  21.986   5.130   7.548
 1444POPC   C1B22255  21.917   5.074   8.498
 1444POPC   C2B22256  22.134   4.937   8.114
 1444POPC   C3B22257  22.159   4.650   7.745
 1444POPC   C4B22258  22.173   4.539   7.305
 1445POPC   NC322259  39.465  29.390   9.485
 1445POPC   PO422260  39.044  28.920   9.637
 1445POPC   GL122261  39.005  29.117   9.238
 1445POPC   GL222262  38.942  29.465   9.323
 1445POPC   C1A22263  39.106  28.995   8.783
 1445POPC   D2A22264  39.446  29.104   8.460
 1445POPC   C3A22265  39.290  29.130   8.054
 1445POPC   C4A22266  39.304  28.918   7.669
 1445POPC   C1B22267  38.989  29.478   8.877
 1445POPC   C2B22268  39.059  29.419   8.444
 1445POPC   C3B22269  38.836  29.417   8.067
 1445POPC   C4B22270  39.085  29.457   7.710
 1446POPC   NC322271  33.239  41.023   9.719
 1446POPC   PO422272  33.067  40.485   9.540
 1446POPC   GL122273  33.083  40.779   9.211
 1446POPC   GL222274  33.174  40.505   9.033
 1446POPC   C1A22275  33.095  40.947   8.781
 1446POPC   D2A22276  32.925  40.796   8.373
 1446POPC   C3A22277  33.033  40.916   7.965
 1446POPC   C4A22278  32.938  40.850   7.528
 1446POPC   C1B22279  32.791  40.508   8.794
 1446POPC   C2B22280  32.608  40.378   8.395
 1446POPC   C3B22281  32.740  40.444   7.976
 1446POPC   C4B22282  33.107  40.435   7.767
 1447POPC   NC322283   6.143  14.216   9.379
 1447POPC   PO422284   5.691  14.641   9.596
 1447POPC   GL122285   5.660  14.588   9.146
 1447POPC   GL222286   5.764  14.262   9.062
 1447POPC   C1A22287   5.625  14.547   8.670
 1447POPC   D2A22288   5.818  14.499   8.281
 1447POPC   C3A22289   5.700  14.766   7.992
 1447POPC   C4A22290   5.502  14.775   7.639
 1447POPC   C1B22291   6.029  14.240   8.674
 1447POPC   C2B22292   6.155  14.119   8.254
 1447POPC   C3B22293   6.116  14.323   7.851
 1447POPC   C4B22294   6.215  14.127   7.439
 1448POPC   NC322295  27.206  28.289   9.571
 1448POPC   PO422296  26.562  28.234   9.488
 1448POPC   GL122297  26.813  28.361   9.100
 1448POPC   GL222298  27.095  28.640   9.161
 1448POPC   C1A22299  26.798  28.316   8.610
 1448POPC   D2A22300  26.519  28.381   8.229
 1448POPC   C3A22301  26.615  28.195   7.826
 1448POPC   C4A22302  26.593  28.013   7.408
 1448POPC   C1B22303  26.822  28.777   8.814
 1448POPC   C2B22304  26.811  28.809   8.379
 1448POPC   C3B22305  26.778  28.710   7.931
 1448POPC   C4B22306  26.675  28.577   7.482
 1449POPC   NC322307  41.752   2.898   9.463
 1449POPC   PO422308  41.137   2.628   9.683
 1449POPC   GL122309  41.371   2.377   9.230
 1449POPC   GL222310  41.730   2.485   9.177
 1449POPC   C1A22311  41.421   2.581   8.739
 1449POPC   D2A22312  41.346   2.467   8.326
 1449POPC   C3A22313  41.442   2.781   8.055
 1449POPC   C4A22314  41.258   2.899   7.649
 1449POPC   C1B22315  41.856   2.338   8.783
 1449POPC   C2B22316  42.001   2.351   8.422
 1449POPC   C3B22317  41.797   2.365   8.044
 1449POPC   C4B22318  41.810   2.683   7.732
 1450POPC   NC322319   6.138  20.777   9.402
 1450POPC   PO422320   5.407  20.787   9.488
 1450POPC   GL122321   5.669  20.842   9.167
 1450POPC   GL222322   5.765  20.495   9.170
 1450POPC   C1A22323   5.905  20.863   8.781
 1450POPC   D2A22324   6.049  20.683   8.388
 1450POPC   C3A22325   5.884  20.845   8.005
 1450POPC   C4A22326   5.962  20.723   7.610
 1450POPC   C1B22327   5.856  20.260   8.814
 1450POPC   C2B22328   5.720  20.304   8.402
 1450POPC   C3B22329   5.867  20.327   7.980
 1450POPC   C4B22330   5.667  20.272   7.552
 1451POPC   NC322331  34.680  44.205   9.462
 1451POPC   PO422332  34.558  43.490   9.666
 1451POPC   GL122333  34.768  43.737   9.276
 1451POPC   GL222334  34.483  43.969   9.082
 1451POPC   C1A22335  34.822  43.738   8.788
 1451POPC   D2A22336  34.640  43.566   8.409
 1451POPC   C3A22337  34.545  43.600   7.974
 1451POPC   C4A22338  34.815  43.658   7.657
 1451POPC   C1B22339  34.725  44.241   8.809
 1451POPC   C2B22340  34.563  44.208   8.407
 1451POPC   C3B22341  34.516  44.093   7.969
 1451POPC   C4B22342  34.853  44.178   7.722
 1452POPC   NC322343  27.594  18.979   9.827
 1452POPC   PO422344  27.571  18.645   9.271
 1452POPC   GL122345  27.595  18.950   9.058
 1452POPC   GL222346  27.606  19.205   9.300
 1452POPC   C1A22347  27.355  18.945   8.705
 1452POPC   D2A22348  27.562  18.745   8.375
 1452POPC   C3A22349  27.566  18.919   7.975
 1452POPC   C4A22350  27.946  18.922   7.694
 1452POPC   C1B22351  27.616  19.387   8.831
 1452POPC   C2B22352  27.436  19.373   8.422
 1452POPC   C3B22353  27.571  19.423   8.026
 1452POPC   C4B22354  27.586  19.270   7.609
 1453POPC   NC322355  26.521  19.260   9.322
 1453POPC   PO422356  26.017  19.822   9.457
 1453POPC   GL122357  25.950  19.797   9.092
 1453POPC   GL222358  26.144  19.488   9.036
 1453POPC   C1A22359  26.127  19.856   8.705
 1453POPC   D2A22360  25.938  19.719   8.356
 1453POPC   C3A22361  26.092  19.870   8.010
 1453POPC   C4A22362  26.295  19.699   7.644
 1453POPC   C1B22363  25.772  19.448   8.765
 1453POPC   C2B22364  25.597  19.355   8.345
 1453POPC   C3B22365  25.676  19.571   7.927
 1453POPC   C4B22366  25.817  19.650   7.497
 1454POPC   NC322367  33.282  27.191   9.430
 1454POPC   PO422368  33.285  26.515   9.478
 1454POPC   GL122369  33.217  26.746   9.087
 1454POPC   GL222370  32.941  27.001   9.064
 1454POPC   C1A22371  33.094  26.673   8.641
 1454POPC   D2A22372  32.877  26.874   8.279
 1454POPC   C3A22373  32.893  26.679   7.859
 1454POPC   C4A22374  33.172  26.785   7.499
 1454POPC   C1B22375  33.263  27.152   8.752
 1454POPC   C2B22376  33.384  26.980   8.322
 1454POPC   C3B22377  33.212  27.089   7.933
 1454POPC   C4B22378  33.283  27.275   7.557
 1455POPC   NC322379  14.890  41.743   9.439
 1455POPC   PO422380  15.402  41.402   9.465
 1455POPC   GL122381  15.527  41.489   9.079
 1455POPC   GL222382  15.343  41.801   9.037
 1455POPC   C1A22383  15.239  41.401   8.729
 1455POPC   D2A22384  14.959  41.577   8.421
 1455POPC   C3A22385  15.034  41.425   8.022
 1455POPC   C4A22386  14.942  41.565   7.644
 1455POPC   C1B22387  15.366  41.886   8.620
 1455POPC   C2B22388  15.367  41.970   8.206
 1455POPC   C3B22389  15.356  41.786   7.859
 1455POPC   C4B22390  15.445  41.487   7.600
 1456POPC   NC322391  14.759  16.796   9.478
 1456POPC   PO422392  15.383  16.681   9.420
 1456POPC   GL122393  15.043  16.634   9.094
 1456POPC   GL222394  14.848  16.331   9.221
 1456POPC   C1A22395  14.899  16.832   8.668
 1456POPC   D2A22396  15.002  16.935   8.193
 1456POPC   C3A22397  15.328  16.697   7.929
 1456POPC   C4A22398  15.539  16.672   7.523
 1456POPC   C1B22399  14.875  16.325   8.734
 1456POPC   C2B22400  14.716  16.513   8.300
 1456POPC   C3B22401  14.855  16.586   7.841
 1456POPC   C4B22402  15.127  16.268   7.622
 1457POPC   NC322403  18.943  33.615   9.660
 1457POPC   PO422404  19.445  33.865   9.302
 1457POPC   GL122405  19.190  33.876   9.003
 1457POPC   GL222406  19.279  33.519   8.944
 1457POPC   C1A22407  19.119  34.150   8.633
 1457POPC   D2A22408  18.896  34.141   8.229
 1457POPC   C3A22409  19.106  33.994   7.886
 1457POPC   C4A22410  19.220  33.577   7.843
 1457POPC   C1B22411  19.070  33.630   8.579
 1457POPC   C2B22412  18.699  33.486   8.390
 1457POPC   C3B22413  18.658  33.442   7.960
 1457POPC   C4B22414  18.703  33.391   7.495
 1458POPC   NC322415  38.772   4.383   9.396
 1458POPC   PO422416  38.139   4.210   9.453
 1458POPC   GL122417  38.150   4.090   9.043
 1458POPC   GL222418  38.504   4.121   9.013
 1458POPC   C1A22419  38.264   4.227   8.604
 1458POPC   D2A22420  38.537   4.543   8.411
 1458POPC   C3A22421  38.543   4.565   7.971
 1458POPC   C4A22422  38.362   4.554   7.556
 1458POPC   C1B22423  38.751   4.062   8.573
 1458POPC   C2B22424  38.777   4.080   8.105
 1458POPC   C3B22425  38.557   4.109   7.713
 1458POPC   C4B22426  38.690   4.019   7.317
 1459POPC   NC322427  33.721  34.972   9.578
 1459POPC   PO422428  33.524  35.684   9.477
 1459POPC   GL122429  33.752  35.500   9.106
 1459POPC   GL222430  33.740  35.124   9.088
 1459POPC   C1A22431  33.619  35.396   8.681
 1459POPC   D2A22432  33.474  35.547   8.282
 1459POPC   C3A22433  33.745  35.516   7.920
 1459POPC   C4A22434  33.824  35.702   7.490
 1459POPC   C1B22435  34.000  35.075   8.711
 1459POPC   C2B22436  33.795  35.081   8.309
 1459POPC   C3B22437  33.967  35.005   7.933
 1459POPC   C4B22438  34.053  35.256   7.596
 1460POPC   NC322439  39.891   3.225   9.458
 1460POPC   PO422440  40.353   2.686   9.538
 1460POPC   GL122441  40.095   2.800   9.223
 1460POPC   GL222442  40.254   3.094   9.118
 1460POPC   C1A22443  39.874   2.774   8.838
 1460POPC   D2A22444  39.884   2.508   8.491
 1460POPC   C3A22445  39.977   2.744   8.174
 1460POPC   C4A22446  39.845   2.847   7.826
 1460POPC   C1B22447  40.395   3.290   8.770
 1460POPC   C2B22448  40.323   3.447   8.373
 1460POPC   C3B22449  40.174   3.216   8.008
 1460POPC   C4B22450  40.327   3.105   7.620
 1461POPC   NC322451   0.031  20.100   9.474
 1461POPC   PO422452  44.631  20.588   9.620
 1461POPC   GL122453  44.784  20.508   9.214
 1461POPC   GL222454  44.572  20.224   9.228
 1461POPC   C1A22455  44.773  20.676   8.790
 1461POPC   D2A22456  44.646  20.920   8.413
 1461POPC   C3A22457  44.879  20.737   8.110
 1461POPC   C4A22458  44.956  20.630   7.701
 1461POPC   C1B22459  44.388  20.327   8.840
 1461POPC   C2B22460  44.456  20.416   8.434
 1461POPC   C3B22461  44.376  20.578   8.055
 1461POPC   C4B22462  44.443  20.444   7.667
 1462POPC   NC322463   5.588   1.942   9.485
 1462POPC   PO422464   6.184   2.005   9.698
 1462POPC   GL122465   6.043   1.804   9.286
 1462POPC   GL222466   6.006   2.092   9.189
 1462POPC   C1A22467   5.857   1.785   8.820
 1462POPC   D2A22468   5.876   2.041   8.443
 1462POPC   C3A22469   5.766   1.885   8.034
 1462POPC   C4A22470   5.833   1.815   7.650
 1462POPC   C1B22471   6.117   2.282   8.819
 1462POPC   C2B22472   6.193   2.433   8.423
 1462POPC   C3B22473   5.960   2.363   8.056
 1462POPC   C4B22474   5.756   2.347   7.685
 1463POPC   NC322475   6.992  16.855   9.593
 1463POPC   PO422476   7.651  16.717   9.556
 1463POPC   GL122477   7.395  16.531   9.271
 1463POPC   GL222478   7.281  16.831   9.171
 1463POPC   C1A22479   7.467  16.519   8.823
 1463POPC   D2A22480   7.669  16.723   8.488
 1463POPC   C3A22481   7.538  16.577   8.069
 1463POPC   C4A22482   7.381  16.410   7.689
 1463POPC   C1B22483   7.283  17.033   8.787
 1463POPC   C2B22484   7.384  17.170   8.392
 1463POPC   C3B22485   7.246  17.028   8.002
 1463POPC   C4B22486   7.382  16.886   7.625
 1464POPC   NC322487  39.215  10.650   9.644
 1464POPC   PO422488  39.398  10.057   9.671
 1464POPC   GL122489  39.311  10.322   9.273
 1464POPC   GL222490  38.991  10.545   9.169
 1464POPC   C1A22491  39.430  10.622   8.930
 1464POPC   D2A22492  39.473  10.758   8.486
 1464POPC   C3A22493  39.356  10.405   8.181
 1464POPC   C4A22494  39.359  10.305   7.733
 1464POPC   C1B22495  38.974  10.392   8.742
 1464POPC   C2B22496  38.884  10.218   8.346
 1464POPC   C3B22497  38.897  10.387   7.922
 1464POPC   C4B22498  38.835  10.784   7.786
 1465POPC   NC322499  21.493  31.851   9.342
 1465POPC   PO422500  20.915  31.495   9.467
 1465POPC   GL122501  21.242  31.424   9.145
 1465POPC   GL222502  21.612  31.363   9.225
 1465POPC   C1A22503  21.290  31.413   8.681
 1465POPC   D2A22504  21.040  31.374   8.280
 1465POPC   C3A22505  21.257  31.543   7.924
 1465POPC   C4A22506  21.341  31.298   7.561
 1465POPC   C1B22507  21.783  31.525   8.824
 1465POPC   C2B22508  21.716  31.698   8.411
 1465POPC   C3B22509  21.832  31.576   8.006
 1465POPC   C4B22510  21.879  31.323   7.644
 1466POPC   NC322511  37.199   6.412   9.491
 1466POPC   PO422512  36.677   6.429   9.344
 1466POPC   GL122513  37.049   6.501   9.014
 1466POPC   GL222514  37.268   6.792   9.078
 1466POPC   C1A22515  37.392   6.491   8.665
 1466POPC   D2A22516  37.422   6.749   8.266
 1466POPC   C3A22517  37.050   6.668   8.014
 1466POPC   C4A22518  36.863   6.622   7.608
 1466POPC   C1B22519  37.070   6.885   8.652
 1466POPC   C2B22520  36.705   6.836   8.356
 1466POPC   C3B22521  36.578   6.926   7.930
 1466POPC   C4B22522  36.801   7.121   7.579
 1467POPC   NC322523  25.034  43.580   9.561
 1467POPC   PO422524  25.621  43.973   9.683
 1467POPC   GL122525  25.333  43.937   9.279
 1467POPC   GL222526  25.055  44.181   9.298
 1467POPC   C1A22527  25.215  43.752   8.837
 1467POPC   D2A22528  25.325  43.714   8.358
 1467POPC   C3A22529  24.949  43.695   8.096
 1467POPC   C4A22530  24.900  43.589   7.656
 1467POPC   C1B22531  25.149  44.266   8.851
 1467POPC   C2B22532  25.054  44.128   8.430
 1467POPC   C3B22533  25.157  44.138   7.967
 1467POPC   C4B22534  25.109  44.177   7.480
 1468POPC   NC322535  36.316  36.170   9.441
 1468POPC   PO422536  35.665  36.208   9.571
 1468POPC   GL122537  35.848  36.124   9.106
 1468POPC   GL222538  36.198  36.039   8.974
 1468POPC   C1A22539  35.818  36.038   8.623
 1468POPC   D2A22540  36.041  35.896   8.232
 1468POPC   C3A22541  35.862  36.136   7.904
 1468POPC   C4A22542  35.644  35.891   7.626
 1468POPC   C1B22543  36.513  36.236   8.702
 1468POPC   C2B22544  36.615  36.121   8.284
 1468POPC   C3B22545  36.368  36.136   7.900
 1468POPC   C4B22546  36.497  36.122   7.439
 1469POPC   NC322547  31.699  41.090   9.395
 1469POPC   PO422548  31.419  40.458   9.379
 1469POPC   GL122549  31.731  40.645   9.070
 1469POPC   GL222550  31.472  40.881   8.989
 1469POPC   C1A22551  31.766  40.786   8.607
 1469POPC   D2A22552  31.383  40.983   8.402
 1469POPC   C3A22553  31.430  40.871   7.973
 1469POPC   C4A22554  31.715  41.045   7.652
 1469POPC   C1B22555  31.297  40.575   8.692
 1469POPC   C2B22556  31.036  40.621   8.303
 1469POPC   C3B22557  31.053  40.367   7.929
 1469POPC   C4B22558  31.289  40.488   7.568
 1470POPC   NC322559  25.324  21.802   9.477
 1470POPC   PO422560  25.532  21.173   9.631
 1470POPC   GL122561  25.360  21.205   9.236
 1470POPC   GL222562  25.683  21.199   9.109
 1470POPC   C1A22563  25.277  21.282   8.798
 1470POPC   D2A22564  25.518  21.528   8.508
 1470POPC   C3A22565  25.342  21.585   8.099
 1470POPC   C4A22566  25.521  21.743   7.721
 1470POPC   C1B22567  25.726  21.053   8.697
 1470POPC   C2B22568  25.566  21.095   8.259
 1470POPC   C3B22569  25.472  21.159   7.853
 1470POPC   C4B22570  25.092  21.293   7.712
 1471POPC   NC322571   4.831   9.901   9.499
 1471POPC   PO422572   5.414   9.643   9.431
 1471POPC   GL122573   5.100   9.771   9.073
 1471POPC   GL222574   4.732   9.640   9.048
 1471POPC   C1A22575   5.071   9.761   8.616
 1471POPC   D2A22576   5.414   9.764   8.326
 1471POPC   C3A22577   5.318   9.573   7.959
 1471POPC   C4A22578   5.266   9.474   7.556
 1471POPC   C1B22579   4.606  10.003   8.790
 1471POPC   C2B22580   4.776  10.116   8.370
 1471POPC   C3B22581   5.074  10.053   8.072
 1471POPC   C4B22582   4.965   9.877   7.704
 1472POPC   NC322583   4.724  27.879   9.397
 1472POPC   PO422584   5.245  27.546   9.642
 1472POPC   GL122585   5.145  27.661   9.198
 1472POPC   GL222586   4.813  27.488   9.105
 1472POPC   C1A22587   5.379  27.912   8.871
 1472POPC   D2A22588   5.498  27.855   8.449
 1472POPC   C3A22589   5.289  27.921   8.067
 1472POPC   C4A22590   5.071  27.824   7.681
 1472POPC   C1B22591   4.848  27.356   8.686
 1472POPC   C2B22592   4.883  27.414   8.241
 1472POPC   C3B22593   4.746  27.337   7.808
 1472POPC   C4B22594   4.785  27.506   7.391
 1473POPC   NC322595   3.308  25.036   9.478
 1473POPC   PO422596   3.693  25.502   9.463
 1473POPC   GL122597   3.376  25.434   9.143
 1473POPC   GL222598   3.530  25.173   9.041
 1473POPC   C1A22599   3.207  25.456   8.723
 1473POPC   D2A22600   3.524  25.316   8.410
 1473POPC   C3A22601   3.421  25.215   7.978
 1473POPC   C4A22602   3.191  25.476   7.720
 1473POPC   C1B22603   3.818  25.070   8.767
 1473POPC   C2B22604   4.045  25.261   8.432
 1473POPC   C3B22605   3.913  25.389   8.051
 1473POPC   C4B22606   3.739  25.566   7.705
 1474POPC   NC322607  30.167  35.865   9.563
 1474POPC   PO422608  30.174  36.483   9.248
 1474POPC   GL122609  29.907  36.108   9.106
 1474POPC   GL222610  29.582  35.930   9.197
 1474POPC   C1A22611  29.826  36.176   8.681
 1474POPC   D2A22612  29.846  36.555   8.425
 1474POPC   C3A22613  29.935  36.426   8.020
 1474POPC   C4A22614  29.762  36.393   7.622
 1474POPC   C1B22615  29.486  35.802   8.772
 1474POPC   C2B22616  29.683  35.820   8.351
 1474POPC   C3B22617  29.732  35.948   7.904
 1474POPC   C4B22618  29.968  35.939   7.498
 1475POPC   NC322619  10.800  34.087   9.767
 1475POPC   PO422620  10.219  33.854   9.473
 1475POPC   GL122621  10.262  33.985   9.076
 1475POPC   GL222622  10.451  33.682   9.050
 1475POPC   C1A22623  10.435  33.959   8.644
 1475POPC   D2A22624  10.373  33.712   8.313
 1475POPC   C3A22625  10.491  34.020   8.084
 1475POPC   C4A22626  10.669  34.081   7.748
 1475POPC   C1B22627  10.867  33.696   8.767
 1475POPC   C2B22628  10.921  33.621   8.355
 1475POPC   C3B22629  10.763  33.618   7.949
 1475POPC   C4B22630  10.753  33.643   7.498
 1476POPC   NC322631  32.521   9.804   9.594
 1476POPC   PO422632  31.908  10.066   9.565
 1476POPC   GL122633  31.834   9.946   9.156
 1476POPC   GL222634  31.959   9.627   9.107
 1476POPC   C1A22635  32.011  10.046   8.769
 1476POPC   D2A22636  32.046   9.787   8.401
 1476POPC   C3A22637  32.167   9.985   8.047
 1476POPC   C4A22638  32.533   9.962   7.799
 1476POPC   C1B22639  32.331   9.630   8.808
 1476POPC   C2B22640  32.489   9.552   8.355
 1476POPC   C3B22641  32.354   9.481   7.909
 1476POPC   C4B22642  32.535   9.542   7.496
 1477POPC   NC322643  14.235  25.376   9.642
 1477POPC   PO422644  13.598  25.526   9.408
 1477POPC   GL122645  13.493  25.257   9.082
 1477POPC   GL222646  13.811  25.121   9.024
 1477POPC   C1A22647  13.463  25.038   8.665
 1477POPC   D2A22648  13.578  25.235   8.254
 1477POPC   C3A22649  13.370  25.242   7.885
 1477POPC   C4A22650  13.500  25.146   7.474
 1477POPC   C1B22651  13.871  25.353   8.659
 1477POPC   C2B22652  14.020  25.483   8.293
 1477POPC   C3B22653  13.849  25.638   7.914
 1477POPC   C4B22654  13.696  25.594   7.519
 1478POPC   NC322655   2.541   7.682   9.680
 1478POPC   PO422656   2.959   7.149   9.667
 1478POPC   GL122657   2.946   7.400   9.277
 1478POPC   GL222658   2.612   7.355   9.195
 1478POPC   C1A22659   2.999   7.458   8.817
 1478POPC   D2A22660   3.114   7.270   8.403
 1478POPC   C3A22661   2.817   7.402   8.071
 1478POPC   C4A22662   2.778   7.271   7.644
 1478POPC   C1B22663   2.435   7.455   8.758
 1478POPC   C2B22664   2.416   7.592   8.331
 1478POPC   C3B22665   2.329   7.468   7.886
 1478POPC   C4B22666   2.595   7.769   7.684
 1479POPC   NC322667   7.275  42.671   9.533
 1479POPC   PO422668   7.902  42.342   9.554
 1479POPC   GL122669   7.563  42.295   9.289
 1479POPC   GL222670   7.635  42.589   9.144
 1479POPC   C1A22671   7.305  42.299   8.899
 1479POPC   D2A22672   7.226  42.232   8.475
 1479POPC   C3A22673   7.296  42.319   8.058
 1479POPC   C4A22674   7.051  42.216   7.733
 1479POPC   C1B22675   7.792  42.546   8.732
 1479POPC   C2B22676   7.673  42.614   8.276
 1479POPC   C3B22677   7.623  42.621   7.804
 1479POPC   C4B22678   7.756  42.621   7.338
 1480POPC   NC322679  33.269  34.383   9.646
 1480POPC   PO422680  33.944  34.235   9.658
 1480POPC   GL122681  33.999  34.494   9.310
 1480POPC   GL222682  33.707  34.597   9.218
 1480POPC   C1A22683  34.136  34.548   8.857
 1480POPC   D2A22684  34.010  34.635   8.426
 1480POPC   C3A22685  33.930  34.406   8.053
 1480POPC   C4A22686  33.799  34.576   7.658
 1480POPC   C1B22687  33.651  34.712   8.794
 1480POPC   C2B22688  33.481  34.628   8.386
 1480POPC   C3B22689  33.481  34.812   7.978
 1480POPC   C4B22690  33.554  35.108   7.641
 1481POPC   NC322691  36.397  32.569   9.870
 1481POPC   PO422692  35.985  32.172   9.525
 1481POPC   GL122693  36.025  32.115   9.082
 1481POPC   GL222694  35.735  31.951   8.967
 1481POPC   C1A22695  36.231  32.295   8.707
 1481POPC   D2A22696  36.385  32.077   8.340
 1481POPC   C3A22697  36.311  32.254   7.960
 1481POPC   C4A22698  36.398  32.037   7.603
 1481POPC   C1B22699  35.720  32.357   8.689
 1481POPC   C2B22700  35.928  32.478   8.271
 1481POPC   C3B22701  35.842  32.385   7.810
 1481POPC   C4B22702  35.678  32.492   7.403
 1482POPC   NC322703   5.461  14.227   9.475
 1482POPC   PO422704   4.921  14.645   9.403
 1482POPC   GL122705   5.158  14.450   9.098
 1482POPC   GL222706   5.074  14.107   9.087
 1482POPC   C1A22707   5.112  14.504   8.656
 1482POPC   D2A22708   5.282  14.415   8.249
 1482POPC   C3A22709   4.923  14.507   7.971
 1482POPC   C4A22710   4.996  14.761   7.578
 1482POPC   C1B22711   5.401  14.104   8.760
 1482POPC   C2B22712   5.630  14.020   8.388
 1482POPC   C3B22713   5.644  14.128   7.971
 1482POPC   C4B22714   5.298  14.308   7.716
 1483POPC   NC322715  19.325  44.449   9.247
 1483POPC   PO422716  18.809  44.689   9.657
 1483POPC   GL122717  18.817  44.884   9.179
 1483POPC   GL222718  19.097   0.072   9.096
 1483POPC   C1A22719  19.041  44.776   8.699
 1483POPC   D2A22720  19.285  44.760   8.284
 1483POPC   C3A22721  19.009  44.597   7.954
 1483POPC   C4A22722  18.843  44.641   7.531
 1483POPC   C1B22723  18.738   0.169   8.765
 1483POPC   C2B22724  18.728   0.010   8.312
 1483POPC   C3B22725  18.914   0.127   7.912
 1483POPC   C4B22726  18.977   0.109   7.465
 1484POPC   NC322727   8.483  28.940   9.431
 1484POPC   PO422728   7.962  29.520   9.475
 1484POPC   GL122729   8.257  29.343   9.168
 1484POPC   GL222730   7.939  29.352   8.976
 1484POPC   C1A22731   8.323  29.059   8.765
 1484POPC   D2A22732   8.219  28.903   8.320
 1484POPC   C3A22733   8.357  29.108   7.924
 1484POPC   C4A22734   8.339  29.052   7.463
 1484POPC   C1B22735   8.261  29.566   8.718
 1484POPC   C2B22736   8.277  29.494   8.297
 1484POPC   C3B22737   7.914  29.284   8.105
 1484POPC   C4B22738   7.889  29.179   7.685
 1485POPC   NC322739   7.289  18.633   9.499
 1485POPC   PO422740   7.742  18.268   9.191
 1485POPC   GL122741   7.421  18.334   8.977
 1485POPC   GL222742   7.107  18.334   9.119
 1485POPC   C1A22743   7.319  18.066   8.645
 1485POPC   D2A22744   7.461  17.979   8.251
 1485POPC   C3A22745   7.418  18.155   7.893
 1485POPC   C4A22746   7.571  18.484   7.677
 1485POPC   C1B22747   7.061  18.493   8.671
 1485POPC   C2B22748   7.131  18.449   8.219
 1485POPC   C3B22749   7.065  18.474   7.764
 1485POPC   C4B22750   6.908  18.529   7.318
 1486POPC   NC322751   2.346  32.946   9.517
 1486POPC   PO422752   2.902  33.196   9.525
 1486POPC   GL122753   2.672  33.098   9.160
 1486POPC   GL222754   2.385  33.327   9.105
 1486POPC   C1A22755   2.568  32.969   8.778
 1486POPC   D2A22756   2.677  33.131   8.389
 1486POPC   C3A22757   2.784  32.930   8.026
 1486POPC   C4A22758   2.945  32.839   7.629
 1486POPC   C1B22759   2.248  33.325   8.650
 1486POPC   C2B22760   2.304  33.425   8.210
 1486POPC   C3B22761   2.355  33.390   7.756
 1486POPC   C4B22762   2.335  33.247   7.300
 1487POPC   NC322763  20.669   6.124   9.592
 1487POPC   PO422764  20.900   6.763   9.383
 1487POPC   GL122765  20.531   6.727   9.109
 1487POPC   GL222766  20.531   6.376   9.107
 1487POPC   C1A22767  20.465   6.724   8.656
 1487POPC   D2A22768  20.242   6.813   8.278
 1487POPC   C3A22769  20.429   6.725   7.870
 1487POPC   C4A22770  20.268   6.676   7.453
 1487POPC   C1B22771  20.703   6.277   8.686
 1487POPC   C2B22772  20.653   6.399   8.231
 1487POPC   C3B22773  20.634   6.202   7.779
 1487POPC   C4B22774  20.717   5.970   7.367
 1488POPC   NC322775   7.226  21.067   9.535
 1488POPC   PO422776   7.794  21.485   9.417
 1488POPC   GL122777   7.646  21.242   9.081
 1488POPC   GL222778   7.326  21.376   9.113
 1488POPC   C1A22779   7.712  21.244   8.612
 1488POPC   D2A22780   7.597  21.576   8.288
 1488POPC   C3A22781   7.467  21.453   7.877
 1488POPC   C4A22782   7.281  21.059   7.761
 1488POPC   C1B22783   7.263  21.505   8.691
 1488POPC   C2B22784   7.119  21.355   8.293
 1488POPC   C3B22785   6.891  21.325   7.903
 1488POPC   C4B22786   7.142  21.502   7.493
 1489POPC   NC322787   5.610   1.260   9.578
 1489POPC   PO422788   6.232   1.351   9.406
 1489POPC   GL122789   6.003   1.322   9.063
 1489POPC   GL222790   5.654   1.411   9.100
 1489POPC   C1A22791   6.185   1.402   8.673
 1489POPC   D2A22792   6.015   1.571   8.322
 1489POPC   C3A22793   6.104   1.390   7.918
 1489POPC   C4A22794   5.968   1.184   7.527
 1489POPC   C1B22795   5.686   1.312   8.653
 1489POPC   C2B22796   5.547   1.350   8.245
 1489POPC   C3B22797   5.601   1.411   7.821
 1489POPC   C4B22798   5.566   1.479   7.339
 1490POPC   NC322799  17.003  12.533   9.542
 1490POPC   PO422800  16.671  12.951   9.347
 1490POPC   GL122801  16.665  12.596   9.039
 1490POPC   GL222802  16.995  12.484   9.001
 1490POPC   C1A22803  16.669  12.548   8.576
 1490POPC   D2A22804  16.436  12.755   8.224
 1490POPC   C3A22805  16.494  12.658   7.783
 1490POPC   C4A22806  16.534  12.601   7.324
 1490POPC   C1B22807  17.087  12.808   8.660
 1490POPC   C2B22808  16.948  12.816   8.215
 1490POPC   C3B22809  17.022  12.639   7.790
 1490POPC   C4B22810  17.053  12.544   7.331
 1491POPC   NC322811   4.091  24.163   9.520
 1491POPC   PO422812   4.489  23.635   9.448
 1491POPC   GL122813   4.290  23.595   9.080
 1491POPC   GL222814   4.064  23.861   9.098
 1491POPC   C1A22815   4.252  23.400   8.693
 1491POPC   D2A22816   4.236  23.396   8.231
 1491POPC   C3A22817   4.557  23.405   7.917
 1491POPC   C4A22818   4.335  23.659   7.622
 1491POPC   C1B22819   4.187  23.921   8.667
 1491POPC   C2B22820   3.994  23.868   8.261
 1491POPC   C3B22821   4.055  24.028   7.826
 1491POPC   C4B22822   3.935  24.086   7.340
 1492POPC   NC322823   8.283  35.899   9.586
 1492POPC   PO422824   8.668  36.507   9.460
 1492POPC   GL122825   8.327  36.212   9.185
 1492POPC   GL222826   8.278  35.804   9.107
 1492POPC   C1A22827   8.470  36.072   8.745
 1492POPC   D2A22828   8.490  36.336   8.398
 1492POPC   C3A22829   8.252  36.278   8.065
 1492POPC   C4A22830   8.127  36.167   7.680
 1492POPC   C1B22831   8.157  35.603   8.724
 1492POPC   C2B22832   8.344  35.630   8.320
 1492POPC   C3B22833   8.414  35.790   7.896
 1492POPC   C4B22834   8.423  35.788   7.430
 1493POPC   NC322835  11.694  23.042   9.235
 1493POPC   PO422836  11.358  22.597   9.612
 1493POPC   GL122837  11.176  22.577   9.167
 1493POPC   GL222838  10.781  22.577   9.107
 1493POPC   C1A22839  11.350  22.582   8.731
 1493POPC   D2A22840  11.609  22.798   8.396
 1493POPC   C3A22841  11.595  22.634   7.978
 1493POPC   C4A22842  11.503  22.874   7.602
 1493POPC   C1B22843  10.951  22.955   8.884
 1493POPC   C2B22844  11.119  22.987   8.475
 1493POPC   C3B22845  11.251  23.017   8.056
 1493POPC   C4B22846  11.048  23.099   7.665
 1494POPC   NC322847  19.379   8.123   9.537
 1494POPC   PO422848  19.996   8.135   9.631
 1494POPC   GL122849  19.910   8.190   9.168
 1494POPC   GL222850  19.644   8.356   8.973
 1494POPC   C1A22851  20.020   8.018   8.747
 1494POPC   D2A22852  19.880   8.102   8.323
 1494POPC   C3A22853  20.084   8.029   7.914
 1494POPC   C4A22854  19.987   8.125   7.454
 1494POPC   C1B22855  19.414   8.146   8.585
 1494POPC   C2B22856  19.410   8.008   8.146
 1494POPC   C3B22857  19.612   8.296   7.870
 1494POPC   C4B22858  19.443   8.478   7.510
 1495POPC   NC322859  35.390  15.307   9.531
 1495POPC   PO422860  35.871  14.891   9.261
 1495POPC   GL122861  35.476  15.019   9.114
 1495POPC   GL222862  35.094  15.072   9.161
 1495POPC   C1A22863  35.363  15.098   8.716
 1495POPC   D2A22864  35.401  15.338   8.390
 1495POPC   C3A22865  35.267  15.078   8.121
 1495POPC   C4A22866  35.466  14.886   7.805
 1495POPC   C1B22867  35.027  15.444   8.909
 1495POPC   C2B22868  34.917  15.470   8.483
 1495POPC   C3B22869  35.011  15.538   8.075
 1495POPC   C4B22870  35.109  15.279   7.695
 1496POPC   NC322871   9.244  35.524   9.500
 1496POPC   PO422872   8.919  35.047   9.486
 1496POPC   GL122873   8.931  35.239   9.114
 1496POPC   GL222874   8.794  35.550   9.237
 1496POPC   C1A22875   8.928  35.133   8.684
 1496POPC   D2A22876   8.977  34.869   8.311
 1496POPC   C3A22877   9.086  35.120   7.927
 1496POPC   C4A22878   8.970  35.072   7.492
 1496POPC   C1B22879   8.671  35.591   8.815
 1496POPC   C2B22880   8.834  35.710   8.435
 1496POPC   C3B22881   8.846  35.547   8.055
 1496POPC   C4B22882   8.914  35.687   7.663
 1497POPC   NC322883   6.004   3.099   9.240
 1497POPC   PO422884   5.938   3.663   9.613
 1497POPC   GL122885   5.866   3.747   9.183
 1497POPC   GL222886   6.104   4.012   9.115
 1497POPC   C1A22887   5.848   3.569   8.780
 1497POPC   D2A22888   5.824   3.256   8.450
 1497POPC   C3A22889   5.996   3.319   8.060
 1497POPC   C4A22890   5.948   3.331   7.625
 1497POPC   C1B22891   6.120   4.033   8.674
 1497POPC   C2B22892   5.983   3.774   8.340
 1497POPC   C3B22893   5.586   3.639   8.192
 1497POPC   C4B22894   5.395   3.719   7.794
 1498POPC   NC322895  36.469  32.813   9.309
 1498POPC   PO422896  35.932  33.131   9.491
 1498POPC   GL122897  36.089  33.103   9.071
 1498POPC   GL222898  36.421  33.252   9.020
 1498POPC   C1A22899  35.885  32.869   8.717
 1498POPC   D2A22900  35.610  32.899   8.338
 1498POPC   C3A22901  35.795  32.883   7.926
 1498POPC   C4A22902  36.236  32.739   7.823
 1498POPC   C1B22903  36.384  33.002   8.664
 1498POPC   C2B22904  36.157  32.991   8.297
 1498POPC   C3B22905  36.518  33.056   8.098
 1498POPC   C4B22906  36.661  33.131   7.716
 1499POPC   NC322907  10.664  21.646   9.883
 1499POPC   PO422908  10.512  22.222   9.518
 1499POPC   GL122909  10.292  22.137   9.133
 1499POPC   GL222910  10.227  22.509   9.082
 1499POPC   C1A22911  10.380  21.858   8.774
 1499POPC   D2A22912  10.686  21.979   8.467
 1499POPC   C3A22913  10.464  21.878   8.087
 1499POPC   C4A22914  10.453  21.931   7.664
 1499POPC   C1B22915  10.370  22.360   8.680
 1499POPC   C2B22916  10.447  22.385   8.253
 1499POPC   C3B22917  10.695  22.327   7.893
 1499POPC   C4B22918  10.847  22.302   7.435
 1500POPC   NC322919  40.365  31.476   9.782
 1500POPC   PO422920  39.714  31.372   9.540
 1500POPC   GL122921  39.776  31.607   9.170
 1500POPC   GL222922  40.107  31.657   9.123
 1500POPC   C1A22923  39.782  31.413   8.748
 1500POPC   D2A22924  40.029  31.210   8.432
 1500POPC   C3A22925  40.062  31.553   8.142
 1500POPC   C4A22926  40.050  31.822   7.773
 1500POPC   C1B22927  40.248  31.630   8.682
 1500POPC   C2B22928  40.518  31.388   8.368
 1500POPC   C3B22929  40.366  31.173   7.999
 1500POPC   C4B22930  40.090  31.289   7.699
 1501POPC   NC322931  12.512  12.356   9.440
 1501POPC   PO422932  12.943  11.861   9.636
 1501POPC   GL122933  12.895  12.078   9.198
 1501POPC   GL222934  12.614  12.183   8.979
 1501POPC   C1A22935  13.090  12.291   8.824
 1501POPC   D2A22936  13.029  12.460   8.413
 1501POPC   C3A22937  13.170  12.222   8.082
 1501POPC   C4A22938  12.989  12.045   7.729
 1501POPC   C1B22939  12.503  12.569   8.685
 1501POPC   C2B22940  12.618  12.758   8.288
 1501POPC   C3B22941  12.711  12.420   8.004
 1501POPC   C4B22942  12.536  12.262   7.620
 1502POPC   NC322943   8.029   9.808   9.591
 1502POPC   PO422944   7.827   9.304   9.312
 1502POPC   GL122945   7.984   9.662   9.097
 1502POPC   GL222946   7.880  10.000   9.135
 1502POPC   C1A22947   8.177   9.704   8.714
 1502POPC   D2A22948   8.011   9.658   8.308
 1502POPC   C3A22949   8.294   9.798   8.001
 1502POPC   C4A22950   8.357   9.555   7.658
 1502POPC   C1B22951   7.774  10.012   8.710
 1502POPC   C2B22952   7.852  10.135   8.281
 1502POPC   C3B22953   7.848   9.979   7.856
 1502POPC   C4B22954   7.779   9.570   7.622
 1503POPC   NC322955   0.660  17.741   9.428
 1503POPC   PO422956   0.277  18.360   9.454
 1503POPC   GL122957   0.451  18.359   9.060
 1503POPC   GL222958   0.551  18.026   9.002
 1503POPC   C1A22959   0.256  18.348   8.660
 1503POPC   D2A22960   0.242  18.039   8.325
 1503POPC   C3A22961   0.269  18.279   7.966
 1503POPC   C4A22962   0.438  18.563   7.685
 1503POPC   C1B22963   0.738  18.150   8.615
 1503POPC   C2B22964   0.743  18.231   8.172
 1503POPC   C3B22965   0.742  18.139   7.737
 1503POPC   C4B22966   0.620  17.843   7.380
 1504POPC   NC322967  22.464  42.840   9.786
 1504POPC   PO422968  21.890  43.186   9.617
 1504POPC   GL122969  22.169  43.264   9.231
 1504POPC   GL222970  22.359  42.978   9.252
 1504POPC   C1A22971  22.045  43.145   8.802
 1504POPC   D2A22972  22.124  42.955   8.436
 1504POPC   C3A22973  21.959  43.056   8.044
 1504POPC   C4A22974  22.068  43.142   7.620
 1504POPC   C1B22975  22.488  42.913   8.822
 1504POPC   C2B22976  22.620  42.890   8.388
 1504POPC   C3B22977  22.471  43.005   7.977
 1504POPC   C4B22978  22.555  43.089   7.548
 1505POPC   NC322979  10.184  14.495   9.214
 1505POPC   PO422980  10.715  14.215   9.545
 1505POPC   GL122981  10.679  14.438   9.191
 1505POPC   GL222982  10.583  14.161   9.034
 1505POPC   C1A22983  10.718  14.733   8.846
 1505POPC   D2A22984  10.653  14.909   8.411
 1505POPC   C3A22985  10.523  14.648   8.074
 1505POPC   C4A22986  10.813  14.369   7.845
 1505POPC   C1B22987  10.493  14.328   8.629
 1505POPC   C2B22988  10.221  14.184   8.315
 1505POPC   C3B22989  10.361  14.156   7.901
 1505POPC   C4B22990  10.338  14.499   7.615
 1506POPC   NC322991  14.751   7.351   9.454
 1506POPC   PO422992  15.350   7.213   9.697
 1506POPC   GL122993  15.266   7.305   9.271
 1506POPC   GL222994  15.590   7.200   9.175
 1506POPC   C1A22995  15.044   7.326   8.845
 1506POPC   D2A22996  14.925   7.669   8.528
 1506POPC   C3A22997  15.029   7.635   8.085
 1506POPC   C4A22998  14.863   7.308   7.804
 1506POPC   C1B22999  15.517   7.504   8.833
 1506POPC   C2B23000  15.361   7.408   8.434
 1506POPC   C3B23001  15.477   7.371   8.048
 1506POPC   C4B23002  15.645   7.497   7.699
 1507POPC   NC323003  28.228   5.530   9.345
 1507POPC   PO423004  28.592   6.065   9.472
 1507POPC   GL123005  28.649   5.769   9.126
 1507POPC   GL223006  28.327   5.849   8.970
 1507POPC   C1A23007  28.586   5.499   8.740
 1507POPC   D2A23008  28.579   5.752   8.354
 1507POPC   C3A23009  28.186   5.838   8.149
 1507POPC   C4A23010  28.134   5.932   7.735
 1507POPC   C1B23011  28.600   6.116   8.731
 1507POPC   C2B23012  28.420   6.246   8.370
 1507POPC   C3B23013  28.574   6.153   7.968
 1507POPC   C4B23014  28.693   6.209   7.550
 1508POPC   NC323015  38.850  14.597   9.358
 1508POPC   PO423016  39.344  14.416   9.716
 1508POPC   GL123017  39.240  14.282   9.207
 1508POPC   GL223018  39.120  14.531   8.945
 1508POPC   C1A23019  39.122  14.074   8.732
 1508POPC   D2A23020  39.263  13.941   8.272
 1508POPC   C3A23021  39.125  14.178   7.906
 1508POPC   C4A23022  39.068  14.613   7.804
 1508POPC   C1B23023  39.468  14.443   8.665
 1508POPC   C2B23024  39.396  14.449   8.240
 1508POPC   C3B23025  39.537  14.737   7.959
 1508POPC   C4B23026  39.437  14.882   7.540
 1509POPC   NC323027  20.715  39.144   9.510
 1509POPC   PO423028  20.048  39.331   9.526
 1509POPC   GL123029  20.310  39.413   9.181
 1509POPC   GL223030  20.381  39.092   9.104
 1509POPC   C1A23031  20.181  39.377   8.716
 1509POPC   D2A23032  20.103  39.317   8.258
 1509POPC   C3A23033  20.475  39.323   7.958
 1509POPC   C4A23034  20.716  39.464   7.583
 1509POPC   C1B23035  20.674  39.261   8.782
 1509POPC   C2B23036  20.801  39.207   8.343
 1509POPC   C3B23037  20.905  39.022   7.904
 1509POPC   C4B23038  20.876  39.004   7.419
 1510POPC   NC323039  37.907  17.163   9.515
 1510POPC   PO423040  37.768  16.465   9.405
 1510POPC   GL123041  37.595  16.716   9.064
 1510POPC   GL223042  37.637  17.058   9.085
 1510POPC   C1A23043  37.646  16.858   8.604
 1510POPC   D2A23044  37.956  16.959   8.251
 1510POPC   C3A23045  37.936  16.675   7.894
 1510POPC   C4A23046  37.567  16.575   7.634
 1510POPC   C1B23047  37.253  17.088   8.833
 1510POPC   C2B23048  37.156  17.004   8.392
 1510POPC   C3B23049  37.423  16.877   8.044
 1510POPC   C4B23050  37.727  17.129   7.803
 1511POPC   NC323051  38.817  23.449   9.186
 1511POPC   PO423052  38.220  23.517   9.587
 1511POPC   GL123053  38.311  23.631   9.155
 1511POPC   GL223054  38.085  23.901   9.068
 1511POPC   C1A23055  38.378  23.656   8.704
 1511POPC   D2A23056  38.629  23.758   8.333
 1511POPC   C3A23057  38.629  23.625   7.902
 1511POPC   C4A23058  38.629  23.917   7.556
 1511POPC   C1B23059  37.862  23.833   8.704
 1511POPC   C2B23060  38.113  23.928   8.362
 1511POPC   C3B23061  38.194  23.880   7.954
 1511POPC   C4B23062  38.134  24.034   7.541
 1512POPC   NC323063  21.675  40.672   9.488
 1512POPC   PO423064  21.016  40.629   9.355
 1512POPC   GL123065  21.329  40.708   9.110
 1512POPC   GL223066  21.335  41.035   9.220
 1512POPC   C1A23067  21.580  40.868   8.794
 1512POPC   D2A23068  21.652  40.663   8.397
 1512POPC   C3A23069  21.528  40.802   8.000
 1512POPC   C4A23070  21.343  40.505   7.752
 1512POPC   C1B23071  21.095  41.060   8.816
 1512POPC   C2B23072  21.246  40.993   8.423
 1512POPC   C3B23073  21.114  41.130   8.108
 1512POPC   C4B23074  21.116  40.965   7.745
 1513POPC   NC323075  37.088  27.829   9.485
 1513POPC   PO423076  37.060  27.164   9.274
 1513POPC   GL123077  37.127  27.557   9.052
 1513POPC   GL223078  36.775  27.722   9.069
 1513POPC   C1A23079  37.097  27.860   8.705
 1513POPC   D2A23080  36.768  27.866   8.401
 1513POPC   C3A23081  36.878  27.644   8.037
 1513POPC   C4A23082  36.939  27.783   7.631
 1513POPC   C1B23083  36.755  27.416   8.680
 1513POPC   C2B23084  36.682  27.203   8.246
 1513POPC   C3B23085  36.645  27.244   7.782
 1513POPC   C4B23086  36.618  27.468   7.361
 1514POPC   NC323087  27.971  31.629   9.554
 1514POPC   PO423088  27.323  31.619   9.455
 1514POPC   GL123089  27.659  31.508   9.173
 1514POPC   GL223090  27.424  31.407   8.965
 1514POPC   C1A23091  27.818  31.691   8.803
 1514POPC   D2A23092  27.720  31.500   8.413
 1514POPC   C3A23093  27.694  31.698   8.025
 1514POPC   C4A23094  27.797  31.559   7.605
 1514POPC   C1B23095  27.265  31.319   8.585
 1514POPC   C2B23096  27.225  31.538   8.218
 1514POPC   C3B23097  27.295  31.442   7.807
 1514POPC   C4B23098  27.124  31.124   7.530
 1515POPC   NC323099   4.121   4.682   9.490
 1515POPC   PO423100   4.406   4.127   9.585
 1515POPC   GL123101   4.298   4.152   9.177
 1515POPC   GL223102   3.978   4.325   9.168
 1515POPC   C1A23103   4.581   4.115   8.793
 1515POPC   D2A23104   4.787   4.050   8.378
 1515POPC   C3A23105   4.665   4.268   7.996
 1515POPC   C4A23106   4.481   4.150   7.562
 1515POPC   C1B23107   4.244   4.546   8.846
 1515POPC   C2B23108   4.457   4.466   8.446
 1515POPC   C3B23109   4.309   4.606   8.080
 1515POPC   C4B23110   3.956   4.731   7.846
 1516POPC   NC323111  40.456  34.136   9.380
 1516POPC   PO423112  39.765  34.204   9.416
 1516POPC   GL123113  39.960  33.778   9.165
 1516POPC   GL223114  40.322  33.645   9.097
 1516POPC   C1A23115  40.028  33.704   8.696
 1516POPC   D2A23116  39.984  34.105   8.481
 1516POPC   C3A23117  39.907  34.085   8.027
 1516POPC   C4A23118  39.864  33.946   7.604
 1516POPC   C1B23119  40.519  33.840   8.695
 1516POPC   C2B23120  40.361  33.889   8.254
 1516POPC   C3B23121  40.222  33.690   7.881
 1516POPC   C4B23122  40.340  33.822   7.444
 1517POPC   NC323123  25.055   6.718   9.646
 1517POPC   PO423124  25.430   6.227   9.349
 1517POPC   GL123125  25.484   6.667   9.213
 1517POPC   GL223126  25.185   6.870   9.178
 1517POPC   C1A23127  25.539   6.776   8.792
 1517POPC   D2A23128  25.378   6.570   8.387
 1517POPC   C3A23129  25.446   6.848   8.028
 1517POPC   C4A23130  25.619   6.779   7.645
 1517POPC   C1B23131  25.060   6.665   8.801
 1517POPC   C2B23132  25.026   6.908   8.411
 1517POPC   C3B23133  24.977   6.678   8.028
 1517POPC   C4B23134  25.156   6.522   7.680
 1518POPC   NC323135  42.021  42.132   9.440
 1518POPC   PO423136  42.296  41.534   9.495
 1518POPC   GL123137  42.061  41.437   9.145
 1518POPC   GL223138  41.921  41.756   9.098
 1518POPC   C1A23139  42.068  41.218   8.756
 1518POPC   D2A23140  42.336  41.116   8.399
 1518POPC   C3A23141  42.347  41.432   8.104
 1518POPC   C4A23142  42.164  41.428   7.706
 1518POPC   C1B23143  42.145  41.754   8.718
 1518POPC   C2B23144  42.188  41.915   8.293
 1518POPC   C3B23145  42.299  41.888   7.867
 1518POPC   C4B23146  42.649  41.697   7.746
 1519POPC   NC323147  37.079  22.620   9.565
 1519POPC   PO423148  36.608  23.083   9.435
 1519POPC   GL123149  37.004  23.029   9.151
 1519POPC   GL223150  37.218  22.714   9.096
 1519POPC   C1A23151  37.048  23.163   8.709
 1519POPC   D2A23152  36.780  23.150   8.323
 1519POPC   C3A23153  36.909  23.094   7.868
 1519POPC   C4A23154  36.631  23.092   7.509
 1519POPC   C1B23155  37.173  22.614   8.696
 1519POPC   C2B23156  37.192  22.813   8.305
 1519POPC   C3B23157  37.112  22.594   7.939
 1519POPC   C4B23158  36.947  22.680   7.541
 1520POPC   NC323159   8.578   8.145   9.813
 1520POPC   PO423160   8.084   7.779   9.817
 1520POPC   GL123161   8.145   7.844   9.337
 1520POPC   GL223162   8.392   8.100   9.224
 1520POPC   C1A23163   8.008   7.996   8.884
 1520POPC   D2A23164   7.972   8.250   8.472
 1520POPC   C3A23165   8.062   8.148   8.024
 1520POPC   C4A23166   8.021   8.421   7.654
 1520POPC   C1B23167   8.431   8.264   8.753
 1520POPC   C2B23168   8.497   8.236   8.271
 1520POPC   C3B23169   8.510   8.422   7.824
 1520POPC   C4B23170   8.779   8.624   7.481
 1521POPC   NC323171  24.897  34.385   9.580
 1521POPC   PO423172  24.291  34.651   9.705
 1521POPC   GL123173  24.602  34.582   9.248
 1521POPC   GL223174  24.754  34.886   9.101
 1521POPC   C1A23175  24.552  34.462   8.801
 1521POPC   D2A23176  24.550  34.258   8.385
 1521POPC   C3A23177  24.530  34.488   7.991
 1521POPC   C4A23178  24.496  34.339   7.572
 1521POPC   C1B23179  24.569  34.977   8.691
 1521POPC   C2B23180  24.283  34.711   8.433
 1521POPC   C3B23181  24.047  34.796   8.064
 1521POPC   C4B23182  24.175  34.719   7.674
 1522POPC   NC323183   2.168  44.319   9.494
 1522POPC   PO423184   1.772  44.814   9.505
 1522POPC   GL123185   1.846  44.528   9.178
 1522POPC   GL223186   2.151  44.658   9.090
 1522POPC   C1A23187   1.892  44.260   8.810
 1522POPC   D2A23188   1.853  44.411   8.388
 1522POPC   C3A23189   1.690  44.445   8.008
 1522POPC   C4A23190   2.066  44.452   7.758
 1522POPC   C1B23191   1.901  44.781   8.720
 1522POPC   C2B23192   1.999   0.039   8.361
 1522POPC   C3B23193   2.009  44.920   7.925
 1522POPC   C4B23194   2.208  44.883   7.517
 1523POPC   NC323195  35.835  41.892   9.575
 1523POPC   PO423196  36.145  41.353   9.417
 1523POPC   GL123197  36.170  41.490   9.038
 1523POPC   GL223198  36.050  41.799   9.125
 1523POPC   C1A23199  36.271  41.476   8.640
 1523POPC   D2A23200  36.063  41.418   8.267
 1523POPC   C3A23201  36.232  41.658   7.931
 1523POPC   C4A23202  36.510  41.695   7.593
 1523POPC   C1B23203  35.829  41.755   8.757
 1523POPC   C2B23204  35.983  41.903   8.375
 1523POPC   C3B23205  35.913  42.048   7.982
 1523POPC   C4B23206  35.859  41.867   7.598
 1524POPC   NC323207  37.895  20.318   9.551
 1524POPC   PO423208  37.530  20.818   9.721
 1524POPC   GL123209  37.492  20.708   9.282
 1524POPC   GL223210  37.840  20.711   9.220
 1524POPC   C1A23211  37.439  20.746   8.835
 1524POPC   D2A23212  37.395  20.555   8.439
 1524POPC   C3A23213  37.506  20.815   8.126
 1524POPC   C4A23214  37.613  20.708   7.713
 1524POPC   C1B23215  37.843  20.443   8.870
 1524POPC   C2B23216  37.902  20.635   8.492
 1524POPC   C3B23217  37.863  20.471   8.100
 1524POPC   C4B23218  38.119  20.561   7.778
 1525POPC   NC323219   1.574  36.634   9.605
 1525POPC   PO423220   2.074  37.093   9.670
 1525POPC   GL123221   1.895  37.038   9.280
 1525POPC   GL223222   2.229  37.082   9.145
 1525POPC   C1A23223   1.796  36.768   8.925
 1525POPC   D2A23224   1.661  36.892   8.500
 1525POPC   C3A23225   1.827  36.872   8.082
 1525POPC   C4A23226   1.657  37.020   7.705
 1525POPC   C1B23227   2.046  37.194   8.789
 1525POPC   C2B23228   2.153  37.075   8.408
 1525POPC   C3B23229   2.300  37.045   8.001
 1525POPC   C4B23230   2.143  37.146   7.603
 1526POPC   NC323231   2.910  41.595   9.553
 1526POPC   PO423232   2.339  41.457   9.731
 1526POPC   GL123233   2.476  41.603   9.257
 1526POPC   GL223234   2.794  41.807   9.124
 1526POPC   C1A23235   2.588  41.460   8.814
 1526POPC   D2A23236   2.477  41.326   8.401
 1526POPC   C3A23237   2.600  41.598   8.076
 1526POPC   C4A23238   2.644  41.486   7.652
 1526POPC   C1B23239   2.712  41.972   8.771
 1526POPC   C2B23240   2.887  41.788   8.441
 1526POPC   C3B23241   3.074  41.901   8.058
 1526POPC   C4B23242   2.895  41.930   7.683
 1527POPC   NC323243  30.838  35.852   9.344
 1527POPC   PO423244  30.687  36.425   9.687
 1527POPC   GL123245  30.658  36.343   9.219
 1527POPC   GL223246  30.423  36.051   9.160
 1527POPC   C1A23247  30.724  36.200   8.762
 1527POPC   D2A23248  30.662  36.028   8.312
 1527POPC   C3A23249  30.815  36.273   7.941
 1527POPC   C4A23250  30.691  36.341   7.496
 1527POPC   C1B23251  30.288  35.938   8.762
 1527POPC   C2B23252  30.202  35.727   8.369
 1527POPC   C3B23253  30.206  35.823   7.969
 1527POPC   C4B23254  30.321  36.168   7.780
 1528POPC   NC323255  23.059  13.304   9.293
 1528POPC   PO423256  22.609  13.710   9.435
 1528POPC   GL123257  22.842  13.847   9.065
 1528POPC   GL223258  23.177  13.973   9.154
 1528POPC   C1A23259  22.977  13.793   8.629
 1528POPC   D2A23260  22.794  13.747   8.214
 1528POPC   C3A23261  22.933  13.478   7.882
 1528POPC   C4A23262  22.780  13.376   7.465
 1528POPC   C1B23263  23.158  14.241   8.779
 1528POPC   C2B23264  23.011  14.207   8.325
 1528POPC   C3B23265  23.185  13.924   7.971
 1528POPC   C4B23266  23.051  13.820   7.509
 1529POPC   NC323267  26.476  33.772   9.589
 1529POPC   PO423268  27.024  34.022   9.717
 1529POPC   GL123269  26.864  33.930   9.252
 1529POPC   GL223270  26.510  33.866   9.106
 1529POPC   C1A23271  26.929  33.771   8.808
 1529POPC   D2A23272  27.164  33.625   8.447
 1529POPC   C3A23273  26.966  33.645   8.063
 1529POPC   C4A23274  27.048  33.845   7.679
 1529POPC   C1B23275  26.314  34.156   8.858
 1529POPC   C2B23276  26.472  34.277   8.473
 1529POPC   C3B23277  26.417  34.056   8.091
 1529POPC   C4B23278  26.579  34.167   7.683
 1530POPC   NC323279  17.650   4.614   9.575
 1530POPC   PO423280  17.223   4.084   9.464
 1530POPC   GL123281  17.339   4.395   9.186
 1530POPC   GL223282  17.696   4.328   9.169
 1530POPC   C1A23283  17.399   4.253   8.759
 1530POPC   D2A23284  17.199   4.039   8.453
 1530POPC   C3A23285  17.389   3.973   8.079
 1530POPC   C4A23286  17.505   4.030   7.660
 1530POPC   C1B23287  17.847   4.494   8.788
 1530POPC   C2B23288  17.825   4.236   8.404
 1530POPC   C3B23289  17.732   4.348   8.001
 1530POPC   C4B23290  17.629   4.539   7.601
 1531POPC   NC323291  31.436  39.347   9.538
 1531POPC   PO423292  32.000  39.644   9.381
 1531POPC   GL123293  31.757  39.287   9.133
 1531POPC   GL223294  31.412  39.081   9.112
 1531POPC   C1A23295  31.736  39.014   8.751
 1531POPC   D2A23296  31.835  39.059   8.334
 1531POPC   C3A23297  31.637  39.329   8.073
 1531POPC   C4A23298  31.506  39.218   7.704
 1531POPC   C1B23299  31.126  39.156   8.765
 1531POPC   C2B23300  31.012  39.196   8.346
 1531POPC   C3B23301  31.140  39.448   8.006
 1531POPC   C4B23302  31.134  39.522   7.580
 1532POPC   NC323303  20.954  30.973   9.299
 1532POPC   PO423304  20.427  30.467   9.415
 1532POPC   GL123305  20.626  30.580   9.064
 1532POPC   GL223306  20.973  30.449   9.110
 1532POPC   C1A23307  20.427  30.616   8.648
 1532POPC   D2A23308  20.301  30.545   8.208
 1532POPC   C3A23309  20.414  30.910   7.987
 1532POPC   C4A23310  20.539  30.928   7.560
 1532POPC   C1B23311  20.978  30.539   8.666
 1532POPC   C2B23312  20.808  30.682   8.257
 1532POPC   C3B23313  20.768  30.535   7.827
 1532POPC   C4B23314  20.885  30.599   7.366
 1533POPC   NC323315  33.176  35.369   9.512
 1533POPC   PO423316  32.704  34.957   9.255
 1533POPC   GL123317  32.867  35.414   9.088
 1533POPC   GL223318  33.239  35.533   9.044
 1533POPC   C1A23319  32.871  35.716   8.719
 1533POPC   D2A23320  32.943  35.539   8.308
 1533POPC   C3A23321  32.663  35.250   8.133
 1533POPC   C4A23322  32.708  35.238   7.678
 1533POPC   C1B23323  33.137  35.277   8.700
 1533POPC   C2B23324  33.246  35.095   8.336
 1533POPC   C3B23325  33.180  35.287   7.931
 1533POPC   C4B23326  33.339  35.581   7.616
 1534POPC   NC323327  23.084  35.034   9.407
 1534POPC   PO423328  23.121  35.760   9.297
 1534POPC   GL123329  23.004  35.419   9.075
 1534POPC   GL223330  22.629  35.425   9.107
 1534POPC   C1A23331  23.125  35.198   8.707
 1534POPC   D2A23332  22.872  35.078   8.337
 1534POPC   C3A23333  22.930  35.245   7.916
 1534POPC   C4A23334  22.889  35.115   7.500
 1534POPC   C1B23335  22.696  35.544   8.664
 1534POPC   C2B23336  22.622  35.535   8.220
 1534POPC   C3B23337  22.672  35.782   7.869
 1534POPC   C4B23338  22.890  35.621   7.497
 1535POPC   NC323339  33.341  32.724   9.626
 1535POPC   PO423340  32.803  33.161   9.483
 1535POPC   GL123341  33.003  32.902   9.198
 1535POPC   GL223342  32.865  32.558   9.251
 1535POPC   C1A23343  32.960  32.970   8.753
 1535POPC   D2A23344  33.095  33.118   8.374
 1535POPC   C3A23345  33.371  32.931   8.105
 1535POPC   C4A23346  33.101  33.031   7.769
 1535POPC   C1B23347  32.555  32.739   8.957
 1535POPC   C2B23348  32.539  32.759   8.513
 1535POPC   C3B23349  32.705  32.911   8.118
 1535POPC   C4B23350  32.530  32.887   7.708
 1536POPC   NC323351  14.046   0.684   9.793
 1536POPC   PO423352  14.677   0.771   9.506
 1536POPC   GL123353  14.580   0.512   9.154
 1536POPC   GL223354  14.252   0.319   9.140
 1536POPC   C1A23355  14.583   0.406   8.726
 1536POPC   D2A23356  14.292   0.509   8.399
 1536POPC   C3A23357  14.504   0.428   8.004
 1536POPC   C4A23358  14.336   0.409   7.597
 1536POPC   C1B23359  14.160   0.110   8.716
 1536POPC   C2B23360  14.372  44.990   8.317
 1536POPC   C3B23361  14.241  44.981   7.856
 1536POPC   C4B23362  14.385  44.966   7.380
 1537POPC   NC323363  38.282  21.604   9.432
 1537POPC   PO423364  38.733  21.096   9.492
 1537POPC   GL123365  38.497  21.191   9.144
 1537POPC   GL223366  38.144  21.137   9.254
 1537POPC   C1A23367  38.618  21.319   8.722
 1537POPC   D2A23368  38.454  21.510   8.337
 1537POPC   C3A23369  38.447  21.198   7.998
 1537POPC   C4A23370  38.487  21.251   7.546
 1537POPC   C1B23371  38.108  21.308   8.833
 1537POPC   C2B23372  38.167  21.101   8.448
 1537POPC   C3B23373  37.984  20.967   8.098
 1537POPC   C4B23374  38.045  21.058   7.701
 1538POPC   NC323375  34.979  14.260   9.586
 1538POPC   PO423376  35.162  14.908   9.634
 1538POPC   GL123377  35.196  14.588   9.270
 1538POPC   GL223378  35.489  14.391   9.206
 1538POPC   C1A23379  35.172  14.583   8.815
 1538POPC   D2A23380  35.373  14.662   8.393
 1538POPC   C3A23381  35.189  14.429   8.029
 1538POPC   C4A23382  34.988  14.010   7.999
 1538POPC   C1B23383  35.681  14.428   8.789
 1538POPC   C2B23384  35.784  14.350   8.347
 1538POPC   C3B23385  35.696  14.421   7.933
 1538POPC   C4B23386  35.516  14.059   7.781
 1539POPC   NC323387  16.963  10.087   9.761
 1539POPC   PO423388  16.533  10.510   9.338
 1539POPC   GL123389  16.726  10.531   9.005
 1539POPC   GL223390  17.015  10.611   9.179
 1539POPC   C1A23391  16.847  10.372   8.619
 1539POPC   D2A23392  16.687  10.142   8.259
 1539POPC   C3A23393  16.845  10.369   7.892
 1539POPC   C4A23394  16.706  10.733   7.722
 1539POPC   C1B23395  17.100  10.839   8.827
 1539POPC   C2B23396  17.009  10.909   8.426
 1539POPC   C3B23397  17.135  10.769   8.051
 1539POPC   C4B23398  17.157  10.974   7.679
 1540POPC   NC323399  21.641  37.607   9.524
 1540POPC   PO423400  21.096  38.070   9.619
 1540POPC   GL123401  21.329  37.904   9.212
 1540POPC   GL223402  21.162  38.079   8.987
 1540POPC   C1A23403  21.402  37.772   8.711
 1540POPC   D2A23404  21.606  37.630   8.371
 1540POPC   C3A23405  21.424  37.654   7.998
 1540POPC   C4A23406  21.678  37.737   7.665
 1540POPC   C1B23407  20.968  38.179   8.607
 1540POPC   C2B23408  21.229  38.083   8.288
 1540POPC   C3B23409  21.110  38.030   7.874
 1540POPC   C4B23410  21.201  37.769   7.531
 1541POPC   NC323411  38.776   1.971   9.135
 1541POPC   PO423412  38.467   2.153   9.699
 1541POPC   GL123413  38.299   1.964   9.194
 1541POPC   GL223414  38.322   1.627   9.030
 1541POPC   C1A23415  38.239   2.049   8.726
 1541POPC   D2A23416  38.147   1.859   8.343
 1541POPC   C3A23417  38.237   2.152   8.043
 1541POPC   C4A23418  38.071   2.277   7.671
 1541POPC   C1B23419  38.543   1.632   8.606
 1541POPC   C2B23420  38.612   1.753   8.158
 1541POPC   C3B23421  38.460   1.823   7.724
 1541POPC   C4B23422  38.664   1.691   7.325
 1542POPC   NC323423  11.658  12.743   9.585
 1542POPC   PO423424  11.183  13.110   9.366
 1542POPC   GL123425  11.383  12.812   9.154
 1542POPC   GL223426  11.682  12.972   9.134
 1542POPC   C1A23427  11.479  12.656   8.775
 1542POPC   D2A23428  11.246  12.734   8.406
 1542POPC   C3A23429  11.453  12.775   8.031
 1542POPC   C4A23430  11.341  12.606   7.669
 1542POPC   C1B23431  11.535  13.156   8.722
 1542POPC   C2B23432  11.488  13.233   8.273
 1542POPC   C3B23433  11.226  13.247   7.874
 1542POPC   C4B23434  11.299  13.157   7.406
 1543POPC   NC323435  28.657  30.211   9.267
 1543POPC   PO423436  28.026  30.140   9.488
 1543POPC   GL123437  28.180  30.112   9.077
 1543POPC   GL223438  28.387  29.823   9.080
 1543POPC   C1A23439  28.267  30.130   8.634
 1543POPC   D2A23440  28.287  30.067   8.179
 1543POPC   C3A23441  28.600  30.290   7.944
 1543POPC   C4A23442  28.609  30.132   7.531
 1543POPC   C1B23443  28.519  29.611   8.715
 1543POPC   C2B23444  28.699  29.727   8.332
 1543POPC   C3B23445  28.661  29.757   7.909
 1543POPC   C4B23446  28.285  29.772   7.715
 1544POPC   NC323447   8.008  20.455   9.650
 1544POPC   PO423448   7.353  20.594   9.526
 1544POPC   GL123449   7.236  20.541   9.123
 1544POPC   GL223450   7.230  20.878   9.052
 1544POPC   C1A23451   7.283  20.390   8.708
 1544POPC   D2A23452   7.036  20.426   8.305
 1544POPC   C3A23453   7.283  20.602   7.991
 1544POPC   C4A23454   7.717  20.565   7.913
 1544POPC   C1B23455   7.622  20.769   8.847
 1544POPC   C2B23456   7.557  20.752   8.412
 1544POPC   C3B23457   7.694  21.048   8.117
 1544POPC   C4B23458   7.798  21.037   7.691
 1545POPC   NC323459  10.457  23.515   9.575
 1545POPC   PO423460  11.005  23.914   9.651
 1545POPC   GL123461  10.779  23.757   9.247
 1545POPC   GL223462  10.447  23.829   9.181
 1545POPC   C1A23463  10.671  23.765   8.754
 1545POPC   D2A23464  10.491  23.713   8.336
 1545POPC   C3A23465  10.758  23.774   7.972
 1545POPC   C4A23466  11.102  23.970   7.766
 1545POPC   C1B23467  10.275  24.070   8.844
 1545POPC   C2B23468  10.440  24.230   8.445
 1545POPC   C3B23469  10.384  24.128   8.025
 1545POPC   C4B23470  10.615  24.123   7.611
 1546POPC   NC323471  39.210  13.063   9.892
 1546POPC   PO423472  38.849  12.607   9.606
 1546POPC   GL123473  39.079  12.690   9.239
 1546POPC   GL223474  39.041  12.433   9.007
 1546POPC   C1A23475  39.282  12.900   8.859
 1546POPC   D2A23476  39.218  12.773   8.418
 1546POPC   C3A23477  39.386  12.914   7.996
 1546POPC   C4A23478  39.435  12.721   7.589
 1546POPC   C1B23479  38.793  12.804   8.833
 1546POPC   C2B23480  38.798  13.071   8.448
 1546POPC   C3B23481  38.881  12.885   8.030
 1546POPC   C4B23482  38.934  12.858   7.588
 1547POPC   NC323483  28.342  27.908   9.546
 1547POPC   PO423484  28.469  27.301   9.566
 1547POPC   GL123485  28.541  27.550   9.166
 1547POPC   GL223486  28.575  27.917   9.079
 1547POPC   C1A23487  28.384  27.460   8.717
 1547POPC   D2A23488  28.355  27.247   8.297
 1547POPC   C3A23489  28.440  27.501   7.904
 1547POPC   C4A23490  28.607  27.844   7.620
 1547POPC   C1B23491  28.271  27.969   8.757
 1547POPC   C2B23492  28.238  27.794   8.325
 1547POPC   C3B23493  27.980  27.711   7.956
 1547POPC   C4B23494  28.082  27.938   7.606
 1548POPC   NC323495  22.319  17.328   9.557
 1548POPC   PO423496  21.719  17.628   9.484
 1548POPC   GL123497  22.068  17.520   9.148
 1548POPC   GL223498  22.150  17.121   9.134
 1548POPC   C1A23499  22.313  17.697   8.756
 1548POPC   D2A23500  22.359  17.915   8.331
 1548POPC   C3A23501  22.267  17.724   7.898
 1548POPC   C4A23502  22.262  17.768   7.416
 1548POPC   C1B23503  22.030  17.267   8.711
 1548POPC   C2B23504  22.239  17.370   8.328
 1548POPC   C3B23505  22.121  17.234   7.922
 1548POPC   C4B23506  22.206  17.059   7.539
 1549POPC   NC323507   4.358  20.419   9.462
 1549POPC   PO423508   4.456  21.093   9.490
 1549POPC   GL123509   4.488  20.825   9.159
 1549POPC   GL223510   4.150  20.750   9.133
 1549POPC   C1A23511   4.511  20.584   8.767
 1549POPC   D2A23512   4.597  20.417   8.312
 1549POPC   C3A23513   4.473  20.767   8.016
 1549POPC   C4A23514   4.101  20.908   7.760
 1549POPC   C1B23515   3.966  20.565   8.774
 1549POPC   C2B23516   4.117  20.582   8.378
 1549POPC   C3B23517   4.114  20.408   7.979
 1549POPC   C4B23518   3.923  20.450   7.569
 1550POPC   NC323519  15.172  27.678   9.673
 1550POPC   PO423520  15.239  27.102   9.394
 1550POPC   GL123521  14.991  27.391   9.133
 1550POPC   GL223522  15.070  27.749   9.145
 1550POPC   C1A23523  14.906  27.392   8.679
 1550POPC   D2A23524  15.189  27.306   8.357
 1550POPC   C3A23525  15.041  27.324   7.980
 1550POPC   C4A23526  15.088  27.231   7.581
 1550POPC   C1B23527  15.071  27.930   8.705
 1550POPC   C2B23528  15.096  27.804   8.263
 1550POPC   C3B23529  15.084  27.800   7.795
 1550POPC   C4B23530  15.497  27.880   7.603
 1551POPC   NC323531   3.043  14.812   9.265
 1551POPC   PO423532   2.571  14.420   9.588
 1551POPC   GL123533   2.724  14.388   9.150
 1551POPC   GL223534   2.610  14.697   8.960
 1551POPC   C1A23535   2.651  14.258   8.704
 1551POPC   D2A23536   2.508  14.529   8.384
 1551POPC   C3A23537   2.828  14.496   8.075
 1551POPC   C4A23538   2.814  14.309   7.649
 1551POPC   C1B23539   2.989  14.619   8.656
 1551POPC   C2B23540   3.277  14.745   8.341
 1551POPC   C3B23541   3.140  14.955   8.010
 1551POPC   C4B23542   2.884  14.834   7.661
 1552POPC   NC323543  22.619  14.822   9.543
 1552POPC   PO423544  23.303  14.961   9.543
 1552POPC   GL123545  22.970  15.136   9.266
 1552POPC   GL223546  22.887  15.494   9.348
 1552POPC   C1A23547  22.968  15.028   8.820
 1552POPC   D2A23548  23.193  15.056   8.438
 1552POPC   C3A23549  22.897  15.116   8.149
 1552POPC   C4A23550  22.791  14.886   7.806
 1552POPC   C1B23551  22.782  15.493   8.897
 1552POPC   C2B23552  22.591  15.331   8.481
 1552POPC   C3B23553  22.485  15.394   8.004
 1552POPC   C4B23554  22.683  15.350   7.604
 1553POPC   NC323555  44.251   3.283   9.505
 1553POPC   PO423556  43.530   3.211   9.487
 1553POPC   GL123557  43.714   3.222   9.097
 1553POPC   GL223558  44.012   3.469   9.052
 1553POPC   C1A23559  43.683   3.344   8.670
 1553POPC   D2A23560  43.973   3.564   8.399
 1553POPC   C3A23561  43.813   3.684   8.003
 1553POPC   C4A23562  43.885   3.391   7.714
 1553POPC   C1B23563  44.143   3.848   8.783
 1553POPC   C2B23564  44.403   3.889   8.403
 1553POPC   C3B23565  44.331   3.666   8.042
 1553POPC   C4B23566  44.234   3.829   7.662
 1554POPC   NC323567  10.244  16.651   9.737
 1554POPC   PO423568   9.632  16.874   9.552
 1554POPC   GL123569   9.714  16.866   9.160
 1554POPC   GL223570   9.659  16.538   9.136
 1554POPC   C1A23571   9.858  16.897   8.775
 1554POPC   D2A23572   9.734  17.137   8.399
 1554POPC   C3A23573   9.692  16.867   8.065
 1554POPC   C4A23574   9.920  16.937   7.700
 1554POPC   C1B23575   9.895  16.376   8.806
 1554POPC   C2B23576  10.023  16.522   8.412
 1554POPC   C3B23577  10.008  16.459   7.977
 1554POPC   C4B23578   9.734  16.474   7.673
 1555POPC   NC323579   4.836  13.452   9.569
 1555POPC   PO423580   5.422  13.782   9.346
 1555POPC   GL123581   5.167  13.554   9.127
 1555POPC   GL223582   4.819  13.660   9.108
 1555POPC   C1A23583   5.149  13.680   8.723
 1555POPC   D2A23584   5.050  13.968   8.392
 1555POPC   C3A23585   5.221  13.827   7.995
 1555POPC   C4A23586   5.150  13.539   7.660
 1555POPC   C1B23587   4.726  13.419   8.752
 1555POPC   C2B23588   4.951  13.440   8.335
 1555POPC   C3B23589   4.743  13.452   7.961
 1555POPC   C4B23590   4.729  13.249   7.580
 1556POPC   NC323591   8.869  23.866   9.517
 1556POPC   PO423592   9.381  24.297   9.549
 1556POPC   GL123593   9.222  23.968   9.166
 1556POPC   GL223594   9.132  23.570   9.205
 1556POPC   C1A23595   8.938  23.852   8.807
 1556POPC   D2A23596   9.039  23.706   8.413
 1556POPC   C3A23597   8.834  23.817   8.051
 1556POPC   C4A23598   8.936  23.650   7.678
 1556POPC   C1B23599   9.265  23.431   8.823
 1556POPC   C2B23600   9.258  23.253   8.424
 1556POPC   C3B23601   9.072  23.311   8.061
 1556POPC   C4B23602   9.263  23.264   7.689
 1557POPC   NC323603  36.498  39.326   9.544
 1557POPC   PO423604  35.965  38.934   9.737
 1557POPC   GL123605  35.956  39.086   9.259
 1557POPC   GL223606  36.137  39.414   9.164
 1557POPC   C1A23607  35.999  39.063   8.772
 1557POPC   D2A23608  36.308  39.210   8.407
 1557POPC   C3A23609  36.305  38.993   7.989
 1557POPC   C4A23610  35.960  38.923   7.672
 1557POPC   C1B23611  36.095  39.562   8.735
 1557POPC   C2B23612  35.832  39.564   8.381
 1557POPC   C3B23613  35.991  39.414   8.009
 1557POPC   C4B23614  36.357  39.467   7.799
 1558POPC   NC323615  42.427  19.662   9.480
 1558POPC   PO423616  42.212  20.321   9.401
 1558POPC   GL123617  42.163  20.078   9.060
 1558POPC   GL223618  42.105  19.706   9.093
 1558POPC   C1A23619  42.445  19.937   8.772
 1558POPC   D2A23620  42.583  19.747   8.431
 1558POPC   C3A23621  42.418  19.948   8.089
 1558POPC   C4A23622  42.528  19.906   7.685
 1558POPC   C1B23623  41.912  19.440   8.784
 1558POPC   C2B23624  41.886  19.330   8.352
 1558POPC   C3B23625  42.158  19.475   7.978
 1558POPC   C4B23626  42.113  19.618   7.530
 1559POPC   NC323627  36.697  40.121   9.389
 1559POPC   PO423628  37.301  40.302   9.523
 1559POPC   GL123629  37.146  40.217   9.106
 1559POPC   GL223630  37.232  39.869   9.174
 1559POPC   C1A23631  36.778  40.194   8.774
 1559POPC   D2A23632  36.562  40.180   8.360
 1559POPC   C3A23633  36.846  40.255   8.048
 1559POPC   C4A23634  37.022  40.102   7.658
 1559POPC   C1B23635  37.099  39.772   8.792
 1559POPC   C2B23636  37.033  39.943   8.412
 1559POPC   C3B23637  36.972  39.759   8.037
 1559POPC   C4B23638  36.822  39.591   7.679
 1560POPC   NC323639  14.378  44.099   9.490
 1560POPC   PO423640  14.942  43.782   9.536
 1560POPC   GL123641  14.625  43.617   9.256
 1560POPC   GL223642  14.635  43.913   9.080
 1560POPC   C1A23643  14.458  43.488   8.822
 1560POPC   D2A23644  14.424  43.704   8.420
 1560POPC   C3A23645  14.225  43.637   8.006
 1560POPC   C4A23646  14.452  43.674   7.620
 1560POPC   C1B23647  14.823  44.211   8.821
 1560POPC   C2B23648  14.803  44.121   8.415
 1560POPC   C3B23649  14.574  44.016   8.060
 1560POPC   C4B23650  14.519  44.165   7.707
 1561POPC   NC323651   3.233  20.899   9.498
 1561POPC   PO423652   2.817  21.409   9.615
 1561POPC   GL123653   2.878  21.250   9.226
 1561POPC   GL223654   2.778  21.500   8.972
 1561POPC   C1A23655   2.711  21.001   8.869
 1561POPC   D2A23656   2.642  21.273   8.522
 1561POPC   C3A23657   2.834  21.216   8.129
 1561POPC   C4A23658   2.747  21.286   7.723
 1561POPC   C1B23659   3.057  21.625   8.588
 1561POPC   C2B23660   3.197  21.577   8.185
 1561POPC   C3B23661   3.004  21.708   7.801
 1561POPC   C4B23662   2.653  21.693   7.457
 1562POPC   NC323663  14.115   2.427   9.263
 1562POPC   PO423664  14.385   2.833   9.748
 1562POPC   GL123665  14.379   2.881   9.250
 1562POPC   GL223666  14.596   2.652   9.008
 1562POPC   C1A23667  14.242   2.931   8.795
 1562POPC   D2A23668  14.320   2.760   8.391
 1562POPC   C3A23669  14.291   3.065   8.052
 1562POPC   C4A23670  14.394   2.985   7.616
 1562POPC   C1B23671  14.741   2.359   8.648
 1562POPC   C2B23672  14.522   2.320   8.218
 1562POPC   C3B23673  14.400   2.484   7.808
 1562POPC   C4B23674  14.498   2.533   7.371
 1563POPC   NC323675  12.795  19.595   9.537
 1563POPC   PO423676  12.707  20.250   9.682
 1563POPC   GL123677  12.851  19.997   9.244
 1563POPC   GL223678  12.715  19.682   9.065
 1563POPC   C1A23679  12.963  20.002   8.771
 1563POPC   D2A23680  13.152  20.087   8.375
 1563POPC   C3A23681  13.127  19.753   8.100
 1563POPC   C4A23682  12.916  19.710   7.716
 1563POPC   C1B23683  12.517  19.754   8.701
 1563POPC   C2B23684  12.608  19.905   8.308
 1563POPC   C3B23685  12.639  19.519   8.093
 1563POPC   C4B23686  12.708  19.232   7.757
 1564POPC   NC323687  36.660  26.929   9.374
 1564POPC   PO423688  37.254  26.418   9.231
 1564POPC   GL123689  36.953  26.726   9.000
 1564POPC   GL223690  36.551  26.694   8.939
 1564POPC   C1A23691  36.885  26.889   8.590
 1564POPC   D2A23692  37.032  26.702   8.188
 1564POPC   C3A23693  37.234  26.964   7.862
 1564POPC   C4A23694  37.212  26.838   7.393
 1564POPC   C1B23695  36.644  26.438   8.609
 1564POPC   C2B23696  36.527  26.379   8.206
 1564POPC   C3B23697  36.563  26.726   8.001
 1564POPC   C4B23698  36.812  26.731   7.689
 1565POPC   NC323699   8.666  37.385   9.689
 1565POPC   PO423700   8.121  37.458   9.300
 1565POPC   GL123701   8.389  37.462   9.005
 1565POPC   GL223702   8.373  37.814   8.908
 1565POPC   C1A23703   8.317  37.407   8.594
 1565POPC   D2A23704   8.074  37.633   8.372
 1565POPC   C3A23705   8.285  37.636   8.006
 1565POPC   C4A23706   8.070  37.491   7.701
 1565POPC   C1B23707   8.096  38.106   8.729
 1565POPC   C2B23708   7.945  38.135   8.342
 1565POPC   C3B23709   7.829  37.878   7.997
 1565POPC   C4B23710   7.976  38.009   7.622
 1566POPC   NC323711  29.769   4.464   9.435
 1566POPC   PO423712  29.865   3.836   9.574
 1566POPC   GL123713  29.784   4.014   9.188
 1566POPC   GL223714  30.110   4.120   9.104
 1566POPC   C1A23715  29.713   4.260   8.822
 1566POPC   D2A23716  29.689   4.537   8.476
 1566POPC   C3A23717  29.850   4.317   8.136
 1566POPC   C4A23718  29.721   4.128   7.809
 1566POPC   C1B23719  30.189   4.398   8.716
 1566POPC   C2B23720  30.156   4.660   8.332
 1566POPC   C3B23721  30.247   4.571   7.903
 1566POPC   C4B23722  30.207   4.160   7.693
 1567POPC   NC323723  23.661  10.932   9.579
 1567POPC   PO423724  24.026  10.431   9.424
 1567POPC   GL123725  23.794  10.699   9.141
 1567POPC   GL223726  23.463  10.619   9.192
 1567POPC   C1A23727  23.636  10.736   8.714
 1567POPC   D2A23728  23.399  10.595   8.396
 1567POPC   C3A23729  23.486  10.808   8.049
 1567POPC   C4A23730  23.656  10.789   7.655
 1567POPC   C1B23731  23.309  10.336   8.854
 1567POPC   C2B23732  23.072  10.201   8.490
 1567POPC   C3B23733  23.228  10.262   8.060
 1567POPC   C4B23734  23.580  10.302   7.832
 1568POPC   NC323735  20.179  24.380   9.491
 1568POPC   PO423736  19.455  24.688   9.522
 1568POPC   GL123737  19.478  24.582   9.083
 1568POPC   GL223738  19.800  24.539   9.119
 1568POPC   C1A23739  19.574  24.450   8.638
 1568POPC   D2A23740  19.581  24.751   8.345
 1568POPC   C3A23741  19.718  24.685   7.955
 1568POPC   C4A23742  19.788  24.330   7.731
 1568POPC   C1B23743  20.041  24.384   8.789
 1568POPC   C2B23744  20.042  24.545   8.405
 1568POPC   C3B23745  20.193  24.453   8.035
 1568POPC   C4B23746  20.190  24.646   7.631
 1569POPC   NC323747  15.007  42.636   9.704
 1569POPC   PO423748  15.225  42.055   9.453
 1569POPC   GL123749  15.283  42.385   9.172
 1569POPC   GL223750  14.942  42.512   9.195
 1569POPC   C1A23751  15.320  42.394   8.719
 1569POPC   D2A23752  15.314  42.654   8.337
 1569POPC   C3A23753  15.137  42.409   8.007
 1569POPC   C4A23754  15.358  42.254   7.653
 1569POPC   C1B23755  14.900  42.149   8.886
 1569POPC   C2B23756  14.931  42.089   8.453
 1569POPC   C3B23757  14.893  41.929   8.038
 1569POPC   C4B23758  14.831  42.078   7.642
 1570POPC   NC323759  24.990   9.935   9.451
 1570POPC   PO423760  24.356   9.865   9.586
 1570POPC   GL123761  24.526   9.931   9.202
 1570POPC   GL223762  24.656   9.617   9.158
 1570POPC   C1A23763  24.665   9.942   8.769
 1570POPC   D2A23764  24.492  10.067   8.396
 1570POPC   C3A23765  24.497   9.845   7.998
 1570POPC   C4A23766  24.456   9.911   7.558
 1570POPC   C1B23767  24.557   9.405   8.806
 1570POPC   C2B23768  24.432   9.512   8.395
 1570POPC   C3B23769  24.451   9.312   7.977
 1570POPC   C4B23770  24.572   9.415   7.563
 1571POPC   NC323771   3.234  17.130   9.500
 1571POPC   PO423772   2.760  17.647   9.529
 1571POPC   GL123773   2.659  17.500   9.111
 1571POPC   GL223774   2.811  17.183   9.109
 1571POPC   C1A23775   2.720  17.655   8.695
 1571POPC   D2A23776   3.003  17.723   8.329
 1571POPC   C3A23777   2.755  17.687   7.966
 1571POPC   C4A23778   2.569  17.541   7.604
 1571POPC   C1B23779   2.856  17.047   8.712
 1571POPC   C2B23780   2.744  17.267   8.347
 1571POPC   C3B23781   2.548  17.194   7.993
 1571POPC   C4B23782   2.758  17.080   7.640
 1572POPC   NC323783   7.116  11.278   9.209
 1572POPC   PO423784   7.529  11.712   9.569
 1572POPC   GL123785   7.678  11.535   9.165
 1572POPC   GL223786   7.644  11.169   9.147
 1572POPC   C1A23787   7.505  11.464   8.714
 1572POPC   D2A23788   7.140  11.208   8.494
 1572POPC   C3A23789   7.105  11.187   8.012
 1572POPC   C4A23790   7.143  11.415   7.604
 1572POPC   C1B23791   7.668  10.989   8.716
 1572POPC   C2B23792   7.620  11.143   8.282
 1572POPC   C3B23793   7.570  11.418   7.941
 1572POPC   C4B23794   7.861  11.461   7.618
 1573POPC   NC323795   1.075  12.944   9.524
 1573POPC   PO423796   1.744  13.117   9.544
 1573POPC   GL123797   1.572  12.905   9.181
 1573POPC   GL223798   1.647  13.078   8.857
 1573POPC   C1A23799   1.437  12.623   8.842
 1573POPC   D2A23800   1.243  12.578   8.419
 1573POPC   C3A23801   1.410  12.647   8.012
 1573POPC   C4A23802   1.112  12.648   7.669
 1573POPC   C1B23803   1.232  13.098   8.658
 1573POPC   C2B23804   1.059  13.014   8.225
 1573POPC   C3B23805   1.284  13.161   7.892
 1573POPC   C4B23806   1.703  13.065   7.897
 1574POPC   NC323807  20.415  28.497   9.496
 1574POPC   PO423808  20.930  27.980   9.575
 1574POPC   GL123809  20.784  28.280   9.231
 1574POPC   GL223810  20.775  28.685   9.206
 1574POPC   C1A23811  20.561  28.386   8.849
 1574POPC   D2A23812  20.463  28.481   8.435
 1574POPC   C3A23813  20.596  28.309   8.061
 1574POPC   C4A23814  20.513  28.307   7.647
 1574POPC   C1B23815  20.867  28.772   8.779
 1574POPC   C2B23816  20.973  28.546   8.413
 1574POPC   C3B23817  20.930  28.668   7.985
 1574POPC   C4B23818  20.877  28.700   7.561
 1575POPC   NC323819   5.842  22.488   9.513
 1575POPC   PO423820   5.884  23.175   9.474
 1575POPC   GL123821   5.913  22.874   9.144
 1575POPC   GL223822   6.012  23.189   8.983
 1575POPC   C1A23823   5.872  22.765   8.703
 1575POPC   D2A23824   5.757  23.133   8.450
 1575POPC   C3A23825   5.871  23.166   7.990
 1575POPC   C4A23826   5.766  22.828   7.743
 1575POPC   C1B23827   6.273  23.070   8.678
 1575POPC   C2B23828   6.222  22.970   8.286
 1575POPC   C3B23829   6.260  22.753   7.933
 1575POPC   C4B23830   6.233  22.852   7.502
 1576POPC   NC323831  44.054   5.359   9.690
 1576POPC   PO423832  43.829   5.853   9.640
 1576POPC   GL123833  43.850   5.859   9.157
 1576POPC   GL223834  43.524   5.787   8.990
 1576POPC   C1A23835  43.931   5.908   8.684
 1576POPC   D2A23836  43.819   6.059   8.250
 1576POPC   C3A23837  44.025   5.840   7.876
 1576POPC   C4A23838  44.119   5.613   7.454
 1576POPC   C1B23839  43.443   6.078   8.632
 1576POPC   C2B23840  43.412   6.398   8.323
 1576POPC   C3B23841  43.579   6.379   7.900
 1576POPC   C4B23842  43.370   6.328   7.503
 1577POPC   NC323843   7.556  11.256   9.659
 1577POPC   PO423844   8.190  11.362   9.704
 1577POPC   GL123845   8.186  11.384   9.258
 1577POPC   GL223846   8.480  11.526   9.146
 1577POPC   C1A23847   8.105  11.403   8.796
 1577POPC   D2A23848   8.122  11.100   8.442
 1577POPC   C3A23849   8.146  11.244   8.006
 1577POPC   C4A23850   8.088  11.014   7.611
 1577POPC   C1B23851   8.698  11.476   8.772
 1577POPC   C2B23852   8.490  11.467   8.380
 1577POPC   C3B23853   8.636  11.444   7.977
 1577POPC   C4B23854   8.590  11.078   7.743
 1578POPC   NC323855  20.206  27.619   9.610
 1578POPC   PO423856  19.540  27.523   9.571
 1578POPC   GL123857  19.827  27.656   9.274
 1578POPC   GL223858  19.865  27.329   9.182
 1578POPC   C1A23859  19.959  27.776   8.868
 1578POPC   D2A23860  19.830  27.867   8.444
 1578POPC   C3A23861  20.046  27.553   8.195
 1578POPC   C4A23862  20.101  27.512   7.755
 1578POPC   C1B23863  19.682  27.346   8.794
 1578POPC   C2B23864  19.605  27.194   8.379
 1578POPC   C3B23865  19.658  27.285   7.937
 1578POPC   C4B23866  19.553  26.971   7.651
 1579POPC   NC323867   4.960  17.370   9.624
 1579POPC   PO423868   5.349  17.954   9.401
 1579POPC   GL123869   5.117  17.587   9.155
 1579POPC   GL223870   5.126  17.208   9.154
 1579POPC   C1A23871   5.035  17.569   8.709
 1579POPC   D2A23872   4.826  17.675   8.318
 1579POPC   C3A23873   5.148  17.580   8.036
 1579POPC   C4A23874   5.321  17.784   7.713
 1579POPC   C1B23875   4.890  17.080   8.788
 1579POPC   C2B23876   5.033  17.144   8.338
 1579POPC   C3B23877   4.962  17.130   7.869
 1579POPC   C4B23878   5.042  17.092   7.390
 1580POPC   NC323879   2.751  35.388   9.529
 1580POPC   PO423880   3.283  35.142   9.248
 1580POPC   GL123881   2.877  35.247   9.045
 1580POPC   GL223882   2.585  35.021   9.121
 1580POPC   C1A23883   2.703  35.338   8.618
 1580POPC   D2A23884   2.596  35.710   8.337
 1580POPC   C3A23885   2.729  35.594   7.931
 1580POPC   C4A23886   2.924  35.195   7.810
 1580POPC   C1B23887   2.262  35.135   8.782
 1580POPC   C2B23888   2.234  35.307   8.380
 1580POPC   C3B23889   2.472  35.190   8.069
 1580POPC   C4B23890   2.407  35.109   7.640
 1581POPC   NC323891  30.376  44.067   9.387
 1581POPC   PO423892  29.715  44.145   9.552
 1581POPC   GL123893  29.707  43.944   9.155
 1581POPC   GL223894  30.032  43.905   9.055
 1581POPC   C1A23895  29.596  43.919   8.737
 1581POPC   D2A23896  29.818  43.886   8.385
 1581POPC   C3A23897  29.595  43.989   8.092
 1581POPC   C4A23898  29.637  44.014   7.705
 1581POPC   C1B23899  30.055  44.197   8.725
 1581POPC   C2B23900  30.201  44.216   8.309
 1581POPC   C3B23901  30.113  44.010   7.931
 1581POPC   C4B23902  30.094  44.199   7.544
 1582POPC   NC323903  28.554  11.055   9.731
 1582POPC   PO423904  28.253  11.150   9.133
 1582POPC   GL123905  28.365  11.523   8.938
 1582POPC   GL223906  28.660  11.529   9.043
 1582POPC   C1A23907  28.521  11.768   8.606
 1582POPC   D2A23908  28.229  11.613   8.340
 1582POPC   C3A23909  28.438  11.398   8.078
 1582POPC   C4A23910  28.447  11.367   7.677
 1582POPC   C1B23911  28.696  11.260   8.635
 1582POPC   C2B23912  28.601  10.964   8.314
 1582POPC   C3B23913  28.735  11.012   7.916
 1582POPC   C4B23914  28.610  10.909   7.528
 1583POPC   NC323915   0.271  30.399   9.651
 1583POPC   PO423916   0.680  29.876   9.668
 1583POPC   GL123917   0.580  29.957   9.214
 1583POPC   GL223918   0.521  30.311   9.182
 1583POPC   C1A23919   0.613  29.796   8.768
 1583POPC   D2A23920   0.708  29.928   8.348
 1583POPC   C3A23921   0.509  29.825   7.970
 1583POPC   C4A23922   0.792  29.602   7.715
 1583POPC   C1B23923   0.234  30.262   8.809
 1583POPC   C2B23924   0.270  30.228   8.359
 1583POPC   C3B23925   0.594  30.359   8.075
 1583POPC   C4B23926   0.440  30.289   7.684
 1584POPC   NC323927  38.655  31.811   9.283
 1584POPC   PO423928  38.411  32.115   9.773
 1584POPC   GL123929  38.359  32.210   9.289
 1584POPC   GL223930  38.685  32.319   9.134
 1584POPC   C1A23931  38.237  32.415   8.862
 1584POPC   D2A23932  38.397  32.439   8.431
 1584POPC   C3A23933  38.299  32.243   8.060
 1584POPC   C4A23934  38.147  32.474   7.722
 1584POPC   C1B23935  38.610  32.080   8.724
 1584POPC   C2B23936  38.670  31.941   8.303
 1584POPC   C3B23937  38.742  32.016   7.877
 1584POPC   C4B23938  38.794  32.109   7.416
 1585POPC   NC323939  11.042  26.787   9.574
 1585POPC   PO423940  11.556  26.884   9.192
 1585POPC   GL123941  11.125  26.817   9.056
 1585POPC   GL223942  11.092  26.483   9.099
 1585POPC   C1A23943  11.029  26.800   8.621
 1585POPC   D2A23944  11.358  26.977   8.344
 1585POPC   C3A23945  11.299  26.971   7.922
 1585POPC   C4A23946  11.171  26.968   7.505
 1585POPC   C1B23947  11.399  26.413   8.726
 1585POPC   C2B23948  11.594  26.523   8.354
 1585POPC   C3B23949  11.467  26.466   7.930
 1585POPC   C4B23950  11.361  26.506   7.473
 1586POPC   NC323951  32.319  38.805   9.747
 1586POPC   PO423952  32.311  38.130   9.497
 1586POPC   GL123953  32.187  38.287   9.112
 1586POPC   GL223954  32.049  38.597   9.204
 1586POPC   C1A23955  32.464  38.256   8.756
 1586POPC   D2A23956  32.484  38.059   8.369
 1586POPC   C3A23957  32.277  38.215   7.980
 1586POPC   C4A23958  32.379  38.600   7.721
 1586POPC   C1B23959  32.201  38.705   8.786
 1586POPC   C2B23960  32.135  38.483   8.411
 1586POPC   C3B23961  31.992  38.648   8.041
 1586POPC   C4B23962  31.983  39.001   7.814
 1587POPC   NC323963  32.169  11.330   9.535
 1587POPC   PO423964  32.563  11.808   9.244
 1587POPC   GL123965  32.220  11.610   9.125
 1587POPC   GL223966  32.456  11.314   9.107
 1587POPC   C1A23967  32.144  11.458   8.751
 1587POPC   D2A23968  32.387  11.428   8.403
 1587POPC   C3A23969  32.102  11.318   8.119
 1587POPC   C4A23970  32.096  11.468   7.757
 1587POPC   C1B23971  32.474  11.044   8.771
 1587POPC   C2B23972  32.289  10.926   8.412
 1587POPC   C3B23973  32.499  11.015   8.038
 1587POPC   C4B23974  32.629  10.783   7.733
 1588POPC   NC323975  32.539  12.617   9.433
 1588POPC   PO423976  32.358  11.980   9.692
 1588POPC   GL123977  32.173  12.124   9.215
 1588POPC   GL223978  32.400  12.277   9.109
 1588POPC   C1A23979  32.147  11.996   8.743
 1588POPC   D2A23980  31.991  11.771   8.368
 1588POPC   C3A23981  32.264  11.872   8.023
 1588POPC   C4A23982  32.268  12.141   7.622
 1588POPC   C1B23983  32.549  12.305   8.747
 1588POPC   C2B23984  32.449  12.505   8.372
 1588POPC   C3B23985  32.552  12.307   8.027
 1588POPC   C4B23986  32.739  12.372   7.655
 1589POPC   NC323987  43.875  32.593   9.702
 1589POPC   PO423988  43.968  31.884   9.629
 1589POPC   GL123989  43.706  32.053   9.251
 1589POPC   GL223990  43.727  32.410   9.196
 1589POPC   C1A23991  43.646  32.159   8.768
 1589POPC   D2A23992  43.805  32.296   8.343
 1589POPC   C3A23993  43.673  32.012   7.991
 1589POPC   C4A23994  43.765  31.985   7.547
 1589POPC   C1B23995  43.998  32.557   8.790
 1589POPC   C2B23996  44.168  32.723   8.400
 1589POPC   C3B23997  44.220  32.547   7.992
 1589POPC   C4B23998  43.857  32.431   7.781
 1590POPC   NC323999  20.120  33.074   9.625
 1590POPC   PO424000  20.830  33.151   9.574
 1590POPC   GL124001  20.660  33.177   9.196
 1590POPC   GL224002  20.815  33.480   9.099
 1590POPC   C1A24003  20.508  32.896   8.911
 1590POPC   D2A24004  20.482  32.764   8.501
 1590POPC   C3A24005  20.467  32.902   8.047
 1590POPC   C4A24006  20.788  32.811   7.737
 1590POPC   C1B24007  20.808  33.257   8.709
 1590POPC   C2B24008  20.557  33.263   8.398
 1590POPC   C3B24009  20.520  33.498   8.053
 1590POPC   C4B24010  20.697  33.436   7.699
 1591POPC   NC324011  34.129  35.656   9.415
 1591POPC   PO424012  34.160  36.359   9.367
 1591POPC   GL124013  33.999  36.063   9.097
 1591POPC   GL224014  33.671  36.059   9.157
 1591POPC   C1A24015  34.090  36.078   8.670
 1591POPC   D2A24016  34.270  35.975   8.278
 1591POPC   C3A24017  34.158  36.242   7.959
 1591POPC   C4A24018  34.102  36.165   7.541
 1591POPC   C1B24019  33.617  35.892   8.733
 1591POPC   C2B24020  33.722  36.012   8.290
 1591POPC   C3B24021  33.688  36.054   7.839
 1591POPC   C4B24022  33.464  36.053   7.427
 1592POPC   NC324023  16.324  23.255   9.510
 1592POPC   PO424024  15.872  22.793   9.566
 1592POPC   GL124025  16.055  22.833   9.157
 1592POPC   GL224026  15.944  23.151   9.121
 1592POPC   C1A24027  15.852  22.804   8.727
 1592POPC   D2A24028  15.639  22.758   8.316
 1592POPC   C3A24029  15.949  22.689   7.983
 1592POPC   C4A24030  15.903  22.669   7.538
 1592POPC   C1B24031  15.947  23.318   8.699
 1592POPC   C2B24032  15.979  23.137   8.295
 1592POPC   C3B24033  15.953  23.216   7.880
 1592POPC   C4B24034  16.334  23.332   7.807
 1593POPC   NC324035  26.917  21.619   9.475
 1593POPC   PO424036  27.286  20.982   9.553
 1593POPC   GL124037  27.003  20.957   9.186
 1593POPC   GL224038  26.779  21.263   9.138
 1593POPC   C1A24039  26.827  20.985   8.740
 1593POPC   D2A24040  27.032  21.311   8.481
 1593POPC   C3A24041  26.905  21.381   8.067
 1593POPC   C4A24042  27.000  21.565   7.694
 1593POPC   C1B24043  26.809  21.620   8.820
 1593POPC   C2B24044  26.619  21.726   8.405
 1593POPC   C3B24045  26.587  21.784   7.944
 1593POPC   C4B24046  26.287  21.692   7.616
 1594POPC   NC324047   5.560  33.277   9.554
 1594POPC   PO424048   6.173  33.005   9.504
 1594POPC   GL124049   5.892  33.095   9.169
 1594POPC   GL224050   5.615  32.831   9.202
 1594POPC   C1A24051   6.075  33.120   8.760
 1594POPC   D2A24052   6.230  33.415   8.431
 1594POPC   C3A24053   6.087  33.216   8.079
 1594POPC   C4A24054   5.868  33.219   7.722
 1594POPC   C1B24055   5.817  32.662   8.797
 1594POPC   C2B24056   5.920  32.775   8.352
 1594POPC   C3B24057   5.676  32.805   7.956
 1594POPC   C4B24058   5.768  32.768   7.498
 1595POPC   NC324059   7.502  29.371   9.506
 1595POPC   PO424060   7.207  28.801   9.394
 1595POPC   GL124061   7.237  29.191   9.088
 1595POPC   GL224062   7.369  29.562   9.060
 1595POPC   C1A24063   7.483  29.184   8.705
 1595POPC   D2A24064   7.681  28.927   8.380
 1595POPC   C3A24065   7.514  28.979   7.961
 1595POPC   C4A24066   7.400  28.699   7.606
 1595POPC   C1B24067   7.325  29.663   8.636
 1595POPC   C2B24068   7.372  29.421   8.245
 1595POPC   C3B24069   7.506  29.490   7.808
 1595POPC   C4B24070   7.304  29.659   7.419
 1596POPC   NC324071  15.493   2.924   9.417
 1596POPC   PO424072  16.070   2.691   9.565
 1596POPC   GL124073  15.910   2.681   9.170
 1596POPC   GL224074  15.893   3.029   9.114
 1596POPC   C1A24075  15.783   2.676   8.741
 1596POPC   D2A24076  15.664   2.845   8.350
 1596POPC   C3A24077  15.676   2.601   8.011
 1596POPC   C4A24078  15.646   2.882   7.666
 1596POPC   C1B24079  16.214   2.937   8.798
 1596POPC   C2B24080  16.157   2.780   8.397
 1596POPC   C3B24081  16.057   2.930   7.975
 1596POPC   C4B24082  16.082   3.116   7.544
 1597POPC   NC324083  19.701  19.295   9.596
 1597POPC   PO424084  19.687  19.935   9.454
 1597POPC   GL124085  19.859  19.807   9.116
 1597POPC   GL224086  19.742  19.490   9.139
 1597POPC   C1A24087  20.012  19.704   8.717
 1597POPC   D2A24088  20.143  19.517   8.342
 1597POPC   C3A24089  19.907  19.715   8.036
 1597POPC   C4A24090  19.944  19.904   7.636
 1597POPC   C1B24091  19.590  19.363   8.790
 1597POPC   C2B24092  19.618  19.491   8.393
 1597POPC   C3B24093  19.497  19.347   8.028
 1597POPC   C4B24094  19.705  19.449   7.655
 1598POPC   NC324095  17.337  27.935   9.568
 1598POPC   PO424096  17.110  27.289   9.467
 1598POPC   GL124097  17.189  27.460   9.047
 1598POPC   GL224098  17.422  27.770   9.082
 1598POPC   C1A24099  17.395  27.294   8.650
 1598POPC   D2A24100  17.336  27.084   8.242
 1598POPC   C3A24101  17.312  27.299   7.826
 1598POPC   C4A24102  17.475  27.617   7.549
 1598POPC   C1B24103  17.663  27.729   8.692
 1598POPC   C2B24104  17.575  27.686   8.231
 1598POPC   C3B24105  17.685  27.957   7.864
 1598POPC   C4B24106  17.764  28.002   7.393
 1599POPC   NC324107  34.521  37.128   9.484
 1599POPC   PO424108  35.113  37.040   9.526
 1599POPC   GL124109  34.846  36.977   9.130
 1599POPC   GL224110  34.625  36.698   9.152
 1599POPC   C1A24111  34.649  37.149   8.750
 1599POPC   D2A24112  34.796  37.273   8.317
 1599POPC   C3A24113  34.644  36.994   7.989
 1599POPC   C4A24114  34.831  36.960   7.576
 1599POPC   C1B24115  34.462  36.667   8.704
 1599POPC   C2B24116  34.443  36.585   8.252
 1599POPC   C3B24117  34.173  36.758   7.933
 1599POPC   C4B24118  34.310  36.970   7.590
 1600POPC   NC324119   3.875  39.850   9.474
 1600POPC   PO424120   3.456  40.257   9.730
 1600POPC   GL124121   3.422  40.101   9.275
 1600POPC   GL224122   3.730  40.251   9.168
 1600POPC   C1A24123   3.333  39.985   8.804
 1600POPC   D2A24124   3.475  39.848   8.379
 1600POPC   C3A24125   3.242  40.120   8.050
 1600POPC   C4A24126   3.284  40.128   7.609
 1600POPC   C1B24127   3.841  40.077   8.754
 1600POPC   C2B24128   3.963  40.017   8.312
 1600POPC   C3B24129   3.723  39.993   7.914
 1600POPC   C4B24130   3.793  40.066   7.466
 1601POPC   NC324131  36.380  25.281   9.536
 1601POPC   PO424132  35.784  25.602   9.373
 1601POPC   GL124133  36.075  25.360   9.127
 1601POPC   GL224134  36.342  25.602   9.122
 1601POPC   C1A24135  36.319  25.119   8.770
 1601POPC   D2A24136  36.182  24.961   8.338
 1601POPC   C3A24137  36.322  24.844   7.915
 1601POPC   C4A24138  36.361  25.081   7.536
 1601POPC   C1B24139  36.225  25.615   8.701
 1601POPC   C2B24140  36.405  25.441   8.358
 1601POPC   C3B24141  36.295  25.348   7.976
 1601POPC   C4B24142  36.264  25.638   7.674
 1602POPC   NC324143  21.311  15.639   9.812
 1602POPC   PO424144  21.511  15.116   9.616
 1602POPC   GL124145  21.584  15.013   9.142
 1602POPC   GL224146  21.830  14.735   9.064
 1602POPC   C1A24147  21.357  15.127   8.733
 1602POPC   D2A24148  21.084  15.364   8.462
 1602POPC   C3A24149  21.173  15.339   8.045
 1602POPC   C4A24150  21.505  15.285   7.787
 1602POPC   C1B24151  21.737  14.810   8.643
 1602POPC   C2B24152  21.442  14.844   8.279
 1602POPC   C3B24153  21.176  14.847   7.910
 1602POPC   C4B24154  21.005  15.140   7.587
 1603POPC   NC324155  23.560  35.813   9.498
 1603POPC   PO424156  24.031  36.336   9.326
 1603POPC   GL124157  23.755  36.142   9.108
 1603POPC   GL224158  23.427  36.273   9.112
 1603POPC   C1A24159  23.888  36.104   8.713
 1603POPC   D2A24160  23.801  36.229   8.339
 1603POPC   C3A24161  23.955  36.033   7.999
 1603POPC   C4A24162  23.705  36.164   7.693
 1603POPC   C1B24163  23.399  35.986   8.762
 1603POPC   C2B24164  23.543  35.770   8.432
 1603POPC   C3B24165  23.473  35.814   8.010
 1603POPC   C4B24166  23.320  35.848   7.587
 1604POPC   NC324167   4.951  41.808   9.528
 1604POPC   PO424168   4.817  41.071   9.527
 1604POPC   GL124169   4.781  41.378   9.194
 1604POPC   GL224170   5.126  41.471   9.179
 1604POPC   C1A24171   4.763  41.532   8.755
 1604POPC   D2A24172   5.070  41.632   8.400
 1604POPC   C3A24173   4.955  41.612   7.995
 1604POPC   C4A24174   4.884  41.609   7.574
 1604POPC   C1B24175   5.236  41.332   8.771
 1604POPC   C2B24176   5.263  41.142   8.347
 1604POPC   C3B24177   5.302  41.221   7.884
 1604POPC   C4B24178   5.129  41.153   7.462
 1605POPC   NC324179  28.929  19.793   9.494
 1605POPC   PO424180  29.342  20.210   9.387
 1605POPC   GL124181  28.953  20.199   9.090
 1605POPC   GL224182  28.713  19.933   9.058
 1605POPC   C1A24183  28.960  20.115   8.639
 1605POPC   D2A24184  29.232  19.819   8.420
 1605POPC   C3A24185  29.208  19.746   7.982
 1605POPC   C4A24186  29.096  20.067   7.698
 1605POPC   C1B24187  28.835  19.623   8.762
 1605POPC   C2B24188  28.784  19.593   8.339
 1605POPC   C3B24189  28.707  19.659   7.948
 1605POPC   C4B24190  28.828  19.690   7.499
 1606POPC   NC324191  11.513  40.190   9.541
 1606POPC   PO424192  11.096  39.688   9.593
 1606POPC   GL124193  11.249  39.922   9.191
 1606POPC   GL224194  11.630  39.865   9.171
 1606POPC   C1A24195  11.279  39.898   8.717
 1606POPC   D2A24196  11.153  39.613   8.327
 1606POPC   C3A24197  11.258  39.818   7.925
 1606POPC   C4A24198  11.287  40.255   7.959
 1606POPC   C1B24199  11.766  40.149   8.856
 1606POPC   C2B24200  11.913  40.112   8.424
 1606POPC   C3B24201  11.767  39.974   8.032
 1606POPC   C4B24202  11.716  40.190   7.666
 1607POPC   NC324203   6.081  35.065   9.371
 1607POPC   PO424204   5.487  35.352   9.569
 1607POPC   GL124205   5.563  34.952   9.253
 1607POPC   GL224206   5.546  34.573   9.098
 1607POPC   C1A24207   5.656  34.962   8.776
 1607POPC   D2A24208   5.986  34.897   8.440
 1607POPC   C3A24209   5.786  34.705   8.087
 1607POPC   C4A24210   5.469  34.820   7.809
 1607POPC   C1B24211   5.873  34.498   8.754
 1607POPC   C2B24212   6.098  34.358   8.387
 1607POPC   C3B24213   6.257  34.496   7.985
 1607POPC   C4B24214   6.047  34.509   7.586
 1608POPC   NC324215   2.160   6.165   9.292
 1608POPC   PO424216   1.753   5.688   9.663
 1608POPC   GL124217   1.831   5.803   9.122
 1608POPC   GL224218   2.135   5.868   8.891
 1608POPC   C1A24219   1.664   5.875   8.691
 1608POPC   D2A24220   1.995   5.797   8.388
 1608POPC   C3A24221   1.869   5.642   8.005
 1608POPC   C4A24222   2.053   5.720   7.628
 1608POPC   C1B24223   2.396   6.203   8.700
 1608POPC   C2B24224   2.428   6.096   8.282
 1608POPC   C3B24225   2.169   6.066   7.961
 1608POPC   C4B24226   2.104   6.259   7.563
 1609POPC   NC324227   0.050  36.671   9.526
 1609POPC   PO424228  44.475  37.019   9.550
 1609POPC   GL124229  44.553  36.961   9.122
 1609POPC   GL224230  44.649  36.623   9.082
 1609POPC   C1A24231  44.700  37.018   8.704
 1609POPC   D2A24232  44.764  37.201   8.328
 1609POPC   C3A24233  44.461  37.151   8.004
 1609POPC   C4A24234  44.560  36.859   7.750
 1609POPC   C1B24235  44.337  36.674   8.730
 1609POPC   C2B24236  44.528  36.721   8.295
 1609POPC   C3B24237  44.737  36.435   7.984
 1609POPC   C4B24238  44.469  36.349   7.641
 1610POPC   NC324239  39.852  43.796   9.599
 1610POPC   PO424240  40.375  44.300   9.650
 1610POPC   GL124241  40.118  44.126   9.288
 1610POPC   GL224242  40.302  43.795   9.284
 1610POPC   C1A24243  40.122  43.973   8.838
 1610POPC   D2A24244  40.138  44.161   8.397
 1610POPC   C3A24245  40.017  43.990   7.968
 1610POPC   C4A24246  39.947  43.961   7.505
 1610POPC   C1B24247  40.343  43.501   8.930
 1610POPC   C2B24248  40.336  43.607   8.491
 1610POPC   C3B24249  40.300  43.449   8.083
 1610POPC   C4B24250  40.270  43.609   7.686
 1611POPC   NC324251  18.894  21.364   9.509
 1611POPC   PO424252  19.260  20.844   9.308
 1611POPC   GL124253  19.076  21.221   9.048
 1611POPC   GL224254  18.734  21.421   9.050
 1611POPC   C1A24255  18.974  21.335   8.619
 1611POPC   D2A24256  18.825  21.218   8.225
 1611POPC   C3A24257  19.036  21.384   7.876
 1611POPC   C4A24258  19.218  21.195   7.515
 1611POPC   C1B24259  18.841  21.785   8.773
 1611POPC   C2B24260  18.838  21.743   8.299
 1611POPC   C3B24261  18.852  21.881   7.860
 1611POPC   C4B24262  18.817  22.115   7.449
 1612POPC   NC324263  21.060  31.176   9.812
 1612POPC   PO424264  21.315  30.707   9.459
 1612POPC   GL124265  21.495  30.642   9.116
 1612POPC   GL224266  21.768  30.879   9.202
 1612POPC   C1A24267  21.518  30.481   8.729
 1612POPC   D2A24268  21.645  30.627   8.343
 1612POPC   C3A24269  21.297  30.643   8.058
 1612POPC   C4A24270  21.114  30.883   7.735
 1612POPC   C1B24271  21.627  31.021   8.806
 1612POPC   C2B24272  21.700  31.176   8.412
 1612POPC   C3B24273  21.545  31.123   8.021
 1612POPC   C4B24274  21.638  30.841   7.728
 1613POPC   NC324275  15.852  24.112   9.470
 1613POPC   PO424276  16.314  23.678   9.719
 1613POPC   GL124277  15.954  23.616   9.384
 1613POPC   GL224278  16.092  23.628   9.085
 1613POPC   C1A24279  15.623  23.695   8.999
 1613POPC   D2A24280  15.647  23.735   8.526
 1613POPC   C3A24281  15.738  23.908   8.087
 1613POPC   C4A24282  15.648  23.661   7.701
 1613POPC   C1B24283  16.122  23.829   8.705
 1613POPC   C2B24284  16.119  23.647   8.325
 1613POPC   C3B24285  16.302  23.827   8.011
 1613POPC   C4B24286  16.157  23.769   7.623
 1614POPC   NC324287  37.816  44.587   9.615
 1614POPC   PO424288  37.408   0.060   9.457
 1614POPC   GL124289  37.745  44.850   9.182
 1614POPC   GL224290  37.919  44.526   9.129
 1614POPC   C1A24291  37.810  44.861   8.753
 1614POPC   D2A24292  37.582  44.685   8.407
 1614POPC   C3A24293  37.721  44.502   8.040
 1614POPC   C4A24294  37.863  44.725   7.684
 1614POPC   C1B24295  37.580  44.395   8.843
 1614POPC   C2B24296  37.537  44.169   8.459
 1614POPC   C3B24297  37.424  44.017   8.066
 1614POPC   C4B24298  37.517  44.154   7.703
 1615POPC   NC324299  34.736  30.020   9.540
 1615POPC   PO424300  34.775  29.452   9.194
 1615POPC   GL124301  34.627  29.902   9.072
 1615POPC   GL224302  34.833  30.256   9.115
 1615POPC   C1A24303  34.300  30.059   8.810
 1615POPC   D2A24304  34.420  29.959   8.406
 1615POPC   C3A24305  34.262  30.143   8.064
 1615POPC   C4A24306  34.468  29.941   7.736
 1615POPC   C1B24307  34.772  30.243   8.703
 1615POPC   C2B24308  34.691  30.405   8.328
 1615POPC   C3B24309  34.824  30.151   8.019
 1615POPC   C4B24310  34.912  29.716   7.909
 1616POPC   NC324311   5.350  20.296   9.430
 1616POPC   PO424312   4.776  20.435   9.674
 1616POPC   GL124313   4.927  20.543   9.167
 1616POPC   GL224314   5.211  20.602   9.062
 1616POPC   C1A24315   4.968  20.340   8.711
 1616POPC   D2A24316   5.237  20.140   8.423
 1616POPC   C3A24317   5.047  20.276   8.046
 1616POPC   C4A24318   4.972  20.720   7.833
 1616POPC   C1B24319   5.464  20.594   8.751
 1616POPC   C2B24320   5.549  20.804   8.404
 1616POPC   C3B24321   5.438  20.601   8.053
 1616POPC   C4B24322   5.470  20.728   7.663
 1617POPC   NC324323  37.776  15.246   9.613
 1617POPC   PO424324  38.126  15.723   9.411
 1617POPC   GL124325  37.765  15.492   9.157
 1617POPC   GL224326  37.738  15.104   9.124
 1617POPC   C1A24327  37.454  15.365   8.821
 1617POPC   D2A24328  37.270  15.449   8.421
 1617POPC   C3A24329  37.387  15.220   8.036
 1617POPC   C4A24330  37.385  15.138   7.587
 1617POPC   C1B24331  38.012  14.890   8.841
 1617POPC   C2B24332  38.088  15.099   8.456
 1617POPC   C3B24333  37.916  15.195   8.040
 1617POPC   C4B24334  37.878  14.998   7.640
 1618POPC   NC324335  43.218  18.278   9.466
 1618POPC   PO424336  42.932  17.696   9.460
 1618POPC   GL124337  43.033  17.967   9.104
 1618POPC   GL224338  42.857  18.278   9.101
 1618POPC   C1A24339  43.187  18.231   8.730
 1618POPC   D2A24340  43.099  18.498   8.354
 1618POPC   C3A24341  43.277  18.320   7.948
 1618POPC   C4A24342  43.489  17.963   7.732
 1618POPC   C1B24343  42.721  18.465   8.735
 1618POPC   C2B24344  42.610  18.296   8.336
 1618POPC   C3B24345  42.761  18.397   7.965
 1618POPC   C4B24346  42.580  18.758   7.773
 1619POPC   NC324347  28.079   4.928   9.530
 1619POPC   PO424348  28.626   5.302   9.368
 1619POPC   GL124349  28.328   5.092   9.117
 1619POPC   GL224350  27.944   5.170   9.095
 1619POPC   C1A24351  28.308   5.007   8.723
 1619POPC   D2A24352  28.559   4.919   8.343
 1619POPC   C3A24353  28.366   4.869   7.931
 1619POPC   C4A24354  28.600   4.812   7.562
 1619POPC   C1B24355  28.009   5.434   8.736
 1619POPC   C2B24356  28.257   5.364   8.377
 1619POPC   C3B24357  28.417   5.381   8.007
 1619POPC   C4B24358  28.028   5.420   7.845
 1620POPC   NC324359   4.130  43.801   9.563
 1620POPC   PO424360   4.787  44.023   9.350
 1620POPC   GL124361   4.382  43.974   9.133
 1620POPC   GL224362   4.168  44.266   9.220
 1620POPC   C1A24363   4.304  43.703   8.757
 1620POPC   D2A24364   4.606  43.540   8.429
 1620POPC   C3A24365   4.682  43.889   8.127
 1620POPC   C4A24366   4.545  43.814   7.715
 1620POPC   C1B24367   3.987  44.125   8.824
 1620POPC   C2B24368   3.806  43.848   8.491
 1620POPC   C3B24369   3.776  43.878   8.043
 1620POPC   C4B24370   4.066  44.142   7.797
 1621POPC   NC324371  25.818  16.314   9.479
 1621POPC   PO424372  25.383  15.852   9.745
 1621POPC   GL124373  25.437  15.910   9.272
 1621POPC   GL224374  25.387  16.240   9.187
 1621POPC   C1A24375  25.435  15.843   8.849
 1621POPC   D2A24376  25.203  15.999   8.494
 1621POPC   C3A24377  24.936  15.887   8.147
 1621POPC   C4A24378  25.173  15.834   7.784
 1621POPC   C1B24379  25.592  16.329   8.808
 1621POPC   C2B24380  25.486  16.424   8.406
 1621POPC   C3B24381  25.451  16.209   8.040
 1621POPC   C4B24382  25.596  16.303   7.631
 1622POPC   NC324383  27.729  20.818   9.629
 1622POPC   PO424384  27.456  20.205   9.648
 1622POPC   GL124385  27.462  20.568   9.255
 1622POPC   GL224386  27.618  20.947   9.162
 1622POPC   C1A24387  27.606  20.562   8.811
 1622POPC   D2A24388  27.733  20.290   8.454
 1622POPC   C3A24389  27.571  20.444   8.065
 1622POPC   C4A24390  27.743  20.491   7.634
 1622POPC   C1B24391  27.854  21.043   8.789
 1622POPC   C2B24392  27.848  20.809   8.395
 1622POPC   C3B24393  27.786  20.894   7.966
 1622POPC   C4B24394  27.848  21.210   7.684
 1623POPC   NC324395   5.370   5.874   9.520
 1623POPC   PO424396   4.776   6.111   9.320
 1623POPC   GL124397   4.998   5.955   8.946
 1623POPC   GL224398   5.105   5.598   8.849
 1623POPC   C1A24399   4.906   5.893   8.504
 1623POPC   D2A24400   4.965   6.193   8.224
 1623POPC   C3A24401   5.001   6.114   7.811
 1623POPC   C4A24402   4.805   5.716   7.680
 1623POPC   C1B24403   5.404   5.909   8.637
 1623POPC   C2B24404   5.452   5.868   8.230
 1623POPC   C3B24405   5.186   5.652   8.009
 1623POPC   C4B24406   5.363   5.800   7.661
 1624POPC   NC324407  38.554   3.827   9.484
 1624POPC   PO424408  38.002   3.473   9.481
 1624POPC   GL124409  38.229   3.583   9.112
 1624POPC   GL224410  38.564   3.442   9.116
 1624POPC   C1A24411  38.350   3.733   8.707
 1624POPC   D2A24412  38.554   3.660   8.299
 1624POPC   C3A24413  38.305   3.738   7.928
 1624POPC   C4A24414  38.328   3.676   7.471
 1624POPC   C1B24415  38.553   3.275   8.698
 1624POPC   C2B24416  38.356   3.199   8.298
 1624POPC   C3B24417  38.502   3.274   7.845
 1624POPC   C4B24418  38.688   2.967   7.552
 1625POPC   NC324419  12.408   3.585   9.814
 1625POPC   PO424420  13.016   3.412   9.581
 1625POPC   GL124421  12.859   3.467   9.194
 1625POPC   GL224422  12.502   3.525   9.245
 1625POPC   C1A24423  12.814   3.348   8.772
 1625POPC   D2A24424  12.708   3.154   8.380
 1625POPC   C3A24425  12.817   3.373   7.979
 1625POPC   C4A24426  12.735   3.229   7.567
 1625POPC   C1B24427  12.654   3.861   8.951
 1625POPC   C2B24428  12.812   3.908   8.540
 1625POPC   C3B24429  12.810   3.881   8.106
 1625POPC   C4B24430  12.549   3.977   7.782
 1626POPC   NC324431  20.431   8.013   9.717
 1626POPC   PO424432  20.957   8.372   9.489
 1626POPC   GL124433  20.819   8.079   9.154
 1626POPC   GL224434  20.446   7.972   9.187
 1626POPC   C1A24435  20.718   8.084   8.712
 1626POPC   D2A24436  20.403   8.079   8.380
 1626POPC   C3A24437  20.564   8.209   7.994
 1626POPC   C4A24438  20.899   8.059   7.769
 1626POPC   C1B24439  20.366   8.361   8.969
 1626POPC   C2B24440  20.169   8.489   8.591
 1626POPC   C3B24441  20.115   8.506   8.139
 1626POPC   C4B24442  20.209   8.491   7.716
 1627POPC   NC324443  41.042  21.263   9.390
 1627POPC   PO424444  41.632  21.267   9.469
 1627POPC   GL124445  41.720  21.170   9.081
 1627POPC   GL224446  41.367  21.161   9.009
 1627POPC   C1A24447  41.735  21.498   8.776
 1627POPC   D2A24448  41.510  21.678   8.445
 1627POPC   C3A24449  41.665  21.553   8.091
 1627POPC   C4A24450  41.553  21.707   7.721
 1627POPC   C1B24451  41.263  21.272   8.600
 1627POPC   C2B24452  41.147  21.394   8.187
 1627POPC   C3B24453  41.365  21.231   7.836
 1627POPC   C4B24454  41.814  21.088   7.886
 1628POPC   NC324455  31.283  11.139   9.432
 1628POPC   PO424456  31.780  11.573   9.547
 1628POPC   GL124457  31.721  11.370   9.114
 1628POPC   GL224458  31.366  11.444   9.023
 1628POPC   C1A24459  31.661  11.434   8.623
 1628POPC   D2A24460  31.367  11.454   8.306
 1628POPC   C3A24461  31.618  11.443   7.962
 1628POPC   C4A24462  31.725  11.083   7.750
 1628POPC   C1B24463  31.365  11.042   8.767
 1628POPC   C2B24464  31.233  10.942   8.337
 1628POPC   C3B24465  31.220  11.113   7.899
 1628POPC   C4B24466  31.261  10.998   7.458
 1629POPC   NC324467   2.388  23.478   9.272
 1629POPC   PO424468   2.214  22.869   9.518
 1629POPC   GL124469   2.149  22.942   9.101
 1629POPC   GL224470   2.344  22.655   9.032
 1629POPC   C1A24471   1.922  23.097   8.724
 1629POPC   D2A24472   1.647  22.866   8.407
 1629POPC   C3A24473   1.698  23.032   7.971
 1629POPC   C4A24474   1.982  23.319   7.733
 1629POPC   C1B24475   2.237  22.702   8.599
 1629POPC   C2B24476   2.147  22.961   8.241
 1629POPC   C3B24477   2.185  22.857   7.797
 1629POPC   C4B24478   2.345  23.111   7.449
 1630POPC   NC324479  13.427  25.955   9.539
 1630POPC   PO424480  14.092  25.967   9.479
 1630POPC   GL124481  13.751  25.998   9.126
 1630POPC   GL224482  13.406  25.817   9.045
 1630POPC   C1A24483  13.728  25.957   8.668
 1630POPC   D2A24484  13.947  25.988   8.282
 1630POPC   C3A24485  13.666  26.135   7.969
 1630POPC   C4A24486  13.278  26.294   7.796
 1630POPC   C1B24487  13.399  25.559   8.662
 1630POPC   C2B24488  13.470  25.733   8.249
 1630POPC   C3B24489  13.324  25.763   7.813
 1630POPC   C4B24490  13.106  25.700   7.401
 1631POPC   NC324491  33.012  44.054   9.557
 1631POPC   PO424492  32.725  43.481   9.662
 1631POPC   GL124493  32.754  43.699   9.238
 1631POPC   GL224494  33.061  43.887   9.098
 1631POPC   C1A24495  32.774  43.637   8.780
 1631POPC   D2A24496  32.974  44.011   8.569
 1631POPC   C3A24497  32.864  44.151   8.154
 1631POPC   C4A24498  33.036  43.970   7.788
 1631POPC   C1B24499  33.337  44.191   8.890
 1631POPC   C2B24500  33.621  44.106   8.548
 1631POPC   C3B24501  33.460  43.984   8.118
 1631POPC   C4B24502  33.583  43.800   7.703
 1632POPC   NC324503  22.841  44.308   9.532
 1632POPC   PO424504  23.382  43.821   9.482
 1632POPC   GL124505  23.176  43.685   9.123
 1632POPC   GL224506  22.937  43.937   9.139
 1632POPC   C1A24507  22.937  43.627   8.744
 1632POPC   D2A24508  22.739  43.779   8.401
 1632POPC   C3A24509  22.989  44.081   8.178
 1632POPC   C4A24510  22.986  43.810   7.859
 1632POPC   C1B24511  22.891  44.147   8.735
 1632POPC   C2B24512  22.557  44.253   8.412
 1632POPC   C3B24513  22.503  44.058   8.014
 1632POPC   C4B24514  22.725  44.211   7.662
 1633POPC   NC324515  30.812  41.549   9.476
 1633POPC   PO424516  30.477  41.014   9.505
 1633POPC   GL124517  30.570  41.245   9.082
 1633POPC   GL224518  30.579  41.633   9.043
 1633POPC   C1A24519  30.587  41.338   8.617
 1633POPC   D2A24520  30.372  41.652   8.356
 1633POPC   C3A24521  30.478  41.586   7.928
 1633POPC   C4A24522  30.892  41.402   7.765
 1633POPC   C1B24523  30.787  41.824   8.700
 1633POPC   C2B24524  30.906  41.689   8.283
 1633POPC   C3B24525  30.871  41.913   7.899
 1633POPC   C4B24526  30.587  41.957   7.556
 1634POPC   NC324527   0.960  31.168   9.725
 1634POPC   PO424528   1.390  31.517   9.238
 1634POPC   GL124529   1.115  31.583   8.945
 1634POPC   GL224530   1.314  31.877   8.906
 1634POPC   C1A24531   1.096  31.609   8.536
 1634POPC   D2A24532   0.951  31.323   8.289
 1634POPC   C3A24533   1.223  31.234   7.979
 1634POPC   C4A24534   0.906  31.375   7.719
 1634POPC   C1B24535   1.566  31.798   8.584
 1634POPC   C2B24536   1.415  31.754   8.149
 1634POPC   C3B24537   1.402  31.714   7.714
 1634POPC   C4B24538   1.482  31.895   7.303
 1635POPC   NC324539  13.600  28.439   9.624
 1635POPC   PO424540  13.938  27.899   9.475
 1635POPC   GL124541  13.619  28.207   9.173
 1635POPC   GL224542  13.365  28.526   9.170
 1635POPC   C1A24543  13.699  28.498   8.782
 1635POPC   D2A24544  13.775  28.654   8.358
 1635POPC   C3A24545  13.745  28.407   7.995
 1635POPC   C4A24546  14.056  28.194   7.786
 1635POPC   C1B24547  13.232  28.316   8.796
 1635POPC   C2B24548  13.273  28.515   8.415
 1635POPC   C3B24549  13.141  28.513   8.025
 1635POPC   C4B24550  13.315  28.298   7.725
 1636POPC   NC324551   6.590  31.416   9.796
 1636POPC   PO424552   7.141  31.631   9.357
 1636POPC   GL124553   6.897  31.363   9.066
 1636POPC   GL224554   6.612  31.400   9.250
 1636POPC   C1A24555   6.764  31.396   8.619
 1636POPC   D2A24556   6.406  31.229   8.330
 1636POPC   C3A24557   6.519  31.259   7.876
 1636POPC   C4A24558   6.906  31.374   7.733
 1636POPC   C1B24559   6.602  31.778   8.977
 1636POPC   C2B24560   6.468  31.825   8.547
 1636POPC   C3B24561   6.642  31.671   8.172
 1636POPC   C4B24562   6.564  31.793   7.777
 1637POPC   NC324563  14.329   6.480   9.496
 1637POPC   PO424564  14.822   6.907   9.364
 1637POPC   GL124565  14.591   6.678   9.075
 1637POPC   GL224566  14.612   6.272   9.116
 1637POPC   C1A24567  14.587   6.882   8.645
 1637POPC   D2A24568  14.749   6.895   8.202
 1637POPC   C3A24569  14.530   6.902   7.784
 1637POPC   C4A24570  14.514   7.182   7.428
 1637POPC   C1B24571  14.622   6.374   8.681
 1637POPC   C2B24572  14.401   6.531   8.312
 1637POPC   C3B24573  14.266   6.468   7.904
 1637POPC   C4B24574  14.438   6.420   7.514
 1638POPC   NC324575  43.919  43.546   9.816
 1638POPC   PO424576  43.694  44.031   9.420
 1638POPC   GL124577  43.809  44.155   9.063
 1638POPC   GL224578  44.137  44.240   9.070
 1638POPC   C1A24579  43.924  43.977   8.672
 1638POPC   D2A24580  44.153  43.658   8.411
 1638POPC   C3A24581  44.057  43.678   7.989
 1638POPC   C4A24582  43.653  43.805   7.808
 1638POPC   C1B24583  44.247  44.464   8.747
 1638POPC   C2B24584  44.245  44.274   8.397
 1638POPC   C3B24585  43.922  44.132   8.172
 1638POPC   C4B24586  43.906  44.239   7.781
 1639POPC   NC324587  27.357  11.969   9.633
 1639POPC   PO424588  27.978  11.983   9.465
 1639POPC   GL124589  27.684  12.100   9.147
 1639POPC   GL224590  27.305  12.149   9.142
 1639POPC   C1A24591  27.716  12.232   8.738
 1639POPC   D2A24592  27.602  12.179   8.356
 1639POPC   C3A24593  27.873  12.137   8.009
 1639POPC   C4A24594  27.778  11.916   7.604
 1639POPC   C1B24595  27.338  11.872   8.790
 1639POPC   C2B24596  27.223  11.856   8.354
 1639POPC   C3B24597  27.378  11.948   7.952
 1639POPC   C4B24598  27.205  11.821   7.608
 1640POPC   NC324599   8.761  31.950   9.471
 1640POPC   PO424600   9.075  32.584   9.504
 1640POPC   GL124601   9.101  32.250   9.192
 1640POPC   GL224602   8.779  32.329   9.077
 1640POPC   C1A24603   9.127  32.133   8.752
 1640POPC   D2A24604   8.807  32.367   8.516
 1640POPC   C3A24605   8.881  32.443   8.073
 1640POPC   C4A24606   9.043  32.190   7.735
 1640POPC   C1B24607   8.638  31.974   8.807
 1640POPC   C2B24608   8.803  31.869   8.401
 1640POPC   C3B24609   8.669  31.956   7.999
 1640POPC   C4B24610   8.619  31.966   7.551
 1641POPC   NC324611  14.143  30.826   9.834
 1641POPC   PO424612  14.586  30.400   9.686
 1641POPC   GL124613  14.537  30.591   9.245
 1641POPC   GL224614  14.783  30.438   8.996
 1641POPC   C1A24615  14.538  30.850   8.823
 1641POPC   D2A24616  14.673  30.689   8.379
 1641POPC   C3A24617  14.539  30.805   7.919
 1641POPC   C4A24618  14.483  30.611   7.487
 1641POPC   C1B24619  14.333  30.388   8.817
 1641POPC   C2B24620  14.059  30.426   8.490
 1641POPC   C3B24621  14.209  30.436   8.107
 1641POPC   C4B24622  14.074  30.655   7.779
 1642POPC   NC324623  17.573  25.502   9.769
 1642POPC   PO424624  17.659  24.877   9.764
 1642POPC   GL124625  17.610  25.030   9.318
 1642POPC   GL224626  17.579  25.403   9.226
 1642POPC   C1A24627  17.483  25.055   8.860
 1642POPC   D2A24628  17.553  25.311   8.484
 1642POPC   C3A24629  17.370  25.163   8.116
 1642POPC   C4A24630  17.476  25.167   7.713
 1642POPC   C1B24631  17.285  25.536   8.864
 1642POPC   C2B24632  17.065  25.452   8.417
 1642POPC   C3B24633  17.010  25.468   7.909
 1642POPC   C4B24634  17.123  25.447   7.453
 1643POPC   NC324635  15.716   7.502   9.671
 1643POPC   PO424636  16.295   7.175   9.511
 1643POPC   GL124637  16.165   7.389   9.134
 1643POPC   GL224638  15.887   7.613   9.178
 1643POPC   C1A24639  15.999   7.373   8.713
 1643POPC   D2A24640  15.818   7.173   8.379
 1643POPC   C3A24641  15.981   7.230   7.966
 1643POPC   C4A24642  15.922   7.117   7.515
 1643POPC   C1B24643  15.882   7.860   8.759
 1643POPC   C2B24644  15.855   7.717   8.323
 1643POPC   C3B24645  16.053   7.741   7.912
 1643POPC   C4B24646  15.968   7.809   7.458
 1644POPC   NC324647   3.869   8.039   9.499
 1644POPC   PO424648   3.429   8.475   9.193
 1644POPC   GL124649   3.785   8.320   9.041
 1644POPC   GL224650   3.726   7.986   9.018
 1644POPC   C1A24651   3.695   8.249   8.598
 1644POPC   D2A24652   3.278   8.221   8.426
 1644POPC   C3A24653   3.346   8.304   7.995
 1644POPC   C4A24654   3.758   8.283   7.813
 1644POPC   C1B24655   3.515   7.770   8.646
 1644POPC   C2B24656   3.512   7.818   8.210
 1644POPC   C3B24657   3.547   7.815   7.791
 1644POPC   C4B24658   3.621   7.545   7.437
 1645POPC   NC324659   2.386  16.601   9.462
 1645POPC   PO424660   1.766  16.855   9.517
 1645POPC   GL124661   1.930  16.713   9.144
 1645POPC   GL224662   1.924  16.404   9.258
 1645POPC   C1A24663   2.119  16.795   8.743
 1645POPC   D2A24664   2.071  17.042   8.379
 1645POPC   C3A24665   1.714  17.031   8.165
 1645POPC   C4A24666   1.920  16.855   7.811
 1645POPC   C1B24667   2.200  16.315   8.914
 1645POPC   C2B24668   2.281  16.328   8.480
 1645POPC   C3B24669   2.189  16.521   8.111
 1645POPC   C4B24670   2.078  16.353   7.718
 1646POPC   NC324671  36.150  37.326   9.365
 1646POPC   PO424672  36.359  36.645   9.360
 1646POPC   GL124673  36.085  36.873   9.121
 1646POPC   GL224674  35.811  36.643   9.172
 1646POPC   C1A24675  36.026  37.088   8.729
 1646POPC   D2A24676  35.831  37.050   8.328
 1646POPC   C3A24677  35.961  37.283   7.968
 1646POPC   C4A24678  35.915  37.098   7.560
 1646POPC   C1B24679  36.044  36.502   8.775
 1646POPC   C2B24680  36.150  36.377   8.350
 1646POPC   C3B24681  36.089  36.595   7.973
 1646POPC   C4B24682  36.336  36.585   7.626
 1647POPC   NC324683  38.425  40.432   9.419
 1647POPC   PO424684  38.654  41.121   9.486
 1647POPC   GL124685  38.342  40.900   9.177
 1647POPC   GL224686  38.178  40.583   9.009
 1647POPC   C1A24687  38.185  41.030   8.783
 1647POPC   D2A24688  38.047  40.901   8.398
 1647POPC   C3A24689  38.347  40.723   8.149
 1647POPC   C4A24690  38.415  40.870   7.769
 1647POPC   C1B24691  38.432  40.590   8.664
 1647POPC   C2B24692  38.800  40.627   8.423
 1647POPC   C3B24693  38.778  40.414   8.041
 1647POPC   C4B24694  38.429  40.341   7.772
 1648POPC   NC324695  14.956  20.408   9.548
 1648POPC   PO424696  14.329  20.726   9.491
 1648POPC   GL124697  14.566  20.621   9.175
 1648POPC   GL224698  14.522  20.952   9.046
 1648POPC   C1A24699  14.432  20.558   8.748
 1648POPC   D2A24700  14.538  20.712   8.345
 1648POPC   C3A24701  14.516  20.464   7.974
 1648POPC   C4A24702  14.162  20.550   7.697
 1648POPC   C1B24703  14.787  20.979   8.732
 1648POPC   C2B24704  14.977  21.004   8.342
 1648POPC   C3B24705  14.830  20.902   7.942
 1648POPC   C4B24706  14.626  20.750   7.569
 1649POPC   NC324707   3.096  36.326   9.504
 1649POPC   PO424708   2.694  35.812   9.700
 1649POPC   GL124709   2.858  35.892   9.258
 1649POPC   GL224710   3.092  36.148   9.043
 1649POPC   C1A24711   2.873  35.776   8.807
 1649POPC   D2A24712   3.093  36.050   8.504
 1649POPC   C3A24713   2.937  36.063   8.086
 1649POPC   C4A24714   2.487  36.048   7.908
 1649POPC   C1B24715   2.705  36.266   8.771
 1649POPC   C2B24716   2.578  36.312   8.345
 1649POPC   C3B24717   2.680  36.517   7.889
 1649POPC   C4B24718   2.553  36.431   7.397
 1650POPC   NC324719   7.178   0.950   9.519
 1650POPC   PO424720   7.618   1.356   9.482
 1650POPC   GL124721   7.331   1.303   9.151
 1650POPC   GL224722   7.413   0.998   9.062
 1650POPC   C1A24723   7.243   1.472   8.763
 1650POPC   D2A24724   7.348   1.284   8.381
 1650POPC   C3A24725   7.247   1.492   8.009
 1650POPC   C4A24726   7.353   1.361   7.642
 1650POPC   C1B24727   7.620   0.800   8.728
 1650POPC   C2B24728   7.694   0.781   8.311
 1650POPC   C3B24729   7.529   0.660   7.946
 1650POPC   C4B24730   7.590   0.921   7.614
 1651POPC   NC324731  28.789  33.404   9.570
 1651POPC   PO424732  28.300  32.865   9.521
 1651POPC   GL124733  28.452  32.795   9.154
 1651POPC   GL224734  28.616  33.109   9.178
 1651POPC   C1A24735  28.301  32.887   8.760
 1651POPC   D2A24736  28.489  32.785   8.393
 1651POPC   C3A24737  28.220  32.876   8.052
 1651POPC   C4A24738  28.323  33.064   7.640
 1651POPC   C1B24739  28.779  33.030   8.795
 1651POPC   C2B24740  28.834  33.191   8.398
 1651POPC   C3B24741  28.712  33.067   8.001
 1651POPC   C4B24742  28.844  32.954   7.597
 1652POPC   NC324743  22.907  36.718   9.564
 1652POPC   PO424744  22.444  37.249   9.391
 1652POPC   GL124745  22.821  37.048   9.174
 1652POPC   GL224746  23.190  36.923   9.188
 1652POPC   C1A24747  22.881  36.784   8.792
 1652POPC   D2A24748  22.738  37.009   8.439
 1652POPC   C3A24749  22.684  36.903   8.022
 1652POPC   C4A24750  22.971  36.802   7.706
 1652POPC   C1B24751  23.175  37.183   8.830
 1652POPC   C2B24752  23.345  37.149   8.418
 1652POPC   C3B24753  23.156  37.171   8.020
 1652POPC   C4B24754  23.204  37.273   7.578
 1653POPC   NC324755  26.175   4.195   9.607
 1653POPC   PO424756  26.202   3.730   9.269
 1653POPC   GL124757  26.370   4.141   9.083
 1653POPC   GL224758  26.465   4.494   9.185
 1653POPC   C1A24759  26.290   4.305   8.659
 1653POPC   D2A24760  25.950   4.399   8.346
 1653POPC   C3A24761  26.000   4.223   7.931
 1653POPC   C4A24762  26.366   4.089   7.720
 1653POPC   C1B24763  26.527   4.734   8.783
 1653POPC   C2B24764  26.327   4.760   8.364
 1653POPC   C3B24765  26.061   4.741   7.968
 1653POPC   C4B24766  26.133   4.562   7.576
 1654POPC   NC324767  11.947  41.353   9.578
 1654POPC   PO424768  12.151  41.920   9.781
 1654POPC   GL124769  12.185  41.723   9.347
 1654POPC   GL224770  11.807  41.765   9.301
 1654POPC   C1A24771  12.125  41.546   8.925
 1654POPC   D2A24772  12.091  41.376   8.521
 1654POPC   C3A24773  12.129  41.565   8.108
 1654POPC   C4A24774  12.273  41.338   7.763
 1654POPC   C1B24775  11.828  41.973   8.905
 1654POPC   C2B24776  11.883  41.876   8.462
 1654POPC   C3B24777  11.754  41.960   8.012
 1654POPC   C4B24778  11.813  41.660   7.685
 1655POPC   NC324779  22.395  18.989   9.832
 1655POPC   PO424780  21.945  19.439   9.520
 1655POPC   GL124781  22.230  19.151   9.312
 1655POPC   GL224782  21.969  19.166   9.069
 1655POPC   C1A24783  22.403  18.937   8.915
 1655POPC   D2A24784  22.249  18.813   8.486
 1655POPC   C3A24785  22.391  18.994   8.075
 1655POPC   C4A24786  22.438  19.247   7.696
 1655POPC   C1B24787  21.869  18.798   8.847
 1655POPC   C2B24788  21.729  18.710   8.444
 1655POPC   C3B24789  21.909  18.813   8.093
 1655POPC   C4B24790  21.972  19.007   7.712
 1656POPC   NC324791   7.685  35.098   9.476
 1656POPC   PO424792   7.216  35.535   9.727
 1656POPC   GL124793   7.443  35.506   9.290
 1656POPC   GL224794   7.306  35.218   9.132
 1656POPC   C1A24795   7.640  35.609   8.868
 1656POPC   D2A24796   7.582  35.813   8.450
 1656POPC   C3A24797   7.519  35.584   8.054
 1656POPC   C4A24798   7.160  35.468   7.819
 1656POPC   C1B24799   7.336  35.206   8.697
 1656POPC   C2B24800   7.130  35.259   8.305
 1656POPC   C3B24801   7.171  34.968   7.953
 1656POPC   C4B24802   7.196  35.056   7.516
 1657POPC   NC324803  27.977  34.738   9.514
 1657POPC   PO424804  27.906  34.078   9.574
 1657POPC   GL124805  27.827  34.295   9.185
 1657POPC   GL224806  27.651  34.631   9.148
 1657POPC   C1A24807  27.860  34.285   8.748
 1657POPC   D2A24808  28.083  34.381   8.373
 1657POPC   C3A24809  27.819  34.333   8.030
 1657POPC   C4A24810  27.905  34.488   7.617
 1657POPC   C1B24811  27.361  34.524   8.849
 1657POPC   C2B24812  27.460  34.472   8.445
 1657POPC   C3B24813  27.333  34.498   8.058
 1657POPC   C4B24814  27.424  34.694   7.685
 1658POPC   NC324815  28.152   2.542   9.522
 1658POPC   PO424816  28.645   3.036   9.432
 1658POPC   GL124817  28.336   2.877   9.182
 1658POPC   GL224818  28.488   2.553   9.137
 1658POPC   C1A24819  28.240   2.819   8.767
 1658POPC   D2A24820  28.243   3.112   8.449
 1658POPC   C3A24821  28.280   2.974   8.056
 1658POPC   C4A24822  28.297   2.690   7.732
 1658POPC   C1B24823  28.733   2.704   8.809
 1658POPC   C2B24824  28.607   2.754   8.410
 1658POPC   C3B24825  28.591   2.509   8.095
 1658POPC   C4B24826  28.641   2.305   7.712
 1659POPC   NC324827  14.440  14.104   9.545
 1659POPC   PO424828  14.549  14.740   9.467
 1659POPC   GL124829  14.318  14.566   9.081
 1659POPC   GL224830  14.117  14.272   9.072
 1659POPC   C1A24831  14.236  14.564   8.620
 1659POPC   D2A24832  14.036  14.563   8.236
 1659POPC   C3A24833  14.265  14.578   7.896
 1659POPC   C4A24834  14.605  14.310   7.844
 1659POPC   C1B24835  14.462  14.151   8.787
 1659POPC   C2B24836  14.363  14.129   8.334
 1659POPC   C3B24837  14.142  14.093   7.950
 1659POPC   C4B24838  14.198  14.118   7.493
 1660POPC   NC324839  36.857  10.960   9.926
 1660POPC   PO424840  37.272  10.661   9.573
 1660POPC   GL124841  36.960  10.703   9.228
 1660POPC   GL224842  37.243  10.821   9.058
 1660POPC   C1A24843  36.733  10.689   8.793
 1660POPC   D2A24844  36.534  10.646   8.357
 1660POPC   C3A24845  36.693  10.324   8.052
 1660POPC   C4A24846  36.899  10.155   7.655
 1660POPC   C1B24847  37.187  10.861   8.631
 1660POPC   C2B24848  37.030  10.704   8.259
 1660POPC   C3B24849  37.129  10.563   7.852
 1660POPC   C4B24850  37.020  10.622   7.427
 1661POPC   NC324851  41.245  38.039   9.689
 1661POPC   PO424852  41.637  37.527   9.488
 1661POPC   GL124853  41.589  37.697   9.140
 1661POPC   GL224854  41.301  37.872   9.188
 1661POPC   C1A24855  41.700  37.636   8.721
 1661POPC   D2A24856  41.701  37.492   8.296
 1661POPC   C3A24857  41.726  37.845   7.984
 1661POPC   C4A24858  41.761  37.879   7.554
 1661POPC   C1B24859  41.190  37.590   8.831
 1661POPC   C2B24860  41.195  37.432   8.412
 1661POPC   C3B24861  41.270  37.619   8.005
 1661POPC   C4B24862  41.530  37.441   7.688
 1662POPC   NC324863   3.026  32.772   9.367
 1662POPC   PO424864   3.598  33.126   9.575
 1662POPC   GL124865   3.434  33.005   9.161
 1662POPC   GL224866   3.193  33.195   9.125
 1662POPC   C1A24867   3.556  32.932   8.715
 1662POPC   D2A24868   3.719  33.030   8.311
 1662POPC   C3A24869   3.761  32.752   7.980
 1662POPC   C4A24870   3.597  32.623   7.584
 1662POPC   C1B24871   3.059  32.974   8.760
 1662POPC   C2B24872   3.163  32.815   8.381
 1662POPC   C3B24873   3.302  32.955   7.990
 1662POPC   C4B24874   3.299  33.195   7.638
 1663POPC   NC324875  27.702  29.324   9.454
 1663POPC   PO424876  27.412  28.738   9.588
 1663POPC   GL124877  27.499  28.983   9.151
 1663POPC   GL224878  27.847  28.998   9.092
 1663POPC   C1A24879  27.619  29.336   8.814
 1663POPC   D2A24880  27.613  29.494   8.422
 1663POPC   C3A24881  27.702  29.184   8.117
 1663POPC   C4A24882  27.654  29.219   7.684
 1663POPC   C1B24883  27.723  28.840   8.688
 1663POPC   C2B24884  27.710  28.638   8.291
 1663POPC   C3B24885  27.704  28.690   7.855
 1663POPC   C4B24886  27.911  28.796   7.481
 1664POPC   NC324887  33.738  26.591   9.523
 1664POPC   PO424888  33.720  27.317   9.508
 1664POPC   GL124889  33.684  26.946   9.175
 1664POPC   GL224890  33.958  26.661   9.082
 1664POPC   C1A24891  33.666  26.856   8.726
 1664POPC   D2A24892  33.899  27.073   8.380
 1664POPC   C3A24893  33.744  27.164   7.976
 1664POPC   C4A24894  33.600  26.805   7.786
 1664POPC   C1B24895  34.165  26.768   8.716
 1664POPC   C2B24896  34.214  26.648   8.301
 1664POPC   C3B24897  34.094  26.789   7.915
 1664POPC   C4B24898  33.985  26.643   7.508
 1665POPC   NC324899  26.762  34.378   9.659
 1665POPC   PO424900  26.809  34.982   9.442
 1665POPC   GL124901  26.822  34.713   9.130
 1665POPC   GL224902  26.640  34.395   9.174
 1665POPC   C1A24903  26.932  34.805   8.720
 1665POPC   D2A24904  26.885  34.577   8.363
 1665POPC   C3A24905  26.894  34.711   7.957
 1665POPC   C4A24906  26.673  34.715   7.571
 1665POPC   C1B24907  26.882  34.288   8.826
 1665POPC   C2B24908  27.062  34.125   8.458
 1665POPC   C3B24909  26.920  34.181   8.048
 1665POPC   C4B24910  27.032  34.359   7.645
 1666POPC   NC324911   0.334   4.361   9.626
 1666POPC   PO424912  44.655   4.369   9.540
 1666POPC   GL124913  44.648   4.397   9.126
 1666POPC   GL224914  44.880   4.670   9.083
 1666POPC   C1A24915  44.443   4.278   8.761
 1666POPC   D2A24916  44.606   4.360   8.347
 1666POPC   C3A24917  44.403   4.523   7.992
 1666POPC   C4A24918  44.432   4.371   7.586
 1666POPC   C1B24919  44.982   4.446   8.714
 1666POPC   C2B24920   0.122   4.504   8.303
 1666POPC   C3B24921   0.040   4.390   7.891
 1666POPC   C4B24922  44.968   4.290   7.481
 1667POPC   NC324923  40.078  36.699   9.533
 1667POPC   PO424924  39.501  36.975   9.605
 1667POPC   GL124925  39.700  36.888   9.229
 1667POPC   GL224926  40.044  37.035   9.131
 1667POPC   C1A24927  39.676  36.781   8.821
 1667POPC   D2A24928  39.995  36.881   8.538
 1667POPC   C3A24929  39.823  36.936   8.146
 1667POPC   C4A24930  39.893  36.876   7.732
 1667POPC   C1B24931  40.275  36.666   8.916
 1667POPC   C2B24932  40.432  36.542   8.520
 1667POPC   C3B24933  40.342  36.737   8.116
 1667POPC   C4B24934  40.343  36.682   7.698
 1668POPC   NC324935  26.604  31.688   9.773
 1668POPC   PO424936  26.038  31.477   9.544
 1668POPC   GL124937  26.045  31.282   9.146
 1668POPC   GL224938  25.710  31.109   9.231
 1668POPC   C1A24939  26.183  31.447   8.716
 1668POPC   D2A24940  26.280  31.226   8.332
 1668POPC   C3A24941  26.086  31.386   7.995
 1668POPC   C4A24942  25.936  31.644   7.645
 1668POPC   C1B24943  25.692  31.291   8.803
 1668POPC   C2B24944  25.766  31.436   8.396
 1668POPC   C3B24945  25.590  31.374   7.979
 1668POPC   C4B24946  25.752  31.168   7.658
 1669POPC   NC324947  40.368   3.816   9.649
 1669POPC   PO424948  39.767   3.647   9.584
 1669POPC   GL124949  40.013   3.680   9.210
 1669POPC   GL224950  40.371   3.610   9.180
 1669POPC   C1A24951  39.947   3.544   8.774
 1669POPC   D2A24952  39.898   3.189   8.468
 1669POPC   C3A24953  39.676   3.277   8.047
 1669POPC   C4A24954  39.781   3.280   7.611
 1669POPC   C1B24955  40.275   3.936   8.832
 1669POPC   C2B24956  40.227   3.954   8.364
 1669POPC   C3B24957  39.999   3.691   8.033
 1669POPC   C4B24958  39.886   3.752   7.592
 1670POPC   NC324959  42.075  21.643   9.449
 1670POPC   PO424960  42.563  21.212   9.689
 1670POPC   GL124961  42.332  21.224   9.297
 1670POPC   GL224962  42.619  21.232   9.107
 1670POPC   C1A24963  42.183  21.163   8.841
 1670POPC   D2A24964  41.975  21.219   8.404
 1670POPC   C3A24965  42.174  21.478   8.071
 1670POPC   C4A24966  42.033  21.516   7.659
 1670POPC   C1B24967  42.735  20.933   8.775
 1670POPC   C2B24968  42.671  20.778   8.365
 1670POPC   C3B24969  42.490  21.077   8.085
 1670POPC   C4B24970  42.698  21.470   7.935
 1671POPC   NC324971  21.190   7.897   9.473
 1671POPC   PO424972  21.509   7.315   9.361
 1671POPC   GL124973  21.501   7.519   9.026
 1671POPC   GL224974  21.392   7.834   9.015
 1671POPC   C1A24975  21.434   7.466   8.616
 1671POPC   D2A24976  21.139   7.307   8.342
 1671POPC   C3A24977  21.458   7.357   8.061
 1671POPC   C4A24978  21.788   7.261   7.782
 1671POPC   C1B24979  21.002   7.670   8.793
 1671POPC   C2B24980  20.814   7.703   8.356
 1671POPC   C3B24981  21.014   7.601   7.932
 1671POPC   C4B24982  21.424   7.645   7.645
 1672POPC   NC324983  43.563   2.666   9.476
 1672POPC   PO424984  44.274   2.820   9.464
 1672POPC   GL124985  43.966   2.690   9.107
 1672POPC   GL224986  43.687   2.433   9.033
 1672POPC   C1A24987  44.046   2.560   8.662
 1672POPC   D2A24988  44.263   2.720   8.258
 1672POPC   C3A24989  43.933   2.836   7.953
 1672POPC   C4A24990  43.587   2.920   7.668
 1672POPC   C1B24991  43.491   2.322   8.623
 1672POPC   C2B24992  43.609   2.526   8.255
 1672POPC   C3B24993  43.552   2.416   7.842
 1672POPC   C4B24994  43.459   2.487   7.408
 1673POPC   NC324995  39.821  38.630   9.562
 1673POPC   PO424996  40.348  38.506   9.212
 1673POPC   GL124997  40.079  38.182   9.115
 1673POPC   GL224998  39.802  38.393   9.072
 1673POPC   C1A24999  40.199  38.048   8.740
 1673POPC   D2A25000  40.305  38.306   8.399
 1673POPC   C3A25001  40.131  38.274   8.008
 1673POPC   C4A25002  40.139  38.440   7.615
 1673POPC   C1B25003  39.940  38.501   8.686
 1673POPC   C2B25004  39.784  38.531   8.282
 1673POPC   C3B25005  39.681  38.493   7.860
 1673POPC   C4B25006  39.767  38.751   7.544
 1674POPC   NC325007  41.579  24.818   9.415
 1674POPC   PO425008  41.932  24.295   9.556
 1674POPC   GL125009  41.869  24.446   9.184
 1674POPC   GL225010  41.984  24.747   9.116
 1674POPC   C1A25011  41.611  24.364   8.846
 1674POPC   D2A25012  41.439  24.635   8.543
 1674POPC   C3A25013  41.475  24.503   8.139
 1674POPC   C4A25014  41.689  24.288   7.865
 1674POPC   C1B25015  41.978  24.737   8.676
 1674POPC   C2B25016  41.812  24.877   8.295
 1674POPC   C3B25017  41.833  24.828   7.867
 1674POPC   C4B25018  41.842  24.907   7.406
 1675POPC   NC325019   4.577  29.289   9.399
 1675POPC   PO425020   4.126  28.861   9.698
 1675POPC   GL125021   4.175  29.003   9.239
 1675POPC   GL225022   4.056  29.347   9.212
 1675POPC   C1A25023   4.361  28.926   8.782
 1675POPC   D2A25024   4.600  29.190   8.477
 1675POPC   C3A25025   4.452  29.156   8.056
 1675POPC   C4A25026   4.218  28.918   7.788
 1675POPC   C1B25027   4.268  29.427   8.806
 1675POPC   C2B25028   4.151  29.443   8.360
 1675POPC   C3B25029   3.977  29.391   7.942
 1675POPC   C4B25030   4.282  29.398   7.626
 1676POPC   NC325031  20.214  30.913   9.445
 1676POPC   PO425032  19.700  30.468   9.588
 1676POPC   GL125033  19.781  30.431   9.145
 1676POPC   GL225034  20.080  30.603   9.060
 1676POPC   C1A25035  19.569  30.357   8.773
 1676POPC   D2A25036  19.429  30.451   8.332
 1676POPC   C3A25037  19.795  30.612   8.063
 1676POPC   C4A25038  20.070  30.693   7.693
 1676POPC   C1B25039  19.904  30.739   8.665
 1676POPC   C2B25040  20.007  31.000   8.330
 1676POPC   C3B25041  19.827  31.090   7.925
 1676POPC   C4B25042  20.137  31.236   7.673
 1677POPC   NC325043  17.945   8.328   9.488
 1677POPC   PO425044  18.528   8.049   9.432
 1677POPC   GL125045  18.592   8.209   9.031
 1677POPC   GL225046  18.390   8.465   9.113
 1677POPC   C1A25047  18.497   8.356   8.612
 1677POPC   D2A25048  18.562   8.083   8.281
 1677POPC   C3A25049  18.536   8.221   7.891
 1677POPC   C4A25050  18.229   8.112   7.637
 1677POPC   C1B25051  18.068   8.230   8.872
 1677POPC   C2B25052  17.930   8.300   8.471
 1677POPC   C3B25053  18.182   8.459   8.171
 1677POPC   C4B25054  18.127   8.581   7.761
 1678POPC   NC325055  19.569  25.165   9.595
 1678POPC   PO425056  20.247  24.996   9.535
 1678POPC   GL125057  19.870  25.058   9.201
 1678POPC   GL225058  19.616  25.354   9.140
 1678POPC   C1A25059  19.740  25.018   8.762
 1678POPC   D2A25060  19.921  25.173   8.382
 1678POPC   C3A25061  19.709  25.259   8.018
 1678POPC   C4A25062  19.929  25.071   7.692
 1678POPC   C1B25063  19.283  25.097   8.938
 1678POPC   C2B25064  19.264  25.114   8.484
 1678POPC   C3B25065  19.243  24.956   8.036
 1678POPC   C4B25066  19.423  25.030   7.644
 1679POPC   NC325067  17.424  40.378   9.692
 1679POPC   PO425068  17.994  40.134   9.400
 1679POPC   GL125069  17.591  40.187   9.176
 1679POPC   GL225070  17.235  40.182   9.269
 1679POPC   C1A25071  17.535  40.019   8.760
 1679POPC   D2A25072  17.700  39.851   8.389
 1679POPC   C3A25073  17.639  40.062   8.017
 1679POPC   C4A25074  17.427  39.799   7.745
 1679POPC   C1B25075  17.113  40.307   8.845
 1679POPC   C2B25076  17.299  40.355   8.445
 1679POPC   C3B25077  17.162  40.237   8.056
 1679POPC   C4B25078  17.291  40.306   7.671
 1680POPC   NC325079  37.274  41.501   9.329
 1680POPC   PO425080  37.878  41.758   9.462
 1680POPC   GL125081  37.755  41.529   9.141
 1680POPC   GL225082  37.943  41.258   9.146
 1680POPC   C1A25083  37.711  41.649   8.730
 1680POPC   D2A25084  37.824  41.860   8.352
 1680POPC   C3A25085  37.905  41.630   7.985
 1680POPC   C4A25086  37.554  41.474   7.764
 1680POPC   C1B25087  37.688  41.142   8.730
 1680POPC   C2B25088  37.629  41.280   8.290
 1680POPC   C3B25089  37.893  41.107   7.955
 1680POPC   C4B25090  38.147  41.267   7.604
 1681POPC   NC325091  27.407   9.895   9.550
 1681POPC   PO425092  26.747  10.029   9.714
 1681POPC   GL125093  26.831   9.785   9.314
 1681POPC   GL225094  27.155   9.707   9.172
 1681POPC   C1A25095  26.769   9.683   8.869
 1681POPC   D2A25096  26.867   9.843   8.480
 1681POPC   C3A25097  26.704   9.651   8.132
 1681POPC   C4A25098  26.594   9.936   7.813
 1681POPC   C1B25099  27.269   9.599   8.751
 1681POPC   C2B25100  27.255   9.529   8.323
 1681POPC   C3B25101  27.161   9.832   7.989
 1681POPC   C4B25102  26.952   9.591   7.689
 1682POPC   NC325103  34.689  15.055   9.576
 1682POPC   PO425104  34.538  15.676   9.524
 1682POPC   GL125105  34.415  15.310   9.208
 1682POPC   GL225106  34.300  14.945   9.272
 1682POPC   C1A25107  34.659  15.051   8.875
 1682POPC   D2A25108  34.906  14.925   8.502
 1682POPC   C3A25109  34.755  15.089   8.109
 1682POPC   C4A25110  34.614  15.138   7.693
 1682POPC   C1B25111  34.219  14.786   8.862
 1682POPC   C2B25112  34.358  14.900   8.455
 1682POPC   C3B25113  34.258  14.924   8.011
 1682POPC   C4B25114  34.234  14.844   7.541
 1683POPC   NC325115  44.571   3.937   9.376
 1683POPC   PO425116  44.731   3.292   9.576
 1683POPC   GL125117  44.626   3.460   9.177
 1683POPC   GL225118  44.938   3.664   9.083
 1683POPC   C1A25119  44.545   3.543   8.754
 1683POPC   D2A25120  44.901   3.554   8.474
 1683POPC   C3A25121  44.833   3.595   8.048
 1683POPC   C4A25122  44.656   3.520   7.668
 1683POPC   C1B25123  44.840   3.968   8.739
 1683POPC   C2B25124  44.966   4.023   8.277
 1683POPC   C3B25125  44.656   4.044   7.889
 1683POPC   C4B25126  44.641   3.927   7.378
 1684POPC   NC325127   3.353   4.811   9.847
 1684POPC   PO425128   3.256   5.391   9.450
 1684POPC   GL125129   2.916   5.299   9.157
 1684POPC   GL225130   2.798   4.929   9.141
 1684POPC   C1A25131   2.679   5.295   8.761
 1684POPC   D2A25132   2.702   5.392   8.303
 1684POPC   C3A25133   3.051   5.154   8.162
 1684POPC   C4A25134   3.094   4.909   7.810
 1684POPC   C1B25135   2.511   4.781   8.785
 1684POPC   C2B25136   2.413   4.783   8.331
 1684POPC   C3B25137   2.525   5.026   7.951
 1684POPC   C4B25138   2.661   4.891   7.553
 1685POPC   NC325139  27.395  13.095   9.696
 1685POPC   PO425140  27.982  12.715   9.659
 1685POPC   GL125141  27.752  12.961   9.315
 1685POPC   GL225142  27.436  12.775   9.298
 1685POPC   C1A25143  27.561  13.075   8.888
 1685POPC   D2A25144  27.668  13.011   8.442
 1685POPC   C3A25145  27.353  13.068   8.100
 1685POPC   C4A25146  27.427  12.900   7.667
 1685POPC   C1B25147  27.397  12.589   8.902
 1685POPC   C2B25148  27.365  12.619   8.469
 1685POPC   C3B25149  27.529  12.582   8.057
 1685POPC   C4B25150  27.694  12.438   7.657
 1686POPC   NC325151  40.067  27.499   9.630
 1686POPC   PO425152  39.800  28.019   9.327
 1686POPC   GL125153  40.110  27.775   9.123
 1686POPC   GL225154  39.961  27.456   9.127
 1686POPC   C1A25155  40.232  27.752   8.678
 1686POPC   D2A25156  40.186  27.511   8.283
 1686POPC   C3A25157  40.102  27.755   7.928
 1686POPC   C4A25158  40.240  28.140   7.758
 1686POPC   C1B25159  40.028  27.286   8.723
 1686POPC   C2B25160  39.720  27.296   8.371
 1686POPC   C3B25161  39.815  27.179   7.941
 1686POPC   C4B25162  40.117  27.020   7.672
 1687POPC   NC325163  43.656   3.661   9.394
 1687POPC   PO425164  43.067   3.812   9.539
 1687POPC   GL125165  43.071   4.016   9.168
 1687POPC   GL225166  43.418   4.020   9.102
 1687POPC   C1A25167  43.006   4.230   8.771
 1687POPC   D2A25168  43.205   4.337   8.378
 1687POPC   C3A25169  42.939   4.329   8.021
 1687POPC   C4A25170  42.718   4.055   7.752
 1687POPC   C1B25171  43.415   3.921   8.668
 1687POPC   C2B25172  43.619   4.063   8.286
 1687POPC   C3B25173  43.486   4.251   7.892
 1687POPC   C4B25174  43.476   4.096   7.445
 1688POPC   NC325175  31.905  32.061   9.596
 1688POPC   PO425176  32.342  32.502   9.518
 1688POPC   GL125177  32.245  32.352   9.135
 1688POPC   GL225178  32.151  32.000   9.148
 1688POPC   C1A25179  32.403  32.273   8.759
 1688POPC   D2A25180  32.193  32.346   8.416
 1688POPC   C3A25181  32.367  32.527   8.072
 1688POPC   C4A25182  32.189  32.414   7.721
 1688POPC   C1B25183  32.037  31.861   8.744
 1688POPC   C2B25184  31.843  31.989   8.362
 1688POPC   C3B25185  31.965  31.995   7.931
 1688POPC   C4B25186  31.846  31.954   7.503
 1689POPC   NC325187   2.320   4.080   9.764
 1689POPC   PO425188   2.872   4.513   9.538
 1689POPC   GL125189   2.744   4.413   9.116
 1689POPC   GL225190   2.788   4.087   9.048
 1689POPC   C1A25191   2.892   4.443   8.685
 1689POPC   D2A25192   3.025   4.666   8.345
 1689POPC   C3A25193   2.786   4.584   8.032
 1689POPC   C4A25194   2.752   4.411   7.685
 1689POPC   C1B25195   2.993   3.938   8.668
 1689POPC   C2B25196   2.941   4.053   8.212
 1689POPC   C3B25197   2.832   3.932   7.775
 1689POPC   C4B25198   2.940   4.115   7.326
 1690POPC   NC325199  29.622  11.394   9.233
 1690POPC   PO425200  29.077  11.171   9.514
 1690POPC   GL125201  29.133  11.462   9.159
 1690POPC   GL225202  29.202  11.198   8.903
 1690POPC   C1A25203  29.033  11.633   8.721
 1690POPC   D2A25204  29.096  11.426   8.325
 1690POPC   C3A25205  28.944  11.484   7.915
 1690POPC   C4A25206  29.192  11.157   7.721
 1690POPC   C1B25207  29.509  11.471   8.633
 1690POPC   C2B25208  29.563  11.746   8.319
 1690POPC   C3B25209  29.455  11.565   7.922
 1690POPC   C4B25210  29.645  11.486   7.530
 1691POPC   NC325211  25.766   2.593   9.760
 1691POPC   PO425212  26.378   2.553   9.654
 1691POPC   GL125213  26.137   2.775   9.308
 1691POPC   GL225214  25.805   2.625   9.241
 1691POPC   C1A25215  25.981   2.953   8.885
 1691POPC   D2A25216  25.972   2.802   8.452
 1691POPC   C3A25217  26.097   2.937   8.030
 1691POPC   C4A25218  26.134   2.673   7.643
 1691POPC   C1B25219  25.637   2.542   8.810
 1691POPC   C2B25220  25.557   2.531   8.338
 1691POPC   C3B25221  25.702   2.636   7.882
 1691POPC   C4B25222  25.732   2.392   7.456
 1692POPC   NC325223  41.761   4.637   9.520
 1692POPC   PO425224  41.393   5.160   9.497
 1692POPC   GL125225  41.373   5.039   9.107
 1692POPC   GL225226  41.369   4.694   9.186
 1692POPC   C1A25227  41.333   5.185   8.659
 1692POPC   D2A25228  41.402   5.380   8.236
 1692POPC   C3A25229  41.614   5.271   7.863
 1692POPC   C4A25230  41.824   4.961   7.645
 1692POPC   C1B25231  41.613   4.727   8.789
 1692POPC   C2B25232  41.577   4.849   8.359
 1692POPC   C3B25233  41.484   4.765   7.957
 1692POPC   C4B25234  41.303   4.660   7.547
 1693POPC   NC325235  29.424  35.288   9.603
 1693POPC   PO425236  28.942  35.702   9.377
 1693POPC   GL125237  29.264  35.497   9.137
 1693POPC   GL225238  29.270  35.120   9.138
 1693POPC   C1A25239  29.216  35.378   8.706
 1693POPC   D2A25240  29.266  35.347   8.283
 1693POPC   C3A25241  28.962  35.218   7.997
 1693POPC   C4A25242  29.002  35.135   7.572
 1693POPC   C1B25243  29.469  34.942   8.760
 1693POPC   C2B25244  29.517  34.887   8.309
 1693POPC   C3B25245  29.470  35.105   7.881
 1693POPC   C4B25246  29.511  35.099   7.422
 1694POPC   NC325247  44.021  17.682   9.460
 1694POPC   PO425248  43.692  18.328   9.452
 1694POPC   GL125249  44.091  18.336   9.176
 1694POPC   GL225250  44.427  18.268   9.311
 1694POPC   C1A25251  44.168  18.545   8.777
 1694POPC   D2A25252  43.836  18.507   8.454
 1694POPC   C3A25253  43.837  18.246   8.088
 1694POPC   C4A25254  43.862  18.355   7.658
 1694POPC   C1B25255  44.429  18.099   8.895
 1694POPC   C2B25256  44.181  18.074   8.560
 1694POPC   C3B25257  44.278  17.983   8.180
 1694POPC   C4B25258  44.296  18.152   7.813
 1695POPC   NC325259  29.896  23.582   9.570
 1695POPC   PO425260  30.393  24.015   9.314
 1695POPC   GL125261  30.097  23.768   9.079
 1695POPC   GL225262  29.779  23.741   9.110
 1695POPC   C1A25263  30.043  23.620   8.641
 1695POPC   D2A25264  30.101  23.503   8.189
 1695POPC   C3A25265  29.877  23.775   7.910
 1695POPC   C4A25266  30.108  24.166   7.781
 1695POPC   C1B25267  29.543  23.528   8.775
 1695POPC   C2B25268  29.619  23.540   8.332
 1695POPC   C3B25269  29.405  23.416   7.964
 1695POPC   C4B25270  29.522  23.588   7.544
 1696POPC   NC325271  21.390  34.220   9.464
 1696POPC   PO425272  21.784  34.781   9.497
 1696POPC   GL125273  21.585  34.685   9.113
 1696POPC   GL225274  21.375  34.392   8.999
 1696POPC   C1A25275  21.643  34.680   8.684
 1696POPC   D2A25276  21.349  34.550   8.385
 1696POPC   C3A25277  21.436  34.728   7.985
 1696POPC   C4A25278  21.581  34.463   7.676
 1696POPC   C1B25279  21.089  34.157   8.788
 1696POPC   C2B25280  21.113  34.053   8.403
 1696POPC   C3B25281  21.326  34.157   8.051
 1696POPC   C4B25282  21.223  34.095   7.660
 1697POPC   NC325283  12.743  32.661   9.656
 1697POPC   PO425284  12.990  33.163   9.372
 1697POPC   GL125285  12.744  32.936   9.112
 1697POPC   GL225286  12.553  33.188   8.953
 1697POPC   C1A25287  12.789  32.696   8.741
 1697POPC   D2A25288  12.883  32.609   8.376
 1697POPC   C3A25289  12.788  32.963   8.131
 1697POPC   C4A25290  12.764  33.080   7.715
 1697POPC   C1B25291  12.914  33.176   8.654
 1697POPC   C2B25292  13.070  33.376   8.304
 1697POPC   C3B25293  13.181  33.317   7.895
 1697POPC   C4B25294  13.024  33.461   7.491
 1698POPC   NC325295  25.990   8.786   9.554
 1698POPC   PO425296  26.474   9.197   9.786
 1698POPC   GL125297  26.300   9.110   9.341
 1698POPC   GL225298  26.169   9.389   9.238
 1698POPC   C1A25299  26.024   8.993   8.939
 1698POPC   D2A25300  26.107   9.022   8.505
 1698POPC   C3A25301  26.176   8.758   8.153
 1698POPC   C4A25302  25.987   8.927   7.779
 1698POPC   C1B25303  26.416   9.311   8.828
 1698POPC   C2B25304  26.551   9.222   8.362
 1698POPC   C3B25305  26.474   9.135   7.908
 1698POPC   C4B25306  26.375   9.011   7.441
 1699POPC   NC325307  13.517  24.770   9.300
 1699POPC   PO425308  13.670  24.163   9.457
 1699POPC   GL125309  13.658  24.331   9.035
 1699POPC   GL225310  13.952  24.581   9.082
 1699POPC   C1A25311  13.461  24.412   8.579
 1699POPC   D2A25312  13.443  24.734   8.238
 1699POPC   C3A25313  13.710  24.813   7.896
 1699POPC   C4A25314  13.756  24.714   7.464
 1699POPC   C1B25315  13.958  24.469   8.649
 1699POPC   C2B25316  13.861  24.441   8.206
 1699POPC   C3B25317  14.051  24.396   7.815
 1699POPC   C4B25318  14.087  24.309   7.417
 1700POPC   NC325319  14.870   1.173   9.664
 1700POPC   PO425320  15.477   0.959   9.472
 1700POPC   GL125321  15.286   1.117   9.067
 1700POPC   GL225322  15.060   1.409   9.148
 1700POPC   C1A25323  15.361   1.129   8.610
 1700POPC   D2A25324  15.259   1.458   8.287
 1700POPC   C3A25325  15.223   1.286   7.931
 1700POPC   C4A25326  15.549   1.113   7.700
 1700POPC   C1B25327  14.898   1.305   8.716
 1700POPC   C2B25328  14.739   1.409   8.322
 1700POPC   C3B25329  14.699   1.236   7.925
 1700POPC   C4B25330  14.750   1.492   7.628
 1701POPC   NC325331   9.514  26.632   9.485
 1701POPC   PO425332   9.900  27.157   9.641
 1701POPC   GL125333   9.685  27.087   9.228
 1701POPC   GL225334   9.693  26.772   9.043
 1701POPC   C1A25335   9.593  27.188   8.775
 1701POPC   D2A25336   9.550  26.816   8.495
 1701POPC   C3A25337   9.390  26.845   8.068
 1701POPC   C4A25338   9.624  26.921   7.684
 1701POPC   C1B25339  10.023  26.569   8.834
 1701POPC   C2B25340  10.054  26.671   8.415
 1701POPC   C3B25341   9.782  26.513   8.106
 1701POPC   C4B25342   9.801  26.312   7.706
 1702POPC   NC325343  31.043   3.606   9.276
 1702POPC   PO425344  31.696   3.398   9.527
 1702POPC   GL125345  31.546   3.462   9.061
 1702POPC   GL225346  31.233   3.351   8.841
 1702POPC   C1A25347  31.438   3.759   8.698
 1702POPC   D2A25348  31.405   3.960   8.339
 1702POPC   C3A25349  31.483   3.667   8.014
 1702POPC   C4A25350  31.344   3.561   7.601
 1702POPC   C1B25351  31.071   3.133   8.533
 1702POPC   C2B25352  31.088   3.388   8.201
 1702POPC   C3B25353  30.907   3.418   7.839
 1702POPC   C4B25354  31.040   3.185   7.465
 1703POPC   NC325355  43.721   0.337   9.620
 1703POPC   PO425356  43.845   0.887   9.377
 1703POPC   GL125357  43.840   0.482   9.140
 1703POPC   GL225358  43.568   0.229   9.088
 1703POPC   C1A25359  43.856   0.424   8.709
 1703POPC   D2A25360  44.125   0.480   8.376
 1703POPC   C3A25361  43.885   0.678   8.065
 1703POPC   C4A25362  44.209   0.704   7.791
 1703POPC   C1B25363  43.594  44.997   8.685
 1703POPC   C2B25364  43.804   0.101   8.293
 1703POPC   C3B25365  44.030   0.208   7.930
 1703POPC   C4B25366  43.663   0.181   7.689
 1704POPC   NC325367  42.431  28.685   9.381
 1704POPC   PO425368  42.195  28.107   9.725
 1704POPC   GL125369  42.257  28.215   9.186
 1704POPC   GL225370  42.155  28.572   8.986
 1704POPC   C1A25371  42.120  28.122   8.753
 1704POPC   D2A25372  41.981  27.989   8.380
 1704POPC   C3A25373  42.215  28.119   8.032
 1704POPC   C4A25374  42.025  28.179   7.644
 1704POPC   C1B25375  42.548  28.385   8.798
 1704POPC   C2B25376  42.661  28.447   8.391
 1704POPC   C3B25377  42.427  28.594   8.046
 1704POPC   C4B25378  42.498  28.443   7.649
 1705POPC   NC325379  23.981  28.890   9.446
 1705POPC   PO425380  23.380  28.964   9.481
 1705POPC   GL125381  23.600  29.062   9.107
 1705POPC   GL225382  23.620  29.429   9.118
 1705POPC   C1A25383  23.601  29.173   8.660
 1705POPC   D2A25384  23.838  29.282   8.274
 1705POPC   C3A25385  23.779  29.066   7.863
 1705POPC   C4A25386  24.028  29.030   7.430
 1705POPC   C1B25387  23.700  29.675   8.729
 1705POPC   C2B25388  23.487  29.641   8.347
 1705POPC   C3B25389  23.381  29.410   7.970
 1705POPC   C4B25390  23.229  29.024   7.815
 1706POPC   NC325391  32.228  16.886   9.536
 1706POPC   PO425392  32.631  16.378   9.645
 1706POPC   GL125393  32.448  16.520   9.226
 1706POPC   GL225394  32.062  16.539   9.200
 1706POPC   C1A25395  32.484  16.565   8.765
 1706POPC   D2A25396  32.242  16.620   8.389
 1706POPC   C3A25397  32.362  16.556   7.943
 1706POPC   C4A25398  32.306  16.482   7.503
 1706POPC   C1B25399  32.091  16.860   8.856
 1706POPC   C2B25400  32.004  17.076   8.453
 1706POPC   C3B25401  32.226  17.030   8.064
 1706POPC   C4B25402  32.116  16.936   7.652
 1707POPC   NC325403  14.424  27.996   9.465
 1707POPC   PO425404  14.587  28.643   9.633
 1707POPC   GL125405  14.680  28.483   9.242
 1707POPC   GL225406  14.389  28.616   9.039
 1707POPC   C1A25407  14.694  28.243   8.858
 1707POPC   D2A25408  14.680  28.409   8.447
 1707POPC   C3A25409  14.767  28.173   8.094
 1707POPC   C4A25410  14.544  28.023   7.767
 1707POPC   C1B25411  14.214  28.510   8.645
 1707POPC   C2B25412  14.179  28.269   8.292
 1707POPC   C3B25413  14.180  27.848   8.158
 1707POPC   C4B25414  14.134  27.690   7.763
 1708POPC   NC325415  35.955  27.497   9.797
 1708POPC   PO425416  36.584  27.664   9.565
 1708POPC   GL125417  36.310  27.573   9.272
 1708POPC   GL225418  36.009  27.745   9.343
 1708POPC   C1A25419  36.325  27.645   8.839
 1708POPC   D2A25420  36.271  27.857   8.484
 1708POPC   C3A25421  36.344  27.585   8.152
 1708POPC   C4A25422  36.289  27.632   7.724
 1708POPC   C1B25423  35.894  27.434   9.020
 1708POPC   C2B25424  35.907  27.514   8.569
 1708POPC   C3B25425  35.698  27.622   8.211
 1708POPC   C4B25426  35.863  27.384   7.873
 1709POPC   NC325427  22.952  21.169   9.490
 1709POPC   PO425428  23.163  21.819   9.569
 1709POPC   GL125429  23.156  21.541   9.146
 1709POPC   GL225430  22.796  21.442   9.075
 1709POPC   C1A25431  23.079  21.452   8.663
 1709POPC   D2A25432  22.976  21.162   8.326
 1709POPC   C3A25433  23.118  21.300   7.948
 1709POPC   C4A25434  22.976  21.662   7.746
 1709POPC   C1B25435  22.589  21.247   8.680
 1709POPC   C2B25436  22.453  21.176   8.241
 1709POPC   C3B25437  22.619  21.291   7.830
 1709POPC   C4B25438  22.508  21.281   7.406
 1710POPC   NC325439  30.425  15.256   9.519
 1710POPC   PO425440  30.754  14.747   9.568
 1710POPC   GL125441  30.780  14.995   9.198
 1710POPC   GL225442  30.444  15.067   9.049
 1710POPC   C1A25443  30.931  15.053   8.786
 1710POPC   D2A25444  31.128  15.202   8.421
 1710POPC   C3A25445  30.980  15.082   8.006
 1710POPC   C4A25446  30.594  15.122   7.733
 1710POPC   C1B25447  30.515  15.350   8.708
 1710POPC   C2B25448  30.572  15.256   8.278
 1710POPC   C3B25449  30.361  15.501   7.970
 1710POPC   C4B25450  30.269  15.507   7.555
 1711POPC   NC325451  14.397   3.279   9.640
 1711POPC   PO425452  14.443   3.870   9.414
 1711POPC   GL125453  14.320   3.730   9.050
 1711POPC   GL225454  14.219   3.388   9.153
 1711POPC   C1A25455  14.311   3.699   8.660
 1711POPC   D2A25456  14.499   3.700   8.322
 1711POPC   C3A25457  14.349   3.567   8.000
 1711POPC   C4A25458  14.320   3.939   7.820
 1711POPC   C1B25459  14.553   3.309   8.926
 1711POPC   C2B25460  14.524   3.229   8.499
 1711POPC   C3B25461  14.773   3.298   8.190
 1711POPC   C4B25462  14.787   3.242   7.804
 1712POPC   NC325463  32.443  27.397   9.717
 1712POPC   PO425464  31.912  27.708   9.506
 1712POPC   GL125465  32.170  27.614   9.201
 1712POPC   GL225466  31.910  27.447   9.079
 1712POPC   C1A25467  32.337  27.504   8.802
 1712POPC   D2A25468  32.506  27.539   8.381
 1712POPC   C3A25469  32.268  27.497   8.003
 1712POPC   C4A25470  32.433  27.449   7.629
 1712POPC   C1B25471  31.869  27.752   8.789
 1712POPC   C2B25472  31.991  27.675   8.409
 1712POPC   C3B25473  31.969  27.910   8.065
 1712POPC   C4B25474  31.847  27.900   7.638
 1713POPC   NC325475  28.288  43.995   9.549
 1713POPC   PO425476  28.378  43.389   9.402
 1713POPC   GL125477  28.438  43.744   9.122
 1713POPC   GL225478  28.125  43.912   9.084
 1713POPC   C1A25479  28.534  43.795   8.700
 1713POPC   D2A25480  28.740  43.979   8.341
 1713POPC   C3A25481  28.641  43.834   7.957
 1713POPC   C4A25482  28.385  43.845   7.623
 1713POPC   C1B25483  28.127  44.281   8.856
 1713POPC   C2B25484  28.283  44.193   8.469
 1713POPC   C3B25485  28.215  44.115   8.046
 1713POPC   C4B25486  28.012  44.210   7.655
 1714POPC   NC325487  23.486  18.778   9.461
 1714POPC   PO425488  22.834  19.003   9.659
 1714POPC   GL125489  22.847  19.073   9.221
 1714POPC   GL225490  23.209  19.097   9.166
 1714POPC   C1A25491  22.902  19.257   8.796
 1714POPC   D2A25492  23.103  19.191   8.397
 1714POPC   C3A25493  22.865  19.277   8.035
 1714POPC   C4A25494  22.920  19.347   7.590
 1714POPC   C1B25495  23.440  19.061   8.788
 1714POPC   C2B25496  23.379  18.774   8.465
 1714POPC   C3B25497  23.354  18.896   8.049
 1714POPC   C4B25498  23.306  18.603   7.754
 1715POPC   NC325499  30.065  13.033   9.490
 1715POPC   PO425500  29.660  13.501   9.212
 1715POPC   GL125501  30.022  13.615   9.031
 1715POPC   GL225502  30.165  13.289   9.064
 1715POPC   C1A25503  29.974  13.758   8.623
 1715POPC   D2A25504  29.690  13.720   8.271
 1715POPC   C3A25505  29.818  13.880   7.870
 1715POPC   C4A25506  30.259  13.980   7.834
 1715POPC   C1B25507  29.997  13.249   8.653
 1715POPC   C2B25508  30.123  13.395   8.279
 1715POPC   C3B25509  30.034  13.427   7.885
 1715POPC   C4B25510  30.113  13.196   7.568
 1716POPC   NC325511  28.796  35.210   9.285
 1716POPC   PO425512  28.164  35.178   9.572
 1716POPC   GL125513  28.321  35.499   9.267
 1716POPC   GL225514  28.291  35.230   9.061
 1716POPC   C1A25515  28.545  35.582   8.831
 1716POPC   D2A25516  28.774  35.442   8.457
 1716POPC   C3A25517  28.753  35.671   8.080
 1716POPC   C4A25518  28.613  35.462   7.677
 1716POPC   C1B25519  28.342  35.163   8.603
 1716POPC   C2B25520  28.279  35.449   8.228
 1716POPC   C3B25521  28.130  35.306   7.820
 1716POPC   C4B25522  27.812  35.029   7.634
 1717POPC   NC325523  34.011  27.648   9.701
 1717POPC   PO425524  33.586  27.884   9.325
 1717POPC   GL125525  33.791  27.708   9.006
 1717POPC   GL225526  33.746  27.366   8.910
 1717POPC   C1A25527  33.717  27.780   8.594
 1717POPC   D2A25528  33.533  27.478   8.356
 1717POPC   C3A25529  33.582  27.664   7.975
 1717POPC   C4A25530  33.967  27.841   7.794
 1717POPC   C1B25531  34.121  27.455   8.637
 1717POPC   C2B25532  34.073  27.552   8.212
 1717POPC   C3B25533  34.225  27.361   7.849
 1717POPC   C4B25534  34.114  27.114   7.509
 1718POPC   NC325535  17.060   3.563   9.454
 1718POPC   PO425536  16.415   3.555   9.200
 1718POPC   GL125537  16.792   3.625   9.017
 1718POPC   GL225538  16.845   3.301   9.037
 1718POPC   C1A25539  16.877   3.672   8.587
 1718POPC   D2A25540  16.551   3.664   8.263
 1718POPC   C3A25541  16.759   3.656   7.892
 1718POPC   C4A25542  17.190   3.606   7.770
 1718POPC   C1B25543  16.564   3.285   8.641
 1718POPC   C2B25544  16.477   3.133   8.244
 1718POPC   C3B25545  16.526   3.117   7.830
 1718POPC   C4B25546  16.890   3.203   7.677
 1719POPC   NC325547  12.689  22.750   9.475
 1719POPC   PO425548  12.868  22.008   9.408
 1719POPC   GL125549  12.854  22.304   9.103
 1719POPC   GL225550  12.523  22.328   9.156
 1719POPC   C1A25551  12.854  22.219   8.667
 1719POPC   D2A25552  12.911  22.422   8.361
 1719POPC   C3A25553  12.778  22.205   8.089
 1719POPC   C4A25554  12.819  22.239   7.739
 1719POPC   C1B25555  12.456  22.496   8.787
 1719POPC   C2B25556  12.399  22.339   8.409
 1719POPC   C3B25557  12.316  22.447   8.023
 1719POPC   C4B25558  12.460  22.600   7.678
 1720POPC   NC325559   7.331  25.037   9.414
 1720POPC   PO425560   7.772  25.573   9.440
 1720POPC   GL125561   7.568  25.515   9.036
 1720POPC   GL225562   7.502  25.156   8.961
 1720POPC   C1A25563   7.457  25.475   8.574
 1720POPC   D2A25564   7.187  25.184   8.340
 1720POPC   C3A25565   7.256  25.162   7.904
 1720POPC   C4A25566   7.080  25.513   7.746
 1720POPC   C1B25567   7.732  24.977   8.639
 1720POPC   C2B25568   7.669  25.052   8.209
 1720POPC   C3B25569   7.727  25.018   7.774
 1720POPC   C4B25570   7.663  24.843   7.377
 1721POPC   NC325571  31.565   8.658   9.496
 1721POPC   PO425572  31.342   9.293   9.514
 1721POPC   GL125573  31.207   9.108   9.117
 1721POPC   GL225574  31.149   8.756   9.151
 1721POPC   C1A25575  31.234   9.293   8.718
 1721POPC   D2A25576  31.125   9.445   8.335
 1721POPC   C3A25577  31.356   9.228   8.013
 1721POPC   C4A25578  31.249   8.868   7.815
 1721POPC   C1B25579  31.357   8.797   8.720
 1721POPC   C2B25580  31.431   8.708   8.262
 1721POPC   C3B25581  31.671   8.593   7.863
 1721POPC   C4B25582  31.948   8.695   7.506
 1722POPC   NC325583  32.559   7.169   9.539
 1722POPC   PO425584  32.003   7.122   9.554
 1722POPC   GL125585  32.229   7.351   9.164
 1722POPC   GL225586  32.583   7.510   9.141
 1722POPC   C1A25587  32.153   7.506   8.716
 1722POPC   D2A25588  32.078   7.355   8.292
 1722POPC   C3A25589  32.325   7.561   7.967
 1722POPC   C4A25590  32.159   7.717   7.596
 1722POPC   C1B25591  32.626   7.297   8.729
 1722POPC   C2B25592  32.559   7.180   8.298
 1722POPC   C3B25593  32.399   7.070   7.903
 1722POPC   C4B25594  32.477   7.309   7.522
 1723POPC   NC325595   4.496   6.073   9.685
 1723POPC   PO425596   4.218   6.618   9.533
 1723POPC   GL125597   4.205   6.715   9.125
 1723POPC   GL225598   3.866   6.650   9.055
 1723POPC   C1A25599   4.290   6.511   8.772
 1723POPC   D2A25600   4.513   6.413   8.425
 1723POPC   C3A25601   4.240   6.503   8.113
 1723POPC   C4A25602   4.302   6.464   7.687
 1723POPC   C1B25603   3.972   6.924   8.691
 1723POPC   C2B25604   3.984   6.956   8.218
 1723POPC   C3B25605   3.910   6.767   7.804
 1723POPC   C4B25606   3.903   6.626   7.372
 1724POPC   NC325607   6.536  25.652   9.345
 1724POPC   PO425608   6.946  26.136   9.430
 1724POPC   GL125609   6.840  26.016   9.046
 1724POPC   GL225610   6.495  26.126   9.092
 1724POPC   C1A25611   6.754  26.247   8.661
 1724POPC   D2A25612   6.542  26.144   8.282
 1724POPC   C3A25613   6.739  26.199   7.908
 1724POPC   C4A25614   6.895  25.945   7.568
 1724POPC   C1B25615   6.245  26.254   8.722
 1724POPC   C2B25616   6.066  26.294   8.301
 1724POPC   C3B25617   6.214  26.257   7.838
 1724POPC   C4B25618   6.399  25.875   7.672
 1725POPC   NC325619  30.722   6.582   9.524
 1725POPC   PO425620  30.237   7.132   9.629
 1725POPC   GL125621  30.277   6.869   9.259
 1725POPC   GL225622  30.616   6.950   9.134
 1725POPC   C1A25623  30.306   6.661   8.838
 1725POPC   D2A25624  30.387   6.801   8.424
 1725POPC   C3A25625  30.356   6.589   8.045
 1725POPC   C4A25626  30.323   6.693   7.605
 1725POPC   C1B25627  30.822   6.807   8.710
 1725POPC   C2B25628  30.918   6.733   8.234
 1725POPC   C3B25629  31.112   6.961   7.846
 1725POPC   C4B25630  31.214   6.749   7.435
 1726POPC   NC325631  23.817  44.804   9.634
 1726POPC   PO425632  23.187  44.589   9.407
 1726POPC   GL125633  23.556  44.720   9.140
 1726POPC   GL225634  23.913  44.634   9.129
 1726POPC   C1A25635  23.616  44.677   8.687
 1726POPC   D2A25636  23.825  44.679   8.292
 1726POPC   C3A25637  23.551  44.499   7.968
 1726POPC   C4A25638  23.419  44.706   7.616
 1726POPC   C1B25639  24.122  44.625   8.722
 1726POPC   C2B25640  24.214  44.325   8.413
 1726POPC   C3B25641  24.035  44.296   8.012
 1726POPC   C4B25642  23.963  44.706   7.782
 1727POPC   NC325643  16.561  32.590   9.522
 1727POPC   PO425644  16.533  33.199   9.658
 1727POPC   GL125645  16.673  33.057   9.250
 1727POPC   GL225646  16.384  32.863   9.133
 1727POPC   C1A25647  16.872  32.849   8.887
 1727POPC   D2A25648  16.838  32.952   8.455
 1727POPC   C3A25649  16.852  32.786   8.042
 1727POPC   C4A25650  16.856  33.023   7.664
 1727POPC   C1B25651  16.423  33.113   8.763
 1727POPC   C2B25652  16.280  33.194   8.366
 1727POPC   C3B25653  16.456  33.111   7.990
 1727POPC   C4B25654  16.389  32.810   7.682
 1728POPC   NC325655  44.026  43.732   9.297
 1728POPC   PO425656  44.378  44.196   9.518
 1728POPC   GL125657  44.520  43.913   9.197
 1728POPC   GL225658  44.709  43.618   9.310
 1728POPC   C1A25659  44.441  43.931   8.747
 1728POPC   D2A25660  44.604  43.928   8.313
 1728POPC   C3A25661  44.439  44.124   7.915
 1728POPC   C4A25662  44.682  44.092   7.488
 1728POPC   C1B25663  44.909  43.705   8.881
 1728POPC   C2B25664   0.059  43.703   8.414
 1728POPC   C3B25665  44.894  43.725   7.949
 1728POPC   C4B25666  44.485  43.667   7.688
 1729POPC   NC325667  10.506  42.408   9.507
 1729POPC   PO425668  10.648  41.802   9.717
 1729POPC   GL125669  10.725  42.093   9.206
 1729POPC   GL225670  10.381  42.277   9.053
 1729POPC   C1A25671  10.794  42.348   8.814
 1729POPC   D2A25672  10.504  42.374   8.457
 1729POPC   C3A25673  10.647  42.281   8.035
 1729POPC   C4A25674  10.622  42.543   7.649
 1729POPC   C1B25675  10.309  42.004   8.749
 1729POPC   C2B25676  10.427  41.832   8.375
 1729POPC   C3B25677  10.283  41.845   7.980
 1729POPC   C4B25678  10.211  42.215   7.749
 1730POPC   NC325679  40.239  42.427   9.532
 1730POPC   PO425680  39.560  42.512   9.539
 1730POPC   GL125681  39.707  42.303   9.159
 1730POPC   GL225682  40.063  42.255   9.104
 1730POPC   C1A25683  39.758  42.322   8.708
 1730POPC   D2A25684  40.023  42.557   8.439
 1730POPC   C3A25685  39.885  42.521   8.026
 1730POPC   C4A25686  40.152  42.604   7.660
 1730POPC   C1B25687  40.199  42.046   8.784
 1730POPC   C2B25688  40.027  41.939   8.429
 1730POPC   C3B25689  40.125  42.086   8.060
 1730POPC   C4B25690  40.275  42.090   7.669
 1731POPC   NC325691  38.257  38.805   9.642
 1731POPC   PO425692  38.347  38.121   9.552
 1731POPC   GL125693  38.494  38.357   9.211
 1731POPC   GL225694  38.335  38.711   9.169
 1731POPC   C1A25695  38.586  38.197   8.804
 1731POPC   D2A25696  38.431  38.377   8.445
 1731POPC   C3A25697  38.397  38.227   8.047
 1731POPC   C4A25698  38.374  38.185   7.610
 1731POPC   C1B25699  38.536  38.734   8.813
 1731POPC   C2B25700  38.524  38.897   8.433
 1731POPC   C3B25701  38.659  38.710   8.090
 1731POPC   C4B25702  38.457  38.660   7.745
 1732POPC   NC325703   2.112   3.505   9.509
 1732POPC   PO425704   1.618   3.924   9.392
 1732POPC   GL125705   1.982   3.727   9.081
 1732POPC   GL225706   2.169   3.361   9.041
 1732POPC   C1A25707   2.033   3.678   8.644
 1732POPC   D2A25708   1.818   3.896   8.336
 1732POPC   C3A25709   1.990   3.855   7.955
 1732POPC   C4A25710   1.800   3.678   7.568
 1732POPC   C1B25711   2.018   3.175   8.683
 1732POPC   C2B25712   2.066   3.319   8.271
 1732POPC   C3B25713   2.114   3.360   7.861
 1732POPC   C4B25714   2.378   3.655   7.714
 1733POPC   NC325715  20.992  25.878   9.513
 1733POPC   PO425716  21.575  25.850   9.631
 1733POPC   GL125717  21.591  26.039   9.194
 1733POPC   GL225718  21.245  26.104   9.113
 1733POPC   C1A25719  21.570  26.093   8.702
 1733POPC   D2A25720  21.483  25.886   8.281
 1733POPC   C3A25721  21.544  26.029   7.837
 1733POPC   C4A25722  21.549  25.804   7.414
 1733POPC   C1B25723  21.053  26.096   8.693
 1733POPC   C2B25724  20.955  25.954   8.274
 1733POPC   C3B25725  21.050  26.191   7.915
 1733POPC   C4B25726  21.342  26.554   7.806
 1734POPC   NC325727   7.472  12.173   9.483
 1734POPC   PO425728   7.005  11.714   9.312
 1734POPC   GL125729   7.352  11.928   9.053
 1734POPC   GL225730   7.469  12.297   9.003
 1734POPC   C1A25731   7.472  11.968   8.610
 1734POPC   D2A25732   7.248  11.695   8.302
 1734POPC   C3A25733   7.247  11.847   7.894
 1734POPC   C4A25734   7.498  11.775   7.530
 1734POPC   C1B25735   7.429  12.552   8.642
 1734POPC   C2B25736   7.568  12.594   8.225
 1734POPC   C3B25737   7.371  12.605   7.861
 1734POPC   C4B25738   7.450  12.253   7.655
 1735POPC   NC325739  28.099  25.864   9.458
 1735POPC   PO425740  28.783  25.769   9.301
 1735POPC   GL125741  28.516  26.024   9.067
 1735POPC   GL225742  28.241  25.836   8.955
 1735POPC   C1A25743  28.622  25.956   8.636
 1735POPC   D2A25744  28.662  25.814   8.262
 1735POPC   C3A25745  28.357  26.007   8.040
 1735POPC   C4A25746  28.194  26.164   7.695
 1735POPC   C1B25747  28.137  25.932   8.495
 1735POPC   C2B25748  27.919  25.756   8.125
 1735POPC   C3B25749  27.776  25.887   7.718
 1735POPC   C4B25750  27.899  26.010   7.284
 1736POPC   NC325751  13.832  16.423   9.433
 1736POPC   PO425752  13.520  15.942   9.733
 1736POPC   GL125753  13.531  15.902   9.218
 1736POPC   GL225754  13.774  15.753   9.010
 1736POPC   C1A25755  13.287  16.021   8.801
 1736POPC   D2A25756  13.468  15.973   8.374
 1736POPC   C3A25757  13.238  16.048   7.985
 1736POPC   C4A25758  13.297  16.025   7.502
 1736POPC   C1B25759  13.868  15.503   8.675
 1736POPC   C2B25760  13.963  15.553   8.242
 1736POPC   C3B25761  13.965  15.786   7.890
 1736POPC   C4B25762  13.983  15.435   7.625
 1737POPC   NC325763  30.870   9.285   9.454
 1737POPC   PO425764  30.522   8.727   9.466
 1737POPC   GL125765  30.665   8.937   9.118
 1737POPC   GL225766  30.403   8.776   8.967
 1737POPC   C1A25767  30.829   8.935   8.696
 1737POPC   D2A25768  30.618   9.020   8.297
 1737POPC   C3A25769  30.750   8.847   7.887
 1737POPC   C4A25770  30.946   8.876   7.425
 1737POPC   C1B25771  30.167   8.754   8.611
 1737POPC   C2B25772  30.128   8.879   8.228
 1737POPC   C3B25773  30.219   8.723   7.837
 1737POPC   C4B25774  30.500   8.614   7.517
 1738POPC   NC325775   9.820   2.014   9.606
 1738POPC   PO425776   9.396   1.663   9.216
 1738POPC   GL125777   9.698   1.888   9.111
 1738POPC   GL225778   9.999   1.736   9.163
 1738POPC   C1A25779   9.664   2.164   8.807
 1738POPC   D2A25780   9.793   2.201   8.388
 1738POPC   C3A25781   9.449   2.159   8.129
 1738POPC   C4A25782   9.390   1.908   7.784
 1738POPC   C1B25783  10.085   1.897   8.751
 1738POPC   C2B25784  10.029   1.701   8.363
 1738POPC   C3B25785   9.817   1.791   8.035
 1738POPC   C4B25786   9.932   1.964   7.686
 1739POPC   NC325787  36.257  33.458   9.452
 1739POPC   PO425788  36.520  34.045   9.516
 1739POPC   GL125789  36.188  33.933   9.169
 1739POPC   GL225790  35.991  33.614   9.058
 1739POPC   C1A25791  36.321  33.900   8.715
 1739POPC   D2A25792  36.532  34.040   8.302
 1739POPC   C3A25793  36.286  33.998   7.919
 1739POPC   C4A25794  36.019  33.713   7.733
 1739POPC   C1B25795  36.109  33.441   8.654
 1739POPC   C2B25796  36.075  33.490   8.215
 1739POPC   C3B25797  36.152  33.245   7.818
 1739POPC   C4B25798  36.283  33.389   7.422
 1740POPC   NC325799   5.353  35.750   9.348
 1740POPC   PO425800   4.848  35.371   9.725
 1740POPC   GL125801   5.047  35.346   9.277
 1740POPC   GL225802   5.029  35.581   8.989
 1740POPC   C1A25803   5.200  35.108   8.943
 1740POPC   D2A25804   5.096  35.156   8.516
 1740POPC   C3A25805   5.143  35.066   8.108
 1740POPC   C4A25806   5.067  35.159   7.704
 1740POPC   C1B25807   4.942  35.635   8.570
 1740POPC   C2B25808   5.181  35.569   8.189
 1740POPC   C3B25809   5.116  35.661   7.772
 1740POPC   C4B25810   5.290  35.560   7.387
 1741POPC   NC325811  24.722  32.012   9.311
 1741POPC   PO425812  24.398  32.382   9.779
 1741POPC   GL125813  24.342  32.405   9.292
 1741POPC   GL225814  24.245  32.101   9.132
 1741POPC   C1A25815  24.465  32.402   8.802
 1741POPC   D2A25816  24.272  32.231   8.395
 1741POPC   C3A25817  24.415  32.232   7.939
 1741POPC   C4A25818  24.545  32.322   7.501
 1741POPC   C1B25819  24.095  31.888   8.772
 1741POPC   C2B25820  23.904  31.827   8.359
 1741POPC   C3B25821  23.953  31.997   7.939
 1741POPC   C4B25822  24.188  31.975   7.533
 1742POPC   NC325823  38.135  37.687   9.524
 1742POPC   PO425824  38.734  37.413   9.472
 1742POPC   GL125825  38.560  37.704   9.165
 1742POPC   GL225826  38.241  37.902   9.077
 1742POPC   C1A25827  38.644  37.694   8.750
 1742POPC   D2A25828  38.597  37.881   8.365
 1742POPC   C3A25829  38.606  37.593   8.026
 1742POPC   C4A25830  38.614  37.744   7.618
 1742POPC   C1B25831  38.159  37.936   8.637
 1742POPC   C2B25832  38.126  37.680   8.287
 1742POPC   C3B25833  38.178  37.795   7.876
 1742POPC   C4B25834  38.112  37.780   7.429
 1743POPC   NC325835  33.536   1.303   9.683
 1743POPC   PO425836  34.031   0.935   9.508
 1743POPC   GL125837  33.703   1.166   9.230
 1743POPC   GL225838  33.990   1.131   9.050
 1743POPC   C1A25839  33.622   1.344   8.816
 1743POPC   D2A25840  33.845   1.128   8.465
 1743POPC   C3A25841  33.760   1.241   8.063
 1743POPC   C4A25842  33.781   1.386   7.652
 1743POPC   C1B25843  34.106   0.818   8.805
 1743POPC   C2B25844  34.212   0.768   8.391
 1743POPC   C3B25845  34.085   0.854   8.015
 1743POPC   C4B25846  34.131   0.989   7.641
 1744POPC   NC325847  11.355  23.880   9.332
 1744POPC   PO425848  11.509  24.443   9.636
 1744POPC   GL125849  11.423  24.450   9.191
 1744POPC   GL225850  11.725  24.651   9.135
 1744POPC   C1A25851  11.261  24.419   8.744
 1744POPC   D2A25852  11.171  24.600   8.327
 1744POPC   C3A25853  11.373  24.379   7.963
 1744POPC   C4A25854  11.615  24.598   7.637
 1744POPC   C1B25855  11.521  24.872   8.833
 1744POPC   C2B25856  11.632  24.988   8.446
 1744POPC   C3B25857  11.571  24.837   8.081
 1744POPC   C4B25858  11.207  24.908   7.841
 1745POPC   NC325859   7.060  26.585   9.576
 1745POPC   PO425860   6.459  26.832   9.678
 1745POPC   GL125861   6.665  26.795   9.256
 1745POPC   GL225862   6.859  26.526   9.117
 1745POPC   C1A25863   6.495  26.727   8.821
 1745POPC   D2A25864   6.642  26.806   8.399
 1745POPC   C3A25865   6.461  26.621   8.090
 1745POPC   C4A25866   6.555  26.626   7.682
 1745POPC   C1B25867   6.998  26.687   8.746
 1745POPC   C2B25868   7.059  26.511   8.341
 1745POPC   C3B25869   6.984  26.682   7.961
 1745POPC   C4B25870   7.036  26.463   7.599
 1746POPC   NC325871  30.608   7.376   9.477
 1746POPC   PO425872  30.409   7.948   9.820
 1746POPC   GL125873  30.770   7.867   9.324
 1746POPC   GL225874  30.618   7.561   9.020
 1746POPC   C1A25875  30.775   7.971   8.809
 1746POPC   D2A25876  30.625   7.952   8.334
 1746POPC   C3A25877  30.811   7.580   8.069
 1746POPC   C4A25878  31.003   7.438   7.673
 1746POPC   C1B25879  30.503   7.220   8.733
 1746POPC   C2B25880  30.703   7.178   8.350
 1746POPC   C3B25881  30.603   7.038   7.957
 1746POPC   C4B25882  30.587   7.131   7.547
 1747POPC   NC325883  21.527  42.774   9.442
 1747POPC   PO425884  21.055  43.189   9.634
 1747POPC   GL125885  21.329  43.230   9.233
 1747POPC   GL225886  21.686  43.128   9.143
 1747POPC   C1A25887  21.438  43.289   8.767
 1747POPC   D2A25888  21.323  43.155   8.388
 1747POPC   C3A25889  21.439  42.938   8.050
 1747POPC   C4A25890  21.582  43.041   7.698
 1747POPC   C1B25891  21.657  42.818   8.725
 1747POPC   C2B25892  21.790  42.627   8.277
 1747POPC   C3B25893  21.800  42.584   7.799
 1747POPC   C4B25894  21.762  42.753   7.324
 1748POPC   NC325895  34.705  25.527   9.809
 1748POPC   PO425896  34.701  26.143   9.495
 1748POPC   GL125897  34.604  26.179   9.099
 1748POPC   GL225898  34.460  26.488   9.076
 1748POPC   C1A25899  34.653  25.896   8.761
 1748POPC   D2A25900  34.830  26.105   8.451
 1748POPC   C3A25901  34.742  25.949   8.101
 1748POPC   C4A25902  34.759  26.026   7.708
 1748POPC   C1B25903  34.387  26.320   8.668
 1748POPC   C2B25904  34.300  26.116   8.313
 1748POPC   C3B25905  34.266  25.934   7.920
 1748POPC   C4B25906  34.289  26.304   7.728
 1749POPC   NC325907  26.293   7.280   9.377
 1749POPC   PO425908  25.858   7.727   9.561
 1749POPC   GL125909  26.004   7.639   9.131
 1749POPC   GL225910  25.848   7.355   9.094
 1749POPC   C1A25911  26.212   7.473   8.731
 1749POPC   D2A25912  26.087   7.254   8.344
 1749POPC   C3A25913  26.204   7.469   7.991
 1749POPC   C4A25914  25.996   7.646   7.652
 1749POPC   C1B25915  25.731   7.242   8.720
 1749POPC   C2B25916  25.494   7.300   8.352
 1749POPC   C3B25917  25.677   7.343   7.967
 1749POPC   C4B25918  25.967   7.138   7.688
 1750POPC   NC325919  26.685   0.499   9.444
 1750POPC   PO425920  27.136  44.916   9.531
 1750POPC   GL125921  27.032   0.142   9.144
 1750POPC   GL225922  26.708   0.255   8.994
 1750POPC   C1A25923  27.125   0.347   8.759
 1750POPC   D2A25924  26.809   0.378   8.456
 1750POPC   C3A25925  26.963   0.444   8.055
 1750POPC   C4A25926  26.900   0.169   7.714
 1750POPC   C1B25927  26.504   0.599   8.808
 1750POPC   C2B25928  26.370   0.658   8.382
 1750POPC   C3B25929  26.499   0.799   7.993
 1750POPC   C4B25930  26.727   0.640   7.653
 1751POPC   NC325931  41.621  30.212   9.829
 1751POPC   PO425932  41.670  30.838   9.475
 1751POPC   GL125933  41.579  30.601   9.147
 1751POPC   GL225934  41.215  30.551   9.220
 1751POPC   C1A25935  41.731  30.655   8.720
 1751POPC   D2A25936  41.906  30.550   8.314
 1751POPC   C3A25937  41.767  30.841   8.009
 1751POPC   C4A25938  41.546  31.004   7.647
 1751POPC   C1B25939  41.230  30.821   8.825
 1751POPC   C2B25940  41.419  30.922   8.398
 1751POPC   C3B25941  41.229  30.826   8.002
 1751POPC   C4B25942  41.179  30.636   7.575
 1752POPC   NC325943   1.781  35.152   9.478
 1752POPC   PO425944   2.333  35.440   9.343
 1752POPC   GL125945   1.960  35.464   9.042
 1752POPC   GL225946   1.604  35.345   9.048
 1752POPC   C1A25947   1.859  35.579   8.597
 1752POPC   D2A25948   1.833  35.629   8.109
 1752POPC   C3A25949   2.198  35.601   7.852
 1752POPC   C4A25950   2.177  35.503   7.419
 1752POPC   C1B25951   1.740  35.069   8.739
 1752POPC   C2B25952   1.739  35.151   8.323
 1752POPC   C3B25953   1.939  35.151   7.959
 1752POPC   C4B25954   1.728  35.327   7.617
 1753POPC   NC325955  43.335  42.328   9.454
 1753POPC   PO425956  43.175  41.753   9.705
 1753POPC   GL125957  42.948  42.075   9.291
 1753POPC   GL225958  42.833  42.333   9.151
 1753POPC   C1A25959  43.228  42.331   8.819
 1753POPC   D2A25960  43.470  42.281   8.363
 1753POPC   C3A25961  43.292  42.398   7.944
 1753POPC   C4A25962  42.959  42.115   7.819
 1753POPC   C1B25963  42.786  42.560   8.768
 1753POPC   C2B25964  42.950  42.441   8.366
 1753POPC   C3B25965  42.861  42.696   8.028
 1753POPC   C4B25966  42.833  42.571   7.627
 1754POPC   NC325967  39.344  40.074   9.582
 1754POPC   PO425968  39.276  39.660   9.079
 1754POPC   GL125969  39.018  40.023   9.128
 1754POPC   GL225970  39.265  40.277   9.100
 1754POPC   C1A25971  38.893  40.238   8.740
 1754POPC   D2A25972  39.167  40.284   8.347
 1754POPC   C3A25973  39.136  39.987   7.975
 1754POPC   C4A25974  38.840  39.909   7.625
 1754POPC   C1B25975  39.318  40.590   8.745
 1754POPC   C2B25976  39.607  40.572   8.370
 1754POPC   C3B25977  39.474  40.407   7.929
 1754POPC   C4B25978  39.552  40.441   7.477
 1755POPC   NC325979  10.863  25.685   9.286
 1755POPC   PO425980  10.201  25.615   9.566
 1755POPC   GL125981  10.410  25.417   9.242
 1755POPC   GL225982  10.115  25.358   9.084
 1755POPC   C1A25983  10.557  25.274   8.807
 1755POPC   D2A25984  10.694  25.480   8.420
 1755POPC   C3A25985  10.672  25.276   7.998
 1755POPC   C4A25986  10.714  24.978   7.666
 1755POPC   C1B25987  10.063  25.205   8.667
 1755POPC   C2B25988  10.280  25.094   8.298
 1755POPC   C3B25989  10.202  25.015   7.859
 1755POPC   C4B25990  10.078  24.971   7.428
 1756POPC   NC325991  42.259  15.870   9.840
 1756POPC   PO425992  41.988  15.795   9.458
 1756POPC   GL125993  42.148  16.031   9.106
 1756POPC   GL225994  42.447  15.780   9.025
 1756POPC   C1A25995  42.039  16.363   8.742
 1756POPC   D2A25996  42.304  16.297   8.336
 1756POPC   C3A25997  42.093  16.190   7.930
 1756POPC   C4A25998  42.016  15.857   7.604
 1756POPC   C1B25999  42.617  15.736   8.556
 1756POPC   C2B26000  42.358  15.822   8.157
 1756POPC   C3B26001  42.496  15.899   7.750
 1756POPC   C4B26002  42.434  15.875   7.302
 1757POPC   NC326003  38.555  18.031   9.593
 1757POPC   PO426004  38.174  18.590   9.669
 1757POPC   GL126005  38.369  18.522   9.198
 1757POPC   GL226006  38.510  18.216   9.112
 1757POPC   C1A26007  38.304  18.469   8.717
 1757POPC   D2A26008  38.203  18.588   8.272
 1757POPC   C3A26009  38.304  18.411   7.859
 1757POPC   C4A26010  38.412  18.042   7.614
 1757POPC   C1B26011  38.704  18.172   8.705
 1757POPC   C2B26012  38.488  18.131   8.317
 1757POPC   C3B26013  38.749  18.157   7.966
 1757POPC   C4B26014  38.832  18.364   7.582
 1758POPC   NC326015  13.092   3.865   9.458
 1758POPC   PO426016  13.125   4.605   9.587
 1758POPC   GL126017  12.896   4.413   9.222
 1758POPC   GL226018  13.108   4.174   9.077
 1758POPC   C1A26019  12.742   4.354   8.786
 1758POPC   D2A26020  12.547   4.492   8.400
 1758POPC   C3A26021  12.721   4.388   8.060
 1758POPC   C4A26022  12.887   4.391   7.687
 1758POPC   C1B26023  13.279   4.075   8.697
 1758POPC   C2B26024  13.138   4.259   8.331
 1758POPC   C3B26025  13.231   4.120   7.931
 1758POPC   C4B26026  13.044   3.928   7.571
 1759POPC   NC326027  14.762  32.145   9.274
 1759POPC   PO426028  15.244  32.613   9.237
 1759POPC   GL126029  15.184  32.287   8.991
 1759POPC   GL226030  15.249  32.001   9.189
 1759POPC   C1A26031  15.058  32.249   8.578
 1759POPC   D2A26032  15.172  32.257   8.148
 1759POPC   C3A26033  14.940  32.467   7.845
 1759POPC   C4A26034  15.299  32.642   7.668
 1759POPC   C1B26035  15.493  31.924   8.808
 1759POPC   C2B26036  15.635  32.069   8.436
 1759POPC   C3B26037  15.571  31.951   8.051
 1759POPC   C4B26038  15.523  32.182   7.699
 1760POPC   NC326039   7.567  44.466   9.448
 1760POPC   PO426040   6.886  44.606   9.556
 1760POPC   GL126041   7.179  44.694   9.191
 1760POPC   GL226042   7.335   0.035   9.236
 1760POPC   C1A26043   7.470  44.500   8.822
 1760POPC   D2A26044   7.372  44.285   8.436
 1760POPC   C3A26045   7.639  44.287   8.079
 1760POPC   C4A26046   7.511  44.385   7.663
 1760POPC   C1B26047   7.290  44.983   8.783
 1760POPC   C2B26048   7.499  44.809   8.426
 1760POPC   C3B26049   7.380  44.725   8.037
 1760POPC   C4B26050   7.400  44.880   7.639
 1761POPC   NC326051  17.422  29.850   9.491
 1761POPC   PO426052  18.038  30.147   9.555
 1761POPC   GL126053  17.836  29.902   9.242
 1761POPC   GL226054  17.617  30.179   9.118
 1761POPC   C1A26055  17.757  29.727   8.845
 1761POPC   D2A26056  17.693  29.957   8.478
 1761POPC   C3A26057  17.885  29.765   8.139
 1761POPC   C4A26058  17.554  29.660   7.845
 1761POPC   C1B26059  17.315  29.991   8.841
 1761POPC   C2B26060  17.183  30.097   8.436
 1761POPC   C3B26061  17.350  30.077   8.073
 1761POPC   C4B26062  17.236  30.051   7.678
 1762POPC   NC326063  27.843  19.912   9.752
 1762POPC   PO426064  28.474  19.957   9.496
 1762POPC   GL126065  28.190  19.922   9.165
 1762POPC   GL226066  28.283  20.280   9.069
 1762POPC   C1A26067  28.048  19.662   8.796
 1762POPC   D2A26068  27.848  19.712   8.375
 1762POPC   C3A26069  28.168  19.845   8.051
 1762POPC   C4A26070  28.332  19.695   7.643
 1762POPC   C1B26071  28.379  20.041   8.702
 1762POPC   C2B26072  28.548  20.051   8.347
 1762POPC   C3B26073  28.859  20.121   8.124
 1762POPC   C4B26074  28.581  20.116   7.786
 1763POPC   NC326075  43.274  28.530   9.511
 1763POPC   PO426076  42.659  28.283   9.476
 1763POPC   GL126077  42.912  28.445   9.156
 1763POPC   GL226078  43.231  28.250   9.082
 1763POPC   C1A26079  43.030  28.593   8.739
 1763POPC   D2A26080  43.226  28.533   8.326
 1763POPC   C3A26081  42.951  28.493   7.959
 1763POPC   C4A26082  42.994  28.297   7.567
 1763POPC   C1B26083  42.974  28.076   8.749
 1763POPC   C2B26084  42.991  28.056   8.301
 1763POPC   C3B26085  43.109  27.895   7.919
 1763POPC   C4B26086  43.060  27.802   7.471
 1764POPC   NC326087  30.866  17.014   9.448
 1764POPC   PO426088  30.312  16.602   9.479
 1764POPC   GL126089  30.576  16.703   9.155
 1764POPC   GL226090  30.614  16.378   9.093
 1764POPC   C1A26091  30.833  16.844   8.817
 1764POPC   D2A26092  30.873  17.030   8.418
 1764POPC   C3A26093  30.608  16.919   8.093
 1764POPC   C4A26094  30.690  16.831   7.690
 1764POPC   C1B26095  30.802  16.329   8.784
 1764POPC   C2B26096  30.802  16.531   8.409
 1764POPC   C3B26097  30.761  16.432   8.020
 1764POPC   C4B26098  30.463  16.356   7.706
 1765POPC   NC326099  42.147  23.875   9.448
 1765POPC   PO426100  42.768  23.510   9.659
 1765POPC   GL126101  42.589  23.653   9.280
 1765POPC   GL226102  42.703  23.379   9.106
 1765POPC   C1A26103  42.480  23.869   8.870
 1765POPC   D2A26104  42.362  23.728   8.448
 1765POPC   C3A26105  42.180  23.915   8.073
 1765POPC   C4A26106  42.329  23.861   7.617
 1765POPC   C1B26107  42.775  23.489   8.677
 1765POPC   C2B26108  42.909  23.392   8.254
 1765POPC   C3B26109  42.748  23.614   7.903
 1765POPC   C4B26110  42.827  23.836   7.537
 1766POPC   NC326111  23.636  21.939   9.537
 1766POPC   PO426112  23.963  21.288   9.574
 1766POPC   GL126113  23.632  21.357   9.257
 1766POPC   GL226114  23.697  21.677   9.084
 1766POPC   C1A26115  23.536  21.248   8.809
 1766POPC   D2A26116  23.546  20.981   8.411
 1766POPC   C3A26117  23.647  21.277   8.077
 1766POPC   C4A26118  23.477  21.660   7.880
 1766POPC   C1B26119  23.923  21.900   8.724
 1766POPC   C2B26120  23.844  21.727   8.283
 1766POPC   C3B26121  23.942  21.846   7.851
 1766POPC   C4B26122  23.765  21.836   7.375
 1767POPC   NC326123  17.130   8.254   9.463
 1767POPC   PO426124  16.494   8.060   9.550
 1767POPC   GL126125  16.696   8.166   9.173
 1767POPC   GL226126  16.661   8.507   9.263
 1767POPC   C1A26127  16.617   7.914   8.796
 1767POPC   D2A26128  16.744   7.731   8.410
 1767POPC   C3A26129  16.529   7.937   8.083
 1767POPC   C4A26130  16.749   8.060   7.720
 1767POPC   C1B26131  16.778   8.580   8.822
 1767POPC   C2B26132  16.614   8.431   8.441
 1767POPC   C3B26133  16.569   8.452   8.016
 1767POPC   C4B26134  16.891   8.543   7.707
 1768POPC   NC326135   7.296  35.935   9.534
 1768POPC   PO426136   7.768  36.357   9.587
 1768POPC   GL126137   7.599  36.222   9.219
 1768POPC   GL226138   7.784  35.914   9.251
 1768POPC   C1A26139   7.412  36.141   8.808
 1768POPC   D2A26140   7.470  36.327   8.380
 1768POPC   C3A26141   7.214  36.268   7.994
 1768POPC   C4A26142   7.333  35.922   7.682
 1768POPC   C1B26143   7.938  36.117   8.864
 1768POPC   C2B26144   8.050  36.039   8.469
 1768POPC   C3B26145   7.949  35.872   8.102
 1768POPC   C4B26146   7.702  36.150   7.951
 1769POPC   NC326147  17.225  44.203   9.535
 1769POPC   PO426148  16.615  43.824   9.448
 1769POPC   GL126149  16.821  43.882   9.114
 1769POPC   GL226150  16.849  44.212   9.204
 1769POPC   C1A26151  16.676  43.756   8.722
 1769POPC   D2A26152  16.508  43.488   8.385
 1769POPC   C3A26153  16.554  43.742   8.017
 1769POPC   C4A26154  16.555  43.953   7.627
 1769POPC   C1B26155  16.947  44.271   8.763
 1769POPC   C2B26156  16.773  44.117   8.363
 1769POPC   C3B26157  16.826  44.230   7.952
 1769POPC   C4B26158  17.009  44.192   7.534
 1770POPC   NC326159  37.476   1.113   9.282
 1770POPC   PO426160  38.011   1.470   9.418
 1770POPC   GL126161  37.888   1.313   9.029
 1770POPC   GL226162  38.006   0.992   9.096
 1770POPC   C1A26163  37.572   1.318   8.662
 1770POPC   D2A26164  37.707   1.232   8.236
 1770POPC   C3A26165  37.480   1.332   7.880
 1770POPC   C4A26166  37.834   1.323   7.652
 1770POPC   C1B26167  37.877   0.928   8.668
 1770POPC   C2B26168  37.549   0.783   8.381
 1770POPC   C3B26169  37.625   0.839   7.914
 1770POPC   C4B26170  37.821   0.823   7.515
 1771POPC   NC326171  14.339  26.364   9.528
 1771POPC   PO426172  14.579  25.697   9.504
 1771POPC   GL126173  14.458  26.017   9.148
 1771POPC   GL226174  14.699  26.294   9.126
 1771POPC   C1A26175  14.268  25.979   8.725
 1771POPC   D2A26176  14.435  25.767   8.372
 1771POPC   C3A26177  14.322  25.855   7.951
 1771POPC   C4A26178  14.495  25.966   7.558
 1771POPC   C1B26179  14.583  26.446   8.703
 1771POPC   C2B26180  14.366  26.298   8.327
 1771POPC   C3B26181  14.420  26.349   7.891
 1771POPC   C4B26182  14.769  26.477   7.632
 1772POPC   NC326183  23.222  20.195   9.516
 1772POPC   PO426184  22.895  20.761   9.684
 1772POPC   GL126185  22.853  20.659   9.239
 1772POPC   GL226186  23.203  20.594   9.189
 1772POPC   C1A26187  22.756  20.563   8.777
 1772POPC   D2A26188  22.555  20.326   8.419
 1772POPC   C3A26189  22.680  20.483   8.009
 1772POPC   C4A26190  22.861  20.850   7.857
 1772POPC   C1B26191  23.298  20.560   8.752
 1772POPC   C2B26192  23.119  20.673   8.351
 1772POPC   C3B26193  23.327  20.688   7.953
 1772POPC   C4B26194  23.206  20.665   7.492
 1773POPC   NC326195  34.981  27.601   9.591
 1773POPC   PO426196  35.643  27.841   9.697
 1773POPC   GL126197  35.503  27.707   9.209
 1773POPC   GL226198  35.197  27.571   9.141
 1773POPC   C1A26199  35.456  27.407   8.757
 1773POPC   D2A26200  35.462  27.193   8.318
 1773POPC   C3A26201  35.332  27.400   7.911
 1773POPC   C4A26202  35.142  27.525   7.516
 1773POPC   C1B26203  35.163  27.818   8.755
 1773POPC   C2B26204  35.195  27.666   8.352
 1773POPC   C3B26205  34.984  27.785   7.989
 1773POPC   C4B26206  35.068  28.006   7.632
 1774POPC   NC326207  11.101  13.563   9.459
 1774POPC   PO426208  11.780  13.299   9.600
 1774POPC   GL126209  11.503  13.438   9.152
 1774POPC   GL226210  11.136  13.433   8.962
 1774POPC   C1A26211  11.547  13.693   8.783
 1774POPC   D2A26212  11.351  13.790   8.405
 1774POPC   C3A26213  11.532  13.673   8.017
 1774POPC   C4A26214  11.379  13.656   7.582
 1774POPC   C1B26215  10.960  13.853   8.777
 1774POPC   C2B26216  10.946  14.125   8.387
 1774POPC   C3B26217  11.091  13.963   7.982
 1774POPC   C4B26218  10.790  13.746   7.734
 1775POPC   NC326219   2.236  14.905   9.347
 1775POPC   PO426220   2.161  15.532   9.560
 1775POPC   GL126221   2.156  15.374   9.146
 1775POPC   GL226222   1.881  15.130   9.051
 1775POPC   C1A26223   2.226  15.337   8.698
 1775POPC   D2A26224   1.898  15.357   8.384
 1775POPC   C3A26225   2.122  15.428   8.023
 1775POPC   C4A26226   2.379  15.215   7.740
 1775POPC   C1B26227   2.085  14.852   8.702
 1775POPC   C2B26228   2.161  14.924   8.257
 1775POPC   C3B26229   1.976  14.934   7.843
 1775POPC   C4B26230   1.754  15.033   7.452
 1776POPC   NC326231  24.485  11.495   9.642
 1776POPC   PO426232  24.714  10.835   9.557
 1776POPC   GL126233  24.597  11.163   9.237
 1776POPC   GL226234  24.263  11.354   9.209
 1776POPC   C1A26235  24.475  11.079   8.801
 1776POPC   D2A26236  24.669  10.937   8.433
 1776POPC   C3A26237  24.502  11.072   8.047
 1776POPC   C4A26238  24.705  11.399   7.787
 1776POPC   C1B26239  24.238  11.538   8.801
 1776POPC   C2B26240  24.373  11.446   8.381
 1776POPC   C3B26241  24.214  11.584   7.972
 1776POPC   C4B26242  24.052  12.042   7.864
 1777POPC   NC326243  16.717  27.516   9.313
 1777POPC   PO426244  16.100  27.737   9.264
 1777POPC   GL126245  16.366  27.652   8.932
 1777POPC   GL226246  16.736  27.734   8.862
 1777POPC   C1A26247  16.472  27.293   8.732
 1777POPC   D2A26248  16.891  27.225   8.630
 1777POPC   C3A26249  16.938  27.408   8.219
 1777POPC   C4A26250  16.830  27.134   7.872
 1777POPC   C1B26251  17.123  27.748   8.638
 1777POPC   C2B26252  17.174  27.991   8.293
 1777POPC   C3B26253  17.184  27.815   7.914
 1777POPC   C4B26254  16.855  27.627   7.745
 1778POPC   NC326255  15.684   9.258   9.527
 1778POPC   PO426256  16.173   8.818   9.586
 1778POPC   GL126257  16.021   9.025   9.219
 1778POPC   GL226258  16.091   9.377   9.228
 1778POPC   C1A26259  15.952   8.901   8.808
 1778POPC   D2A26260  16.091   8.614   8.494
 1778POPC   C3A26261  16.118   8.761   8.097
 1778POPC   C4A26262  16.032   8.636   7.678
 1778POPC   C1B26263  15.954   9.411   8.817
 1778POPC   C2B26264  16.065   9.233   8.445
 1778POPC   C3B26265  15.938   9.307   8.078
 1778POPC   C4B26266  16.082   9.154   7.748
 1779POPC   NC326267  35.047   3.281   9.440
 1779POPC   PO426268  35.564   2.899   9.804
 1779POPC   GL126269  35.614   2.909   9.302
 1779POPC   GL226270  35.278   2.952   9.132
 1779POPC   C1A26271  35.593   2.701   8.848
 1779POPC   D2A26272  35.320   2.700   8.472
 1779POPC   C3A26273  35.531   2.649   8.085
 1779POPC   C4A26274  35.357   2.562   7.685
 1779POPC   C1B26275  35.284   3.145   8.715
 1779POPC   C2B26276  35.120   3.123   8.263
 1779POPC   C3B26277  34.992   2.861   7.885
 1779POPC   C4B26278  34.889   2.957   7.428
 1780POPC   NC326279   2.734  41.044   9.548
 1780POPC   PO426280   2.617  40.302   9.488
 1780POPC   GL126281   2.753  40.661   9.178
 1780POPC   GL226282   2.962  41.009   9.105
 1780POPC   C1A26283   2.765  40.724   8.731
 1780POPC   D2A26284   2.653  40.830   8.325
 1780POPC   C3A26285   2.717  40.535   7.991
 1780POPC   C4A26286   2.653  40.585   7.557
 1780POPC   C1B26287   3.256  40.964   8.777
 1780POPC   C2B26288   3.193  40.748   8.410
 1780POPC   C3B26289   3.092  40.851   8.005
 1780POPC   C4B26290   3.140  40.606   7.642
 1781POPC   NC326291  33.218   0.581   9.273
 1781POPC   PO426292  32.704   0.111   9.493
 1781POPC   GL126293  32.864   0.239   9.116
 1781POPC   GL226294  32.728   0.587   9.156
 1781POPC   C1A26295  33.036   0.197   8.681
 1781POPC   D2A26296  33.366   0.175   8.345
 1781POPC   C3A26297  33.261   0.392   7.951
 1781POPC   C4A26298  33.113   0.300   7.522
 1781POPC   C1B26299  32.619   0.491   8.739
 1781POPC   C2B26300  32.788   0.517   8.312
 1781POPC   C3B26301  32.611   0.453   7.910
 1781POPC   C4B26302  32.630   0.462   7.475
 1782POPC   NC326303   8.452  14.366   9.539
 1782POPC   PO426304   9.088  14.357   9.578
 1782POPC   GL126305   9.099  14.522   9.172
 1782POPC   GL226306   8.723  14.617   9.085
 1782POPC   C1A26307   9.095  14.363   8.792
 1782POPC   D2A26308   9.264  14.096   8.529
 1782POPC   C3A26309   9.293  14.322   8.164
 1782POPC   C4A26310   9.099  14.337   7.781
 1782POPC   C1B26311   8.658  14.599   8.632
 1782POPC   C2B26312   8.823  14.553   8.191
 1782POPC   C3B26313   8.741  14.684   7.736
 1782POPC   C4B26314   8.731  14.766   7.275
 1783POPC   NC326315  26.870  35.822   9.481
 1783POPC   PO426316  26.497  36.361   9.484
 1783POPC   GL126317  26.650  36.424   9.083
 1783POPC   GL226318  27.043  36.426   9.093
 1783POPC   C1A26319  26.493  36.285   8.665
 1783POPC   D2A26320  26.440  36.076   8.269
 1783POPC   C3A26321  26.730  36.256   8.017
 1783POPC   C4A26322  26.722  36.438   7.615
 1783POPC   C1B26323  26.942  36.078   8.832
 1783POPC   C2B26324  27.005  35.987   8.410
 1783POPC   C3B26325  27.167  35.979   7.992
 1783POPC   C4B26326  27.018  36.022   7.580
 1784POPC   NC326327  33.671  17.945   9.742
 1784POPC   PO426328  33.848  18.520   9.616
 1784POPC   GL126329  33.744  18.269   9.235
 1784POPC   GL226330  34.023  18.092   9.107
 1784POPC   C1A26331  33.594  18.203   8.774
 1784POPC   D2A26332  33.522  18.351   8.323
 1784POPC   C3A26333  33.586  18.088   7.933
 1784POPC   C4A26334  33.597  17.950   7.479
 1784POPC   C1B26335  34.020  18.499   8.844
 1784POPC   C2B26336  33.980  18.585   8.411
 1784POPC   C3B26337  34.045  18.345   8.041
 1784POPC   C4B26338  33.886  18.369   7.616
 1785POPC   NC326339   0.754   4.211   9.227
 1785POPC   PO426340   0.374   4.754   9.395
 1785POPC   GL126341   0.351   4.478   9.070
 1785POPC   GL226342   0.123   4.190   9.137
 1785POPC   C1A26343   0.569   4.521   8.682
 1785POPC   D2A26344   0.823   4.571   8.329
 1785POPC   C3A26345   0.522   4.554   7.970
 1785POPC   C4A26346   0.477   4.360   7.551
 1785POPC   C1B26347   0.342   4.052   8.731
 1785POPC   C2B26348   0.501   4.156   8.313
 1785POPC   C3B26349   0.428   3.994   7.912
 1785POPC   C4B26350   0.073   3.855   7.682
 1786POPC   NC326351  43.612  36.829   9.504
 1786POPC   PO426352  43.199  37.259   9.484
 1786POPC   GL126353  43.195  37.025   9.149
 1786POPC   GL226354  43.539  37.113   9.095
 1786POPC   C1A26355  42.945  36.885   8.771
 1786POPC   D2A26356  43.114  36.770   8.363
 1786POPC   C3A26357  42.876  36.691   8.031
 1786POPC   C4A26358  42.801  36.964   7.715
 1786POPC   C1B26359  43.460  36.928   8.731
 1786POPC   C2B26360  43.617  36.939   8.366
 1786POPC   C3B26361  43.615  36.749   7.993
 1786POPC   C4B26362  43.306  36.795   7.735
 1787POPC   NC326363  38.814  37.984   9.514
 1787POPC   PO426364  39.396  38.441   9.511
 1787POPC   GL126365  39.308  38.331   9.092
 1787POPC   GL226366  38.991  38.282   9.126
 1787POPC   C1A26367  39.451  38.338   8.652
 1787POPC   D2A26368  39.295  38.638   8.323
 1787POPC   C3A26369  39.119  38.541   7.914
 1787POPC   C4A26370  39.289  38.618   7.528
 1787POPC   C1B26371  38.979  38.503   8.719
 1787POPC   C2B26372  38.923  38.287   8.333
 1787POPC   C3B26373  38.874  38.088   7.943
 1787POPC   C4B26374  38.886  38.172   7.510
 1788POPC   NC326375  28.350  19.477   9.405
 1788POPC   PO426376  28.382  18.774   9.421
 1788POPC   GL126377  28.313  19.034   9.103
 1788POPC   GL226378  28.047  19.238   9.085
 1788POPC   C1A26379  28.444  19.285   8.760
 1788POPC   D2A26380  28.304  19.449   8.380
 1788POPC   C3A26381  28.507  19.187   8.075
 1788POPC   C4A26382  28.591  19.239   7.645
 1788POPC   C1B26383  27.969  19.036   8.697
 1788POPC   C2B26384  27.945  19.100   8.259
 1788POPC   C3B26385  28.062  19.355   7.908
 1788POPC   C4B26386  28.053  19.340   7.438
 1789POPC   NC326387  44.917   1.004   9.531
 1789POPC   PO426388  44.470   1.573   9.453
 1789POPC   GL126389  44.598   1.314   9.107
 1789POPC   GL226390  44.932   1.192   9.050
 1789POPC   C1A26391  44.487   1.060   8.743
 1789POPC   D2A26392  44.617   0.751   8.404
 1789POPC   C3A26393  44.639   0.930   7.974
 1789POPC   C4A26394  44.400   1.176   7.673
 1789POPC   C1B26395  44.983   1.108   8.595
 1789POPC   C2B26396  44.692   1.309   8.319
 1789POPC   C3B26397  44.632   1.518   7.947
 1789POPC   C4B26398  44.876   1.327   7.628
 1790POPC   NC326399   6.839  13.908   9.349
 1790POPC   PO426400   7.375  14.275   9.478
 1790POPC   GL126401   7.292  14.511   9.118
 1790POPC   GL226402   6.962  14.347   9.088
 1790POPC   C1A26403   7.332  14.576   8.669
 1790POPC   D2A26404   7.686  14.518   8.358
 1790POPC   C3A26405   7.487  14.357   7.973
 1790POPC   C4A26406   7.500  13.936   7.805
 1790POPC   C1B26407   7.125  14.102   8.787
 1790POPC   C2B26408   7.194  14.137   8.364
 1790POPC   C3B26409   7.075  14.542   8.189
 1790POPC   C4B26410   6.965  14.655   7.763
 1791POPC   NC326411  19.368  40.257   9.544
 1791POPC   PO426412  18.750  40.228   9.695
 1791POPC   GL126413  18.972  40.131   9.255
 1791POPC   GL226414  19.181  39.801   9.266
 1791POPC   C1A26415  19.252  40.096   8.856
 1791POPC   D2A26416  19.229  39.847   8.457
 1791POPC   C3A26417  19.279  39.980   8.020
 1791POPC   C4A26418  18.997  39.952   7.669
 1791POPC   C1B26419  19.163  39.529   8.877
 1791POPC   C2B26420  18.911  39.428   8.480
 1791POPC   C3B26421  18.926  39.615   8.052
 1791POPC   C4B26422  19.275  39.533   7.720
 1792POPC   NC326423  28.841  11.987   9.510
 1792POPC   PO426424  29.415  12.076   9.768
 1792POPC   GL126425  29.209  12.215   9.237
 1792POPC   GL226426  28.953  12.021   9.023
 1792POPC   C1A26427  29.347  12.040   8.725
 1792POPC   D2A26428  29.096  11.962   8.327
 1792POPC   C3A26429  29.317  12.066   7.949
 1792POPC   C4A26430  29.264  12.236   7.537
 1792POPC   C1B26431  28.960  12.352   8.657
 1792POPC   C2B26432  28.988  12.459   8.193
 1792POPC   C3B26433  28.831  12.229   7.812
 1792POPC   C4B26434  28.734  12.225   7.341
 1793POPC   NC326435  11.400  32.009   9.405
 1793POPC   PO426436  11.346  32.720   9.555
 1793POPC   GL126437  11.322  32.468   9.170
 1793POPC   GL226438  11.051  32.190   9.093
 1793POPC   C1A26439  11.426  32.385   8.743
 1793POPC   D2A26440  11.450  32.516   8.306
 1793POPC   C3A26441  11.531  32.299   7.880
 1793POPC   C4A26442  11.587  32.366   7.403
 1793POPC   C1B26443  10.966  32.162   8.637
 1793POPC   C2B26444  11.019  32.243   8.173
 1793POPC   C3B26445  10.865  32.154   7.763
 1793POPC   C4B26446  10.938  32.139   7.329
 1794POPC   NC326447  27.360   6.832   9.459
 1794POPC   PO426448  27.768   6.341   9.506
 1794POPC   GL126449  27.710   6.614   9.147
 1794POPC   GL226450  27.317   6.628   9.002
 1794POPC   C1A26451  27.714   6.792   8.745
 1794POPC   D2A26452  27.403   6.673   8.442
 1794POPC   C3A26453  27.639   6.536   8.101
 1794POPC   C4A26454  27.759   6.626   7.655
 1794POPC   C1B26455  27.288   7.072   8.820
 1794POPC   C2B26456  27.410   7.185   8.396
 1794POPC   C3B26457  27.482   6.985   7.987
 1794POPC   C4B26458  27.263   6.599   7.782
 1795POPC   NC326459  15.252   6.781   9.526
 1795POPC   PO426460  14.768   6.407   9.585
 1795POPC   GL126461  15.065   6.508   9.126
 1795POPC   GL226462  15.210   6.847   9.036
 1795POPC   C1A26463  15.050   6.625   8.621
 1795POPC   D2A26464  14.903   6.404   8.224
 1795POPC   C3A26465  14.878   6.546   7.795
 1795POPC   C4A26466  14.970   6.903   7.498
 1795POPC   C1B26467  15.445   6.985   8.708
 1795POPC   C2B26468  15.381   6.890   8.305
 1795POPC   C3B26469  15.186   6.959   7.968
 1795POPC   C4B26470  15.458   7.012   7.680
 1796POPC   NC326471  31.187  37.365   9.475
 1796POPC   PO426472  31.341  38.063   9.570
 1796POPC   GL126473  31.398  37.782   9.194
 1796POPC   GL226474  31.612  37.473   9.194
 1796POPC   C1A26475  31.571  37.720   8.764
 1796POPC   D2A26476  31.614  37.469   8.424
 1796POPC   C3A26477  31.548  37.727   8.085
 1796POPC   C4A26478  31.447  37.630   7.723
 1796POPC   C1B26479  31.270  37.333   8.853
 1796POPC   C2B26480  31.197  37.124   8.486
 1796POPC   C3B26481  31.146  37.353   8.134
 1796POPC   C4B26482  31.053  37.310   7.723
 1797POPC   NC326483  13.830  23.064   9.471
 1797POPC   PO426484  13.180  22.783   9.526
 1797POPC   GL126485  13.389  22.647   9.152
 1797POPC   GL226486  13.531  22.952   9.101
 1797POPC   C1A26487  13.576  22.666   8.698
 1797POPC   D2A26488  13.689  22.533   8.322
 1797POPC   C3A26489  13.567  22.754   7.986
 1797POPC   C4A26490  13.809  22.999   7.762
 1797POPC   C1B26491  13.380  23.119   8.738
 1797POPC   C2B26492  13.592  23.125   8.339
 1797POPC   C3B26493  13.432  23.278   7.947
 1797POPC   C4B26494  13.288  23.042   7.629
 1798POPC   NC326495   2.465  27.910   9.400
 1798POPC   PO426496   3.117  27.801   9.494
 1798POPC   GL126497   2.948  27.720   9.123
 1798POPC   GL226498   2.809  27.399   9.191
 1798POPC   C1A26499   2.989  27.609   8.694
 1798POPC   D2A26500   2.729  27.762   8.323
 1798POPC   C3A26501   2.885  27.657   7.928
 1798POPC   C4A26502   2.517  27.722   7.654
 1798POPC   C1B26503   2.714  27.170   8.804
 1798POPC   C2B26504   2.784  27.264   8.371
 1798POPC   C3B26505   2.488  27.382   8.072
 1798POPC   C4B26506   2.666  27.238   7.684
 1799POPC   NC326507  19.902  42.637   9.344
 1799POPC   PO426508  19.754  43.244   9.530
 1799POPC   GL126509  19.940  43.185   9.143
 1799POPC   GL226510  19.589  43.103   9.025
 1799POPC   C1A26511  19.986  43.073   8.699
 1799POPC   D2A26512  19.880  42.693   8.435
 1799POPC   C3A26513  20.003  42.733   8.002
 1799POPC   C4A26514  20.064  43.098   7.732
 1799POPC   C1B26515  19.681  43.521   8.812
 1799POPC   C2B26516  19.648  43.678   8.375
 1799POPC   C3B26517  19.747  43.438   8.012
 1799POPC   C4B26518  19.663  43.385   7.595
 1800POPC   NC326519  15.669   0.574   9.712
 1800POPC   PO426520  16.292   0.313   9.745
 1800POPC   GL126521  16.128   0.444   9.322
 1800POPC   GL226522  15.793   0.601   9.235
 1800POPC   C1A26523  15.961   0.213   8.945
 1800POPC   D2A26524  15.919   0.355   8.526
 1800POPC   C3A26525  15.740   0.279   8.143
 1800POPC   C4A26526  15.928   0.227   7.718
 1800POPC   C1B26527  15.559   0.683   8.859
 1800POPC   C2B26528  15.420   0.626   8.458
 1800POPC   C3B26529  15.453   0.824   8.116
 1800POPC   C4B26530  15.565   0.614   7.772
 1801POPC   NC326531  37.581  39.910   9.546
 1801POPC   PO426532  37.973  40.391   9.437
 1801POPC   GL126533  37.680  40.217   9.126
 1801POPC   GL226534  37.743  39.829   9.089
 1801POPC   C1A26535  37.510  40.088   8.721
 1801POPC   D2A26536  37.688  39.981   8.343
 1801POPC   C3A26537  37.458  39.974   7.968
 1801POPC   C4A26538  37.528  40.262   7.654
 1801POPC   C1B26539  38.044  39.638   8.856
 1801POPC   C2B26540  38.071  39.658   8.438
 1801POPC   C3B26541  37.850  39.509   8.074
 1801POPC   C4B26542  37.821  39.707   7.700
 1802POPC   NC326543  20.129  11.118   9.412
 1802POPC   PO426544  19.651  11.638   9.475
 1802POPC   GL126545  19.724  11.329   9.131
 1802POPC   GL226546  20.053  11.258   8.924
 1802POPC   C1A26547  19.628  11.040   8.793
 1802POPC   D2A26548  19.916  11.079   8.432
 1802POPC   C3A26549  19.702  11.078   8.086
 1802POPC   C4A26550  19.687  11.293   7.778
 1802POPC   C1B26551  20.385  10.958   8.784
 1802POPC   C2B26552  20.357  10.777   8.356
 1802POPC   C3B26553  20.187  10.993   7.954
 1802POPC   C4B26554  20.166  11.395   7.710
 1803POPC   NC326555  33.153  16.262   9.730
 1803POPC   PO426556  33.232  15.677   9.262
 1803POPC   GL126557  33.220  16.047   9.038
 1803POPC   GL226558  32.873  15.988   8.969
 1803POPC   C1A26559  33.157  16.154   8.588
 1803POPC   D2A26560  33.082  15.867   8.299
 1803POPC   C3A26561  33.224  16.010   7.928
 1803POPC   C4A26562  32.984  15.778   7.687
 1803POPC   C1B26563  32.645  16.111   8.612
 1803POPC   C2B26564  32.725  16.294   8.211
 1803POPC   C3B26565  32.702  16.202   7.762
 1803POPC   C4B26566  32.896  16.144   7.344
 1804POPC   NC326567  42.623  22.351   9.511
 1804POPC   PO426568  42.482  21.734   9.228
 1804POPC   GL126569  42.365  22.169   9.119
 1804POPC   GL226570  42.060  22.329   9.201
 1804POPC   C1A26571  42.311  22.307   8.705
 1804POPC   D2A26572  42.464  22.069   8.394
 1804POPC   C3A26573  42.473  22.153   7.985
 1804POPC   C4A26574  42.438  21.847   7.673
 1804POPC   C1B26575  41.977  21.971   8.867
 1804POPC   C2B26576  41.988  21.838   8.427
 1804POPC   C3B26577  41.983  21.951   7.985
 1804POPC   C4B26578  42.079  22.199   7.658
 1805POPC   NC326579  28.782  15.473   9.581
 1805POPC   PO426580  29.328  15.851   9.513
 1805POPC   GL126581  29.209  15.912   9.126
 1805POPC   GL226582  28.867  15.997   9.130
 1805POPC   C1A26583  29.217  15.717   8.745
 1805POPC   D2A26584  29.075  15.724   8.360
 1805POPC   C3A26585  29.131  16.051   8.084
 1805POPC   C4A26586  29.219  15.974   7.642
 1805POPC   C1B26587  28.851  16.108   8.724
 1805POPC   C2B26588  28.649  15.984   8.346
 1805POPC   C3B26589  28.650  16.107   7.937
 1805POPC   C4B26590  28.767  16.199   7.525
 1806POPC   NC326591  22.462  31.944   9.573
 1806POPC   PO426592  22.982  32.361   9.651
 1806POPC   GL126593  22.733  32.300   9.290
 1806POPC   GL226594  22.690  31.979   9.101
 1806POPC   C1A26595  22.921  32.418   8.926
 1806POPC   D2A26596  23.053  32.204   8.576
 1806POPC   C3A26597  23.100  32.412   8.162
 1806POPC   C4A26598  22.961  32.451   7.766
 1806POPC   C1B26599  22.711  31.780   8.669
 1806POPC   C2B26600  22.969  31.779   8.308
 1806POPC   C3B26601  23.027  31.953   7.907
 1806POPC   C4B26602  22.716  32.044   7.590
 1807POPC   NC326603   4.741  16.549   9.503
 1807POPC   PO426604   5.226  16.983   9.609
 1807POPC   GL126605   5.155  16.677   9.220
 1807POPC   GL226606   5.493  16.540   9.097
 1807POPC   C1A26607   4.849  16.560   8.851
 1807POPC   D2A26608   4.661  16.749   8.476
 1807POPC   C3A26609   4.876  16.710   8.109
 1807POPC   C4A26610   5.169  16.672   7.740
 1807POPC   C1B26611   5.321  16.786   8.742
 1807POPC   C2B26612   5.357  16.712   8.305
 1807POPC   C3B26613   5.466  17.010   8.009
 1807POPC   C4B26614   5.408  17.263   7.682
 1808POPC   NC326615  38.612  28.039   9.581
 1808POPC   PO426616  38.154  28.548   9.478
 1808POPC   GL126617  38.482  28.396   9.193
 1808POPC   GL226618  38.419  28.048   9.120
 1808POPC   C1A26619  38.751  28.359   8.821
 1808POPC   D2A26620  38.875  28.226   8.400
 1808POPC   C3A26621  38.594  28.436   8.103
 1808POPC   C4A26622  38.353  28.365   7.717
 1808POPC   C1B26623  38.548  27.897   8.740
 1808POPC   C2B26624  38.367  27.999   8.349
 1808POPC   C3B26625  38.490  27.929   7.938
 1808POPC   C4B26626  38.253  27.901   7.535
 1809POPC   NC326627  16.085  10.170   9.608
 1809POPC   PO426628  15.746   9.696   9.444
 1809POPC   GL126629  15.717   9.861   9.097
 1809POPC   GL226630  16.063   9.858   9.046
 1809POPC   C1A26631  15.652   9.794   8.688
 1809POPC   D2A26632  15.929   9.744   8.373
 1809POPC   C3A26633  15.785   9.807   7.991
 1809POPC   C4A26634  15.757   9.607   7.652
 1809POPC   C1B26635  16.016  10.131   8.720
 1809POPC   C2B26636  16.064  10.263   8.332
 1809POPC   C3B26637  16.238  10.056   8.015
 1809POPC   C4B26638  16.138   9.943   7.600
 1810POPC   NC326639  37.179  25.152   9.571
 1810POPC   PO426640  36.695  25.638   9.512
 1810POPC   GL126641  36.858  25.580   9.151
 1810POPC   GL226642  36.991  25.228   9.095
 1810POPC   C1A26643  36.745  25.542   8.739
 1810POPC   D2A26644  36.951  25.395   8.371
 1810POPC   C3A26645  36.732  25.098   8.132
 1810POPC   C4A26646  36.821  25.088   7.716
 1810POPC   C1B26647  37.240  25.045   8.742
 1810POPC   C2B26648  37.191  24.924   8.280
 1810POPC   C3B26649  37.285  25.155   7.900
 1810POPC   C4B26650  37.281  25.056   7.416
 1811POPC   NC326651  24.804  12.543   9.446
 1811POPC   PO426652  24.356  11.972   9.536
 1811POPC   GL126653  24.380  11.946   9.108
 1811POPC   GL226654  24.555  12.274   9.083
 1811POPC   C1A26655  24.653  11.847   8.750
 1811POPC   D2A26656  24.939  11.694   8.437
 1811POPC   C3A26657  24.681  11.793   8.096
 1811POPC   C4A26658  24.493  11.900   7.684
 1811POPC   C1B26659  24.342  12.249   8.693
 1811POPC   C2B26660  24.470  12.226   8.266
 1811POPC   C3B26661  24.523  12.397   7.867
 1811POPC   C4B26662  24.255  12.385   7.537
 1812POPC   NC326663  17.941  22.018   9.475
 1812POPC   PO426664  17.297  22.237   9.567
 1812POPC   GL126665  17.524  22.317   9.185
 1812POPC   GL226666  17.227  22.343   9.026
 1812POPC   C1A26667  17.641  22.351   8.735
 1812POPC   D2A26668  17.662  22.042   8.412
 1812POPC   C3A26669  17.872  22.127   8.032
 1812POPC   C4A26670  17.705  22.320   7.664
 1812POPC   C1B26671  17.224  22.023   8.765
 1812POPC   C2B26672  17.092  22.124   8.369
 1812POPC   C3B26673  17.345  22.190   8.031
 1812POPC   C4B26674  17.188  22.184   7.656
 1813POPC   NC326675  24.190  36.722   9.499
 1813POPC   PO426676  24.831  36.470   9.613
 1813POPC   GL126677  24.647  36.643   9.228
 1813POPC   GL226678  24.703  36.963   9.300
 1813POPC   C1A26679  24.403  36.918   8.905
 1813POPC   D2A26680  24.469  36.924   8.485
 1813POPC   C3A26681  24.243  37.090   8.156
 1813POPC   C4A26682  24.299  36.892   7.806
 1813POPC   C1B26683  24.891  37.035   8.876
 1813POPC   C2B26684  24.859  37.226   8.441
 1813POPC   C3B26685  24.769  37.000   8.037
 1813POPC   C4B26686  24.712  37.162   7.612
 1814POPC   NC326687   3.763  42.942   9.340
 1814POPC   PO426688   4.232  43.278   9.719
 1814POPC   GL126689   4.286  43.112   9.276
 1814POPC   GL226690   4.488  42.781   9.195
 1814POPC   C1A26691   4.506  43.232   8.889
 1814POPC   D2A26692   4.633  43.008   8.530
 1814POPC   C3A26693   4.474  43.108   8.132
 1814POPC   C4A26694   4.424  43.303   7.743
 1814POPC   C1B26695   4.197  42.821   8.843
 1814POPC   C2B26696   4.074  42.972   8.442
 1814POPC   C3B26697   3.991  42.964   8.007
 1814POPC   C4B26698   4.141  42.890   7.597
 1815POPC   NC326699  36.267  40.923   9.519
 1815POPC   PO426700  35.672  40.527   9.724
 1815POPC   GL126701  35.984  40.631   9.242
 1815POPC   GL226702  35.884  40.969   9.168
 1815POPC   C1A26703  35.943  40.523   8.770
 1815POPC   D2A26704  36.113  40.462   8.329
 1815POPC   C3A26705  35.975  40.715   8.015
 1815POPC   C4A26706  36.173  40.755   7.657
 1815POPC   C1B26707  36.168  40.990   8.842
 1815POPC   C2B26708  36.258  40.950   8.407
 1815POPC   C3B26709  36.325  41.096   7.997
 1815POPC   C4B26710  36.021  41.240   7.738
 1816POPC   NC326711  44.574  40.265   9.708
 1816POPC   PO426712  44.459  39.595   9.750
 1816POPC   GL126713  44.651  39.909   9.345
 1816POPC   GL226714  44.720  40.258   9.188
 1816POPC   C1A26715  44.788  39.880   8.877
 1816POPC   D2A26716  44.554  39.722   8.524
 1816POPC   C3A26717  44.703  39.797   8.074
 1816POPC   C4A26718  44.728  39.925   7.628
 1816POPC   C1B26719  44.853  40.393   8.751
 1816POPC   C2B26720  44.777  40.261   8.308
 1816POPC   C3B26721  44.877  40.347   7.861
 1816POPC   C4B26722  44.682  40.399   7.396
 1817POPC   NC326723   1.038  37.477   9.653
 1817POPC   PO426724   1.316  37.965   9.353
 1817POPC   GL126725   1.117  37.641   9.173
 1817POPC   GL226726   1.331  37.340   9.263
 1817POPC   C1A26727   0.935  37.757   8.794
 1817POPC   D2A26728   1.224  37.846   8.440
 1817POPC   C3A26729   1.075  37.681   8.045
 1817POPC   C4A26730   1.136  37.877   7.656
 1817POPC   C1B26731   1.544  37.230   8.885
 1817POPC   C2B26732   1.468  37.365   8.442
 1817POPC   C3B26733   1.329  37.238   8.026
 1817POPC   C4B26734   1.334  37.404   7.564
 1818POPC   NC326735  13.207  30.540   9.789
 1818POPC   PO426736  13.726  30.907   9.630
 1818POPC   GL126737  13.655  30.745   9.226
 1818POPC   GL226738  13.351  30.642   9.233
 1818POPC   C1A26739  13.805  30.731   8.811
 1818POPC   D2A26740  13.631  30.768   8.394
 1818POPC   C3A26741  13.733  30.951   7.990
 1818POPC   C4A26742  13.625  30.765   7.554
 1818POPC   C1B26743  13.288  30.644   8.787
 1818POPC   C2B26744  13.274  30.413   8.392
 1818POPC   C3B26745  13.313  30.653   8.003
 1818POPC   C4B26746  13.231  30.433   7.664
 1819POPC   NC326747  40.759   2.896   9.629
 1819POPC   PO426748  41.338   2.865   9.267
 1819POPC   GL126749  40.970   2.655   9.115
 1819POPC   GL226750  40.657   2.753   9.148
 1819POPC   C1A26751  40.913   2.551   8.688
 1819POPC   D2A26752  40.900   2.799   8.323
 1819POPC   C3A26753  40.944   2.593   7.943
 1819POPC   C4A26754  40.756   2.774   7.571
 1819POPC   C1B26755  40.411   2.716   8.790
 1819POPC   C2B26756  40.401   2.918   8.402
 1819POPC   C3B26757  40.446   2.755   7.984
 1819POPC   C4B26758  40.257   2.617   7.610
 1820POPC   NC326759   0.658  23.443   9.452
 1820POPC   PO426760   0.089  23.804   9.519
 1820POPC   GL126761   0.440  23.871   9.152
 1820POPC   GL226762   0.709  23.615   8.993
 1820POPC   C1A26763   0.621  24.000   8.702
 1820POPC   D2A26764   0.723  23.742   8.338
 1820POPC   C3A26765   0.592  23.881   7.882
 1820POPC   C4A26766   0.276  23.646   7.594
 1820POPC   C1B26767   0.339  23.587   8.729
 1820POPC   C2B26768   0.253  23.424   8.387
 1820POPC   C3B26769   0.428  23.427   8.027
 1820POPC   C4B26770   0.779  23.435   7.739
 1821POPC   NC326771  35.186  17.057   9.430
 1821POPC   PO426772  35.112  16.406   9.508
 1821POPC   GL126773  35.219  16.516   9.118
 1821POPC   GL226774  35.474  16.727   9.129
 1821POPC   C1A26775  35.318  16.506   8.681
 1821POPC   D2A26776  35.107  16.635   8.317
 1821POPC   C3A26777  35.251  16.626   7.914
 1821POPC   C4A26778  34.993  16.954   7.784
 1821POPC   C1B26779  35.489  17.003   8.786
 1821POPC   C2B26780  35.538  16.967   8.349
 1821POPC   C3B26781  35.436  17.103   7.927
 1821POPC   C4B26782  35.577  16.949   7.522
 1822POPC   NC326783  18.522   5.085   9.442
 1822POPC   PO426784  17.920   4.979   9.737
 1822POPC   GL126785  18.056   5.005   9.248
 1822POPC   GL226786  18.207   5.318   9.103
 1822POPC   C1A26787  18.019   4.975   8.750
 1822POPC   D2A26788  18.059   4.699   8.350
 1822POPC   C3A26789  18.050   4.765   7.898
 1822POPC   C4A26790  17.783   5.040   7.625
 1822POPC   C1B26791  18.376   5.352   8.675
 1822POPC   C2B26792  18.348   5.156   8.275
 1822POPC   C3B26793  18.225   5.263   7.878
 1822POPC   C4B26794  18.334   5.036   7.546
 1823POPC   NC326795  15.476   4.644   9.464
 1823POPC   PO426796  15.134   4.102   9.654
 1823POPC   GL126797  15.159   4.017   9.207
 1823POPC   GL226798  15.183   4.334   9.064
 1823POPC   C1A26799  15.215   3.968   8.737
 1823POPC   D2A26800  15.193   4.270   8.403
 1823POPC   C3A26801  15.320   4.148   8.003
 1823POPC   C4A26802  15.286   3.849   7.696
 1823POPC   C1B26803  14.904   4.513   8.750
 1823POPC   C2B26804  14.841   4.639   8.326
 1823POPC   C3B26805  14.972   4.674   7.881
 1823POPC   C4B26806  15.036   4.602   7.418
 1824POPC   NC326807   4.358  11.862   9.556
 1824POPC   PO426808   4.746  12.400   9.344
 1824POPC   GL126809   4.414  12.268   9.134
 1824POPC   GL226810   4.543  11.941   9.114
 1824POPC   C1A26811   4.217  12.399   8.761
 1824POPC   D2A26812   4.382  12.573   8.379
 1824POPC   C3A26813   4.097  12.426   8.060
 1824POPC   C4A26814   4.122  12.169   7.672
 1824POPC   C1B26815   4.290  11.891   8.770
 1824POPC   C2B26816   4.290  12.061   8.365
 1824POPC   C3B26817   4.359  11.842   7.991
 1824POPC   C4B26818   4.561  11.852   7.590
 1825POPC   NC326819   3.800  15.698   9.936
 1825POPC   PO426820   3.345  16.027   9.468
 1825POPC   GL126821   3.546  15.868   9.042
 1825POPC   GL226822   3.896  15.748   9.099
 1825POPC   C1A26823   3.618  16.052   8.664
 1825POPC   D2A26824   3.475  16.386   8.434
 1825POPC   C3A26825   3.520  16.200   8.058
 1825POPC   C4A26826   3.587  16.325   7.635
 1825POPC   C1B26827   3.889  15.598   8.702
 1825POPC   C2B26828   3.893  15.813   8.308
 1825POPC   C3B26829   3.694  15.726   7.944
 1825POPC   C4B26830   3.779  15.843   7.531
 1826POPC   NC326831  19.050   9.069   9.450
 1826POPC   PO426832  19.392   8.550   9.397
 1826POPC   GL126833  19.319   8.836   9.054
 1826POPC   GL226834  18.977   8.848   9.006
 1826POPC   C1A26835  19.235   8.968   8.597
 1826POPC   D2A26836  19.105   8.822   8.177
 1826POPC   C3A26837  19.320   9.026   7.858
 1826POPC   C4A26838  19.706   9.274   7.897
 1826POPC   C1B26839  18.838   9.218   8.824
 1826POPC   C2B26840  18.720   9.026   8.451
 1826POPC   C3B26841  18.776   9.224   8.057
 1826POPC   C4B26842  18.855   9.130   7.671
 1827POPC   NC326843  29.339  40.103   9.552
 1827POPC   PO426844  28.738  40.286   9.361
 1827POPC   GL126845  29.167  40.404   9.128
 1827POPC   GL226846  29.404  40.706   9.159
 1827POPC   C1A26847  29.338  40.518   8.678
 1827POPC   D2A26848  29.456  40.614   8.211
 1827POPC   C3A26849  29.128  40.776   7.894
 1827POPC   C4A26850  29.014  40.974   7.471
 1827POPC   C1B26851  29.665  40.902   8.786
 1827POPC   C2B26852  29.711  41.047   8.320
 1827POPC   C3B26853  29.608  40.980   7.862
 1827POPC   C4B26854  29.836  40.952   7.449
 1828POPC   NC326855  31.157  28.942   9.424
 1828POPC   PO426856  31.689  29.275   9.532
 1828POPC   GL126857  31.445  29.292   9.175
 1828POPC   GL226858  31.556  28.991   9.084
 1828POPC   C1A26859  31.200  29.256   8.811
 1828POPC   D2A26860  31.180  29.443   8.399
 1828POPC   C3A26861  31.309  29.261   8.002
 1828POPC   C4A26862  31.734  29.318   7.822
 1828POPC   C1B26863  31.657  29.111   8.678
 1828POPC   C2B26864  31.719  29.095   8.271
 1828POPC   C3B26865  31.624  28.833   7.886
 1828POPC   C4B26866  31.843  28.932   7.493
 1829POPC   NC326867   7.216  27.594   9.495
 1829POPC   PO426868   7.653  27.163   9.358
 1829POPC   GL126869   7.435  27.411   9.076
 1829POPC   GL226870   7.039  27.347   9.110
 1829POPC   C1A26871   7.498  27.766   8.794
 1829POPC   D2A26872   7.225  28.035   8.526
 1829POPC   C3A26873   7.321  27.961   8.080
 1829POPC   C4A26874   7.281  27.783   7.622
 1829POPC   C1B26875   7.015  27.622   8.782
 1829POPC   C2B26876   7.192  27.546   8.394
 1829POPC   C3B26877   7.036  27.527   7.998
 1829POPC   C4B26878   7.089  27.175   7.820
 1830POPC   NC326879   0.744  13.822   9.524
 1830POPC   PO426880   0.149  13.940   9.464
 1830POPC   GL126881   0.436  13.767   9.108
 1830POPC   GL226882   0.650  13.463   9.116
 1830POPC   C1A26883   0.555  13.705   8.651
 1830POPC   D2A26884   0.621  13.744   8.195
 1830POPC   C3A26885   0.336  13.535   7.891
 1830POPC   C4A26886   0.381  13.505   7.445
 1830POPC   C1B26887   0.725  13.226   8.703
 1830POPC   C2B26888   0.594  13.231   8.248
 1830POPC   C3B26889   0.778  13.281   7.825
 1830POPC   C4B26890   0.877  13.432   7.396
 1831POPC   NC326891  30.843   2.631   9.370
 1831POPC   PO426892  31.152   3.156   9.268
 1831POPC   GL126893  30.876   2.949   8.977
 1831POPC   GL226894  30.503   2.866   9.055
 1831POPC   C1A26895  30.733   2.732   8.607
 1831POPC   D2A26896  31.002   2.653   8.259
 1831POPC   C3A26897  30.993   2.914   7.934
 1831POPC   C4A26898  30.828   2.639   7.676
 1831POPC   C1B26899  30.207   2.921   8.689
 1831POPC   C2B26900  30.130   2.960   8.241
 1831POPC   C3B26901  30.391   2.817   7.912
 1831POPC   C4B26902  30.582   3.096   7.639
 1832POPC   NC326903  44.935  39.607   9.618
 1832POPC   PO426904  44.362  39.524   9.209
 1832POPC   GL126905  44.672  39.312   9.054
 1832POPC   GL226906  44.745  38.956   9.097
 1832POPC   C1A26907  44.575  39.151   8.653
 1832POPC   D2A26908  44.439  39.100   8.256
 1832POPC   C3A26909  44.637  39.306   7.907
 1832POPC   C4A26910  44.534  39.469   7.518
 1832POPC   C1B26911   0.025  38.945   8.729
 1832POPC   C2B26912  44.932  38.918   8.309
 1832POPC   C3B26913  44.752  38.813   7.953
 1832POPC   C4B26914   0.040  39.028   7.726
 1833POPC   NC326915   9.284  16.505   9.496
 1833POPC   PO426916   8.601  16.489   9.290
 1833POPC   GL126917   8.871  16.769   9.045
 1833POPC   GL226918   9.211  16.897   9.132
 1833POPC   C1A26919   8.710  16.890   8.656
 1833POPC   D2A26920   8.940  16.965   8.281
 1833POPC   C3A26921   9.182  16.637   8.091
 1833POPC   C4A26922   8.825  16.412   7.951
 1833POPC   C1B26923   9.104  17.166   8.776
 1833POPC   C2B26924   9.268  17.344   8.396
 1833POPC   C3B26925   9.239  17.209   7.948
 1833POPC   C4B26926   8.921  16.912   7.761
 1834POPC   NC326927  15.654  44.795   9.569
 1834POPC   PO426928  16.284  44.720   9.472
 1834POPC   GL126929  16.019  44.538   9.172
 1834POPC   GL226930  15.693  44.388   9.243
 1834POPC   C1A26931  16.106  44.724   8.771
 1834POPC   D2A26932  16.273  44.956   8.439
 1834POPC   C3A26933  16.055  44.854   8.060
 1834POPC   C4A26934  16.049  44.671   7.660
 1834POPC   C1B26935  15.611  44.647   8.863
 1834POPC   C2B26936  15.729  44.637   8.410
 1834POPC   C3B26937  15.527  44.674   7.987
 1834POPC   C4B26938  15.554  44.683   7.522
 1835POPC   NC326939   4.108  25.691   9.481
 1835POPC   PO426940   4.608  25.150   9.511
 1835POPC   GL126941   4.473  25.379   9.156
 1835POPC   GL226942   4.097  25.384   9.063
 1835POPC   C1A26943   4.523  25.526   8.724
 1835POPC   D2A26944   4.307  25.687   8.365
 1835POPC   C3A26945   4.358  25.596   7.921
 1835POPC   C4A26946   4.307  25.310   7.553
 1835POPC   C1B26947   4.327  25.059   8.790
 1835POPC   C2B26948   4.553  25.000   8.406
 1835POPC   C3B26949   4.331  25.049   8.017
 1835POPC   C4B26950   3.968  24.961   7.746
 1836POPC   NC326951  24.958  13.520   9.298
 1836POPC   PO426952  24.346  13.675   9.550
 1836POPC   GL126953  24.481  13.600   9.077
 1836POPC   GL226954  24.678  13.293   8.950
 1836POPC   C1A26955  24.422  13.589   8.624
 1836POPC   D2A26956  24.200  13.856   8.372
 1836POPC   C3A26957  24.519  13.905   8.135
 1836POPC   C4A26958  24.430  13.773   7.768
 1836POPC   C1B26959  24.654  13.145   8.540
 1836POPC   C2B26960  24.791  13.358   8.180
 1836POPC   C3B26961  24.985  13.317   7.794
 1836POPC   C4B26962  24.836  13.199   7.371
 1837POPC   NC326963   4.840  12.735   9.637
 1837POPC   PO426964   5.221  13.194   9.630
 1837POPC   GL126965   4.972  13.095   9.236
 1837POPC   GL226966   5.051  12.772   9.162
 1837POPC   C1A26967   5.108  13.111   8.789
 1837POPC   D2A26968   5.300  13.050   8.404
 1837POPC   C3A26969   5.074  13.060   8.005
 1837POPC   C4A26970   5.267  12.915   7.631
 1837POPC   C1B26971   5.012  12.594   8.760
 1837POPC   C2B26972   4.914  12.699   8.351
 1837POPC   C3B26973   5.034  12.555   7.941
 1837POPC   C4B26974   5.175  12.417   7.534
 1838POPC   NC326975  44.026  39.819   9.319
 1838POPC   PO426976  44.304  40.462   9.391
 1838POPC   GL126977  44.084  40.243   9.029
 1838POPC   GL226978  44.322  39.994   8.975
 1838POPC   C1A26979  43.956  39.889   8.654
 1838POPC   D2A26980  43.785  39.723   8.237
 1838POPC   C3A26981  43.985  39.931   7.904
 1838POPC   C4A26982  43.962  40.416   7.921
 1838POPC   C1B26983  44.401  40.189   8.653
 1838POPC   C2B26984  44.266  40.081   8.288
 1838POPC   C3B26985  44.412  40.189   7.929
 1838POPC   C4B26986  44.263  40.187   7.547
 1839POPC   NC326987   7.583  15.588   9.201
 1839POPC   PO426988   7.637  14.993   9.482
 1839POPC   GL126989   7.480  15.042   9.092
 1839POPC   GL226990   7.172  15.290   9.129
 1839POPC   C1A26991   7.671  14.965   8.690
 1839POPC   D2A26992   7.445  14.952   8.289
 1839POPC   C3A26993   7.744  15.086   7.984
 1839POPC   C4A26994   7.625  15.312   7.641
 1839POPC   C1B26995   7.300  15.321   8.677
 1839POPC   C2B26996   7.121  15.363   8.282
 1839POPC   C3B26997   7.286  15.563   7.901
 1839POPC   C4B26998   7.321  15.589   7.365
 1840POPC   NC326999  13.990  23.785   9.508
 1840POPC   PO427000  14.543  23.561   9.892
 1840POPC   GL127001  14.471  23.524   9.322
 1840POPC   GL227002  14.250  23.741   9.084
 1840POPC   C1A27003  14.706  23.790   8.926
 1840POPC   D2A27004  14.743  23.843   8.483
 1840POPC   C3A27005  14.732  23.895   8.033
 1840POPC   C4A27006  14.672  23.602   7.724
 1840POPC   C1B27007  13.971  23.974   8.857
 1840POPC   C2B27008  13.865  24.008   8.453
 1840POPC   C3B27009  13.881  23.961   8.009
 1840POPC   C4B27010  14.239  23.875   7.758
 1841POPC   NC327011   0.127  25.998   9.711
 1841POPC   PO427012  44.497  25.883   9.432
 1841POPC   GL127013  44.559  26.050   9.008
 1841POPC   GL227014  44.227  26.240   8.960
 1841POPC   C1A27015  44.855  25.971   8.650
 1841POPC   D2A27016   0.042  26.163   8.281
 1841POPC   C3A27017   0.155  25.871   7.940
 1841POPC   C4A27018  44.953  25.929   7.536
 1841POPC   C1B27019  44.358  26.490   8.634
 1841POPC   C2B27020  44.500  26.195   8.353
 1841POPC   C3B27021  44.648  25.992   7.990
 1841POPC   C4B27022  44.646  25.611   7.788
 1842POPC   NC327023  12.391  23.699   9.575
 1842POPC   PO427024  11.790  23.489   9.741
 1842POPC   GL127025  12.032  23.612   9.241
 1842POPC   GL227026  12.254  23.885   9.130
 1842POPC   C1A27027  11.949  23.650   8.730
 1842POPC   D2A27028  11.878  23.418   8.307
 1842POPC   C3A27029  12.051  23.634   7.924
 1842POPC   C4A27030  11.902  23.722   7.484
 1842POPC   C1B27031  12.205  24.094   8.755
 1842POPC   C2B27032  12.252  23.895   8.376
 1842POPC   C3B27033  12.390  24.070   8.028
 1842POPC   C4B27034  12.290  24.028   7.631
 1843POPC   NC327035  38.149  39.608   9.538
 1843POPC   PO427036  38.627  39.080   9.536
 1843POPC   GL127037  38.650  39.142   9.099
 1843POPC   GL227038  38.415  39.408   9.127
 1843POPC   C1A27039  38.662  39.335   8.671
 1843POPC   D2A27040  38.493  39.450   8.254
 1843POPC   C3A27041  38.685  39.360   7.848
 1843POPC   C4A27042  38.947  39.003   7.734
 1843POPC   C1B27043  38.201  39.139   8.824
 1843POPC   C2B27044  38.082  39.145   8.378
 1843POPC   C3B27045  38.255  39.105   7.949
 1843POPC   C4B27046  38.159  39.342   7.582
 1844POPC   NC327047  25.155  23.227   9.389
 1844POPC   PO427048  24.980  22.632   9.600
 1844POPC   GL127049  25.072  22.674   9.137
 1844POPC   GL227050  25.343  22.850   9.038
 1844POPC   C1A27051  25.048  22.751   8.647
 1844POPC   D2A27052  25.227  22.963   8.275
 1844POPC   C3A27053  25.348  22.693   7.932
 1844POPC   C4A27054  25.278  22.555   7.502
 1844POPC   C1B27055  25.514  23.098   8.686
 1844POPC   C2B27056  25.573  23.351   8.302
 1844POPC   C3B27057  25.478  23.201   7.870
 1844POPC   C4B27058  25.485  23.046   7.448
 1845POPC   NC327059  22.365  34.372   9.621
 1845POPC   PO427060  22.614  34.903   9.202
 1845POPC   GL127061  22.368  34.511   9.106
 1845POPC   GL227062  22.034  34.404   9.219
 1845POPC   C1A27063  22.264  34.405   8.690
 1845POPC   D2A27064  22.048  34.584   8.378
 1845POPC   C3A27065  22.210  34.704   8.002
 1845POPC   C4A27066  21.890  34.864   7.730
 1845POPC   C1B27067  21.839  34.197   8.866
 1845POPC   C2B27068  21.708  34.214   8.411
 1845POPC   C3B27069  21.893  34.249   8.010
 1845POPC   C4B27070  22.144  34.350   7.630
 1846POPC   NC327071   5.681  38.382   9.433
 1846POPC   PO427072   6.140  38.793   9.303
 1846POPC   GL127073   6.041  38.496   9.033
 1846POPC   GL227074   5.722  38.618   8.992
 1846POPC   C1A27075   5.983  38.469   8.582
 1846POPC   D2A27076   6.081  38.162   8.340
 1846POPC   C3A27077   5.913  38.301   7.976
 1846POPC   C4A27078   6.149  38.329   7.566
 1846POPC   C1B27079   5.486  38.409   8.702
 1846POPC   C2B27080   5.460  38.564   8.310
 1846POPC   C3B27081   5.532  38.648   7.892
 1846POPC   C4B27082   5.676  38.486   7.506
 1847POPC   NC327083  38.428  44.283   9.385
 1847POPC   PO427084  38.143  44.917   9.514
 1847POPC   GL127085  38.349  44.816   9.160
 1847POPC   GL227086  38.664  44.724   9.236
 1847POPC   C1A27087  38.342  44.786   8.723
 1847POPC   D2A27088  38.128  44.749   8.321
 1847POPC   C3A27089  38.373  44.855   7.942
 1847POPC   C4A27090  38.263   0.021   7.529
 1847POPC   C1B27091  38.752  44.481   8.841
 1847POPC   C2B27092  38.589  44.425   8.399
 1847POPC   C3B27093  38.802  44.492   7.993
 1847POPC   C4B27094  38.743  44.703   7.600
 1848POPC   NC327095  21.599   9.993   9.478
 1848POPC   PO427096  20.941   9.883   9.515
 1848POPC   GL127097  21.189   9.929   9.156
 1848POPC   GL227098  21.274   9.574   9.215
 1848POPC   C1A27099  21.531   9.872   8.812
 1848POPC   D2A27100  21.573   9.616   8.407
 1848POPC   C3A27101  21.506   9.835   8.001
 1848POPC   C4A27102  21.516  10.036   7.585
 1848POPC   C1B27103  21.092   9.602   8.783
 1848POPC   C2B27104  21.026   9.469   8.362
 1848POPC   C3B27105  21.256   9.399   8.021
 1848POPC   C4B27106  21.695   9.250   7.943
 1849POPC   NC327107  30.837  35.032   9.455
 1849POPC   PO427108  30.440  35.534   9.393
 1849POPC   GL127109  30.744  35.391   9.118
 1849POPC   GL227110  30.502  35.135   9.082
 1849POPC   C1A27111  30.959  35.210   8.766
 1849POPC   D2A27112  31.150  35.416   8.409
 1849POPC   C3A27113  30.920  35.431   7.989
 1849POPC   C4A27114  30.670  35.757   7.761
 1849POPC   C1B27115  30.432  35.417   8.740
 1849POPC   C2B27116  30.406  35.260   8.374
 1849POPC   C3B27117  30.388  35.353   7.995
 1849POPC   C4B27118  30.554  35.159   7.659
 1850POPC   NC327119  36.306  31.833   9.423
 1850POPC   PO427120  35.742  31.516   9.328
 1850POPC   GL127121  36.106  31.547   9.055
 1850POPC   GL227122  36.404  31.316   9.127
 1850POPC   C1A27123  36.167  31.776   8.692
 1850POPC   D2A27124  35.920  31.741   8.316
 1850POPC   C3A27125  36.065  31.760   7.895
 1850POPC   C4A27126  35.984  31.466   7.564
 1850POPC   C1B27127  36.503  31.387   8.684
 1850POPC   C2B27128  36.399  31.518   8.246
 1850POPC   C3B27129  36.422  31.372   7.807
 1850POPC   C4B27130  36.399  31.255   7.321
 1851POPC   NC327131  42.565  28.551   9.844
 1851POPC   PO427132  42.258  29.106   9.552
 1851POPC   GL127133  42.119  29.198   9.131
 1851POPC   GL227134  42.424  29.060   9.033
 1851POPC   C1A27135  42.141  29.314   8.655
 1851POPC   D2A27136  42.219  29.023   8.304
 1851POPC   C3A27137  42.262  29.269   7.952
 1851POPC   C4A27138  42.127  29.652   8.124
 1851POPC   C1B27139  42.555  28.884   8.669
 1851POPC   C2B27140  42.738  28.951   8.263
 1851POPC   C3B27141  42.676  28.983   7.819
 1851POPC   C4B27142  42.576  28.887   7.404
 1852POPC   NC327143   6.297  43.390   9.449
 1852POPC   PO427144   6.833  42.883   9.505
 1852POPC   GL127145   6.896  42.934   9.070
 1852POPC   GL227146   6.550  42.831   8.923
 1852POPC   C1A27147   6.963  42.897   8.631
 1852POPC   D2A27148   6.604  42.937   8.363
 1852POPC   C3A27149   6.728  43.036   7.973
 1852POPC   C4A27150   6.578  42.953   7.570
 1852POPC   C1B27151   6.562  43.258   8.789
 1852POPC   C2B27152   6.302  43.467   8.518
 1852POPC   C3B27153   6.516  43.454   8.168
 1852POPC   C4B27154   6.430  43.387   7.774
 1853POPC   NC327155   7.387   9.371   9.399
 1853POPC   PO427156   7.628  10.024   9.586
 1853POPC   GL127157   7.373   9.930   9.238
 1853POPC   GL227158   7.472   9.685   9.005
 1853POPC   C1A27159   7.293  10.144   8.856
 1853POPC   D2A27160   7.351  10.082   8.419
 1853POPC   C3A27161   7.421  10.242   8.017
 1853POPC   C4A27162   7.389   9.926   7.676
 1853POPC   C1B27163   7.555   9.589   8.564
 1853POPC   C2B27164   7.519   9.681   8.119
 1853POPC   C3B27165   7.284   9.448   7.792
 1853POPC   C4B27166   7.387   9.187   7.414
 1854POPC   NC327167   4.737  39.525   9.632
 1854POPC   PO427168   5.262  39.083   9.682
 1854POPC   GL127169   4.971  39.245   9.254
 1854POPC   GL227170   4.687  39.533   9.121
 1854POPC   C1A27171   5.113  39.323   8.801
 1854POPC   D2A27172   5.409  39.096   8.501
 1854POPC   C3A27173   5.178  38.969   8.126
 1854POPC   C4A27174   5.222  39.108   7.703
 1854POPC   C1B27175   4.609  39.405   8.719
 1854POPC   C2B27176   4.785  39.200   8.353
 1854POPC   C3B27177   4.831  39.368   7.909
 1854POPC   C4B27178   4.956  39.461   7.447
 1855POPC   NC327179  26.547   5.645   9.362
 1855POPC   PO427180  27.004   6.100   9.482
 1855POPC   GL127181  26.776   6.086   9.119
 1855POPC   GL227182  26.934   5.809   9.044
 1855POPC   C1A27183  26.975   6.162   8.677
 1855POPC   D2A27184  27.136   5.779   8.450
 1855POPC   C3A27185  27.114   5.797   8.010
 1855POPC   C4A27186  26.704   5.888   7.853
 1855POPC   C1B27187  26.578   5.845   8.727
 1855POPC   C2B27188  26.601   5.708   8.322
 1855POPC   C3B27189  26.814   5.408   8.087
 1855POPC   C4B27190  26.809   5.260   7.684
 1856POPC   NC327191  30.850  28.098   9.618
 1856POPC   PO427192  30.262  27.866   9.374
 1856POPC   GL127193  30.659  27.648   9.188
 1856POPC   GL227194  30.931  27.884   9.130
 1856POPC   C1A27195  30.839  27.371   8.825
 1856POPC   D2A27196  30.629  27.257   8.420
 1856POPC   C3A27197  30.557  27.578   8.141
 1856POPC   C4A27198  30.628  27.519   7.724
 1856POPC   C1B27199  30.990  28.169   8.762
 1856POPC   C2B27200  30.907  27.986   8.359
 1856POPC   C3B27201  30.969  27.819   7.950
 1856POPC   C4B27202  30.843  27.948   7.554
 1857POPC   NC327203  17.812  33.837   9.467
 1857POPC   PO427204  17.253  33.431   9.517
 1857POPC   GL127205  17.190  33.677   9.106
 1857POPC   GL227206  17.391  33.990   9.176
 1857POPC   C1A27207  17.217  33.679   8.606
 1857POPC   D2A27208  17.662  33.572   8.374
 1857POPC   C3A27209  17.612  33.571   7.926
 1857POPC   C4A27210  17.422  33.602   7.505
 1857POPC   C1B27211  17.623  33.919   8.766
 1857POPC   C2B27212  17.478  34.029   8.299
 1857POPC   C3B27213  17.503  34.069   7.828
 1857POPC   C4B27214  17.794  34.304   7.559
 1858POPC   NC327215   8.994  40.639   9.541
 1858POPC   PO427216   8.832  39.935   9.498
 1858POPC   GL127217   8.822  40.073   9.080
 1858POPC   GL227218   8.654  40.385   9.105
 1858POPC   C1A27219   8.789  39.864   8.668
 1858POPC   D2A27220   8.763  39.562   8.316
 1858POPC   C3A27221   9.102  39.595   8.018
 1858POPC   C4A27222   9.095  39.625   7.589
 1858POPC   C1B27223   8.770  40.389   8.639
 1858POPC   C2B27224   9.014  40.172   8.302
 1858POPC   C3B27225   8.965  40.064   7.852
 1858POPC   C4B27226   8.630  39.829   7.717
 1859POPC   NC327227  40.203  22.929   9.495
 1859POPC   PO427228  39.698  23.206   9.193
 1859POPC   GL127229  39.956  22.880   9.042
 1859POPC   GL227230  39.689  22.744   8.844
 1859POPC   C1A27231  40.236  22.848   8.703
 1859POPC   D2A27232  40.099  22.776   8.298
 1859POPC   C3A27233  40.230  23.086   8.058
 1859POPC   C4A27234  40.331  22.804   7.749
 1859POPC   C1B27235  39.832  23.121   8.569
 1859POPC   C2B27236  39.669  23.247   8.170
 1859POPC   C3B27237  39.808  23.027   7.792
 1859POPC   C4B27238  39.794  23.157   7.372
 1860POPC   NC327239   2.207  28.583   9.582
 1860POPC   PO427240   1.993  27.994   9.403
 1860POPC   GL127241   2.027  28.421   9.137
 1860POPC   GL227242   2.366  28.626   9.103
 1860POPC   C1A27243   1.899  28.519   8.711
 1860POPC   D2A27244   1.753  28.132   8.433
 1860POPC   C3A27245   1.830  28.246   8.041
 1860POPC   C4A27246   1.878  28.696   7.989
 1860POPC   C1B27247   2.401  28.418   8.738
 1860POPC   C2B27248   2.214  28.319   8.356
 1860POPC   C3B27249   2.303  28.406   7.925
 1860POPC   C4B27250   2.447  28.527   7.520
 1861POPC   NC327251  40.400  33.319   9.508
 1861POPC   PO427252  40.734  32.723   9.527
 1861POPC   GL127253  40.813  32.879   9.136
 1861POPC   GL227254  40.488  33.017   9.090
 1861POPC   C1A27255  40.859  32.799   8.716
 1861POPC   D2A27256  40.634  32.916   8.354
 1861POPC   C3A27257  40.929  32.947   8.030
 1861POPC   C4A27258  41.106  33.333   7.873
 1861POPC   C1B27259  40.599  33.297   8.752
 1861POPC   C2B27260  40.375  33.381   8.364
 1861POPC   C3B27261  40.480  33.231   7.956
 1861POPC   C4B27262  40.346  33.328   7.540
 1862POPC   NC327263  30.431  31.772   9.428
 1862POPC   PO427264  30.901  31.416   9.624
 1862POPC   GL127265  30.819  31.377   9.197
 1862POPC   GL227266  30.640  31.061   9.232
 1862POPC   C1A27267  30.665  31.591   8.821
 1862POPC   D2A27268  30.536  31.784   8.416
 1862POPC   C3A27269  30.717  31.665   8.040
 1862POPC   C4A27270  30.625  31.696   7.588
 1862POPC   C1B27271  30.610  31.046   8.801
 1862POPC   C2B27272  30.466  31.283   8.460
 1862POPC   C3B27273  30.379  31.283   8.061
 1862POPC   C4B27274  30.625  31.203   7.660
 1863POPC   NC327275  34.702  16.510   9.276
 1863POPC   PO427276  34.245  16.929   9.519
 1863POPC   GL127277  34.344  16.841   9.081
 1863POPC   GL227278  34.324  16.494   8.932
 1863POPC   C1A27279  34.377  16.936   8.639
 1863POPC   D2A27280  34.660  16.907   8.278
 1863POPC   C3A27281  34.477  16.957   7.864
 1863POPC   C4A27282  34.247  17.083   7.470
 1863POPC   C1B27283  34.678  16.507   8.621
 1863POPC   C2B27284  34.652  16.400   8.192
 1863POPC   C3B27285  34.748  16.513   7.811
 1863POPC   C4B27286  34.716  16.407   7.422
 1864POPC   NC327287  10.671  36.845   9.664
 1864POPC   PO427288  10.089  36.844   9.722
 1864POPC   GL127289  10.354  36.907   9.268
 1864POPC   GL227290  10.306  36.606   9.143
 1864POPC   C1A27291  10.569  36.778   8.771
 1864POPC   D2A27292  10.516  36.630   8.305
 1864POPC   C3A27293  10.713  36.841   7.886
 1864POPC   C4A27294  10.874  36.885   7.396
 1864POPC   C1B27295  10.108  36.973   8.827
 1864POPC   C2B27296  10.115  36.945   8.373
 1864POPC   C3B27297  10.190  36.871   7.960
 1864POPC   C4B27298  10.135  37.119   7.631
 1865POPC   NC327299  33.555  31.903   9.552
 1865POPC   PO427300  33.741  32.490   9.699
 1865POPC   GL127301  33.797  32.418   9.229
 1865POPC   GL227302  33.721  32.127   9.134
 1865POPC   C1A27303  33.799  32.475   8.753
 1865POPC   D2A27304  34.010  32.376   8.330
 1865POPC   C3A27305  34.021  32.053   7.979
 1865POPC   C4A27306  33.965  32.349   7.689
 1865POPC   C1B27307  33.837  31.935   8.763
 1865POPC   C2B27308  33.690  31.961   8.349
 1865POPC   C3B27309  33.535  32.200   7.977
 1865POPC   C4B27310  33.579  32.065   7.536
 1866POPC   NC327311  10.866   2.076   9.829
 1866POPC   PO427312  10.273   1.968   9.550
 1866POPC   GL127313  10.370   2.075   9.149
 1866POPC   GL227314  10.481   1.710   9.021
 1866POPC   C1A27315  10.532   2.177   8.763
 1866POPC   D2A27316  10.472   1.923   8.405
 1866POPC   C3A27317  10.278   2.100   8.048
 1866POPC   C4A27318  10.580   2.293   7.760
 1866POPC   C1B27319  10.307   1.437   8.719
 1866POPC   C2B27320  10.463   1.413   8.322
 1866POPC   C3B27321  10.276   1.553   7.930
 1866POPC   C4B27322  10.430   1.813   7.627
 1867POPC   NC327323  16.221  34.155   9.476
 1867POPC   PO427324  15.649  34.389   9.485
 1867POPC   GL127325  15.845  34.261   9.133
 1867POPC   GL227326  15.597  34.110   8.982
 1867POPC   C1A27327  15.944  34.303   8.677
 1867POPC   D2A27328  15.694  34.215   8.294
 1867POPC   C3A27329  15.862  34.492   7.961
 1867POPC   C4A27330  16.085  34.712   7.602
 1867POPC   C1B27331  15.533  34.559   8.848
 1867POPC   C2B27332  15.531  34.700   8.422
 1867POPC   C3B27333  15.478  34.831   7.980
 1867POPC   C4B27334  15.579  34.724   7.548
 1868POPC   NC327335  36.466  16.478   9.458
 1868POPC   PO427336  35.818  16.790   9.484
 1868POPC   GL127337  35.998  16.618   9.160
 1868POPC   GL227338  36.314  16.792   9.071
 1868POPC   C1A27339  35.841  16.585   8.753
 1868POPC   D2A27340  36.009  16.723   8.355
 1868POPC   C3A27341  35.774  16.688   8.000
 1868POPC   C4A27342  36.011  16.760   7.690
 1868POPC   C1B27343  36.354  16.589   8.694
 1868POPC   C2B27344  36.461  16.435   8.273
 1868POPC   C3B27345  36.458  16.512   7.810
 1868POPC   C4B27346  36.212  16.441   7.376
 1869POPC   NC327347  20.295  18.611  10.021
 1869POPC   PO427348  20.660  18.502   9.451
 1869POPC   GL127349  20.500  18.232   9.161
 1869POPC   GL227350  20.706  17.966   9.066
 1869POPC   C1A27351  20.586  18.295   8.704
 1869POPC   D2A27352  20.746  18.209   8.300
 1869POPC   C3A27353  20.466  18.105   7.991
 1869POPC   C4A27354  20.302  17.979   7.621
 1869POPC   C1B27355  20.837  17.818   8.631
 1869POPC   C2B27356  20.746  17.710   8.166
 1869POPC   C3B27357  20.733  17.719   7.680
 1869POPC   C4B27358  20.560  17.854   7.211
 1870POPC   NC327359  21.322  17.397   9.527
 1870POPC   PO427360  20.801  17.737   9.523
 1870POPC   GL127361  21.169  17.772   9.175
 1870POPC   GL227362  21.474  18.004   9.174
 1870POPC   C1A27363  21.331  17.760   8.733
 1870POPC   D2A27364  21.424  17.509   8.348
 1870POPC   C3A27365  21.191  17.532   7.936
 1870POPC   C4A27366  21.279  17.342   7.495
 1870POPC   C1B27367  21.813  17.857   8.829
 1870POPC   C2B27368  21.885  17.744   8.383
 1870POPC   C3B27369  21.664  17.783   7.971
 1870POPC   C4B27370  21.423  17.813   7.587
 1871POPC   NC327371   0.203  31.820   9.763
 1871POPC   PO427372   0.536  31.240   9.525
 1871POPC   GL127373   0.644  31.383   9.144
 1871POPC   GL227374   0.281  31.323   9.058
 1871POPC   C1A27375   0.612  31.521   8.701
 1871POPC   D2A27376   0.431  31.251   8.374
 1871POPC   C3A27377   0.398  31.391   7.967
 1871POPC   C4A27378   0.431  31.120   7.646
 1871POPC   C1B27379   0.078  31.466   8.681
 1871POPC   C2B27380   0.231  31.737   8.345
 1871POPC   C3B27381   0.061  31.899   7.976
 1871POPC   C4B27382   0.105  31.746   7.569
 1872POPC   NC327383   7.734  29.949   9.433
 1872POPC   PO427384   7.071  29.663   9.475
 1872POPC   GL127385   7.114  30.022   9.147
 1872POPC   GL227386   7.471  30.230   9.093
 1872POPC   C1A27387   7.136  30.169   8.715
 1872POPC   D2A27388   7.447  30.126   8.420
 1872POPC   C3A27389   7.326  29.914   8.053
 1872POPC   C4A27390   7.175  30.073   7.689
 1872POPC   C1B27391   7.882  30.288   8.830
 1872POPC   C2B27392   7.877  30.398   8.383
 1872POPC   C3B27393   7.760  30.184   7.999
 1872POPC   C4B27394   7.665  29.953   7.639
 1873POPC   NC327395   3.815  14.888   9.446
 1873POPC   PO427396   3.282  14.465   9.505
 1873POPC   GL127397   3.456  14.519   9.121
 1873POPC   GL227398   3.806  14.448   9.136
 1873POPC   C1A27399   3.535  14.463   8.691
 1873POPC   D2A27400   3.778  14.366   8.333
 1873POPC   C3A27401   3.636  14.582   7.985
 1873POPC   C4A27402   3.264  14.467   7.809
 1873POPC   C1B27403   3.894  14.090   8.841
 1873POPC   C2B27404   4.026  13.920   8.431
 1873POPC   C3B27405   3.844  13.947   8.031
 1873POPC   C4B27406   3.755  14.214   7.679
 1874POPC   NC327407   1.211   3.881   9.608
 1874POPC   PO427408   0.921   3.374   9.965
 1874POPC   GL127409   1.016   3.436   9.438
 1874POPC   GL227410   1.361   3.490   9.292
 1874POPC   C1A27411   1.004   3.656   8.968
 1874POPC   D2A27412   0.894   3.909   8.544
 1874POPC   C3A27413   0.863   3.727   8.086
 1874POPC   C4A27414   1.220   3.602   7.793
 1874POPC   C1B27415   1.614   3.434   8.905
 1874POPC   C2B27416   1.560   3.347   8.476
 1874POPC   C3B27417   1.638   3.457   8.050
 1874POPC   C4B27418   1.652   3.207   7.713
 1875POPC   NC327419   0.241   3.366   9.615
 1875POPC   PO427420   0.456   3.952   9.444
 1875POPC   GL127421   0.530   3.614   9.178
 1875POPC   GL227422   0.580   3.260   9.259
 1875POPC   C1A27423   0.561   3.557   8.740
 1875POPC   D2A27424   0.397   3.656   8.356
 1875POPC   C3A27425   0.501   3.345   8.073
 1875POPC   C4A27426   0.423   3.507   7.677
 1875POPC   C1B27427   0.236   3.242   8.957
 1875POPC   C2B27428   0.265   3.178   8.517
 1875POPC   C3B27429   0.020   3.162   8.173
 1875POPC   C4B27430   0.038   3.177   7.715
 1876POPC   NC327431  41.827  28.931   9.546
 1876POPC   PO427432  41.234  29.174   9.474
 1876POPC   GL127433  41.509  29.137   9.119
 1876POPC   GL227434  41.676  28.799   9.088
 1876POPC   C1A27435  41.442  29.378   8.713
 1876POPC   D2A27436  41.239  29.405   8.289
 1876POPC   C3A27437  41.517  29.458   7.950
 1876POPC   C4A27438  41.465  29.566   7.518
 1876POPC   C1B27439  41.821  28.957   8.748
 1876POPC   C2B27440  41.676  29.050   8.364
 1876POPC   C3B27441  41.426  28.945   8.047
 1876POPC   C4B27442  41.535  29.038   7.654
 1877POPC   NC327443  23.448  32.849   9.622
 1877POPC   PO427444  23.949  33.358   9.572
 1877POPC   GL127445  23.779  33.115   9.199
 1877POPC   GL227446  23.420  33.041   9.159
 1877POPC   C1A27447  23.807  32.882   8.816
 1877POPC   D2A27448  24.026  32.825   8.444
 1877POPC   C3A27449  23.874  33.113   8.137
 1877POPC   C4A27450  23.754  32.994   7.742
 1877POPC   C1B27451  23.384  32.644   8.957
 1877POPC   C2B27452  23.378  32.623   8.521
 1877POPC   C3B27453  23.535  32.692   8.088
 1877POPC   C4B27454  23.439  32.623   7.615
 1878POPC   NC327455  19.968  42.229   9.807
 1878POPC   PO427456  19.493  42.510   9.519
 1878POPC   GL127457  19.692  42.242   9.143
 1878POPC   GL227458  20.046  42.121   9.155
 1878POPC   C1A27459  19.718  42.256   8.686
 1878POPC   D2A27460  19.677  42.048   8.260
 1878POPC   C3A27461  19.664  42.345   7.855
 1878POPC   C4A27462  19.548  42.806   7.708
 1878POPC   C1B27463  20.038  41.875   8.771
 1878POPC   C2B27464  20.187  41.807   8.357
 1878POPC   C3B27465  20.099  42.039   7.969
 1878POPC   C4B27466  20.049  42.157   7.531
 1879POPC   NC327467  31.942  31.191   9.432
 1879POPC   PO427468  32.532  31.635   9.423
 1879POPC   GL127469  32.225  31.466   9.062
 1879POPC   GL227470  31.858  31.358   8.971
 1879POPC   C1A27471  32.179  31.382   8.593
 1879POPC   D2A27472  32.250  31.625   8.210
 1879POPC   C3A27473  32.348  31.452   7.788
 1879POPC   C4A27474  32.160  31.563   7.402
 1879POPC   C1B27475  31.616  31.565   8.655
 1879POPC   C2B27476  31.733  31.515   8.236
 1879POPC   C3B27477  31.853  31.503   7.833
 1879POPC   C4B27478  31.989  31.087   7.803
 1880POPC   NC327479   9.988   4.145   9.508
 1880POPC   PO427480  10.638   4.016   9.428
 1880POPC   GL127481  10.566   3.939   9.029
 1880POPC   GL227482  10.831   3.730   9.006
 1880POPC   C1A27483  10.457   4.231   8.692
 1880POPC   D2A27484  10.160   4.485   8.455
 1880POPC   C3A27485  10.268   4.569   8.028
 1880POPC   C4A27486  10.488   4.382   7.670
 1880POPC   C1B27487  10.887   3.966   8.633
 1880POPC   C2B27488  10.688   4.046   8.223
 1880POPC   C3B27489  10.890   4.138   7.837
 1880POPC   C4B27490  10.948   4.051   7.391
 1881POPC   NC327491  28.568  24.985   9.376
 1881POPC   PO427492  28.096  25.409   9.554
 1881POPC   GL127493  28.296  25.334   9.119
 1881POPC   GL227494  28.692  25.337   9.037
 1881POPC   C1A27495  28.219  25.080   8.737
 1881POPC   D2A27496  28.514  25.004   8.390
 1881POPC   C3A27497  28.446  25.053   7.959
 1881POPC   C4A27498  28.683  25.172   7.621
 1881POPC   C1B27499  28.514  25.474   8.655
 1881POPC   C2B27500  28.317  25.460   8.268
 1881POPC   C3B27501  28.438  25.555   7.854
 1881POPC   C4B27502  28.198  25.673   7.531
 1882POPC   NC327503   0.329   5.568  10.058
 1882POPC   PO427504   0.826   5.624   9.593
 1882POPC   GL127505   0.691   5.615   9.145
 1882POPC   GL227506   0.583   5.943   9.007
 1882POPC   C1A27507   0.796   5.589   8.711
 1882POPC   D2A27508   0.879   5.814   8.317
 1882POPC   C3A27509   0.510   6.003   8.100
 1882POPC   C4A27510   0.381   6.066   7.670
 1882POPC   C1B27511   0.392   5.883   8.589
 1882POPC   C2B27512   0.099   5.752   8.262
 1882POPC   C3B27513  44.947   5.875   7.854
 1882POPC   C4B27514  44.919   6.107   7.437
 1883POPC   NC327515  41.647  40.453   9.437
 1883POPC   PO427516  41.237  40.963   9.267
 1883POPC   GL127517  41.517  40.900   9.006
 1883POPC   GL227518  41.831  40.844   9.041
 1883POPC   C1A27519  41.543  40.697   8.629
 1883POPC   D2A27520  41.322  40.527   8.286
 1883POPC   C3A27521  41.434  40.713   7.883
 1883POPC   C4A27522  41.824  40.952   7.791
 1883POPC   C1B27523  41.924  40.426   8.876
 1883POPC   C2B27524  41.893  40.345   8.490
 1883POPC   C3B27525  41.842  40.523   8.116
 1883POPC   C4B27526  41.723  40.324   7.734
 1884POPC   NC327527  12.561  41.979   9.592
 1884POPC   PO427528  12.994  42.491   9.469
 1884POPC   GL127529  12.827  42.234   9.183
 1884POPC   GL227530  12.537  42.384   9.260
 1884POPC   C1A27531  12.830  42.090   8.761
 1884POPC   D2A27532  13.073  42.274   8.460
 1884POPC   C3A27533  12.963  42.597   8.138
 1884POPC   C4A27534  12.999  42.414   7.727
 1884POPC   C1B27535  12.528  42.525   8.845
 1884POPC   C2B27536  12.562  42.394   8.423
 1884POPC   C3B27537  12.724  42.153   8.085
 1884POPC   C4B27538  12.503  42.376   7.742
 1885POPC   NC327539   7.282   1.698   9.463
 1885POPC   PO427540   7.765   2.227   9.489
 1885POPC   GL127541   7.376   2.241   9.223
 1885POPC   GL227542   7.390   1.917   9.027
 1885POPC   C1A27543   7.160   2.307   8.823
 1885POPC   D2A27544   7.325   2.022   8.517
 1885POPC   C3A27545   7.254   2.001   8.093
 1885POPC   C4A27546   7.310   2.151   7.695
 1885POPC   C1B27547   7.707   1.772   8.716
 1885POPC   C2B27548   7.646   1.698   8.255
 1885POPC   C3B27549   7.631   1.764   7.780
 1885POPC   C4B27550   7.506   1.712   7.318
 1886POPC   NC327551  27.471  17.024   9.742
 1886POPC   PO427552  27.896  16.497   9.589
 1886POPC   GL127553  27.792  16.717   9.184
 1886POPC   GL227554  27.724  17.081   9.115
 1886POPC   C1A27555  27.576  16.710   8.768
 1886POPC   D2A27556  27.274  16.572   8.451
 1886POPC   C3A27557  27.463  16.463   8.057
 1886POPC   C4A27558  27.511  16.733   7.716
 1886POPC   C1B27559  27.999  17.082   8.790
 1886POPC   C2B27560  27.886  17.025   8.381
 1886POPC   C3B27561  27.851  17.130   7.958
 1886POPC   C4B27562  27.988  16.931   7.596
 1887POPC   NC327563  10.660  11.759   9.411
 1887POPC   PO427564  10.310  12.199   9.538
 1887POPC   GL127565  10.572  12.279   9.189
 1887POPC   GL227566  10.396  12.003   9.020
 1887POPC   C1A27567  10.532  12.430   8.764
 1887POPC   D2A27568  10.264  12.374   8.396
 1887POPC   C3A27569  10.462  12.361   7.988
 1887POPC   C4A27570  10.784  12.358   7.696
 1887POPC   C1B27571  10.667  11.954   8.637
 1887POPC   C2B27572  10.800  11.849   8.184
 1887POPC   C3B27573  10.636  11.595   7.825
 1887POPC   C4B27574  10.485  11.547   7.365
 1888POPC   NC327575   7.052  17.843   9.447
 1888POPC   PO427576   6.828  18.508   9.517
 1888POPC   GL127577   6.569  18.293   9.166
 1888POPC   GL227578   6.566  17.946   9.203
 1888POPC   C1A27579   6.551  18.447   8.724
 1888POPC   D2A27580   6.650  18.620   8.350
 1888POPC   C3A27581   6.628  18.350   8.037
 1888POPC   C4A27582   6.565  18.522   7.674
 1888POPC   C1B27583   6.835  18.029   8.831
 1888POPC   C2B27584   6.821  18.081   8.428
 1888POPC   C3B27585   6.978  17.975   8.047
 1888POPC   C4B27586   6.826  18.059   7.627
 1889POPC   NC327587   4.837   4.264   9.708
 1889POPC   PO427588   5.472   4.545   9.540
 1889POPC   GL127589   5.146   4.315   9.235
 1889POPC   GL227590   4.770   4.373   9.212
 1889POPC   C1A27591   5.175   4.275   8.779
 1889POPC   D2A27592   5.282   3.980   8.423
 1889POPC   C3A27593   5.178   4.142   8.032
 1889POPC   C4A27594   4.938   3.930   7.745
 1889POPC   C1B27595   4.789   4.610   8.815
 1889POPC   C2B27596   4.978   4.557   8.386
 1889POPC   C3B27597   4.954   4.695   7.957
 1889POPC   C4B27598   5.009   4.436   7.614
 1890POPC   NC327599  31.359  41.845   9.484
 1890POPC   PO427600  31.948  41.533   9.372
 1890POPC   GL127601  31.535  41.517   9.095
 1890POPC   GL227602  31.132  41.634   9.078
 1890POPC   C1A27603  31.651  41.284   8.729
 1890POPC   D2A27604  31.827  41.210   8.297
 1890POPC   C3A27605  31.688  41.466   7.946
 1890POPC   C4A27606  31.801  41.868   7.733
 1890POPC   C1B27607  31.131  41.410   8.714
 1890POPC   C2B27608  31.388  41.528   8.377
 1890POPC   C3B27609  31.407  41.863   8.122
 1890POPC   C4B27610  31.302  41.747   7.756
 1891POPC   NC327611  16.691  18.892   9.559
 1891POPC   PO427612  16.610  18.267   9.567
 1891POPC   GL127613  16.599  18.497   9.214
 1891POPC   GL227614  16.959  18.564   9.272
 1891POPC   C1A27615  16.535  18.285   8.818
 1891POPC   D2A27616  16.738  18.161   8.432
 1891POPC   C3A27617  16.538  18.235   8.031
 1891POPC   C4A27618  16.464  17.939   7.706
 1891POPC   C1B27619  16.943  18.564   8.817
 1891POPC   C2B27620  17.049  18.565   8.383
 1891POPC   C3B27621  17.043  18.371   7.989
 1891POPC   C4B27622  16.791  18.414   7.594
 1892POPC   NC327623  19.114  20.402   9.351
 1892POPC   PO427624  18.596  20.897   9.425
 1892POPC   GL127625  18.823  20.761   9.056
 1892POPC   GL227626  18.893  20.437   8.908
 1892POPC   C1A27627  19.018  20.834   8.640
 1892POPC   D2A27628  19.052  20.606   8.272
 1892POPC   C3A27629  19.012  20.831   7.909
 1892POPC   C4A27630  19.309  20.718   7.641
 1892POPC   C1B27631  18.719  20.298   8.524
 1892POPC   C2B27632  18.900  20.119   8.174
 1892POPC   C3B27633  19.117  20.276   7.863
 1892POPC   C4B27634  18.885  20.438   7.553
 1893POPC   NC327635  42.363  29.605   9.543
 1893POPC   PO427636  42.390  30.296   9.643
 1893POPC   GL127637  42.347  30.055   9.204
 1893POPC   GL227638  42.133  29.757   9.111
 1893POPC   C1A27639  42.411  29.983   8.717
 1893POPC   D2A27640  42.180  30.110   8.331
 1893POPC   C3A27641  42.484  30.105   8.023
 1893POPC   C4A27642  42.424  29.808   7.745
 1893POPC   C1B27643  42.496  29.542   8.923
 1893POPC   C2B27644  42.635  29.403   8.546
 1893POPC   C3B27645  42.656  29.645   8.205
 1893POPC   C4B27646  42.781  29.479   7.840
 1894POPC   NC327647  31.028  11.986   9.473
 1894POPC   PO427648  30.387  12.244   9.606
 1894POPC   GL127649  30.602  12.117   9.226
 1894POPC   GL227650  30.604  11.735   9.207
 1894POPC   C1A27651  30.800  12.262   8.848
 1894POPC   D2A27652  30.659  12.570   8.551
 1894POPC   C3A27653  30.648  12.503   8.107
 1894POPC   C4A27654  30.706  12.346   7.701
 1894POPC   C1B27655  30.447  11.851   8.806
 1894POPC   C2B27656  30.543  12.052   8.414
 1894POPC   C3B27657  30.520  11.946   7.977
 1894POPC   C4B27658  30.850  11.855   7.694
 1895POPC   NC327659  16.425  26.712   9.640
 1895POPC   PO427660  15.813  26.468   9.579
 1895POPC   GL127661  15.824  26.643   9.185
 1895POPC   GL227662  16.171  26.758   9.162
 1895POPC   C1A27663  15.549  26.796   8.881
 1895POPC   D2A27664  15.613  27.070   8.567
 1895POPC   C3A27665  15.533  27.006   8.114
 1895POPC   C4A27666  15.691  26.914   7.698
 1895POPC   C1B27667  16.063  26.919   8.758
 1895POPC   C2B27668  16.008  26.831   8.317
 1895POPC   C3B27669  16.144  26.827   7.889
 1895POPC   C4B27670  16.110  26.636   7.462
 1896POPC   NC327671  18.589  21.822   9.883
 1896POPC   PO427672  18.292  22.333   9.602
 1896POPC   GL127673  18.419  22.220   9.200
 1896POPC   GL227674  18.490  22.583   9.118
 1896POPC   C1A27675  18.381  22.172   8.734
 1896POPC   D2A27676  18.214  21.934   8.406
 1896POPC   C3A27677  18.446  22.091   8.076
 1896POPC   C4A27678  18.664  22.416   7.850
 1896POPC   C1B27679  18.091  22.548   8.897
 1896POPC   C2B27680  18.044  22.487   8.431
 1896POPC   C3B27681  18.176  22.542   8.000
 1896POPC   C4B27682  18.213  22.255   7.645
 1897POPC   NC327683   2.325  43.522   9.461
 1897POPC   PO427684   1.850  43.973   9.445
 1897POPC   GL127685   2.120  43.905   9.135
 1897POPC   GL227686   2.484  44.005   9.223
 1897POPC   C1A27687   2.017  43.712   8.736
 1897POPC   D2A27688   2.169  43.472   8.369
 1897POPC   C3A27689   2.227  43.670   8.005
 1897POPC   C4A27690   1.946  43.996   7.918
 1897POPC   C1B27691   2.464  43.992   8.775
 1897POPC   C2B27692   2.215  44.062   8.402
 1897POPC   C3B27693   2.406  44.183   8.030
 1897POPC   C4B27694   2.473  43.983   7.664
 1898POPC   NC327695  14.880  44.951   9.637
 1898POPC   PO427696  15.333  44.481   9.665
 1898POPC   GL127697  15.234  44.650   9.275
 1898POPC   GL227698  15.188  44.296   9.167
 1898POPC   C1A27699  15.123  44.813   8.861
 1898POPC   D2A27700  15.269  44.834   8.411
 1898POPC   C3A27701  15.002  44.854   8.040
 1898POPC   C4A27702  15.074  44.719   7.614
 1898POPC   C1B27703  15.369  44.206   8.766
 1898POPC   C2B27704  15.276  44.319   8.340
 1898POPC   C3B27705  15.004  44.333   7.989
 1898POPC   C4B27706  15.297  44.276   7.745
 1899POPC   NC327707  27.457   6.014   9.431
 1899POPC   PO427708  27.818   5.433   9.529
 1899POPC   GL127709  27.778   5.694   9.145
 1899POPC   GL227710  27.880   6.056   9.104
 1899POPC   C1A27711  27.566   5.747   8.758
 1899POPC   D2A27712  27.745   5.680   8.366
 1899POPC   C3A27713  27.559   5.555   7.992
 1899POPC   C4A27714  27.692   5.714   7.593
 1899POPC   C1B27715  27.598   6.259   8.790
 1899POPC   C2B27716  27.492   6.141   8.387
 1899POPC   C3B27717  27.685   6.046   7.998
 1899POPC   C4B27718  27.392   6.105   7.704
 1900POPC   NC327719  38.583  26.568   9.547
 1900POPC   PO427720  38.079  26.952   9.419
 1900POPC   GL127721  38.252  26.678   9.162
 1900POPC   GL227722  38.591  26.884   9.138
 1900POPC   C1A27723  38.377  26.621   8.750
 1900POPC   D2A27724  38.423  26.875   8.387
 1900POPC   C3A27725  38.213  26.721   8.035
 1900POPC   C4A27726  38.325  26.622   7.618
 1900POPC   C1B27727  38.796  26.987   8.730
 1900POPC   C2B27728  38.869  27.120   8.276
 1900POPC   C3B27729  38.675  26.912   7.881
 1900POPC   C4B27730  38.552  27.035   7.416
 1901POPC   NC327731  26.773   8.850   9.637
 1901POPC   PO427732  27.221   9.219   9.367
 1901POPC   GL127733  26.865   9.279   9.153
 1901POPC   GL227734  26.749   9.005   9.165
 1901POPC   C1A27735  26.919   9.197   8.718
 1901POPC   D2A27736  27.140   9.008   8.392
 1901POPC   C3A27737  27.001   9.201   8.013
 1901POPC   C4A27738  26.873   9.084   7.590
 1901POPC   C1B27739  26.497   8.819   8.898
 1901POPC   C2B27740  26.552   8.719   8.510
 1901POPC   C3B27741  26.759   8.760   8.146
 1901POPC   C4B27742  26.557   8.657   7.785
 1902POPC   NC327743  44.284  37.481   9.635
 1902POPC   PO427744  44.876  37.830   9.477
 1902POPC   GL127745  44.613  37.705   9.163
 1902POPC   GL227746  44.400  37.991   9.066
 1902POPC   C1A27747  44.736  37.526   8.764
 1902POPC   D2A27748  44.511  37.641   8.390
 1902POPC   C3A27749  44.709  37.593   8.014
 1902POPC   C4A27750  44.918  37.238   7.836
 1902POPC   C1B27751  44.656  38.020   8.689
 1902POPC   C2B27752  44.957  37.917   8.357
 1902POPC   C3B27753  44.856  38.074   7.926
 1902POPC   C4B27754  44.458  37.953   7.761
 1903POPC   NC327755  31.253   3.264   9.697
 1903POPC   PO427756  31.226   2.593   9.648
 1903POPC   GL127757  31.288   2.664   9.144
 1903POPC   GL227758  31.506   2.933   8.989
 1903POPC   C1A27759  31.264   2.636   8.687
 1903POPC   D2A27760  31.512   2.468   8.347
 1903POPC   C3A27761  31.412   2.563   7.926
 1903POPC   C4A27762  31.500   2.316   7.581
 1903POPC   C1B27763  31.579   3.050   8.610
 1903POPC   C2B27764  31.440   2.987   8.207
 1903POPC   C3B27765  31.455   3.090   7.775
 1903POPC   C4B27766  31.571   3.170   7.336
 1904POPC   NC327767   4.552  31.545   9.550
 1904POPC   PO427768   5.122  31.263   9.303
 1904POPC   GL127769   5.036  31.603   9.043
 1904POPC   GL227770   4.798  31.837   9.171
 1904POPC   C1A27771   5.069  31.687   8.623
 1904POPC   D2A27772   4.953  31.428   8.294
 1904POPC   C3A27773   5.188  31.269   8.002
 1904POPC   C4A27774   5.062  31.503   7.704
 1904POPC   C1B27775   4.585  31.858   8.769
 1904POPC   C2B27776   4.538  31.702   8.342
 1904POPC   C3B27777   4.638  31.711   7.914
 1904POPC   C4B27778   4.674  31.728   7.467
 1905POPC   NC327779  19.215   7.260   9.231
 1905POPC   PO427780  19.053   7.804   9.576
 1905POPC   GL127781  18.914   7.665   9.105
 1905POPC   GL227782  19.210   7.588   8.829
 1905POPC   C1A27783  18.736   7.444   8.742
 1905POPC   D2A27784  18.959   7.275   8.380
 1905POPC   C3A27785  18.793   7.372   7.991
 1905POPC   C4A27786  18.799   7.093   7.647
 1905POPC   C1B27787  19.434   7.206   8.611
 1905POPC   C2B27788  19.457   7.198   8.155
 1905POPC   C3B27789  19.292   7.525   7.927
 1905POPC   C4B27790  19.044   7.539   7.580
 1906POPC   NC327791   8.211  19.099   9.659
 1906POPC   PO427792   8.752  18.749   9.366
 1906POPC   GL127793   8.389  18.946   9.158
 1906POPC   GL227794   8.335  19.261   8.997
 1906POPC   C1A27795   8.227  18.853   8.725
 1906POPC   D2A27796   8.405  19.024   8.372
 1906POPC   C3A27797   8.248  18.882   8.014
 1906POPC   C4A27798   7.882  18.852   7.851
 1906POPC   C1B27799   7.999  19.332   8.691
 1906POPC   C2B27800   7.874  19.231   8.268
 1906POPC   C3B27801   8.091  19.364   7.920
 1906POPC   C4B27802   8.453  19.217   7.687
 1907POPC   NC327803  39.877  41.340   9.438
 1907POPC   PO427804  40.195  41.950   9.490
 1907POPC   GL127805  39.826  41.793   9.216
 1907POPC   GL227806  40.084  41.623   9.023
 1907POPC   C1A27807  39.624  41.481   8.870
 1907POPC   D2A27808  39.902  41.434   8.529
 1907POPC   C3A27809  39.742  41.601   8.148
 1907POPC   C4A27810  39.930  41.718   7.782
 1907POPC   C1B27811  40.382  41.590   8.645
 1907POPC   C2B27812  40.313  41.581   8.166
 1907POPC   C3B27813  40.416  41.583   7.713
 1907POPC   C4B27814  40.431  41.791   7.284
 1908POPC   NC327815   4.508  37.116   9.474
 1908POPC   PO427816   3.918  36.705   9.427
 1908POPC   GL127817   4.287  36.705   9.277
 1908POPC   GL227818   4.151  37.014   9.109
 1908POPC   C1A27819   4.496  36.701   8.895
 1908POPC   D2A27820   4.239  36.784   8.540
 1908POPC   C3A27821   4.505  36.837   8.233
 1908POPC   C4A27822   4.495  36.723   7.847
 1908POPC   C1B27823   4.344  37.227   8.801
 1908POPC   C2B27824   4.468  37.361   8.410
 1908POPC   C3B27825   4.381  37.271   8.003
 1908POPC   C4B27826   4.730  37.182   7.794
 1909POPC   NC327827   6.813  36.605   9.514
 1909POPC   PO427828   6.827  35.966   9.485
 1909POPC   GL127829   6.720  36.224   9.141
 1909POPC   GL227830   6.394  36.266   9.012
 1909POPC   C1A27831   6.778  35.992   8.754
 1909POPC   D2A27832   7.067  35.993   8.420
 1909POPC   C3A27833   6.898  35.864   8.033
 1909POPC   C4A27834   6.869  36.094   7.649
 1909POPC   C1B27835   6.593  36.454   8.680
 1909POPC   C2B27836   6.612  36.256   8.299
 1909POPC   C3B27837   6.704  36.432   7.955
 1909POPC   C4B27838   6.564  36.712   7.688
 1910POPC   NC327839  31.111  33.176  10.037
 1910POPC   PO427840  31.536  33.194   9.507
 1910POPC   GL127841  31.377  33.073   9.076
 1910POPC   GL227842  31.556  32.765   8.997
 1910POPC   C1A27843  31.282  32.943   8.633
 1910POPC   D2A27844  31.552  32.964   8.281
 1910POPC   C3A27845  31.308  33.059   7.920
 1910POPC   C4A27846  31.238  32.725   7.625
 1910POPC   C1B27847  31.780  33.104   8.766
 1910POPC   C2B27848  31.919  33.319   8.402
 1910POPC   C3B27849  31.788  33.326   8.004
 1910POPC   C4B27850  31.698  33.170   7.614
 1911POPC   NC327851  28.889  26.209   9.377
 1911POPC   PO427852  28.885  26.811   9.572
 1911POPC   GL127853  29.143  26.868   9.214
 1911POPC   GL227854  29.186  26.526   9.065
 1911POPC   C1A27855  29.461  26.902   8.869
 1911POPC   D2A27856  29.489  26.691   8.461
 1911POPC   C3A27857  29.341  26.875   8.087
 1911POPC   C4A27858  29.474  26.735   7.691
 1911POPC   C1B27859  28.970  26.846   8.741
 1911POPC   C2B27860  28.787  26.747   8.320
 1911POPC   C3B27861  28.930  26.619   7.898
 1911POPC   C4B27862  29.019  26.894   7.543
 1912POPC   NC327863  11.705  17.783   9.484
 1912POPC   PO427864  12.182  17.297   9.527
 1912POPC   GL127865  12.066  17.295   9.126
 1912POPC   GL227866  11.699  17.358   9.169
 1912POPC   C1A27867  12.222  17.318   8.692
 1912POPC   D2A27868  12.084  17.669   8.402
 1912POPC   C3A27869  12.072  17.521   7.984
 1912POPC   C4A27870  12.143  17.703   7.572
 1912POPC   C1B27871  11.754  17.513   8.781
 1912POPC   C2B27872  11.786  17.257   8.402
 1912POPC   C3B27873  11.631  17.207   7.985
 1912POPC   C4B27874  11.752  17.348   7.564
 1913POPC   NC327875  26.405  13.272   9.772
 1913POPC   PO427876  26.038  13.771   9.491
 1913POPC   GL127877  26.283  13.648   9.157
 1913POPC   GL227878  26.047  13.356   9.095
 1913POPC   C1A27879  26.351  13.465   8.708
 1913POPC   D2A27880  26.040  13.409   8.426
 1913POPC   C3A27881  26.268  13.510   8.076
 1913POPC   C4A27882  26.260  13.364   7.670
 1913POPC   C1B27883  25.932  13.723   8.828
 1913POPC   C2B27884  25.749  13.841   8.491
 1913POPC   C3B27885  25.793  13.712   8.072
 1913POPC   C4B27886  26.061  13.841   7.731
 1914POPC   NC327887  24.727  13.226   9.659
 1914POPC   PO427888  24.320  12.676   9.512
 1914POPC   GL127889  24.436  12.854   9.193
 1914POPC   GL227890  24.344  13.175   9.306
 1914POPC   C1A27891  24.545  12.721   8.807
 1914POPC   D2A27892  24.319  12.695   8.452
 1914POPC   C3A27893  24.468  12.901   8.125
 1914POPC   C4A27894  24.748  12.871   7.806
 1914POPC   C1B27895  24.204  13.162   8.862
 1914POPC   C2B27896  24.092  13.161   8.432
 1914POPC   C3B27897  24.286  13.385   8.124
 1914POPC   C4B27898  24.479  13.285   7.726
 1915POPC   NC327899  43.453  43.176   9.539
 1915POPC   PO427900  43.073  42.706   9.420
 1915POPC   GL127901  43.303  42.841   9.146
 1915POPC   GL227902  43.138  43.161   9.134
 1915POPC   C1A27903  43.425  42.836   8.744
 1915POPC   D2A27904  43.144  42.910   8.427
 1915POPC   C3A27905  43.311  42.951   8.043
 1915POPC   C4A27906  43.050  43.093   7.754
 1915POPC   C1B27907  43.221  43.340   8.688
 1915POPC   C2B27908  43.220  43.420   8.229
 1915POPC   C3B27909  43.206  43.568   7.810
 1915POPC   C4B27910  42.777  43.552   7.712
 1916POPC   NC327911  26.074   8.085   9.397
 1916POPC   PO427912  26.461   8.529   9.495
 1916POPC   GL127913  26.126   8.515   9.115
 1916POPC   GL227914  25.806   8.272   9.000
 1916POPC   C1A27915  26.054   8.537   8.651
 1916POPC   D2A27916  25.915   8.272   8.274
 1916POPC   C3A27917  26.199   8.293   7.905
 1916POPC   C4A27918  26.167   8.528   7.504
 1916POPC   C1B27919  26.000   7.964   8.723
 1916POPC   C2B27920  25.857   7.707   8.377
 1916POPC   C3B27921  25.695   7.861   8.004
 1916POPC   C4B27922  25.787   8.112   7.659
 1917POPC   NC327923  43.397  34.034   9.495
 1917POPC   PO427924  42.755  34.111   9.560
 1917POPC   GL127925  42.982  33.848   9.250
 1917POPC   GL227926  42.949  34.111   9.025
 1917POPC   C1A27927  43.332  33.770   8.907
 1917POPC   D2A27928  43.298  33.968   8.510
 1917POPC   C3A27929  43.252  33.764   8.094
 1917POPC   C4A27930  43.103  33.797   7.658
 1917POPC   C1B27931  42.848  33.745   8.754
 1917POPC   C2B27932  42.795  33.632   8.321
 1917POPC   C3B27933  42.707  33.925   7.974
 1917POPC   C4B27934  42.620  33.909   7.501
 1918POPC   NC327935  16.260  43.477   9.438
 1918POPC   PO427936  15.904  44.052   9.566
 1918POPC   GL127937  16.076  43.880   9.193
 1918POPC   GL227938  16.339  44.048   9.041
 1918POPC   C1A27939  16.145  43.665   8.784
 1918POPC   D2A27940  16.251  43.919   8.439
 1918POPC   C3A27941  16.044  43.747   8.097
 1918POPC   C4A27942  16.049  43.818   7.667
 1918POPC   C1B27943  15.948  44.186   8.808
 1918POPC   C2B27944  15.767  44.118   8.421
 1918POPC   C3B27945  15.808  44.256   8.014
 1918POPC   C4B27946  15.776  44.245   7.602
 1919POPC   NC327947  28.929   0.165   9.501
 1919POPC   PO427948  29.373   0.706   9.380
 1919POPC   GL127949  29.267   0.380   9.139
 1919POPC   GL227950  28.935   0.486   9.107
 1919POPC   C1A27951  29.262   0.469   8.714
 1919POPC   D2A27952  29.341   0.318   8.326
 1919POPC   C3A27953  29.361   0.614   8.004
 1919POPC   C4A27954  29.245   0.459   7.656
 1919POPC   C1B27955  28.784   0.228   8.819
 1919POPC   C2B27956  28.826   0.436   8.411
 1919POPC   C3B27957  28.921   0.299   8.024
 1919POPC   C4B27958  28.731   0.105   7.711
 1920POPC   NC327959  15.046   5.267   9.495
 1920POPC   PO427960  14.997   4.673   9.373
 1920POPC   GL127961  15.260   4.848   9.044
 1920POPC   GL227962  15.280   5.215   9.008
 1920POPC   C1A27963  15.339   4.796   8.616
 1920POPC   D2A27964  15.505   5.132   8.379
 1920POPC   C3A27965  15.290   5.166   7.985
 1920POPC   C4A27966  15.273   4.992   7.600
 1920POPC   C1B27967  15.512   5.509   8.766
 1920POPC   C2B27968  15.656   5.673   8.416
 1920POPC   C3B27969  15.681   5.500   8.041
 1920POPC   C4B27970  15.672   5.289   7.626
 1921POPC   NC327971  44.253  41.934   9.416
 1921POPC   PO427972  43.775  42.476   9.535
 1921POPC   GL127973  43.705  42.493   9.119
 1921POPC   GL227974  43.963  42.239   9.101
 1921POPC   C1A27975  43.798  42.465   8.693
 1921POPC   D2A27976  44.056  42.587   8.372
 1921POPC   C3A27977  43.864  42.440   7.992
 1921POPC   C4A27978  43.704  42.777   7.789
 1921POPC   C1B27979  44.227  42.147   8.738
 1921POPC   C2B27980  44.072  42.089   8.338
 1921POPC   C3B27981  44.119  41.920   7.968
 1921POPC   C4B27982  44.019  42.073   7.600
 1922POPC   NC327983  15.025  25.406   9.445
 1922POPC   PO427984  15.513  24.948   9.312
 1922POPC   GL127985  15.216  25.119   9.052
 1922POPC   GL227986  15.326  25.474   9.043
 1922POPC   C1A27987  15.254  25.200   8.613
 1922POPC   D2A27988  15.255  25.532   8.299
 1922POPC   C3A27989  15.178  25.270   7.941
 1922POPC   C4A27990  15.476  25.112   7.674
 1922POPC   C1B27991  14.923  25.500   8.804
 1922POPC   C2B27992  14.807  25.404   8.430
 1922POPC   C3B27993  14.757  25.555   8.033
 1922POPC   C4B27994  14.817  25.539   7.623
 1923POPC   NC327995   3.871  43.012   9.844
 1923POPC   PO427996   3.508  43.368   9.383
 1923POPC   GL127997   3.393  43.107   9.040
 1923POPC   GL227998   3.675  43.053   8.843
 1923POPC   C1A27999   3.287  42.752   8.724
 1923POPC   D2A28000   3.575  42.778   8.391
 1923POPC   C3A28001   3.472  42.989   8.016
 1923POPC   C4A28002   3.638  43.089   7.641
 1923POPC   C1B28003   3.904  43.386   8.683
 1923POPC   C2B28004   4.088  43.467   8.255
 1923POPC   C3B28005   3.956  43.452   7.810
 1923POPC   C4B28006   4.013  43.305   7.370
 1924POPC   NC328007  19.572  33.430   9.367
 1924POPC   PO428008  19.764  32.770   9.589
 1924POPC   GL128009  19.986  32.822   9.193
 1924POPC   GL228010  19.961  33.178   9.137
 1924POPC   C1A28011  20.035  32.903   8.737
 1924POPC   D2A28012  20.062  33.074   8.374
 1924POPC   C3A28013  19.943  32.836   8.061
 1924POPC   C4A28014  19.916  33.026   7.706
 1924POPC   C1B28015  19.849  33.407   8.772
 1924POPC   C2B28016  19.633  33.402   8.391
 1924POPC   C3B28017  19.567  33.239   7.995
 1924POPC   C4B28018  19.655  33.446   7.585
 1925POPC   NC328019   6.968   7.426   9.503
 1925POPC   PO428020   6.268   7.481   9.685
 1925POPC   GL128021   6.485   7.388   9.218
 1925POPC   GL228022   6.296   7.636   9.008
 1925POPC   C1A28023   6.523   7.281   8.732
 1925POPC   D2A28024   6.522   7.443   8.261
 1925POPC   C3A28025   6.740   7.165   7.958
 1925POPC   C4A28026   7.035   7.083   7.623
 1925POPC   C1B28027   6.430   7.892   8.621
 1925POPC   C2B28028   6.629   7.964   8.202
 1925POPC   C3B28029   6.750   7.719   7.821
 1925POPC   C4B28030   6.617   7.690   7.336
 1926POPC   NC328031  29.547  14.815   9.522
 1926POPC   PO428032  29.997  14.240   9.509
 1926POPC   GL128033  29.998  14.400   9.116
 1926POPC   GL228034  29.674  14.534   9.125
 1926POPC   C1A28035  29.861  14.247   8.709
 1926POPC   D2A28036  29.992  14.141   8.288
 1926POPC   C3A28037  30.114  14.444   8.011
 1926POPC   C4A28038  29.936  14.320   7.621
 1926POPC   C1B28039  29.813  14.755   8.757
 1926POPC   C2B28040  29.776  14.649   8.356
 1926POPC   C3B28041  29.615  14.584   7.965
 1926POPC   C4B28042  29.858  14.805   7.673
 1927POPC   NC328043  15.301   3.681   9.603
 1927POPC   PO428044  15.079   3.109   9.547
 1927POPC   GL128045  15.246   3.328   9.163
 1927POPC   GL228046  14.981   3.557   9.071
 1927POPC   C1A28047  15.378   3.485   8.738
 1927POPC   D2A28048  15.432   3.676   8.339
 1927POPC   C3A28049  15.221   3.451   7.992
 1927POPC   C4A28050  15.192   3.368   7.536
 1927POPC   C1B28051  14.896   3.578   8.619
 1927POPC   C2B28052  14.966   3.829   8.234
 1927POPC   C3B28053  14.801   3.740   7.827
 1927POPC   C4B28054  14.890   3.768   7.362
 1928POPC   NC328055  17.690   3.908   9.533
 1928POPC   PO428056  17.436   3.342   9.638
 1928POPC   GL128057  17.587   3.432   9.225
 1928POPC   GL228058  17.349   3.346   8.963
 1928POPC   C1A28059  17.806   3.594   8.878
 1928POPC   D2A28060  17.641   3.794   8.549
 1928POPC   C3A28061  17.813   3.697   8.161
 1928POPC   C4A28062  17.681   3.516   7.775
 1928POPC   C1B28063  17.080   3.197   8.608
 1928POPC   C2B28064  17.012   3.303   8.195
 1928POPC   C3B28065  17.336   3.128   7.918
 1928POPC   C4B28066  17.392   3.190   7.491
 1929POPC   NC328067  10.638  21.797   9.368
 1929POPC   PO428068  10.841  21.247   9.776
 1929POPC   GL128069  10.637  21.307   9.289
 1929POPC   GL228070  10.344  21.116   9.208
 1929POPC   C1A28071  10.786  21.418   8.829
 1929POPC   D2A28072  10.593  21.478   8.408
 1929POPC   C3A28073  10.789  21.455   7.989
 1929POPC   C4A28074  10.836  21.088   7.708
 1929POPC   C1B28075  10.287  21.318   8.823
 1929POPC   C2B28076  10.178  21.167   8.407
 1929POPC   C3B28077  10.246  21.370   8.006
 1929POPC   C4B28078  10.035  21.656   7.755
 1930POPC   NC328079  43.788  21.469   9.433
 1930POPC   PO428080  44.214  21.011   9.537
 1930POPC   GL128081  44.106  21.185   9.147
 1930POPC   GL228082  43.848  20.948   9.155
 1930POPC   C1A28083  44.031  21.504   8.797
 1930POPC   D2A28084  44.276  21.766   8.477
 1930POPC   C3A28085  44.107  21.678   8.042
 1930POPC   C4A28086  43.845  21.449   7.777
 1930POPC   C1B28087  43.792  21.059   8.740
 1930POPC   C2B28088  43.627  21.066   8.335
 1930POPC   C3B28089  43.483  21.132   7.921
 1930POPC   C4B28090  43.683  21.083   7.487
 1931POPC   NC328091  43.040  40.502   9.357
 1931POPC   PO428092  42.874  41.177   9.444
 1931POPC   GL128093  43.062  41.131   9.040
 1931POPC   GL228094  43.242  40.787   9.002
 1931POPC   C1A28095  43.335  41.132   8.663
 1931POPC   D2A28096  43.327  40.796   8.369
 1931POPC   C3A28097  43.185  40.964   7.999
 1931POPC   C4A28098  42.907  40.778   7.740
 1931POPC   C1B28099  43.190  40.430   8.708
 1931POPC   C2B28100  43.175  40.293   8.291
 1931POPC   C3B28101  43.089  40.327   7.855
 1931POPC   C4B28102  42.789  40.205   7.528
 1932POPC   NC328103   3.856  33.601   9.664
 1932POPC   PO428104   4.352  34.063   9.414
 1932POPC   GL128105   4.438  33.950   9.009
 1932POPC   GL228106   4.165  34.192   8.869
 1932POPC   C1A28107   4.386  33.750   8.604
 1932POPC   D2A28108   4.508  33.948   8.221
 1932POPC   C3A28109   4.542  33.836   7.794
 1932POPC   C4A28110   4.444  33.960   7.387
 1932POPC   C1B28111   3.903  33.957   8.554
 1932POPC   C2B28112   4.033  33.718   8.184
 1932POPC   C3B28113   3.988  33.792   7.754
 1932POPC   C4B28114   4.169  33.491   7.519
 1933POPC   NC328115   6.012   7.319   9.334
 1933POPC   PO428116   5.455   7.696   9.324
 1933POPC   GL128117   5.692   7.467   8.965
 1933POPC   GL228118   6.016   7.219   8.853
 1933POPC   C1A28119   5.601   7.320   8.580
 1933POPC   D2A28120   5.861   7.108   8.323
 1933POPC   C3A28121   6.038   7.352   8.047
 1933POPC   C4A28122   5.907   7.266   7.664
 1933POPC   C1B28123   6.092   7.510   8.534
 1933POPC   C2B28124   6.126   7.836   8.213
 1933POPC   C3B28125   6.243   7.797   7.787
 1933POPC   C4B28126   6.400   7.383   7.676
 1934POPC   NC328127   4.860  17.956   9.384
 1934POPC   PO428128   4.700  18.557   9.617
 1934POPC   GL128129   4.961  18.643   9.209
 1934POPC   GL228130   5.066  18.316   9.089
 1934POPC   C1A28131   5.262  18.704   8.825
 1934POPC   D2A28132   5.410  18.560   8.404
 1934POPC   C3A28133   5.147  18.485   8.058
 1934POPC   C4A28134   5.252  18.293   7.672
 1934POPC   C1B28135   4.770  18.251   8.726
 1934POPC   C2B28136   4.761  18.205   8.261
 1934POPC   C3B28137   4.877  18.009   7.857
 1934POPC   C4B28138   4.939  17.989   7.364
 1935POPC   NC328139   3.547  35.509   9.403
 1935POPC   PO428140   3.991  34.960   9.498
 1935POPC   GL128141   3.783  35.118   9.124
 1935POPC   GL228142   3.778  35.484   8.967
 1935POPC   C1A28143   3.713  35.075   8.688
 1935POPC   D2A28144   3.871  35.434   8.460
 1935POPC   C3A28145   3.707  35.478   8.060
 1935POPC   C4A28146   3.481  35.210   7.799
 1935POPC   C1B28147   3.356  35.574   8.745
 1935POPC   C2B28148   3.104  35.568   8.334
 1935POPC   C3B28149   3.236  35.666   7.904
 1935POPC   C4B28150   3.574  35.671   7.608
 1936POPC   NC328151   4.834  29.922   9.437
 1936POPC   PO428152   5.390  30.300   9.312
 1936POPC   GL128153   5.211  29.909   9.071
 1936POPC   GL228154   4.824  29.946   8.943
 1936POPC   C1A28155   5.164  29.726   8.651
 1936POPC   D2A28156   4.981  29.910   8.285
 1936POPC   C3A28157   5.101  29.729   7.932
 1936POPC   C4A28158   5.278  30.050   7.741
 1936POPC   C1B28159   5.061  30.247   8.685
 1936POPC   C2B28160   4.928  30.427   8.297
 1936POPC   C3B28161   4.824  30.269   7.896
 1936POPC   C4B28162   4.718  29.910   7.642
 1937POPC   NC328163  17.167  22.649   9.410
 1937POPC   PO428164  16.768  23.192   9.631
 1937POPC   GL128165  16.765  22.940   9.283
 1937POPC   GL228166  16.775  23.198   9.100
 1937POPC   C1A28167  16.637  22.777   8.876
 1937POPC   D2A28168  16.341  22.878   8.550
 1937POPC   C3A28169  16.481  22.937   8.122
 1937POPC   C4A28170  16.408  22.772   7.723
 1937POPC   C1B28171  16.967  23.356   8.728
 1937POPC   C2B28172  16.926  23.057   8.411
 1937POPC   C3B28173  16.995  22.975   7.994
 1937POPC   C4B28174  16.778  23.167   7.657
 1938POPC   NC328175  27.679  36.373   9.366
 1938POPC   PO428176  27.341  35.730   9.440
 1938POPC   GL128177  27.405  36.011   9.109
 1938POPC   GL228178  27.717  35.889   8.961
 1938POPC   C1A28179  27.414  36.223   8.704
 1938POPC   D2A28180  27.536  35.992   8.349
 1938POPC   C3A28181  27.654  36.196   8.007
 1938POPC   C4A28182  27.412  36.326   7.639
 1938POPC   C1B28183  27.949  36.126   8.638
 1938POPC   C2B28184  28.068  35.957   8.246
 1938POPC   C3B28185  27.898  35.757   7.898
 1938POPC   C4B28186  27.739  35.946   7.540
 1939POPC   NC328187  18.602  28.624   9.601
 1939POPC   PO428188  18.400  28.091   9.287
 1939POPC   GL128189  18.291  28.444   9.086
 1939POPC   GL228190  18.531  28.688   9.097
 1939POPC   C1A28191  18.211  28.344   8.697
 1939POPC   D2A28192  18.176  28.534   8.342
 1939POPC   C3A28193  18.234  28.249   8.021
 1939POPC   C4A28194  18.338  28.593   7.753
 1939POPC   C1B28195  18.593  28.697   8.660
 1939POPC   C2B28196  18.649  28.347   8.385
 1939POPC   C3B28197  18.736  28.296   7.956
 1939POPC   C4B28198  18.507  28.148   7.586
 1940POPC   NC328199  38.337   1.137   9.470
 1940POPC   PO428200  38.970   1.293   9.643
 1940POPC   GL128201  38.769   1.104   9.206
 1940POPC   GL228202  38.595   0.776   9.203
 1940POPC   C1A28203  38.455   1.138   8.808
 1940POPC   D2A28204  38.123   1.355   8.515
 1940POPC   C3A28205  38.204   1.445   8.045
 1940POPC   C4A28206  38.583   1.347   7.766
 1940POPC   C1B28207  38.815   0.738   8.834
 1940POPC   C2B28208  38.824   0.903   8.429
 1940POPC   C3B28209  38.534   1.013   8.119
 1940POPC   C4B28210  38.199   0.997   7.808
 1941POPC   NC328211  35.372  41.059   9.275
 1941POPC   PO428212  35.332  41.715   9.527
 1941POPC   GL128213  35.412  41.580   9.121
 1941POPC   GL228214  35.689  41.451   9.185
 1941POPC   C1A28215  35.267  41.491   8.720
 1941POPC   D2A28216  35.045  41.246   8.426
 1941POPC   C3A28217  35.178  41.371   8.044
 1941POPC   C4A28218  35.066  41.417   7.668
 1941POPC   C1B28219  35.741  41.260   8.762
 1941POPC   C2B28220  35.580  41.316   8.350
 1941POPC   C3B28221  35.659  41.543   7.948
 1941POPC   C4B28222  35.614  41.395   7.498
 1942POPC   NC328223  14.807  26.093   9.588
 1942POPC   PO428224  15.382  25.767   9.488
 1942POPC   GL128225  15.209  25.974   9.150
 1942POPC   GL228226  14.929  25.831   9.160
 1942POPC   C1A28227  15.280  25.866   8.724
 1942POPC   D2A28228  15.646  25.806   8.497
 1942POPC   C3A28229  15.508  25.970   8.127
 1942POPC   C4A28230  15.247  25.770   7.827
 1942POPC   C1B28231  14.777  25.968   8.749
 1942POPC   C2B28232  14.925  25.934   8.342
 1942POPC   C3B28233  14.840  26.053   7.923
 1942POPC   C4B28234  14.978  25.999   7.462
 1943POPC   NC328235  10.219  41.453   9.437
 1943POPC   PO428236   9.653  41.771   9.618
 1943POPC   GL128237   9.786  41.496   9.190
 1943POPC   GL228238  10.018  41.612   9.023
 1943POPC   C1A28239   9.670  41.396   8.697
 1943POPC   D2A28240   9.513  41.663   8.354
 1943POPC   C3A28241   9.378  41.493   7.960
 1943POPC   C4A28242   9.568  41.261   7.615
 1943POPC   C1B28243  10.142  41.541   8.681
 1943POPC   C2B28244  10.016  41.472   8.326
 1943POPC   C3B28245   9.871  41.401   8.009
 1943POPC   C4B28246   9.986  41.550   7.661
 1944POPC   NC328247  41.901   0.233   9.454
 1944POPC   PO428248  42.269   0.766   9.637
 1944POPC   GL128249  42.103   0.669   9.259
 1944POPC   GL228250  42.370   0.437   9.185
 1944POPC   C1A28251  42.081   0.746   8.823
 1944POPC   D2A28252  42.291   0.629   8.436
 1944POPC   C3A28253  42.079   0.516   8.050
 1944POPC   C4A28254  42.377   0.546   7.685
 1944POPC   C1B28255  42.236   0.243   8.805
 1944POPC   C2B28256  42.181   0.121   8.382
 1944POPC   C3B28257  42.392   0.101   7.990
 1944POPC   C4B28258  42.162   0.102   7.626
 1945POPC   NC328259  41.524  20.815   9.555
 1945POPC   PO428260  41.302  20.252   9.326
 1945POPC   GL128261  41.535  20.369   8.998
 1945POPC   GL228262  41.538  20.682   9.066
 1945POPC   C1A28263  41.650  20.395   8.567
 1945POPC   D2A28264  41.830  20.710   8.291
 1945POPC   C3A28265  41.751  20.544   7.880
 1945POPC   C4A28266  41.413  20.204   7.829
 1945POPC   C1B28267  41.271  20.759   8.702
 1945POPC   C2B28268  41.345  20.887   8.266
 1945POPC   C3B28269  41.271  20.728   7.876
 1945POPC   C4B28270  41.082  20.953   7.502
 1946POPC   NC328271  40.773  34.912   9.444
 1946POPC   PO428272  41.256  34.425   9.497
 1946POPC   GL128273  41.053  34.581   9.147
 1946POPC   GL228274  41.265  34.353   8.989
 1946POPC   C1A28275  40.783  34.524   8.773
 1946POPC   D2A28276  40.475  34.383   8.459
 1946POPC   C3A28277  40.679  34.573   8.090
 1946POPC   C4A28278  40.564  34.600   7.655
 1946POPC   C1B28279  41.319  34.502   8.584
 1946POPC   C2B28280  41.266  34.290   8.194
 1946POPC   C3B28281  41.024  34.298   7.831
 1946POPC   C4B28282  41.042  34.729   7.717
 1947POPC   NC328283  44.980  38.259   9.597
 1947POPC   PO428284   0.573  38.629   9.431
 1947POPC   GL128285   0.324  38.442   9.170
 1947POPC   GL228286   0.377  38.126   9.289
 1947POPC   C1A28287   0.402  38.615   8.791
 1947POPC   D2A28288   0.388  38.713   8.403
 1947POPC   C3A28289   0.661  38.524   8.142
 1947POPC   C4A28290   0.654  38.359   7.736
 1947POPC   C1B28291   0.570  38.130   8.857
 1947POPC   C2B28292   0.392  38.197   8.480
 1947POPC   C3B28293   0.359  38.112   8.060
 1947POPC   C4B28294   0.249  38.041   7.609
 1948POPC   NC328295  12.521  27.267   9.591
 1948POPC   PO428296  12.954  27.719   9.466
 1948POPC   GL128297  12.760  27.738   9.069
 1948POPC   GL228298  12.519  27.480   9.106
 1948POPC   C1A28299  12.871  27.652   8.651
 1948POPC   D2A28300  12.997  27.559   8.254
 1948POPC   C3A28301  12.663  27.554   7.980
 1948POPC   C4A28302  12.602  27.736   7.567
 1948POPC   C1B28303  12.923  27.261   8.977
 1948POPC   C2B28304  13.159  27.185   8.580
 1948POPC   C3B28305  13.354  27.200   8.133
 1948POPC   C4B28306  13.108  27.409   7.775
 1949POPC   NC328307   6.473   0.960   9.328
 1949POPC   PO428308   6.932   1.371   9.498
 1949POPC   GL128309   6.803   1.308   9.103
 1949POPC   GL228310   6.908   0.974   9.079
 1949POPC   C1A28311   6.702   1.374   8.676
 1949POPC   D2A28312   6.515   1.481   8.261
 1949POPC   C3A28313   6.761   1.369   7.915
 1949POPC   C4A28314   6.670   0.966   7.766
 1949POPC   C1B28315   7.064   0.988   8.693
 1949POPC   C2B28316   6.903   1.041   8.291
 1949POPC   C3B28317   7.151   0.991   7.940
 1949POPC   C4B28318   7.108   0.836   7.528
 1950POPC   NC328319  21.908  14.883   9.541
 1950POPC   PO428320  22.427  15.237   9.676
 1950POPC   GL128321  22.443  15.225   9.232
 1950POPC   GL228322  22.089  15.189   9.146
 1950POPC   C1A28323  22.440  14.988   8.845
 1950POPC   D2A28324  22.174  15.046   8.492
 1950POPC   C3A28325  22.386  14.923   8.144
 1950POPC   C4A28326  22.315  15.002   7.711
 1950POPC   C1B28327  21.836  15.308   8.770
 1950POPC   C2B28328  21.725  15.249   8.314
 1950POPC   C3B28329  21.862  14.989   7.945
 1950POPC   C4B28330  21.898  15.155   7.474
 1951POPC   NC328331   7.000  20.265   9.484
 1951POPC   PO428332   6.296  20.335   9.412
 1951POPC   GL128333   6.663  20.524   9.186
 1951POPC   GL228334   6.585  20.883   9.148
 1951POPC   C1A28335   6.861  20.651   8.782
 1951POPC   D2A28336   6.938  20.916   8.446
 1951POPC   C3A28337   6.805  20.823   8.012
 1951POPC   C4A28338   6.936  20.714   7.579
 1951POPC   C1B28339   6.366  20.623   8.785
 1951POPC   C2B28340   6.541  20.531   8.375
 1951POPC   C3B28341   6.341  20.591   7.970
 1951POPC   C4B28342   6.446  20.833   7.620
 1952POPC   NC328343   2.499  38.963   9.440
 1952POPC   PO428344   2.800  39.503   9.696
 1952POPC   GL128345   2.744  39.361   9.220
 1952POPC   GL228346   2.852  39.029   9.087
 1952POPC   C1A28347   2.573  39.312   8.767
 1952POPC   D2A28348   2.725  39.350   8.330
 1952POPC   C3A28349   2.582  39.374   7.873
 1952POPC   C4A28350   2.700  39.190   7.456
 1952POPC   C1B28351   2.627  38.805   8.720
 1952POPC   C2B28352   2.521  38.887   8.244
 1952POPC   C3B28353   2.449  38.846   7.784
 1952POPC   C4B28354   2.414  38.795   7.305
 1953POPC   NC328355  12.883  26.354   9.400
 1953POPC   PO428356  12.458  26.788   9.699
 1953POPC   GL128357  12.690  26.816   9.293
 1953POPC   GL228358  12.464  26.557   9.184
 1953POPC   C1A28359  12.973  26.759   8.881
 1953POPC   D2A28360  13.065  26.712   8.424
 1953POPC   C3A28361  12.884  27.041   8.148
 1953POPC   C4A28362  12.769  27.018   7.708
 1953POPC   C1B28363  12.581  26.444   8.799
 1953POPC   C2B28364  12.738  26.338   8.428
 1953POPC   C3B28365  12.707  26.544   8.055
 1953POPC   C4B28366  12.787  26.499   7.658
 1954POPC   NC328367   3.755   6.390   9.500
 1954POPC   PO428368   3.686   7.023   9.420
 1954POPC   GL128369   3.385   6.696   9.265
 1954POPC   GL228370   3.080   6.900   9.150
 1954POPC   C1A28371   3.427   6.350   8.916
 1954POPC   D2A28372   3.349   6.354   8.462
 1954POPC   C3A28373   3.641   6.464   8.118
 1954POPC   C4A28374   3.468   6.554   7.680
 1954POPC   C1B28375   3.344   6.829   8.773
 1954POPC   C2B28376   3.474   6.883   8.363
 1954POPC   C3B28377   3.264   6.920   7.967
 1954POPC   C4B28378   3.533   7.062   7.600
 1955POPC   NC328379   8.576  16.084   9.515
 1955POPC   PO428380   7.931  15.763   9.442
 1955POPC   GL128381   8.182  16.054   9.201
 1955POPC   GL228382   8.368  15.759   9.143
 1955POPC   C1A28383   8.417  16.144   8.786
 1955POPC   D2A28384   8.226  16.177   8.359
 1955POPC   C3A28385   8.268  15.849   8.049
 1955POPC   C4A28386   8.440  15.687   7.657
 1955POPC   C1B28387   8.056  15.805   8.781
 1955POPC   C2B28388   7.899  15.712   8.402
 1955POPC   C3B28389   7.773  15.648   8.009
 1955POPC   C4B28390   7.957  15.764   7.635
 1956POPC   NC328391   6.805  28.993   9.308
 1956POPC   PO428392   6.218  29.259   9.429
 1956POPC   GL128393   6.466  29.261   9.036
 1956POPC   GL228394   6.772  29.480   9.097
 1956POPC   C1A28395   6.460  29.084   8.593
 1956POPC   D2A28396   6.642  28.831   8.264
 1956POPC   C3A28397   6.595  29.002   7.881
 1956POPC   C4A28398   6.235  29.108   7.630
 1956POPC   C1B28399   6.918  29.335   8.690
 1956POPC   C2B28400   6.799  29.335   8.255
 1956POPC   C3B28401   7.002  29.451   7.888
 1956POPC   C4B28402   7.090  29.091   7.707
 1957POPC   NC328403  43.534  22.311   9.527
 1957POPC   PO428404  42.910  21.990   9.572
 1957POPC   GL128405  43.108  22.184   9.229
 1957POPC   GL228406  42.852  22.336   9.055
 1957POPC   C1A28407  43.345  22.284   8.826
 1957POPC   D2A28408  43.397  22.049   8.421
 1957POPC   C3A28409  43.243  22.220   8.036
 1957POPC   C4A28410  42.924  22.041   7.730
 1957POPC   C1B28411  42.771  22.490   8.663
 1957POPC   C2B28412  42.837  22.406   8.251
 1957POPC   C3B28413  42.867  22.550   7.835
 1957POPC   C4B28414  42.995  22.482   7.381
 1958POPC   NC328415   6.437  44.392   9.550
 1958POPC   PO428416   6.760  43.733   9.448
 1958POPC   GL128417   6.711  43.950   9.094
 1958POPC   GL228418   6.354  44.079   9.145
 1958POPC   C1A28419   6.657  43.775   8.690
 1958POPC   D2A28420   6.514  43.942   8.313
 1958POPC   C3A28421   6.653  43.871   7.902
 1958POPC   C4A28422   6.709  43.711   7.504
 1958POPC   C1B28423   6.454  44.244   8.737
 1958POPC   C2B28424   6.345  44.434   8.347
 1958POPC   C3B28425   6.245  44.202   7.969
 1958POPC   C4B28426   6.461  44.235   7.561
 1959POPC   NC328427  25.064  10.868   9.192
 1959POPC   PO428428  25.164  11.388   9.604
 1959POPC   GL128429  25.354  11.334   9.156
 1959POPC   GL228430  25.647  11.552   9.135
 1959POPC   C1A28431  25.413  11.101   8.706
 1959POPC   D2A28432  25.184  10.949   8.314
 1959POPC   C3A28433  25.294  11.074   7.877
 1959POPC   C4A28434  25.299  11.070   7.402
 1959POPC   C1B28435  25.514  11.605   8.719
 1959POPC   C2B28436  25.420  11.425   8.309
 1959POPC   C3B28437  25.252  11.599   7.956
 1959POPC   C4B28438  25.475  11.968   7.810
 1960POPC   NC328439  20.156  39.775   9.585
 1960POPC   PO428440  19.758  40.252   9.786
 1960POPC   GL128441  19.836  40.187   9.286
 1960POPC   GL228442  20.169  40.279   9.164
 1960POPC   C1A28443  19.773  40.189   8.803
 1960POPC   D2A28444  19.916  40.320   8.361
 1960POPC   C3A28445  19.791  40.036   8.026
 1960POPC   C4A28446  19.625  40.029   7.608
 1960POPC   C1B28447  20.164  39.884   8.881
 1960POPC   C2B28448  20.037  39.803   8.442
 1960POPC   C3B28449  20.192  39.748   8.010
 1960POPC   C4B28450  20.072  39.762   7.588
 1961POPC   NC328451  21.297  22.921   9.602
 1961POPC   PO428452  21.049  23.383   9.220
 1961POPC   GL128453  21.167  22.920   9.083
 1961POPC   GL228454  21.469  22.727   9.136
 1961POPC   C1A28455  21.163  22.750   8.656
 1961POPC   D2A28456  20.927  22.931   8.296
 1961POPC   C3A28457  21.090  23.067   7.877
 1961POPC   C4A28458  21.527  23.120   7.724
 1961POPC   C1B28459  21.680  22.717   8.721
 1961POPC   C2B28460  21.577  22.810   8.272
 1961POPC   C3B28461  21.393  22.643   7.872
 1961POPC   C4B28462  21.594  22.684   7.473
 1962POPC   NC328463  28.271  23.173   9.315
 1962POPC   PO428464  28.438  23.732   9.479
 1962POPC   GL128465  28.621  23.734   9.049
 1962POPC   GL228466  28.299  23.819   8.968
 1962POPC   C1A28467  28.654  23.782   8.569
 1962POPC   D2A28468  28.471  24.071   8.237
 1962POPC   C3A28469  28.471  23.862   7.836
 1962POPC   C4A28470  28.537  23.400   7.761
 1962POPC   C1B28471  28.153  23.793   8.557
 1962POPC   C2B28472  28.287  23.553   8.201
 1962POPC   C3B28473  28.033  23.532   7.824
 1962POPC   C4B28474  27.908  23.916   7.591
 1963POPC   NC328475  29.519  25.065   9.809
 1963POPC   PO428476  29.024  25.065   9.413
 1963POPC   GL128477  29.266  25.108   9.064
 1963POPC   GL228478  29.547  25.026   9.259
 1963POPC   C1A28479  29.277  25.150   8.614
 1963POPC   D2A28480  29.024  24.981   8.284
 1963POPC   C3A28481  28.825  25.341   8.136
 1963POPC   C4A28482  28.965  25.618   7.821
 1963POPC   C1B28483  29.695  24.951   8.824
 1963POPC   C2B28484  29.778  25.114   8.409
 1963POPC   C3B28485  29.455  25.295   8.143
 1963POPC   C4B28486  29.189  25.151   7.830
 1964POPC   NC328487  36.743  13.336   9.511
 1964POPC   PO428488  37.054  13.913   9.540
 1964POPC   GL128489  37.074  13.611   9.203
 1964POPC   GL228490  37.317  13.802   9.053
 1964POPC   C1A28491  36.840  13.376   8.868
 1964POPC   D2A28492  36.553  13.526   8.554
 1964POPC   C3A28493  36.805  13.490   8.202
 1964POPC   C4A28494  36.879  13.465   7.795
 1964POPC   C1B28495  37.033  13.813   8.688
 1964POPC   C2B28496  37.177  13.869   8.295
 1964POPC   C3B28497  37.117  13.890   7.898
 1964POPC   C4B28498  36.905  13.895   7.524
 1965POPC   NC328499  20.657  24.956   9.320
 1965POPC   PO428500  20.639  25.618   9.365
 1965POPC   GL128501  20.627  25.364   9.022
 1965POPC   GL228502  20.325  25.244   9.067
 1965POPC   C1A28503  20.682  25.099   8.656
 1965POPC   D2A28504  20.904  25.021   8.280
 1965POPC   C3A28505  20.829  25.265   7.945
 1965POPC   C4A28506  20.872  25.367   7.524
 1965POPC   C1B28507  20.280  25.436   8.650
 1965POPC   C2B28508  20.371  25.409   8.206
 1965POPC   C3B28509  20.360  25.308   7.766
 1965POPC   C4B28510  20.249  25.246   7.302
 1966POPC   NC328511  22.611  32.723   9.557
 1966POPC   PO428512  23.127  33.200   9.572
 1966POPC   GL128513  23.029  33.379   9.171
 1966POPC   GL228514  22.736  33.176   9.173
 1966POPC   C1A28515  23.054  33.190   8.744
 1966POPC   D2A28516  22.906  33.130   8.299
 1966POPC   C3A28517  23.116  32.906   7.946
 1966POPC   C4A28518  23.290  33.102   7.548
 1966POPC   C1B28519  22.660  32.861   8.869
 1966POPC   C2B28520  22.783  32.656   8.492
 1966POPC   C3B28521  22.670  32.701   8.082
 1966POPC   C4B28522  22.688  32.924   7.696
 1967POPC   NC328523  26.860  30.510   9.598
 1967POPC   PO428524  26.566  31.126   9.479
 1967POPC   GL128525  26.754  30.775   9.166
 1967POPC   GL228526  27.008  30.473   9.116
 1967POPC   C1A28527  26.557  30.554   8.801
 1967POPC   D2A28528  26.623  30.321   8.407
 1967POPC   C3A28529  26.914  30.514   8.110
 1967POPC   C4A28530  26.745  30.731   7.742
 1967POPC   C1B28531  27.033  30.576   8.674
 1967POPC   C2B28532  27.239  30.843   8.432
 1967POPC   C3B28533  27.165  30.982   8.031
 1967POPC   C4B28534  27.254  30.684   7.697
 1968POPC   NC328535   2.254   2.377   9.271
 1968POPC   PO428536   2.134   3.042   9.484
 1968POPC   GL128537   2.029   2.815   9.078
 1968POPC   GL228538   1.726   2.567   9.037
 1968POPC   C1A28539   2.027   2.665   8.654
 1968POPC   D2A28540   1.806   2.879   8.305
 1968POPC   C3A28541   2.062   2.830   7.941
 1968POPC   C4A28542   1.983   2.787   7.510
 1968POPC   C1B28543   1.556   2.466   8.641
 1968POPC   C2B28544   1.781   2.380   8.273
 1968POPC   C3B28545   1.755   2.412   7.847
 1968POPC   C4B28546   1.512   2.725   7.707
 1969POPC   NC328547  20.191  18.678   9.417
 1969POPC   PO428548  19.482  18.958   9.387
 1969POPC   GL128549  19.832  18.939   9.136
 1969POPC   GL228550  20.113  19.153   9.213
 1969POPC   C1A28551  19.812  18.722   8.738
 1969POPC   D2A28552  19.493  18.772   8.393
 1969POPC   C3A28553  19.674  18.756   7.973
 1969POPC   C4A28554  19.520  18.983   7.662
 1969POPC   C1B28555  20.062  19.193   8.763
 1969POPC   C2B28556  19.901  19.068   8.366
 1969POPC   C3B28557  19.988  19.184   7.973
 1969POPC   C4B28558  20.218  19.459   7.699
 1970POPC   NC328559  37.510  35.142   9.461
 1970POPC   PO428560  37.929  35.427   9.803
 1970POPC   GL128561  37.884  35.409   9.276
 1970POPC   GL228562  38.190  35.478   9.194
 1970POPC   C1A28563  37.699  35.250   8.856
 1970POPC   D2A28564  37.504  35.365   8.455
 1970POPC   C3A28565  37.690  35.244   8.067
 1970POPC   C4A28566  37.446  35.231   7.725
 1970POPC   C1B28567  38.015  35.659   8.825
 1970POPC   C2B28568  38.013  35.812   8.393
 1970POPC   C3B28569  38.041  35.629   7.995
 1970POPC   C4B28570  37.877  35.482   7.592
 1971POPC   NC328571  42.873  33.183   9.447
 1971POPC   PO428572  43.462  32.744   9.560
 1971POPC   GL128573  43.210  32.850   9.205
 1971POPC   GL228574  42.898  32.683   9.175
 1971POPC   C1A28575  43.235  33.156   8.856
 1971POPC   D2A28576  43.291  33.017   8.446
 1971POPC   C3A28577  43.144  33.254   8.123
 1971POPC   C4A28578  43.182  33.159   7.698
 1971POPC   C1B28579  42.800  32.874   8.765
 1971POPC   C2B28580  42.846  32.798   8.311
 1971POPC   C3B28581  42.753  32.996   7.910
 1971POPC   C4B28582  42.747  33.445   7.786
 1972POPC   NC328583  15.775  42.739   9.453
 1972POPC   PO428584  16.060  42.102   9.439
 1972POPC   GL128585  16.134  42.180   9.020
 1972POPC   GL228586  15.800  42.376   8.933
 1972POPC   C1A28587  16.114  42.184   8.569
 1972POPC   D2A28588  15.700  42.273   8.408
 1972POPC   C3A28589  15.707  42.391   8.001
 1972POPC   C4A28590  16.118  42.294   7.855
 1972POPC   C1B28591  15.973  42.660   8.572
 1972POPC   C2B28592  16.382  42.594   8.353
 1972POPC   C3B28593  16.417  42.724   7.938
 1972POPC   C4B28594  15.995  42.814   7.818
 1973POPC   NC328595  34.017  39.697   9.549
 1973POPC   PO428596  33.518  40.169   9.584
 1973POPC   GL128597  33.601  39.939   9.171
 1973POPC   GL228598  33.960  39.868   9.078
 1973POPC   C1A28599  33.639  39.740   8.724
 1973POPC   D2A28600  33.923  39.881   8.381
 1973POPC   C3A28601  33.749  39.880   7.978
 1973POPC   C4A28602  33.607  40.300   7.842
 1973POPC   C1B28603  34.175  39.618   8.757
 1973POPC   C2B28604  34.359  39.619   8.360
 1973POPC   C3B28605  34.371  39.862   7.982
 1973POPC   C4B28606  34.115  40.210   7.817
 1974POPC   NC328607  36.700   3.364   9.482
 1974POPC   PO428608  37.325   3.749   9.507
 1974POPC   GL128609  37.103   3.516   9.167
 1974POPC   GL228610  37.302   3.237   9.016
 1974POPC   C1A28611  36.865   3.354   8.776
 1974POPC   D2A28612  36.630   3.348   8.395
 1974POPC   C3A28613  36.687   3.589   8.046
 1974POPC   C4A28614  37.021   3.430   7.852
 1974POPC   C1B28615  37.338   3.553   8.727
 1974POPC   C2B28616  37.147   3.661   8.361
 1974POPC   C3B28617  37.157   3.903   8.008
 1974POPC   C4B28618  36.951   3.879   7.634
 1975POPC   NC328619  31.636   9.651   9.534
 1975POPC   PO428620  31.068  10.013   9.601
 1975POPC   GL128621  31.295   9.895   9.207
 1975POPC   GL228622  31.419   9.586   9.092
 1975POPC   C1A28623  31.117   9.808   8.759
 1975POPC   D2A28624  31.127   9.985   8.348
 1975POPC   C3A28625  30.985   9.788   7.977
 1975POPC   C4A28626  31.376   9.697   7.813
 1975POPC   C1B28627  31.627   9.668   8.706
 1975POPC   C2B28628  31.593   9.626   8.260
 1975POPC   C3B28629  31.858   9.592   7.878
 1975POPC   C4B28630  32.076   9.835   7.556
 1976POPC   NC328631  29.877   2.736   9.605
 1976POPC   PO428632  30.510   2.456   9.630
 1976POPC   GL128633  30.174   2.505   9.248
 1976POPC   GL228634  29.921   2.794   9.115
 1976POPC   C1A28635  30.099   2.442   8.783
 1976POPC   D2A28636  29.912   2.537   8.416
 1976POPC   C3A28637  30.060   2.427   8.021
 1976POPC   C4A28638  29.980   2.608   7.627
 1976POPC   C1B28639  29.625   2.758   8.776
 1976POPC   C2B28640  29.598   2.931   8.340
 1976POPC   C3B28641  29.587   2.854   7.861
 1976POPC   C4B28642  29.647   2.941   7.371
 1977POPC   NC328643   4.017   2.258   9.829
 1977POPC   PO428644   3.433   1.999   9.556
 1977POPC   GL128645   3.595   1.949   9.132
 1977POPC   GL228646   3.353   1.714   9.007
 1977POPC   C1A28647   3.582   2.081   8.678
 1977POPC   D2A28648   3.324   2.218   8.313
 1977POPC   C3A28649   3.587   2.358   7.975
 1977POPC   C4A28650   3.798   2.107   7.705
 1977POPC   C1B28651   3.552   1.492   8.728
 1977POPC   C2B28652   3.677   1.594   8.355
 1977POPC   C3B28653   3.557   1.829   8.063
 1977POPC   C4B28654   3.561   1.653   7.691
 1978POPC   NC328655   5.504  35.740   9.831
 1978POPC   PO428656   6.161  35.592   9.520
 1978POPC   GL128657   5.988  35.503   9.116
 1978POPC   GL228658   5.633  35.437   9.077
 1978POPC   C1A28659   5.979  35.351   8.701
 1978POPC   D2A28660   6.028  35.482   8.295
 1978POPC   C3A28661   6.016  35.177   7.999
 1978POPC   C4A28662   6.143  35.431   7.687
 1978POPC   C1B28663   5.470  35.464   8.667
 1978POPC   C2B28664   5.582  35.213   8.298
 1978POPC   C3B28665   5.546  35.332   7.850
 1978POPC   C4B28666   5.621  35.744   7.727
 1979POPC   NC328667  21.479  43.357   9.759
 1979POPC   PO428668  21.631  43.946   9.550
 1979POPC   GL128669  21.420  43.968   9.147
 1979POPC   GL228670  21.582  43.654   9.111
 1979POPC   C1A28671  21.130  44.073   8.751
 1979POPC   D2A28672  20.937  44.055   8.318
 1979POPC   C3A28673  21.221  43.973   7.947
 1979POPC   C4A28674  21.647  43.911   7.768
 1979POPC   C1B28675  21.524  43.771   8.674
 1979POPC   C2B28676  21.261  43.654   8.347
 1979POPC   C3B28677  21.394  43.471   7.952
 1979POPC   C4B28678  21.285  43.393   7.524
 1980POPC   NC328679  34.611  36.255   9.426
 1980POPC   PO428680  34.592  35.589   9.421
 1980POPC   GL128681  34.468  35.855   9.067
 1980POPC   GL228682  34.485  36.226   8.951
 1980POPC   C1A28683  34.611  35.849   8.653
 1980POPC   D2A28684  34.721  36.178   8.406
 1980POPC   C3A28685  34.891  36.063   8.040
 1980POPC   C4A28686  34.581  36.030   7.751
 1980POPC   C1B28687  34.903  36.425   8.815
 1980POPC   C2B28688  34.960  36.628   8.400
 1980POPC   C3B28689  34.897  36.549   7.935
 1980POPC   C4B28690  34.551  36.522   7.640
 1981POPC   NC328691  28.821  14.836   9.333
 1981POPC   PO428692  29.356  15.271   9.530
 1981POPC   GL128693  29.109  15.201   9.125
 1981POPC   GL228694  28.911  15.477   9.087
 1981POPC   C1A28695  29.097  14.863   8.743
 1981POPC   D2A28696  29.224  14.833   8.293
 1981POPC   C3A28697  29.141  15.264   8.167
 1981POPC   C4A28698  29.417  15.586   7.954
 1981POPC   C1B28699  28.874  15.321   8.661
 1981POPC   C2B28700  28.641  15.465   8.314
 1981POPC   C3B28701  28.688  15.343   7.910
 1981POPC   C4B28702  28.929  15.042   7.761
 1982POPC   NC328703  26.468  31.549   9.299
 1982POPC   PO428704  26.847  32.059   9.705
 1982POPC   GL128705  26.899  31.794   9.261
 1982POPC   GL228706  26.947  31.362   9.214
 1982POPC   C1A28707  26.940  31.629   8.806
 1982POPC   D2A28708  26.746  31.459   8.417
 1982POPC   C3A28709  26.775  31.676   8.005
 1982POPC   C4A28710  26.896  31.586   7.536
 1982POPC   C1B28711  26.820  31.108   8.798
 1982POPC   C2B28712  26.727  30.938   8.364
 1982POPC   C3B28713  26.658  31.187   7.960
 1982POPC   C4B28714  26.428  31.527   7.677
 1983POPC   NC328715   8.564  22.784   9.488
 1983POPC   PO428716   9.220  22.825   9.582
 1983POPC   GL128717   9.183  23.018   9.162
 1983POPC   GL228718   8.822  23.109   9.133
 1983POPC   C1A28719   9.074  22.889   8.747
 1983POPC   D2A28720   8.870  22.926   8.354
 1983POPC   C3A28721   9.053  22.812   7.977
 1983POPC   C4A28722   8.850  22.563   7.724
 1983POPC   C1B28723   8.786  23.331   8.717
 1983POPC   C2B28724   8.623  23.388   8.306
 1983POPC   C3B28725   8.610  23.274   7.863
 1983POPC   C4B28726   8.843  23.035   7.539
 1984POPC   NC328727  24.054  32.090   9.625
 1984POPC   PO428728  23.883  32.741   9.515
 1984POPC   GL128729  23.828  32.441   9.196
 1984POPC   GL228730  23.732  32.080   9.183
 1984POPC   C1A28731  23.942  32.384   8.777
 1984POPC   D2A28732  23.791  32.358   8.371
 1984POPC   C3A28733  24.007  32.528   8.018
 1984POPC   C4A28734  23.914  32.421   7.607
 1984POPC   C1B28735  23.567  32.010   8.730
 1984POPC   C2B28736  23.426  32.037   8.282
 1984POPC   C3B28737  23.488  32.199   7.892
 1984POPC   C4B28738  23.478  31.841   7.670
 1985POPC   NC328739  34.945  22.542   9.373
 1985POPC   PO428740  34.893  23.129   9.476
 1985POPC   GL128741  34.748  22.998   9.080
 1985POPC   GL228742  34.391  22.968   9.035
 1985POPC   C1A28743  34.701  23.202   8.676
 1985POPC   D2A28744  34.852  23.390   8.274
 1985POPC   C3A28745  34.811  23.200   7.843
 1985POPC   C4A28746  35.088  22.909   7.585
 1985POPC   C1B28747  34.255  22.954   8.598
 1985POPC   C2B28748  34.459  23.029   8.204
 1985POPC   C3B28749  34.289  23.072   7.785
 1985POPC   C4B28750  34.104  23.051   7.346
 1986POPC   NC328751   3.630  41.397   9.495
 1986POPC   PO428752   3.264  41.860   9.437
 1986POPC   GL128753   3.553  41.755   9.098
 1986POPC   GL228754   3.495  41.401   9.012
 1986POPC   C1A28755   3.499  41.766   8.647
 1986POPC   D2A28756   3.336  41.567   8.330
 1986POPC   C3A28757   3.507  41.563   7.935
 1986POPC   C4A28758   3.719  41.787   7.632
 1986POPC   C1B28759   3.103  41.457   8.809
 1986POPC   C2B28760   2.974  41.234   8.419
 1986POPC   C3B28761   3.033  41.349   7.974
 1986POPC   C4B28762   3.161  41.494   7.571
 1987POPC   NC328763  25.769  17.776   9.927
 1987POPC   PO428764  26.161  17.441   9.466
 1987POPC   GL128765  26.031  17.439   9.086
 1987POPC   GL228766  26.211  17.747   9.028
 1987POPC   C1A28767  26.094  17.246   8.693
 1987POPC   D2A28768  26.361  17.183   8.335
 1987POPC   C3A28769  26.164  17.242   7.969
 1987POPC   C4A28770  25.774  17.120   7.884
 1987POPC   C1B28771  25.877  17.720   8.697
 1987POPC   C2B28772  25.902  17.559   8.282
 1987POPC   C3B28773  25.860  17.650   7.855
 1987POPC   C4B28774  25.784  17.795   7.455
 1988POPC   NC328775   9.596  38.090   9.468
 1988POPC   PO428776   9.773  37.505   9.693
 1988POPC   GL128777   9.750  37.635   9.264
 1988POPC   GL228778  10.005  37.898   9.182
 1988POPC   C1A28779   9.800  37.407   8.880
 1988POPC   D2A28780  10.106  37.430   8.525
 1988POPC   C3A28781   9.962  37.371   8.094
 1988POPC   C4A28782   9.798  37.628   7.766
 1988POPC   C1B28783   9.868  37.877   8.722
 1988POPC   C2B28784   9.945  37.890   8.267
 1988POPC   C3B28785  10.005  38.099   7.840
 1988POPC   C4B28786   9.626  38.153   7.630
 1989POPC   NC328787  10.708  29.181   9.431
 1989POPC   PO428788  10.261  28.739   9.160
 1989POPC   GL128789  10.479  29.087   8.993
 1989POPC   GL228790  10.799  28.895   9.033
 1989POPC   C1A28791  10.628  29.402   8.642
 1989POPC   D2A28792  10.761  29.573   8.193
 1989POPC   C3A28793  10.725  29.295   7.871
 1989POPC   C4A28794  10.373  29.069   7.751
 1989POPC   C1B28795  10.709  28.866   8.616
 1989POPC   C2B28796  10.545  29.000   8.264
 1989POPC   C3B28797  10.836  28.829   7.995
 1989POPC   C4B28798  10.729  28.719   7.622
 1990POPC   NC328799   4.133  32.079   9.657
 1990POPC   PO428800   3.646  32.538   9.405
 1990POPC   GL128801   4.068  32.347   9.198
 1990POPC   GL228802   4.280  31.993   9.178
 1990POPC   C1A28803   4.357  32.357   8.827
 1990POPC   D2A28804   4.557  32.411   8.447
 1990POPC   C3A28805   4.376  32.323   8.080
 1990POPC   C4A28806   4.543  32.191   7.707
 1990POPC   C1B28807   4.000  31.986   8.827
 1990POPC   C2B28808   4.163  32.019   8.431
 1990POPC   C3B28809   4.151  31.878   7.993
 1990POPC   C4B28810   3.812  31.826   7.698
 1991POPC   NC328811  39.433  28.694   9.755
 1991POPC   PO428812  38.923  28.367   9.484
 1991POPC   GL128813  39.060  28.592   9.160
 1991POPC   GL228814  39.346  28.748   9.246
 1991POPC   C1A28815  39.249  28.481   8.755
 1991POPC   D2A28816  39.201  28.673   8.353
 1991POPC   C3A28817  39.155  28.483   7.953
 1991POPC   C4A28818  38.845  28.347   7.665
 1991POPC   C1B28819  39.587  28.870   8.885
 1991POPC   C2B28820  39.710  28.640   8.513
 1991POPC   C3B28821  39.634  28.727   8.076
 1991POPC   C4B28822  39.611  28.511   7.684
 1992POPC   NC328823   5.006  11.431   9.774
 1992POPC   PO428824   5.307  10.930   9.424
 1992POPC   GL128825   5.162  11.335   9.242
 1992POPC   GL228826   4.781  11.426   9.200
 1992POPC   C1A28827   5.179  11.426   8.812
 1992POPC   D2A28828   5.079  11.269   8.412
 1992POPC   C3A28829   5.304  11.429   8.073
 1992POPC   C4A28830   5.380  11.286   7.669
 1992POPC   C1B28831   4.721  11.606   8.804
 1992POPC   C2B28832   4.955  11.779   8.471
 1992POPC   C3B28833   4.828  11.652   8.075
 1992POPC   C4B28834   4.966  11.560   7.654
 1993POPC   NC328835  32.002  10.533   9.425
 1993POPC   PO428836  32.547  11.012   9.525
 1993POPC   GL128837  32.378  10.797   9.191
 1993POPC   GL228838  32.067  10.977   9.155
 1993POPC   C1A28839  32.197  10.588   8.807
 1993POPC   D2A28840  32.068  10.446   8.399
 1993POPC   C3A28841  32.400  10.451   8.073
 1993POPC   C4A28842  32.226  10.358   7.669
 1993POPC   C1B28843  31.891  11.002   8.751
 1993POPC   C2B28844  31.762  10.981   8.310
 1993POPC   C3B28845  32.027  10.782   7.996
 1993POPC   C4B28846  32.148  10.858   7.563
 1994POPC   NC328847  34.034   1.493   9.423
 1994POPC   PO428848  34.683   1.278   9.594
 1994POPC   GL128849  34.514   1.093   9.198
 1994POPC   GL228850  34.433   1.398   9.090
 1994POPC   C1A28851  34.607   1.024   8.746
 1994POPC   D2A28852  34.510   1.203   8.343
 1994POPC   C3A28853  34.584   0.994   7.978
 1994POPC   C4A28854  34.677   1.061   7.568
 1994POPC   C1B28855  34.209   1.399   8.704
 1994POPC   C2B28856  34.119   1.577   8.317
 1994POPC   C3B28857  34.250   1.385   7.934
 1994POPC   C4B28858  34.571   1.553   7.648
 1995POPC   NC328859  27.880  28.553   9.671
 1995POPC   PO428860  27.518  28.002   9.779
 1995POPC   GL128861  27.633  28.177   9.317
 1995POPC   GL228862  27.668  28.516   9.212
 1995POPC   C1A28863  27.381  28.273   8.891
 1995POPC   D2A28864  27.261  28.593   8.579
 1995POPC   C3A28865  27.233  28.498   8.115
 1995POPC   C4A28866  27.116  28.402   7.682
 1995POPC   C1B28867  27.910  28.360   8.873
 1995POPC   C2B28868  27.899  28.180   8.464
 1995POPC   C3B28869  27.930  28.221   8.024
 1995POPC   C4B28870  27.622  28.175   7.695
 1996POPC   NC328871  33.729  10.965   9.595
 1996POPC   PO428872  33.367  10.500   9.491
 1996POPC   GL128873  33.643  10.583   9.168
 1996POPC   GL228874  33.763  10.248   9.199
 1996POPC   C1A28875  33.691  10.720   8.725
 1996POPC   D2A28876  33.874  10.930   8.365
 1996POPC   C3A28877  33.863  10.652   8.006
 1996POPC   C4A28878  33.985  10.549   7.590
 1996POPC   C1B28879  33.706  10.210   8.755
 1996POPC   C2B28880  33.665  10.168   8.301
 1996POPC   C3B28881  33.890  10.125   7.889
 1996POPC   C4B28882  33.721  10.135   7.457
 1997POPC   NC328883  12.151  25.629   9.496
 1997POPC   PO428884  11.957  24.992   9.506
 1997POPC   GL128885  12.207  25.162   9.195
 1997POPC   GL228886  12.545  25.268   9.326
 1997POPC   C1A28887  12.208  25.117   8.754
 1997POPC   D2A28888  12.030  25.305   8.401
 1997POPC   C3A28889  12.023  25.115   8.081
 1997POPC   C4A28890  11.885  25.009   7.712
 1997POPC   C1B28891  12.515  25.509   8.941
 1997POPC   C2B28892  12.503  25.457   8.497
 1997POPC   C3B28893  12.410  25.446   8.071
 1997POPC   C4B28894  12.176  25.399   7.674
 1998POPC   NC328895  37.181  26.773   9.499
 1998POPC   PO428896  37.743  26.893   9.850
 1998POPC   GL128897  37.612  26.896   9.317
 1998POPC   GL228898  37.577  27.223   9.179
 1998POPC   C1A28899  37.755  26.723   8.888
 1998POPC   D2A28900  37.930  26.681   8.464
 1998POPC   C3A28901  37.674  26.655   8.063
 1998POPC   C4A28902  37.348  26.483   7.763
 1998POPC   C1B28903  37.890  27.226   8.839
 1998POPC   C2B28904  37.990  27.181   8.417
 1998POPC   C3B28905  37.875  27.148   8.005
 1998POPC   C4B28906  38.132  27.097   7.681
 1999POPC   NC328907  30.950  34.148   9.861
 1999POPC   PO428908  30.510  33.888   9.444
 1999POPC   GL128909  30.651  33.649   9.131
 1999POPC   GL228910  30.807  33.888   8.987
 1999POPC   C1A28911  30.510  33.474   8.750
 1999POPC   D2A28912  30.573  33.621   8.349
 1999POPC   C3A28913  30.336  33.505   8.010
 1999POPC   C4A28914  30.481  33.693   7.652
 1999POPC   C1B28915  31.119  33.838   8.743
 1999POPC   C2B28916  31.240  33.973   8.385
 1999POPC   C3B28917  31.061  33.915   8.007
 1999POPC   C4B28918  30.923  33.960   7.630
 2000POPC   NC328919  39.834  20.204   9.747
 2000POPC   PO428920  39.868  20.739   9.394
 2000POPC   GL128921  40.029  20.598   9.026
 2000POPC   GL228922  40.308  20.481   9.152
 2000POPC   C1A28923  39.855  20.438   8.625
 2000POPC   D2A28924  39.762  20.307   8.201
 2000POPC   C3A28925  39.665  20.651   7.932
 2000POPC   C4A28926  39.924  20.947   7.750
 2000POPC   C1B28927  40.352  20.300   8.768
 2000POPC   C2B28928  40.319  20.526   8.385
 2000POPC   C3B28929  40.181  20.560   7.967
 2000POPC   C4B28930  40.387  20.432   7.596
 2001POPC   NC328931  11.691  11.971   9.570
 2001POPC   PO428932  11.281  12.438   9.516
 2001POPC   GL128933  11.154  12.331   9.115
 2001POPC   GL228934  11.000  11.998   9.049
 2001POPC   C1A28935  11.042  12.382   8.712
 2001POPC   D2A28936  10.847  12.339   8.344
 2001POPC   C3A28937  11.133  12.358   8.058
 2001POPC   C4A28938  11.239  12.117   7.708
 2001POPC   C1B28939  11.179  11.896   8.605
 2001POPC   C2B28940  11.321  11.898   8.167
 2001POPC   C3B28941  11.174  11.623   7.821
 2001POPC   C4B28942  10.971  11.384   7.459
 2002POPC   NC328943  15.451  19.902   9.545
 2002POPC   PO428944  14.766  19.992   9.480
 2002POPC   GL128945  15.081  19.757   9.216
 2002POPC   GL228946  15.416  19.535   9.183
 2002POPC   C1A28947  15.348  19.994   8.902
 2002POPC   D2A28948  15.308  20.222   8.508
 2002POPC   C3A28949  15.066  19.957   8.207
 2002POPC   C4A28950  14.978  19.876   7.780
 2002POPC   C1B28951  15.176  19.504   8.791
 2002POPC   C2B28952  15.018  19.415   8.379
 2002POPC   C3B28953  15.167  19.442   7.959
 2002POPC   C4B28954  15.162  19.443   7.493
 2003POPC   NC328955   0.625  39.899   9.556
 2003POPC   PO428956   0.029  40.145   9.620
 2003POPC   GL128957   0.175  39.909   9.235
 2003POPC   GL228958   0.484  39.716   9.106
 2003POPC   C1A28959   0.259  40.049   8.802
 2003POPC   D2A28960   0.083  39.867   8.441
 2003POPC   C3A28961   0.187  39.967   8.041
 2003POPC   C4A28962   0.269  39.964   7.628
 2003POPC   C1B28963   0.509  39.622   8.681
 2003POPC   C2B28964   0.619  39.791   8.299
 2003POPC   C3B28965   0.700  39.954   7.911
 2003POPC   C4B28966   0.719  39.725   7.511
 2004POPC   NC328967  15.898  20.394   9.726
 2004POPC   PO428968  16.251  20.895   9.806
 2004POPC   GL128969  15.938  20.738   9.351
 2004POPC   GL228970  15.718  20.940   9.108
 2004POPC   C1A28971  15.974  20.592   8.851
 2004POPC   D2A28972  15.795  20.368   8.436
 2004POPC   C3A28973  15.902  20.467   8.000
 2004POPC   C4A28974  16.278  20.685   7.845
 2004POPC   C1B28975  15.768  21.071   8.664
 2004POPC   C2B28976  15.864  20.974   8.221
 2004POPC   C3B28977  15.822  20.920   7.773
 2004POPC   C4B28978  15.636  20.998   7.352
 2005POPC   NC328979   5.827  30.398   9.461
 2005POPC   PO428980   6.090  29.797   9.621
 2005POPC   GL128981   5.863  29.939   9.230
 2005POPC   GL228982   6.075  30.201   9.078
 2005POPC   C1A28983   5.731  29.963   8.768
 2005POPC   D2A28984   5.496  29.975   8.356
 2005POPC   C3A28985   5.759  30.035   8.003
 2005POPC   C4A28986   5.866  30.137   7.602
 2005POPC   C1B28987   6.257  30.126   8.667
 2005POPC   C2B28988   6.250  30.189   8.218
 2005POPC   C3B28989   6.256  29.934   7.858
 2005POPC   C4B28990   6.021  29.573   7.758
 2006POPC   NC328991  40.203   4.609   9.286
 2006POPC   PO428992  39.896   5.139   9.710
 2006POPC   GL128993  39.923   5.064   9.238
 2006POPC   GL228994  39.974   5.349   9.025
 2006POPC   C1A28995  39.895   4.908   8.801
 2006POPC   D2A28996  40.140   4.880   8.436
 2006POPC   C3A28997  39.942   5.015   8.089
 2006POPC   C4A28998  39.741   5.122   7.714
 2006POPC   C1B28999  40.220   5.324   8.665
 2006POPC   C2B29000  40.355   5.295   8.238
 2006POPC   C3B29001  40.195   5.379   7.821
 2006POPC   C4B29002  40.421   5.419   7.415
 2007POPC   NC329003   1.973  41.234   9.562
 2007POPC   PO429004   1.698  41.801   9.592
 2007POPC   GL129005   1.935  41.599   9.234
 2007POPC   GL229006   1.657  41.344   9.178
 2007POPC   C1A29007   2.148  41.730   8.844
 2007POPC   D2A29008   2.329  41.901   8.452
 2007POPC   C3A29009   2.027  41.929   8.123
 2007POPC   C4A29010   1.851  41.739   7.738
 2007POPC   C1B29011   1.878  41.301   8.789
 2007POPC   C2B29012   2.008  41.491   8.389
 2007POPC   C3B29013   2.148  41.402   7.966
 2007POPC   C4B29014   1.914  41.095   7.764
 2008POPC   NC329015  20.106  11.767   9.510
 2008POPC   PO429016  20.327  12.407   9.436
 2008POPC   GL129017  19.998  12.162   9.137
 2008POPC   GL229018  19.992  11.785   9.025
 2008POPC   C1A29019  19.837  12.127   8.686
 2008POPC   D2A29020  19.716  11.944   8.272
 2008POPC   C3A29021  19.695  12.244   7.911
 2008POPC   C4A29022  19.929  12.524   7.643
 2008POPC   C1B29023  20.114  11.667   8.598
 2008POPC   C2B29024  20.123  11.650   8.139
 2008POPC   C3B29025  19.833  11.773   7.787
 2008POPC   C4B29026  19.781  11.612   7.386
 2009POPC   NC329027  35.796  38.377   9.593
 2009POPC   PO429028  36.440  38.262   9.819
 2009POPC   GL129029  36.244  38.134   9.359
 2009POPC   GL229030  35.894  38.153   9.165
 2009POPC   C1A29031  36.300  38.282   8.896
 2009POPC   D2A29032  36.481  38.514   8.524
 2009POPC   C3A29033  36.429  38.365   8.088
 2009POPC   C4A29034  36.509  38.610   7.700
 2009POPC   C1B29035  35.861  38.060   8.741
 2009POPC   C2B29036  36.005  38.318   8.423
 2009POPC   C3B29037  35.986  38.607   8.080
 2009POPC   C4B29038  36.035  38.413   7.686
 2010POPC   NC329039  13.720  30.206   9.408
 2010POPC   PO429040  13.343  29.764   9.618
 2010POPC   GL129041  13.448  29.831   9.178
 2010POPC   GL229042  13.367  30.168   9.055
 2010POPC   C1A29043  13.550  29.731   8.747
 2010POPC   D2A29044  13.374  29.586   8.355
 2010POPC   C3A29045  13.612  29.734   7.995
 2010POPC   C4A29046  13.446  29.996   7.745
 2010POPC   C1B29047  13.633  30.247   8.747
 2010POPC   C2B29048  13.704  30.077   8.371
 2010POPC   C3B29049  13.713  30.332   8.031
 2010POPC   C4B29050  13.906  30.203   7.676
 2011POPC   NC329051  18.287  35.570   9.945
 2011POPC   PO429052  18.286  35.075   9.601
 2011POPC   GL129053  18.180  35.232   9.211
 2011POPC   GL229054  18.149  35.590   9.227
 2011POPC   C1A29055  18.381  35.204   8.813
 2011POPC   D2A29056  18.105  35.221   8.467
 2011POPC   C3A29057  18.315  35.332   8.102
 2011POPC   C4A29058  18.258  35.212   7.702
 2011POPC   C1B29059  18.153  35.687   8.764
 2011POPC   C2B29060  18.025  35.725   8.295
 2011POPC   C3B29061  17.879  35.517   7.884
 2011POPC   C4B29062  17.967  35.550   7.425
 2012POPC   NC329063  13.019   2.302   9.743
 2012POPC   PO429064  12.710   1.797   9.347
 2012POPC   GL129065  12.817   2.143   9.122
 2012POPC   GL229066  13.035   1.930   8.935
 2012POPC   C1A29067  12.816   2.305   8.710
 2012POPC   D2A29068  12.918   1.977   8.438
 2012POPC   C3A29069  12.886   2.150   8.079
 2012POPC   C4A29070  12.796   2.142   7.675
 2012POPC   C1B29071  13.438   1.763   8.832
 2012POPC   C2B29072  13.419   1.828   8.434
 2012POPC   C3B29073  13.188   1.709   8.075
 2012POPC   C4B29074  13.269   1.896   7.685
 2013POPC   NC329075  17.252   9.173   9.475
 2013POPC   PO429076  17.844   8.775   9.567
 2013POPC   GL129077  17.634   8.920   9.179
 2013POPC   GL229078  17.327   8.933   8.985
 2013POPC   C1A29079  17.739   9.113   8.756
 2013POPC   D2A29080  17.373   9.028   8.458
 2013POPC   C3A29081  17.422   9.109   8.021
 2013POPC   C4A29082  17.489   9.154   7.579
 2013POPC   C1B29083  17.578   8.636   8.739
 2013POPC   C2B29084  17.396   8.487   8.379
 2013POPC   C3B29085  17.330   8.596   7.963
 2013POPC   C4B29086  17.630   8.663   7.650
 2014POPC   NC329087  16.828  40.074   9.605
 2014POPC   PO429088  16.250  39.841   9.480
 2014POPC   GL129089  16.467  39.869   9.089
 2014POPC   GL229090  16.791  39.987   9.112
 2014POPC   C1A29091  16.640  39.826   8.646
 2014POPC   D2A29092  16.808  40.166   8.433
 2014POPC   C3A29093  16.651  40.279   8.037
 2014POPC   C4A29094  16.827  40.508   7.726
 2014POPC   C1B29095  17.098  39.789   8.844
 2014POPC   C2B29096  17.172  39.824   8.382
 2014POPC   C3B29097  16.890  39.812   7.990
 2014POPC   C4B29098  16.968  39.719   7.540
 2015POPC   NC329099   5.199  12.306   9.330
 2015POPC   PO429100   4.812  11.787   9.570
 2015POPC   GL129101   5.077  11.837   9.166
 2015POPC   GL229102   4.991  12.082   8.932
 2015POPC   C1A29103   5.445  11.858   8.850
 2015POPC   D2A29104   5.546  11.856   8.405
 2015POPC   C3A29105   5.265  12.123   8.165
 2015POPC   C4A29106   4.968  12.060   7.824
 2015POPC   C1B29107   4.691  12.201   8.667
 2015POPC   C2B29108   4.753  12.220   8.251
 2015POPC   C3B29109   4.562  12.323   7.882
 2015POPC   C4B29110   4.595  12.316   7.413
 2016POPC   NC329111  30.038  38.316   9.473
 2016POPC   PO429112  29.528  38.846   9.579
 2016POPC   GL129113  29.838  38.856   9.194
 2016POPC   GL229114  30.186  38.716   9.113
 2016POPC   C1A29115  29.834  38.693   8.735
 2016POPC   D2A29116  30.039  38.751   8.295
 2016POPC   C3A29117  29.742  38.643   7.937
 2016POPC   C4A29118  29.546  38.194   7.859
 2016POPC   C1B29119  30.244  38.332   8.811
 2016POPC   C2B29120  30.178  38.118   8.375
 2016POPC   C3B29121  30.102  38.289   7.929
 2016POPC   C4B29122  30.205  38.628   7.624
 2017POPC   NC329123   0.908  38.191   9.384
 2017POPC   PO429124   1.306  38.702   9.534
 2017POPC   GL129125   1.059  38.640   9.169
 2017POPC   GL229126   1.273  38.379   9.060
 2017POPC   C1A29127   0.901  38.535   8.769
 2017POPC   D2A29128   1.200  38.425   8.493
 2017POPC   C3A29129   1.115  38.715   8.226
 2017POPC   C4A29130   1.131  38.543   7.809
 2017POPC   C1B29131   1.567  38.177   8.780
 2017POPC   C2B29132   1.670  38.219   8.349
 2017POPC   C3B29133   1.475  38.157   7.950
 2017POPC   C4B29134   1.637  38.001   7.535
 2018POPC   NC329135   5.345  15.752   9.460
 2018POPC   PO429136   4.764  16.099   9.543
 2018POPC   GL129137   4.940  15.901   9.186
 2018POPC   GL229138   5.178  16.138   9.135
 2018POPC   C1A29139   5.082  15.794   8.754
 2018POPC   D2A29140   4.855  15.807   8.371
 2018POPC   C3A29141   5.015  15.739   7.968
 2018POPC   C4A29142   4.722  15.760   7.642
 2018POPC   C1B29143   5.263  16.276   8.720
 2018POPC   C2B29144   4.996  16.306   8.377
 2018POPC   C3B29145   4.880  16.217   7.940
 2018POPC   C4B29146   5.103  16.170   7.551
 2019POPC   NC329147  14.273   0.920   9.308
 2019POPC   PO429148  14.643   1.511   9.464
 2019POPC   GL129149  14.538   1.321   9.104
 2019POPC   GL229150  14.741   1.015   9.082
 2019POPC   C1A29151  14.393   1.422   8.711
 2019POPC   D2A29152  14.165   1.423   8.349
 2019POPC   C3A29153  14.283   1.566   7.969
 2019POPC   C4A29154  14.220   1.324   7.615
 2019POPC   C1B29155  14.520   0.921   8.702
 2019POPC   C2B29156  14.443   0.989   8.289
 2019POPC   C3B29157  14.295   0.887   7.886
 2019POPC   C4B29158  14.151   0.837   7.435
 2020POPC   NC329159   5.868   4.803   9.625
 2020POPC   PO429160   5.998   5.354   9.276
 2020POPC   GL129161   5.905   5.003   9.114
 2020POPC   GL229162   6.221   4.894   8.978
 2020POPC   C1A29163   5.571   4.798   8.901
 2020POPC   D2A29164   5.532   4.696   8.445
 2020POPC   C3A29165   5.743   4.989   8.166
 2020POPC   C4A29166   5.707   4.971   7.710
 2020POPC   C1B29167   6.034   5.101   8.621
 2020POPC   C2B29168   6.233   5.217   8.246
 2020POPC   C3B29169   6.165   5.085   7.835
 2020POPC   C4B29170   6.178   4.706   7.591
 2021POPC   NC329171  38.290  10.732   9.729
 2021POPC   PO429172  38.828  10.397   9.621
 2021POPC   GL129173  38.474  10.427   9.322
 2021POPC   GL229174  38.251  10.752   9.238
 2021POPC   C1A29175  38.468  10.487   8.885
 2021POPC   D2A29176  38.573  10.685   8.535
 2021POPC   C3A29177  38.479  10.592   8.110
 2021POPC   C4A29178  38.437  10.426   7.674
 2021POPC   C1B29179  38.156  10.892   8.821
 2021POPC   C2B29180  38.072  10.699   8.419
 2021POPC   C3B29181  38.052  10.846   7.994
 2021POPC   C4B29182  37.974  10.685   7.593
 2022POPC   NC329183  36.040  25.982   9.328
 2022POPC   PO429184  36.316  26.583   9.385
 2022POPC   GL129185  36.086  26.405   9.002
 2022POPC   GL229186  35.840  26.102   8.890
 2022POPC   C1A29187  36.116  26.342   8.545
 2022POPC   D2A29188  36.033  25.936   8.332
 2022POPC   C3A29189  36.063  26.045   7.918
 2022POPC   C4A29190  36.217  26.431   7.776
 2022POPC   C1B29191  35.725  25.690   8.710
 2022POPC   C2B29192  35.868  25.433   8.348
 2022POPC   C3B29193  35.845  25.576   7.943
 2022POPC   C4B29194  35.799  25.799   7.499
 2023POPC   NC329195  37.963  42.207   9.461
 2023POPC   PO429196  37.428  42.569   9.610
 2023POPC   GL129197  37.567  42.410   9.179
 2023POPC   GL229198  37.597  42.034   9.138
 2023POPC   C1A29199  37.831  42.352   8.783
 2023POPC   D2A29200  38.037  42.338   8.385
 2023POPC   C3A29201  37.771  42.436   8.012
 2023POPC   C4A29202  37.591  42.540   7.614
 2023POPC   C1B29203  37.394  42.086   8.764
 2023POPC   C2B29204  37.476  42.230   8.370
 2023POPC   C3B29205  37.484  41.969   7.982
 2023POPC   C4B29206  37.706  41.948   7.609
 2024POPC   NC329207  40.737  14.252   9.732
 2024POPC   PO429208  40.208  14.190   9.556
 2024POPC   GL129209  40.551  14.120   9.269
 2024POPC   GL229210  40.718  14.432   9.245
 2024POPC   C1A29211  40.583  14.097   8.830
 2024POPC   D2A29212  40.348  14.347   8.532
 2024POPC   C3A29213  40.194  14.121   8.157
 2024POPC   C4A29214  40.362  14.165   7.723
 2024POPC   C1B29215  40.825  14.539   8.833
 2024POPC   C2B29216  40.862  14.405   8.410
 2024POPC   C3B29217  40.557  14.456   8.070
 2024POPC   C4B29218  40.526  14.662   7.646
 2025POPC   NC329219   6.048  41.276   9.263
 2025POPC   PO429220   5.533  41.644   9.487
 2025POPC   GL129221   5.636  41.523   9.079
 2025POPC   GL229222   5.571  41.137   9.093
 2025POPC   C1A29223   5.951  41.706   8.781
 2025POPC   D2A29224   6.158  41.576   8.394
 2025POPC   C3A29225   6.030  41.815   8.029
 2025POPC   C4A29226   5.726  41.935   7.683
 2025POPC   C1B29227   5.719  41.234   8.651
 2025POPC   C2B29228   5.977  41.101   8.312
 2025POPC   C3B29229   6.108  41.244   7.933
 2025POPC   C4B29230   5.797  41.432   7.718
 2026POPC   NC329231   7.190   3.683   9.590
 2026POPC   PO429232   7.800   3.450   9.415
 2026POPC   GL129233   7.674   3.619   9.037
 2026POPC   GL229234   7.336   3.663   9.090
 2026POPC   C1A29235   7.545   3.609   8.603
 2026POPC   D2A29236   7.264   3.719   8.290
 2026POPC   C3A29237   7.506   3.604   7.962
 2026POPC   C4A29238   7.471   3.826   7.591
 2026POPC   C1B29239   7.202   3.292   8.832
 2026POPC   C2B29240   7.284   3.179   8.381
 2026POPC   C3B29241   7.091   3.288   7.999
 2026POPC   C4B29242   7.245   3.355   7.597
 2027POPC   NC329243  19.368  24.201   9.419
 2027POPC   PO429244  19.316  23.453   9.394
 2027POPC   GL129245  19.065  23.497   9.026
 2027POPC   GL229246  18.972  23.818   9.129
 2027POPC   C1A29247  19.069  23.679   8.604
 2027POPC   D2A29248  19.413  23.798   8.314
 2027POPC   C3A29249  19.379  23.570   7.927
 2027POPC   C4A29250  19.054  23.608   7.597
 2027POPC   C1B29251  18.714  24.038   8.828
 2027POPC   C2B29252  18.627  23.888   8.435
 2027POPC   C3B29253  18.911  23.821   8.075
 2027POPC   C4B29254  18.848  24.051   7.727
 2028POPC   NC329255  40.622  36.465   9.464
 2028POPC   PO429256  41.150  36.037   9.359
 2028POPC   GL129257  40.853  36.020   9.029
 2028POPC   GL229258  40.732  36.373   8.980
 2028POPC   C1A29259  40.744  36.051   8.586
 2028POPC   D2A29260  40.711  35.817   8.226
 2028POPC   C3A29261  41.014  35.935   7.889
 2028POPC   C4A29262  40.953  36.030   7.435
 2028POPC   C1B29263  40.344  36.140   8.886
 2028POPC   C2B29264  40.237  36.041   8.463
 2028POPC   C3B29265  40.396  36.209   8.092
 2028POPC   C4B29266  40.536  36.043   7.731
 2029POPC   NC329267  37.794  28.256   9.560
 2029POPC   PO429268  37.180  28.352   9.276
 2029POPC   GL129269  37.637  28.480   9.128
 2029POPC   GL229270  37.960  28.275   9.085
 2029POPC   C1A29271  37.787  28.606   8.728
 2029POPC   D2A29272  37.441  28.630   8.455
 2029POPC   C3A29273  37.458  28.394   8.069
 2029POPC   C4A29274  37.669  28.496   7.689
 2029POPC   C1B29275  37.700  28.097   8.784
 2029POPC   C2B29276  37.824  28.207   8.392
 2029POPC   C3B29277  37.982  28.176   8.003
 2029POPC   C4B29278  37.758  27.999   7.680
 2030POPC   NC329279  39.386  28.196   9.480
 2030POPC   PO429280  39.231  27.514   9.488
 2030POPC   GL129281  39.405  27.719   9.167
 2030POPC   GL229282  39.429  27.439   8.944
 2030POPC   C1A29283  39.229  27.888   8.793
 2030POPC   D2A29284  39.286  27.638   8.417
 2030POPC   C3A29285  39.268  27.988   8.117
 2030POPC   C4A29286  39.224  28.033   7.675
 2030POPC   C1B29287  39.717  27.702   8.727
 2030POPC   C2B29288  39.745  27.812   8.296
 2030POPC   C3B29289  39.529  27.593   7.936
 2030POPC   C4B29290  39.752  27.547   7.554
 2031POPC   NC329291  24.187  18.878   9.469
 2031POPC   PO429292  23.632  19.230   9.421
 2031POPC   GL129293  23.873  19.079   9.102
 2031POPC   GL229294  23.868  18.760   9.099
 2031POPC   C1A29295  23.982  19.212   8.702
 2031POPC   D2A29296  23.756  19.097   8.365
 2031POPC   C3A29297  23.738  19.272   8.003
 2031POPC   C4A29298  23.346  19.400   7.880
 2031POPC   C1B29299  23.841  18.694   8.680
 2031POPC   C2B29300  23.865  18.628   8.246
 2031POPC   C3B29301  23.805  18.759   7.829
 2031POPC   C4B29302  23.863  18.677   7.392
 2032POPC   NC329303  43.530  37.602   9.543
 2032POPC   PO429304  44.127  37.937   9.685
 2032POPC   GL129305  44.053  37.677   9.259
 2032POPC   GL229306  43.802  37.555   9.109
 2032POPC   C1A29307  44.220  37.537   8.842
 2032POPC   D2A29308  44.021  37.690   8.482
 2032POPC   C3A29309  44.136  37.590   8.054
 2032POPC   C4A29310  44.012  37.703   7.656
 2032POPC   C1B29311  43.620  37.432   8.703
 2032POPC   C2B29312  43.657  37.433   8.268
 2032POPC   C3B29313  43.610  37.720   7.979
 2032POPC   C4B29314  43.404  37.728   7.615
 2033POPC   NC329315  37.940  22.131   9.705
 2033POPC   PO429316  37.447  22.372   9.416
 2033POPC   GL129317  37.746  22.080   9.226
 2033POPC   GL229318  37.967  22.337   9.198
 2033POPC   C1A29319  37.908  21.934   8.830
 2033POPC   D2A29320  37.688  22.045   8.451
 2033POPC   C3A29321  37.673  21.863   8.067
 2033POPC   C4A29322  37.582  21.848   7.661
 2033POPC   C1B29323  37.676  22.412   8.816
 2033POPC   C2B29324  37.628  22.564   8.404
 2033POPC   C3B29325  37.591  22.392   7.994
 2033POPC   C4B29326  37.948  22.275   7.791
 2034POPC   NC329327  10.042  28.988   9.468
 2034POPC   PO429328   9.589  29.496   9.672
 2034POPC   GL129329   9.623  29.198   9.239
 2034POPC   GL229330   9.959  29.289   9.078
 2034POPC   C1A29331   9.694  28.989   8.784
 2034POPC   D2A29332   9.750  29.130   8.339
 2034POPC   C3A29333   9.964  28.919   8.019
 2034POPC   C4A29334   9.905  28.903   7.571
 2034POPC   C1B29335  10.135  29.260   8.661
 2034POPC   C2B29336  10.259  29.456   8.273
 2034POPC   C3B29337  10.010  29.430   7.950
 2034POPC   C4B29338   9.636  29.278   7.793
 2035POPC   NC329339  36.639  43.358   9.914
 2035POPC   PO429340  36.812  42.852   9.492
 2035POPC   GL129341  37.075  42.893   9.120
 2035POPC   GL229342  36.838  42.933   8.884
 2035POPC   C1A29343  37.279  43.228   8.862
 2035POPC   D2A29344  37.403  43.144   8.433
 2035POPC   C3A29345  37.025  42.988   8.202
 2035POPC   C4A29346  36.777  43.064   7.792
 2035POPC   C1B29347  36.480  43.051   8.656
 2035POPC   C2B29348  36.561  43.200   8.266
 2035POPC   C3B29349  36.420  43.409   7.900
 2035POPC   C4B29350  36.228  43.227   7.536
 2036POPC   NC329351  42.436  34.929   9.797
 2036POPC   PO429352  42.377  35.601   9.618
 2036POPC   GL129353  42.302  35.450   9.172
 2036POPC   GL229354  42.438  35.139   9.120
 2036POPC   C1A29355  42.145  35.284   8.746
 2036POPC   D2A29356  42.292  35.413   8.348
 2036POPC   C3A29357  42.165  35.267   7.947
 2036POPC   C4A29358  42.167  35.512   7.576
 2036POPC   C1B29359  42.677  35.189   8.749
 2036POPC   C2B29360  42.749  35.144   8.321
 2036POPC   C3B29361  42.700  35.377   7.967
 2036POPC   C4B29362  42.585  35.230   7.578
 2037POPC   NC329363  28.017  18.542   9.260
 2037POPC   PO429364  28.322  18.095   9.639
 2037POPC   GL129365  28.467  18.250   9.223
 2037POPC   GL229366  28.718  18.500   9.091
 2037POPC   C1A29367  28.368  18.196   8.781
 2037POPC   D2A29368  28.177  18.025   8.405
 2037POPC   C3A29369  28.295  18.168   7.982
 2037POPC   C4A29370  28.314  18.159   7.514
 2037POPC   C1B29371  28.475  18.709   8.749
 2037POPC   C2B29372  28.088  18.576   8.501
 2037POPC   C3B29373  27.990  18.576   8.058
 2037POPC   C4B29374  28.369  18.630   7.742
 2038POPC   NC329375  33.278  39.068   9.820
 2038POPC   PO429376  32.640  39.010   9.489
 2038POPC   GL129377  32.843  38.952   9.105
 2038POPC   GL229378  32.933  39.287   9.067
 2038POPC   C1A29379  33.002  38.994   8.671
 2038POPC   D2A29380  32.836  39.176   8.323
 2038POPC   C3A29381  33.037  39.044   7.966
 2038POPC   C4A29382  33.324  38.991   7.631
 2038POPC   C1B29383  33.129  39.574   8.764
 2038POPC   C2B29384  33.316  39.571   8.352
 2038POPC   C3B29385  33.404  39.442   7.935
 2038POPC   C4B29386  33.083  39.426   7.618
 2039POPC   NC329387  18.530  30.256   9.359
 2039POPC   PO429388  18.083  30.859   9.453
 2039POPC   GL129389  18.358  30.689   9.146
 2039POPC   GL229390  18.530  30.935   8.985
 2039POPC   C1A29391  18.460  30.461   8.729
 2039POPC   D2A29392  18.601  30.656   8.340
 2039POPC   C3A29393  18.582  30.472   7.959
 2039POPC   C4A29394  18.187  30.512   7.802
 2039POPC   C1B29395  18.187  30.886   8.700
 2039POPC   C2B29396  18.221  31.051   8.314
 2039POPC   C3B29397  18.410  30.971   7.951
 2039POPC   C4B29398  18.448  31.102   7.550
 2040POPC   NC329399  10.064  22.363   9.529
 2040POPC   PO429400   9.516  21.902   9.582
 2040POPC   GL129401   9.810  21.967   9.248
 2040POPC   GL229402   9.768  22.254   9.005
 2040POPC   C1A29403   9.857  21.794   8.825
 2040POPC   D2A29404   9.954  22.115   8.516
 2040POPC   C3A29405   9.930  22.071   8.064
 2040POPC   C4A29406   9.611  21.973   7.762
 2040POPC   C1B29407   9.465  22.547   8.771
 2040POPC   C2B29408   9.394  22.741   8.365
 2040POPC   C3B29409   9.545  22.649   7.955
 2040POPC   C4B29410   9.822  22.443   7.681
 2041POPC   NC329411  25.554  31.417   9.653
 2041POPC   PO429412  25.090  31.764   9.407
 2041POPC   GL129413  25.344  31.479   9.150
 2041POPC   GL229414  25.674  31.634   9.209
 2041POPC   C1A29415  25.269  31.538   8.695
 2041POPC   D2A29416  24.928  31.556   8.392
 2041POPC   C3A29417  25.088  31.430   8.006
 2041POPC   C4A29418  25.231  31.302   7.604
 2041POPC   C1B29419  25.787  31.808   8.822
 2041POPC   C2B29420  25.555  31.898   8.463
 2041POPC   C3B29421  25.742  31.856   8.069
 2041POPC   C4B29422  25.426  31.810   7.756
 2042POPC   NC329423  14.434  31.765   9.651
 2042POPC   PO429424  14.375  32.373   9.393
 2042POPC   GL129425  14.283  32.137   9.074
 2042POPC   GL229426  13.963  31.985   9.218
 2042POPC   C1A29427  14.473  32.261   8.681
 2042POPC   D2A29428  14.414  32.654   8.424
 2042POPC   C3A29429  14.431  32.491   8.011
 2042POPC   C4A29430  14.600  32.067   7.857
 2042POPC   C1B29431  13.888  32.063   8.772
 2042POPC   C2B29432  14.055  32.255   8.400
 2042POPC   C3B29433  14.111  32.079   8.033
 2042POPC   C4B29434  13.969  31.893   7.662
 2043POPC   NC329435   9.231   3.724   9.381
 2043POPC   PO429436   9.941   3.633   9.475
 2043POPC   GL129437   9.750   3.525   9.093
 2043POPC   GL229438   9.646   3.835   9.087
 2043POPC   C1A29439   9.852   3.504   8.661
 2043POPC   D2A29440   9.768   3.648   8.260
 2043POPC   C3A29441   9.914   3.379   8.001
 2043POPC   C4A29442   9.826   3.228   7.637
 2043POPC   C1B29443  10.026   3.955   8.842
 2043POPC   C2B29444  10.169   3.946   8.400
 2043POPC   C3B29445  10.163   3.837   7.964
 2043POPC   C4B29446   9.789   3.762   7.711
 2044POPC   NC329447  32.563  26.753   9.395
 2044POPC   PO429448  32.088  27.092   9.741
 2044POPC   GL129449  32.311  27.129   9.199
 2044POPC   GL229450  32.301  26.814   8.978
 2044POPC   C1A29451  32.570  27.070   8.691
 2044POPC   D2A29452  32.412  26.715   8.379
 2044POPC   C3A29453  32.446  26.897   7.942
 2044POPC   C4A29454  32.261  27.004   7.512
 2044POPC   C1B29455  32.006  26.590   8.713
 2044POPC   C2B29456  31.874  26.701   8.335
 2044POPC   C3B29457  31.788  26.530   7.965
 2044POPC   C4B29458  32.146  26.541   7.706
 2045POPC   NC329459  10.046  30.971   9.283
 2045POPC   PO429460   9.804  30.307   9.546
 2045POPC   GL129461   9.781  30.545   9.210
 2045POPC   GL229462  10.104  30.475   9.127
 2045POPC   C1A29463   9.747  30.684   8.774
 2045POPC   D2A29464   9.547  30.835   8.400
 2045POPC   C3A29465   9.668  30.736   8.012
 2045POPC   C4A29466   9.533  30.708   7.623
 2045POPC   C1B29467  10.099  30.298   8.720
 2045POPC   C2B29468   9.872  30.405   8.357
 2045POPC   C3B29469  10.026  30.377   7.967
 2045POPC   C4B29470  10.043  30.646   7.656
 2046POPC   NC329471  32.427  39.476   9.489
 2046POPC   PO429472  31.905  38.889   9.588
 2046POPC   GL129473  32.234  39.079   9.181
 2046POPC   GL229474  32.287  39.442   9.024
 2046POPC   C1A29475  32.493  39.104   8.735
 2046POPC   D2A29476  32.326  38.992   8.297
 2046POPC   C3A29477  32.523  39.066   7.902
 2046POPC   C4A29478  32.553  39.433   7.610
 2046POPC   C1B29479  32.040  39.416   8.706
 2046POPC   C2B29480  32.022  39.533   8.324
 2046POPC   C3B29481  32.195  39.452   7.983
 2046POPC   C4B29482  31.944  39.473   7.652
 2047POPC   NC329483   8.164  26.192   9.632
 2047POPC   PO429484   8.458  26.868   9.481
 2047POPC   GL129485   8.412  26.824   9.063
 2047POPC   GL229486   8.085  26.777   9.042
 2047POPC   C1A29487   8.305  26.902   8.607
 2047POPC   D2A29488   7.945  26.867   8.296
 2047POPC   C3A29489   8.149  26.992   7.948
 2047POPC   C4A29490   8.500  26.808   7.787
 2047POPC   C1B29491   7.962  26.543   8.687
 2047POPC   C2B29492   8.046  26.349   8.277
 2047POPC   C3B29493   7.974  26.531   7.867
 2047POPC   C4B29494   8.094  26.769   7.480
 2048POPC   NC329495  13.106  11.443   9.482
 2048POPC   PO429496  13.558  11.061   9.707
 2048POPC   GL129497  13.478  11.232   9.199
 2048POPC   GL229498  13.730  11.443   9.051
 2048POPC   C1A29499  13.413  11.351   8.697
 2048POPC   D2A29500  13.612  11.532   8.326
 2048POPC   C3A29501  13.786  11.271   8.053
 2048POPC   C4A29502  13.508  11.398   7.742
 2048POPC   C1B29503  13.960  11.390   8.665
 2048POPC   C2B29504  14.135  11.650   8.313
 2048POPC   C3B29505  14.048  11.665   7.888
 2048POPC   C4B29506  13.889  11.776   7.517
 2049POPC   NC329507  30.094  17.648   9.396
 2049POPC   PO429508  29.672  17.225   9.426
 2049POPC   GL129509  29.662  17.471   9.098
 2049POPC   GL229510  29.909  17.273   8.926
 2049POPC   C1A29511  29.669  17.666   8.715
 2049POPC   D2A29512  29.925  17.498   8.391
 2049POPC   C3A29513  29.800  17.503   7.971
 2049POPC   C4A29514  29.929  17.224   7.631
 2049POPC   C1B29515  30.238  17.575   8.788
 2049POPC   C2B29516  30.423  17.740   8.420
 2049POPC   C3B29517  30.163  17.853   8.097
 2049POPC   C4B29518  30.156  17.700   7.690
 2050POPC   NC329519   2.518  22.517   9.517
 2050POPC   PO429520   2.955  23.120   9.570
 2050POPC   GL129521   2.656  23.008   9.271
 2050POPC   GL229522   2.859  22.739   9.178
 2050POPC   C1A29523   2.583  23.040   8.811
 2050POPC   D2A29524   2.649  22.912   8.388
 2050POPC   C3A29525   2.579  23.128   7.982
 2050POPC   C4A29526   2.866  23.296   7.683
 2050POPC   C1B29527   3.069  22.808   8.781
 2050POPC   C2B29528   3.028  22.585   8.387
 2050POPC   C3B29529   3.122  22.568   7.971
 2050POPC   C4B29530   3.042  22.826   7.669
 2051POPC   NC329531  31.390  16.251   9.576
 2051POPC   PO429532  31.307  16.911   9.548
 2051POPC   GL129533  31.257  16.832   9.138
 2051POPC   GL229534  31.128  16.509   9.122
 2051POPC   C1A29535  31.590  16.862   8.835
 2051POPC   D2A29536  31.742  16.628   8.490
 2051POPC   C3A29537  31.753  16.799   8.071
 2051POPC   C4A29538  31.815  16.529   7.722
 2051POPC   C1B29539  31.253  16.534   8.675
 2051POPC   C2B29540  31.269  16.726   8.265
 2051POPC   C3B29541  31.222  16.649   7.830
 2051POPC   C4B29542  30.961  16.353   7.564
 2052POPC   NC329543  29.369  13.129   9.303
 2052POPC   PO429544  29.202  13.769   9.552
 2052POPC   GL129545  29.214  13.723   9.133
 2052POPC   GL229546  28.971  13.483   9.180
 2052POPC   C1A29547  29.402  13.888   8.738
 2052POPC   D2A29548  29.188  13.816   8.358
 2052POPC   C3A29549  29.274  13.511   8.082
 2052POPC   C4A29550  29.335  13.652   7.710
 2052POPC   C1B29551  28.919  13.617   8.745
 2052POPC   C2B29552  28.687  13.816   8.396
 2052POPC   C3B29553  28.804  13.704   7.990
 2052POPC   C4B29554  28.896  13.309   7.813
 2053POPC   NC329555  10.715   1.594   9.457
 2053POPC   PO429556  10.158   1.220   9.456
 2053POPC   GL129557  10.377   1.123   9.105
 2053POPC   GL229558  10.731   1.154   9.168
 2053POPC   C1A29559  10.451   0.920   8.702
 2053POPC   D2A29560  10.219   0.936   8.309
 2053POPC   C3A29561  10.443   1.075   7.959
 2053POPC   C4A29562  10.430   1.171   7.497
 2053POPC   C1B29563  10.795   1.283   8.746
 2053POPC   C2B29564  10.821   1.024   8.376
 2053POPC   C3B29565  10.908   1.229   8.064
 2053POPC   C4B29566  10.766   1.440   7.740
 2054POPC   NC329567  44.399  11.277   9.617
 2054POPC   PO429568  44.691  11.760   9.649
 2054POPC   GL129569  44.674  11.537   9.203
 2054POPC   GL229570  44.519  11.215   9.108
 2054POPC   C1A29571  44.585  11.529   8.728
 2054POPC   D2A29572  44.630  11.190   8.403
 2054POPC   C3A29573  44.735  11.382   8.002
 2054POPC   C4A29574  44.991  11.751   7.873
 2054POPC   C1B29575  44.940  11.195   8.857
 2054POPC   C2B29576   0.147  11.047   8.455
 2054POPC   C3B29577  44.975  10.932   8.055
 2054POPC   C4B29578  44.648  10.928   7.732
 2055POPC   NC329579   7.623   4.849   9.811
 2055POPC   PO429580   7.154   5.079   9.409
 2055POPC   GL129581   7.452   5.247   9.106
 2055POPC   GL229582   7.347   4.990   8.906
 2055POPC   C1A29583   7.704   5.264   8.717
 2055POPC   D2A29584   7.490   5.359   8.319
 2055POPC   C3A29585   7.532   5.076   7.999
 2055POPC   C4A29586   7.645   4.993   7.560
 2055POPC   C1B29587   7.117   5.217   8.660
 2055POPC   C2B29588   7.076   4.984   8.320
 2055POPC   C3B29589   7.015   5.110   7.933
 2055POPC   C4B29590   7.153   4.823   7.693
 2056POPC   NC329591   9.517  43.003   9.537
 2056POPC   PO429592  10.129  42.651   9.616
 2056POPC   GL129593   9.920  42.931   9.210
 2056POPC   GL229594   9.648  43.227   9.118
 2056POPC   C1A29595   9.811  42.907   8.749
 2056POPC   D2A29596   9.942  42.734   8.337
 2056POPC   C3A29597   9.817  42.926   7.979
 2056POPC   C4A29598   9.423  42.984   7.820
 2056POPC   C1B29599   9.432  43.422   8.777
 2056POPC   C2B29600   9.446  43.275   8.359
 2056POPC   C3B29601   9.650  43.416   7.998
 2056POPC   C4B29602   9.909  43.320   7.666
 2057POPC   NC329603  25.607   5.885   9.608
 2057POPC   PO429604  26.264   6.047   9.430
 2057POPC   GL129605  26.149   5.949   9.063
 2057POPC   GL229606  25.768   5.927   9.061
 2057POPC   C1A29607  26.118   6.091   8.662
 2057POPC   D2A29608  25.898   5.874   8.346
 2057POPC   C3A29609  26.182   5.849   8.019
 2057POPC   C4A29610  26.383   5.507   7.796
 2057POPC   C1B29611  25.650   6.263   8.717
 2057POPC   C2B29612  25.828   6.364   8.311
 2057POPC   C3B29613  25.604   6.347   7.940
 2057POPC   C4B29614  25.798   6.026   7.689
 2058POPC   NC329615  28.923   5.628   9.548
 2058POPC   PO429616  29.552   5.800   9.394
 2058POPC   GL129617  29.216   5.870   9.139
 2058POPC   GL229618  29.348   6.222   9.118
 2058POPC   C1A29619  29.049   5.705   8.746
 2058POPC   D2A29620  29.076   5.827   8.307
 2058POPC   C3A29621  28.859   5.637   7.917
 2058POPC   C4A29622  29.164   5.569   7.576
 2058POPC   C1B29623  29.171   6.190   8.686
 2058POPC   C2B29624  29.285   6.286   8.233
 2058POPC   C3B29625  29.098   6.075   7.845
 2058POPC   C4B29626  29.152   6.049   7.397
 2059POPC   NC329627   4.271  30.485   9.631
 2059POPC   PO429628   4.343  29.776   9.421
 2059POPC   GL129629   4.146  29.863   9.025
 2059POPC   GL229630   4.328  30.141   9.027
 2059POPC   C1A29631   4.181  29.895   8.597
 2059POPC   D2A29632   4.578  29.722   8.507
 2059POPC   C3A29633   4.575  29.657   8.082
 2059POPC   C4A29634   4.239  29.841   7.859
 2059POPC   C1B29635   4.543  30.252   8.643
 2059POPC   C2B29636   4.423  30.187   8.224
 2059POPC   C3B29637   4.256  30.349   7.829
 2059POPC   C4B29638   4.459  30.297   7.430
 2060POPC   NC329639  36.964  23.382   9.521
 2060POPC   PO429640  36.497  23.896   9.674
 2060POPC   GL129641  36.612  23.604   9.253
 2060POPC   GL229642  36.986  23.680   9.089
 2060POPC   C1A29643  36.645  23.552   8.760
 2060POPC   D2A29644  36.977  23.613   8.434
 2060POPC   C3A29645  36.776  23.567   8.023
 2060POPC   C4A29646  36.417  23.770   7.893
 2060POPC   C1B29647  37.262  23.954   8.796
 2060POPC   C2B29648  37.247  24.055   8.333
 2060POPC   C3B29649  37.209  23.814   7.935
 2060POPC   C4B29650  37.214  23.918   7.456
 2061POPC   NC329651  19.794  38.238   9.404
 2061POPC   PO429652  19.543  38.833   9.389
 2061POPC   GL129653  19.764  38.624   9.053
 2061POPC   GL229654  20.101  38.696   8.958
 2061POPC   C1A29655  19.805  38.472   8.642
 2061POPC   D2A29656  19.766  38.605   8.267
 2061POPC   C3A29657  19.857  38.391   7.957
 2061POPC   C4A29658  19.647  38.283   7.613
 2061POPC   C1B29659  20.220  38.239   8.793
 2061POPC   C2B29660  20.051  38.096   8.374
 2061POPC   C3B29661  20.224  38.061   7.974
 2061POPC   C4B29662  20.152  38.240   7.533
 2062POPC   NC329663  40.187   5.422   9.482
 2062POPC   PO429664  39.951   5.996   9.408
 2062POPC   GL129665  39.698   5.774   9.130
 2062POPC   GL229666  39.610   5.472   9.360
 2062POPC   C1A29667  39.710   5.771   8.646
 2062POPC   D2A29668  39.990   5.662   8.248
 2062POPC   C3A29669  40.006   5.866   7.793
 2062POPC   C4A29670  40.157   5.915   7.345
 2062POPC   C1B29671  39.468   5.387   8.924
 2062POPC   C2B29672  39.696   5.286   8.529
 2062POPC   C3B29673  39.585   5.398   8.124
 2062POPC   C4B29674  39.571   5.605   7.772
 2063POPC   NC329675  12.547   0.463   9.442
 2063POPC   PO429676  13.053   0.860   9.413
 2063POPC   GL129677  12.915   0.603   9.075
 2063POPC   GL229678  12.650   0.766   8.959
 2063POPC   C1A29679  12.825   0.375   8.657
 2063POPC   D2A29680  12.943   0.429   8.248
 2063POPC   C3A29681  12.806   0.181   7.924
 2063POPC   C4A29682  12.700   0.245   7.515
 2063POPC   C1B29683  13.039   0.832   8.630
 2063POPC   C2B29684  13.082   0.903   8.180
 2063POPC   C3B29685  12.968   0.690   7.793
 2063POPC   C4B29686  13.075   0.709   7.375
 2064POPC   NC329687   2.116  30.212   9.455
 2064POPC   PO429688   1.646  29.710   9.468
 2064POPC   GL129689   1.859  29.657   9.043
 2064POPC   GL229690   2.228  29.635   9.068
 2064POPC   C1A29691   2.025  29.957   8.721
 2064POPC   D2A29692   1.962  30.213   8.352
 2064POPC   C3A29693   2.132  30.091   7.951
 2064POPC   C4A29694   1.947  30.253   7.549
 2064POPC   C1B29695   2.195  29.473   8.655
 2064POPC   C2B29696   2.014  29.668   8.283
 2064POPC   C3B29697   1.695  29.856   8.017
 2064POPC   C4B29698   1.892  29.758   7.627
 2065POPC   NC329699   9.122  36.420   9.367
 2065POPC   PO429700   8.706  36.034   9.724
 2065POPC   GL129701   8.800  36.061   9.217
 2065POPC   GL229702   8.757  36.408   8.983
 2065POPC   C1A29703   9.002  36.025   8.799
 2065POPC   D2A29704   8.983  36.218   8.369
 2065POPC   C3A29705   9.155  35.982   8.022
 2065POPC   C4A29706   9.335  35.935   7.603
 2065POPC   C1B29707   8.831  36.654   8.602
 2065POPC   C2B29708   8.994  36.779   8.198
 2065POPC   C3B29709   8.963  36.519   7.825
 2065POPC   C4B29710   8.732  36.155   7.693
 2066POPC   NC329711   1.749  22.145   9.676
 2066POPC   PO429712   1.383  22.499   9.228
 2066POPC   GL129713   1.342  22.091   9.059
 2066POPC   GL229714   1.043  21.900   9.135
 2066POPC   C1A29715   1.441  22.140   8.649
 2066POPC   D2A29716   1.411  22.326   8.255
 2066POPC   C3A29717   1.513  22.070   7.924
 2066POPC   C4A29718   1.309  22.275   7.594
 2066POPC   C1B29719   0.938  21.988   8.714
 2066POPC   C2B29720   0.883  22.199   8.317
 2066POPC   C3B29721   0.990  22.039   7.917
 2066POPC   C4B29722   0.993  21.894   7.487
 2067POPC   NC329723  11.623   1.187   9.559
 2067POPC   PO429724  11.137   1.558   9.257
 2067POPC   GL129725  11.550   1.442   9.110
 2067POPC   GL229726  11.493   1.074   9.095
 2067POPC   C1A29727  11.549   1.587   8.709
 2067POPC   D2A29728  11.229   1.404   8.461
 2067POPC   C3A29729  11.341   1.476   8.047
 2067POPC   C4A29730  11.250   1.220   7.689
 2067POPC   C1B29731  11.690   1.048   8.723
 2067POPC   C2B29732  11.726   1.246   8.341
 2067POPC   C3B29733  11.629   1.017   8.002
 2067POPC   C4B29734  11.680   0.920   7.599
 2068POPC   NC329735  37.692  34.316   9.456
 2068POPC   PO429736  37.942  34.935   9.438
 2068POPC   GL129737  37.695  34.739   9.118
 2068POPC   GL229738  37.765  34.358   8.969
 2068POPC   C1A29739  37.566  34.735   8.689
 2068POPC   D2A29740  37.697  34.404   8.411
 2068POPC   C3A29741  37.597  34.374   7.985
 2068POPC   C4A29742  37.494  34.732   7.747
 2068POPC   C1B29743  38.068  34.574   8.803
 2068POPC   C2B29744  38.085  34.782   8.445
 2068POPC   C3B29745  37.912  34.767   8.052
 2068POPC   C4B29746  38.145  34.671   7.702
 2069POPC   NC329747  14.169   4.948   9.855
 2069POPC   PO429748  14.597   5.421   9.601
 2069POPC   GL129749  14.543   5.046   9.296
 2069POPC   GL229750  14.804   5.083   9.095
 2069POPC   C1A29751  14.490   4.793   8.861
 2069POPC   D2A29752  14.322   4.617   8.458
 2069POPC   C3A29753  14.443   4.812   8.019
 2069POPC   C4A29754  14.249   5.120   7.716
 2069POPC   C1B29755  14.901   5.063   8.652
 2069POPC   C2B29756  14.823   5.124   8.205
 2069POPC   C3B29757  14.773   5.152   7.787
 2069POPC   C4B29758  14.632   4.865   7.506
 2070POPC   NC329759  11.686  27.961   9.902
 2070POPC   PO429760  12.166  27.619   9.487
 2070POPC   GL129761  12.040  27.663   9.081
 2070POPC   GL229762  12.268  27.955   9.065
 2070POPC   C1A29763  11.990  27.447   8.695
 2070POPC   D2A29764  12.166  27.459   8.286
 2070POPC   C3A29765  12.005  27.240   7.921
 2070POPC   C4A29766  12.362  27.296   7.665
 2070POPC   C1B29767  12.373  27.797   8.685
 2070POPC   C2B29768  12.451  27.942   8.279
 2070POPC   C3B29769  12.213  27.816   7.914
 2070POPC   C4B29770  11.779  27.679   7.830
 2071POPC   NC329771   1.755  31.705   9.442
 2071POPC   PO429772   2.343  31.643   9.757
 2071POPC   GL129773   2.082  31.344   9.319
 2071POPC   GL229774   1.823  31.231   9.169
 2071POPC   C1A29775   2.138  31.370   8.797
 2071POPC   D2A29776   2.183  31.266   8.333
 2071POPC   C3A29777   2.204  31.560   7.961
 2071POPC   C4A29778   2.039  31.521   7.566
 2071POPC   C1B29779   1.693  31.117   8.755
 2071POPC   C2B29780   1.573  31.322   8.386
 2071POPC   C3B29781   1.733  31.385   7.988
 2071POPC   C4B29782   1.606  31.251   7.592
 2072POPC   NC329783  13.838  20.627   9.389
 2072POPC   PO429784  13.220  20.317   9.462
 2072POPC   GL129785  13.352  20.656   9.188
 2072POPC   GL229786  13.555  20.389   9.036
 2072POPC   C1A29787  13.602  20.838   8.800
 2072POPC   D2A29788  14.010  20.830   8.513
 2072POPC   C3A29789  13.852  20.793   8.059
 2072POPC   C4A29790  13.494  20.848   7.763
 2072POPC   C1B29791  13.219  20.463   8.741
 2072POPC   C2B29792  13.227  20.742   8.396
 2072POPC   C3B29793  13.309  20.483   8.053
 2072POPC   C4B29794  13.686  20.356   7.814
 2073POPC   NC329795   6.830  30.376   9.429
 2073POPC   PO429796   6.779  31.038   9.584
 2073POPC   GL129797   6.746  30.863   9.165
 2073POPC   GL229798   6.470  30.612   9.081
 2073POPC   C1A29799   6.597  30.933   8.734
 2073POPC   D2A29800   6.380  30.682   8.426
 2073POPC   C3A29801   6.533  30.771   8.051
 2073POPC   C4A29802   6.753  30.780   7.685
 2073POPC   C1B29803   6.684  30.410   8.777
 2073POPC   C2B29804   6.729  30.271   8.380
 2073POPC   C3B29805   6.881  30.395   7.998
 2073POPC   C4B29806   6.733  30.274   7.610
 2074POPC   NC329807   4.215  31.022   9.390
 2074POPC   PO429808   4.630  30.396   9.382
 2074POPC   GL129809   4.295  30.628   9.103
 2074POPC   GL229810   4.315  30.958   8.906
 2074POPC   C1A29811   4.112  30.531   8.705
 2074POPC   D2A29812   4.132  30.641   8.279
 2074POPC   C3A29813   4.502  30.705   8.081
 2074POPC   C4A29814   4.638  30.697   7.687
 2074POPC   C1B29815   4.041  31.057   8.586
 2074POPC   C2B29816   3.838  31.053   8.193
 2074POPC   C3B29817   4.027  30.886   7.815
 2074POPC   C4B29818   4.322  31.050   7.505
 2075POPC   NC329819  29.499  30.192   9.309
 2075POPC   PO429820  30.175  29.972   9.353
 2075POPC   GL129821  29.861  29.874   9.047
 2075POPC   GL229822  29.745  30.171   8.893
 2075POPC   C1A29823  29.862  29.552   8.725
 2075POPC   D2A29824  29.933  29.427   8.312
 2075POPC   C3A29825  29.951  29.702   7.976
 2075POPC   C4A29826  29.609  30.000   7.834
 2075POPC   C1B29827  30.014  30.069   8.598
 2075POPC   C2B29828  30.031  30.166   8.189
 2075POPC   C3B29829  30.118  30.142   7.774
 2075POPC   C4B29830  29.838  30.246   7.448
 2076POPC   NC329831  19.868   0.255   9.483
 2076POPC   PO429832  19.334   0.452   9.581
 2076POPC   GL129833  19.521   0.360   9.132
 2076POPC   GL229834  19.753   0.066   8.975
 2076POPC   C1A29835  19.650   0.472   8.706
 2076POPC   D2A29836  19.802   0.138   8.450
 2076POPC   C3A29837  19.780   0.233   8.030
 2076POPC   C4A29838  19.725   0.680   7.862
 2076POPC   C1B29839  20.149   0.270   8.796
 2076POPC   C2B29840  20.249   0.475   8.390
 2076POPC   C3B29841  20.248   0.493   7.930
 2076POPC   C4B29842  19.997   0.337   7.586
 2077POPC   NC329843  13.193   0.274   9.364
 2077POPC   PO429844  13.848   0.293   9.627
 2077POPC   GL129845  13.771   0.524   9.225
 2077POPC   GL229846  13.497   0.795   9.159
 2077POPC   C1A29847  13.918   0.572   8.788
 2077POPC   D2A29848  13.711   0.540   8.378
 2077POPC   C3A29849  13.964   0.495   7.998
 2077POPC   C4A29850  13.821   0.260   7.669
 2077POPC   C1B29851  13.397   0.512   8.806
 2077POPC   C2B29852  13.353   0.177   8.512
 2077POPC   C3B29853  13.392   0.188   8.072
 2077POPC   C4B29854  13.468   0.611   7.906
 2078POPC   NC329855  31.489  10.201   9.714
 2078POPC   PO429856  31.642  10.817   9.447
 2078POPC   GL129857  31.666  10.637   9.048
 2078POPC   GL229858  31.537  10.351   9.214
 2078POPC   C1A29859  31.583  10.596   8.605
 2078POPC   D2A29860  31.308  10.453   8.277
 2078POPC   C3A29861  31.482  10.660   7.951
 2078POPC   C4A29862  31.744  10.541   7.652
 2078POPC   C1B29863  31.497  10.150   8.816
 2078POPC   C2B29864  31.663  10.113   8.399
 2078POPC   C3B29865  31.670  10.116   7.963
 2078POPC   C4B29866  31.301  10.200   7.753
 2079POPC   NC329867  31.554  35.725   9.384
 2079POPC   PO429868  31.146  36.205   9.269
 2079POPC   GL129869  31.480  36.087   9.043
 2079POPC   GL229870  31.255  35.784   8.974
 2079POPC   C1A29871  31.749  35.987   8.718
 2079POPC   D2A29872  31.680  36.144   8.326
 2079POPC   C3A29873  31.630  35.993   7.927
 2079POPC   C4A29874  31.736  36.229   7.627
 2079POPC   C1B29875  31.211  36.043   8.610
 2079POPC   C2B29876  31.183  35.943   8.196
 2079POPC   C3B29877  31.157  35.909   7.769
 2079POPC   C4B29878  31.216  36.307   7.606
 2080POPC   NC329879  37.924  27.311   9.666
 2080POPC   PO429880  37.565  27.851   9.626
 2080POPC   GL129881  37.679  27.733   9.186
 2080POPC   GL229882  38.005  27.550   9.221
 2080POPC   C1A29883  37.553  27.614   8.730
 2080POPC   D2A29884  37.434  27.865   8.305
 2080POPC   C3A29885  37.398  27.661   7.871
 2080POPC   C4A29886  37.400  27.691   7.406
 2080POPC   C1B29887  38.069  27.728   8.820
 2080POPC   C2B29888  37.939  27.703   8.389
 2080POPC   C3B29889  38.049  27.653   7.968
 2080POPC   C4B29890  37.841  27.511   7.611
 2081POPC   NC329891   3.042  42.249   9.363
 2081POPC   PO429892   3.339  42.843   9.603
 2081POPC   GL129893   3.409  42.605   9.191
 2081POPC   GL229894   3.544  42.273   9.237
 2081POPC   C1A29895   3.743  42.548   8.831
 2081POPC   D2A29896   4.024  42.473   8.501
 2081POPC   C3A29897   3.876  42.473   8.121
 2081POPC   C4A29898   3.778  42.548   7.735
 2081POPC   C1B29899   3.364  42.220   8.824
 2081POPC   C2B29900   3.554  42.244   8.444
 2081POPC   C3B29901   3.580  42.047   8.075
 2081POPC   C4B29902   3.363  42.186   7.724
 2082POPC   NC329903   3.916  22.436   9.408
 2082POPC   PO429904   3.247  22.231   9.552
 2082POPC   GL129905   3.501  22.154   9.185
 2082POPC   GL229906   3.200  22.179   9.029
 2082POPC   C1A29907   3.626  21.992   8.788
 2082POPC   D2A29908   3.538  21.912   8.362
 2082POPC   C3A29909   3.848  22.106   8.070
 2082POPC   C4A29910   3.873  21.981   7.647
 2082POPC   C1B29911   3.138  22.142   8.621
 2082POPC   C2B29912   3.030  22.080   8.202
 2082POPC   C3B29913   3.343  22.075   7.881
 2082POPC   C4B29914   3.462  22.237   7.505
 2083POPC   NC329915  22.775  10.554   9.611
 2083POPC   PO429916  23.215  11.013   9.477
 2083POPC   GL129917  22.998  10.818   9.160
 2083POPC   GL229918  22.659  10.804   9.176
 2083POPC   C1A29919  23.092  10.806   8.752
 2083POPC   D2A29920  22.994  10.969   8.377
 2083POPC   C3A29921  22.981  10.710   8.038
 2083POPC   C4A29922  23.189  10.612   7.672
 2083POPC   C1B29923  22.724  10.457   8.859
 2083POPC   C2B29924  22.685  10.525   8.426
 2083POPC   C3B29925  22.732  10.271   8.089
 2083POPC   C4B29926  22.779  10.334   7.702
 2084POPC   NC329927  32.266  26.028   9.481
 2084POPC   PO429928  32.092  26.667   9.396
 2084POPC   GL129929  32.207  26.350   9.110
 2084POPC   GL229930  32.171  26.002   8.995
 2084POPC   C1A29931  32.449  26.359   8.760
 2084POPC   D2A29932  32.257  26.131   8.469
 2084POPC   C3A29933  32.336  26.249   8.085
 2084POPC   C4A29934  32.037  26.057   7.845
 2084POPC   C1B29935  32.538  25.839   8.786
 2084POPC   C2B29936  32.685  25.845   8.327
 2084POPC   C3B29937  32.475  25.759   7.917
 2084POPC   C4B29938  32.460  25.675   7.450
 2085POPC   NC329939  35.031  33.740   9.367
 2085POPC   PO429940  34.467  33.772   9.688
 2085POPC   GL129941  34.478  33.872   9.227
 2085POPC   GL229942  34.187  34.066   9.121
 2085POPC   C1A29943  34.677  33.744   8.808
 2085POPC   D2A29944  34.800  33.970   8.446
 2085POPC   C3A29945  34.711  33.767   8.061
 2085POPC   C4A29946  34.557  33.900   7.706
 2085POPC   C1B29947  34.165  33.721   8.808
 2085POPC   C2B29948  34.366  33.608   8.406
 2085POPC   C3B29949  34.279  33.449   7.975
 2085POPC   C4B29950  34.232  33.532   7.524
 2086POPC   NC329951  15.395  29.570   9.823
 2086POPC   PO429952  15.022  29.961   9.426
 2086POPC   GL129953  15.098  30.035   9.047
 2086POPC   GL229954  15.442  29.996   9.006
 2086POPC   C1A29955  14.900  30.014   8.667
 2086POPC   D2A29956  14.909  29.677   8.381
 2086POPC   C3A29957  15.194  29.772   8.080
 2086POPC   C4A29958  14.969  29.924   7.727
 2086POPC   C1B29959  15.406  29.772   8.611
 2086POPC   C2B29960  15.688  29.807   8.275
 2086POPC   C3B29961  15.713  30.074   7.918
 2086POPC   C4B29962  15.470  29.838   7.646
 2087POPC   NC329963  38.099   9.849   9.609
 2087POPC   PO429964  37.463   9.798   9.449
 2087POPC   GL129965  37.834   9.759   9.168
 2087POPC   GL229966  38.092   9.480   9.207
 2087POPC   C1A29967  37.989   9.881   8.735
 2087POPC   D2A29968  37.809   9.731   8.333
 2087POPC   C3A29969  37.685   9.915   7.924
 2087POPC   C4A29970  37.510   9.954   7.469
 2087POPC   C1B29971  37.970   9.368   8.728
 2087POPC   C2B29972  37.979   9.263   8.258
 2087POPC   C3B29973  37.733   9.387   7.898
 2087POPC   C4B29974  37.454   9.453   7.541
 2088POPC   NC329975  41.815  27.891   9.885
 2088POPC   PO429976  41.943  28.487   9.456
 2088POPC   GL129977  41.516  28.345   9.239
 2088POPC   GL229978  41.734  28.276   9.010
 2088POPC   C1A29979  41.311  28.247   8.785
 2088POPC   D2A29980  41.488  28.192   8.329
 2088POPC   C3A29981  41.573  28.433   7.956
 2088POPC   C4A29982  41.478  28.269   7.543
 2088POPC   C1B29983  41.753  28.475   8.655
 2088POPC   C2B29984  41.966  28.562   8.302
 2088POPC   C3B29985  41.940  28.807   7.930
 2088POPC   C4B29986  41.845  28.631   7.546
 2089POPC   NC329987  32.371  32.956   9.555
 2089POPC   PO429988  32.166  33.521   9.659
 2089POPC   GL129989  32.023  33.250   9.253
 2089POPC   GL229990  32.022  32.875   9.199
 2089POPC   C1A29991  32.286  33.171   8.852
 2089POPC   D2A29992  32.560  33.274   8.493
 2089POPC   C3A29993  32.330  33.261   8.088
 2089POPC   C4A29994  32.199  33.298   7.657
 2089POPC   C1B29995  32.074  32.692   8.786
 2089POPC   C2B29996  32.057  32.840   8.361
 2089POPC   C3B29997  32.010  32.879   7.920
 2089POPC   C4B29998  32.061  32.832   7.492
 2090POPC   NC329999  32.779  15.579   9.260
 2090POPC   PO430000  33.147  15.030   9.552
 2090POPC   GL130001  33.184  14.922   9.094
 2090POPC   GL230002  33.088  15.235   9.054
 2090POPC   C1A30003  33.251  14.965   8.665
 2090POPC   D2A30004  33.027  14.821   8.309
 2090POPC   C3A30005  33.133  15.048   7.938
 2090POPC   C4A30006  33.118  14.937   7.540
 2090POPC   C1B30007  33.151  15.475   8.685
 2090POPC   C2B30008  33.080  15.345   8.336
 2090POPC   C3B30009  32.810  15.450   8.043
 2090POPC   C4B30010  32.742  15.286   7.648
 2091POPC   NC330011   0.797  34.215   9.444
 2091POPC   PO430012   0.366  34.629   9.691
 2091POPC   GL130013   0.321  34.714   9.249
 2091POPC   GL230014   0.420  34.398   9.132
 2091POPC   C1A30015   0.363  34.807   8.803
 2091POPC   D2A30016   0.399  34.500   8.468
 2091POPC   C3A30017   0.579  34.672   8.090
 2091POPC   C4A30018   0.257  34.619   7.818
 2091POPC   C1B30019   0.718  34.254   8.795
 2091POPC   C2B30020   0.604  34.006   8.429
 2091POPC   C3B30021   0.470  34.164   8.038
 2091POPC   C4B30022   0.748  34.267   7.719
 2092POPC   NC330023  23.809   9.140   9.428
 2092POPC   PO430024  23.489   8.553   9.452
 2092POPC   GL130025  23.655   8.776   9.087
 2092POPC   GL230026  23.993   8.926   9.015
 2092POPC   C1A30027  23.651   8.867   8.652
 2092POPC   D2A30028  23.747   8.833   8.244
 2092POPC   C3A30029  23.445   8.605   8.070
 2092POPC   C4A30030  23.422   8.888   7.749
 2092POPC   C1B30031  23.943   9.298   8.712
 2092POPC   C2B30032  23.813   9.364   8.244
 2092POPC   C3B30033  23.867   9.158   7.804
 2092POPC   C4B30034  23.755   9.404   7.363
 2093POPC   NC330035   2.928  29.637   9.556
 2093POPC   PO430036   2.540  30.132   9.620
 2093POPC   GL130037   2.609  29.911   9.255
 2093POPC   GL230038   2.942  29.971   9.180
 2093POPC   C1A30039   2.572  29.951   8.812
 2093POPC   D2A30040   2.515  29.807   8.413
 2093POPC   C3A30041   2.633  30.037   8.059
 2093POPC   C4A30042   2.503  29.849   7.694
 2093POPC   C1B30043   3.083  30.132   8.794
 2093POPC   C2B30044   3.331  30.145   8.434
 2093POPC   C3B30045   3.230  30.009   8.042
 2093POPC   C4B30046   3.002  29.980   7.674
 2094POPC   NC330047   4.458  35.135   9.578
 2094POPC   PO430048   4.070  35.717   9.460
 2094POPC   GL130049   4.215  35.398   9.220
 2094POPC   GL230050   4.559  35.409   9.153
 2094POPC   C1A30051   4.198  35.221   8.822
 2094POPC   D2A30052   4.392  35.383   8.441
 2094POPC   C3A30053   4.179  35.295   8.039
 2094POPC   C4A30054   3.995  35.331   7.631
 2094POPC   C1B30055   4.690  35.105   8.837
 2094POPC   C2B30056   4.652  34.939   8.393
 2094POPC   C3B30057   4.675  35.224   8.032
 2094POPC   C4B30058   4.518  35.203   7.610
 2095POPC   NC330059   3.364  11.877   9.544
 2095POPC   PO430060   4.000  12.140   9.438
 2095POPC   GL130061   3.724  11.984   9.124
 2095POPC   GL230062   3.400  12.130   9.122
 2095POPC   C1A30063   3.798  11.970   8.683
 2095POPC   D2A30064   3.980  11.683   8.383
 2095POPC   C3A30065   3.864  11.970   8.064
 2095POPC   C4A30066   3.503  12.063   7.846
 2095POPC   C1B30067   3.286  11.971   8.754
 2095POPC   C2B30068   3.228  12.149   8.342
 2095POPC   C3B30069   3.044  11.913   8.017
 2095POPC   C4B30070   3.229  11.637   7.740
 2096POPC   NC330071  30.203  37.528   9.520
 2096POPC   PO430072  29.709  37.968   9.472
 2096POPC   GL130073  29.989  37.790   9.125
 2096POPC   GL230074  30.249  37.515   9.034
 2096POPC   C1A30075  29.898  37.751   8.707
 2096POPC   D2A30076  29.732  37.577   8.356
 2096POPC   C3A30077  29.848  37.813   8.024
 2096POPC   C4A30078  29.783  37.510   7.694
 2096POPC   C1B30079  30.409  37.773   8.740
 2096POPC   C2B30080  30.259  37.576   8.374
 2096POPC   C3B30081  30.232  37.511   7.932
 2096POPC   C4B30082  30.212  37.876   7.669
 2097POPC   NC330083  34.272  12.533   9.524
 2097POPC   PO430084  34.729  13.098   9.462
 2097POPC   GL130085  34.621  12.955   9.091
 2097POPC   GL230086  34.583  12.634   9.116
 2097POPC   C1A30087  34.457  13.066   8.703
 2097POPC   D2A30088  34.627  13.223   8.348
 2097POPC   C3A30089  34.583  13.019   8.014
 2097POPC   C4A30090  34.419  13.010   7.630
 2097POPC   C1B30091  34.742  12.632   8.695
 2097POPC   C2B30092  34.559  12.545   8.290
 2097POPC   C3B30093  34.628  12.561   7.843
 2097POPC   C4B30094  34.822  12.738   7.444
 2098POPC   NC330095   1.371  44.518   9.555
 2098POPC   PO430096   0.833  44.834   9.287
 2098POPC   GL130097   1.079  44.518   9.119
 2098POPC   GL230098   1.384  44.711   9.096
 2098POPC   C1A30099   1.206  44.455   8.691
 2098POPC   D2A30100   0.993  44.796   8.459
 2098POPC   C3A30101   1.096  44.777   8.045
 2098POPC   C4A30102   1.035   0.055   7.718
 2098POPC   C1B30103   1.408  44.946   8.751
 2098POPC   C2B30104   1.523  44.829   8.351
 2098POPC   C3B30105   1.526   0.032   7.967
 2098POPC   C4B30106   1.472  44.747   7.650
 2099POPC   NC330107  37.255  16.653   9.466
 2099POPC   PO430108  36.643  16.989   9.464
 2099POPC   GL130109  36.877  16.751   9.163
 2099POPC   GL230110  36.729  16.493   9.012
 2099POPC   C1A30111  37.178  16.569   8.819
 2099POPC   D2A30112  37.236  16.476   8.405
 2099POPC   C3A30113  36.924  16.629   8.120
 2099POPC   C4A30114  37.060  16.602   7.711
 2099POPC   C1B30115  36.775  16.857   8.698
 2099POPC   C2B30116  36.541  16.940   8.361
 2099POPC   C3B30117  36.370  16.973   7.988
 2099POPC   C4B30118  36.464  16.960   7.519
 2100POPC   NC330119  33.233  26.015   9.476
 2100POPC   PO430120  32.629  26.311   9.400
 2100POPC   GL130121  32.982  26.285   9.121
 2100POPC   GL230122  33.002  25.917   9.014
 2100POPC   C1A30123  33.353  26.244   8.822
 2100POPC   D2A30124  33.316  25.945   8.466
 2100POPC   C3A30125  33.368  26.045   8.056
 2100POPC   C4A30126  33.313  26.409   7.853
 2100POPC   C1B30127  32.895  26.180   8.645
 2100POPC   C2B30128  32.801  26.365   8.285
 2100POPC   C3B30129  32.867  26.147   7.928
 2100POPC   C4B30130  32.972  25.749   7.777
 2101POPC   NC330131  36.406  30.373   9.557
 2101POPC   PO430132  35.817  30.635   9.542
 2101POPC   GL130133  36.091  30.699   9.197
 2101POPC   GL230134  36.061  30.370   9.159
 2101POPC   C1A30135  36.029  30.733   8.723
 2101POPC   D2A30136  36.232  31.024   8.392
 2101POPC   C3A30137  36.019  31.117   8.022
 2101POPC   C4A30138  36.199  30.950   7.666
 2101POPC   C1B30139  36.395  30.402   8.875
 2101POPC   C2B30140  36.311  30.377   8.450
 2101POPC   C3B30141  36.182  30.604   8.086
 2101POPC   C4B30142  36.230  30.444   7.675
 2102POPC   NC330143  14.836  21.782   9.528
 2102POPC   PO430144  15.186  22.291   9.526
 2102POPC   GL130145  15.115  22.206   9.145
 2102POPC   GL230146  15.229  21.847   9.192
 2102POPC   C1A30147  14.969  22.370   8.730
 2102POPC   D2A30148  15.141  22.406   8.302
 2102POPC   C3A30149  14.972  22.270   7.896
 2102POPC   C4A30150  15.168  22.181   7.483
 2102POPC   C1B30151  15.338  21.939   8.764
 2102POPC   C2B30152  15.294  21.834   8.342
 2102POPC   C3B30153  15.180  21.803   7.919
 2102POPC   C4B30154  15.444  21.783   7.567
 2103POPC   NC330155  32.137  14.138   9.492
 2103POPC   PO430156  32.619  14.546   9.727
 2103POPC   GL130157  32.475  14.496   9.257
 2103POPC   GL230158  32.198  14.692   9.099
 2103POPC   C1A30159  32.391  14.304   8.817
 2103POPC   D2A30160  32.144  14.394   8.435
 2103POPC   C3A30161  32.343  14.532   8.063
 2103POPC   C4A30162  32.240  14.424   7.665
 2103POPC   C1B30163  32.335  14.808   8.661
 2103POPC   C2B30164  32.025  14.873   8.330
 2103POPC   C3B30165  31.851  14.650   7.987
 2103POPC   C4B30166  31.863  14.769   7.590
 2104POPC   NC330167  16.520   5.975   9.449
 2104POPC   PO430168  17.020   6.374   9.234
 2104POPC   GL130169  17.025   5.960   9.074
 2104POPC   GL230170  16.808   5.674   9.147
 2104POPC   C1A30171  16.849   5.868   8.663
 2104POPC   D2A30172  16.671   5.860   8.250
 2104POPC   C3A30173  16.829   6.056   7.892
 2104POPC   C4A30174  16.494   6.311   7.741
 2104POPC   C1B30175  16.578   5.469   8.798
 2104POPC   C2B30176  16.521   5.387   8.378
 2104POPC   C3B30177  16.442   5.481   7.946
 2104POPC   C4B30178  16.596   5.660   7.575
 2105POPC   NC330179  35.388  37.479   9.429
 2105POPC   PO430180  35.465  38.068   9.713
 2105POPC   GL130181  35.420  37.956   9.210
 2105POPC   GL230182  35.567  37.698   8.988
 2105POPC   C1A30183  35.182  37.974   8.792
 2105POPC   D2A30184  35.457  37.951   8.425
 2105POPC   C3A30185  35.339  37.851   7.996
 2105POPC   C4A30186  35.702  37.720   7.750
 2105POPC   C1B30187  35.573  37.367   8.710
 2105POPC   C2B30188  35.335  37.450   8.377
 2105POPC   C3B30189  35.455  37.351   8.001
 2105POPC   C4B30190  35.091  37.432   7.806
 2106POPC   NC330191  10.974  19.083   9.565
 2106POPC   PO430192  11.443  19.485   9.452
 2106POPC   GL130193  11.301  19.139   9.155
 2106POPC   GL230194  10.987  19.003   9.066
 2106POPC   C1A30195  11.370  18.909   8.736
 2106POPC   D2A30196  11.410  19.095   8.342
 2106POPC   C3A30197  11.354  19.011   7.934
 2106POPC   C4A30198  11.532  18.790   7.616
 2106POPC   C1B30199  10.866  19.004   8.651
 2106POPC   C2B30200  10.918  18.929   8.208
 2106POPC   C3B30201  10.815  19.196   7.860
 2106POPC   C4B30202  10.762  19.343   7.405
 2107POPC   NC330203   5.438   8.162   9.374
 2107POPC   PO430204   5.974   8.436   9.725
 2107POPC   GL130205   5.902   8.347   9.271
 2107POPC   GL230206   6.004   8.016   9.204
 2107POPC   C1A30207   5.714   8.374   8.823
 2107POPC   D2A30208   5.881   8.271   8.416
 2107POPC   C3A30209   5.676   8.214   8.069
 2107POPC   C4A30210   5.872   8.167   7.679
 2107POPC   C1B30211   5.892   7.900   8.775
 2107POPC   C2B30212   5.659   7.790   8.377
 2107POPC   C3B30213   5.715   7.730   7.895
 2107POPC   C4B30214   5.861   7.719   7.437
 2108POPC   NC330215  38.000  32.571   9.455
 2108POPC   PO430216  37.584  33.147   9.605
 2108POPC   GL130217  37.709  32.980   9.247
 2108POPC   GL230218  37.950  33.255   9.202
 2108POPC   C1A30219  37.587  32.827   8.848
 2108POPC   D2A30220  37.519  32.969   8.433
 2108POPC   C3A30221  37.326  32.871   8.054
 2108POPC   C4A30222  37.477  33.049   7.700
 2108POPC   C1B30223  38.088  32.921   8.902
 2108POPC   C2B30224  37.965  32.710   8.490
 2108POPC   C3B30225  37.900  32.857   8.047
 2108POPC   C4B30226  37.957  32.913   7.589
 2109POPC   NC330227  35.162  29.315   9.405
 2109POPC   PO430228  35.785  29.240   9.323
 2109POPC   GL130229  35.635  29.171   8.946
 2109POPC   GL230230  35.273  29.096   8.931
 2109POPC   C1A30231  35.735  29.118   8.528
 2109POPC   D2A30232  35.351  28.974   8.367
 2109POPC   C3A30233  35.121  29.286   8.182
 2109POPC   C4A30234  35.359  29.467   7.889
 2109POPC   C1B30235  35.098  28.698   8.749
 2109POPC   C2B30236  34.936  28.678   8.346
 2109POPC   C3B30237  34.910  28.847   7.937
 2109POPC   C4B30238  34.941  29.236   7.691
 2110POPC   NC330239  22.332  22.968   9.480
 2110POPC   PO430240  21.724  22.669   9.607
 2110POPC   GL130241  21.994  22.610   9.252
 2110POPC   GL230242  21.967  22.913   9.102
 2110POPC   C1A30243  22.255  22.511   8.894
 2110POPC   D2A30244  22.483  22.647   8.528
 2110POPC   C3A30245  22.187  22.824   8.243
 2110POPC   C4A30246  22.205  22.781   7.805
 2110POPC   C1B30247  22.298  23.029   8.814
 2110POPC   C2B30248  22.392  23.267   8.442
 2110POPC   C3B30249  22.426  23.221   8.000
 2110POPC   C4B30250  22.006  23.252   7.873
 2111POPC   NC330251  39.639  20.355   9.255
 2111POPC   PO430252  39.282  20.744   9.686
 2111POPC   GL130253  39.229  20.792   9.244
 2111POPC   GL230254  39.158  20.488   9.101
 2111POPC   C1A30255  39.238  20.880   8.796
 2111POPC   D2A30256  39.429  20.786   8.389
 2111POPC   C3A30257  39.131  20.653   8.056
 2111POPC   C4A30258  39.207  20.692   7.622
 2111POPC   C1B30259  39.300  20.370   8.663
 2111POPC   C2B30260  39.264  20.166   8.240
 2111POPC   C3B30261  39.376  20.249   7.832
 2111POPC   C4B30262  39.378  20.238   7.392
 2112POPC   NC330263  14.065  17.030   9.424
 2112POPC   PO430264  14.428  16.475   9.586
 2112POPC   GL130265  14.412  16.608   9.157
 2112POPC   GL230266  14.095  16.649   9.072
 2112POPC   C1A30267  14.421  16.567   8.707
 2112POPC   D2A30268  14.161  16.462   8.338
 2112POPC   C3A30269  14.359  16.586   7.956
 2112POPC   C4A30270  14.576  17.015   7.885
 2112POPC   C1B30271  14.145  16.984   8.761
 2112POPC   C2B30272  14.296  16.977   8.321
 2112POPC   C3B30273  14.080  16.996   7.894
 2112POPC   C4B30274  14.132  17.103   7.440
 2113POPC   NC330275  27.059   4.659   9.558
 2113POPC   PO430276  26.626   4.170   9.557
 2113POPC   GL130277  26.894   4.200   9.158
 2113POPC   GL230278  26.970   4.538   9.065
 2113POPC   C1A30279  26.753   4.046   8.737
 2113POPC   D2A30280  26.817   3.858   8.321
 2113POPC   C3A30281  26.992   4.137   8.003
 2113POPC   C4A30282  26.851   4.233   7.595
 2113POPC   C1B30283  26.928   4.492   8.616
 2113POPC   C2B30284  26.674   4.382   8.313
 2113POPC   C3B30285  26.548   4.518   7.925
 2113POPC   C4B30286  26.632   4.757   7.570
 2114POPC   NC330287  41.845  38.721   9.841
 2114POPC   PO430288  41.418  39.035   9.370
 2114POPC   GL130289  41.481  39.212   9.005
 2114POPC   GL230290  41.828  39.134   8.929
 2114POPC   C1A30291  41.523  39.430   8.624
 2114POPC   D2A30292  41.745  39.484   8.245
 2114POPC   C3A30293  41.692  39.241   7.883
 2114POPC   C4A30294  41.274  39.244   7.744
 2114POPC   C1B30295  41.590  38.885   8.637
 2114POPC   C2B30296  41.312  38.999   8.300
 2114POPC   C3B30297  41.429  38.798   7.939
 2114POPC   C4B30298  41.725  38.742   7.704
 2115POPC   NC330299   5.305  22.035   9.694
 2115POPC   PO430300   4.863  21.824   9.284
 2115POPC   GL130301   5.208  21.996   9.080
 2115POPC   GL230302   5.290  22.349   9.010
 2115POPC   C1A30303   5.173  22.037   8.646
 2115POPC   D2A30304   4.998  22.208   8.335
 2115POPC   C3A30305   5.270  22.302   8.027
 2115POPC   C4A30306   5.196  22.045   7.675
 2115POPC   C1B30307   4.943  22.513   8.778
 2115POPC   C2B30308   4.852  22.703   8.406
 2115POPC   C3B30309   4.708  22.514   8.079
 2115POPC   C4B30310   4.800  22.348   7.782
 2116POPC   NC330311  38.582  15.543   9.543
 2116POPC   PO430312  38.475  14.845   9.464
 2116POPC   GL130313  38.525  15.158   9.150
 2116POPC   GL230314  38.222  15.277   9.147
 2116POPC   C1A30315  38.542  15.267   8.712
 2116POPC   D2A30316  38.570  14.982   8.344
 2116POPC   C3A30317  38.634  14.870   7.933
 2116POPC   C4A30318  38.626  14.848   7.500
 2116POPC   C1B30319  38.117  15.541   8.766
 2116POPC   C2B30320  38.323  15.550   8.340
 2116POPC   C3B30321  38.408  15.325   7.972
 2116POPC   C4B30322  38.153  15.473   7.643
 2117POPC   NC330323  18.249   0.677   9.308
 2117POPC   PO430324  17.895   0.039   9.452
 2117POPC   GL130325  18.017   0.248   9.112
 2117POPC   GL230326  17.846   0.544   8.997
 2117POPC   C1A30327  18.190   0.218   8.730
 2117POPC   D2A30328  18.008   0.353   8.356
 2117POPC   C3A30329  18.325   0.262   8.062
 2117POPC   C4A30330  18.477   0.289   7.671
 2117POPC   C1B30331  18.152   0.726   8.694
 2117POPC   C2B30332  18.367   0.722   8.295
 2117POPC   C3B30333  18.332   0.760   7.837
 2117POPC   C4B30334  18.383   0.785   7.387
 2118POPC   NC330335  10.921  35.880   9.588
 2118POPC   PO430336  10.294  36.109   9.611
 2118POPC   GL130337  10.358  36.093   9.173
 2118POPC   GL230338  10.045  36.157   9.147
 2118POPC   C1A30339  10.384  36.217   8.701
 2118POPC   D2A30340  10.487  35.892   8.331
 2118POPC   C3A30341  10.699  35.956   7.894
 2118POPC   C4A30342  10.886  35.781   7.484
 2118POPC   C1B30343   9.908  36.013   8.756
 2118POPC   C2B30344  10.005  36.096   8.350
 2118POPC   C3B30345  10.179  36.032   7.945
 2118POPC   C4B30346  10.403  36.389   7.871
 2119POPC   NC330347  17.221  41.938   9.438
 2119POPC   PO430348  17.696  42.372   9.445
 2119POPC   GL130349  17.531  42.216   9.110
 2119POPC   GL230350  17.844  42.041   9.071
 2119POPC   C1A30351  17.386  42.475   8.789
 2119POPC   D2A30352  17.545  42.635   8.434
 2119POPC   C3A30353  17.493  42.352   8.131
 2119POPC   C4A30354  17.423  42.600   7.793
 2119POPC   C1B30355  17.689  42.079   8.644
 2119POPC   C2B30356  17.689  41.854   8.294
 2119POPC   C3B30357  17.815  41.970   7.929
 2119POPC   C4B30358  17.544  42.135   7.641
 2120POPC   NC330359  34.414  17.361   9.415
 2120POPC   PO430360  34.881  16.923   9.118
 2120POPC   GL130361  34.720  17.282   9.017
 2120POPC   GL230362  34.944  17.549   9.078
 2120POPC   C1A30363  34.470  17.468   8.737
 2120POPC   D2A30364  34.512  17.546   8.310
 2120POPC   C3A30365  34.797  17.343   8.059
 2120POPC   C4A30366  34.721  17.345   7.617
 2120POPC   C1B30367  34.987  17.518   8.596
 2120POPC   C2B30368  34.963  17.808   8.220
 2120POPC   C3B30369  34.680  17.800   7.848
 2120POPC   C4B30370  34.238  17.946   7.760
 2121POPC   NC330371  10.516  35.015   9.485
 2121POPC   PO430372  10.983  35.451   9.456
 2121POPC   GL130373  10.678  35.333   9.096
 2121POPC   GL230374  10.304  35.337   9.091
 2121POPC   C1A30375  10.640  35.324   8.628
 2121POPC   D2A30376  10.706  35.358   8.178
 2121POPC   C3A30377  10.390  35.555   7.919
 2121POPC   C4A30378  10.363  35.695   7.482
 2121POPC   C1B30379  10.193  35.101   8.720
 2121POPC   C2B30380  10.412  34.907   8.372
 2121POPC   C3B30381  10.398  35.027   7.938
 2121POPC   C4B30382  10.342  34.854   7.549
 2122POPC   NC330383  12.333  40.475   9.445
 2122POPC   PO430384  11.887  40.926   9.430
 2122POPC   GL130385  11.941  40.669   9.076
 2122POPC   GL230386  11.920  41.019   8.914
 2122POPC   C1A30387  11.879  40.611   8.624
 2122POPC   D2A30388  11.877  40.934   8.327
 2122POPC   C3A30389  12.090  40.819   7.966
 2122POPC   C4A30390  12.056  40.842   7.521
 2122POPC   C1B30391  11.625  41.261   8.680
 2122POPC   C2B30392  11.666  41.394   8.224
 2122POPC   C3B30393  11.777  41.177   7.801
 2122POPC   C4B30394  11.613  41.016   7.338
 2123POPC   NC330395  37.270  12.745   9.890
 2123POPC   PO430396  37.904  12.799   9.749
 2123POPC   GL130397  37.851  12.913   9.301
 2123POPC   GL230398  37.874  12.612   9.089
 2123POPC   C1A30399  37.941  13.091   8.879
 2123POPC   D2A30400  37.789  12.984   8.513
 2123POPC   C3A30401  37.837  13.229   8.167
 2123POPC   C4A30402  37.935  12.994   7.794
 2123POPC   C1B30403  37.484  12.838   8.910
 2123POPC   C2B30404  37.314  12.873   8.478
 2123POPC   C3B30405  37.510  12.865   8.062
 2123POPC   C4B30406  37.540  12.711   7.621
 2124POPC   NC330407  44.936  22.230   9.733
 2124POPC   PO430408  44.377  22.497   9.368
 2124POPC   GL130409  44.588  22.302   9.062
 2124POPC   GL230410  44.895  22.181   9.189
 2124POPC   C1A30411  44.694  21.963   8.770
 2124POPC   D2A30412  44.814  21.943   8.374
 2124POPC   C3A30413  44.591  21.794   8.044
 2124POPC   C4A30414  44.645  21.893   7.648
 2124POPC   C1B30415  44.944  22.451   8.775
 2124POPC   C2B30416  44.835  22.481   8.369
 2124POPC   C3B30417  44.807  22.282   7.963
 2124POPC   C4B30418  44.551  22.549   7.714
 2125POPC   NC330419  10.261  43.113   9.540
 2125POPC   PO430420  10.830  42.738   9.419
 2125POPC   GL130421  10.550  42.919   9.185
 2125POPC   GL230422  10.709  43.225   9.169
 2125POPC   C1A30423  10.304  43.077   8.856
 2125POPC   D2A30424  10.413  42.894   8.464
 2125POPC   C3A30425  10.337  43.109   8.074
 2125POPC   C4A30426  10.241  42.922   7.669
 2125POPC   C1B30427  10.811  43.084   8.770
 2125POPC   C2B30428  10.779  43.233   8.379
 2125POPC   C3B30429  10.862  43.081   8.030
 2125POPC   C4B30430  10.721  43.053   7.666
 2126POPC   NC330431  10.514  25.960   9.636
 2126POPC   PO430432   9.948  26.393   9.618
 2126POPC   GL130433  10.285  26.332   9.295
 2126POPC   GL230434  10.235  25.974   9.215
 2126POPC   C1A30435  10.436  26.248   8.851
 2126POPC   D2A30436  10.552  26.005   8.468
 2126POPC   C3A30437  10.609  26.172   8.075
 2126POPC   C4A30438  10.713  25.830   7.776
 2126POPC   C1B30439  10.328  25.742   8.846
 2126POPC   C2B30440  10.135  25.670   8.468
 2126POPC   C3B30441  10.339  25.676   8.109
 2126POPC   C4B30442  10.286  25.528   7.750
 2127POPC   NC330443  11.948  24.585   9.716
 2127POPC   PO430444  12.481  24.263   9.485
 2127POPC   GL130445  12.137  24.382   9.210
 2127POPC   GL230446  11.838  24.155   9.277
 2127POPC   C1A30447  12.096  24.597   8.779
 2127POPC   D2A30448  12.256  24.442   8.364
 2127POPC   C3A30449  12.133  24.644   7.973
 2127POPC   C4A30450  12.283  24.718   7.541
 2127POPC   C1B30451  11.731  24.244   8.820
 2127POPC   C2B30452  11.740  24.404   8.354
 2127POPC   C3B30453  11.886  24.230   7.899
 2127POPC   C4B30454  11.976  24.334   7.414
 2128POPC   NC330455  18.079   6.751   9.485
 2128POPC   PO430456  18.637   6.344   9.582
 2128POPC   GL130457  18.402   6.440   9.203
 2128POPC   GL230458  18.195   6.190   9.073
 2128POPC   C1A30459  18.393   6.818   8.914
 2128POPC   D2A30460  18.394   6.943   8.489
 2128POPC   C3A30461  18.141   6.732   8.172
 2128POPC   C4A30462  18.335   6.767   7.743
 2128POPC   C1B30463  18.296   6.369   8.692
 2128POPC   C2B30464  18.518   6.462   8.354
 2128POPC   C3B30465  18.548   6.297   7.965
 2128POPC   C4B30466  18.200   6.280   7.729
 2129POPC   NC330467  11.875  28.012   9.400
 2129POPC   PO430468  12.489  28.462   9.415
 2129POPC   GL130469  12.297  28.467   9.031
 2129POPC   GL230470  11.932  28.367   9.023
 2129POPC   C1A30471  12.261  28.313   8.624
 2129POPC   D2A30472  12.046  28.527   8.318
 2129POPC   C3A30473  12.155  28.432   7.920
 2129POPC   C4A30474  11.909  28.512   7.519
 2129POPC   C1B30475  11.877  27.999   8.729
 2129POPC   C2B30476  11.890  27.939   8.289
 2129POPC   C3B30477  11.729  28.169   7.894
 2129POPC   C4B30478  11.729  28.037   7.431
 2130POPC   NC330479  31.710  27.263   9.511
 2130POPC   PO430480  31.159  27.686   9.539
 2130POPC   GL130481  31.315  27.439   9.191
 2130POPC   GL230482  31.473  27.711   9.112
 2130POPC   C1A30483  31.523  27.322   8.782
 2130POPC   D2A30484  31.664  27.201   8.382
 2130POPC   C3A30485  31.697  27.451   8.041
 2130POPC   C4A30486  31.357  27.432   7.765
 2130POPC   C1B30487  31.219  27.714   8.731
 2130POPC   C2B30488  31.310  27.640   8.312
 2130POPC   C3B30489  31.462  27.900   7.979
 2130POPC   C4B30490  31.329  27.902   7.580
 2131POPC   NC330491  15.189   8.020   9.519
 2131POPC   PO430492  14.769   8.546   9.640
 2131POPC   GL130493  15.100   8.556   9.300
 2131POPC   GL230494  15.431   8.382   9.249
 2131POPC   C1A30495  15.137   8.453   8.859
 2131POPC   D2A30496  15.217   8.464   8.429
 2131POPC   C3A30497  15.068   8.173   8.141
 2131POPC   C4A30498  15.210   8.268   7.763
 2131POPC   C1B30499  15.419   8.039   8.891
 2131POPC   C2B30500  15.374   7.909   8.452
 2131POPC   C3B30501  15.482   7.890   7.993
 2131POPC   C4B30502  15.398   7.875   7.503
 2132POPC   NC330503   3.855  11.025   9.339
 2132POPC   PO430504   3.696  11.515   9.708
 2132POPC   GL130505   3.549  11.447   9.227
 2132POPC   GL230506   3.416  11.094   9.071
 2132POPC   C1A30507   3.552  11.525   8.750
 2132POPC   D2A30508   3.485  11.701   8.308
 2132POPC   C3A30509   3.699  11.508   7.954
 2132POPC   C4A30510   3.537  11.262   7.627
 2132POPC   C1B30511   3.756  11.063   8.729
 2132POPC   C2B30512   3.832  11.199   8.352
 2132POPC   C3B30513   3.753  11.005   7.999
 2132POPC   C4B30514   3.999  11.045   7.672
 2133POPC   NC330515  42.732  38.203   9.592
 2133POPC   PO430516  42.076  38.424   9.553
 2133POPC   GL130517  42.311  38.300   9.247
 2133POPC   GL230518  42.575  38.583   9.265
 2133POPC   C1A30519  42.132  38.165   8.867
 2133POPC   D2A30520  41.995  38.435   8.557
 2133POPC   C3A30521  42.223  38.390   8.185
 2133POPC   C4A30522  42.217  38.711   7.871
 2133POPC   C1B30523  42.454  38.578   8.835
 2133POPC   C2B30524  42.642  38.321   8.517
 2133POPC   C3B30525  42.708  38.201   8.113
 2133POPC   C4B30526  42.474  38.260   7.753
 2134POPC   NC330527   3.681  37.121   9.341
 2134POPC   PO430528   3.487  37.822   9.437
 2134POPC   GL130529   3.483  37.544   9.118
 2134POPC   GL230530   3.189  37.553   8.970
 2134POPC   C1A30531   3.625  37.371   8.726
 2134POPC   D2A30532   3.947  37.276   8.430
 2134POPC   C3A30533   3.893  37.523   8.058
 2134POPC   C4A30534   4.079  37.478   7.648
 2134POPC   C1B30535   3.313  37.893   8.700
 2134POPC   C2B30536   3.196  38.047   8.282
 2134POPC   C3B30537   3.399  37.865   7.935
 2134POPC   C4B30538   3.538  37.502   7.676
 2135POPC   NC330539   2.688  11.126   9.487
 2135POPC   PO430540   2.923  11.721   9.474
 2135POPC   GL130541   2.723  11.492   9.125
 2135POPC   GL230542   2.642  11.119   8.993
 2135POPC   C1A30543   3.015  11.410   8.809
 2135POPC   D2A30544   3.013  11.645   8.462
 2135POPC   C3A30545   2.930  11.409   8.098
 2135POPC   C4A30546   2.721  11.374   7.703
 2135POPC   C1B30547   2.534  11.306   8.577
 2135POPC   C2B30548   2.466  11.187   8.123
 2135POPC   C3B30549   2.623  10.881   7.800
 2135POPC   C4B30550   2.658  10.880   7.323
 2136POPC   NC330551  44.791  32.709   9.561
 2136POPC   PO430552  44.332  33.230   9.478
 2136POPC   GL130553  44.533  32.925   9.202
 2136POPC   GL230554  44.880  32.918   9.086
 2136POPC   C1A30555  44.480  32.790   8.802
 2136POPC   D2A30556  44.642  33.016   8.471
 2136POPC   C3A30557  44.922  32.861   8.199
 2136POPC   C4A30558  44.887  32.912   7.774
 2136POPC   C1B30559  44.768  33.328   8.851
 2136POPC   C2B30560  44.847  33.515   8.456
 2136POPC   C3B30561  44.814  33.341   8.078
 2136POPC   C4B30562  44.568  33.411   7.736
 2137POPC   NC330563   1.706   4.395   9.301
 2137POPC   PO430564   1.089   4.328   9.553
 2137POPC   GL130565   1.212   4.432   9.150
 2137POPC   GL230566   1.251   4.082   9.093
 2137POPC   C1A30567   1.199   4.373   8.693
 2137POPC   D2A30568   1.437   4.274   8.339
 2137POPC   C3A30569   1.096   4.211   8.061
 2137POPC   C4A30570   1.000   4.565   7.834
 2137POPC   C1B30571   1.415   3.872   8.711
 2137POPC   C2B30572   1.326   3.775   8.281
 2137POPC   C3B30573   1.512   3.986   7.898
 2137POPC   C4B30574   1.419   4.352   7.628
 2138POPC   NC330575  18.283   6.041   9.612
 2138POPC   PO430576  18.687   5.531   9.411
 2138POPC   GL130577  18.471   5.761   9.085
 2138POPC   GL230578  18.655   6.050   8.918
 2138POPC   C1A30579  18.222   5.842   8.710
 2138POPC   D2A30580  18.415   5.965   8.338
 2138POPC   C3A30581  18.278   5.797   7.967
 2138POPC   C4A30582  18.100   5.793   7.582
 2138POPC   C1B30583  18.744   5.740   8.644
 2138POPC   C2B30584  18.706   5.550   8.268
 2138POPC   C3B30585  18.769   5.658   7.877
 2138POPC   C4B30586  18.526   5.505   7.544
 2139POPC   NC330587  19.954   9.491   9.511
 2139POPC   PO430588  19.707  10.070   9.708
 2139POPC   GL130589  19.740  10.003   9.239
 2139POPC   GL230590  19.736   9.695   9.109
 2139POPC   C1A30591  19.926  10.047   8.799
 2139POPC   D2A30592  19.798   9.922   8.389
 2139POPC   C3A30593  20.013  10.032   8.048
 2139POPC   C4A30594  19.921   9.937   7.618
 2139POPC   C1B30595  19.767   9.509   8.698
 2139POPC   C2B30596  20.042   9.462   8.324
 2139POPC   C3B30597  20.190   9.542   7.937
 2139POPC   C4B30598  20.233   9.507   7.512
 2140POPC   NC330599  33.273  36.105   9.493
 2140POPC   PO430600  32.737  35.682   9.489
 2140POPC   GL130601  32.858  35.973   9.170
 2140POPC   GL230602  33.179  36.029   9.015
 2140POPC   C1A30603  32.810  36.347   8.919
 2140POPC   D2A30604  32.748  36.249   8.492
 2140POPC   C3A30605  32.924  36.357   8.128
 2140POPC   C4A30606  32.678  36.048   7.830
 2140POPC   C1B30607  33.246  36.237   8.650
 2140POPC   C2B30608  33.194  35.971   8.329
 2140POPC   C3B30609  33.189  35.982   7.897
 2140POPC   C4B30610  33.299  36.415   7.786
 2141POPC   NC330611   1.586  23.834   9.586
 2141POPC   PO430612   1.088  23.450   9.612
 2141POPC   GL130613   1.189  23.688   9.197
 2141POPC   GL230614   1.502  23.904   9.099
 2141POPC   C1A30615   1.116  23.860   8.766
 2141POPC   D2A30616   1.281  23.743   8.363
 2141POPC   C3A30617   1.087  23.824   7.998
 2141POPC   C4A30618   1.192  23.707   7.632
 2141POPC   C1B30619   1.593  24.039   8.688
 2141POPC   C2B30620   1.737  23.954   8.312
 2141POPC   C3B30621   1.548  24.040   7.965
 2141POPC   C4B30622   1.498  24.141   7.563
 2142POPC   NC330623  35.556  31.923   9.469
 2142POPC   PO430624  35.187  31.280   9.494
 2142POPC   GL130625  35.229  31.358   9.116
 2142POPC   GL230626  35.280  31.708   9.108
 2142POPC   C1A30627  35.203  31.147   8.747
 2142POPC   D2A30628  35.430  31.088   8.375
 2142POPC   C3A30629  35.564  31.388   8.102
 2142POPC   C4A30630  35.592  31.194   7.723
 2142POPC   C1B30631  35.449  31.590   8.704
 2142POPC   C2B30632  35.152  31.556   8.373
 2142POPC   C3B30633  35.202  31.768   7.979
 2142POPC   C4B30634  35.563  31.719   7.703
 2143POPC   NC330635  44.968  42.343   9.463
 2143POPC   PO430636  44.388  42.383   9.343
 2143POPC   GL130637  44.663  42.508   9.016
 2143POPC   GL230638   0.045  42.510   8.982
 2143POPC   C1A30639  44.483  42.681   8.664
 2143POPC   D2A30640  44.529  42.375   8.369
 2143POPC   C3A30641  44.375  42.406   7.965
 2143POPC   C4A30642  44.530  42.109   7.692
 2143POPC   C1B30643  44.964  42.139   8.703
 2143POPC   C2B30644   0.020  41.796   8.368
 2143POPC   C3B30645   0.007  41.915   7.927
 2143POPC   C4B30646   0.011  42.270   7.638
 2144POPC   NC330647  12.977  28.647   9.520
 2144POPC   PO430648  12.636  29.241   9.408
 2144POPC   GL130649  12.749  29.073   9.054
 2144POPC   GL230650  13.101  29.005   9.166
 2144POPC   C1A30651  12.574  29.146   8.648
 2144POPC   D2A30652  12.434  28.910   8.290
 2144POPC   C3A30653  12.606  29.070   7.935
 2144POPC   C4A30654  12.660  29.148   7.519
 2144POPC   C1B30655  13.106  28.850   8.756
 2144POPC   C2B30656  12.943  28.897   8.319
 2144POPC   C3B30657  13.122  29.109   7.952
 2144POPC   C4B30658  13.169  29.547   7.849
 2145POPC   NC330659  35.525  39.096   9.543
 2145POPC   PO430660  34.850  39.255   9.699
 2145POPC   GL130661  35.079  39.191   9.242
 2145POPC   GL230662  35.442  39.210   9.071
 2145POPC   C1A30663  35.051  39.352   8.787
 2145POPC   D2A30664  35.328  39.625   8.503
 2145POPC   C3A30665  35.304  39.508   8.043
 2145POPC   C4A30666  35.553  39.223   7.797
 2145POPC   C1B30667  35.370  38.935   8.713
 2145POPC   C2B30668  35.309  38.988   8.246
 2145POPC   C3B30669  35.459  38.730   7.876
 2145POPC   C4B30670  35.248  38.723   7.499
 2146POPC   NC330671   3.880   4.010   9.565
 2146POPC   PO430672   3.649   4.667   9.501
 2146POPC   GL130673   3.474   4.304   9.276
 2146POPC   GL230674   3.265   4.480   9.030
 2146POPC   C1A30675   3.485   4.060   8.876
 2146POPC   D2A30676   3.359   4.279   8.487
 2146POPC   C3A30677   3.440   4.138   8.082
 2146POPC   C4A30678   3.249   4.214   7.713
 2146POPC   C1B30679   3.691   4.509   8.803
 2146POPC   C2B30680   3.928   4.488   8.422
 2146POPC   C3B30681   3.958   4.242   8.057
 2146POPC   C4B30682   3.785   4.170   7.678
 2147POPC   NC330683  40.593  32.263   9.587
 2147POPC   PO430684  41.213  32.293   9.353
 2147POPC   GL130685  40.792  32.291   9.115
 2147POPC   GL230686  40.460  32.491   9.157
 2147POPC   C1A30687  40.743  32.282   8.678
 2147POPC   D2A30688  40.931  32.458   8.287
 2147POPC   C3A30689  40.930  32.140   7.963
 2147POPC   C4A30690  41.022  32.058   7.511
 2147POPC   C1B30691  40.375  32.646   8.760
 2147POPC   C2B30692  40.403  32.470   8.357
 2147POPC   C3B30693  40.536  32.569   7.945
 2147POPC   C4B30694  40.551  32.234   7.639
 2148POPC   NC330695  38.250  41.573   9.613
 2148POPC   PO430696  38.868  41.978   9.451
 2148POPC   GL130697  38.562  41.895   9.035
 2148POPC   GL230698  38.242  41.753   9.125
 2148POPC   C1A30699  38.462  41.540   8.729
 2148POPC   D2A30700  38.118  41.429   8.455
 2148POPC   C3A30701  38.326  41.311   8.092
 2148POPC   C4A30702  38.621  41.356   7.768
 2148POPC   C1B30703  38.133  41.934   8.748
 2148POPC   C2B30704  38.338  41.902   8.337
 2148POPC   C3B30705  38.392  41.788   7.878
 2148POPC   C4B30706  38.174  41.784   7.481
 2149POPC   NC330707  41.406  23.209   9.530
 2149POPC   PO430708  40.699  22.988   9.428
 2149POPC   GL130709  40.569  22.905   9.072
 2149POPC   GL230710  40.539  23.223   8.919
 2149POPC   C1A30711  40.744  22.765   8.693
 2149POPC   D2A30712  40.628  22.894   8.313
 2149POPC   C3A30713  40.719  22.642   8.011
 2149POPC   C4A30714  40.959  22.736   7.609
 2149POPC   C1B30715  41.021  23.154   8.863
 2149POPC   C2B30716  41.164  23.063   8.457
 2149POPC   C3B30717  41.092  22.956   8.051
 2149POPC   C4B30718  41.175  23.209   7.648
 2150POPC   NC330719  28.064  15.461   9.358
 2150POPC   PO430720  27.579  15.039   9.595
 2150POPC   GL130721  27.521  15.280   9.227
 2150POPC   GL230722  27.794  15.119   9.098
 2150POPC   C1A30723  27.358  15.198   8.806
 2150POPC   D2A30724  27.430  15.010   8.399
 2150POPC   C3A30725  27.424  15.211   7.992
 2150POPC   C4A30726  27.790  15.497   7.856
 2150POPC   C1B30727  27.898  14.948   8.722
 2150POPC   C2B30728  27.951  14.839   8.318
 2150POPC   C3B30729  27.850  14.949   7.906
 2150POPC   C4B30730  28.011  14.818   7.547
 2151POPC   NC330731  16.339  44.257   9.488
 2151POPC   PO430732  16.991  44.624   9.556
 2151POPC   GL130733  16.837  44.717   9.135
 2151POPC   GL230734  16.518  44.552   9.063
 2151POPC   C1A30735  16.738  44.768   8.676
 2151POPC   D2A30736  16.643  44.617   8.275
 2151POPC   C3A30737  16.561  44.865   7.938
 2151POPC   C4A30738  16.935  44.691   7.772
 2151POPC   C1B30739  16.436  44.354   8.674
 2151POPC   C2B30740  16.186  44.414   8.329
 2151POPC   C3B30741  16.309  44.305   7.919
 2151POPC   C4B30742  16.539  44.473   7.569
 2152POPC   NC330743  29.412  33.610   9.537
 2152POPC   PO430744  29.668  34.236   9.536
 2152POPC   GL130745  29.407  34.058   9.159
 2152POPC   GL230746  29.050  34.210   9.072
 2152POPC   C1A30747  29.190  33.781   8.833
 2152POPC   D2A30748  29.013  33.747   8.386
 2152POPC   C3A30749  29.362  33.837   8.103
 2152POPC   C4A30750  29.494  33.867   7.666
 2152POPC   C1B30751  28.781  34.074   8.738
 2152POPC   C2B30752  28.554  34.086   8.352
 2152POPC   C3B30753  28.663  33.873   7.976
 2152POPC   C4B30754  29.008  33.759   7.747
 2153POPC   NC330755  40.396  26.667   9.384
 2153POPC   PO430756  41.043  26.972   9.464
 2153POPC   GL130757  40.736  26.991   9.164
 2153POPC   GL230758  40.418  27.192   9.262
 2153POPC   C1A30759  40.834  26.876   8.767
 2153POPC   D2A30760  41.038  26.851   8.396
 2153POPC   C3A30761  40.868  26.798   8.027
 2153POPC   C4A30762  40.934  26.701   7.614
 2153POPC   C1B30763  40.542  27.376   8.875
 2153POPC   C2B30764  40.583  27.203   8.462
 2153POPC   C3B30765  40.443  27.122   8.061
 2153POPC   C4B30766  40.611  27.093   7.661
 2154POPC   NC330767  11.222  18.201  10.109
 2154POPC   PO430768  11.323  18.614   9.628
 2154POPC   GL130769  11.517  18.407   9.293
 2154POPC   GL230770  11.291  18.569   9.091
 2154POPC   C1A30771  11.477  18.094   8.942
 2154POPC   D2A30772  11.349  18.182   8.516
 2154POPC   C3A30773  11.212  18.001   8.114
 2154POPC   C4A30774  11.273  18.147   7.692
 2154POPC   C1B30775  10.990  18.509   8.740
 2154POPC   C2B30776  10.948  18.419   8.286
 2154POPC   C3B30777  11.054  18.578   7.848
 2154POPC   C4B30778  11.081  18.503   7.381
 2155POPC   NC330779  37.589  17.917   9.455
 2155POPC   PO430780  37.376  17.208   9.513
 2155POPC   GL130781  37.395  17.512   9.180
 2155POPC   GL230782  37.751  17.551   9.154
 2155POPC   C1A30783  37.461  17.560   8.724
 2155POPC   D2A30784  37.561  17.313   8.336
 2155POPC   C3A30785  37.323  17.411   7.962
 2155POPC   C4A30786  37.338  17.513   7.526
 2155POPC   C1B30787  37.987  17.446   8.820
 2155POPC   C2B30788  37.940  17.642   8.429
 2155POPC   C3B30789  38.002  17.469   8.062
 2155POPC   C4B30790  37.958  17.614   7.667
 2156POPC   NC330791  24.319  32.889   9.571
 2156POPC   PO430792  24.832  32.435   9.446
 2156POPC   GL130793  24.681  32.783   9.148
 2156POPC   GL230794  24.605  33.148   9.198
 2156POPC   C1A30795  24.598  32.880   8.683
 2156POPC   D2A30796  24.492  32.674   8.276
 2156POPC   C3A30797  24.298  32.950   7.932
 2156POPC   C4A30798  24.155  33.233   7.569
 2156POPC   C1B30799  24.866  33.278   8.851
 2156POPC   C2B30800  24.777  33.317   8.416
 2156POPC   C3B30801  24.780  33.046   8.070
 2156POPC   C4B30802  24.714  32.670   7.820
 2157POPC   NC330803   3.096   9.509   9.496
 2157POPC   PO430804   3.626   9.961   9.500
 2157POPC   GL130805   3.474   9.692   9.223
 2157POPC   GL230806   3.738   9.744   9.038
 2157POPC   C1A30807   3.287   9.653   8.832
 2157POPC   D2A30808   3.567   9.819   8.512
 2157POPC   C3A30809   3.506   9.720   8.104
 2157POPC   C4A30810   3.649   9.623   7.738
 2157POPC   C1B30811   3.758   9.427   8.755
 2157POPC   C2B30812   3.802   9.376   8.352
 2157POPC   C3B30813   4.018   9.634   8.090
 2157POPC   C4B30814   4.144   9.555   7.657
 2158POPC   NC330815  26.621  17.694   9.490
 2158POPC   PO430816  27.020  17.111   9.679
 2158POPC   GL130817  26.841  17.108   9.233
 2158POPC   GL230818  26.907  17.463   9.121
 2158POPC   C1A30819  26.630  17.213   8.793
 2158POPC   D2A30820  26.810  17.437   8.420
 2158POPC   C3A30821  26.809  17.328   7.992
 2158POPC   C4A30822  27.070  17.619   7.764
 2158POPC   C1B30823  26.686  17.717   8.827
 2158POPC   C2B30824  26.368  17.659   8.537
 2158POPC   C3B30825  26.404  17.670   8.093
 2158POPC   C4B30826  26.639  17.895   7.794
 2159POPC   NC330827   8.456  19.478   9.425
 2159POPC   PO430828   8.072  20.016   9.532
 2159POPC   GL130829   7.989  20.032   9.123
 2159POPC   GL230830   8.190  19.771   9.067
 2159POPC   C1A30831   8.081  20.093   8.673
 2159POPC   D2A30832   7.994  19.768   8.346
 2159POPC   C3A30833   8.163  19.967   8.005
 2159POPC   C4A30834   8.023  20.230   7.692
 2159POPC   C1B30835   8.389  19.669   8.702
 2159POPC   C2B30836   8.439  19.516   8.305
 2159POPC   C3B30837   8.530  19.651   7.909
 2159POPC   C4B30838   8.288  19.680   7.529
 2160POPC   NC330839   1.448  42.190   9.546
 2160POPC   PO430840   1.097  42.772   9.803
 2160POPC   GL130841   1.233  42.591   9.307
 2160POPC   GL230842   0.971  42.408   9.142
 2160POPC   C1A30843   1.424  42.350   8.889
 2160POPC   D2A30844   1.522  42.382   8.413
 2160POPC   C3A30845   1.252  42.660   8.125
 2160POPC   C4A30846   1.275  42.686   7.664
 2160POPC   C1B30847   0.944  42.327   8.680
 2160POPC   C2B30848   1.111  42.135   8.303
 2160POPC   C3B30849   1.170  42.225   7.884
 2160POPC   C4B30850   0.902  42.139   7.586
 2161POPC   NC330851  21.695  39.234   9.362
 2161POPC   PO430852  21.031  39.468   9.357
 2161POPC   GL130853  21.284  39.277   9.061
 2161POPC   GL230854  21.382  38.925   9.129
 2161POPC   C1A30855  21.439  39.361   8.666
 2161POPC   D2A30856  21.297  39.233   8.287
 2161POPC   C3A30857  21.517  39.430   7.928
 2161POPC   C4A30858  21.306  39.174   7.619
 2161POPC   C1B30859  21.621  38.894   8.764
 2161POPC   C2B30860  21.746  39.046   8.357
 2161POPC   C3B30861  21.593  38.944   7.994
 2161POPC   C4B30862  21.591  38.757   7.634
 2162POPC   NC330863   6.725  34.533   9.347
 2162POPC   PO430864   6.022  34.578   9.375
 2162POPC   GL130865   6.311  34.350   9.061
 2162POPC   GL230866   6.494  34.643   8.894
 2162POPC   C1A30867   6.633  34.189   8.728
 2162POPC   D2A30868   6.628  34.391   8.331
 2162POPC   C3A30869   6.719  34.216   7.915
 2162POPC   C4A30870   6.547  34.386   7.505
 2162POPC   C1B30871   6.825  34.908   8.690
 2162POPC   C2B30872   6.752  34.921   8.255
 2162POPC   C3B30873   6.735  34.710   7.897
 2162POPC   C4B30874   7.070  34.527   7.694
 2163POPC   NC330875  22.388  13.297   9.466
 2163POPC   PO430876  21.928  12.858   9.535
 2163POPC   GL130877  22.038  12.893   9.127
 2163POPC   GL230878  21.988  13.248   9.148
 2163POPC   C1A30879  22.068  12.730   8.690
 2163POPC   D2A30880  21.984  12.574   8.252
 2163POPC   C3A30881  22.261  12.684   7.937
 2163POPC   C4A30882  22.408  12.514   7.580
 2163POPC   C1B30883  22.131  13.248   8.712
 2163POPC   C2B30884  22.162  13.059   8.303
 2163POPC   C3B30885  21.929  13.062   7.921
 2163POPC   C4B30886  22.131  13.011   7.544
 2164POPC   NC330887  20.498  21.108   9.487
 2164POPC   PO430888  20.908  21.577   9.484
 2164POPC   GL130889  20.686  21.626   9.137
 2164POPC   GL230890  20.356  21.760   9.273
 2164POPC   C1A30891  20.784  21.420   8.740
 2164POPC   D2A30892  20.915  21.137   8.404
 2164POPC   C3A30893  20.717  21.287   8.056
 2164POPC   C4A30894  20.886  21.552   7.803
 2164POPC   C1B30895  20.299  21.691   8.813
 2164POPC   C2B30896  20.431  21.662   8.365
 2164POPC   C3B30897  20.259  21.498   7.957
 2164POPC   C4B30898  20.392  21.254   7.602
 2165POPC   NC330899  28.542  21.143   9.468
 2165POPC   PO430900  27.965  21.358   9.725
 2165POPC   GL130901  28.050  21.323   9.202
 2165POPC   GL230902  28.392  21.416   9.083
 2165POPC   C1A30903  28.060  21.535   8.741
 2165POPC   D2A30904  28.050  21.756   8.334
 2165POPC   C3A30905  28.267  21.491   8.031
 2165POPC   C4A30906  28.534  21.340   7.690
 2165POPC   C1B30907  28.637  21.317   8.709
 2165POPC   C2B30908  28.791  21.334   8.265
 2165POPC   C3B30909  28.542  21.030   8.119
 2165POPC   C4B30910  28.262  20.946   7.794
 2166POPC   NC330911  11.219  21.405   9.541
 2166POPC   PO430912  11.762  21.733   9.259
 2166POPC   GL130913  11.515  21.352   9.131
 2166POPC   GL230914  11.837  21.164   9.139
 2166POPC   C1A30915  11.252  21.194   8.728
 2166POPC   D2A30916  11.001  21.110   8.345
 2166POPC   C3A30917  11.264  21.203   7.971
 2166POPC   C4A30918  11.285  21.628   7.865
 2166POPC   C1B30919  11.742  21.386   8.699
 2166POPC   C2B30920  11.594  21.490   8.290
 2166POPC   C3B30921  11.771  21.720   7.932
 2166POPC   C4B30922  11.697  21.517   7.486
 2167POPC   NC330923  36.030  28.894   9.142
 2167POPC   PO430924  36.584  29.155   9.439
 2167POPC   GL130925  36.406  29.258   9.071
 2167POPC   GL230926  36.140  29.397   9.024
 2167POPC   C1A30927  36.427  29.111   8.663
 2167POPC   D2A30928  36.197  28.820   8.449
 2167POPC   C3A30929  36.187  28.921   8.045
 2167POPC   C4A30930  35.880  28.779   7.775
 2167POPC   C1B30931  36.258  29.578   8.678
 2167POPC   C2B30932  36.107  29.399   8.312
 2167POPC   C3B30933  35.826  29.264   7.981
 2167POPC   C4B30934  36.070  29.199   7.595
 2168POPC   NC330935  16.317  21.057   9.379
 2168POPC   PO430936  16.794  21.460   9.762
 2168POPC   GL130937  16.835  21.452   9.297
 2168POPC   GL230938  16.945  21.765   9.148
 2168POPC   C1A30939  16.702  21.328   8.848
 2168POPC   D2A30940  16.897  21.314   8.403
 2168POPC   C3A30941  16.661  21.216   8.008
 2168POPC   C4A30942  16.519  21.487   7.653
 2168POPC   C1B30943  17.159  21.519   8.809
 2168POPC   C2B30944  17.301  21.651   8.412
 2168POPC   C3B30945  17.128  21.721   8.027
 2168POPC   C4B30946  17.028  21.436   7.731
 2169POPC   NC330947  31.547  43.395   9.449
 2169POPC   PO430948  31.526  44.111   9.492
 2169POPC   GL130949  31.421  44.022   9.069
 2169POPC   GL230950  31.235  43.712   9.105
 2169POPC   C1A30951  31.568  44.119   8.639
 2169POPC   D2A30952  31.910  44.179   8.350
 2169POPC   C3A30953  31.773  44.074   7.937
 2169POPC   C4A30954  31.440  44.100   7.596
 2169POPC   C1B30955  31.461  43.625   8.705
 2169POPC   C2B30956  31.555  43.757   8.283
 2169POPC   C3B30957  31.246  43.807   7.992
 2169POPC   C4B30958  31.209  43.645   7.594
 2170POPC   NC330959   9.083  15.356   9.499
 2170POPC   PO430960   9.161  16.030   9.577
 2170POPC   GL130961   8.890  15.764   9.250
 2170POPC   GL230962   9.141  15.654   9.063
 2170POPC   C1A30963   8.695  15.608   8.807
 2170POPC   D2A30964   8.653  15.858   8.418
 2170POPC   C3A30965   8.758  15.656   8.039
 2170POPC   C4A30966   8.935  15.611   7.609
 2170POPC   C1B30967   8.969  16.029   8.806
 2170POPC   C2B30968   9.077  16.143   8.357
 2170POPC   C3B30969   9.119  16.000   7.923
 2170POPC   C4B30970   9.226  16.360   7.625
 2171POPC   NC330971   5.317  40.308   9.482
 2171POPC   PO430972   5.019  39.785   9.389
 2171POPC   GL130973   5.059  40.125   9.084
 2171POPC   GL230974   4.764  40.334   8.946
 2171POPC   C1A30975   5.220  40.280   8.729
 2171POPC   D2A30976   5.157  40.085   8.367
 2171POPC   C3A30977   5.059  40.301   8.015
 2171POPC   C4A30978   5.467  40.226   7.818
 2171POPC   C1B30979   4.803  39.893   8.722
 2171POPC   C2B30980   4.859  39.691   8.336
 2171POPC   C3B30981   5.049  39.811   7.926
 2171POPC   C4B30982   4.749  39.891   7.599
 2172POPC   NC330983  17.055  34.491   9.456
 2172POPC   PO430984  17.671  34.339   9.538
 2172POPC   GL130985  17.794  34.369   9.155
 2172POPC   GL230986  17.448  34.505   9.088
 2172POPC   C1A30987  17.780  34.392   8.737
 2172POPC   D2A30988  17.549  34.518   8.415
 2172POPC   C3A30989  17.735  34.477   8.037
 2172POPC   C4A30990  17.601  34.776   7.741
 2172POPC   C1B30991  17.239  34.252   8.758
 2172POPC   C2B30992  17.060  34.328   8.356
 2172POPC   C3B30993  17.089  34.384   7.902
 2172POPC   C4B30994  16.812  34.439   7.524
 2173POPC   NC330995  42.814  30.359   9.465
 2173POPC   PO430996  43.249  30.915   9.592
 2173POPC   GL130997  43.082  30.952   9.124
 2173POPC   GL230998  43.058  30.595   9.031
 2173POPC   C1A30999  43.145  30.959   8.687
 2173POPC   D2A31000  43.015  30.641   8.398
 2173POPC   C3A31001  42.902  30.805   7.997
 2173POPC   C4A31002  43.309  30.853   7.793
 2173POPC   C1B31003  42.803  30.318   8.759
 2173POPC   C2B31004  42.901  30.143   8.349
 2173POPC   C3B31005  43.158  30.331   7.997
 2173POPC   C4B31006  43.004  30.491   7.613
 2174POPC   NC331007  16.257  22.526   9.656
 2174POPC   PO431008  16.084  21.869   9.650
 2174POPC   GL131009  16.037  21.988   9.205
 2174POPC   GL231010  16.161  22.321   9.190
 2174POPC   C1A31011  15.995  21.995   8.742
 2174POPC   D2A31012  15.934  22.328   8.410
 2174POPC   C3A31013  15.841  22.172   7.996
 2174POPC   C4A31014  15.663  22.235   7.596
 2174POPC   C1B31015  16.293  22.407   8.785
 2174POPC   C2B31016  16.420  22.154   8.432
 2174POPC   C3B31017  16.384  22.327   8.028
 2174POPC   C4B31018  16.216  22.266   7.633
 2175POPC   NC331019   9.240  37.428   9.419
 2175POPC   PO431020   8.752  37.853   9.638
 2175POPC   GL131021   8.790  37.704   9.192
 2175POPC   GL231022   8.953  37.409   9.012
 2175POPC   C1A31023   8.851  37.802   8.730
 2175POPC   D2A31024   8.932  37.669   8.330
 2175POPC   C3A31025   8.781  37.763   7.944
 2175POPC   C4A31026   8.850  37.476   7.616
 2175POPC   C1B31027   9.314  37.552   8.693
 2175POPC   C2B31028   9.440  37.740   8.272
 2175POPC   C3B31029   9.294  37.662   7.836
 2175POPC   C4B31030   9.432  37.767   7.393
 2176POPC   NC331031   5.343  10.484   9.499
 2176POPC   PO431032   5.941  10.448   9.703
 2176POPC   GL131033   5.998  10.537   9.249
 2176POPC   GL231034   5.675  10.691   9.144
 2176POPC   C1A31035   6.026  10.395   8.801
 2176POPC   D2A31036   5.845  10.550   8.395
 2176POPC   C3A31037   6.055  10.640   8.004
 2176POPC   C4A31038   5.832  10.558   7.664
 2176POPC   C1B31039   5.513  10.476   8.793
 2176POPC   C2B31040   5.395  10.299   8.399
 2176POPC   C3B31041   5.436  10.444   8.000
 2176POPC   C4B31042   5.188  10.342   7.662
 2177POPC   NC331043  20.907  42.059   9.510
 2177POPC   PO431044  20.303  42.408   9.543
 2177POPC   GL131045  20.555  42.252   9.184
 2177POPC   GL231046  20.822  42.499   9.164
 2177POPC   C1A31047  20.501  42.128   8.744
 2177POPC   D2A31048  20.289  42.320   8.408
 2177POPC   C3A31049  20.516  42.297   8.036
 2177POPC   C4A31050  20.388  42.522   7.734
 2177POPC   C1B31051  20.670  42.599   8.764
 2177POPC   C2B31052  20.829  42.420   8.400
 2177POPC   C3B31053  20.911  42.618   7.980
 2177POPC   C4B31054  20.841  42.474   7.541
 2178POPC   NC331055  24.583   7.590   9.521
 2178POPC   PO431056  24.668   6.936   9.569
 2178POPC   GL131057  24.515   7.209   9.218
 2178POPC   GL231058  24.853   7.263   9.173
 2178POPC   C1A31059  24.585   7.504   8.826
 2178POPC   D2A31060  24.452   7.630   8.427
 2178POPC   C3A31061  24.668   7.530   8.029
 2178POPC   C4A31062  24.479   7.328   7.662
 2178POPC   C1B31063  24.709   7.020   8.796
 2178POPC   C2B31064  24.561   7.145   8.389
 2178POPC   C3B31065  24.610   6.999   7.993
 2178POPC   C4B31066  24.883   6.972   7.600
 2179POPC   NC331067  34.822  39.617   9.413
 2179POPC   PO431068  34.547  40.199   9.565
 2179POPC   GL131069  34.450  39.983   9.185
 2179POPC   GL231070  34.736  40.092   9.034
 2179POPC   C1A31071  34.322  40.095   8.738
 2179POPC   D2A31072  34.615  40.075   8.395
 2179POPC   C3A31073  34.733  40.335   8.081
 2179POPC   C4A31074  34.817  40.294   7.666
 2179POPC   C1B31075  34.708  39.727   8.754
 2179POPC   C2B31076  34.857  39.618   8.316
 2179POPC   C3B31077  34.900  39.825   7.891
 2179POPC   C4B31078  34.908  39.827   7.407
 2180POPC   NC331079  39.531  32.977   9.449
 2180POPC   PO431080  38.988  32.931   9.764
 2180POPC   GL131081  39.049  33.091   9.273
 2180POPC   GL231082  39.313  33.362   9.208
 2180POPC   C1A31083  39.232  33.097   8.794
 2180POPC   D2A31084  39.044  32.923   8.438
 2180POPC   C3A31085  38.890  33.028   8.048
 2180POPC   C4A31086  39.114  32.794   7.764
 2180POPC   C1B31087  39.627  33.416   8.869
 2180POPC   C2B31088  39.674  33.253   8.442
 2180POPC   C3B31089  39.432  33.144   8.068
 2180POPC   C4B31090  39.179  33.357   7.782
 2181POPC   NC331091   2.207   8.008   9.341
 2181POPC   PO431092   1.662   8.304   9.508
 2181POPC   GL131093   1.834   8.249   9.093
 2181POPC   GL231094   2.163   8.379   8.979
 2181POPC   C1A31095   1.719   8.104   8.713
 2181POPC   D2A31096   1.568   8.240   8.311
 2181POPC   C3A31097   1.901   8.322   8.041
 2181POPC   C4A31098   1.868   8.044   7.678
 2181POPC   C1B31099   2.222   8.006   8.702
 2181POPC   C2B31100   2.011   7.910   8.337
 2181POPC   C3B31101   2.232   7.940   7.995
 2181POPC   C4B31102   2.335   8.276   7.750
 2182POPC   NC331103   1.075  22.276   9.486
 2182POPC   PO431104   0.337  22.138   9.496
 2182POPC   GL131105   0.521  22.082   9.109
 2182POPC   GL231106   0.258  21.852   9.046
 2182POPC   C1A31107   0.585  22.369   8.741
 2182POPC   D2A31108   0.344  22.420   8.341
 2182POPC   C3A31109   0.490  22.232   7.970
 2182POPC   C4A31110   0.622  22.225   7.556
 2182POPC   C1B31111   0.213  22.035   8.686
 2182POPC   C2B31112   0.309  21.887   8.305
 2182POPC   C3B31113   0.096  21.770   7.973
 2182POPC   C4B31114   0.145  21.998   7.631
 2183POPC   NC331115   0.949   2.929   9.768
 2183POPC   PO431116   0.338   2.921   9.591
 2183POPC   GL131117   0.361   2.787   9.186
 2183POPC   GL231118   0.732   2.759   9.198
 2183POPC   C1A31119   0.182   2.744   8.772
 2183POPC   D2A31120   0.291   2.590   8.366
 2183POPC   C3A31121   0.325   2.814   8.024
 2183POPC   C4A31122   0.263   2.709   7.626
 2183POPC   C1B31123   0.684   3.029   8.827
 2183POPC   C2B31124   0.714   2.972   8.406
 2183POPC   C3B31125   0.815   2.893   8.020
 2183POPC   C4B31126   0.643   3.057   7.661
 2184POPC   NC331127  10.143  26.786   9.775
 2184POPC   PO431128  10.678  27.155   9.575
 2184POPC   GL131129  10.529  26.826   9.312
 2184POPC   GL231130  10.166  26.864   9.252
 2184POPC   C1A31131  10.545  26.740   8.866
 2184POPC   D2A31132  10.556  26.572   8.432
 2184POPC   C3A31133  10.791  26.828   8.122
 2184POPC   C4A31134  10.970  26.594   7.787
 2184POPC   C1B31135  10.092  27.076   8.831
 2184POPC   C2B31136   9.944  27.182   8.377
 2184POPC   C3B31137  10.023  26.947   7.977
 2184POPC   C4B31138  10.280  26.556   7.925
 2185POPC   NC331139   3.695  16.271   9.275
 2185POPC   PO431140   3.683  16.843   9.595
 2185POPC   GL131141   3.627  16.896   9.140
 2185POPC   GL231142   3.297  17.015   9.019
 2185POPC   C1A31143   3.810  16.783   8.721
 2185POPC   D2A31144   3.687  16.947   8.282
 2185POPC   C3A31145   3.799  16.664   7.973
 2185POPC   C4A31146   4.127  16.604   7.673
 2185POPC   C1B31147   3.328  16.876   8.634
 2185POPC   C2B31148   3.186  16.770   8.235
 2185POPC   C3B31149   3.295  16.836   7.813
 2185POPC   C4B31150   3.194  17.040   7.421
 2186POPC   NC331151  22.643  16.426   9.611
 2186POPC   PO431152  23.344  16.631   9.422
 2186POPC   GL131153  23.002  16.879   9.189
 2186POPC   GL231154  22.684  17.087   9.249
 2186POPC   C1A31155  22.879  16.840   8.788
 2186POPC   D2A31156  23.111  16.786   8.422
 2186POPC   C3A31157  22.979  16.806   8.017
 2186POPC   C4A31158  23.245  16.590   7.757
 2186POPC   C1B31159  22.535  17.205   8.817
 2186POPC   C2B31160  22.684  17.127   8.400
 2186POPC   C3B31161  22.655  17.299   7.988
 2186POPC   C4B31162  22.724  17.060   7.617
 2187POPC   NC331163   3.122  39.194   9.529
 2187POPC   PO431164   3.664  38.778   9.610
 2187POPC   GL131165   3.646  39.168   9.282
 2187POPC   GL231166   3.362  39.116   9.085
 2187POPC   C1A31167   3.697  39.434   8.856
 2187POPC   D2A31168   3.862  39.496   8.423
 2187POPC   C3A31169   3.639  39.478   8.037
 2187POPC   C4A31170   3.651  39.184   7.714
 2187POPC   C1B31171   3.135  39.272   8.729
 2187POPC   C2B31172   3.234  39.329   8.318
 2187POPC   C3B31173   3.042  39.125   7.969
 2187POPC   C4B31174   3.171  39.261   7.598
 2188POPC   NC331175   1.384  18.891   9.369
 2188POPC   PO431176   0.774  19.225   9.525
 2188POPC   GL131177   1.097  19.322   9.195
 2188POPC   GL231178   0.952  19.025   9.069
 2188POPC   C1A31179   1.360  19.219   8.792
 2188POPC   D2A31180   1.530  18.973   8.422
 2188POPC   C3A31181   1.485  19.259   8.066
 2188POPC   C4A31182   1.081  19.400   7.899
 2188POPC   C1B31183   1.008  18.866   8.676
 2188POPC   C2B31184   1.049  19.068   8.290
 2188POPC   C3B31185   1.198  18.879   7.885
 2188POPC   C4B31186   0.956  18.641   7.599
 2189POPC   NC331187  12.875  26.425  10.000
 2189POPC   PO431188  12.940  25.905   9.532
 2189POPC   GL131189  12.913  25.959   9.107
 2189POPC   GL231190  12.589  26.038   9.107
 2189POPC   C1A31191  13.114  26.203   8.786
 2189POPC   D2A31192  13.341  26.244   8.401
 2189POPC   C3A31193  13.054  26.039   8.153
 2189POPC   C4A31194  12.852  25.998   7.755
 2189POPC   C1B31195  12.484  25.965   8.674
 2189POPC   C2B31196  12.581  25.891   8.249
 2189POPC   C3B31197  12.373  25.920   7.885
 2189POPC   C4B31198  12.325  26.270   7.652
 2190POPC   NC331199  42.239  33.855   9.606
 2190POPC   PO431200  42.484  33.361   9.265
 2190POPC   GL131201  42.470  33.784   9.126
 2190POPC   GL231202  42.401  34.123   9.111
 2190POPC   C1A31203  42.337  33.793   8.716
 2190POPC   D2A31204  42.197  33.516   8.437
 2190POPC   C3A31205  42.342  33.601   8.084
 2190POPC   C4A31206  42.259  33.605   7.700
 2190POPC   C1B31207  42.139  34.247   8.726
 2190POPC   C2B31208  42.083  34.004   8.300
 2190POPC   C3B31209  42.228  34.102   7.858
 2190POPC   C4B31210  42.396  34.365   7.478
 2191POPC   NC331211  43.099  29.406   9.569
 2191POPC   PO431212  42.883  28.799   9.593
 2191POPC   GL131213  42.932  28.988   9.148
 2191POPC   GL231214  42.925  29.373   9.096
 2191POPC   C1A31215  43.027  29.103   8.684
 2191POPC   D2A31216  43.104  29.310   8.279
 2191POPC   C3A31217  43.177  28.965   7.977
 2191POPC   C4A31218  43.074  28.824   7.538
 2191POPC   C1B31219  43.345  29.446   8.886
 2191POPC   C2B31220  43.596  29.332   8.500
 2191POPC   C3B31221  43.567  29.489   8.072
 2191POPC   C4B31222  43.265  29.410   7.741
 2192POPC   NC331223   3.899  32.900   9.294
 2192POPC   PO431224   4.229  33.450   9.372
 2192POPC   GL131225   4.324  33.147   9.040
 2192POPC   GL231226   4.370  32.782   9.120
 2192POPC   C1A31227   4.110  32.943   8.678
 2192POPC   D2A31228   4.159  32.733   8.297
 2192POPC   C3A31229   4.173  33.065   7.994
 2192POPC   C4A31230   4.495  33.357   7.941
 2192POPC   C1B31231   4.752  32.759   8.888
 2192POPC   C2B31232   4.925  32.749   8.490
 2192POPC   C3B31233   4.656  32.881   8.178
 2192POPC   C4B31234   4.509  32.731   7.804
 2193POPC   NC331235  13.934  41.786   9.471
 2193POPC   PO431236  13.309  41.568   9.466
 2193POPC   GL131237  13.571  41.630   9.118
 2193POPC   GL231238  13.625  41.957   9.127
 2193POPC   C1A31239  13.759  41.647   8.703
 2193POPC   D2A31240  13.957  41.617   8.288
 2193POPC   C3A31241  13.689  41.419   7.944
 2193POPC   C4A31242  13.778  41.093   7.634
 2193POPC   C1B31243  13.408  42.032   8.764
 2193POPC   C2B31244  13.490  41.887   8.344
 2193POPC   C3B31245  13.706  41.923   7.953
 2193POPC   C4B31246  13.499  41.768   7.588
 2194POPC   NC331247  42.015  22.909   9.488
 2194POPC   PO431248  41.370  22.711   9.516
 2194POPC   GL131249  41.398  22.888   9.129
 2194POPC   GL231250  41.745  22.877   9.060
 2194POPC   C1A31251  41.347  22.697   8.752
 2194POPC   D2A31252  41.576  22.698   8.398
 2194POPC   C3A31253  41.567  22.969   8.114
 2194POPC   C4A31254  41.448  22.772   7.721
 2194POPC   C1B31255  41.620  23.156   8.725
 2194POPC   C2B31256  41.922  23.194   8.415
 2194POPC   C3B31257  42.054  22.992   8.050
 2194POPC   C4B31258  41.768  23.167   7.702
 2195POPC   NC331259  17.320  32.971   9.554
 2195POPC   PO431260  17.926  32.878   9.457
 2195POPC   GL131261  17.586  32.913   9.118
 2195POPC   GL231262  17.246  33.139   9.092
 2195POPC   C1A31263  17.399  32.756   8.743
 2195POPC   D2A31264  17.281  32.718   8.317
 2195POPC   C3A31265  17.596  32.888   8.066
 2195POPC   C4A31266  17.780  32.748   7.689
 2195POPC   C1B31267  17.515  33.317   8.814
 2195POPC   C2B31268  17.328  33.200   8.449
 2195POPC   C3B31269  17.182  33.186   8.062
 2195POPC   C4B31270  17.363  33.118   7.677
 2196POPC   NC331271  32.236   3.343   9.534
 2196POPC   PO431272  32.309   3.977   9.519
 2196POPC   GL131273  32.440   3.698   9.167
 2196POPC   GL231274  32.102   3.596   9.124
 2196POPC   C1A31275  32.433   3.452   8.739
 2196POPC   D2A31276  32.292   3.341   8.308
 2196POPC   C3A31277  32.163   3.639   7.988
 2196POPC   C4A31278  32.206   3.772   7.554
 2196POPC   C1B31279  31.933   3.589   8.742
 2196POPC   C2B31280  31.766   3.464   8.393
 2196POPC   C3B31281  31.846   3.257   8.050
 2196POPC   C4B31282  31.831   3.446   7.662
 2197POPC   NC331283  17.434  24.047   9.730
 2197POPC   PO431284  17.448  23.302   9.695
 2197POPC   GL131285  17.488  23.598   9.282
 2197POPC   GL231286  17.399  23.934   9.228
 2197POPC   C1A31287  17.717  23.729   8.886
 2197POPC   D2A31288  17.620  23.647   8.441
 2197POPC   C3A31289  17.808  23.714   8.026
 2197POPC   C4A31290  17.834  23.440   7.643
 2197POPC   C1B31291  17.298  24.004   8.792
 2197POPC   C2B31292  17.112  23.800   8.436
 2197POPC   C3B31293  17.248  23.718   8.024
 2197POPC   C4B31294  17.446  23.786   7.631
 2198POPC   NC331295  33.507  40.585   9.417
 2198POPC   PO431296  34.048  40.947   9.491
 2198POPC   GL131297  33.912  40.800   9.102
 2198POPC   GL231298  33.568  40.889   9.002
 2198POPC   C1A31299  34.002  40.760   8.669
 2198POPC   D2A31300  33.812  40.754   8.278
 2198POPC   C3A31301  34.014  40.859   7.933
 2198POPC   C4A31302  33.922  40.631   7.565
 2198POPC   C1B31303  33.466  40.602   8.640
 2198POPC   C2B31304  33.345  40.568   8.205
 2198POPC   C3B31305  33.500  40.802   7.842
 2198POPC   C4B31306  33.712  41.113   7.631
 2199POPC   NC331307   1.278  14.745   9.552
 2199POPC   PO431308   1.139  14.062   9.532
 2199POPC   GL131309   1.143  14.375   9.213
 2199POPC   GL231310   1.479  14.356   9.212
 2199POPC   C1A31311   1.219  14.521   8.770
 2199POPC   D2A31312   1.403  14.506   8.356
 2199POPC   C3A31313   1.140  14.511   7.941
 2199POPC   C4A31314   1.067  14.212   7.603
 2199POPC   C1B31315   1.345  14.037   8.884
 2199POPC   C2B31316   1.323  13.909   8.452
 2199POPC   C3B31317   1.350  14.076   8.074
 2199POPC   C4B31318   1.503  13.977   7.713
 2200POPC   NC331319  16.287  21.541   9.895
 2200POPC   PO431320  15.879  21.262   9.467
 2200POPC   GL131321  15.979  21.462   9.162
 2200POPC   GL231322  16.321  21.559   9.242
 2200POPC   C1A31323  15.720  21.564   8.815
 2200POPC   D2A31324  15.873  21.549   8.403
 2200POPC   C3A31325  15.686  21.664   8.028
 2200POPC   C4A31326  15.699  21.391   7.706
 2200POPC   C1B31327  16.258  21.540   8.761
 2200POPC   C2B31328  16.322  21.275   8.397
 2200POPC   C3B31329  16.150  21.371   7.988
 2200POPC   C4B31330  16.205  21.821   7.895
 2201POPC   NC331331   9.697  24.039   9.309
 2201POPC   PO431332   9.805  24.697   9.556
 2201POPC   GL131333   9.611  24.552   9.189
 2201POPC   GL231334   9.905  24.432   9.086
 2201POPC   C1A31335   9.403  24.391   8.829
 2201POPC   D2A31336   9.328  24.654   8.493
 2201POPC   C3A31337   9.579  24.481   8.194
 2201POPC   C4A31338   9.586  24.441   7.781
 2201POPC   C1B31339   9.887  24.352   8.662
 2201POPC   C2B31340  10.083  24.583   8.353
 2201POPC   C3B31341  10.044  24.497   7.936
 2201POPC   C4B31342  10.100  24.124   7.620
 2202POPC   NC331343   8.600   0.545   9.890
 2202POPC   PO431344   8.234   0.087   9.579
 2202POPC   GL131345   8.107   0.286   9.123
 2202POPC   GL231346   8.073   0.630   9.141
 2202POPC   C1A31347   8.254   0.416   8.727
 2202POPC   D2A31348   8.154   0.366   8.312
 2202POPC   C3A31349   8.412   0.490   7.991
 2202POPC   C4A31350   8.278   0.400   7.609
 2202POPC   C1B31351   8.131   0.900   8.722
 2202POPC   C2B31352   8.207   0.884   8.263
 2202POPC   C3B31353   8.011   0.787   7.863
 2202POPC   C4B31354   8.041   0.832   7.385
 2203POPC   NC331355   0.780   1.420   9.568
 2203POPC   PO431356   0.087   1.427   9.556
 2203POPC   GL131357   0.387   1.329   9.232
 2203POPC   GL231358   0.285   1.571   9.015
 2203POPC   C1A31359   0.464   1.152   8.780
 2203POPC   D2A31360   0.456   0.966   8.327
 2203POPC   C3A31361   0.147   1.023   7.967
 2203POPC   C4A31362   0.223   1.007   7.490
 2203POPC   C1B31363   0.582   1.653   8.683
 2203POPC   C2B31364   0.692   1.444   8.342
 2203POPC   C3B31365   0.516   1.363   7.936
 2203POPC   C4B31366   0.523   1.415   7.483
 2204POPC   NC331367  11.961   0.466   9.470
 2204POPC   PO431368  12.518   0.056   9.673
 2204POPC   GL131369  12.272   0.108   9.198
 2204POPC   GL231370  12.236   0.468   9.040
 2204POPC   C1A31371  12.383   0.097   8.728
 2204POPC   D2A31372  12.306   0.473   8.505
 2204POPC   C3A31373  12.407   0.442   8.104
 2204POPC   C4A31374  12.268   0.148   7.787
 2204POPC   C1B31375  11.860   0.517   8.783
 2204POPC   C2B31376  11.751   0.599   8.351
 2204POPC   C3B31377  11.943   0.577   7.914
 2204POPC   C4B31378  12.339   0.610   7.622
 2205POPC   NC331379  26.280  20.168   9.310
 2205POPC   PO431380  25.761  20.581   9.475
 2205POPC   GL131381  25.860  20.374   9.101
 2205POPC   GL231382  26.003  20.714   9.036
 2205POPC   C1A31383  26.094  20.361   8.700
 2205POPC   D2A31384  26.328  20.206   8.359
 2205POPC   C3A31385  26.124  20.374   8.009
 2205POPC   C4A31386  25.987  20.140   7.602
 2205POPC   C1B31387  26.220  20.868   8.666
 2205POPC   C2B31388  26.070  21.101   8.325
 2205POPC   C3B31389  25.998  20.958   7.927
 2205POPC   C4B31390  26.100  20.629   7.593
 2206POPC   NC331391  40.471  44.706   9.419
 2206POPC   PO431392  41.136  44.423   9.507
 2206POPC   GL131393  40.856  44.475   9.167
 2206POPC   GL231394  40.611  44.238   9.184
 2206POPC   C1A31395  40.878  44.659   8.747
 2206POPC   D2A31396  40.867  44.970   8.380
 2206POPC   C3A31397  40.828  44.792   7.983
 2206POPC   C4A31398  40.844  44.972   7.566
 2206POPC   C1B31399  40.420  44.388   8.808
 2206POPC   C2B31400  40.503  44.584   8.408
 2206POPC   C3B31401  40.440  44.422   8.025
 2206POPC   C4B31402  40.468  44.619   7.642
 2207POPC   NC331403  38.838  32.499   9.680
 2207POPC   PO431404  39.591  32.481   9.496
 2207POPC   GL131405  39.234  32.364   9.284
 2207POPC   GL231406  39.380  32.614   9.054
 2207POPC   C1A31407  39.169  32.148   8.894
 2207POPC   D2A31408  39.422  32.222   8.520
 2207POPC   C3A31409  39.169  32.157   8.170
 2207POPC   C4A31410  39.161  32.277   7.744
 2207POPC   C1B31411  38.994  32.648   8.888
 2207POPC   C2B31412  38.902  32.438   8.520
 2207POPC   C3B31413  38.795  32.509   8.099
 2207POPC   C4B31414  38.663  32.501   7.693
 2208POPC   NC331415  27.633  10.737   9.505
 2208POPC   PO431416  27.857  10.134   9.640
 2208POPC   GL131417  27.919  10.460   9.202
 2208POPC   GL231418  27.902  10.807   9.101
 2208POPC   C1A31419  27.598  10.597   8.780
 2208POPC   D2A31420  27.656  10.476   8.345
 2208POPC   C3A31421  27.398  10.530   7.966
 2208POPC   C4A31422  27.254  10.264   7.644
 2208POPC   C1B31423  28.025  10.816   8.651
 2208POPC   C2B31424  28.163  10.669   8.276
 2208POPC   C3B31425  27.955  10.522   7.922
 2208POPC   C4B31426  27.773  10.453   7.558
 2209POPC   NC331427  37.346  11.782   9.633
 2209POPC   PO431428  37.837  11.281   9.504
 2209POPC   GL131429  37.636  11.511   9.184
 2209POPC   GL231430  37.318  11.412   9.071
 2209POPC   C1A31431  37.758  11.321   8.787
 2209POPC   D2A31432  37.800  11.158   8.389
 2209POPC   C3A31433  37.647  11.491   8.157
 2209POPC   C4A31434  37.703  11.583   7.766
 2209POPC   C1B31435  37.260  11.413   8.609
 2209POPC   C2B31436  37.285  11.153   8.234
 2209POPC   C3B31437  37.575  11.033   7.913
 2209POPC   C4B31438  37.332  10.973   7.602
 2210POPC   NC331439  10.066  11.826   9.644
 2210POPC   PO431440   9.622  12.163   9.437
 2210POPC   GL131441   9.821  11.999   9.124
 2210POPC   GL231442   9.494  11.803   9.083
 2210POPC   C1A31443   9.975  12.045   8.706
 2210POPC   D2A31444   9.793  11.921   8.301
 2210POPC   C3A31445   9.970  12.190   7.982
 2210POPC   C4A31446  10.102  12.416   7.601
 2210POPC   C1B31447   9.468  12.150   8.748
 2210POPC   C2B31448   9.477  12.334   8.317
 2210POPC   C3B31449   9.448  12.096   7.918
 2210POPC   C4B31450   9.658  12.110   7.519
 2211POPC   NC331451  16.631   0.004   9.602
 2211POPC   PO431452  16.858   0.594   9.406
 2211POPC   GL131453  16.837   0.235   9.189
 2211POPC   GL231454  16.474   0.079   9.118
 2211POPC   C1A31455  16.955   0.196   8.796
 2211POPC   D2A31456  16.720   0.222   8.418
 2211POPC   C3A31457  16.942   0.213   8.062
 2211POPC   C4A31458  16.890   0.166   7.644
 2211POPC   C1B31459  16.472   0.412   8.842
 2211POPC   C2B31460  16.362   0.597   8.442
 2211POPC   C3B31461  16.295   0.347   8.095
 2211POPC   C4B31462  16.448   0.379   7.706
 2212POPC   NC331463  29.856   9.993   9.498
 2212POPC   PO431464  30.411   9.487   9.483
 2212POPC   GL131465  30.081   9.643   9.152
 2212POPC   GL231466  30.065  10.035   9.032
 2212POPC   C1A31467  29.952   9.656   8.712
 2212POPC   D2A31468  30.084   9.905   8.350
 2212POPC   C3A31469  29.877   9.723   7.991
 2212POPC   C4A31470  29.714   9.501   7.598
 2212POPC   C1B31471  29.660  10.059   8.832
 2212POPC   C2B31472  29.568  10.016   8.384
 2212POPC   C3B31473  29.690  10.192   7.978
 2212POPC   C4B31474  29.809  10.015   7.563
 2213POPC   NC331475  29.703  42.866   9.524
 2213POPC   PO431476  30.357  42.843   9.370
 2213POPC   GL131477  29.984  43.052   9.137
 2213POPC   GL231478  29.834  43.421   9.142
 2213POPC   C1A31479  29.898  43.048   8.706
 2213POPC   D2A31480  30.232  43.058   8.372
 2213POPC   C3A31481  30.053  43.089   7.960
 2213POPC   C4A31482  29.705  43.070   7.703
 2213POPC   C1B31483  29.992  43.540   8.718
 2213POPC   C2B31484  29.851  43.396   8.300
 2213POPC   C3B31485  29.764  43.543   7.867
 2213POPC   C4B31486  29.599  43.461   7.400
 2214POPC   NC331487  12.993  41.227   9.433
 2214POPC   PO431488  12.803  40.542   9.541
 2214POPC   GL131489  12.698  40.854   9.182
 2214POPC   GL231490  12.360  40.985   9.214
 2214POPC   C1A31491  12.775  41.098   8.748
 2214POPC   D2A31492  13.016  41.226   8.337
 2214POPC   C3A31493  13.079  40.973   7.936
 2214POPC   C4A31494  12.923  40.886   7.496
 2214POPC   C1B31495  12.356  40.785   8.791
 2214POPC   C2B31496  12.388  40.973   8.392
 2214POPC   C3B31497  12.570  40.986   7.992
 2214POPC   C4B31498  12.510  40.643   7.695
 2215POPC   NC331499  10.890  22.580   9.609
 2215POPC   PO431500  10.475  23.066   9.646
 2215POPC   GL131501  10.497  23.001   9.209
 2215POPC   GL231502  10.539  23.324   9.062
 2215POPC   C1A31503  10.460  22.840   8.785
 2215POPC   D2A31504  10.368  22.899   8.349
 2215POPC   C3A31505  10.714  22.824   8.060
 2215POPC   C4A31506  10.670  22.771   7.607
 2215POPC   C1B31507  10.617  23.282   8.614
 2215POPC   C2B31508  10.819  23.310   8.219
 2215POPC   C3B31509  10.620  23.296   7.866
 2215POPC   C4B31510  10.202  23.183   7.814
 2216POPC   NC331511   6.399  17.038   9.317
 2216POPC   PO431512   7.035  17.298   9.473
 2216POPC   GL131513   6.699  17.446   9.188
 2216POPC   GL231514   6.967  17.584   9.008
 2216POPC   C1A31515   6.500  17.653   8.786
 2216POPC   D2A31516   6.632  17.600   8.347
 2216POPC   C3A31517   6.522  17.797   7.958
 2216POPC   C4A31518   6.626  17.604   7.543
 2216POPC   C1B31519   6.837  17.281   8.704
 2216POPC   C2B31520   6.853  17.106   8.317
 2216POPC   C3B31521   6.772  17.300   7.932
 2216POPC   C4B31522   7.048  17.290   7.585
 2217POPC   NC331523   5.116  35.002   9.625
 2217POPC   PO431524   5.282  34.375   9.514
 2217POPC   GL131525   5.045  34.624   9.202
 2217POPC   GL231526   5.029  34.323   9.046
 2217POPC   C1A31527   4.990  34.697   8.734
 2217POPC   D2A31528   5.304  34.677   8.405
 2217POPC   C3A31529   5.057  34.582   8.034
 2217POPC   C4A31530   4.710  34.759   7.796
 2217POPC   C1B31531   5.193  34.209   8.680
 2217POPC   C2B31532   4.992  34.085   8.329
 2217POPC   C3B31533   4.969  34.092   7.940
 2217POPC   C4B31534   5.333  34.289   7.734
 2218POPC   NC331535  11.659  22.090   9.539
 2218POPC   PO431536  11.014  21.833   9.634
 2218POPC   GL131537  11.244  21.832   9.231
 2218POPC   GL231538  11.437  22.121   9.073
 2218POPC   C1A31539  11.259  21.699   8.797
 2218POPC   D2A31540  11.149  21.740   8.364
 2218POPC   C3A31541  11.406  22.059   8.132
 2218POPC   C4A31542  11.144  22.112   7.802
 2218POPC   C1B31543  11.001  22.176   8.882
 2218POPC   C2B31544  10.857  22.502   8.578
 2218POPC   C3B31545  11.117  22.526   8.213
 2218POPC   C4B31546  11.112  22.608   7.788
 2219POPC   NC331547  15.547  19.189   9.537
 2219POPC   PO431548  16.231  18.906   9.531
 2219POPC   GL131549  16.283  19.111   9.173
 2219POPC   GL231550  15.939  19.236   9.168
 2219POPC   C1A31551  16.329  19.319   8.784
 2219POPC   D2A31552  16.016  19.367   8.462
 2219POPC   C3A31553  16.183  19.321   8.045
 2219POPC   C4A31554  16.076  19.221   7.609
 2219POPC   C1B31555  16.000  18.946   8.791
 2219POPC   C2B31556  15.845  18.852   8.402
 2219POPC   C3B31557  15.675  18.784   8.013
 2219POPC   C4B31558  15.898  18.753   7.644
 2220POPC   NC331559   8.885  18.324   9.505
 2220POPC   PO431560   9.289  17.755   9.513
 2220POPC   GL131561   9.083  18.007   9.183
 2220POPC   GL231562   9.105  18.422   9.068
 2220POPC   C1A31563   8.853  18.047   8.836
 2220POPC   D2A31564   8.988  18.339   8.539
 2220POPC   C3A31565   9.017  18.221   8.127
 2220POPC   C4A31566   8.826  18.305   7.767
 2220POPC   C1B31567   9.322  18.660   8.745
 2220POPC   C2B31568   9.207  18.775   8.327
 2220POPC   C3B31569   9.149  18.671   7.917
 2220POPC   C4B31570   9.340  18.370   7.662
 2221POPC   NC331571  42.428  44.418   9.300
 2221POPC   PO431572  41.905  44.796   9.563
 2221POPC   GL131573  42.162  44.882   9.154
 2221POPC   GL231574  42.545  44.916   9.146
 2221POPC   C1A31575  42.230  44.721   8.701
 2221POPC   D2A31576  42.251  44.365   8.363
 2221POPC   C3A31577  42.021  44.365   7.953
 2221POPC   C4A31578  42.051  44.324   7.485
 2221POPC   C1B31579  42.741  44.719   8.767
 2221POPC   C2B31580  42.587  44.762   8.342
 2221POPC   C3B31581  42.535  44.587   7.936
 2221POPC   C4B31582  42.619  44.846   7.589
 2222POPC   NC331583   8.028  42.833   9.363
 2222POPC   PO431584   8.358  43.457   9.492
 2222POPC   GL131585   8.058  43.394   9.153
 2222POPC   GL231586   8.232  43.157   9.020
 2222POPC   C1A31587   7.938  43.390   8.681
 2222POPC   D2A31588   8.163  43.461   8.275
 2222POPC   C3A31589   7.976  43.341   7.876
 2222POPC   C4A31590   7.655  43.109   7.743
 2222POPC   C1B31591   8.383  43.106   8.614
 2222POPC   C2B31592   8.438  42.833   8.274
 2222POPC   C3B31593   8.081  42.817   8.011
 2222POPC   C4B31594   8.102  42.900   7.591
 2223POPC   NC331595   7.670   2.997   9.384
 2223POPC   PO431596   8.320   2.820   9.390
 2223POPC   GL131597   8.047   2.832   9.062
 2223POPC   GL231598   8.039   3.189   9.035
 2223POPC   C1A31599   8.131   2.884   8.636
 2223POPC   D2A31600   8.412   3.168   8.465
 2223POPC   C3A31601   8.443   3.046   8.032
 2223POPC   C4A31602   8.207   2.671   7.880
 2223POPC   C1B31603   7.693   3.148   8.771
 2223POPC   C2B31604   7.631   2.817   8.535
 2223POPC   C3B31605   7.816   2.775   8.184
 2223POPC   C4B31606   7.671   3.095   7.911
 2224POPC   NC331607  36.676   2.399   9.345
 2224POPC   PO431608  37.097   3.052   9.429
 2224POPC   GL131609  36.933   2.866   9.087
 2224POPC   GL231610  36.616   3.045   9.092
 2224POPC   C1A31611  37.088   2.895   8.655
 2224POPC   D2A31612  37.163   3.155   8.287
 2224POPC   C3A31613  37.105   2.933   7.881
 2224POPC   C4A31614  37.079   2.475   7.805
 2224POPC   C1B31615  36.589   2.882   8.678
 2224POPC   C2B31616  36.726   2.870   8.236
 2224POPC   C3B31617  36.594   2.640   7.877
 2224POPC   C4B31618  36.582   2.584   7.431
 2225POPC   NC331619  27.518   3.316   9.518
 2225POPC   PO431620  27.829   3.864   9.468
 2225POPC   GL131621  27.774   3.562   9.152
 2225POPC   GL231622  28.048   3.318   9.229
 2225POPC   C1A31623  27.473   3.449   8.824
 2225POPC   D2A31624  27.391   3.656   8.413
 2225POPC   C3A31625  27.615   3.632   8.046
 2225POPC   C4A31626  27.489   3.397   7.731
 2225POPC   C1B31627  27.873   3.148   8.856
 2225POPC   C2B31628  27.803   3.352   8.447
 2225POPC   C3B31629  27.788   3.156   8.039
 2225POPC   C4B31630  27.938   3.048   7.637
 2226POPC   NC331631  11.917  16.039   9.473
 2226POPC   PO431632  12.554  16.099   9.525
 2226POPC   GL131633  12.286  15.764   9.214
 2226POPC   GL231634  11.933  15.826   9.028
 2226POPC   C1A31635  12.338  15.775   8.743
 2226POPC   D2A31636  12.023  15.916   8.441
 2226POPC   C3A31637  12.186  15.916   8.021
 2226POPC   C4A31638  12.123  15.701   7.653
 2226POPC   C1B31639  11.715  16.176   8.817
 2226POPC   C2B31640  11.755  16.362   8.407
 2226POPC   C3B31641  11.729  16.183   8.003
 2226POPC   C4B31642  11.956  16.182   7.593
 2227POPC   NC331643   8.775  27.305   9.451
 2227POPC   PO431644   9.189  27.857   9.577
 2227POPC   GL131645   9.170  27.779   9.179
 2227POPC   GL231646   8.833  27.732   9.118
 2227POPC   C1A31647   9.169  27.470   8.855
 2227POPC   D2A31648   8.864  27.467   8.528
 2227POPC   C3A31649   9.026  27.432   8.139
 2227POPC   C4A31650   8.997  27.500   7.729
 2227POPC   C1B31651   8.530  27.750   8.790
 2227POPC   C2B31652   8.444  27.766   8.362
 2227POPC   C3B31653   8.608  27.745   7.952
 2227POPC   C4B31654   8.659  27.780   7.478
 2228POPC   NC331655   0.687  16.824   9.491
 2228POPC   PO431656   0.016  16.819   9.603
 2228POPC   GL131657   0.278  16.812   9.199
 2228POPC   GL231658   0.089  17.047   9.088
 2228POPC   C1A31659   0.549  16.715   8.774
 2228POPC   D2A31660   0.479  16.801   8.267
 2228POPC   C3A31661   0.742  16.648   7.917
 2228POPC   C4A31662   0.758  16.628   7.434
 2228POPC   C1B31663   0.107  16.925   8.672
 2228POPC   C2B31664   0.010  17.023   8.258
 2228POPC   C3B31665   0.090  16.800   7.870
 2228POPC   C4B31666   0.220  16.643   7.431
 2229POPC   NC331667  26.348  34.972   9.417
 2229POPC   PO431668  26.313  34.236   9.558
 2229POPC   GL131669  26.140  34.508   9.204
 2229POPC   GL231670  25.785  34.420   9.098
 2229POPC   C1A31671  26.407  34.666   8.823
 2229POPC   D2A31672  26.429  34.812   8.403
 2229POPC   C3A31673  26.404  34.577   8.021
 2229POPC   C4A31674  26.238  34.901   7.776
 2229POPC   C1B31675  25.950  34.498   8.685
 2229POPC   C2B31676  26.006  34.342   8.274
 2229POPC   C3B31677  25.888  34.492   7.867
 2229POPC   C4B31678  25.707  34.337   7.481
 2230POPC   NC331679  37.819   0.294   9.447
 2230POPC   PO431680  37.286   0.699   9.257
 2230POPC   GL131681  37.661   0.593   9.036
 2230POPC   GL231682  37.530   0.268   9.001
 2230POPC   C1A31683  37.836   0.430   8.634
 2230POPC   D2A31684  37.781   0.157   8.342
 2230POPC   C3A31685  37.589   0.368   8.089
 2230POPC   C4A31686  37.752   0.368   7.722
 2230POPC   C1B31687  37.324   0.286   8.609
 2230POPC   C2B31688  37.250   0.040   8.256
 2230POPC   C3B31689  37.428  44.968   7.818
 2230POPC   C4B31690  37.608   0.048   7.370
 2231POPC   NC331691  17.089  18.073   9.560
 2231POPC   PO431692  17.497  18.658   9.562
 2231POPC   GL131693  17.470  18.604   9.141
 2231POPC   GL231694  17.343  18.279   9.126
 2231POPC   C1A31695  17.440  18.553   8.717
 2231POPC   D2A31696  17.475  18.288   8.396
 2231POPC   C3A31697  17.570  18.562   8.123
 2231POPC   C4A31698  17.572  18.587   7.720
 2231POPC   C1B31699  17.140  18.096   8.753
 2231POPC   C2B31700  17.169  17.891   8.338
 2231POPC   C3B31701  17.403  18.020   7.952
 2231POPC   C4B31702  17.275  18.203   7.564
 2232POPC   NC331703  38.909  39.505   9.348
 2232POPC   PO431704  38.447  39.979   9.539
 2232POPC   GL131705  38.501  39.915   9.152
 2232POPC   GL231706  38.200  40.069   9.092
 2232POPC   C1A31707  38.500  39.856   8.722
 2232POPC   D2A31708  38.492  40.154   8.397
 2232POPC   C3A31709  38.574  39.929   8.056
 2232POPC   C4A31710  38.335  39.795   7.730
 2232POPC   C1B31711  38.041  40.153   8.707
 2232POPC   C2B31712  38.023  40.366   8.318
 2232POPC   C3B31713  37.976  40.139   7.941
 2232POPC   C4B31714  38.010  40.168   7.498
 2233POPC   NC331715   8.067  18.568   9.283
 2233POPC   PO431716   8.465  18.060   9.482
 2233POPC   GL131717   8.503  18.302   9.116
 2233POPC   GL231718   8.182  18.193   8.983
 2233POPC   C1A31719   8.496  18.399   8.660
 2233POPC   D2A31720   8.211  18.486   8.329
 2233POPC   C3A31721   8.334  18.378   7.890
 2233POPC   C4A31722   8.055  18.408   7.501
 2233POPC   C1B31723   7.939  18.120   8.593
 2233POPC   C2B31724   8.106  17.996   8.215
 2233POPC   C3B31725   7.907  18.118   7.882
 2233POPC   C4B31726   7.717  17.993   7.497
 2234POPC   NC331727  36.943   1.891   9.606
 2234POPC   PO431728  37.041   2.333   9.087
 2234POPC   GL131729  37.045   1.907   9.083
 2234POPC   GL231730  36.711   1.918   8.967
 2234POPC   C1A31731  37.244   1.735   8.714
 2234POPC   D2A31732  37.255   2.014   8.349
 2234POPC   C3A31733  37.220   1.798   7.962
 2234POPC   C4A31734  37.141   1.994   7.574
 2234POPC   C1B31735  36.446   2.243   8.764
 2234POPC   C2B31736  36.654   2.399   8.423
 2234POPC   C3B31737  36.812   2.153   8.098
 2234POPC   C4B31738  36.682   2.164   7.697
 2235POPC   NC331739   3.346  14.006   9.505
 2235POPC   PO431740   3.668  13.544   9.871
 2235POPC   GL131741   3.632  13.531   9.333
 2235POPC   GL231742   3.422  13.780   9.053
 2235POPC   C1A31743   3.808  13.563   8.865
 2235POPC   D2A31744   3.533  13.810   8.525
 2235POPC   C3A31745   3.433  13.636   8.083
 2235POPC   C4A31746   3.615  13.716   7.634
 2235POPC   C1B31747   3.112  13.568   8.748
 2235POPC   C2B31748   3.065  13.297   8.387
 2235POPC   C3B31749   3.008  13.338   7.977
 2235POPC   C4B31750   3.270  13.349   7.667
 2236POPC   NC331751   5.423  18.483   9.444
 2236POPC   PO431752   6.063  18.341   9.442
 2236POPC   GL131753   5.864  18.501   9.130
 2236POPC   GL231754   6.152  18.639   8.974
 2236POPC   C1A31755   5.657  18.321   8.795
 2236POPC   D2A31756   5.840  18.279   8.385
 2236POPC   C3A31757   5.548  18.107   8.069
 2236POPC   C4A31758   5.729  18.087   7.673
 2236POPC   C1B31759   6.155  18.166   8.822
 2236POPC   C2B31760   6.272  17.970   8.432
 2236POPC   C3B31761   6.048  17.940   8.047
 2236POPC   C4B31762   6.176  18.253   7.796
 2237POPC   NC331763   1.807  24.997   9.518
 2237POPC   PO431764   2.010  25.659   9.478
 2237POPC   GL131765   1.904  25.354   9.172
 2237POPC   GL231766   2.212  25.169   9.138
 2237POPC   C1A31767   1.734  25.292   8.770
 2237POPC   D2A31768   2.004  25.423   8.433
 2237POPC   C3A31769   1.871  25.310   8.049
 2237POPC   C4A31770   1.794  25.385   7.631
 2237POPC   C1B31771   2.206  25.006   8.710
 2237POPC   C2B31772   2.112  24.896   8.274
 2237POPC   C3B31773   2.312  25.082   7.877
 2237POPC   C4B31774   2.272  25.536   7.806
 2238POPC   NC331775  32.219  15.903   9.719
 2238POPC   PO431776  32.868  15.951   9.510
 2238POPC   GL131777  32.450  16.008   9.262
 2238POPC   GL231778  32.122  15.808   9.220
 2238POPC   C1A31779  32.196  16.176   8.901
 2238POPC   D2A31780  32.141  16.121   8.488
 2238POPC   C3A31781  31.964  16.281   8.139
 2238POPC   C4A31782  32.167  16.102   7.802
 2238POPC   C1B31783  32.225  15.682   8.789
 2238POPC   C2B31784  31.961  15.665   8.402
 2238POPC   C3B31785  32.014  15.603   7.950
 2238POPC   C4B31786  31.996  15.726   7.498
 2239POPC   NC331787  38.916  11.462   9.538
 2239POPC   PO431788  39.446  11.053   9.598
 2239POPC   GL131789  39.321  11.352   9.250
 2239POPC   GL231790  39.059  11.108   9.158
 2239POPC   C1A31791  39.166  11.460   8.796
 2239POPC   D2A31792  39.148  11.279   8.352
 2239POPC   C3A31793  39.461  11.452   8.030
 2239POPC   C4A31794  39.528  11.555   7.597
 2239POPC   C1B31795  39.034  10.908   8.744
 2239POPC   C2B31796  39.003  10.753   8.304
 2239POPC   C3B31797  39.273  10.898   7.998
 2239POPC   C4B31798  39.117  11.228   7.746
 2240POPC   NC331799  19.063  18.855   9.597
 2240POPC   PO431800  19.341  19.408   9.849
 2240POPC   GL131801  19.199  19.390   9.358
 2240POPC   GL231802  18.945  19.142   9.205
 2240POPC   C1A31803  19.100  19.450   8.859
 2240POPC   D2A31804  19.200  19.207   8.471
 2240POPC   C3A31805  18.962  19.249   8.077
 2240POPC   C4A31806  19.135  19.335   7.660
 2240POPC   C1B31807  18.786  19.029   8.765
 2240POPC   C2B31808  18.893  18.814   8.356
 2240POPC   C3B31809  19.122  18.794   7.956
 2240POPC   C4B31810  18.869  18.910   7.565
 2241POPC   NC331811  29.693   0.284   9.455
 2241POPC   PO431812  29.940   0.823   9.678
 2241POPC   GL131813  30.017   0.592   9.228
 2241POPC   GL231814  29.822   0.280   8.987
 2241POPC   C1A31815  30.036   0.669   8.794
 2241POPC   D2A31816  29.713   0.652   8.477
 2241POPC   C3A31817  29.854   0.719   8.059
 2241POPC   C4A31818  29.750   0.630   7.616
 2241POPC   C1B31819  29.988   0.218   8.564
 2241POPC   C2B31820  30.230   0.403   8.260
 2241POPC   C3B31821  30.103   0.314   7.873
 2241POPC   C4B31822  29.663   0.218   7.924
 2242POPC   NC331823   9.743  17.889   9.519
 2242POPC   PO431824   9.368  18.485   9.532
 2242POPC   GL131825   9.549  18.219   9.203
 2242POPC   GL231826   9.873  18.264   9.087
 2242POPC   C1A31827   9.458  18.134   8.784
 2242POPC   D2A31828   9.484  18.326   8.381
 2242POPC   C3A31829   9.493  18.042   8.063
 2242POPC   C4A31830   9.754  18.043   7.731
 2242POPC   C1B31831  10.002  18.249   8.643
 2242POPC   C2B31832  10.082  18.466   8.228
 2242POPC   C3B31833  10.131  18.409   7.764
 2242POPC   C4B31834  10.233  18.183   7.349
 2243POPC   NC331835  23.159  31.892   9.658
 2243POPC   PO431836  22.637  31.492   9.506
 2243POPC   GL131837  22.703  31.467   9.112
 2243POPC   GL231838  23.036  31.322   9.125
 2243POPC   C1A31839  22.666  31.269   8.757
 2243POPC   D2A31840  22.977  31.268   8.477
 2243POPC   C3A31841  22.760  31.350   8.140
 2243POPC   C4A31842  22.748  31.553   7.757
 2243POPC   C1B31843  23.195  31.632   8.815
 2243POPC   C2B31844  23.424  31.554   8.427
 2243POPC   C3B31845  23.254  31.453   8.016
 2243POPC   C4B31846  23.370  31.358   7.594
 2244POPC   NC331847  30.933   2.331   9.909
 2244POPC   PO431848  30.883   1.908   9.387
 2244POPC   GL131849  30.656   1.915   9.045
 2244POPC   GL231850  30.598   2.293   9.044
 2244POPC   C1A31851  30.547   1.948   8.619
 2244POPC   D2A31852  30.527   2.246   8.295
 2244POPC   C3A31853  30.639   1.948   8.006
 2244POPC   C4A31854  30.769   1.912   7.574
 2244POPC   C1B31855  30.938   2.257   8.743
 2244POPC   C2B31856  31.050   2.136   8.309
 2244POPC   C3B31857  31.057   2.221   7.845
 2244POPC   C4B31858  31.047   2.303   7.354
 2245POPC   NC331859   3.145  37.511   9.508
 2245POPC   PO431860   2.479  37.684   9.507
 2245POPC   GL131861   2.759  37.686   9.207
 2245POPC   GL231862   2.788  37.296   9.194
 2245POPC   C1A31863   2.803  37.867   8.784
 2245POPC   D2A31864   2.680  37.927   8.335
 2245POPC   C3A31865   2.900  37.644   8.073
 2245POPC   C4A31866   3.023  37.645   7.663
 2245POPC   C1B31867   2.485  37.437   8.879
 2245POPC   C2B31868   2.516  37.443   8.458
 2245POPC   C3B31869   2.382  37.549   8.071
 2245POPC   C4B31870   2.597  37.368   7.735
 2246POPC   NC331871  12.654  13.208   9.481
 2246POPC   PO431872  12.959  12.589   9.455
 2246POPC   GL131873  12.811  12.649   9.085
 2246POPC   GL231874  12.546  12.866   9.115
 2246POPC   C1A31875  12.929  12.871   8.723
 2246POPC   D2A31876  13.143  12.979   8.338
 2246POPC   C3A31877  13.146  12.744   7.966
 2246POPC   C4A31878  12.957  13.013   7.676
 2246POPC   C1B31879  12.491  13.186   8.799
 2246POPC   C2B31880  12.512  13.328   8.365
 2246POPC   C3B31881  12.514  13.171   7.943
 2246POPC   C4B31882  12.535  12.773   7.717
 2247POPC   NC331883   2.982  42.554   9.830
 2247POPC   PO431884   2.671  42.027   9.549
 2247POPC   GL131885   2.583  42.293   9.175
 2247POPC   GL231886   2.328  42.114   9.105
 2247POPC   C1A31887   2.851  42.455   8.796
 2247POPC   D2A31888   3.043  42.284   8.432
 2247POPC   C3A31889   3.228  42.513   8.107
 2247POPC   C4A31890   2.907  42.450   7.822
 2247POPC   C1B31891   2.330  42.454   8.758
 2247POPC   C2B31892   2.539  42.448   8.348
 2247POPC   C3B31893   2.598  42.116   8.063
 2247POPC   C4B31894   2.365  41.897   7.734
 2248POPC   NC331895  27.384  31.168   9.425
 2248POPC   PO431896  27.364  30.526   9.542
 2248POPC   GL131897  27.502  30.694   9.169
 2248POPC   GL231898  27.253  30.916   8.997
 2248POPC   C1A31899  27.512  30.456   8.782
 2248POPC   D2A31900  27.396  30.328   8.364
 2248POPC   C3A31901  27.566  30.634   8.096
 2248POPC   C4A31902  27.756  30.649   7.705
 2248POPC   C1B31903  27.634  30.965   8.748
 2248POPC   C2B31904  27.825  31.005   8.331
 2248POPC   C3B31905  27.671  31.129   7.928
 2248POPC   C4B31906  27.636  31.104   7.466
 2249POPC   NC331907   1.797   9.699   9.371
 2249POPC   PO431908   2.404   9.759   9.535
 2249POPC   GL131909   2.252   9.878   9.137
 2249POPC   GL231910   2.170   9.539   9.013
 2249POPC   C1A31911   2.405   9.858   8.696
 2249POPC   D2A31912   2.158   9.604   8.397
 2249POPC   C3A31913   1.993   9.693   7.987
 2249POPC   C4A31914   1.804   9.403   7.695
 2249POPC   C1B31915   1.895   9.851   8.755
 2249POPC   C2B31916   1.684   9.892   8.362
 2249POPC   C3B31917   1.491   9.611   8.045
 2249POPC   C4B31918   1.347   9.578   7.613
 2250POPC   NC331919  32.073  42.018   9.413
 2250POPC   PO431920  32.282  42.668   9.584
 2250POPC   GL131921  32.221  42.465   9.206
 2250POPC   GL231922  31.894  42.505   9.138
 2250POPC   C1A31923  32.368  42.263   8.813
 2250POPC   D2A31924  32.154  42.265   8.409
 2250POPC   C3A31925  32.354  42.233   8.021
 2250POPC   C4A31926  32.241  42.392   7.609
 2250POPC   C1B31927  32.044  42.647   8.771
 2250POPC   C2B31928  32.275  42.778   8.421
 2250POPC   C3B31929  32.140  42.742   8.008
 2250POPC   C4B31930  32.239  42.899   7.565
 2251POPC   NC331931  26.397  19.641   9.665
 2251POPC   PO431932  26.975  19.354   9.439
 2251POPC   GL131933  26.815  19.674   9.173
 2251POPC   GL231934  27.007  19.999   9.108
 2251POPC   C1A31935  26.607  19.677   8.792
 2251POPC   D2A31936  26.442  19.626   8.394
 2251POPC   C3A31937  26.599  19.793   8.044
 2251POPC   C4A31938  26.507  20.148   7.768
 2251POPC   C1B31939  26.892  20.096   8.696
 2251POPC   C2B31940  26.841  20.165   8.280
 2251POPC   C3B31941  27.002  20.112   7.893
 2251POPC   C4B31942  27.279  20.272   7.649
 2252POPC   NC331943  16.931  25.850   9.616
 2252POPC   PO431944  16.795  26.493   9.773
 2252POPC   GL131945  16.867  26.321   9.305
 2252POPC   GL231946  17.031  25.988   9.136
 2252POPC   C1A31947  16.618  26.254   8.911
 2252POPC   D2A31948  16.679  26.347   8.459
 2252POPC   C3A31949  16.499  26.133   8.100
 2252POPC   C4A31950  16.372  26.267   7.691
 2252POPC   C1B31951  16.993  25.945   8.689
 2252POPC   C2B31952  16.968  25.923   8.241
 2252POPC   C3B31953  16.902  25.965   7.815
 2252POPC   C4B31954  16.686  25.682   7.557
 2253POPC   NC331955   6.401   6.608   9.596
 2253POPC   PO431956   7.000   6.840   9.459
 2253POPC   GL131957   6.638   6.701   9.181
 2253POPC   GL231958   6.319   6.902   9.169
 2253POPC   C1A31959   6.634   6.393   8.864
 2253POPC   D2A31960   6.863   6.482   8.488
 2253POPC   C3A31961   6.661   6.627   8.126
 2253POPC   C4A31962   6.390   6.427   7.854
 2253POPC   C1B31963   6.313   6.792   8.746
 2253POPC   C2B31964   6.338   6.966   8.336
 2253POPC   C3B31965   6.285   6.928   7.890
 2253POPC   C4B31966   6.609   6.804   7.587
 2254POPC   NC331967   8.850  33.722   9.334
 2254POPC   PO431968   9.337  34.158   9.299
 2254POPC   GL131969   9.180  33.891   8.977
 2254POPC   GL231970   9.320  33.578   9.153
 2254POPC   C1A31971   8.791  33.842   8.695
 2254POPC   D2A31972   8.588  33.599   8.367
 2254POPC   C3A31973   8.683  33.771   7.989
 2254POPC   C4A31974   9.069  33.852   7.808
 2254POPC   C1B31975   9.447  33.515   8.743
 2254POPC   C2B31976   9.152  33.578   8.413
 2254POPC   C3B31977   8.960  33.342   8.094
 2254POPC   C4B31978   9.204  33.336   7.738
 2255POPC   NC331979  21.658   5.986   9.649
 2255POPC   PO431980  21.019   5.823   9.647
 2255POPC   GL131981  21.298   5.947   9.255
 2255POPC   GL231982  21.580   5.719   9.197
 2255POPC   C1A31983  21.350   6.091   8.790
 2255POPC   D2A31984  21.215   6.329   8.388
 2255POPC   C3A31985  21.201   6.052   8.002
 2255POPC   C4A31986  21.062   5.735   7.660
 2255POPC   C1B31987  21.735   5.692   8.757
 2255POPC   C2B31988  21.626   5.500   8.366
 2255POPC   C3B31989  21.483   5.603   7.937
 2255POPC   C4B31990  21.536   5.447   7.485
 2256POPC   NC331991  21.610  28.941   9.516
 2256POPC   PO431992  21.278  29.520   9.268
 2256POPC   GL131993  21.582  29.299   9.105
 2256POPC   GL231994  21.369  29.020   9.055
 2256POPC   C1A31995  21.589  29.315   8.662
 2256POPC   D2A31996  21.382  29.433   8.322
 2256POPC   C3A31997  21.547  29.339   7.981
 2256POPC   C4A31998  21.329  29.419   7.638
 2256POPC   C1B31999  21.367  28.826   8.654
 2256POPC   C2B32000  21.255  28.952   8.248
 2256POPC   C3B32001  21.400  28.854   7.850
 2256POPC   C4B32002  21.720  28.552   7.798
 2257POPC   NC332003  25.795  12.408   9.446
 2257POPC   PO432004  25.960  11.740   9.510
 2257POPC   GL132005  26.213  11.892   9.149
 2257POPC   GL232006  26.093  12.220   9.057
 2257POPC   C1A32007  26.340  11.905   8.707
 2257POPC   D2A32008  26.227  12.135   8.348
 2257POPC   C3A32009  26.355  11.993   7.981
 2257POPC   C4A32010  26.302  11.970   7.563
 2257POPC   C1B32011  25.839  12.030   8.698
 2257POPC   C2B32012  25.733  12.060   8.239
 2257POPC   C3B32013  25.920  12.200   7.851
 2257POPC   C4B32014  26.056  12.427   7.498
 2258POPC   NC332015  32.564  38.574   9.324
 2258POPC   PO432016  33.156  38.654   9.601
 2258POPC   GL132017  33.161  38.528   9.177
 2258POPC   GL232018  33.055  38.166   9.163
 2258POPC   C1A32019  32.912  38.512   8.796
 2258POPC   D2A32020  32.645  38.655   8.491
 2258POPC   C3A32021  32.732  38.541   8.091
 2258POPC   C4A32022  32.956  38.603   7.720
 2258POPC   C1B32023  32.925  38.005   8.747
 2258POPC   C2B32024  32.986  38.145   8.320
 2258POPC   C3B32025  33.177  38.202   7.910
 2258POPC   C4B32026  33.116  38.182   7.411
 2259POPC   NC332027  26.784  12.469   9.314
 2259POPC   PO432028  26.983  13.103   9.420
 2259POPC   GL132029  27.068  13.003   9.016
 2259POPC   GL232030  26.907  12.712   8.883
 2259POPC   C1A32031  27.115  13.063   8.574
 2259POPC   D2A32032  26.883  12.776   8.296
 2259POPC   C3A32033  26.924  12.795   7.857
 2259POPC   C4A32034  26.970  13.109   7.543
 2259POPC   C1B32035  26.600  12.975   8.676
 2259POPC   C2B32036  26.297  12.970   8.377
 2259POPC   C3B32037  26.441  13.016   7.989
 2259POPC   C4B32038  26.494  12.910   7.569
 2260POPC   NC332039   8.559  20.030   9.520
 2260POPC   PO432040   8.368  20.729   9.556
 2260POPC   GL132041   8.346  20.675   9.166
 2260POPC   GL232042   8.370  20.341   9.171
 2260POPC   C1A32043   8.173  20.613   8.786
 2260POPC   D2A32044   8.072  20.762   8.406
 2260POPC   C3A32045   8.201  20.481   8.102
 2260POPC   C4A32046   8.189  20.720   7.752
 2260POPC   C1B32047   8.568  20.171   8.817
 2260POPC   C2B32048   8.524  20.038   8.388
 2260POPC   C3B32049   8.675  20.149   8.026
 2260POPC   C4B32050   8.598  20.429   7.716
 2261POPC   NC332051   5.947   9.966   9.673
 2261POPC   PO432052   6.229   9.371   9.567
 2261POPC   GL132053   5.944   9.657   9.253
 2261POPC   GL232054   5.761  10.024   9.212
 2261POPC   C1A32055   6.048   9.787   8.826
 2261POPC   D2A32056   6.146   9.613   8.414
 2261POPC   C3A32057   5.865   9.646   8.048
 2261POPC   C4A32058   6.094   9.597   7.641
 2261POPC   C1B32059   5.559   9.966   8.804
 2261POPC   C2B32060   5.828  10.037   8.447
 2261POPC   C3B32061   5.847  10.157   8.051
 2261POPC   C4B32062   5.534   9.993   7.769
 2262POPC   NC332063  44.209   4.465   9.620
 2262POPC   PO432064  44.112   3.806   9.430
 2262POPC   GL132065  43.943   4.137   9.171
 2262POPC   GL232066  44.118   4.468   9.106
 2262POPC   C1A32067  43.815   4.231   8.745
 2262POPC   D2A32068  44.091   4.336   8.404
 2262POPC   C3A32069  44.077   4.127   8.041
 2262POPC   C4A32070  43.925   4.220   7.638
 2262POPC   C1B32071  43.927   4.721   8.748
 2262POPC   C2B32072  43.670   4.609   8.366
 2262POPC   C3B32073  43.875   4.608   7.959
 2262POPC   C4B32074  44.073   4.721   7.543
 2263POPC   NC332075  18.280  19.471   9.506
 2263POPC   PO432076  18.547  19.989   9.836
 2263POPC   GL132077  18.315  19.944   9.342
 2263POPC   GL232078  17.989  20.061   9.186
 2263POPC   C1A32079  18.377  19.777   8.852
 2263POPC   D2A32080  18.551  19.787   8.413
 2263POPC   C3A32081  18.397  20.026   8.042
 2263POPC   C4A32082  18.568  20.044   7.614
 2263POPC   C1B32083  17.884  19.894   8.771
 2263POPC   C2B32084  18.033  19.805   8.339
 2263POPC   C3B32085  17.842  19.706   7.960
 2263POPC   C4B32086  17.915  19.914   7.582
 2264POPC   NC332087  33.505  12.367   9.494
 2264POPC   PO432088  33.950  12.894   9.524
 2264POPC   GL132089  34.115  12.893   9.151
 2264POPC   GL232090  34.025  12.553   9.089
 2264POPC   C1A32091  33.966  13.103   8.802
 2264POPC   D2A32092  33.695  12.925   8.504
 2264POPC   C3A32093  33.716  13.057   8.087
 2264POPC   C4A32094  33.608  12.777   7.754
 2264POPC   C1B32095  34.183  12.621   8.701
 2264POPC   C2B32096  34.034  12.564   8.303
 2264POPC   C3B32097  34.116  12.772   7.947
 2264POPC   C4B32098  34.034  12.640   7.544
 2265POPC   NC332099  41.760   0.986   9.504
 2265POPC   PO432100  41.445   0.374   9.477
 2265POPC   GL132101  41.634   0.471   9.087
 2265POPC   GL232102  41.560   0.142   9.047
 2265POPC   C1A32103  41.757   0.386   8.643
 2265POPC   D2A32104  41.591   0.639   8.351
 2265POPC   C3A32105  41.524   0.582   7.948
 2265POPC   C4A32106  41.738   0.405   7.641
 2265POPC   C1B32107  41.269  44.995   8.743
 2265POPC   C2B32108  41.382   0.123   8.329
 2265POPC   C3B32109  41.195   0.174   7.927
 2265POPC   C4B32110  41.368   0.077   7.540
 2266POPC   NC332111  31.078  40.141   9.400
 2266POPC   PO432112  31.481  39.784   9.722
 2266POPC   GL132113  31.471  39.794   9.226
 2266POPC   GL232114  31.312  39.561   9.043
 2266POPC   C1A32115  31.395  40.015   8.817
 2266POPC   D2A32116  31.183  40.144   8.443
 2266POPC   C3A32117  31.494  40.396   8.192
 2266POPC   C4A32118  31.734  40.340   7.787
 2266POPC   C1B32119  31.524  39.489   8.691
 2266POPC   C2B32120  31.415  39.702   8.354
 2266POPC   C3B32121  31.319  39.928   7.994
 2266POPC   C4B32122  31.587  39.837   7.702
 2267POPC   NC332123   2.203  41.891   9.595
 2267POPC   PO432124   1.808  42.509   9.456
 2267POPC   GL132125   1.902  42.379   9.080
 2267POPC   GL232126   1.804  42.077   9.164
 2267POPC   C1A32127   1.914  42.168   8.664
 2267POPC   D2A32128   2.021  42.443   8.315
 2267POPC   C3A32129   2.178  42.370   7.915
 2267POPC   C4A32130   2.081  42.570   7.564
 2267POPC   C1B32131   1.605  41.793   8.906
 2267POPC   C2B32132   1.578  41.729   8.487
 2267POPC   C3B32133   1.509  41.895   8.097
 2267POPC   C4B32134   1.686  42.209   7.823
 2268POPC   NC332135  38.238  16.474   9.427
 2268POPC   PO432136  38.700  16.017   9.620
 2268POPC   GL132137  38.509  16.026   9.193
 2268POPC   GL232138  38.514  15.690   9.069
 2268POPC   C1A32139  38.153  16.098   8.839
 2268POPC   D2A32140  37.969  15.994   8.415
 2268POPC   C3A32141  38.148  15.914   8.013
 2268POPC   C4A32142  38.345  16.276   7.856
 2268POPC   C1B32143  38.549  15.840   8.688
 2268POPC   C2B32144  38.528  16.087   8.339
 2268POPC   C3B32145  38.780  15.990   8.007
 2268POPC   C4B32146  38.572  15.750   7.776
 2269POPC   NC332147  13.121   2.971   9.476
 2269POPC   PO432148  12.649   2.459   9.517
 2269POPC   GL132149  12.881   2.649   9.161
 2269POPC   GL232150  12.711   2.972   9.141
 2269POPC   C1A32151  12.946   2.815   8.730
 2269POPC   D2A32152  12.908   2.660   8.328
 2269POPC   C3A32153  12.973   2.886   7.960
 2269POPC   C4A32154  13.098   2.519   7.798
 2269POPC   C1B32155  12.480   2.656   8.821
 2269POPC   C2B32156  12.409   2.705   8.375
 2269POPC   C3B32157  12.561   2.553   7.966
 2269POPC   C4B32158  12.661   2.630   7.538
 2270POPC   NC332159  39.734   8.412   9.544
 2270POPC   PO432160  39.918   7.739   9.397
 2270POPC   GL132161  39.755   7.996   9.060
 2270POPC   GL232162  39.633   8.341   9.035
 2270POPC   C1A32163  39.787   8.083   8.621
 2270POPC   D2A32164  39.788   7.952   8.208
 2270POPC   C3A32165  39.707   8.185   7.826
 2270POPC   C4A32166  39.796   8.023   7.451
 2270POPC   C1B32167  39.640   8.576   8.644
 2270POPC   C2B32168  39.789   8.498   8.218
 2270POPC   C3B32169  39.832   8.697   7.796
 2270POPC   C4B32170  40.096   8.769   7.414
 2271POPC   NC332171  38.967   9.050   9.475
 2271POPC   PO432172  39.303   8.527   9.372
 2271POPC   GL132173  39.108   8.751   9.065
 2271POPC   GL232174  38.774   8.746   9.100
 2271POPC   C1A32175  39.197   8.826   8.642
 2271POPC   D2A32176  39.338   8.734   8.213
 2271POPC   C3A32177  39.382   9.027   7.861
 2271POPC   C4A32178  39.454   8.979   7.393
 2271POPC   C1B32179  38.694   8.697   8.686
 2271POPC   C2B32180  38.895   8.514   8.351
 2271POPC   C3B32181  38.897   8.683   7.957
 2271POPC   C4B32182  38.982   8.859   7.581
 2272POPC   NC332183   9.348  22.381   9.463
 2272POPC   PO432184   8.807  22.042   9.349
 2272POPC   GL132185   9.065  22.213   9.046
 2272POPC   GL232186   9.308  21.963   9.109
 2272POPC   C1A32187   9.009  22.378   8.603
 2272POPC   D2A32188   8.743  22.425   8.231
 2272POPC   C3A32189   8.725  22.091   7.907
 2272POPC   C4A32190   8.840  22.135   7.461
 2272POPC   C1B32191   9.413  22.049   8.709
 2272POPC   C2B32192   9.481  22.231   8.326
 2272POPC   C3B32193   9.200  22.286   8.014
 2272POPC   C4B32194   9.293  22.342   7.625
 2273POPC   NC332195  12.134  13.310   9.887
 2273POPC   PO432196  12.240  12.644   9.711
 2273POPC   GL132197  12.089  12.706   9.292
 2273POPC   GL232198  12.196  12.483   9.070
 2273POPC   C1A32199  12.074  12.900   8.850
 2273POPC   D2A32200  12.093  13.048   8.436
 2273POPC   C3A32201  11.960  12.902   8.031
 2273POPC   C4A32202  12.136  13.042   7.625
 2273POPC   C1B32203  11.977  12.457   8.654
 2273POPC   C2B32204  12.211  12.402   8.258
 2273POPC   C3B32205  12.137  12.474   7.830
 2273POPC   C4B32206  11.824  12.620   7.581
 2274POPC   NC332207  18.837  31.887   9.426
 2274POPC   PO432208  19.107  31.266   9.481
 2274POPC   GL132209  19.159  31.455   9.087
 2274POPC   GL232210  18.821  31.510   9.052
 2274POPC   C1A32211  19.179  31.353   8.652
 2274POPC   D2A32212  19.152  31.570   8.270
 2274POPC   C3A32213  19.360  31.339   7.965
 2274POPC   C4A32214  19.276  31.170   7.559
 2274POPC   C1B32215  18.757  31.640   8.619
 2274POPC   C2B32216  18.646  31.357   8.278
 2274POPC   C3B32217  18.831  31.418   7.877
 2274POPC   C4B32218  18.907  31.876   7.765
 2275POPC   NC332219  11.410  23.753   9.854
 2275POPC   PO432220  11.563  23.492   9.217
 2275POPC   GL132221  11.168  23.553   8.997
 2275POPC   GL232222  11.119  23.928   8.904
 2275POPC   C1A32223  11.078  23.500   8.609
 2275POPC   D2A32224  11.353  23.468   8.308
 2275POPC   C3A32225  11.205  23.506   7.937
 2275POPC   C4A32226  11.517  23.367   7.697
 2275POPC   C1B32227  11.457  23.861   8.636
 2275POPC   C2B32228  11.715  23.896   8.284
 2275POPC   C3B32229  11.580  23.842   7.870
 2275POPC   C4B32230  11.529  24.119   7.515
 2276POPC   NC332231  21.907   7.594   9.413
 2276POPC   PO432232  22.464   7.213   9.639
 2276POPC   GL132233  22.241   7.264   9.205
 2276POPC   GL232234  22.297   7.504   8.926
 2276POPC   C1A32235  21.938   7.185   8.810
 2276POPC   D2A32236  21.906   7.365   8.362
 2276POPC   C3A32237  22.250   7.271   8.039
 2276POPC   C4A32238  22.247   7.181   7.557
 2276POPC   C1B32239  21.888   7.703   8.763
 2276POPC   C2B32240  21.779   7.901   8.385
 2276POPC   C3B32241  21.838   7.734   7.992
 2276POPC   C4B32242  22.205   7.679   7.749
 2277POPC   NC332243  26.390  14.064   9.585
 2277POPC   PO432244  26.965  14.484   9.485
 2277POPC   GL132245  26.726  14.521   9.149
 2277POPC   GL232246  26.624  14.212   9.171
 2277POPC   C1A32247  26.785  14.343   8.722
 2277POPC   D2A32248  26.842  14.554   8.346
 2277POPC   C3A32249  26.871  14.315   7.986
 2277POPC   C4A32250  26.770  14.556   7.673
 2277POPC   C1B32251  26.338  14.060   8.861
 2277POPC   C2B32252  26.249  13.906   8.450
 2277POPC   C3B32253  26.461  13.995   8.081
 2277POPC   C4B32254  26.390  14.230   7.717
 2278POPC   NC332255  25.096  44.874   9.890
 2278POPC   PO432256  25.492   0.301   9.506
 2278POPC   GL132257  25.559   0.375   9.077
 2278POPC   GL232258  25.351   0.105   8.951
 2278POPC   C1A32259  25.515   0.454   8.608
 2278POPC   D2A32260  25.189   0.456   8.294
 2278POPC   C3A32261  25.230   0.467   7.848
 2278POPC   C4A32262  25.420   0.473   7.439
 2278POPC   C1B32263  24.977   0.239   8.712
 2278POPC   C2B32264  24.862   0.060   8.294
 2278POPC   C3B32265  24.925   0.018   7.847
 2278POPC   C4B32266  24.976   0.219   7.433
 2279POPC   NC332267   9.313  30.276   9.513
 2279POPC   PO432268   8.929  30.790   9.566
 2279POPC   GL132269   9.024  30.601   9.197
 2279POPC   GL232270   9.332  30.800   9.131
 2279POPC   C1A32271   8.787  30.495   8.834
 2279POPC   D2A32272   8.761  30.381   8.405
 2279POPC   C3A32273   8.976  30.655   8.103
 2279POPC   C4A32274   9.132  30.471   7.752
 2279POPC   C1B32275   9.065  30.934   8.785
 2279POPC   C2B32276   9.131  31.114   8.393
 2279POPC   C3B32277   9.279  31.105   7.967
 2279POPC   C4B32278   9.079  30.943   7.591
 2280POPC   NC332279  40.131  17.847   9.452
 2280POPC   PO432280  39.810  17.269   9.689
 2280POPC   GL132281  39.797  17.548   9.256
 2280POPC   GL232282  40.142  17.420   9.180
 2280POPC   C1A32283  39.873  17.538   8.765
 2280POPC   D2A32284  39.671  17.222   8.467
 2280POPC   C3A32285  39.844  17.250   8.045
 2280POPC   C4A32286  39.972  17.588   7.783
 2280POPC   C1B32287  40.414  17.457   8.826
 2280POPC   C2B32288  40.316  17.499   8.396
 2280POPC   C3B32289  40.432  17.654   8.011
 2280POPC   C4B32290  40.453  17.504   7.603
 2281POPC   NC332291   8.933   5.484   9.531
 2281POPC   PO432292   8.704   4.825   9.411
 2281POPC   GL132293   8.901   5.102   9.176
 2281POPC   GL232294   8.709   5.383   9.039
 2281POPC   C1A32295   9.084   5.008   8.826
 2281POPC   D2A32296   8.998   4.843   8.422
 2281POPC   C3A32297   9.184   4.939   8.021
 2281POPC   C4A32298   8.872   4.929   7.697
 2281POPC   C1B32299   8.798   5.350   8.602
 2281POPC   C2B32300   8.844   5.285   8.158
 2281POPC   C3B32301   9.042   5.400   7.766
 2281POPC   C4B32302   9.314   5.566   7.430
 2282POPC   NC332303  39.655   4.133   9.506
 2282POPC   PO432304  38.993   4.004   9.662
 2282POPC   GL132305  39.227   4.170   9.252
 2282POPC   GL232306  39.370   4.447   9.161
 2282POPC   C1A32307  39.228   4.176   8.773
 2282POPC   D2A32308  39.307   4.055   8.400
 2282POPC   C3A32309  39.260   4.264   8.026
 2282POPC   C4A32310  39.121   4.046   7.671
 2282POPC   C1B32311  39.616   4.491   8.766
 2282POPC   C2B32312  39.762   4.568   8.341
 2282POPC   C3B32313  39.653   4.645   7.888
 2282POPC   C4B32314  39.394   4.479   7.555
 2283POPC   NC332315   3.173   8.121   9.042
 2283POPC   PO432316   2.641   8.103   9.474
 2283POPC   GL132317   2.640   8.182   9.059
 2283POPC   GL232318   2.583   7.837   9.041
 2283POPC   C1A32319   2.594   8.358   8.634
 2283POPC   D2A32320   2.644   8.144   8.218
 2283POPC   C3A32321   2.820   8.370   7.867
 2283POPC   C4A32322   3.094   8.389   7.539
 2283POPC   C1B32323   2.723   7.862   8.644
 2283POPC   C2B32324   3.018   7.778   8.363
 2283POPC   C3B32325   3.040   7.893   7.947
 2283POPC   C4B32326   3.086   7.831   7.521
 2284POPC   NC332327   3.096  44.954   9.371
 2284POPC   PO432328   2.501  44.645   9.461
 2284POPC   GL132329   2.701  44.749   9.075
 2284POPC   GL232330   2.616  44.437   8.953
 2284POPC   C1A32331   2.964  44.699   8.684
 2284POPC   D2A32332   2.778  44.879   8.310
 2284POPC   C3A32333   3.005  44.911   7.925
 2284POPC   C4A32334   2.940  44.757   7.497
 2284POPC   C1B32335   2.332  44.513   8.641
 2284POPC   C2B32336   2.318  44.646   8.230
 2284POPC   C3B32337   2.535  44.649   7.831
 2284POPC   C4B32338   2.496  44.460   7.395
 2285POPC   NC332339  17.871  23.349   9.486
 2285POPC   PO432340  17.902  24.050   9.515
 2285POPC   GL132341  18.099  23.715   9.224
 2285POPC   GL232342  18.465  23.688   9.118
 2285POPC   C1A32343  18.121  23.438   8.825
 2285POPC   D2A32344  18.207  23.484   8.402
 2285POPC   C3A32345  18.249  23.388   7.976
 2285POPC   C4A32346  18.584  23.534   7.745
 2285POPC   C1B32347  18.219  23.938   8.796
 2285POPC   C2B32348  18.101  23.979   8.383
 2285POPC   C3B32349  18.337  23.929   8.018
 2285POPC   C4B32350  18.118  23.960   7.682
 2286POPC   NC332351  18.093  25.036   9.844
 2286POPC   PO432352  18.276  25.663   9.630
 2286POPC   GL132353  18.289  25.350   9.285
 2286POPC   GL232354  18.127  25.005   9.297
 2286POPC   C1A32355  18.417  25.356   8.840
 2286POPC   D2A32356  18.468  25.513   8.434
 2286POPC   C3A32357  18.360  25.243   8.078
 2286POPC   C4A32358  18.447  25.307   7.659
 2286POPC   C1B32359  17.954  25.189   8.929
 2286POPC   C2B32360  18.047  25.148   8.493
 2286POPC   C3B32361  17.869  25.170   8.069
 2286POPC   C4B32362  17.823  25.550   7.815
 2287POPC   NC332363   4.720  18.987   9.805
 2287POPC   PO432364   5.306  18.951   9.465
 2287POPC   GL132365   5.148  19.149   9.117
 2287POPC   GL232366   4.791  19.239   9.122
 2287POPC   C1A32367   5.339  19.234   8.727
 2287POPC   D2A32368   5.548  19.225   8.331
 2287POPC   C3A32369   5.430  18.921   8.038
 2287POPC   C4A32370   5.244  18.801   7.651
 2287POPC   C1B32371   4.808  18.940   8.768
 2287POPC   C2B32372   5.054  18.940   8.409
 2287POPC   C3B32373   4.935  19.009   8.029
 2287POPC   C4B32374   4.767  18.706   7.777
 2288POPC   NC332375  44.681   0.061   9.567
 2288POPC   PO432376  44.522   0.740   9.578
 2288POPC   GL132377  44.390   0.403   9.274
 2288POPC   GL232378  44.693   0.207   9.086
 2288POPC   C1A32379  44.342   0.484   8.845
 2288POPC   D2A32380  44.557   0.246   8.558
 2288POPC   C3A32381  44.560   0.274   8.146
 2288POPC   C4A32382  44.680   0.440   7.800
 2288POPC   C1B32383  44.999   0.133   8.754
 2288POPC   C2B32384  44.983  44.988   8.349
 2288POPC   C3B32385   0.070   0.136   7.983
 2288POPC   C4B32386  44.965   0.022   7.607
 2289POPC   NC332387   8.448  13.463   9.380
 2289POPC   PO432388   8.067  14.090   9.478
 2289POPC   GL132389   8.149  13.835   9.119
 2289POPC   GL232390   8.026  13.487   9.078
 2289POPC   C1A32391   8.363  13.761   8.738
 2289POPC   D2A32392   8.222  13.901   8.358
 2289POPC   C3A32393   8.441  13.763   8.022
 2289POPC   C4A32394   8.272  13.796   7.647
 2289POPC   C1B32395   8.195  13.289   8.718
 2289POPC   C2B32396   8.245  13.384   8.291
 2289POPC   C3B32397   8.182  13.314   7.846
 2289POPC   C4B32398   8.185  13.377   7.379
 2290POPC   NC332399  12.642   4.579   9.653
 2290POPC   PO432400  12.741   5.218   9.412
 2290POPC   GL132401  12.797   4.904   9.101
 2290POPC   GL232402  13.097   5.024   8.996
 2290POPC   C1A32403  12.802   4.848   8.634
 2290POPC   D2A32404  12.668   4.995   8.242
 2290POPC   C3A32405  12.732   4.845   7.817
 2290POPC   C4A32406  13.072   4.832   7.500
 2290POPC   C1B32407  12.878   5.337   8.738
 2290POPC   C2B32408  12.948   5.415   8.284
 2290POPC   C3B32409  13.040   5.243   7.860
 2290POPC   C4B32410  13.193   5.400   7.464
 2291POPC   NC332411   8.105  27.154   9.370
 2291POPC   PO432412   8.456  27.731   9.440
 2291POPC   GL132413   8.166  27.594   9.104
 2291POPC   GL232414   8.300  27.298   8.923
 2291POPC   C1A32415   7.997  27.617   8.684
 2291POPC   D2A32416   8.146  27.338   8.372
 2291POPC   C3A32417   8.179  27.486   7.973
 2291POPC   C4A32418   8.508  27.319   7.688
 2291POPC   C1B32419   7.866  27.123   8.751
 2291POPC   C2B32420   7.621  27.260   8.421
 2291POPC   C3B32421   7.549  27.399   8.003
 2291POPC   C4B32422   7.754  27.747   7.825
 2292POPC   NC332423  30.696  39.016   9.532
 2292POPC   PO432424  31.000  39.658   9.403
 2292POPC   GL132425  30.666  39.526   9.122
 2292POPC   GL232426  30.738  39.205   9.079
 2292POPC   C1A32427  30.544  39.411   8.667
 2292POPC   D2A32428  30.478  39.113   8.325
 2292POPC   C3A32429  30.652  39.299   7.989
 2292POPC   C4A32430  30.615  39.282   7.580
 2292POPC   C1B32431  30.607  38.897   8.765
 2292POPC   C2B32432  30.777  38.697   8.388
 2292POPC   C3B32433  30.721  38.788   7.951
 2292POPC   C4B32434  31.032  39.028   7.742
 2293POPC   NC332435  31.063  36.591   9.487
 2293POPC   PO432436  31.541  37.084   9.537
 2293POPC   GL132437  31.484  36.969   9.145
 2293POPC   GL232438  31.468  36.618   9.157
 2293POPC   C1A32439  31.683  37.045   8.744
 2293POPC   D2A32440  31.624  36.909   8.331
 2293POPC   C3A32441  31.583  37.181   7.998
 2293POPC   C4A32442  31.699  37.205   7.596
 2293POPC   C1B32443  31.264  36.693   8.768
 2293POPC   C2B32444  31.336  36.496   8.390
 2293POPC   C3B32445  31.488  36.526   7.980
 2293POPC   C4B32446  31.348  36.822   7.649
 2294POPC   NC332447  41.026  31.420   9.366
 2294POPC   PO432448  40.461  31.813   9.494
 2294POPC   GL132449  40.626  31.633   9.096
 2294POPC   GL232450  40.478  31.297   9.034
 2294POPC   C1A32451  40.745  31.757   8.661
 2294POPC   D2A32452  40.464  31.941   8.320
 2294POPC   C3A32453  40.544  31.740   7.921
 2294POPC   C4A32454  40.958  31.634   7.788
 2294POPC   C1B32455  40.836  31.211   8.768
 2294POPC   C2B32456  40.902  31.013   8.384
 2294POPC   C3B32457  40.864  31.184   7.996
 2294POPC   C4B32458  41.051  31.135   7.618
 2295POPC   NC332459   4.827  44.454   9.539
 2295POPC   PO432460   5.365  44.955   9.440
 2295POPC   GL132461   5.105  44.775   9.125
 2295POPC   GL232462   5.112  44.416   9.127
 2295POPC   C1A32463   4.854  44.620   8.755
 2295POPC   D2A32464   4.959  44.310   8.431
 2295POPC   C3A32465   4.933  44.489   8.021
 2295POPC   C4A32466   4.775  44.759   7.674
 2295POPC   C1B32467   5.345  44.476   8.758
 2295POPC   C2B32468   5.399  44.623   8.366
 2295POPC   C3B32469   5.436  44.427   7.995
 2295POPC   C4B32470   5.209  44.413   7.596
 2296POPC   NC332471  37.379  38.989   9.878
 2296POPC   PO432472  37.700  39.455   9.520
 2296POPC   GL132473  37.737  39.291   9.126
 2296POPC   GL232474  37.380  39.352   9.049
 2296POPC   C1A32475  37.703  39.046   8.749
 2296POPC   D2A32476  37.566  39.135   8.350
 2296POPC   C3A32477  37.767  38.992   7.987
 2296POPC   C4A32478  37.663  39.204   7.628
 2296POPC   C1B32479  37.562  39.551   8.690
 2296POPC   C2B32480  37.384  39.592   8.313
 2296POPC   C3B32481  37.278  39.358   7.975
 2296POPC   C4B32482  37.325  39.602   7.645
 2297POPC   NC332483   5.858  17.894   9.416
 2297POPC   PO432484   6.153  17.353   9.540
 2297POPC   GL132485   6.161  17.453   9.111
 2297POPC   GL232486   6.022  17.140   8.986
 2297POPC   C1A32487   5.983  17.666   8.747
 2297POPC   D2A32488   5.699  17.755   8.407
 2297POPC   C3A32489   5.698  17.541   8.002
 2297POPC   C4A32490   5.764  17.592   7.552
 2297POPC   C1B32491   6.246  17.237   8.613
 2297POPC   C2B32492   6.147  17.492   8.271
 2297POPC   C3B32493   6.182  17.455   7.823
 2297POPC   C4B32494   6.209  17.367   7.378
 2298POPC   NC332495  43.968  18.710   9.481
 2298POPC   PO432496  43.548  19.308   9.413
 2298POPC   GL132497  43.801  19.171   9.103
 2298POPC   GL232498  43.921  19.493   9.009
 2298POPC   C1A32499  43.823  18.968   8.700
 2298POPC   D2A32500  44.133  18.921   8.368
 2298POPC   C3A32501  44.007  18.731   8.010
 2298POPC   C4A32502  44.094  18.809   7.598
 2298POPC   C1B32503  44.114  19.381   8.632
 2298POPC   C2B32504  43.962  19.392   8.222
 2298POPC   C3B32505  43.857  19.207   7.813
 2298POPC   C4B32506  43.797  19.141   7.350
 2299POPC   NC332507   1.480  34.441   9.516
 2299POPC   PO432508   0.849  34.665   9.313
 2299POPC   GL132509   1.230  34.519   9.085
 2299POPC   GL232510   1.548  34.769   9.134
 2299POPC   C1A32511   1.285  34.185   8.764
 2299POPC   D2A32512   1.365  34.194   8.300
 2299POPC   C3A32513   1.129  34.520   8.055
 2299POPC   C4A32514   1.139  34.606   7.605
 2299POPC   C1B32515   1.654  34.553   8.746
 2299POPC   C2B32516   1.611  34.646   8.291
 2299POPC   C3B32517   1.609  34.543   7.853
 2299POPC   C4B32518   1.570  34.842   7.452
 2300POPC   NC332519  35.435  36.642   9.516
 2300POPC   PO432520  35.718  37.178   9.334
 2300POPC   GL132521  35.366  37.076   9.091
 2300POPC   GL232522  35.274  36.725   9.055
 2300POPC   C1A32523  35.148  37.066   8.703
 2300POPC   D2A32524  35.340  36.950   8.361
 2300POPC   C3A32525  35.137  36.972   8.046
 2300POPC   C4A32526  35.323  36.942   7.704
 2300POPC   C1B32527  35.605  36.787   8.751
 2300POPC   C2B32528  35.664  36.529   8.408
 2300POPC   C3B32529  35.571  36.630   8.026
 2300POPC   C4B32530  35.689  36.577   7.624
 2301POPC   NC332531  21.275  21.284   9.495
 2301POPC   PO432532  21.641  21.847   9.507
 2301POPC   GL132533  21.564  21.514   9.152
 2301POPC   GL232534  21.201  21.521   9.052
 2301POPC   C1A32535  21.519  21.263   8.731
 2301POPC   D2A32536  21.660  21.114   8.312
 2301POPC   C3A32537  21.649  21.417   7.973
 2301POPC   C4A32538  21.378  21.651   7.771
 2301POPC   C1B32539  21.230  21.706   8.640
 2301POPC   C2B32540  21.217  21.519   8.245
 2301POPC   C3B32541  21.213  21.150   7.976
 2301POPC   C4B32542  21.226  21.199   7.546
 2302POPC   NC332543  22.200   6.377   9.434
 2302POPC   PO432544  22.021   5.745   9.512
 2302POPC   GL132545  22.098   5.774   9.102
 2302POPC   GL232546  21.929   6.083   9.100
 2302POPC   C1A32547  22.280   5.919   8.730
 2302POPC   D2A32548  22.156   6.021   8.323
 2302POPC   C3A32549  22.386   5.874   7.958
 2302POPC   C4A32550  22.442   5.914   7.509
 2302POPC   C1B32551  21.833   6.193   8.684
 2302POPC   C2B32552  21.641   6.013   8.304
 2302POPC   C3B32553  21.869   5.969   7.912
 2302POPC   C4B32554  21.967   6.184   7.492
 2303POPC   NC332555  21.667  29.705   9.440
 2303POPC   PO432556  21.070  29.859   9.673
 2303POPC   GL132557  21.324  30.105   9.296
 2303POPC   GL232558  21.692  30.157   9.144
 2303POPC   C1A32559  21.317  30.017   8.821
 2303POPC   D2A32560  21.603  29.837   8.486
 2303POPC   C3A32561  21.466  29.861   8.027
 2303POPC   C4A32562  21.133  30.171   7.926
 2303POPC   C1B32563  21.923  30.149   8.729
 2303POPC   C2B32564  21.910  30.169   8.259
 2303POPC   C3B32565  21.677  30.313   7.915
 2303POPC   C4B32566  21.706  30.048   7.564
 2304POPC   NC332567  27.166  19.844   9.566
 2304POPC   PO432568  27.732  19.463   9.742
 2304POPC   GL132569  27.672  19.714   9.291
 2304POPC   GL232570  27.341  19.612   9.166
 2304POPC   C1A32571  27.581  19.913   8.824
 2304POPC   D2A32572  27.329  19.953   8.403
 2304POPC   C3A32573  27.537  19.942   7.984
 2304POPC   C4A32574  27.798  19.722   7.686
 2304POPC   C1B32575  27.138  19.625   8.773
 2304POPC   C2B32576  26.952  19.593   8.373
 2304POPC   C3B32577  27.117  19.629   7.973
 2304POPC   C4B32578  27.295  19.721   7.553
 2305POPC   NC332579  37.202  15.013   9.437
 2305POPC   PO432580  36.589  15.381   9.550
 2305POPC   GL132581  36.831  15.297   9.203
 2305POPC   GL232582  36.733  14.958   9.108
 2305POPC   C1A32583  36.978  15.539   8.865
 2305POPC   D2A32584  36.807  15.648   8.485
 2305POPC   C3A32585  36.835  15.297   8.193
 2305POPC   C4A32586  36.923  15.312   7.757
 2305POPC   C1B32587  36.970  14.769   8.740
 2305POPC   C2B32588  37.132  14.861   8.320
 2305POPC   C3B32589  37.038  14.843   7.875
 2305POPC   C4B32590  37.049  14.794   7.423
 2306POPC   NC332591  31.270   0.464   9.403
 2306POPC   PO432592  31.878   0.668   9.579
 2306POPC   GL132593  31.767   0.658   9.112
 2306POPC   GL232594  31.651   0.339   9.092
 2306POPC   C1A32595  31.738   0.490   8.632
 2306POPC   D2A32596  31.650   0.472   8.193
 2306POPC   C3A32597  31.234   0.506   8.061
 2306POPC   C4A32598  31.167   0.739   7.700
 2306POPC   C1B32599  31.300   0.249   8.779
 2306POPC   C2B32600  31.357   0.084   8.378
 2306POPC   C3B32601  31.500   0.029   7.973
 2306POPC   C4B32602  31.402   0.293   7.630
 2307POPC   NC332603   1.367  35.866   9.462
 2307POPC   PO432604   1.084  36.408   9.671
 2307POPC   GL132605   1.157  36.315   9.223
 2307POPC   GL232606   0.891  36.451   9.015
 2307POPC   C1A32607   1.147  35.978   8.872
 2307POPC   D2A32608   0.956  35.784   8.496
 2307POPC   C3A32609   1.060  35.915   8.068
 2307POPC   C4A32610   1.459  35.950   7.843
 2307POPC   C1B32611   0.890  36.340   8.622
 2307POPC   C2B32612   0.993  36.394   8.228
 2307POPC   C3B32613   0.860  36.390   7.827
 2307POPC   C4B32614   0.997  36.475   7.398
 2308POPC   NC332615   4.835  34.213   9.500
 2308POPC   PO432616   5.189  33.562   9.474
 2308POPC   GL132617   5.040  33.822   9.169
 2308POPC   GL232618   5.379  33.972   9.148
 2308POPC   C1A32619   4.880  33.794   8.733
 2308POPC   D2A32620   4.822  33.531   8.330
 2308POPC   C3A32621   5.007  33.572   7.897
 2308POPC   C4A32622   5.029  33.825   7.500
 2308POPC   C1B32623   5.362  33.656   8.812
 2308POPC   C2B32624   5.319  33.694   8.403
 2308POPC   C3B32625   5.420  33.868   8.017
 2308POPC   C4B32626   5.500  33.664   7.651
 2309POPC   NC332627  38.865   8.322   9.422
 2309POPC   PO432628  39.456   8.099   9.770
 2309POPC   GL132629  39.293   8.041   9.273
 2309POPC   GL232630  39.021   7.913   9.109
 2309POPC   C1A32631  39.161   8.313   8.800
 2309POPC   D2A32632  39.358   8.232   8.388
 2309POPC   C3A32633  39.213   8.275   7.989
 2309POPC   C4A32634  39.350   8.551   7.709
 2309POPC   C1B32635  39.341   7.860   8.779
 2309POPC   C2B32636  39.335   7.718   8.361
 2309POPC   C3B32637  39.397   7.793   7.932
 2309POPC   C4B32638  39.024   7.854   7.748
 2310POPC   NC332639  29.785  25.984   9.613
 2310POPC   PO432640  30.408  25.858   9.495
 2310POPC   GL132641  30.062  25.875   9.172
 2310POPC   GL232642  29.774  26.097   9.133
 2310POPC   C1A32643  30.016  25.951   8.721
 2310POPC   D2A32644  30.207  25.985   8.331
 2310POPC   C3A32645  29.959  25.930   7.977
 2310POPC   C4A32646  30.088  25.911   7.570
 2310POPC   C1B32647  29.692  26.373   8.812
 2310POPC   C2B32648  29.899  26.395   8.395
 2310POPC   C3B32649  29.735  26.397   7.992
 2310POPC   C4B32650  29.759  26.308   7.588
 2311POPC   NC332651   4.052  36.198   9.446
 2311POPC   PO432652   3.393  35.956   9.457
 2311POPC   GL132653   3.691  35.974   9.147
 2311POPC   GL232654   3.756  36.329   9.056
 2311POPC   C1A32655   3.746  35.931   8.725
 2311POPC   D2A32656   3.547  35.850   8.361
 2311POPC   C3A32657   3.656  36.005   7.995
 2311POPC   C4A32658   3.346  36.153   7.721
 2311POPC   C1B32659   3.450  36.365   8.725
 2311POPC   C2B32660   3.451  36.368   8.281
 2311POPC   C3B32661   3.643  36.532   7.912
 2311POPC   C4B32662   3.906  36.277   7.644
 2312POPC   NC332663   5.274  40.988   9.499
 2312POPC   PO432664   4.852  40.404   9.458
 2312POPC   GL132665   5.168  40.639   9.133
 2312POPC   GL232666   5.050  40.959   9.061
 2312POPC   C1A32667   5.340  40.780   8.711
 2312POPC   D2A32668   5.009  40.642   8.439
 2312POPC   C3A32669   4.973  40.804   8.068
 2312POPC   C4A32670   5.263  40.714   7.785
 2312POPC   C1B32671   4.822  41.031   8.693
 2312POPC   C2B32672   4.748  41.234   8.290
 2312POPC   C3B32673   4.751  41.179   7.820
 2312POPC   C4B32674   4.634  41.196   7.352
 2313POPC   NC332675  21.627  20.607   9.455
 2313POPC   PO432676  20.968  20.921   9.496
 2313POPC   GL132677  21.194  20.690   9.181
 2313POPC   GL232678  21.509  20.865   9.040
 2313POPC   C1A32679  21.194  20.557   8.756
 2313POPC   D2A32680  21.250  20.745   8.350
 2313POPC   C3A32681  21.114  20.433   8.067
 2313POPC   C4A32682  21.240  20.691   7.721
 2313POPC   C1B32683  21.691  20.678   8.641
 2313POPC   C2B32684  21.526  20.323   8.367
 2313POPC   C3B32685  21.576  20.307   7.929
 2313POPC   C4B32686  21.930  20.281   7.744
 2314POPC   NC332687   5.526  31.350   9.507
 2314POPC   PO432688   6.196  31.360   9.553
 2314POPC   GL132689   5.996  31.533   9.233
 2314POPC   GL232690   5.790  31.282   9.092
 2314POPC   C1A32691   6.148  31.564   8.838
 2314POPC   D2A32692   5.950  31.568   8.445
 2314POPC   C3A32693   6.140  31.584   8.038
 2314POPC   C4A32694   6.059  31.367   7.637
 2314POPC   C1B32695   5.576  31.566   8.826
 2314POPC   C2B32696   5.460  31.340   8.457
 2314POPC   C3B32697   5.687  31.313   8.075
 2314POPC   C4B32698   5.567  31.469   7.707
 2315POPC   NC332699  42.615   0.726   9.952
 2315POPC   PO432700  43.238   0.520   9.631
 2315POPC   GL132701  43.293   0.638   9.211
 2315POPC   GL232702  42.959   0.546   9.099
 2315POPC   C1A32703  43.350   0.558   8.753
 2315POPC   D2A32704  43.325   0.313   8.355
 2315POPC   C3A32705  43.194   0.419   7.931
 2315POPC   C4A32706  42.838   0.297   7.671
 2315POPC   C1B32707  42.767   0.463   8.671
 2315POPC   C2B32708  42.732   0.439   8.200
 2315POPC   C3B32709  42.796   0.759   7.862
 2315POPC   C4B32710  42.800   0.681   7.352
 2316POPC   NC332711  11.630   3.516   9.643
 2316POPC   PO432712  10.924   3.451   9.477
 2316POPC   GL132713  11.232   3.456   9.159
 2316POPC   GL232714  11.565   3.629   9.148
 2316POPC   C1A32715  11.304   3.220   8.784
 2316POPC   D2A32716  11.459   3.307   8.375
 2316POPC   C3A32717  11.235   3.266   8.000
 2316POPC   C4A32718  11.391   3.387   7.619
 2316POPC   C1B32719  11.346   3.750   8.766
 2316POPC   C2B32720  11.498   3.891   8.383
 2316POPC   C3B32721  11.523   3.713   8.028
 2316POPC   C4B32722  11.287   3.855   7.735
 2317POPC   NC332723  35.125  23.484   9.654
 2317POPC   PO432724  35.673  23.806   9.542
 2317POPC   GL132725  35.425  23.743   9.177
 2317POPC   GL232726  35.602  24.039   9.066
 2317POPC   C1A32727  35.478  23.657   8.751
 2317POPC   D2A32728  35.477  23.622   8.317
 2317POPC   C3A32729  35.221  23.575   7.948
 2317POPC   C4A32730  35.418  23.609   7.546
 2317POPC   C1B32731  35.831  24.072   8.698
 2317POPC   C2B32732  35.643  24.098   8.318
 2317POPC   C3B32733  35.614  24.133   7.887
 2317POPC   C4B32734  35.559  24.084   7.431
 2318POPC   NC332735  39.657  38.040   9.385
 2318POPC   PO432736  39.211  37.618   9.553
 2318POPC   GL132737  39.108  37.596   9.114
 2318POPC   GL232738  39.317  37.831   9.077
 2318POPC   C1A32739  39.289  37.512   8.685
 2318POPC   D2A32740  38.980  37.556   8.371
 2318POPC   C3A32741  39.108  37.652   7.969
 2318POPC   C4A32742  39.485  37.651   7.802
 2318POPC   C1B32743  39.080  37.972   8.732
 2318POPC   C2B32744  39.314  37.927   8.376
 2318POPC   C3B32745  39.402  38.152   8.091
 2318POPC   C4B32746  39.370  38.130   7.668
 2319POPC   NC332747  29.231  12.522   9.701
 2319POPC   PO432748  29.345  12.698   9.122
 2319POPC   GL132749  28.987  12.784   8.940
 2319POPC   GL232750  29.085  13.127   8.849
 2319POPC   C1A32751  28.812  12.849   8.534
 2319POPC   D2A32752  29.059  13.129   8.326
 2319POPC   C3A32753  29.191  12.943   8.007
 2319POPC   C4A32754  28.910  12.736   7.753
 2319POPC   C1B32755  29.392  13.394   8.594
 2319POPC   C2B32756  29.634  13.202   8.250
 2319POPC   C3B32757  29.598  13.156   7.793
 2319POPC   C4B32758  29.254  13.139   7.468
 2320POPC   NC332759  29.838  27.730   9.467
 2320POPC   PO432760  29.460  27.195   9.494
 2320POPC   GL132761  29.726  27.338   9.165
 2320POPC   GL232762  30.111  27.351   9.240
 2320POPC   C1A32763  29.857  27.611   8.824
 2320POPC   D2A32764  29.668  27.693   8.439
 2320POPC   C3A32765  29.892  27.745   8.083
 2320POPC   C4A32766  29.641  27.701   7.726
 2320POPC   C1B32767  30.328  27.368   8.846
 2320POPC   C2B32768  30.137  27.420   8.440
 2320POPC   C3B32769  30.141  27.300   8.032
 2320POPC   C4B32770  30.125  27.517   7.631
 2321POPC   NC332771  42.560   0.977   9.339
 2321POPC   PO432772  42.033   1.367   9.409
 2321POPC   GL132773  42.281   1.473   9.053
 2321POPC   GL232774  42.652   1.480   9.102
 2321POPC   C1A32775  42.189   1.400   8.617
 2321POPC   D2A32776  42.194   1.410   8.171
 2321POPC   C3A32777  42.283   1.001   7.985
 2321POPC   C4A32778  41.988   0.862   7.680
 2321POPC   C1B32779  42.630   1.638   8.684
 2321POPC   C2B32780  42.671   1.331   8.312
 2321POPC   C3B32781  42.599   1.397   7.854
 2321POPC   C4B32782  42.581   1.515   7.407
 2322POPC   NC332783   2.604  30.568   9.727
 2322POPC   PO432784   3.057  31.082   9.528
 2322POPC   GL132785   2.726  30.797   9.273
 2322POPC   GL232786   2.410  30.971   9.127
 2322POPC   C1A32787   2.793  30.623   8.826
 2322POPC   D2A32788   2.774  30.338   8.446
 2322POPC   C3A32789   2.925  30.453   8.002
 2322POPC   C4A32790   2.686  30.383   7.595
 2322POPC   C1B32791   2.511  31.031   8.678
 2322POPC   C2B32792   2.743  30.846   8.325
 2322POPC   C3B32793   2.517  30.772   7.919
 2322POPC   C4B32794   2.139  31.064   7.808
 2323POPC   NC332795  15.758  41.130   9.503
 2323POPC   PO432796  15.858  40.552   9.766
 2323POPC   GL132797  16.022  40.750   9.290
 2323POPC   GL232798  15.828  41.019   9.020
 2323POPC   C1A32799  16.184  40.732   8.821
 2323POPC   D2A32800  15.925  40.737   8.396
 2323POPC   C3A32801  15.951  40.906   7.956
 2323POPC   C4A32802  16.317  41.102   7.815
 2323POPC   C1B32803  15.756  41.330   8.652
 2323POPC   C2B32804  15.490  41.449   8.276
 2323POPC   C3B32805  15.481  41.146   7.959
 2323POPC   C4B32806  15.417  40.734   7.782
 2324POPC   NC332807   4.262   1.025   9.496
 2324POPC   PO432808   4.032   1.571   9.292
 2324POPC   GL132809   4.348   1.211   9.035
 2324POPC   GL232810   4.677   1.120   9.179
 2324POPC   C1A32811   4.468   1.223   8.580
 2324POPC   D2A32812   4.592   1.521   8.278
 2324POPC   C3A32813   4.479   1.386   7.874
 2324POPC   C4A32814   4.294   0.974   7.826
 2324POPC   C1B32815   4.770   0.887   8.806
 2324POPC   C2B32816   4.621   0.759   8.398
 2324POPC   C3B32817   4.774   0.842   8.006
 2324POPC   C4B32818   4.783   1.045   7.601
 2325POPC   NC332819  13.138  25.479   9.554
 2325POPC   PO432820  12.947  24.853   9.503
 2325POPC   GL132821  12.991  25.093   9.118
 2325POPC   GL232822  13.010  25.464   9.071
 2325POPC   C1A32823  12.878  25.160   8.686
 2325POPC   D2A32824  13.091  25.078   8.319
 2325POPC   C3A32825  12.925  24.969   7.966
 2325POPC   C4A32826  12.557  25.063   7.788
 2325POPC   C1B32827  12.920  25.705   8.684
 2325POPC   C2B32828  12.984  25.562   8.302
 2325POPC   C3B32829  12.896  25.495   7.909
 2325POPC   C4B32830  12.635  25.565   7.571
 2326POPC   NC332831  26.130  18.597   9.485
 2326POPC   PO432832  26.099  19.310   9.508
 2326POPC   GL132833  25.922  19.039   9.185
 2326POPC   GL232834  26.199  18.939   9.100
 2326POPC   C1A32835  25.799  18.934   8.736
 2326POPC   D2A32836  25.662  18.842   8.290
 2326POPC   C3A32837  25.827  19.074   7.909
 2326POPC   C4A32838  25.875  19.141   7.414
 2326POPC   C1B32839  26.312  19.112   8.729
 2326POPC   C2B32840  26.090  19.241   8.404
 2326POPC   C3B32841  26.207  19.377   8.025
 2326POPC   C4B32842  26.299  19.176   7.665
 2327POPC   NC332843  13.476  31.747   9.365
 2327POPC   PO432844  13.387  32.370   9.546
 2327POPC   GL132845  13.544  32.349   9.111
 2327POPC   GL232846  13.889  32.485   9.119
 2327POPC   C1A32847  13.416  32.214   8.674
 2327POPC   D2A32848  13.633  31.966   8.320
 2327POPC   C3A32849  13.616  32.133   7.940
 2327POPC   C4A32850  13.444  32.519   7.832
 2327POPC   C1B32851  13.792  32.568   8.705
 2327POPC   C2B32852  13.635  32.523   8.310
 2327POPC   C3B32853  13.917  32.584   8.013
 2327POPC   C4B32854  14.002  32.401   7.680
 2328POPC   NC332855   3.973  33.867   9.220
 2328POPC   PO432856   3.408  33.949   9.648
 2328POPC   GL132857   3.380  33.837   9.210
 2328POPC   GL232858   3.525  33.545   9.275
 2328POPC   C1A32859   3.412  33.920   8.761
 2328POPC   D2A32860   3.223  33.827   8.356
 2328POPC   C3A32861   3.555  33.899   8.079
 2328POPC   C4A32862   3.643  34.245   7.848
 2328POPC   C1B32863   3.630  33.422   8.862
 2328POPC   C2B32864   3.623  33.516   8.420
 2328POPC   C3B32865   3.655  33.404   7.946
 2328POPC   C4B32866   3.662  33.495   7.466
 2329POPC   NC332867  31.055  44.193   9.494
 2329POPC   PO432868  30.636  43.696   9.307
 2329POPC   GL132869  30.803  44.047   9.072
 2329POPC   GL232870  30.518  44.206   8.924
 2329POPC   C1A32871  31.019  43.998   8.693
 2329POPC   D2A32872  30.850  43.741   8.357
 2329POPC   C3A32873  30.636  43.992   8.049
 2329POPC   C4A32874  30.915  44.093   7.700
 2329POPC   C1B32875  30.442  43.860   8.657
 2329POPC   C2B32876  30.287  43.657   8.291
 2329POPC   C3B32877  30.291  43.550   7.863
 2329POPC   C4B32878  30.486  43.823   7.564
 2330POPC   NC332879  22.988  43.595   9.587
 2330POPC   PO432880  22.901  42.980   9.731
 2330POPC   GL132881  22.866  43.108   9.269
 2330POPC   GL232882  22.698  43.426   9.192
 2330POPC   C1A32883  22.941  43.122   8.790
 2330POPC   D2A32884  22.921  43.297   8.340
 2330POPC   C3A32885  22.994  43.064   7.934
 2330POPC   C4A32886  23.372  43.108   7.633
 2330POPC   C1B32887  22.472  43.427   8.806
 2330POPC   C2B32888  22.410  43.364   8.370
 2330POPC   C3B32889  22.598  43.493   7.985
 2330POPC   C4B32890  22.513  43.715   7.645
 2331POPC   NC332891  17.646   2.171   9.443
 2331POPC   PO432892  17.260   1.669   9.324
 2331POPC   GL132893  17.394   1.979   9.039
 2331POPC   GL232894  17.707   1.842   9.012
 2331POPC   C1A32895  17.531   2.319   8.759
 2331POPC   D2A32896  17.780   2.307   8.368
 2331POPC   C3A32897  17.638   2.057   8.059
 2331POPC   C4A32898  17.397   2.101   7.748
 2331POPC   C1B32899  17.575   1.860   8.553
 2331POPC   C2B32900  17.284   1.704   8.211
 2331POPC   C3B32901  17.479   1.598   7.850
 2331POPC   C4B32902  17.902   1.681   7.721
 2332POPC   NC332903   7.100  22.752   9.193
 2332POPC   PO432904   7.559  23.207   9.425
 2332POPC   GL132905   7.573  22.943   9.067
 2332POPC   GL232906   7.810  23.140   8.911
 2332POPC   C1A32907   7.377  22.885   8.633
 2332POPC   D2A32908   7.446  22.664   8.249
 2332POPC   C3A32909   7.272  22.887   7.922
 2332POPC   C4A32910   7.346  22.787   7.493
 2332POPC   C1B32911   7.593  23.337   8.552
 2332POPC   C2B32912   7.626  23.238   8.119
 2332POPC   C3B32913   7.733  23.034   7.739
 2332POPC   C4B32914   7.884  22.997   7.312
 2333POPC   NC332915  31.845   4.052   9.528
 2333POPC   PO432916  31.278   4.324   9.473
 2333POPC   GL132917  31.553   4.361   9.170
 2333POPC   GL232918  31.590   4.022   9.090
 2333POPC   C1A32919  31.447   4.427   8.736
 2333POPC   D2A32920  31.681   4.442   8.322
 2333POPC   C3A32921  31.440   4.298   7.967
 2333POPC   C4A32922  31.125   4.398   7.670
 2333POPC   C1B32923  31.811   4.094   8.688
 2333POPC   C2B32924  31.941   3.953   8.318
 2333POPC   C3B32925  31.946   4.104   7.902
 2333POPC   C4B32926  31.633   3.971   7.646
 2334POPC   NC332927  39.978  35.516   9.500
 2334POPC   PO432928  39.487  35.044   9.162
 2334POPC   GL132929  39.937  35.150   9.055
 2334POPC   GL232930  40.092  35.485   9.023
 2334POPC   C1A32931  40.053  35.182   8.620
 2334POPC   D2A32932  39.980  35.018   8.205
 2334POPC   C3A32933  39.965  35.327   7.911
 2334POPC   C4A32934  39.626  35.554   7.815
 2334POPC   C1B32935  40.335  35.611   8.701
 2334POPC   C2B32936  40.287  35.512   8.292
 2334POPC   C3B32937  40.399  35.574   7.891
 2334POPC   C4B32938  40.268  35.362   7.504
 2335POPC   NC332939   4.549  42.917   9.696
 2335POPC   PO432940   5.192  43.119   9.486
 2335POPC   GL132941   4.986  43.149   9.109
 2335POPC   GL232942   5.101  42.864   8.944
 2335POPC   C1A32943   5.033  43.329   8.693
 2335POPC   D2A32944   5.169  43.300   8.244
 2335POPC   C3A32945   4.896  43.468   7.932
 2335POPC   C4A32946   4.844  43.400   7.483
 2335POPC   C1B32947   5.117  42.850   8.488
 2335POPC   C2B32948   4.824  42.681   8.155
 2335POPC   C3B32949   4.820  42.936   7.794
 2335POPC   C4B32950   5.214  43.126   7.717
 2336POPC   NC332951  15.304  31.369   9.488
 2336POPC   PO432952  14.878  31.884   9.624
 2336POPC   GL132953  14.869  31.647   9.196
 2336POPC   GL232954  14.962  31.287   9.126
 2336POPC   C1A32955  14.978  31.749   8.764
 2336POPC   D2A32956  15.193  31.790   8.366
 2336POPC   C3A32957  15.076  31.811   7.911
 2336POPC   C4A32958  15.428  31.696   7.617
 2336POPC   C1B32959  15.277  31.319   8.792
 2336POPC   C2B32960  15.184  31.257   8.356
 2336POPC   C3B32961  15.201  31.323   7.921
 2336POPC   C4B32962  15.434  31.194   7.586
 2337POPC   NC332963  13.403  27.789   9.526
 2337POPC   PO432964  13.674  27.265   9.776
 2337POPC   GL132965  13.684  27.418   9.277
 2337POPC   GL232966  13.498  27.713   9.050
 2337POPC   C1A32967  13.602  27.291   8.825
 2337POPC   D2A32968  13.489  27.569   8.469
 2337POPC   C3A32969  13.747  27.557   8.101
 2337POPC   C4A32970  13.602  27.399   7.716
 2337POPC   C1B32971  13.672  27.979   8.722
 2337POPC   C2B32972  13.522  28.078   8.327
 2337POPC   C3B32973  13.337  27.856   8.000
 2337POPC   C4B32974  13.639  27.906   7.703
 2338POPC   NC332975   7.343   6.508   9.473
 2338POPC   PO432976   7.677   7.064   9.439
 2338POPC   GL132977   7.371   6.829   9.065
 2338POPC   GL232978   7.103   6.522   9.034
 2338POPC   C1A32979   7.330   6.650   8.605
 2338POPC   D2A32980   7.295   6.392   8.216
 2338POPC   C3A32981   7.550   6.622   7.910
 2338POPC   C4A32982   7.693   7.066   7.785
 2338POPC   C1B32983   6.892   6.883   8.810
 2338POPC   C2B32984   6.861   7.015   8.426
 2338POPC   C3B32985   7.132   6.875   8.111
 2338POPC   C4B32986   7.044   6.600   7.794
 2339POPC   NC332987   9.173   4.718   9.472
 2339POPC   PO432988   9.857   4.618   9.593
 2339POPC   GL132989   9.552   4.374   9.278
 2339POPC   GL232990   9.436   4.616   9.059
 2339POPC   C1A32991   9.411   4.177   8.846
 2339POPC   D2A32992   9.674   4.089   8.490
 2339POPC   C3A32993   9.832   4.249   8.112
 2339POPC   C4A32994   9.547   4.197   7.784
 2339POPC   C1B32995   9.702   4.561   8.706
 2339POPC   C2B32996   9.508   4.637   8.308
 2339POPC   C3B32997   9.645   4.684   7.885
 2339POPC   C4B32998   9.976   4.435   7.620
 2340POPC   NC332999  31.563   7.115   9.615
 2340POPC   PO433000  30.935   7.038   9.524
 2340POPC   GL133001  31.027   7.295   9.182
 2340POPC   GL233002  31.379   7.328   9.156
 2340POPC   C1A33003  31.022   7.322   8.736
 2340POPC   D2A33004  31.226   7.119   8.375
 2340POPC   C3A33005  31.363   7.364   8.029
 2340POPC   C4A33006  31.313   7.790   7.903
 2340POPC   C1B33007  31.556   7.392   8.727
 2340POPC   C2B33008  31.622   7.660   8.361
 2340POPC   C3B33009  31.800   7.622   7.956
 2340POPC   C4B33010  31.927   7.257   7.778
 2341POPC   NC333011   6.514   1.688   9.559
 2341POPC   PO433012   7.019   2.152   9.571
 2341POPC   GL133013   6.852   2.111   9.179
 2341POPC   GL233014   6.502   2.140   9.241
 2341POPC   C1A33015   6.895   1.860   8.793
 2341POPC   D2A33016   6.964   1.691   8.374
 2341POPC   C3A33017   6.761   1.873   8.000
 2341POPC   C4A33018   6.337   1.847   7.789
 2341POPC   C1B33019   6.386   1.852   8.874
 2341POPC   C2B33020   6.405   1.958   8.409
 2341POPC   C3B33021   6.472   2.283   8.047
 2341POPC   C4B33022   6.289   2.406   7.673
 2342POPC   NC333023  27.571  33.797   9.749
 2342POPC   PO433024  28.330  33.598   9.604
 2342POPC   GL133025  28.006  33.726   9.218
 2342POPC   GL233026  27.622  33.799   9.240
 2342POPC   C1A33027  27.791  33.653   8.794
 2342POPC   D2A33028  27.656  33.449   8.392
 2342POPC   C3A33029  27.445  33.486   8.025
 2342POPC   C4A33030  27.727  33.705   7.821
 2342POPC   C1B33031  27.412  33.996   8.870
 2342POPC   C2B33032  27.556  33.970   8.447
 2342POPC   C3B33033  27.385  33.989   8.069
 2342POPC   C4B33034  27.477  34.154   7.689
 2343POPC   NC333035  40.359  21.950   9.368
 2343POPC   PO433036  39.936  22.518   9.454
 2343POPC   GL133037  39.892  22.321   9.085
 2343POPC   GL233038  39.920  21.970   9.130
 2343POPC   C1A33039  40.026  22.398   8.666
 2343POPC   D2A33040  40.435  22.407   8.439
 2343POPC   C3A33041  40.279  22.336   8.031
 2343POPC   C4A33042  39.927  22.519   7.859
 2343POPC   C1B33043  40.140  21.920   8.735
 2343POPC   C2B33044  39.974  21.990   8.335
 2343POPC   C3B33045  40.007  21.818   7.958
 2343POPC   C4B33046  40.397  21.871   7.756
 2344POPC   NC333047   3.286  10.325   9.472
 2344POPC   PO433048   2.662  10.664   9.462
 2344POPC   GL133049   3.004  10.720   9.193
 2344POPC   GL233050   2.962  10.382   9.087
 2344POPC   C1A33051   2.988  10.813   8.750
 2344POPC   D2A33052   2.703  10.769   8.370
 2344POPC   C3A33053   2.939  10.528   8.027
 2344POPC   C4A33054   3.035  10.654   7.593
 2344POPC   C1B33055   2.648  10.398   8.784
 2344POPC   C2B33056   2.613  10.257   8.367
 2344POPC   C3B33057   2.438  10.449   8.005
 2344POPC   C4B33058   2.617  10.318   7.619
 2345POPC   NC333059  14.052  27.476   9.649
 2345POPC   PO433060  14.664  27.598   9.593
 2345POPC   GL133061  14.472  27.413   9.232
 2345POPC   GL233062  14.156  27.186   9.240
 2345POPC   C1A33063  14.553  27.689   8.875
 2345POPC   D2A33064  14.597  27.887   8.477
 2345POPC   C3A33065  14.648  27.642   8.099
 2345POPC   C4A33066  14.646  27.493   7.689
 2345POPC   C1B33067  14.130  27.397   8.847
 2345POPC   C2B33068  14.391  27.370   8.453
 2345POPC   C3B33069  14.299  27.256   7.999
 2345POPC   C4B33070  14.047  27.231   7.582
 2346POPC   NC333071  10.919  12.725   9.400
 2346POPC   PO433072  10.240  12.889   9.322
 2346POPC   GL133073  10.524  12.847   9.065
 2346POPC   GL233074  10.726  13.124   9.125
 2346POPC   C1A33075  10.397  12.910   8.668
 2346POPC   D2A33076  10.598  12.774   8.340
 2346POPC   C3A33077  10.374  12.865   8.018
 2346POPC   C4A33078  10.474  12.779   7.631
 2346POPC   C1B33079  10.925  12.976   8.741
 2346POPC   C2B33080  10.959  13.125   8.309
 2346POPC   C3B33081  10.919  12.832   7.915
 2346POPC   C4B33082  10.946  12.772   7.435
 2347POPC   NC333083   4.608   3.765   9.376
 2347POPC   PO433084   4.254   3.251   9.405
 2347POPC   GL133085   3.931   3.401   9.049
 2347POPC   GL233086   3.880   3.784   9.090
 2347POPC   C1A33087   3.996   3.346   8.588
 2347POPC   D2A33088   4.362   3.445   8.305
 2347POPC   C3A33089   4.303   3.328   7.867
 2347POPC   C4A33090   4.095   2.982   7.655
 2347POPC   C1B33091   4.046   4.061   8.749
 2347POPC   C2B33092   4.273   3.984   8.368
 2347POPC   C3B33093   4.408   3.831   7.966
 2347POPC   C4B33094   4.152   3.782   7.607
 2348POPC   NC333095  30.571  28.818   9.529
 2348POPC   PO433096  30.942  29.347   9.451
 2348POPC   GL133097  30.710  29.111   9.125
 2348POPC   GL233098  30.719  29.381   8.924
 2348POPC   C1A33099  30.407  28.855   8.817
 2348POPC   D2A33100  30.380  28.884   8.332
 2348POPC   C3A33101  30.598  28.789   7.937
 2348POPC   C4A33102  30.858  29.117   7.694
 2348POPC   C1B33103  30.801  29.058   8.599
 2348POPC   C2B33104  30.835  29.139   8.205
 2348POPC   C3B33105  30.858  29.527   7.989
 2348POPC   C4B33106  30.931  29.609   7.594
 2349POPC   NC333107  32.909  29.479   9.482
 2349POPC   PO433108  33.502  29.608   9.674
 2349POPC   GL133109  33.265  29.752   9.254
 2349POPC   GL233110  33.080  30.100   9.168
 2349POPC   C1A33111  33.160  29.753   8.807
 2349POPC   D2A33112  33.314  30.020   8.473
 2349POPC   C3A33113  33.186  29.825   8.133
 2349POPC   C4A33114  33.282  29.864   7.750
 2349POPC   C1B33115  32.907  30.235   8.728
 2349POPC   C2B33116  32.866  30.224   8.238
 2349POPC   C3B33117  32.829  30.081   7.768
 2349POPC   C4B33118  32.619  30.109   7.335
 2350POPC   NC333119  29.133  28.246   9.595
 2350POPC   PO433120  29.079  28.893   9.365
 2350POPC   GL133121  29.057  28.481   9.097
 2350POPC   GL233122  29.248  28.151   9.101
 2350POPC   C1A33123  29.078  28.362   8.635
 2350POPC   D2A33124  28.865  28.513   8.232
 2350POPC   C3A33125  29.140  28.622   7.869
 2350POPC   C4A33126  29.181  28.576   7.397
 2350POPC   C1B33127  29.524  28.118   8.733
 2350POPC   C2B33128  29.713  28.194   8.358
 2350POPC   C3B33129  29.463  28.060   8.055
 2350POPC   C4B33130  29.384  28.197   7.674
 2351POPC   NC333131   7.256  25.799   9.485
 2351POPC   PO433132   7.430  26.405   9.787
 2351POPC   GL133133   7.399  26.322   9.284
 2351POPC   GL233134   7.620  26.035   9.170
 2351POPC   C1A33135   7.268  26.272   8.836
 2351POPC   D2A33136   7.171  25.976   8.486
 2351POPC   C3A33137   7.224  26.044   8.032
 2351POPC   C4A33138   7.383  26.041   7.608
 2351POPC   C1B33139   7.730  26.087   8.719
 2351POPC   C2B33140   7.661  25.892   8.332
 2351POPC   C3B33141   7.505  25.592   8.066
 2351POPC   C4B33142   7.565  25.567   7.657
 2352POPC   NC333143  29.180  34.325   9.545
 2352POPC   PO433144  28.990  35.005   9.649
 2352POPC   GL133145  28.990  34.714   9.282
 2352POPC   GL233146  29.350  34.610   9.166
 2352POPC   C1A33147  28.956  34.713   8.844
 2352POPC   D2A33148  29.012  34.942   8.463
 2352POPC   C3A33149  29.104  34.735   8.065
 2352POPC   C4A33150  28.795  34.701   7.792
 2352POPC   C1B33151  29.382  34.432   8.752
 2352POPC   C2B33152  29.041  34.395   8.460
 2352POPC   C3B33153  29.001  34.229   8.096
 2352POPC   C4B33154  29.343  34.321   7.822
 2353POPC   NC333155  44.708  29.188   9.721
 2353POPC   PO433156  44.346  28.730   9.364
 2353POPC   GL133157  44.749  28.981   9.214
 2353POPC   GL233158  44.983  29.299   9.239
 2353POPC   C1A33159  44.918  29.052   8.799
 2353POPC   D2A33160  44.909  29.300   8.420
 2353POPC   C3A33161  44.791  29.166   7.991
 2353POPC   C4A33162   0.116  28.984   7.792
 2353POPC   C1B33163  44.688  29.487   8.889
 2353POPC   C2B33164  44.470  29.562   8.484
 2353POPC   C3B33165  44.449  29.558   8.020
 2353POPC   C4B33166  44.650  29.529   7.582
 2354POPC   NC333167  20.110  35.974   9.580
 2354POPC   PO433168  19.450  36.089   9.573
 2354POPC   GL133169  19.754  36.208   9.256
 2354POPC   GL233170  19.894  35.901   9.127
 2354POPC   C1A33171  19.818  36.321   8.813
 2354POPC   D2A33172  19.924  36.151   8.377
 2354POPC   C3A33173  19.943  36.370   7.959
 2354POPC   C4A33174  19.746  36.117   7.618
 2354POPC   C1B33175  19.493  35.939   8.886
 2354POPC   C2B33176  19.456  35.972   8.440
 2354POPC   C3B33177  19.652  35.849   8.052
 2354POPC   C4B33178  19.334  35.841   7.760
 2355POPC   NC333179  43.644  35.290   9.956
 2355POPC   PO433180  44.223  35.279   9.615
 2355POPC   GL133181  44.015  35.274   9.195
 2355POPC   GL233182  43.657  35.206   9.116
 2355POPC   C1A33183  44.026  35.177   8.754
 2355POPC   D2A33184  43.818  35.285   8.373
 2355POPC   C3A33185  44.120  35.164   8.080
 2355POPC   C4A33186  44.119  35.022   7.641
 2355POPC   C1B33187  43.520  35.497   8.765
 2355POPC   C2B33188  43.553  35.731   8.362
 2355POPC   C3B33189  43.569  35.547   7.983
 2355POPC   C4B33190  43.872  35.446   7.751
 2356POPC   NC333191   7.652  40.515   9.397
 2356POPC   PO433192   7.063  40.904   9.257
 2356POPC   GL133193   7.329  40.702   9.050
 2356POPC   GL233194   7.551  40.952   9.061
 2356POPC   C1A33195   7.538  40.609   8.680
 2356POPC   D2A33196   7.366  40.698   8.294
 2356POPC   C3A33197   7.559  40.630   7.920
 2356POPC   C4A33198   7.331  40.521   7.571
 2356POPC   C1B33199   7.807  41.028   8.748
 2356POPC   C2B33200   7.850  40.899   8.329
 2356POPC   C3B33201   7.898  41.014   7.893
 2356POPC   C4B33202   7.602  40.962   7.516
 2357POPC   NC333203   1.518  32.663   9.517
 2357POPC   PO433204   1.011  33.087   9.465
 2357POPC   GL133205   1.305  32.979   9.146
 2357POPC   GL233206   0.986  32.828   9.019
 2357POPC   C1A33207   1.342  33.025   8.696
 2357POPC   D2A33208   1.101  32.997   8.328
 2357POPC   C3A33209   1.284  33.094   7.953
 2357POPC   C4A33210   1.034  33.238   7.661
 2357POPC   C1B33211   1.040  32.594   8.658
 2357POPC   C2B33212   0.936  32.510   8.257
 2357POPC   C3B33213   1.198  32.592   7.974
 2357POPC   C4B33214   1.165  32.756   7.581
 2358POPC   NC333215  44.206  39.245   9.536
 2358POPC   PO433216  43.606  39.626   9.377
 2358POPC   GL133217  43.887  39.424   9.010
 2358POPC   GL233218  44.077  39.091   9.060
 2358POPC   C1A33219  44.121  39.408   8.581
 2358POPC   D2A33220  44.248  39.556   8.142
 2358POPC   C3A33221  43.959  39.365   7.828
 2358POPC   C4A33222  43.786  38.946   7.643
 2358POPC   C1B33223  44.124  38.874   8.658
 2358POPC   C2B33224  44.083  38.735   8.207
 2358POPC   C3B33225  44.261  38.937   7.800
 2358POPC   C4B33226  44.165  39.183   7.361
 2359POPC   NC333227  27.734  37.162   9.451
 2359POPC   PO433228  27.305  36.679   9.453
 2359POPC   GL133229  27.504  36.794   9.105
 2359POPC   GL233230  27.536  37.143   8.989
 2359POPC   C1A33231  27.359  36.744   8.726
 2359POPC   D2A33232  27.555  36.825   8.390
 2359POPC   C3A33233  27.423  36.644   8.066
 2359POPC   C4A33234  27.634  36.848   7.763
 2359POPC   C1B33235  27.881  36.969   8.772
 2359POPC   C2B33236  28.011  37.091   8.362
 2359POPC   C3B33237  27.877  37.259   7.960
 2359POPC   C4B33238  27.889  37.183   7.478
 2360POPC   NC333239  19.958  44.280   9.697
 2360POPC   PO433240  19.768  44.817   9.405
 2360POPC   GL133241  19.797  44.520   9.061
 2360POPC   GL233242  20.093  44.370   8.947
 2360POPC   C1A33243  19.708  44.562   8.621
 2360POPC   D2A33244  19.831  44.705   8.210
 2360POPC   C3A33245  19.690  44.450   7.891
 2360POPC   C4A33246  19.666  44.397   7.462
 2360POPC   C1B33247  20.175  44.759   8.727
 2360POPC   C2B33248  20.308  44.970   8.346
 2360POPC   C3B33249  20.256  44.985   7.895
 2360POPC   C4B33250  19.958  44.809   7.578
 2361POPC   NC333251   2.421  20.390   9.484
 2361POPC   PO433252   3.049  20.184   9.429
 2361POPC   GL133253   2.933  20.388   9.057
 2361POPC   GL233254   2.571  20.498   9.031
 2361POPC   C1A33255   2.855  20.507   8.624
 2361POPC   D2A33256   2.633  20.308   8.317
 2361POPC   C3A33257   2.762  20.474   7.928
 2361POPC   C4A33258   2.965  20.809   7.704
 2361POPC   C1B33259   2.355  20.651   8.673
 2361POPC   C2B33260   2.536  20.817   8.311
 2361POPC   C3B33261   2.494  20.900   7.892
 2361POPC   C4B33262   2.450  20.747   7.465
 2362POPC   NC333263  12.290   5.284   9.407
 2362POPC   PO433264  12.191   4.751   9.730
 2362POPC   GL133265  12.325   4.765   9.287
 2362POPC   GL233266  12.009   4.864   9.155
 2362POPC   C1A33267  12.342   4.663   8.834
 2362POPC   D2A33268  12.096   4.713   8.422
 2362POPC   C3A33269  12.267   4.801   8.011
 2362POPC   C4A33270  12.268   4.938   7.561
 2362POPC   C1B33271  12.118   5.114   8.768
 2362POPC   C2B33272  12.190   5.211   8.320
 2362POPC   C3B33273  11.981   5.211   7.902
 2362POPC   C4B33274  11.942   5.466   7.518
 2363POPC   NC333275  16.869  20.419   9.486
 2363POPC   PO433276  16.667  19.703   9.458
 2363POPC   GL133277  16.689  19.741   9.053
 2363POPC   GL233278  17.033  19.772   9.051
 2363POPC   C1A33279  16.493  19.790   8.655
 2363POPC   D2A33280  16.589  19.546   8.297
 2363POPC   C3A33281  16.839  19.747   7.935
 2363POPC   C4A33282  16.617  19.870   7.535
 2363POPC   C1B33283  16.881  20.128   8.780
 2363POPC   C2B33284  16.951  20.273   8.332
 2363POPC   C3B33285  17.024  20.244   7.889
 2363POPC   C4B33286  17.085  20.040   7.513
 2364POPC   NC333287  15.677   5.887   9.383
 2364POPC   PO433288  16.297   5.539   9.373
 2364POPC   GL133289  16.291   5.809   9.036
 2364POPC   GL233290  16.121   6.070   9.132
 2364POPC   C1A33291  16.327   5.928   8.630
 2364POPC   D2A33292  16.156   5.728   8.303
 2364POPC   C3A33293  16.201   5.928   7.937
 2364POPC   C4A33294  15.894   5.779   7.681
 2364POPC   C1B33295  15.845   6.013   8.770
 2364POPC   C2B33296  15.882   6.155   8.356
 2364POPC   C3B33297  15.744   6.182   7.950
 2364POPC   C4B33298  15.547   6.108   7.520
 2365POPC   NC333299  34.436  29.164   9.385
 2365POPC   PO433300  34.945  28.714   9.457
 2365POPC   GL133301  34.759  28.948   9.039
 2365POPC   GL233302  34.352  28.992   8.942
 2365POPC   C1A33303  34.841  29.137   8.602
 2365POPC   D2A33304  34.641  29.482   8.302
 2365POPC   C3A33305  34.503  29.430   7.852
 2365POPC   C4A33306  34.730  29.637   7.441
 2365POPC   C1B33307  34.327  29.158   8.560
 2365POPC   C2B33308  34.510  28.989   8.233
 2365POPC   C3B33309  34.393  28.776   7.926
 2365POPC   C4B33310  34.507  28.976   7.611
 2366POPC   NC333311  18.390  29.345   9.376
 2366POPC   PO433312  18.125  28.679   9.520
 2366POPC   GL133313  18.093  28.949   9.150
 2366POPC   GL233314  18.361  29.127   8.918
 2366POPC   C1A33315  17.984  28.793   8.755
 2366POPC   D2A33316  17.721  28.837   8.392
 2366POPC   C3A33317  17.972  28.958   8.022
 2366POPC   C4A33318  18.089  29.378   7.832
 2366POPC   C1B33319  18.516  29.535   8.719
 2366POPC   C2B33320  18.538  29.695   8.290
 2366POPC   C3B33321  18.606  29.461   7.929
 2366POPC   C4B33322  18.482  29.127   7.591
 2367POPC   NC333323  30.598  18.080   9.652
 2367POPC   PO433324  30.827  17.455   9.567
 2367POPC   GL133325  30.586  17.365   9.188
 2367POPC   GL233326  30.290  17.140   9.276
 2367POPC   C1A33327  30.746  17.418   8.762
 2367POPC   D2A33328  31.020  17.498   8.408
 2367POPC   C3A33329  30.800  17.443   8.047
 2367POPC   C4A33330  30.612  17.812   7.864
 2367POPC   C1B33331  30.370  17.069   8.832
 2367POPC   C2B33332  30.385  17.231   8.428
 2367POPC   C3B33333  30.286  17.326   8.015
 2367POPC   C4B33334  30.510  17.335   7.629
 2368POPC   NC333335  17.864  18.872   9.392
 2368POPC   PO433336  18.490  19.069   9.449
 2368POPC   GL133337  18.187  19.149   9.084
 2368POPC   GL233338  18.029  19.491   9.069
 2368POPC   C1A33339  18.211  18.951   8.646
 2368POPC   D2A33340  18.076  18.879   8.189
 2368POPC   C3A33341  18.425  18.859   7.865
 2368POPC   C4A33342  18.395  18.994   7.395
 2368POPC   C1B33343  18.032  19.423   8.669
 2368POPC   C2B33344  18.254  19.348   8.308
 2368POPC   C3B33345  18.193  19.315   7.892
 2368POPC   C4B33346  18.608  19.316   7.721
 2369POPC   NC333347  11.850  16.991   9.495
 2369POPC   PO433348  11.593  16.363   9.448
 2369POPC   GL133349  11.905  16.574   9.174
 2369POPC   GL233350  12.263  16.451   9.254
 2369POPC   C1A33351  11.944  16.903   8.838
 2369POPC   D2A33352  12.015  16.793   8.419
 2369POPC   C3A33353  12.074  16.972   8.010
 2369POPC   C4A33354  12.050  16.701   7.638
 2369POPC   C1B33355  12.214  16.281   8.848
 2369POPC   C2B33356  12.314  16.360   8.439
 2369POPC   C3B33357  12.168  16.440   8.057
 2369POPC   C4B33358  12.411  16.350   7.706
 2370POPC   NC333359  19.083  32.670   9.363
 2370POPC   PO433360  19.279  32.030   9.543
 2370POPC   GL133361  19.258  31.957   9.127
 2370POPC   GL233362  18.938  32.011   8.947
 2370POPC   C1A33363  19.357  32.225   8.816
 2370POPC   D2A33364  19.441  32.214   8.409
 2370POPC   C3A33365  19.142  32.293   8.096
 2370POPC   C4A33366  19.291  32.326   7.687
 2370POPC   C1B33367  18.899  32.437   8.728
 2370POPC   C2B33368  18.829  32.647   8.329
 2370POPC   C3B33369  18.644  32.393   7.985
 2370POPC   C4B33370  18.804  32.335   7.531
 2371POPC   NC333371  42.438   1.621   9.543
 2371POPC   PO433372  41.981   2.139   9.512
 2371POPC   GL133373  42.195   2.186   9.145
 2371POPC   GL233374  42.455   1.961   9.175
 2371POPC   C1A33375  42.192   1.950   8.758
 2371POPC   D2A33376  42.103   1.857   8.385
 2371POPC   C3A33377  42.233   2.081   8.041
 2371POPC   C4A33378  42.344   1.834   7.728
 2371POPC   C1B33379  42.627   2.197   8.815
 2371POPC   C2B33380  42.606   2.086   8.392
 2371POPC   C3B33381  42.681   2.336   8.038
 2371POPC   C4B33382  42.571   2.280   7.638
 2372POPC   NC333383  19.484  18.094   9.703
 2372POPC   PO433384  20.152  18.295   9.718
 2372POPC   GL133385  19.990  18.223   9.288
 2372POPC   GL233386  19.688  18.094   9.123
 2372POPC   C1A33387  20.086  18.268   8.835
 2372POPC   D2A33388  20.065  18.116   8.387
 2372POPC   C3A33389  19.948  18.101   7.957
 2372POPC   C4A33390  20.113  18.445   7.754
 2372POPC   C1B33391  19.614  18.206   8.649
 2372POPC   C2B33392  19.561  18.305   8.193
 2372POPC   C3B33393  19.493  18.216   7.725
 2372POPC   C4B33394  19.423  18.233   7.214
 2373POPC   NC333395  16.023  27.286   9.325
 2373POPC   PO433396  15.640  27.607   9.737
 2373POPC   GL133397  15.568  27.574   9.225
 2373POPC   GL233398  15.842  27.504   8.910
 2373POPC   C1A33399  15.387  27.534   8.769
 2373POPC   D2A33400  15.662  27.515   8.377
 2373POPC   C3A33401  15.519  27.535   7.985
 2373POPC   C4A33402  15.926  27.555   7.779
 2373POPC   C1B33403  16.004  27.818   8.608
 2373POPC   C2B33404  16.305  27.623   8.334
 2373POPC   C3B33405  16.411  27.446   7.933
 2373POPC   C4B33406  16.369  27.749   7.600
 2374POPC   NC333407  23.512  33.467   9.450
 2374POPC   PO433408  23.763  34.163   9.450
 2374POPC   GL133409  23.729  33.954   9.091
 2374POPC   GL233410  23.836  33.622   9.083
 2374POPC   C1A33411  23.494  33.832   8.724
 2374POPC   D2A33412  23.641  33.661   8.317
 2374POPC   C3A33413  23.682  33.976   7.987
 2374POPC   C4A33414  23.443  34.066   7.623
 2374POPC   C1B33415  23.567  33.344   8.787
 2374POPC   C2B33416  23.440  33.127   8.416
 2374POPC   C3B33417  23.409  33.293   8.027
 2374POPC   C4B33418  23.655  33.515   7.778
 2375POPC   NC333419  23.357  17.113   9.481
 2375POPC   PO433420  24.020  16.988   9.557
 2375POPC   GL133421  24.026  17.007   9.134
 2375POPC   GL233422  23.685  16.897   9.121
 2375POPC   C1A33423  24.028  16.820   8.701
 2375POPC   D2A33424  23.928  16.469   8.418
 2375POPC   C3A33425  23.975  16.621   8.017
 2375POPC   C4A33426  24.034  17.075   7.912
 2375POPC   C1B33427  23.494  16.762   8.762
 2375POPC   C2B33428  23.606  16.945   8.386
 2375POPC   C3B33429  23.545  16.914   7.976
 2375POPC   C4B33430  23.746  16.800   7.584
 2376POPC   NC333431  18.919  34.701   9.575
 2376POPC   PO433432  19.099  34.054   9.650
 2376POPC   GL133433  19.154  34.351   9.231
 2376POPC   GL233434  18.828  34.460   9.070
 2376POPC   C1A33435  19.192  34.650   8.815
 2376POPC   D2A33436  18.969  34.654   8.393
 2376POPC   C3A33437  19.233  34.489   8.095
 2376POPC   C4A33438  19.286  34.421   7.687
 2376POPC   C1B33439  18.611  34.714   8.767
 2376POPC   C2B33440  18.507  34.923   8.385
 2376POPC   C3B33441  18.563  34.860   7.965
 2376POPC   C4B33442  18.760  34.483   7.846
 2377POPC   NC333443   9.452  27.441   9.545
 2377POPC   PO433444   9.949  27.865   9.534
 2377POPC   GL133445   9.959  27.539   9.207
 2377POPC   GL233446   9.648  27.589   9.114
 2377POPC   C1A33447  10.008  27.588   8.749
 2377POPC   D2A33448   9.902  27.939   8.462
 2377POPC   C3A33449   9.768  27.831   8.056
 2377POPC   C4A33450   9.983  27.502   7.809
 2377POPC   C1B33451   9.538  27.858   8.823
 2377POPC   C2B33452   9.420  27.659   8.428
 2377POPC   C3B33453   9.533  27.368   8.075
 2377POPC   C4B33454   9.487  27.563   7.671
 2378POPC   NC333455  30.872  40.777   9.553
 2378POPC   PO433456  31.230  41.352   9.486
 2378POPC   GL133457  31.037  41.059   9.156
 2378POPC   GL233458  31.010  40.625   9.105
 2378POPC   C1A33459  30.916  40.938   8.734
 2378POPC   D2A33460  30.597  40.826   8.468
 2378POPC   C3A33461  30.687  41.067   8.114
 2378POPC   C4A33462  30.471  41.106   7.731
 2378POPC   C1B33463  30.805  40.387   8.738
 2378POPC   C2B33464  30.706  40.240   8.294
 2378POPC   C3B33465  30.571  40.573   8.011
 2378POPC   C4B33466  30.825  40.758   7.684
 2379POPC   NC333467  28.010  15.088   9.780
 2379POPC   PO433468  28.518  15.205   9.299
 2379POPC   GL133469  28.319  15.167   8.966
 2379POPC   GL233470  28.162  15.431   8.879
 2379POPC   C1A33471  28.395  15.079   8.565
 2379POPC   D2A33472  28.713  14.965   8.288
 2379POPC   C3A33473  28.447  14.872   7.944
 2379POPC   C4A33474  28.521  14.876   7.533
 2379POPC   C1B33475  27.802  15.476   8.704
 2379POPC   C2B33476  27.825  15.331   8.336
 2379POPC   C3B33477  28.187  15.261   8.128
 2379POPC   C4B33478  28.239  15.289   7.682
 2380POPC   NC333479  29.291  10.394   9.588
 2380POPC   PO433480  28.698  10.652   9.545
 2380POPC   GL133481  28.937  10.532   9.241
 2380POPC   GL233482  29.243  10.759   9.202
 2380POPC   C1A33483  28.936  10.497   8.851
 2380POPC   D2A33484  29.049  10.789   8.537
 2380POPC   C3A33485  28.965  10.611   8.141
 2380POPC   C4A33486  29.003  10.640   7.704
 2380POPC   C1B33487  29.432  10.515   8.854
 2380POPC   C2B33488  29.480  10.528   8.386
 2380POPC   C3B33489  29.444  10.659   7.953
 2380POPC   C4B33490  29.447  10.792   7.507
 2381POPC   NC333491  44.660  23.316   9.620
 2381POPC   PO433492  44.846  22.665   9.632
 2381POPC   GL133493  44.755  22.796   9.175
 2381POPC   GL233494  44.922  23.093   9.222
 2381POPC   C1A33495  44.552  22.843   8.723
 2381POPC   D2A33496  44.336  23.089   8.334
 2381POPC   C3A33497  44.530  23.023   7.923
 2381POPC   C4A33498  44.393  23.010   7.481
 2381POPC   C1B33499  44.964  23.172   8.783
 2381POPC   C2B33500  44.846  23.115   8.360
 2381POPC   C3B33501  44.915  23.366   7.987
 2381POPC   C4B33502  44.732  23.361   7.581
 2382POPC   NC333503   7.410  21.754   9.450
 2382POPC   PO433504   7.261  22.402   9.443
 2382POPC   GL133505   7.503  22.407   9.094
 2382POPC   GL233506   7.487  22.038   9.036
 2382POPC   C1A33507   7.381  22.367   8.675
 2382POPC   D2A33508   7.388  22.014   8.444
 2382POPC   C3A33509   7.388  22.154   8.038
 2382POPC   C4A33510   7.534  22.353   7.695
 2382POPC   C1B33511   7.062  21.942   8.847
 2382POPC   C2B33512   6.916  21.846   8.408
 2382POPC   C3B33513   7.073  21.775   8.015
 2382POPC   C4B33514   7.093  21.981   7.651
 2383POPC   NC333515  38.142  11.615   9.285
 2383POPC   PO433516  38.510  11.218   9.700
 2383POPC   GL133517  38.533  11.215   9.220
 2383POPC   GL233518  38.713  11.486   9.056
 2383POPC   C1A33519  38.581  11.153   8.734
 2383POPC   D2A33520  38.325  11.139   8.363
 2383POPC   C3A33521  38.530  11.150   7.979
 2383POPC   C4A33522  38.629  11.422   7.633
 2383POPC   C1B33523  38.482  11.724   8.708
 2383POPC   C2B33524  38.457  11.674   8.248
 2383POPC   C3B33525  38.199  11.585   7.885
 2383POPC   C4B33526  38.115  11.681   7.442
 2384POPC   NC333527  17.729  37.546   9.487
 2384POPC   PO433528  18.430  37.584   9.530
 2384POPC   GL133529  18.285  37.547   9.092
 2384POPC   GL233530  18.030  37.772   9.074
 2384POPC   C1A33531  18.326  37.637   8.618
 2384POPC   D2A33532  18.676  37.617   8.281
 2384POPC   C3A33533  18.506  37.550   7.855
 2384POPC   C4A33534  18.196  37.601   7.502
 2384POPC   C1B33535  17.817  37.696   8.694
 2384POPC   C2B33536  17.932  37.426   8.340
 2384POPC   C3B33537  18.022  37.639   7.974
 2384POPC   C4B33538  17.710  37.782   7.673
 2385POPC   NC333539  32.977  14.612   9.424
 2385POPC   PO433540  32.936  13.990   9.352
 2385POPC   GL133541  32.868  14.258   9.052
 2385POPC   GL233542  33.149  14.352   9.011
 2385POPC   C1A33543  32.802  14.620   8.771
 2385POPC   D2A33544  32.700  14.406   8.402
 2385POPC   C3A33545  33.065  14.296   8.173
 2385POPC   C4A33546  33.116  14.549   7.849
 2385POPC   C1B33547  33.296  14.463   8.639
 2385POPC   C2B33548  33.617  14.236   8.503
 2385POPC   C3B33549  33.552  14.005   8.142
 2385POPC   C4B33550  33.309  14.073   7.764
 2386POPC   NC333551   5.831  10.894   9.596
 2386POPC   PO433552   5.475  11.381   9.755
 2386POPC   GL133553   5.672  11.270   9.298
 2386POPC   GL233554   6.000  11.100   9.160
 2386POPC   C1A33555   5.684  11.383   8.879
 2386POPC   D2A33556   5.599  11.310   8.472
 2386POPC   C3A33557   5.857  11.514   8.163
 2386POPC   C4A33558   5.796  11.544   7.748
 2386POPC   C1B33559   5.915  10.920   8.757
 2386POPC   C2B33560   6.024  11.033   8.347
 2386POPC   C3B33561   5.743  11.048   7.998
 2386POPC   C4B33562   5.846  11.059   7.586
 2387POPC   NC333563  23.917  13.002   9.504
 2387POPC   PO433564  23.657  12.393   9.505
 2387POPC   GL133565  23.589  12.725   9.176
 2387POPC   GL233566  23.925  12.793   9.052
 2387POPC   C1A33567  23.415  12.677   8.730
 2387POPC   D2A33568  23.146  12.700   8.347
 2387POPC   C3A33569  23.374  12.677   7.946
 2387POPC   C4A33570  23.490  12.966   7.596
 2387POPC   C1B33571  23.692  13.097   8.766
 2387POPC   C2B33572  23.552  13.081   8.337
 2387POPC   C3B33573  23.819  12.964   8.000
 2387POPC   C4B33574  24.187  12.865   7.711
 2388POPC   NC333575  10.674  40.408   9.478
 2388POPC   PO433576  10.322  41.028   9.623
 2388POPC   GL133577  10.464  40.916   9.201
 2388POPC   GL233578  10.282  40.611   9.198
 2388POPC   C1A33579  10.721  40.975   8.791
 2388POPC   D2A33580  10.831  40.933   8.328
 2388POPC   C3A33581  10.455  40.790   8.080
 2388POPC   C4A33582  10.442  40.655   7.682
 2388POPC   C1B33583  10.470  40.547   8.828
 2388POPC   C2B33584  10.586  40.443   8.441
 2388POPC   C3B33585  10.820  40.434   8.096
 2388POPC   C4B33586  10.868  40.385   7.663
 2389POPC   NC333587  39.522  43.001   9.315
 2389POPC   PO433588  40.217  42.904   9.360
 2389POPC   GL133589  40.025  43.120   9.060
 2389POPC   GL233590  39.908  43.428   9.199
 2389POPC   C1A33591  40.148  43.110   8.639
 2389POPC   D2A33592  39.875  43.047   8.325
 2389POPC   C3A33593  40.086  42.969   8.013
 2389POPC   C4A33594  40.283  43.093   7.682
 2389POPC   C1B33595  39.849  43.520   8.732
 2389POPC   C2B33596  39.849  43.596   8.264
 2389POPC   C3B33597  39.817  43.370   7.833
 2389POPC   C4B33598  39.641  43.250   7.401
 2390POPC   NC333599  39.590  16.737   9.484
 2390POPC   PO433600  38.974  16.958   9.544
 2390POPC   GL133601  39.161  16.912   9.182
 2390POPC   GL233602  39.178  16.586   9.195
 2390POPC   C1A33603  39.234  17.053   8.783
 2390POPC   D2A33604  39.246  16.839   8.437
 2390POPC   C3A33605  39.082  16.933   8.086
 2390POPC   C4A33606  39.418  16.880   7.822
 2390POPC   C1B33607  39.413  16.567   8.850
 2390POPC   C2B33608  39.473  16.383   8.470
 2390POPC   C3B33609  39.309  16.458   8.087
 2390POPC   C4B33610  39.640  16.383   7.854
 2391POPC   NC333611  10.204  19.348   9.511
 2391POPC   PO433612  10.655  18.796   9.407
 2391POPC   GL133613  10.471  19.123   9.126
 2391POPC   GL233614  10.069  19.105   9.081
 2391POPC   C1A33615  10.381  19.176   8.691
 2391POPC   D2A33616  10.497  19.215   8.300
 2391POPC   C3A33617  10.243  19.004   8.052
 2391POPC   C4A33618  10.417  18.940   7.676
 2391POPC   C1B33619  10.091  19.553   8.870
 2391POPC   C2B33620  10.136  19.745   8.449
 2391POPC   C3B33621  10.146  19.544   8.071
 2391POPC   C4B33622  10.377  19.450   7.721
 2392POPC   NC333623  20.551  33.555   9.524
 2392POPC   PO433624  20.915  34.143   9.484
 2392POPC   GL133625  20.711  34.005   9.124
 2392POPC   GL233626  20.410  33.834   9.139
 2392POPC   C1A33627  20.703  33.810   8.722
 2392POPC   D2A33628  20.532  33.911   8.372
 2392POPC   C3A33629  20.765  33.984   8.002
 2392POPC   C4A33630  20.484  33.900   7.701
 2392POPC   C1B33631  20.344  33.471   8.838
 2392POPC   C2B33632  20.149  33.570   8.406
 2392POPC   C3B33633  20.010  33.469   8.012
 2392POPC   C4B33634  20.200  33.448   7.628
 2393POPC   NC333635  11.044  41.978   9.567
 2393POPC   PO433636  11.485  41.446   9.561
 2393POPC   GL133637  11.352  41.504   9.172
 2393POPC   GL233638  11.309  41.854   9.146
 2393POPC   C1A33639  11.101  41.349   8.829
 2393POPC   D2A33640  11.185  41.331   8.407
 2393POPC   C3A33641  10.980  41.311   8.007
 2393POPC   C4A33642  11.305  41.243   7.673
 2393POPC   C1B33643  11.430  41.724   8.731
 2393POPC   C2B33644  11.393  41.826   8.357
 2393POPC   C3B33645  11.332  41.667   7.967
 2393POPC   C4B33646  11.348  41.860   7.596
 2394POPC   NC333647  19.013  24.814   9.602
 2394POPC   PO433648  18.875  24.174   9.483
 2394POPC   GL133649  18.988  24.360   9.118
 2394POPC   GL233650  18.975  24.712   9.115
 2394POPC   C1A33651  19.209  24.146   8.794
 2394POPC   D2A33652  19.075  24.194   8.395
 2394POPC   C3A33653  19.385  24.268   8.085
 2394POPC   C4A33654  19.363  24.025   7.703
 2394POPC   C1B33655  19.116  24.652   8.705
 2394POPC   C2B33656  18.927  24.673   8.326
 2394POPC   C3B33657  18.969  24.501   7.924
 2394POPC   C4B33658  19.309  24.534   7.639
 2395POPC   NC333659  33.479  38.204   9.468
 2395POPC   PO433660  33.729  38.842   9.296
 2395POPC   GL133661  33.811  38.630   8.943
 2395POPC   GL233662  33.765  38.252   9.009
 2395POPC   C1A33663  33.724  38.654   8.513
 2395POPC   D2A33664  33.643  38.263   8.301
 2395POPC   C3A33665  33.795  38.304   7.924
 2395POPC   C4A33666  33.935  38.671   7.690
 2395POPC   C1B33667  33.384  38.342   8.748
 2395POPC   C2B33668  33.211  38.592   8.392
 2395POPC   C3B33669  33.398  38.648   8.014
 2395POPC   C4B33670  33.452  38.502   7.611
 2396POPC   NC333671  22.400  13.975   9.759
 2396POPC   PO433672  22.239  14.570   9.390
 2396POPC   GL133673  22.275  14.493   8.979
 2396POPC   GL233674  22.030  14.246   9.016
 2396POPC   C1A33675  22.302  14.559   8.550
 2396POPC   D2A33676  21.992  14.618   8.268
 2396POPC   C3A33677  22.123  14.529   7.938
 2396POPC   C4A33678  21.935  14.627   7.589
 2396POPC   C1B33679  21.870  14.288   8.633
 2396POPC   C2B33680  21.967  14.107   8.237
 2396POPC   C3B33681  21.884  14.096   7.790
 2396POPC   C4B33682  21.612  14.272   7.465
 2397POPC   NC333683   4.588  15.029   9.345
 2397POPC   PO433684   4.008  15.446   9.581
 2397POPC   GL133685   4.085  15.253   9.170
 2397POPC   GL233686   4.337  15.471   9.050
 2397POPC   C1A33687   4.108  15.138   8.707
 2397POPC   D2A33688   4.054  15.337   8.272
 2397POPC   C3A33689   4.191  15.089   7.944
 2397POPC   C4A33690   4.605  14.917   7.865
 2397POPC   C1B33691   4.624  15.293   8.742
 2397POPC   C2B33692   4.738  15.195   8.330
 2397POPC   C3B33693   4.583  15.423   8.007
 2397POPC   C4B33694   4.429  15.350   7.577
 2398POPC   NC333695  33.083  40.036   9.665
 2398POPC   PO433696  33.177  39.422   9.549
 2398POPC   GL133697  32.888  39.718   9.309
 2398POPC   GL233698  33.071  39.995   9.157
 2398POPC   C1A33699  32.683  39.759   8.887
 2398POPC   D2A33700  32.863  39.894   8.454
 2398POPC   C3A33701  32.872  39.623   8.062
 2398POPC   C4A33702  32.837  39.865   7.668
 2398POPC   C1B33703  33.251  40.092   8.755
 2398POPC   C2B33704  33.408  40.072   8.338
 2398POPC   C3B33705  33.251  39.948   7.932
 2398POPC   C4B33706  33.279  40.068   7.478
 2399POPC   NC333707   8.544   0.352   9.360
 2399POPC   PO433708   8.982   0.764   9.741
 2399POPC   GL133709   8.903   0.718   9.297
 2399POPC   GL233710   9.078   0.397   9.261
 2399POPC   C1A33711   8.640   0.786   8.884
 2399POPC   D2A33712   8.673   0.563   8.495
 2399POPC   C3A33713   8.759   0.802   8.180
 2399POPC   C4A33714   8.871   0.637   7.776
 2399POPC   C1B33715   9.114   0.421   8.813
 2399POPC   C2B33716   9.119   0.304   8.370
 2399POPC   C3B33717   8.804   0.175   8.104
 2399POPC   C4B33718   8.878   0.073   7.701
 2400POPC   NC333719   0.002  10.493   9.487
 2400POPC   PO433720  44.808  11.087   9.525
 2400POPC   GL133721  44.793  10.793   9.127
 2400POPC   GL233722  44.581  10.493   9.076
 2400POPC   C1A33723  44.785  10.753   8.658
 2400POPC   D2A33724  44.781  10.379   8.393
 2400POPC   C3A33725  44.793  10.462   7.940
 2400POPC   C4A33726  44.658  10.438   7.518
 2400POPC   C1B33727  44.342  10.539   8.658
 2400POPC   C2B33728  44.454  10.727   8.225
 2400POPC   C3B33729  44.271  10.598   7.828
 2400POPC   C4B33730  44.152  10.549   7.374
 2401POPC   NC333731   5.146  32.373   9.661
 2401POPC   PO433732   4.581  32.049   9.603
 2401POPC   GL133733   4.706  32.339   9.227
 2401POPC   GL233734   5.063  32.503   9.193
 2401POPC   C1A33735   4.894  32.263   8.800
 2401POPC   D2A33736   5.045  32.169   8.405
 2401POPC   C3A33737   4.905  32.334   8.041
 2401POPC   C4A33738   5.051  32.037   7.709
 2401POPC   C1B33739   5.286  32.646   8.836
 2401POPC   C2B33740   5.419  32.618   8.413
 2401POPC   C3B33741   5.425  32.341   8.056
 2401POPC   C4B33742   5.396  32.412   7.621
 2402POPC   NC333743  41.125  29.634   9.440
 2402POPC   PO433744  41.825  29.877   9.556
 2402POPC   GL133745  41.758  30.116   9.185
 2402POPC   GL233746  41.379  30.059   9.201
 2402POPC   C1A33747  41.848  30.007   8.732
 2402POPC   D2A33748  41.668  29.745   8.373
 2402POPC   C3A33749  41.737  29.931   7.945
 2402POPC   C4A33750  42.041  30.199   7.751
 2402POPC   C1B33751  41.407  30.263   8.804
 2402POPC   C2B33752  41.516  30.247   8.395
 2402POPC   C3B33753  41.509  30.387   7.996
 2402POPC   C4B33754  41.349  30.150   7.659
 2403POPC   NC333755  37.055  26.013   9.448
 2403POPC   PO433756  36.793  26.616   9.710
 2403POPC   GL133757  36.745  26.343   9.250
 2403POPC   GL233758  36.544  26.072   9.269
 2403POPC   C1A33759  36.923  26.056   8.823
 2403POPC   D2A33760  37.068  26.227   8.402
 2403POPC   C3A33761  36.984  26.086   7.977
 2403POPC   C4A33762  36.661  26.199   7.679
 2403POPC   C1B33763  36.426  26.053   8.845
 2403POPC   C2B33764  36.565  25.941   8.460
 2403POPC   C3B33765  36.517  25.859   8.062
 2403POPC   C4B33766  36.756  25.572   7.863
 2404POPC   NC333767   2.030  37.522   9.540
 2404POPC   PO433768   1.963  38.102   9.634
 2404POPC   GL133769   1.823  37.895   9.229
 2404POPC   GL233770   2.163  37.814   9.119
 2404POPC   C1A33771   1.769  37.696   8.795
 2404POPC   D2A33772   2.007  37.551   8.433
 2404POPC   C3A33773   1.871  37.387   8.050
 2404POPC   C4A33774   1.577  37.668   7.923
 2404POPC   C1B33775   2.294  37.885   8.697
 2404POPC   C2B33776   2.147  38.017   8.292
 2404POPC   C3B33777   2.086  37.936   7.857
 2404POPC   C4B33778   2.499  37.868   7.685
 2405POPC   NC333779   3.295  27.389   9.602
 2405POPC   PO433780   3.634  27.933   9.413
 2405POPC   GL133781   3.480  27.737   9.056
 2405POPC   GL233782   3.370  27.398   9.087
 2405POPC   C1A33783   3.452  27.851   8.611
 2405POPC   D2A33784   3.608  27.911   8.186
 2405POPC   C3A33785   3.441  27.628   7.825
 2405POPC   C4A33786   3.489  27.751   7.357
 2405POPC   C1B33787   3.719  27.416   8.752
 2405POPC   C2B33788   3.761  27.293   8.322
 2405POPC   C3B33789   3.657  27.173   7.920
 2405POPC   C4B33790   3.630  27.279   7.491
 2406POPC   NC333791  19.774  23.466   9.474
 2406POPC   PO433792  19.820  24.096   9.366
 2406POPC   GL133793  19.833  23.809   9.061
 2406POPC   GL233794  19.615  23.509   8.983
 2406POPC   C1A33795  19.823  23.914   8.636
 2406POPC   D2A33796  19.836  24.116   8.253
 2406POPC   C3A33797  19.813  23.849   7.931
 2406POPC   C4A33798  19.826  23.882   7.509
 2406POPC   C1B33799  20.004  23.427   8.769
 2406POPC   C2B33800  20.108  23.564   8.358
 2406POPC   C3B33801  20.004  23.375   7.963
 2406POPC   C4B33802  19.881  23.380   7.514
 2407POPC   NC333803  29.628   1.127   9.493
 2407POPC   PO433804  29.896   1.727   9.318
 2407POPC   GL133805  29.877   1.350   9.097
 2407POPC   GL233806  30.111   1.107   9.213
 2407POPC   C1A33807  29.865   1.140   8.711
 2407POPC   D2A33808  29.663   1.132   8.328
 2407POPC   C3A33809  29.686   1.461   8.007
 2407POPC   C4A33810  29.826   1.601   7.590
 2407POPC   C1B33811  30.353   1.052   8.830
 2407POPC   C2B33812  30.259   0.919   8.408
 2407POPC   C3B33813  30.118   1.159   8.106
 2407POPC   C4B33814  29.923   1.110   7.719
 2408POPC   NC333815  15.117   0.716   9.347
 2408POPC   PO433816  15.339   0.145   9.589
 2408POPC   GL133817  15.393   0.267   9.166
 2408POPC   GL233818  15.053   0.347   8.998
 2408POPC   C1A33819  15.448   0.192   8.729
 2408POPC   D2A33820  15.044   0.279   8.478
 2408POPC   C3A33821  15.180   0.354   8.062
 2408POPC   C4A33822  15.415   0.123   7.782
 2408POPC   C1B33823  15.005   0.744   8.728
 2408POPC   C2B33824  14.977   0.943   8.328
 2408POPC   C3B33825  14.978   0.801   7.920
 2408POPC   C4B33826  14.692   0.771   7.609
 2409POPC   NC333827  13.315  31.086   9.469
 2409POPC   PO433828  13.883  31.506   9.465
 2409POPC   GL133829  13.681  31.280   9.151
 2409POPC   GL233830  13.786  31.581   8.953
 2409POPC   C1A33831  13.604  31.195   8.705
 2409POPC   D2A33832  13.834  31.495   8.407
 2409POPC   C3A33833  13.736  31.514   7.960
 2409POPC   C4A33834  13.709  31.276   7.578
 2409POPC   C1B33835  13.424  31.695   8.694
 2409POPC   C2B33836  13.162  31.729   8.318
 2409POPC   C3B33837  13.250  31.661   7.903
 2409POPC   C4B33838  13.492  31.724   7.510
 2410POPC   NC333839  19.124  27.291   9.478
 2410POPC   PO433840  18.954  27.923   9.415
 2410POPC   GL133841  18.980  27.706   9.080
 2410POPC   GL233842  19.333  27.609   9.093
 2410POPC   C1A33843  18.747  27.746   8.704
 2410POPC   D2A33844  18.790  27.569   8.317
 2410POPC   C3A33845  18.619  27.822   8.040
 2410POPC   C4A33846  18.730  27.703   7.688
 2410POPC   C1B33847  19.214  27.516   8.651
 2410POPC   C2B33848  19.291  27.555   8.206
 2410POPC   C3B33849  19.186  27.463   7.783
 2410POPC   C4B33850  19.155  27.766   7.423
 2411POPC   NC333851  26.590   5.239  10.224
 2411POPC   PO433852  26.930   5.118   9.656
 2411POPC   GL133853  26.962   5.312   9.225
 2411POPC   GL233854  26.778   5.025   9.121
 2411POPC   C1A33855  26.893   5.418   8.754
 2411POPC   D2A33856  26.651   5.163   8.505
 2411POPC   C3A33857  26.818   4.902   8.198
 2411POPC   C4A33858  26.469   5.029   7.958
 2411POPC   C1B33859  27.033   4.946   8.768
 2411POPC   C2B33860  27.330   4.786   8.513
 2411POPC   C3B33861  27.208   4.563   8.177
 2411POPC   C4B33862  27.087   4.667   7.770
 2412POPC   NC333863   1.071  15.722   9.597
 2412POPC   PO433864   0.923  16.411   9.497
 2412POPC   GL133865   1.167  16.105   9.242
 2412POPC   GL233866   1.461  16.237   9.143
 2412POPC   C1A33867   1.304  15.881   8.823
 2412POPC   D2A33868   1.106  15.909   8.406
 2412POPC   C3A33869   1.266  15.783   8.005
 2412POPC   C4A33870   1.035  15.588   7.690
 2412POPC   C1B33871   1.358  16.488   8.816
 2412POPC   C2B33872   1.326  16.369   8.406
 2412POPC   C3B33873   1.134  16.288   8.035
 2412POPC   C4B33874   1.334  16.166   7.668
 2413POPC   NC333875   3.052  14.766   9.783
 2413POPC   PO433876   2.672  15.113   9.282
 2413POPC   GL133877   3.043  15.290   9.104
 2413POPC   GL233878   3.103  15.625   9.177
 2413POPC   C1A33879   3.074  15.121   8.686
 2413POPC   D2A33880   2.657  15.029   8.514
 2413POPC   C3A33881   2.632  14.961   8.086
 2413POPC   C4A33882   2.409  14.647   7.801
 2413POPC   C1B33883   2.809  15.593   8.784
 2413POPC   C2B33884   2.894  15.492   8.398
 2413POPC   C3B33885   2.674  15.483   8.072
 2413POPC   C4B33886   2.878  15.334   7.740
 2414POPC   NC333887   4.331   2.812   9.498
 2414POPC   PO433888   4.769   2.371   9.375
 2414POPC   GL133889   4.483   2.537   9.063
 2414POPC   GL233890   4.143   2.504   9.127
 2414POPC   C1A33891   4.414   2.782   8.668
 2414POPC   D2A33892   4.235   2.934   8.260
 2414POPC   C3A33893   4.524   2.856   7.897
 2414POPC   C4A33894   4.635   3.073   7.492
 2414POPC   C1B33895   4.134   2.330   8.703
 2414POPC   C2B33896   4.310   2.419   8.290
 2414POPC   C3B33897   4.093   2.532   7.917
 2414POPC   C4B33898   3.968   2.515   7.480
 2415POPC   NC333899  33.447  42.685   9.531
 2415POPC   PO433900  34.155  42.655   9.398
 2415POPC   GL133901  33.993  42.456   9.062
 2415POPC   GL233902  33.716  42.298   9.230
 2415POPC   C1A33903  33.634  42.545   8.787
 2415POPC   D2A33904  33.489  42.319   8.429
 2415POPC   C3A33905  33.490  42.520   8.040
 2415POPC   C4A33906  33.813  42.383   7.843
 2415POPC   C1B33907  33.533  42.026   8.883
 2415POPC   C2B33908  33.361  41.814   8.488
 2415POPC   C3B33909  33.534  41.939   8.053
 2415POPC   C4B33910  33.961  41.895   7.793
 2416POPC   NC333911   6.845  39.103   9.675
 2416POPC   PO433912   6.855  39.581   9.277
 2416POPC   GL133913   6.642  39.245   9.125
 2416POPC   GL233914   6.909  39.028   9.181
 2416POPC   C1A33915   6.520  39.306   8.684
 2416POPC   D2A33916   6.621  39.551   8.281
 2416POPC   C3A33917   6.623  39.297   7.904
 2416POPC   C4A33918   6.798  39.256   7.493
 2416POPC   C1B33919   6.852  38.896   8.763
 2416POPC   C2B33920   6.668  38.955   8.343
 2416POPC   C3B33921   6.807  38.814   7.974
 2416POPC   C4B33922   7.041  38.820   7.605
 2417POPC   NC333923  39.757  14.275   9.536
 2417POPC   PO433924  39.449  14.764   9.249
 2417POPC   GL133925  39.857  14.659   9.082
 2417POPC   GL233926  40.189  14.468   9.108
 2417POPC   C1A33927  40.017  14.731   8.674
 2417POPC   D2A33928  39.893  14.514   8.324
 2417POPC   C3A33929  40.046  14.566   7.929
 2417POPC   C4A33930  39.935  14.877   7.647
 2417POPC   C1B33931  39.926  14.227   8.811
 2417POPC   C2B33932  39.741  14.050   8.428
 2417POPC   C3B33933  39.711  14.155   7.982
 2417POPC   C4B33934  39.605  14.371   7.626
 2418POPC   NC333935  26.538  14.873   9.502
 2418POPC   PO433936  26.730  15.561   9.452
 2418POPC   GL133937  26.961  15.335   9.136
 2418POPC   GL233938  27.059  14.968   9.227
 2418POPC   C1A33939  26.950  15.518   8.731
 2418POPC   D2A33940  26.887  15.752   8.349
 2418POPC   C3A33941  26.884  15.472   8.002
 2418POPC   C4A33942  26.536  15.429   7.735
 2418POPC   C1B33943  26.821  14.932   8.832
 2418POPC   C2B33944  26.902  15.071   8.414
 2418POPC   C3B33945  26.766  14.960   8.003
 2418POPC   C4B33946  27.025  15.065   7.664
 2419POPC   NC333947   2.400  24.303   9.623
 2419POPC   PO433948   3.003  24.653   9.465
 2419POPC   GL133949   2.813  24.616   9.101
 2419POPC   GL233950   2.525  24.460   9.141
 2419POPC   C1A33951   2.739  24.764   8.702
 2419POPC   D2A33952   2.557  24.591   8.347
 2419POPC   C3A33953   2.741  24.466   8.004
 2419POPC   C4A33954   2.619  24.697   7.670
 2419POPC   C1B33955   2.693  24.252   8.761
 2419POPC   C2B33956   2.672  24.086   8.343
 2419POPC   C3B33957   2.461  24.059   7.910
 2419POPC   C4B33958   2.469  24.003   7.455
 2420POPC   NC333959  22.030  38.417   9.423
 2420POPC   PO433960  22.550  38.809   9.468
 2420POPC   GL133961  22.380  38.567   9.089
 2420POPC   GL233962  22.404  38.201   9.142
 2420POPC   C1A33963  22.005  38.551   8.779
 2420POPC   D2A33964  22.081  38.683   8.372
 2420POPC   C3A33965  21.906  38.554   7.983
 2420POPC   C4A33966  22.072  38.679   7.543
 2420POPC   C1B33967  22.260  38.128   8.710
 2420POPC   C2B33968  22.246  38.217   8.259
 2420POPC   C3B33969  22.400  38.503   7.961
 2420POPC   C4B33970  22.361  38.261   7.619
 2421POPC   NC333971   7.996  43.752   9.517
 2421POPC   PO433972   8.594  44.155   9.547
 2421POPC   GL133973   8.334  44.086   9.230
 2421POPC   GL233974   8.010  44.226   9.295
 2421POPC   C1A33975   8.464  43.983   8.841
 2421POPC   D2A33976   8.544  43.835   8.461
 2421POPC   C3A33977   8.436  44.048   8.069
 2421POPC   C4A33978   8.310  43.704   7.804
 2421POPC   C1B33979   7.844  44.125   8.881
 2421POPC   C2B33980   8.026  43.945   8.510
 2421POPC   C3B33981   7.940  43.882   8.087
 2421POPC   C4B33982   8.041  44.155   7.745
 2422POPC   NC333983  22.683  31.048   9.409
 2422POPC   PO433984  22.980  30.425   9.538
 2422POPC   GL133985  22.997  30.672   9.207
 2422POPC   GL233986  22.661  30.619   9.148
 2422POPC   C1A33987  22.999  30.871   8.820
 2422POPC   D2A33988  22.931  30.743   8.411
 2422POPC   C3A33989  23.068  30.953   8.047
 2422POPC   C4A33990  23.177  30.894   7.627
 2422POPC   C1B33991  22.497  30.767   8.781
 2422POPC   C2B33992  22.478  30.972   8.381
 2422POPC   C3B33993  22.530  30.691   8.058
 2422POPC   C4B33994  22.607  30.565   7.650
 2423POPC   NC333995  18.400  30.234   9.834
 2423POPC   PO433996  18.621  29.761   9.364
 2423POPC   GL133997  18.310  29.906   9.055
 2423POPC   GL233998  18.129  30.249   9.043
 2423POPC   C1A33999  18.202  29.945   8.628
 2423POPC   D2A34000  18.361  30.176   8.298
 2423POPC   C3A34001  18.312  30.012   7.866
 2423POPC   C4A34002  18.578  30.116   7.480
 2423POPC   C1B34003  17.963  30.399   8.635
 2423POPC   C2B34004  17.888  30.333   8.184
 2423POPC   C3B34005  17.793  30.110   7.800
 2423POPC   C4B34006  17.905  29.750   7.491
 2424POPC   NC334007  32.546  44.630   9.477
 2424POPC   PO434008  33.197  44.486   9.593
 2424POPC   GL134009  33.008  44.489   9.209
 2424POPC   GL234010  33.310  44.670   9.098
 2424POPC   C1A34011  32.901  44.500   8.764
 2424POPC   D2A34012  32.925  44.790   8.391
 2424POPC   C3A34013  32.742  44.645   8.037
 2424POPC   C4A34014  32.770  44.417   7.673
 2424POPC   C1B34015  33.354  44.729   8.672
 2424POPC   C2B34016  33.270  44.414   8.367
 2424POPC   C3B34017  33.218  44.472   7.956
 2424POPC   C4B34018  33.182  44.896   7.851
 2425POPC   NC334019  11.458  28.881   9.583
 2425POPC   PO434020  11.095  29.422   9.473
 2425POPC   GL134021  11.415  29.351   9.187
 2425POPC   GL234022  11.471  29.006   9.071
 2425POPC   C1A34023  11.585  29.452   8.806
 2425POPC   D2A34024  11.520  29.232   8.447
 2425POPC   C3A34025  11.673  29.450   8.083
 2425POPC   C4A34026  11.621  29.271   7.691
 2425POPC   C1B34027  11.138  29.159   8.795
 2425POPC   C2B34028  11.018  29.190   8.382
 2425POPC   C3B34029  11.217  29.197   8.017
 2425POPC   C4B34030  11.130  29.067   7.633
 2426POPC   NC334031  34.025  33.798   9.536
 2426POPC   PO434032  33.672  33.372   9.233
 2426POPC   GL134033  33.746  33.768   9.095
 2426POPC   GL234034  33.638  34.075   9.272
 2426POPC   C1A34035  33.648  33.767   8.670
 2426POPC   D2A34036  33.873  33.681   8.354
 2426POPC   C3A34037  33.708  33.851   8.016
 2426POPC   C4A34038  33.751  33.628   7.670
 2426POPC   C1B34039  33.776  34.214   8.844
 2426POPC   C2B34040  34.119  34.130   8.508
 2426POPC   C3B34041  34.208  33.966   8.083
 2426POPC   C4B34042  34.065  34.038   7.674
 2427POPC   NC334043   0.141  24.866   9.470
 2427POPC   PO434044   0.372  25.563   9.537
 2427POPC   GL134045   0.515  25.387   9.159
 2427POPC   GL234046   0.474  25.041   9.136
 2427POPC   C1A34047   0.329  25.442   8.791
 2427POPC   D2A34048   0.272  25.720   8.452
 2427POPC   C3A34049   0.543  25.574   8.138
 2427POPC   C4A34050   0.653  25.378   7.777
 2427POPC   C1B34051   0.389  24.902   8.722
 2427POPC   C2B34052   0.622  24.761   8.370
 2427POPC   C3B34053   0.503  24.967   8.051
 2427POPC   C4B34054   0.394  24.849   7.681
 2428POPC   NC334055   1.112  31.858   9.366
 2428POPC   PO434056   1.689  32.226   9.508
 2428POPC   GL134057   1.442  32.308   9.154
 2428POPC   GL234058   1.083  32.325   9.109
 2428POPC   C1A34059   1.445  32.310   8.735
 2428POPC   D2A34060   1.310  32.196   8.370
 2428POPC   C3A34061   1.601  32.246   8.053
 2428POPC   C4A34062   1.473  32.327   7.648
 2428POPC   C1B34063   0.916  32.101   8.720
 2428POPC   C2B34064   0.866  31.962   8.276
 2428POPC   C3B34065   1.030  32.120   7.886
 2428POPC   C4B34066   0.783  32.413   7.599
 2429POPC   NC334067  35.545  28.260   9.492
 2429POPC   PO434068  35.040  27.994   9.354
 2429POPC   GL134069  35.169  28.346   9.141
 2429POPC   GL234070  35.416  28.646   9.160
 2429POPC   C1A34071  35.444  28.228   8.825
 2429POPC   D2A34072  35.319  28.316   8.430
 2429POPC   C3A34073  35.453  28.085   8.064
 2429POPC   C4A34074  35.723  28.313   7.789
 2429POPC   C1B34075  35.614  28.676   8.723
 2429POPC   C2B34076  35.728  28.597   8.291
 2429POPC   C3B34077  35.392  28.621   8.000
 2429POPC   C4B34078  35.386  28.981   7.774
 2430POPC   NC334079  39.943   2.307   9.587
 2430POPC   PO434080  40.257   1.738   9.808
 2430POPC   GL134081  40.060   1.894   9.319
 2430POPC   GL234082  39.971   1.572   9.192
 2430POPC   C1A34083  40.058   2.193   8.879
 2430POPC   D2A34084  40.173   2.101   8.379
 2430POPC   C3A34085  40.033   2.290   7.946
 2430POPC   C4A34086  40.125   2.154   7.485
 2430POPC   C1B34087  40.154   1.704   8.785
 2430POPC   C2B34088  40.511   1.719   8.535
 2430POPC   C3B34089  40.349   1.658   8.168
 2430POPC   C4B34090  40.185   1.788   7.807
 2431POPC   NC334091  15.492  21.040   9.553
 2431POPC   PO434092  15.436  20.371   9.606
 2431POPC   GL134093  15.303  20.600   9.218
 2431POPC   GL234094  15.032  20.866   9.236
 2431POPC   C1A34095  14.982  20.498   8.876
 2431POPC   D2A34096  14.798  20.288   8.525
 2431POPC   C3A34097  14.990  20.489   8.200
 2431POPC   C4A34098  15.061  20.402   7.797
 2431POPC   C1B34099  15.282  20.931   8.832
 2431POPC   C2B34100  15.415  20.745   8.433
 2431POPC   C3B34101  15.359  20.805   7.983
 2431POPC   C4B34102  15.152  20.869   7.556
 2432POPC   NC334103   4.358  27.005   9.717
 2432POPC   PO434104   3.756  27.033   9.537
 2432POPC   GL134105   4.108  27.091   9.229
 2432POPC   GL234106   4.491  27.068   9.194
 2432POPC   C1A34107   4.139  27.103   8.785
 2432POPC   D2A34108   4.182  26.911   8.377
 2432POPC   C3A34109   4.176  27.150   8.011
 2432POPC   C4A34110   4.436  26.933   7.758
 2432POPC   C1B34111   4.497  26.716   8.866
 2432POPC   C2B34112   4.497  26.504   8.452
 2432POPC   C3B34113   4.634  26.550   8.013
 2432POPC   C4B34114   4.574  26.514   7.518
 2433POPC   NC334115  14.984  30.422   9.476
 2433POPC   PO434116  15.493  30.883   9.490
 2433POPC   GL134117  15.188  30.806   9.179
 2433POPC   GL234118  15.351  30.497   9.130
 2433POPC   C1A34119  15.050  30.853   8.756
 2433POPC   D2A34120  15.246  30.732   8.373
 2433POPC   C3A34121  15.037  30.847   8.037
 2433POPC   C4A34122  14.986  30.901   7.627
 2433POPC   C1B34123  15.288  30.384   8.728
 2433POPC   C2B34124  15.400  30.227   8.334
 2433POPC   C3B34125  15.246  30.321   7.933
 2433POPC   C4B34126  14.847  30.417   7.772
 2434POPC   NC334127   2.441   4.678   9.458
 2434POPC   PO434128   1.912   4.297   9.716
 2434POPC   GL134129   2.146   4.171   9.267
 2434POPC   GL234130   2.226   4.443   9.054
 2434POPC   C1A34131   1.930   4.153   8.776
 2434POPC   D2A34132   1.980   4.456   8.419
 2434POPC   C3A34133   1.831   4.373   7.991
 2434POPC   C4A34134   1.906   4.194   7.566
 2434POPC   C1B34135   2.424   4.238   8.683
 2434POPC   C2B34136   2.428   4.261   8.206
 2434POPC   C3B34137   2.289   4.536   7.829
 2434POPC   C4B34138   2.195   4.562   7.364
 2435POPC   NC334139  11.896  19.609   9.422
 2435POPC   PO434140  12.240  19.007   9.555
 2435POPC   GL134141  12.080  19.027   9.149
 2435POPC   GL234142  11.737  18.891   9.112
 2435POPC   C1A34143  12.081  18.894   8.728
 2435POPC   D2A34144  11.910  19.118   8.400
 2435POPC   C3A34145  11.863  18.880   8.059
 2435POPC   C4A34146  12.053  18.678   7.728
 2435POPC   C1B34147  11.702  19.285   8.840
 2435POPC   C2B34148  11.615  19.545   8.442
 2435POPC   C3B34149  11.678  19.424   8.022
 2435POPC   C4B34150  11.832  19.189   7.677
 2436POPC   NC334151  29.341  29.995   9.753
 2436POPC   PO434152  28.785  29.765   9.413
 2436POPC   GL134153  29.164  29.833   9.185
 2436POPC   GL234154  29.095  30.108   8.978
 2436POPC   C1A34155  29.409  29.758   8.781
 2436POPC   D2A34156  29.537  29.776   8.338
 2436POPC   C3A34157  29.160  29.729   8.077
 2436POPC   C4A34158  29.068  30.007   7.715
 2436POPC   C1B34159  29.332  30.239   8.608
 2436POPC   C2B34160  29.271  30.215   8.158
 2436POPC   C3B34161  29.279  30.451   7.780
 2436POPC   C4B34162  28.941  30.506   7.464
 2437POPC   NC334163  22.179  34.969   9.322
 2437POPC   PO434164  21.919  35.525   9.563
 2437POPC   GL134165  22.078  35.487   9.158
 2437POPC   GL234166  21.921  35.800   9.106
 2437POPC   C1A34167  22.185  35.291   8.745
 2437POPC   D2A34168  21.984  35.097   8.362
 2437POPC   C3A34169  22.151  35.233   7.953
 2437POPC   C4A34170  22.460  35.375   7.658
 2437POPC   C1B34171  21.947  35.749   8.728
 2437POPC   C2B34172  22.173  35.670   8.402
 2437POPC   C3B34173  22.179  35.731   7.988
 2437POPC   C4B34174  22.002  35.680   7.583
 2438POPC   NC334175  42.995  27.037   9.446
 2438POPC   PO434176  43.524  26.699   9.502
 2438POPC   GL134177  43.226  26.672   9.156
 2438POPC   GL234178  43.353  26.383   9.004
 2438POPC   C1A34179  42.978  26.908   8.805
 2438POPC   D2A34180  43.133  26.917   8.388
 2438POPC   C3A34181  42.904  26.967   8.043
 2438POPC   C4A34182  43.059  27.016   7.674
 2438POPC   C1B34183  43.014  26.397   8.698
 2438POPC   C2B34184  42.963  26.448   8.240
 2438POPC   C3B34185  43.285  26.603   7.938
 2438POPC   C4B34186  43.321  26.604   7.475
 2439POPC   NC334187  43.267  32.284   9.554
 2439POPC   PO434188  42.666  32.379   9.511
 2439POPC   GL134189  42.918  32.118   9.185
 2439POPC   GL234190  43.227  32.297   9.064
 2439POPC   C1A34191  43.079  31.935   8.756
 2439POPC   D2A34192  43.329  32.015   8.391
 2439POPC   C3A34193  43.202  32.180   7.971
 2439POPC   C4A34194  43.255  31.860   7.674
 2439POPC   C1B34195  43.242  32.583   8.753
 2439POPC   C2B34196  43.336  32.526   8.346
 2439POPC   C3B34197  43.242  32.721   7.987
 2439POPC   C4B34198  43.486  32.742   7.625
 2440POPC   NC334199  21.610  22.289   9.348
 2440POPC   PO434200  22.176  21.967   9.620
 2440POPC   GL134201  22.117  22.099   9.198
 2440POPC   GL234202  21.877  21.912   9.087
 2440POPC   C1A34203  22.184  22.035   8.726
 2440POPC   D2A34204  22.403  22.055   8.366
 2440POPC   C3A34205  22.358  22.362   8.090
 2440POPC   C4A34206  22.322  22.235   7.695
 2440POPC   C1B34207  21.755  21.713   8.724
 2440POPC   C2B34208  21.641  21.847   8.331
 2440POPC   C3B34209  21.937  21.973   8.045
 2440POPC   C4B34210  21.954  21.745   7.680
 2441POPC   NC334211  39.252  43.953   9.463
 2441POPC   PO434212  39.558  43.487   9.759
 2441POPC   GL134213  39.638  43.861   9.171
 2441POPC   GL234214  39.278  43.878   8.980
 2441POPC   C1A34215  39.651  44.001   8.691
 2441POPC   D2A34216  39.495  44.174   8.309
 2441POPC   C3A34217  39.414  43.820   8.032
 2441POPC   C4A34218  39.509  43.729   7.600
 2441POPC   C1B34219  39.009  43.683   8.688
 2441POPC   C2B34220  38.964  43.539   8.262
 2441POPC   C3B34221  38.653  43.543   7.985
 2441POPC   C4B34222  38.726  43.599   7.563
 2442POPC   NC334223  17.333  38.454   9.350
 2442POPC   PO434224  17.766  38.009   9.433
 2442POPC   GL134225  17.683  38.170   9.029
 2442POPC   GL234226  17.677  38.535   8.971
 2442POPC   C1A34227  17.642  38.195   8.586
 2442POPC   D2A34228  17.629  38.425   8.197
 2442POPC   C3A34229  17.503  38.229   7.813
 2442POPC   C4A34230  17.607  38.206   7.391
 2442POPC   C1B34231  17.929  38.638   8.599
 2442POPC   C2B34232  18.006  38.780   8.181
 2442POPC   C3B34233  17.824  38.637   7.769
 2442POPC   C4B34234  17.955  38.599   7.353
 2443POPC   NC334235   8.753  39.493   9.654
 2443POPC   PO434236   8.835  38.831   9.445
 2443POPC   GL134237   8.879  39.259   9.184
 2443POPC   GL234238   8.687  39.569   9.150
 2443POPC   C1A34239   9.078  39.426   8.793
 2443POPC   D2A34240   9.324  39.275   8.446
 2443POPC   C3A34241   9.052  39.118   8.160
 2443POPC   C4A34242   9.059  39.085   7.747
 2443POPC   C1B34243   8.562  39.408   8.770
 2443POPC   C2B34244   8.600  39.074   8.471
 2443POPC   C3B34245   8.547  39.107   8.034
 2443POPC   C4B34246   8.644  39.317   7.622
 2444POPC   NC334247  15.416  22.694   9.519
 2444POPC   PO434248  14.960  23.203   9.540
 2444POPC   GL134249  15.080  22.971   9.183
 2444POPC   GL234250  15.430  23.060   9.131
 2444POPC   C1A34251  15.137  22.854   8.740
 2444POPC   D2A34252  15.159  22.931   8.292
 2444POPC   C3A34253  15.042  22.784   7.880
 2444POPC   C4A34254  15.383  22.668   7.622
 2444POPC   C1B34255  15.427  23.293   8.736
 2444POPC   C2B34256  15.505  23.311   8.291
 2444POPC   C3B34257  15.446  23.131   7.902
 2444POPC   C4B34258  15.612  23.122   7.490
 2445POPC   NC334259  12.339  28.896   9.338
 2445POPC   PO434260  11.793  29.193   9.480
 2445POPC   GL134261  11.973  29.151   9.081
 2445POPC   GL234262  12.255  29.380   9.093
 2445POPC   C1A34263  12.110  28.898   8.704
 2445POPC   D2A34264  11.960  29.060   8.293
 2445POPC   C3A34265  11.898  28.878   7.892
 2445POPC   C4A34266  12.049  29.021   7.478
 2445POPC   C1B34267  12.122  29.425   8.667
 2445POPC   C2B34268  12.314  29.436   8.273
 2445POPC   C3B34269  12.171  29.333   7.865
 2445POPC   C4B34270  12.298  29.490   7.455
 2446POPC   NC334271  29.408  37.041   9.621
 2446POPC   PO434272  28.928  36.432   9.519
 2446POPC   GL134273  28.852  36.646   9.071
 2446POPC   GL234274  29.001  36.987   9.042
 2446POPC   C1A34275  28.918  36.817   8.596
 2446POPC   D2A34276  29.347  36.734   8.442
 2446POPC   C3A34277  29.389  36.695   8.021
 2446POPC   C4A34278  29.024  36.831   7.785
 2446POPC   C1B34279  29.345  37.108   8.787
 2446POPC   C2B34280  29.300  37.283   8.382
 2446POPC   C3B34281  29.354  37.202   7.939
 2446POPC   C4B34282  28.951  37.376   7.842
 2447POPC   NC334283  11.664  34.429   9.271
 2447POPC   PO434284  11.171  34.160   9.479
 2447POPC   GL134285  11.163  34.284   9.078
 2447POPC   GL234286  11.023  34.608   9.071
 2447POPC   C1A34287  11.037  34.285   8.646
 2447POPC   D2A34288  11.221  34.520   8.279
 2447POPC   C3A34289  11.428  34.312   7.947
 2447POPC   C4A34290  11.055  34.387   7.740
 2447POPC   C1B34291  11.365  34.665   8.752
 2447POPC   C2B34292  11.698  34.525   8.453
 2447POPC   C3B34293  11.703  34.729   8.053
 2447POPC   C4B34294  11.319  34.826   7.828
 2448POPC   NC334295  37.774  29.420   9.400
 2448POPC   PO434296  37.348  29.070   9.756
 2448POPC   GL134297  37.572  28.957   9.303
 2448POPC   GL234298  37.952  28.918   9.140
 2448POPC   C1A34299  37.555  29.036   8.832
 2448POPC   D2A34300  37.594  29.167   8.428
 2448POPC   C3A34301  37.647  28.911   8.086
 2448POPC   C4A34302  37.407  28.944   7.740
 2448POPC   C1B34303  38.063  29.108   8.693
 2448POPC   C2B34304  38.086  29.168   8.214
 2448POPC   C3B34305  37.948  29.180   7.749
 2448POPC   C4B34306  38.050  29.219   7.277
 2449POPC   NC334307  36.851  33.679   9.602
 2449POPC   PO434308  37.285  34.093   9.478
 2449POPC   GL134309  36.970  33.932   9.150
 2449POPC   GL234310  36.648  33.708   9.147
 2449POPC   C1A34311  36.823  34.046   8.746
 2449POPC   D2A34312  36.972  33.785   8.405
 2449POPC   C3A34313  36.997  33.885   7.994
 2449POPC   C4A34314  37.349  33.986   7.760
 2449POPC   C1B34315  36.802  33.505   8.804
 2449POPC   C2B34316  36.586  33.431   8.435
 2449POPC   C3B34317  36.539  33.567   8.027
 2449POPC   C4B34318  36.680  33.650   7.656
 2450POPC   NC334319  35.074   0.123   9.416
 2450POPC   PO434320  35.604   0.577   9.421
 2450POPC   GL134321  35.262   0.640   9.143
 2450POPC   GL234322  35.360   0.302   9.019
 2450POPC   C1A34323  35.116   0.644   8.712
 2450POPC   D2A34324  35.313   0.358   8.430
 2450POPC   C3A34325  35.073   0.376   8.074
 2450POPC   C4A34326  34.913   0.637   7.779
 2450POPC   C1B34327  35.721   0.318   8.755
 2450POPC   C2B34328  35.840   0.423   8.323
 2450POPC   C3B34329  35.556   0.406   7.964
 2450POPC   C4B34330  35.644   0.335   7.517
 2451POPC   NC334331  22.389  28.358   9.630
 2451POPC   PO434332  21.777  28.456   9.606
 2451POPC   GL134333  22.005  28.514   9.206
 2451POPC   GL234334  22.239  28.253   9.115
 2451POPC   C1A34335  22.233  28.656   8.799
 2451POPC   D2A34336  22.332  28.483   8.390
 2451POPC   C3A34337  22.187  28.526   7.987
 2451POPC   C4A34338  22.385  28.417   7.574
 2451POPC   C1B34339  22.046  28.172   8.679
 2451POPC   C2B34340  21.862  28.221   8.232
 2451POPC   C3B34341  22.036  28.073   7.810
 2451POPC   C4B34342  22.253  27.891   7.431
 2452POPC   NC334343  19.284  19.828   9.666
 2452POPC   PO434344  18.798  20.062   9.259
 2452POPC   GL134345  19.063  19.954   9.000
 2452POPC   GL234346  19.338  19.812   9.114
 2452POPC   C1A34347  19.026  19.884   8.598
 2452POPC   D2A34348  19.148  19.676   8.240
 2452POPC   C3A34349  18.887  19.729   7.849
 2452POPC   C4A34350  18.796  19.622   7.366
 2452POPC   C1B34351  19.520  19.882   8.692
 2452POPC   C2B34352  19.517  20.015   8.234
 2452POPC   C3B34353  19.421  19.841   7.821
 2452POPC   C4B34354  19.168  19.949   7.474
 2453POPC   NC334355   6.259  13.634   9.580
 2453POPC   PO434356   6.476  14.054   9.101
 2453POPC   GL134357   6.689  13.687   8.935
 2453POPC   GL234358   6.502  13.466   9.163
 2453POPC   C1A34359   6.738  13.594   8.525
 2453POPC   D2A34360   6.410  13.655   8.261
 2453POPC   C3A34361   6.585  13.918   7.956
 2453POPC   C4A34362   6.961  13.974   7.714
 2453POPC   C1B34363   6.407  13.266   8.782
 2453POPC   C2B34364   6.737  13.084   8.540
 2453POPC   C3B34365   6.759  13.217   8.136
 2453POPC   C4B34366   6.438  13.394   7.837
 2454POPC   NC334367  37.767  16.001   9.380
 2454POPC   PO434368  37.361  15.468   9.508
 2454POPC   GL134369  37.357  15.798   9.142
 2454POPC   GL234370  37.369  16.208   9.139
 2454POPC   C1A34371  37.642  15.816   8.757
 2454POPC   D2A34372  37.767  15.531   8.395
 2454POPC   C3A34373  37.672  15.666   7.965
 2454POPC   C4A34374  37.798  15.876   7.588
 2454POPC   C1B34375  37.624  16.320   8.742
 2454POPC   C2B34376  37.743  16.447   8.322
 2454POPC   C3B34377  37.730  16.211   7.972
 2454POPC   C4B34378  37.360  16.118   7.764
 2455POPC   NC334379  18.289   9.266   9.508
 2455POPC   PO434380  18.738   8.719   9.423
 2455POPC   GL134381  18.500   8.978   9.145
 2455POPC   GL234382  18.139   8.902   9.154
 2455POPC   C1A34383  18.326   9.178   8.786
 2455POPC   D2A34384  18.189   9.138   8.396
 2455POPC   C3A34385  18.372   8.928   8.076
 2455POPC   C4A34386  18.358   9.188   7.731
 2455POPC   C1B34387  18.088   8.729   8.708
 2455POPC   C2B34388  17.820   8.804   8.299
 2455POPC   C3B34389  17.903   9.001   7.889
 2455POPC   C4B34390  17.980   8.920   7.384
 2456POPC   NC334391  30.404  16.131   9.466
 2456POPC   PO434392  31.065  15.943   9.485
 2456POPC   GL134393  30.764  15.871   9.195
 2456POPC   GL234394  30.704  15.518   9.177
 2456POPC   C1A34395  30.551  15.868   8.812
 2456POPC   D2A34396  30.529  16.096   8.439
 2456POPC   C3A34397  30.529  15.973   8.035
 2456POPC   C4A34398  30.643  15.845   7.622
 2456POPC   C1B34399  30.979  15.571   8.819
 2456POPC   C2B34400  30.845  15.663   8.413
 2456POPC   C3B34401  30.863  15.585   7.996
 2456POPC   C4B34402  31.053  15.445   7.639
 2457POPC   NC334403   3.691  40.643   9.592
 2457POPC   PO434404   3.199  41.184   9.537
 2457POPC   GL134405   3.469  40.945   9.250
 2457POPC   GL234406   3.298  40.613   9.237
 2457POPC   C1A34407   3.770  40.962   8.889
 2457POPC   D2A34408   3.734  40.826   8.473
 2457POPC   C3A34409   3.514  41.102   8.199
 2457POPC   C4A34410   3.466  41.085   7.759
 2457POPC   C1B34411   3.456  40.497   8.828
 2457POPC   C2B34412   3.526  40.351   8.420
 2457POPC   C3B34413   3.523  40.565   8.026
 2457POPC   C4B34414   3.641  40.538   7.603
 2458POPC   NC334415  39.420   5.089   9.682
 2458POPC   PO434416  39.748   4.619   9.436
 2458POPC   GL134417  39.452   4.940   9.176
 2458POPC   GL234418  39.114   5.085   9.234
 2458POPC   C1A34419  39.360   4.932   8.731
 2458POPC   D2A34420  39.436   4.929   8.278
 2458POPC   C3A34421  39.152   4.762   7.970
 2458POPC   C4A34422  39.274   4.981   7.606
 2458POPC   C1B34423  38.963   5.253   8.844
 2458POPC   C2B34424  38.972   5.069   8.427
 2458POPC   C3B34425  39.107   5.253   8.055
 2458POPC   C4B34426  39.074   5.439   7.716
 2459POPC   NC334427  35.896   1.798   9.518
 2459POPC   PO434428  36.518   1.928   9.439
 2459POPC   GL134429  36.237   1.872   9.145
 2459POPC   GL234430  36.109   2.197   9.158
 2459POPC   C1A34431  36.267   1.759   8.729
 2459POPC   D2A34432  36.361   1.939   8.344
 2459POPC   C3A34433  36.209   1.675   8.047
 2459POPC   C4A34434  36.266   1.905   7.706
 2459POPC   C1B34435  35.827   2.012   8.828
 2459POPC   C2B34436  35.848   1.905   8.381
 2459POPC   C3B34437  35.964   2.147   8.018
 2459POPC   C4B34438  35.789   2.081   7.568
 2460POPC   NC334439   0.807  36.660   9.948
 2460POPC   PO434440   0.406  36.982   9.459
 2460POPC   GL134441   0.436  36.843   9.071
 2460POPC   GL234442   0.103  36.977   9.025
 2460POPC   C1A34443   0.680  36.827   8.695
 2460POPC   D2A34444   0.541  36.594   8.337
 2460POPC   C3A34445   0.549  36.794   7.970
 2460POPC   C4A34446   0.659  36.798   7.571
 2460POPC   C1B34447   0.144  36.784   8.612
 2460POPC   C2B34448   0.042  36.779   8.177
 2460POPC   C3B34449   0.081  36.771   7.726
 2460POPC   C4B34450   0.221  36.715   7.313
 2461POPC   NC334451  18.140  32.155   9.478
 2461POPC   PO434452  18.764  32.340   9.366
 2461POPC   GL134453  18.469  32.166   9.093
 2461POPC   GL234454  18.446  31.847   8.973
 2461POPC   C1A34455  18.222  32.328   8.777
 2461POPC   D2A34456  18.332  32.518   8.406
 2461POPC   C3A34457  18.085  32.696   8.106
 2461POPC   C4A34458  18.278  32.605   7.710
 2461POPC   C1B34459  18.042  31.859   8.800
 2461POPC   C2B34460  17.908  32.059   8.416
 2461POPC   C3B34461  18.091  32.185   8.005
 2461POPC   C4B34462  18.381  32.095   7.665
 2462POPC   NC334463  18.632  41.419   9.202
 2462POPC   PO434464  18.145  41.721   9.600
 2462POPC   GL134465  18.148  41.637   9.173
 2462POPC   GL234466  18.099  41.307   9.104
 2462POPC   C1A34467  17.964  41.659   8.756
 2462POPC   D2A34468  18.170  41.715   8.368
 2462POPC   C3A34469  18.062  41.516   7.993
 2462POPC   C4A34470  18.196  41.629   7.586
 2462POPC   C1B34471  18.253  41.265   8.683
 2462POPC   C2B34472  18.419  41.271   8.302
 2462POPC   C3B34473  18.648  41.189   7.960
 2462POPC   C4B34474  18.498  41.209   7.578
 2463POPC   NC334475   0.930   8.268   9.413
 2463POPC   PO434476   1.088   7.689   9.531
 2463POPC   GL134477   0.893   7.856   9.112
 2463POPC   GL234478   0.537   7.984   9.106
 2463POPC   C1A34479   0.828   8.099   8.709
 2463POPC   D2A34480   0.688   7.956   8.279
 2463POPC   C3A34481   0.649   8.248   7.933
 2463POPC   C4A34482   0.726   8.431   7.503
 2463POPC   C1B34483   0.321   8.067   8.669
 2463POPC   C2B34484   0.211   8.142   8.208
 2463POPC   C3B34485   0.030   8.037   7.801
 2463POPC   C4B34486  44.762   8.200   7.445
 2464POPC   NC334487  18.873  42.635   9.507
 2464POPC   PO434488  18.154  42.843   9.437
 2464POPC   GL134489  18.054  43.061   9.088
 2464POPC   GL234490  18.333  43.262   9.091
 2464POPC   C1A34491  18.199  42.935   8.708
 2464POPC   D2A34492  18.347  43.118   8.365
 2464POPC   C3A34493  18.206  42.874   8.021
 2464POPC   C4A34494  18.137  42.865   7.559
 2464POPC   C1B34495  18.615  43.510   8.868
 2464POPC   C2B34496  18.730  43.488   8.442
 2464POPC   C3B34497  18.574  43.416   8.038
 2464POPC   C4B34498  18.563  43.092   7.737
 2465POPC   NC334499  16.256  31.648   9.614
 2465POPC   PO434500  15.604  31.716   9.420
 2465POPC   GL134501  15.780  31.320   9.238
 2465POPC   GL234502  16.161  31.278   9.212
 2465POPC   C1A34503  15.821  31.324   8.802
 2465POPC   D2A34504  15.622  31.550   8.465
 2465POPC   C3A34505  15.691  31.443   8.046
 2465POPC   C4A34506  15.913  31.698   7.774
 2465POPC   C1B34507  16.319  31.209   8.770
 2465POPC   C2B34508  16.111  31.277   8.366
 2465POPC   C3B34509  16.176  31.272   7.940
 2465POPC   C4B34510  16.407  31.004   7.698
 2466POPC   NC334511  28.215  21.683   9.504
 2466POPC   PO434512  28.389  22.327   9.448
 2466POPC   GL134513  28.363  22.111   9.120
 2466POPC   GL234514  28.079  21.937   9.072
 2466POPC   C1A34515  28.538  21.825   8.822
 2466POPC   D2A34516  28.536  21.742   8.428
 2466POPC   C3A34517  28.409  22.101   8.185
 2466POPC   C4A34518  28.120  22.028   7.868
 2466POPC   C1B34519  28.182  22.145   8.655
 2466POPC   C2B34520  27.929  22.293   8.321
 2466POPC   C3B34521  28.026  22.520   7.966
 2466POPC   C4B34522  28.422  22.444   7.763
 2467POPC   NC334523   3.874  36.907   9.831
 2467POPC   PO434524   3.255  37.062   9.526
 2467POPC   GL134525   3.279  37.057   9.058
 2467POPC   GL234526   3.450  36.738   9.110
 2467POPC   C1A34527   3.293  37.000   8.608
 2467POPC   D2A34528   3.394  37.285   8.252
 2467POPC   C3A34529   3.580  37.072   7.929
 2467POPC   C4A34530   3.496  37.002   7.533
 2467POPC   C1B34531   3.753  36.800   8.773
 2467POPC   C2B34532   3.741  36.811   8.342
 2467POPC   C3B34533   4.033  36.883   8.002
 2467POPC   C4B34534   3.946  36.774   7.564
 2468POPC   NC334535  26.256  28.600   9.582
 2468POPC   PO434536  25.925  28.081   9.342
 2468POPC   GL134537  26.244  28.232   9.059
 2468POPC   GL234538  26.266  28.585   9.059
 2468POPC   C1A34539  26.250  28.236   8.621
 2468POPC   D2A34540  25.971  28.151   8.255
 2468POPC   C3A34541  26.094  28.226   7.881
 2468POPC   C4A34542  26.271  28.612   7.844
 2468POPC   C1B34543  25.924  28.588   8.732
 2468POPC   C2B34544  25.989  28.654   8.292
 2468POPC   C3B34545  25.742  28.585   7.918
 2468POPC   C4B34546  25.820  28.647   7.467
 2469POPC   NC334547  12.666  42.919   9.366
 2469POPC   PO434548  13.133  43.478   9.386
 2469POPC   GL134549  12.978  43.200   9.084
 2469POPC   GL234550  13.089  42.831   9.080
 2469POPC   C1A34551  12.796  43.244   8.703
 2469POPC   D2A34552  12.636  43.460   8.371
 2469POPC   C3A34553  12.854  43.354   8.021
 2469POPC   C4A34554  12.671  43.367   7.650
 2469POPC   C1B34555  12.939  42.754   8.647
 2469POPC   C2B34556  12.578  42.906   8.357
 2469POPC   C3B34557  12.554  42.901   7.902
 2469POPC   C4B34558  12.948  42.907   7.675
 2470POPC   NC334559  26.312  21.957   9.504
 2470POPC   PO434560  25.673  22.148   9.459
 2470POPC   GL134561  25.932  22.012   9.125
 2470POPC   GL234562  26.235  22.217   9.079
 2470POPC   C1A34563  25.843  22.055   8.687
 2470POPC   D2A34564  25.694  21.940   8.267
 2470POPC   C3A34565  25.622  22.226   7.915
 2470POPC   C4A34566  25.825  22.192   7.522
 2470POPC   C1B34567  26.315  21.877   8.799
 2470POPC   C2B34568  26.265  22.081   8.381
 2470POPC   C3B34569  26.110  22.015   7.973
 2470POPC   C4B34570  26.341  22.202   7.630
 2471POPC   NC334571   3.371   0.626   9.511
 2471POPC   PO434572   3.533  44.928   9.541
 2471POPC   GL134573   3.451   0.253   9.184
 2471POPC   GL234574   3.756   0.364   9.249
 2471POPC   C1A34575   3.250   0.533   8.842
 2471POPC   D2A34576   3.447   0.580   8.414
 2471POPC   C3A34577   3.405   0.504   7.978
 2471POPC   C4A34578   3.700   0.836   7.887
 2471POPC   C1B34579   3.780   0.537   8.853
 2471POPC   C2B34580   3.932   0.401   8.473
 2471POPC   C3B34581   3.843   0.243   8.090
 2471POPC   C4B34582   3.894   0.417   7.686
 2472POPC   NC334583  27.894  22.297   9.407
 2472POPC   PO434584  27.349  21.810   9.378
 2472POPC   GL134585  27.568  22.101   9.069
 2472POPC   GL234586  27.782  22.359   8.927
 2472POPC   C1A34587  27.730  21.936   8.679
 2472POPC   D2A34588  27.567  21.929   8.266
 2472POPC   C3A34589  27.636  22.106   7.822
 2472POPC   C4A34590  27.828  22.028   7.422
 2472POPC   C1B34591  27.480  22.352   8.577
 2472POPC   C2B34592  27.384  22.394   8.145
 2472POPC   C3B34593  27.545  22.601   7.779
 2472POPC   C4B34594  27.480  22.414   7.397
 2473POPC   NC334595   0.176  37.472   9.419
 2473POPC   PO434596   0.737  37.827   9.596
 2473POPC   GL134597   0.591  37.691   9.185
 2473POPC   GL234598   0.680  37.374   9.260
 2473POPC   C1A34599   0.254  37.747   8.818
 2473POPC   D2A34600   0.428  37.681   8.388
 2473POPC   C3A34601   0.226  37.649   7.972
 2473POPC   C4A34602   0.630  37.702   7.774
 2473POPC   C1B34603   0.536  37.308   8.845
 2473POPC   C2B34604   0.190  37.284   8.595
 2473POPC   C3B34605   0.300  37.200   8.183
 2473POPC   C4B34606   0.396  37.226   7.728
 2474POPC   NC334607   5.617  13.370   9.465
 2474POPC   PO434608   5.846  14.011   9.673
 2474POPC   GL134609   5.915  13.782   9.236
 2474POPC   GL234610   5.957  13.417   9.076
 2474POPC   C1A34611   5.821  13.806   8.811
 2474POPC   D2A34612   5.987  13.530   8.529
 2474POPC   C3A34613   5.896  13.642   8.115
 2474POPC   C4A34614   6.119  13.809   7.810
 2474POPC   C1B34615   5.565  13.363   8.787
 2474POPC   C2B34616   5.467  13.525   8.359
 2474POPC   C3B34617   5.495  13.328   7.941
 2474POPC   C4B34618   5.605  13.254   7.464
 2475POPC   NC334619   2.234  13.089   9.525
 2475POPC   PO434620   2.113  13.878   9.577
 2475POPC   GL134621   1.942  13.687   9.207
 2475POPC   GL234622   1.789  13.964   9.089
 2475POPC   C1A34623   2.067  13.595   8.777
 2475POPC   D2A34624   2.020  13.524   8.368
 2475POPC   C3A34625   2.208  13.674   8.021
 2475POPC   C4A34626   2.087  13.566   7.611
 2475POPC   C1B34627   1.797  13.986   8.615
 2475POPC   C2B34628   1.837  13.991   8.174
 2475POPC   C3B34629   1.984  14.063   7.747
 2475POPC   C4B34630   1.853  13.906   7.327
 2476POPC   NC334631  27.694   7.908   9.338
 2476POPC   PO434632  27.697   7.151   9.405
 2476POPC   GL134633  27.843   7.456   9.139
 2476POPC   GL234634  27.483   7.553   9.041
 2476POPC   C1A34635  27.922   7.614   8.734
 2476POPC   D2A34636  27.690   7.610   8.340
 2476POPC   C3A34637  27.893   7.450   7.954
 2476POPC   C4A34638  27.929   7.660   7.526
 2476POPC   C1B34639  27.245   7.593   8.653
 2476POPC   C2B34640  27.050   7.522   8.256
 2476POPC   C3B34641  27.336   7.465   7.946
 2476POPC   C4B34642  27.562   7.317   7.589
 2477POPC   NC334643  40.286   1.369   9.537
 2477POPC   PO434644  39.788   0.871   9.450
 2477POPC   GL134645  40.097   1.058   9.146
 2477POPC   GL234646  40.382   1.303   9.059
 2477POPC   C1A34647  40.002   1.214   8.734
 2477POPC   D2A34648  39.784   0.982   8.438
 2477POPC   C3A34649  39.689   0.946   7.979
 2477POPC   C4A34650  39.936   0.893   7.608
 2477POPC   C1B34651  40.516   1.226   8.679
 2477POPC   C2B34652  40.310   1.164   8.326
 2477POPC   C3B34653  40.133   1.235   7.949
 2477POPC   C4B34654  39.857   1.428   7.691
 2478POPC   NC334655  31.769  34.455   9.417
 2478POPC   PO434656  31.138  34.683   9.441
 2478POPC   GL134657  31.435  34.720   9.093
 2478POPC   GL234658  31.384  34.392   9.090
 2478POPC   C1A34659  31.738  34.518   8.769
 2478POPC   D2A34660  31.608  34.339   8.414
 2478POPC   C3A34661  31.633  34.614   8.128
 2478POPC   C4A34662  31.734  34.405   7.781
 2478POPC   C1B34663  31.203  34.370   8.714
 2478POPC   C2B34664  31.088  34.473   8.305
 2478POPC   C3B34665  31.221  34.383   7.906
 2478POPC   C4B34666  31.349  34.723   7.713
 2479POPC   NC334667  32.024  43.953   9.439
 2479POPC   PO434668  32.095  44.693   9.551
 2479POPC   GL134669  32.092  44.417   9.205
 2479POPC   GL234670  32.408  44.482   9.004
 2479POPC   C1A34671  31.928  44.466   8.805
 2479POPC   D2A34672  32.172  44.702   8.534
 2479POPC   C3A34673  32.258  44.529   8.145
 2479POPC   C4A34674  32.286  44.619   7.684
 2479POPC   C1B34675  32.570  44.903   8.827
 2479POPC   C2B34676  32.513   0.088   8.411
 2479POPC   C3B34677  32.395   0.013   7.996
 2479POPC   C4B34678  32.687  44.975   7.647
 2480POPC   NC334679  37.219  32.099   9.480
 2480POPC   PO434680  36.759  32.574   9.574
 2480POPC   GL134681  36.709  32.252   9.223
 2480POPC   GL234682  37.021  32.303   9.071
 2480POPC   C1A34683  36.696  32.073   8.769
 2480POPC   D2A34684  36.873  32.279   8.385
 2480POPC   C3A34685  36.788  32.092   7.985
 2480POPC   C4A34686  36.945  32.089   7.585
 2480POPC   C1B34687  37.191  32.541   8.751
 2480POPC   C2B34688  37.362  32.466   8.372
 2480POPC   C3B34689  37.235  32.356   7.982
 2480POPC   C4B34690  37.127  32.582   7.668
 2481POPC   NC334691  35.660  33.505   9.464
 2481POPC   PO434692  35.137  33.157   9.580
 2481POPC   GL134693  35.248  33.102   9.167
 2481POPC   GL234694  35.583  33.126   9.127
 2481POPC   C1A34695  35.333  32.897   8.768
 2481POPC   D2A34696  35.086  32.997   8.418
 2481POPC   C3A34697  35.263  33.132   8.047
 2481POPC   C4A34698  35.248  33.322   7.630
 2481POPC   C1B34699  35.637  33.311   8.744
 2481POPC   C2B34700  35.562  33.439   8.346
 2481POPC   C3B34701  35.669  33.392   7.923
 2481POPC   C4B34702  35.751  33.334   7.490
 2482POPC   NC334703   9.937  36.408   9.656
 2482POPC   PO434704   9.474  35.915   9.469
 2482POPC   GL134705   9.541  35.995   9.106
 2482POPC   GL234706   9.580  36.341   9.184
 2482POPC   C1A34707   9.444  35.799   8.716
 2482POPC   D2A34708   9.671  35.717   8.350
 2482POPC   C3A34709   9.678  35.966   7.968
 2482POPC   C4A34710   9.847  35.753   7.600
 2482POPC   C1B34711   9.420  36.354   8.770
 2482POPC   C2B34712   9.485  36.189   8.396
 2482POPC   C3B34713   9.391  36.449   8.101
 2482POPC   C4B34714   9.475  36.470   7.705
 2483POPC   NC334715  42.562  25.498   9.476
 2483POPC   PO434716  41.904  25.125   9.573
 2483POPC   GL134717  42.242  25.134   9.308
 2483POPC   GL234718  42.129  25.445   9.202
 2483POPC   C1A34719  42.338  25.081   8.867
 2483POPC   D2A34720  42.513  25.259   8.468
 2483POPC   C3A34721  42.346  25.056   8.092
 2483POPC   C4A34722  42.309  24.811   7.706
 2483POPC   C1B34723  42.345  25.601   8.838
 2483POPC   C2B34724  42.248  25.748   8.447
 2483POPC   C3B34725  42.380  25.572   8.071
 2483POPC   C4B34726  42.553  25.447   7.679
 2484POPC   NC334727  29.117   6.977   9.538
 2484POPC   PO434728  28.772   7.540   9.451
 2484POPC   GL134729  29.002   7.399   9.120
 2484POPC   GL234730  29.302   7.251   9.148
 2484POPC   C1A34731  29.140   7.537   8.735
 2484POPC   D2A34732  28.949   7.485   8.345
 2484POPC   C3A34733  29.263   7.632   8.061
 2484POPC   C4A34734  29.285   7.473   7.686
 2484POPC   C1B34735  29.403   7.083   8.760
 2484POPC   C2B34736  29.421   7.253   8.372
 2484POPC   C3B34737  29.580   7.126   7.985
 2484POPC   C4B34738  29.535   7.054   7.550
 2485POPC   NC334739   2.455  39.777   9.537
 2485POPC   PO434740   1.839  40.181   9.388
 2485POPC   GL134741   1.940  39.900   9.078
 2485POPC   GL234742   2.151  40.076   8.875
 2485POPC   C1A34743   1.702  39.912   8.691
 2485POPC   D2A34744   1.908  40.131   8.362
 2485POPC   C3A34745   1.948  39.959   7.963
 2485POPC   C4A34746   2.309  39.858   7.754
 2485POPC   C1B34747   2.404  40.331   8.611
 2485POPC   C2B34748   2.261  40.489   8.240
 2485POPC   C3B34749   2.243  40.368   7.816
 2485POPC   C4B34750   2.179  40.571   7.438
 2486POPC   NC334751  10.266  14.042   9.557
 2486POPC   PO434752  10.618  13.457   9.520
 2486POPC   GL134753  10.640  13.634   9.127
 2486POPC   GL234754  10.294  13.729   9.133
 2486POPC   C1A34755  10.642  13.421   8.707
 2486POPC   D2A34756  10.413  13.286   8.325
 2486POPC   C3A34757  10.661  13.288   7.941
 2486POPC   C4A34758  10.821  13.247   7.541
 2486POPC   C1B34759  10.350  13.845   8.707
 2486POPC   C2B34760  10.538  13.781   8.296
 2486POPC   C3B34761  10.296  13.638   7.944
 2486POPC   C4B34762  10.300  13.784   7.554
 2487POPC   NC334763  43.471  38.566   9.515
 2487POPC   PO434764  43.129  37.992   9.727
 2487POPC   GL134765  43.118  38.273   9.289
 2487POPC   GL234766  43.414  38.369   9.058
 2487POPC   C1A34767  42.944  38.448   8.903
 2487POPC   D2A34768  42.947  38.743   8.540
 2487POPC   C3A34769  43.129  38.622   8.141
 2487POPC   C4A34770  42.939  38.465   7.743
 2487POPC   C1B34771  43.376  38.405   8.616
 2487POPC   C2B34772  43.170  38.149   8.316
 2487POPC   C3B34773  43.276  38.126   7.905
 2487POPC   C4B34774  43.241  38.197   7.425
 2488POPC   NC334775  29.900  16.828   9.504
 2488POPC   PO434776  29.319  16.708   9.447
 2488POPC   GL134777  29.606  16.850   9.068
 2488POPC   GL234778  30.019  16.751   9.025
 2488POPC   C1A34779  29.734  16.873   8.622
 2488POPC   D2A34780  29.968  16.971   8.250
 2488POPC   C3A34781  29.691  16.881   7.917
 2488POPC   C4A34782  29.695  16.779   7.483
 2488POPC   C1B34783  30.334  16.579   8.694
 2488POPC   C2B34784  30.291  16.498   8.242
 2488POPC   C3B34785  29.998  16.448   7.908
 2488POPC   C4B34786  30.185  16.820   7.787
 2489POPC   NC334787  34.095  43.796   9.383
 2489POPC   PO434788  33.422  43.836   9.475
 2489POPC   GL134789  33.636  43.772   9.105
 2489POPC   GL234790  33.791  44.103   9.097
 2489POPC   C1A34791  33.874  43.684   8.711
 2489POPC   D2A34792  34.178  43.854   8.361
 2489POPC   C3A34793  34.054  43.840   7.919
 2489POPC   C4A34794  34.079  43.696   7.487
 2489POPC   C1B34795  34.097  44.156   8.773
 2489POPC   C2B34796  34.080  44.395   8.385
 2489POPC   C3B34797  34.103  44.377   7.964
 2489POPC   C4B34798  34.099  44.214   7.550
 2490POPC   NC334799   7.021  28.362   9.431
 2490POPC   PO434800   7.565  27.906   9.478
 2490POPC   GL134801   7.540  28.191   9.130
 2490POPC   GL234802   7.248  28.430   8.987
 2490POPC   C1A34803   7.638  28.277   8.713
 2490POPC   D2A34804   7.393  28.511   8.437
 2490POPC   C3A34805   7.552  28.476   8.052
 2490POPC   C4A34806   7.575  28.212   7.715
 2490POPC   C1B34807   7.100  28.810   8.746
 2490POPC   C2B34808   7.147  28.967   8.352
 2490POPC   C3B34809   7.090  28.695   8.037
 2490POPC   C4B34810   6.880  28.631   7.688
 2491POPC   NC334811   9.708  31.890   9.521
 2491POPC   PO434812   9.684  31.177   9.463
 2491POPC   GL134813   9.443  31.428   9.147
 2491POPC   GL234814   9.497  31.814   9.063
 2491POPC   C1A34815   9.501  31.213   8.763
 2491POPC   D2A34816   9.896  31.177   8.553
 2491POPC   C3A34817   9.802  31.220   8.129
 2491POPC   C4A34818   9.664  31.486   7.829
 2491POPC   C1B34819   9.770  31.652   8.733
 2491POPC   C2B34820   9.857  31.747   8.299
 2491POPC   C3B34821   9.603  31.956   8.006
 2491POPC   C4B34822   9.447  31.881   7.590
 2492POPC   NC334823  37.965   6.982   9.758
 2492POPC   PO434824  37.653   6.443   9.561
 2492POPC   GL134825  37.689   6.497   9.130
 2492POPC   GL234826  37.806   6.823   9.144
 2492POPC   C1A34827  37.917   6.483   8.709
 2492POPC   D2A34828  37.930   6.709   8.306
 2492POPC   C3A34829  37.754   6.565   7.879
 2492POPC   C4A34830  37.361   6.476   7.636
 2492POPC   C1B34831  37.651   6.939   8.716
 2492POPC   C2B34832  37.794   7.188   8.337
 2492POPC   C3B34833  37.747   7.067   7.920
 2492POPC   C4B34834  37.313   7.008   7.756
 2493POPC   NC334835   9.008  38.390   9.564
 2493POPC   PO434836   9.254  37.861   9.277
 2493POPC   GL134837   9.045  38.175   9.077
 2493POPC   GL234838   9.074  38.527   9.087
 2493POPC   C1A34839   9.149  38.265   8.658
 2493POPC   D2A34840   8.912  38.189   8.286
 2493POPC   C3A34841   9.173  38.140   7.943
 2493POPC   C4A34842   9.138  38.328   7.559
 2493POPC   C1B34843   8.854  38.723   8.778
 2493POPC   C2B34844   9.023  38.689   8.403
 2493POPC   C3B34845   8.977  38.626   7.985
 2493POPC   C4B34846   8.670  38.737   7.711
 2494POPC   NC334847  12.257  32.096   9.913
 2494POPC   PO434848  11.856  31.879   9.376
 2494POPC   GL134849  11.806  32.206   9.117
 2494POPC   GL234850  11.832  32.476   9.339
 2494POPC   C1A34851  11.946  32.273   8.703
 2494POPC   D2A34852  12.007  32.313   8.274
 2494POPC   C3A34853  12.116  31.980   8.045
 2494POPC   C4A34854  12.387  32.010   7.738
 2494POPC   C1B34855  11.805  32.691   8.936
 2494POPC   C2B34856  11.882  32.776   8.476
 2494POPC   C3B34857  11.843  32.714   8.024
 2494POPC   C4B34858  12.014  32.464   7.731
 2495POPC   NC334859  38.768  18.899   9.588
 2495POPC   PO434860  38.077  19.167   9.540
 2495POPC   GL134861  38.363  19.063   9.165
 2495POPC   GL234862  38.724  19.101   9.136
 2495POPC   C1A34863  38.364  19.240   8.733
 2495POPC   D2A34864  38.306  19.520   8.337
 2495POPC   C3A34865  38.358  19.296   7.927
 2495POPC   C4A34866  38.548  18.873   7.967
 2495POPC   C1B34867  38.726  18.793   8.814
 2495POPC   C2B34868  38.744  18.606   8.392
 2495POPC   C3B34869  38.994  18.616   8.002
 2495POPC   C4B34870  38.940  18.917   7.633
 2496POPC   NC334871  23.456  30.506   9.575
 2496POPC   PO434872  23.955  30.852   9.533
 2496POPC   GL134873  23.859  30.719   9.151
 2496POPC   GL234874  23.504  30.698   9.085
 2496POPC   C1A34875  23.841  30.918   8.754
 2496POPC   D2A34876  23.865  30.714   8.384
 2496POPC   C3A34877  24.098  30.847   8.058
 2496POPC   C4A34878  23.972  30.592   7.757
 2496POPC   C1B34879  23.394  30.575   8.672
 2496POPC   C2B34880  23.399  30.577   8.232
 2496POPC   C3B34881  23.470  30.547   7.840
 2496POPC   C4B34882  23.611  30.261   7.634
 2497POPC   NC334883   8.770   1.154   9.548
 2497POPC   PO434884   9.333   1.535   9.697
 2497POPC   GL134885   9.146   1.265   9.257
 2497POPC   GL234886   8.827   1.297   9.064
 2497POPC   C1A34887   9.202   1.369   8.708
 2497POPC   D2A34888   8.952   1.339   8.343
 2497POPC   C3A34889   8.996   1.160   7.931
 2497POPC   C4A34890   8.776   1.317   7.584
 2497POPC   C1B34891   9.122   0.926   8.907
 2497POPC   C2B34892   9.166   0.838   8.499
 2497POPC   C3B34893   9.280   0.753   8.098
 2497POPC   C4B34894   9.370   0.841   7.685
 2498POPC   NC334895  24.900   2.432   9.835
 2498POPC   PO434896  24.604   2.876   9.524
 2498POPC   GL134897  24.639   2.712   9.109
 2498POPC   GL234898  24.295   2.618   9.115
 2498POPC   C1A34899  24.595   2.740   8.639
 2498POPC   D2A34900  24.705   2.912   8.211
 2498POPC   C3A34901  24.767   2.640   7.837
 2498POPC   C4A34902  24.907   2.841   7.440
 2498POPC   C1B34903  24.258   3.037   8.923
 2498POPC   C2B34904  24.232   3.104   8.489
 2498POPC   C3B34905  24.207   2.860   8.123
 2498POPC   C4B34906  24.438   2.978   7.731
 2499POPC   NC334907  30.909  27.277   9.472
 2499POPC   PO434908  30.474  26.853   9.425
 2499POPC   GL134909  30.544  26.698   9.077
 2499POPC   GL234910  30.852  26.515   9.064
 2499POPC   C1A34911  30.592  26.852   8.707
 2499POPC   D2A34912  30.819  26.762   8.338
 2499POPC   C3A34913  30.535  26.901   8.030
 2499POPC   C4A34914  30.387  27.063   7.672
 2499POPC   C1B34915  31.073  26.873   8.819
 2499POPC   C2B34916  31.143  27.162   8.450
 2499POPC   C3B34917  30.962  27.221   8.021
 2499POPC   C4B34918  30.881  27.069   7.587
 2500POPC   NC334919   9.974  39.616   9.412
 2500POPC   PO434920  10.252  40.225   9.569
 2500POPC   GL134921  10.388  40.094   9.170
 2500POPC   GL234922  10.718  39.944   9.227
 2500POPC   C1A34923  10.294  40.086   8.741
 2500POPC   D2A34924  10.352  40.001   8.324
 2500POPC   C3A34925  10.342  40.249   7.978
 2500POPC   C4A34926  10.373  39.938   7.642
 2500POPC   C1B34927  10.822  40.151   8.836
 2500POPC   C2B34928  10.884  40.035   8.403
 2500POPC   C3B34929  10.762  39.928   7.974
 2500POPC   C4B34930  10.855  39.893   7.520
 2501POPC   NC334931  35.850  12.210   9.328
 2501POPC   PO434932  36.407  11.849   9.460
 2501POPC   GL134933  36.177  11.879   9.069
 2501POPC   GL234934  35.851  11.731   9.164
 2501POPC   C1A34935  36.033  12.128   8.676
 2501POPC   D2A34936  35.970  12.383   8.289
 2501POPC   C3A34937  36.206  12.268   7.945
 2501POPC   C4A34938  36.380  11.878   7.782
 2501POPC   C1B34939  35.691  11.770   8.756
 2501POPC   C2B34940  35.882  11.726   8.370
 2501POPC   C3B34941  35.749  11.773   7.962
 2501POPC   C4B34942  35.891  11.979   7.651
 2502POPC   NC334943  25.644  19.403   9.409
 2502POPC   PO434944  25.571  18.684   9.411
 2502POPC   GL134945  25.406  18.996   9.149
 2502POPC   GL234946  25.068  19.096   9.240
 2502POPC   C1A34947  25.308  19.192   8.764
 2502POPC   D2A34948  25.072  19.268   8.385
 2502POPC   C3A34949  25.292  19.149   8.000
 2502POPC   C4A34950  25.427  19.266   7.604
 2502POPC   C1B34951  25.004  18.789   8.872
 2502POPC   C2B34952  24.866  18.740   8.433
 2502POPC   C3B34953  24.979  18.738   7.952
 2502POPC   C4B34954  24.874  18.794   7.471
 2503POPC   NC334955  18.945   4.312   9.427
 2503POPC   PO434956  19.582   4.031   9.469
 2503POPC   GL134957  19.261   4.092   9.080
 2503POPC   GL234958  19.159   4.486   9.010
 2503POPC   C1A34959  19.231   4.185   8.610
 2503POPC   D2A34960  19.054   4.554   8.361
 2503POPC   C3A34961  19.195   4.531   7.933
 2503POPC   C4A34962  19.404   4.183   7.705
 2503POPC   C1B34963  18.775   4.353   8.788
 2503POPC   C2B34964  18.760   4.138   8.406
 2503POPC   C3B34965  19.038   4.053   8.100
 2503POPC   C4B34966  18.852   4.202   7.752
 2504POPC   NC334967  13.677  29.436   9.603
 2504POPC   PO434968  13.399  28.843   9.578
 2504POPC   GL134969  13.629  29.015   9.224
 2504POPC   GL234970  13.999  29.037   9.247
 2504POPC   C1A34971  13.524  29.196   8.824
 2504POPC   D2A34972  13.434  29.036   8.417
 2504POPC   C3A34973  13.621  29.207   8.101
 2504POPC   C4A34974  13.591  29.294   7.701
 2504POPC   C1B34975  13.976  28.936   8.790
 2504POPC   C2B34976  14.057  29.074   8.352
 2504POPC   C3B34977  13.992  28.881   7.920
 2504POPC   C4B34978  13.973  29.023   7.477
 2505POPC   NC334979  22.572  29.281   9.430
 2505POPC   PO434980  21.944  29.375   9.639
 2505POPC   GL134981  22.089  29.343   9.238
 2505POPC   GL234982  22.066  29.013   9.248
 2505POPC   C1A34983  22.252  29.230   8.823
 2505POPC   D2A34984  22.042  29.233   8.448
 2505POPC   C3A34985  22.282  29.260   8.103
 2505POPC   C4A34986  22.174  29.361   7.731
 2505POPC   C1B34987  21.833  28.931   8.868
 2505POPC   C2B34988  21.835  28.755   8.423
 2505POPC   C3B34989  21.898  28.962   8.009
 2505POPC   C4B34990  22.118  28.852   7.608
 2506POPC   NC334991  35.708  17.864   9.628
 2506POPC   PO434992  35.112  17.472   9.675
 2506POPC   GL134993  35.413  17.548   9.323
 2506POPC   GL234994  35.330  17.891   9.252
 2506POPC   C1A34995  35.601  17.611   8.904
 2506POPC   D2A34996  35.615  17.442   8.504
 2506POPC   C3A34997  35.572  17.570   8.070
 2506POPC   C4A34998  35.184  17.565   7.816
 2506POPC   C1B34999  35.211  17.931   8.807
 2506POPC   C2B35000  35.443  17.930   8.412
 2506POPC   C3B35001  35.465  18.053   7.963
 2506POPC   C4B35002  35.416  17.932   7.536
 2507POPC   NC335003  25.076   8.887   9.446
 2507POPC   PO435004  25.689   9.164   9.489
 2507POPC   GL135005  25.391   9.132   9.090
 2507POPC   GL235006  24.968   9.170   9.051
 2507POPC   C1A35007  25.605   9.135   8.664
 2507POPC   D2A35008  25.674   9.124   8.201
 2507POPC   C3A35009  25.655   8.696   8.102
 2507POPC   C4A35010  25.574   8.574   7.705
 2507POPC   C1B35011  25.102   9.211   8.653
 2507POPC   C2B35012  25.245   8.890   8.375
 2507POPC   C3B35013  25.215   8.930   7.979
 2507POPC   C4B35014  24.954   9.219   7.826
 2508POPC   NC335015  44.142  25.527   9.464
 2508POPC   PO435016  43.626  25.043   9.509
 2508POPC   GL135017  43.788  25.270   9.163
 2508POPC   GL235018  44.106  25.105   9.076
 2508POPC   C1A35019  43.852  25.438   8.769
 2508POPC   D2A35020  44.151  25.399   8.450
 2508POPC   C3A35021  44.009  25.558   8.054
 2508POPC   C4A35022  44.086  25.430   7.618
 2508POPC   C1B35023  43.949  24.955   8.686
 2508POPC   C2B35024  43.758  25.110   8.291
 2508POPC   C3B35025  43.842  25.042   7.859
 2508POPC   C4B35026  43.662  24.844   7.488
 2509POPC   NC335027  11.054  33.145   9.548
 2509POPC   PO435028  11.765  33.356   9.483
 2509POPC   GL135029  11.540  33.039   9.156
 2509POPC   GL235030  11.187  32.967   9.109
 2509POPC   C1A35031  11.427  32.913   8.675
 2509POPC   D2A35032  11.492  33.021   8.229
 2509POPC   C3A35033  11.326  32.789   7.881
 2509POPC   C4A35034  11.530  32.899   7.512
 2509POPC   C1B35035  10.951  33.090   8.723
 2509POPC   C2B35036  11.034  33.137   8.353
 2509POPC   C3B35037  11.083  33.233   7.933
 2509POPC   C4B35038  11.063  33.182   7.485
 2510POPC   NC335039  28.818  43.458   9.335
 2510POPC   PO435040  29.455  43.262   9.471
 2510POPC   GL135041  29.449  43.081   9.075
 2510POPC   GL235042  29.099  43.127   9.039
 2510POPC   C1A35043  29.400  42.937   8.641
 2510POPC   D2A35044  29.645  42.887   8.255
 2510POPC   C3A35045  29.304  42.890   7.924
 2510POPC   C4A35046  29.247  43.094   7.503
 2510POPC   C1B35047  28.985  43.341   8.659
 2510POPC   C2B35048  28.892  43.138   8.261
 2510POPC   C3B35049  28.839  43.107   7.816
 2510POPC   C4B35050  28.749  43.085   7.364
 2511POPC   NC335051   6.921  16.223   9.329
 2511POPC   PO435052   6.461  15.766   9.501
 2511POPC   GL135053   6.511  15.995   9.120
 2511POPC   GL235054   6.803  15.818   9.057
 2511POPC   C1A35055   6.672  16.153   8.705
 2511POPC   D2A35056   6.430  16.080   8.339
 2511POPC   C3A35057   6.610  16.093   7.963
 2511POPC   C4A35058   6.378  15.777   7.752
 2511POPC   C1B35059   6.911  15.654   8.705
 2511POPC   C2B35060   6.870  15.814   8.320
 2511POPC   C3B35061   6.800  15.613   7.956
 2511POPC   C4B35062   6.924  15.812   7.578
 2512POPC   NC335063  17.026  41.030   9.389
 2512POPC   PO435064  17.709  40.811   9.575
 2512POPC   GL135065  17.404  40.683   9.255
 2512POPC   GL235066  17.711  40.677   9.090
 2512POPC   C1A35067  17.309  40.783   8.801
 2512POPC   D2A35068  17.551  40.817   8.400
 2512POPC   C3A35069  17.336  40.714   8.014
 2512POPC   C4A35070  17.209  40.851   7.600
 2512POPC   C1B35071  17.731  40.480   8.753
 2512POPC   C2B35072  17.827  40.366   8.371
 2512POPC   C3B35073  17.849  40.581   8.009
 2512POPC   C4B35074  17.691  40.665   7.637
 2513POPC   NC335075  33.744  29.997   9.664
 2513POPC   PO435076  34.087  29.447   9.497
 2513POPC   GL135077  33.774  29.654   9.218
 2513POPC   GL235078  33.586  29.412   9.013
 2513POPC   C1A35079  33.652  29.893   8.837
 2513POPC   D2A35080  33.860  29.998   8.416
 2513POPC   C3A35081  33.715  30.033   7.968
 2513POPC   C4A35082  34.018  30.137   7.605
 2513POPC   C1B35083  33.964  29.508   8.733
 2513POPC   C2B35084  34.109  29.555   8.300
 2513POPC   C3B35085  34.059  29.679   7.875
 2513POPC   C4B35086  33.740  29.694   7.540
 2514POPC   NC335087  29.587  28.825   9.348
 2514POPC   PO435088  29.663  28.173   9.529
 2514POPC   GL135089  29.767  28.278   9.119
 2514POPC   GL235090  29.984  28.574   9.011
 2514POPC   C1A35091  30.029  28.145   8.768
 2514POPC   D2A35092  30.092  28.514   8.508
 2514POPC   C3A35093  30.152  28.424   8.084
 2514POPC   C4A35094  29.908  28.166   7.799
 2514POPC   C1B35095  29.626  28.616   8.735
 2514POPC   C2B35096  29.424  28.632   8.356
 2514POPC   C3B35097  29.632  28.540   7.985
 2514POPC   C4B35098  29.672  28.627   7.584
 2515POPC   NC335099  39.757  30.270   9.858
 2515POPC   PO435100  39.918  29.723   9.433
 2515POPC   GL135101  39.887  29.864   9.045
 2515POPC   GL235102  40.115  30.105   8.997
 2515POPC   C1A35103  39.751  30.038   8.642
 2515POPC   D2A35104  39.702  29.670   8.385
 2515POPC   C3A35105  39.780  29.724   7.984
 2515POPC   C4A35106  39.589  29.498   7.691
 2515POPC   C1B35107  40.170  29.744   8.656
 2515POPC   C2B35108  40.199  29.550   8.255
 2515POPC   C3B35109  40.241  29.922   8.009
 2515POPC   C4B35110  40.167  30.063   7.609
 2516POPC   NC335111  29.733  39.262   9.586
 2516POPC   PO435112  30.381  39.365   9.621
 2516POPC   GL135113  30.221  39.243   9.194
 2516POPC   GL235114  29.880  39.375   9.109
 2516POPC   C1A35115  30.130  39.100   8.751
 2516POPC   D2A35116  29.750  39.145   8.484
 2516POPC   C3A35117  29.826  39.156   8.045
 2516POPC   C4A35118  30.196  39.107   7.815
 2516POPC   C1B35119  30.068  39.600   8.750
 2516POPC   C2B35120  30.137  39.476   8.305
 2516POPC   C3B35121  30.277  39.615   7.862
 2516POPC   C4B35122  30.226  39.556   7.396
 2517POPC   NC335123   3.595  15.632   9.465
 2517POPC   PO435124   3.347  15.050   9.543
 2517POPC   GL135125   3.476  15.036   9.107
 2517POPC   GL235126   3.580  15.336   9.070
 2517POPC   C1A35127   3.585  14.999   8.686
 2517POPC   D2A35128   3.822  14.888   8.343
 2517POPC   C3A35129   3.668  15.089   7.969
 2517POPC   C4A35130   3.434  14.899   7.612
 2517POPC   C1B35131   3.379  15.512   8.741
 2517POPC   C2B35132   3.515  15.426   8.365
 2517POPC   C3B35133   3.277  15.443   8.046
 2517POPC   C4B35134   3.405  15.407   7.666
 2518POPC   NC335135  37.930  25.622   9.499
 2518POPC   PO435136  37.607  25.019   9.501
 2518POPC   GL135137  37.594  25.320   9.187
 2518POPC   GL235138  37.361  25.560   9.277
 2518POPC   C1A35139  37.684  25.344   8.761
 2518POPC   D2A35140  37.495  25.316   8.377
 2518POPC   C3A35141  37.778  25.454   8.123
 2518POPC   C4A35142  38.003  25.272   7.807
 2518POPC   C1B35143  37.249  25.594   8.835
 2518POPC   C2B35144  37.290  25.775   8.430
 2518POPC   C3B35145  37.268  25.641   8.003
 2518POPC   C4B35146  37.576  25.501   7.663
 2519POPC   NC335147   6.162  40.932   9.767
 2519POPC   PO435148   5.603  40.654   9.496
 2519POPC   GL135149   5.698  40.630   9.046
 2519POPC   GL235150   5.951  40.843   8.853
 2519POPC   C1A35151   5.713  40.413   8.646
 2519POPC   D2A35152   5.464  40.481   8.290
 2519POPC   C3A35153   5.614  40.819   8.121
 2519POPC   C4A35154   5.748  40.925   7.734
 2519POPC   C1B35155   6.303  41.108   8.687
 2519POPC   C2B35156   6.484  40.983   8.313
 2519POPC   C3B35157   6.235  40.749   8.026
 2519POPC   C4B35158   6.255  40.844   7.637
 2520POPC   NC335159  23.243  19.447   9.566
 2520POPC   PO435160  22.774  19.932   9.379
 2520POPC   GL135161  22.941  20.162   9.056
 2520POPC   GL235162  23.308  20.113   9.018
 2520POPC   C1A35163  22.847  20.000   8.662
 2520POPC   D2A35164  22.983  19.687   8.354
 2520POPC   C3A35165  22.986  19.771   7.904
 2520POPC   C4A35166  22.843  19.885   7.504
 2520POPC   C1B35167  23.343  20.056   8.585
 2520POPC   C2B35168  23.079  20.189   8.225
 2520POPC   C3B35169  23.106  20.255   7.780
 2520POPC   C4B35170  23.288  20.150   7.367
 2521POPC   NC335171  44.250  36.621   9.445
 2521POPC   PO435172  43.841  37.232   9.535
 2521POPC   GL135173  44.041  37.055   9.194
 2521POPC   GL235174  43.894  36.719   9.099
 2521POPC   C1A35175  43.977  37.069   8.752
 2521POPC   D2A35176  44.181  37.187   8.412
 2521POPC   C3A35177  43.963  37.110   8.013
 2521POPC   C4A35178  43.676  37.282   7.717
 2521POPC   C1B35179  43.818  36.560   8.709
 2521POPC   C2B35180  44.017  36.641   8.320
 2521POPC   C3B35181  44.139  36.640   7.903
 2521POPC   C4B35182  44.172  36.702   7.432
 2522POPC   NC335183  20.767  12.270   9.483
 2522POPC   PO435184  20.494  11.667   9.769
 2522POPC   GL135185  20.734  11.786   9.345
 2522POPC   GL235186  20.468  11.973   9.186
 2522POPC   C1A35187  20.786  11.830   8.840
 2522POPC   D2A35188  20.590  11.770   8.394
 2522POPC   C3A35189  20.672  12.077   8.065
 2522POPC   C4A35190  20.783  12.073   7.615
 2522POPC   C1B35191  20.351  12.100   8.751
 2522POPC   C2B35192  20.203  12.126   8.297
 2522POPC   C3B35193  20.227  12.089   7.816
 2522POPC   C4B35194  20.377  12.320   7.435
 2523POPC   NC335195  39.028  24.392   9.446
 2523POPC   PO435196  39.642  24.359   9.418
 2523POPC   GL135197  39.384  24.472   9.069
 2523POPC   GL235198  39.099  24.264   8.974
 2523POPC   C1A35199  39.307  24.632   8.656
 2523POPC   D2A35200  39.415  24.720   8.217
 2523POPC   C3A35201  39.033  24.712   7.953
 2523POPC   C4A35202  39.121  24.760   7.514
 2523POPC   C1B35203  38.928  23.983   8.702
 2523POPC   C2B35204  39.116  23.911   8.328
 2523POPC   C3B35205  39.122  24.043   7.925
 2523POPC   C4B35206  39.387  24.373   7.811
 2524POPC   NC335207  37.751  36.748   9.403
 2524POPC   PO435208  37.947  37.319   9.751
 2524POPC   GL135209  37.737  37.297   9.291
 2524POPC   GL235210  37.415  37.433   9.084
 2524POPC   C1A35211  37.772  37.131   8.843
 2524POPC   D2A35212  37.891  37.223   8.412
 2524POPC   C3A35213  37.832  36.870   8.123
 2524POPC   C4A35214  37.600  36.724   7.791
 2524POPC   C1B35215  37.337  37.396   8.657
 2524POPC   C2B35216  37.364  37.090   8.386
 2524POPC   C3B35217  37.424  37.155   8.005
 2524POPC   C4B35218  37.242  37.103   7.662
 2525POPC   NC335219  38.660  44.161  10.015
 2525POPC   PO435220  38.225  43.926   9.623
 2525POPC   GL135221  38.491  43.773   9.283
 2525POPC   GL235222  38.777  43.974   9.141
 2525POPC   C1A35223  38.495  43.560   8.892
 2525POPC   D2A35224  38.385  43.586   8.454
 2525POPC   C3A35225  38.418  43.946   8.189
 2525POPC   C4A35226  38.340  43.871   7.741
 2525POPC   C1B35227  38.635  44.010   8.694
 2525POPC   C2B35228  38.937  44.054   8.325
 2525POPC   C3B35229  38.935  43.982   7.874
 2525POPC   C4B35230  38.689  44.157   7.535
 2526POPC   NC335231  38.990  19.726   9.243
 2526POPC   PO435232  39.251  19.150   9.547
 2526POPC   GL135233  39.188  18.857   9.206
 2526POPC   GL235234  39.225  19.146   8.996
 2526POPC   C1A35235  39.243  18.692   8.765
 2526POPC   D2A35236  39.175  18.991   8.436
 2526POPC   C3A35237  39.279  19.045   8.011
 2526POPC   C4A35238  39.506  18.927   7.683
 2526POPC   C1B35239  38.904  19.316   8.722
 2526POPC   C2B35240  38.710  19.198   8.343
 2526POPC   C3B35241  38.858  19.319   7.950
 2526POPC   C4B35242  38.734  19.460   7.563
 2527POPC   NC335243  31.646  30.369   9.500
 2527POPC   PO435244  31.479  31.057   9.455
 2527POPC   GL135245  31.655  30.884   9.129
 2527POPC   GL235246  31.487  30.578   9.078
 2527POPC   C1A35247  31.594  30.954   8.742
 2527POPC   D2A35248  31.399  30.681   8.486
 2527POPC   C3A35249  31.588  30.730   8.090
 2527POPC   C4A35250  31.600  30.783   7.673
 2527POPC   C1B35251  31.778  30.445   8.776
 2527POPC   C2B35252  31.718  30.286   8.372
 2527POPC   C3B35253  31.527  30.229   7.983
 2527POPC   C4B35254  31.890  30.372   7.812
 2528POPC   NC335255  23.496  37.347   9.613
 2528POPC   PO435256  23.932  37.865   9.567
 2528POPC   GL135257  23.860  37.517   9.228
 2528POPC   GL235258  23.618  37.248   9.127
 2528POPC   C1A35259  24.022  37.410   8.795
 2528POPC   D2A35260  23.848  37.466   8.356
 2528POPC   C3A35261  24.036  37.574   7.950
 2528POPC   C4A35262  24.204  37.324   7.584
 2528POPC   C1B35263  23.531  37.517   8.785
 2528POPC   C2B35264  23.385  37.650   8.402
 2528POPC   C3B35265  23.464  37.582   7.987
 2528POPC   C4B35266  23.627  37.867   7.693
 2529POPC   NC335267   1.044  22.999   9.685
 2529POPC   PO435268   1.450  22.528   9.744
 2529POPC   GL135269   1.408  22.976   9.356
 2529POPC   GL235270   1.077  23.166   9.187
 2529POPC   C1A35271   1.432  23.011   8.862
 2529POPC   D2A35272   1.074  22.848   8.599
 2529POPC   C3A35273   1.133  22.768   8.151
 2529POPC   C4A35274   0.922  22.544   7.813
 2529POPC   C1B35275   1.085  23.355   8.756
 2529POPC   C2B35276   1.294  23.238   8.357
 2529POPC   C3B35277   1.209  23.229   7.921
 2529POPC   C4B35278   1.439  23.248   7.533
 2530POPC   NC335279  23.232  28.539   9.546
 2530POPC   PO435280  23.920  28.489   9.659
 2530POPC   GL135281  23.662  28.551   9.254
 2530POPC   GL235282  23.466  28.270   9.166
 2530POPC   C1A35283  23.668  28.648   8.798
 2530POPC   D2A35284  23.673  28.789   8.349
 2530POPC   C3A35285  23.911  28.577   8.061
 2530POPC   C4A35286  23.834  28.606   7.629
 2530POPC   C1B35287  23.401  28.212   8.718
 2530POPC   C2B35288  23.506  28.313   8.277
 2530POPC   C3B35289  23.601  28.191   7.842
 2530POPC   C4B35290  23.589  27.819   7.555
 2531POPC   NC335291  13.217  42.029   9.469
 2531POPC   PO435292  12.670  41.546   9.482
 2531POPC   GL135293  12.725  41.731   9.148
 2531POPC   GL235294  13.052  41.764   9.084
 2531POPC   C1A35295  12.638  41.594   8.759
 2531POPC   D2A35296  12.561  41.449   8.352
 2531POPC   C3A35297  12.641  41.650   7.975
 2531POPC   C4A35298  12.798  41.347   7.698
 2531POPC   C1B35299  13.151  41.584   8.734
 2531POPC   C2B35300  12.992  41.742   8.374
 2531POPC   C3B35301  13.170  41.615   8.001
 2531POPC   C4B35302  13.067  41.928   7.775
 2532POPC   NC335303  40.342  19.726   9.587
 2532POPC   PO435304  39.677  19.772   9.627
 2532POPC   GL135305  39.828  19.887   9.208
 2532POPC   GL235306  40.169  19.975   9.148
 2532POPC   C1A35307  39.812  19.926   8.736
 2532POPC   D2A35308  39.881  19.627   8.393
 2532POPC   C3A35309  40.091  19.686   7.958
 2532POPC   C4A35310  40.189  19.332   7.661
 2532POPC   C1B35311  40.308  19.792   8.733
 2532POPC   C2B35312  40.180  20.031   8.350
 2532POPC   C3B35313  40.400  20.095   7.968
 2532POPC   C4B35314  40.433  19.899   7.558
 2533POPC   NC335315  21.403  44.354   9.536
 2533POPC   PO435316  21.650  44.940   9.437
 2533POPC   GL135317  21.420  44.672   9.127
 2533POPC   GL235318  21.658  44.412   9.093
 2533POPC   C1A35319  21.230  44.609   8.720
 2533POPC   D2A35320  21.185  44.950   8.422
 2533POPC   C3A35321  21.173  44.883   8.002
 2533POPC   C4A35322  21.126  44.471   7.870
 2533POPC   C1B35323  21.616  44.269   8.674
 2533POPC   C2B35324  21.437  44.336   8.260
 2533POPC   C3B35325  21.639  44.434   7.844
 2533POPC   C4B35326  21.748  44.399   7.396
 2534POPC   NC335327  15.707  12.413   9.521
 2534POPC   PO435328  16.134  11.866   9.501
 2534POPC   GL135329  15.961  11.840   9.098
 2534POPC   GL235330  15.775  12.132   9.097
 2534POPC   C1A35331  15.926  11.838   8.665
 2534POPC   D2A35332  16.161  11.801   8.306
 2534POPC   C3A35333  16.061  11.897   7.916
 2534POPC   C4A35334  15.753  12.167   7.755
 2534POPC   C1B35335  15.624  12.238   8.687
 2534POPC   C2B35336  15.806  12.205   8.273
 2534POPC   C3B35337  16.036  12.501   7.990
 2534POPC   C4B35338  15.934  12.661   7.551
 2535POPC   NC335339  37.105  20.920   9.560
 2535POPC   PO435340  36.636  20.438   9.521
 2535POPC   GL135341  36.972  20.526   9.229
 2535POPC   GL235342  36.973  20.851   9.072
 2535POPC   C1A35343  37.037  20.422   8.805
 2535POPC   D2A35344  36.885  20.585   8.429
 2535POPC   C3A35345  37.027  20.376   8.068
 2535POPC   C4A35346  36.702  20.245   7.771
 2535POPC   C1B35347  36.747  21.011   8.707
 2535POPC   C2B35348  36.619  20.998   8.246
 2535POPC   C3B35349  36.691  20.738   7.892
 2535POPC   C4B35350  36.768  20.856   7.463
 2536POPC   NC335351  21.974  26.050   9.585
 2536POPC   PO435352  22.453  26.265   9.392
 2536POPC   GL135353  22.118  26.123   9.096
 2536POPC   GL235354  22.030  25.764   9.160
 2536POPC   C1A35355  22.070  26.081   8.645
 2536POPC   D2A35356  22.017  25.846   8.257
 2536POPC   C3A35357  22.060  26.059   7.862
 2536POPC   C4A35358  22.046  25.912   7.500
 2536POPC   C1B35359  22.395  25.753   8.869
 2536POPC   C2B35360  22.513  25.878   8.440
 2536POPC   C3B35361  22.480  25.793   8.000
 2536POPC   C4B35362  22.607  26.008   7.631
 2537POPC   NC335363  39.647  19.335   9.394
 2537POPC   PO435364  40.222  18.968   9.387
 2537POPC   GL135365  40.073  18.943   8.998
 2537POPC   GL235366  39.744  18.761   9.040
 2537POPC   C1A35367  40.161  19.218   8.639
 2537POPC   D2A35368  40.192  19.255   8.200
 2537POPC   C3A35369  39.984  18.918   7.976
 2537POPC   C4A35370  40.104  18.816   7.578
 2537POPC   C1B35371  39.648  19.072   8.719
 2537POPC   C2B35372  39.671  19.179   8.294
 2537POPC   C3B35373  39.719  19.342   7.876
 2537POPC   C4B35374  39.731  19.298   7.416
 2538POPC   NC335375  18.028  34.678   9.570
 2538POPC   PO435376  18.605  34.369   9.503
 2538POPC   GL135377  18.321  34.423   9.198
 2538POPC   GL235378  18.400  34.767   9.211
 2538POPC   C1A35379  18.286  34.312   8.772
 2538POPC   D2A35380  18.490  34.402   8.380
 2538POPC   C3A35381  18.269  34.408   8.013
 2538POPC   C4A35382  18.279  34.233   7.608
 2538POPC   C1B35383  18.096  34.782   8.875
 2538POPC   C2B35384  18.057  34.684   8.432
 2538POPC   C3B35385  18.047  34.887   8.046
 2538POPC   C4B35386  18.102  34.720   7.640
 2539POPC   NC335387   7.167  23.449   9.512
 2539POPC   PO435388   7.668  23.945   9.520
 2539POPC   GL135389   7.536  23.694   9.161
 2539POPC   GL235390   7.174  23.654   9.055
 2539POPC   C1A35391   7.759  23.750   8.779
 2539POPC   D2A35392   7.901  23.853   8.338
 2539POPC   C3A35393   7.809  23.726   7.873
 2539POPC   C4A35394   7.746  24.036   7.501
 2539POPC   C1B35395   7.108  23.338   8.749
 2539POPC   C2B35396   7.132  23.254   8.310
 2539POPC   C3B35397   7.273  23.571   8.003
 2539POPC   C4B35398   7.329  23.789   7.621
 2540POPC   NC335399  27.386   0.317   9.463
 2540POPC   PO435400  27.772   0.846   9.228
 2540POPC   GL135401  27.520   0.601   9.052
 2540POPC   GL235402  27.823   0.347   9.137
 2540POPC   C1A35403  27.417   0.722   8.619
 2540POPC   D2A35404  27.422   0.735   8.165
 2540POPC   C3A35405  27.452   0.335   7.943
 2540POPC   C4A35406  27.346   0.331   7.513
 2540POPC   C1B35407  27.696   0.249   8.749
 2540POPC   C2B35408  27.783   0.429   8.368
 2540POPC   C3B35409  27.898   0.578   7.977
 2540POPC   C4B35410  27.849   0.484   7.557
 2541POPC   NC335411  29.189  22.823   9.451
 2541POPC   PO435412  29.507  23.374   9.422
 2541POPC   GL135413  29.121  23.311   9.142
 2541POPC   GL235414  29.134  22.953   8.966
 2541POPC   C1A35415  28.883  23.311   8.733
 2541POPC   D2A35416  29.100  23.089   8.373
 2541POPC   C3A35417  28.960  23.096   7.942
 2541POPC   C4A35418  28.820  22.940   7.536
 2541POPC   C1B35419  29.090  22.622   8.632
 2541POPC   C2B35420  29.064  22.537   8.175
 2541POPC   C3B35421  29.237  22.649   7.768
 2541POPC   C4B35422  29.630  22.710   7.518
 2542POPC   NC335423  32.479  36.088   9.502
 2542POPC   PO435424  32.005  35.655   9.364
 2542POPC   GL135425  32.238  35.872   9.108
 2542POPC   GL235426  32.073  36.219   9.069
 2542POPC   C1A35427  32.448  36.000   8.799
 2542POPC   D2A35428  32.188  36.173   8.482
 2542POPC   C3A35429  32.110  36.011   8.071
 2542POPC   C4A35430  32.181  35.964   7.626
 2542POPC   C1B35431  32.341  36.516   8.814
 2542POPC   C2B35432  32.486  36.681   8.439
 2542POPC   C3B35433  32.432  36.412   8.102
 2542POPC   C4B35434  32.196  36.438   7.751
 2543POPC   NC335435   8.335   3.282   9.425
 2543POPC   PO435436   8.364   3.947   9.518
 2543POPC   GL135437   8.176   3.687   9.154
 2543POPC   GL235438   8.428   3.588   9.034
 2543POPC   C1A35439   8.056   3.542   8.689
 2543POPC   D2A35440   7.921   3.282   8.327
 2543POPC   C3A35441   8.087   3.447   7.925
 2543POPC   C4A35442   8.019   3.830   7.670
 2543POPC   C1B35443   8.483   3.826   8.685
 2543POPC   C2B35444   8.451   3.644   8.274
 2543POPC   C3B35445   8.508   3.800   7.866
 2543POPC   C4B35446   8.481   3.856   7.428
 2544POPC   NC335447  36.230  44.400   9.551
 2544POPC   PO435448  35.739  44.861   9.474
 2544POPC   GL135449  36.060  44.803   9.163
 2544POPC   GL235450  35.904  44.479   9.174
 2544POPC   C1A35451  36.238  44.841   8.713
 2544POPC   D2A35452  36.185  44.973   8.261
 2544POPC   C3A35453  36.184  44.657   7.928
 2544POPC   C4A35454  36.343  44.584   7.500
 2544POPC   C1B35455  35.774  44.598   8.767
 2544POPC   C2B35456  35.940  44.526   8.352
 2544POPC   C3B35457  35.725  44.455   7.943
 2544POPC   C4B35458  35.795  44.480   7.477
 2545POPC   NC335459  38.610  28.826   9.465
 2545POPC   PO435460  38.205  29.356   9.312
 2545POPC   GL135461  38.528  29.215   9.041
 2545POPC   GL235462  38.640  28.866   8.959
 2545POPC   C1A35463  38.593  29.271   8.610
 2545POPC   D2A35464  38.784  28.972   8.335
 2545POPC   C3A35465  38.526  28.951   7.972
 2545POPC   C4A35466  38.440  29.176   7.599
 2545POPC   C1B35467  38.303  28.642   8.765
 2545POPC   C2B35468  38.134  28.619   8.336
 2545POPC   C3B35469  38.071  28.716   7.914
 2545POPC   C4B35470  38.177  28.767   7.472
 2546POPC   NC335471  40.519  21.719   9.875
 2546POPC   PO435472  40.647  21.149   9.600
 2546POPC   GL135473  40.556  21.454   9.298
 2546POPC   GL235474  40.806  21.656   9.156
 2546POPC   C1A35475  40.434  21.484   8.854
 2546POPC   D2A35476  40.714  21.507   8.497
 2546POPC   C3A35477  40.593  21.468   8.101
 2546POPC   C4A35478  40.721  21.447   7.712
 2546POPC   C1B35479  41.071  21.710   8.785
 2546POPC   C2B35480  41.052  21.892   8.344
 2546POPC   C3B35481  41.078  21.778   7.863
 2546POPC   C4B35482  41.134  21.495   7.446
 2547POPC   NC335483  11.512  44.589   9.378
 2547POPC   PO435484  10.950  44.906   9.370
 2547POPC   GL135485  11.185   0.063   9.039
 2547POPC   GL235486  11.439  44.811   8.917
 2547POPC   C1A35487  11.045   0.016   8.614
 2547POPC   D2A35488  11.043   0.008   8.167
 2547POPC   C3A35489  11.405  44.881   7.887
 2547POPC   C4A35490  11.405  44.801   7.445
 2547POPC   C1B35491  11.103  44.466   8.831
 2547POPC   C2B35492  10.990  44.252   8.451
 2547POPC   C3B35493  11.086  44.476   8.073
 2547POPC   C4B35494  11.318  44.355   7.671
 2548POPC   NC335495  22.793  22.152   9.583
 2548POPC   PO435496  23.434  22.365   9.412
 2548POPC   GL135497  23.026  22.301   9.146
 2548POPC   GL235498  22.872  21.958   9.129
 2548POPC   C1A35499  22.707  22.256   8.766
 2548POPC   D2A35500  22.844  22.325   8.320
 2548POPC   C3A35501  22.750  22.059   7.969
 2548POPC   C4A35502  22.807  22.078   7.500
 2548POPC   C1B35503  23.130  21.953   8.750
 2548POPC   C2B35504  23.151  21.872   8.285
 2548POPC   C3B35505  23.240  22.116   7.897
 2548POPC   C4B35506  23.301  22.010   7.466
 2549POPC   NC335507   0.534  28.538   9.530
 2549POPC   PO435508   0.118  28.097   9.412
 2549POPC   GL135509   0.288  28.347   9.097
 2549POPC   GL235510   0.648  28.413   9.063
 2549POPC   C1A35511   0.113  28.598   8.790
 2549POPC   D2A35512   0.197  28.851   8.422
 2549POPC   C3A35513   0.349  28.550   8.164
 2549POPC   C4A35514   0.269  28.508   7.734
 2549POPC   C1B35515   0.537  28.376   8.640
 2549POPC   C2B35516   0.289  28.128   8.469
 2549POPC   C3B35517   0.414  28.029   8.096
 2549POPC   C4B35518   0.615  28.159   7.745
 2550POPC   NC335519  14.646  21.140   9.487
 2550POPC   PO435520  14.353  21.725   9.505
 2550POPC   GL135521  14.285  21.426   9.172
 2550POPC   GL235522  14.373  21.707   8.969
 2550POPC   C1A35523  14.279  21.251   8.723
 2550POPC   D2A35524  14.469  21.218   8.313
 2550POPC   C3A35525  14.319  21.003   7.958
 2550POPC   C4A35526  14.263  21.191   7.566
 2550POPC   C1B35527  14.090  21.747   8.637
 2550POPC   C2B35528  14.001  21.523   8.263
 2550POPC   C3B35529  14.204  21.574   7.862
 2550POPC   C4B35530  13.995  21.620   7.422
 2551POPC   NC335531  27.211  15.613   9.487
 2551POPC   PO435532  26.958  16.284   9.598
 2551POPC   GL135533  26.989  16.035   9.218
 2551POPC   GL235534  26.682  15.908   9.089
 2551POPC   C1A35535  27.018  16.060   8.753
 2551POPC   D2A35536  27.304  16.061   8.407
 2551POPC   C3A35537  27.071  16.130   8.044
 2551POPC   C4A35538  27.072  16.404   7.715
 2551POPC   C1B35539  26.469  15.887   8.685
 2551POPC   C2B35540  26.438  16.034   8.264
 2551POPC   C3B35541  26.548  15.940   7.822
 2551POPC   C4B35542  26.598  15.887   7.343
 2552POPC   NC335543  40.896  38.976   9.656
 2552POPC   PO435544  40.479  39.416   9.355
 2552POPC   GL135545  40.652  39.229   9.047
 2552POPC   GL235546  40.969  39.164   9.165
 2552POPC   C1A35547  40.541  39.215   8.638
 2552POPC   D2A35548  40.617  39.451   8.273
 2552POPC   C3A35549  40.815  39.145   7.991
 2552POPC   C4A35550  40.552  38.779   7.862
 2552POPC   C1B35551  41.017  39.423   8.764
 2552POPC   C2B35552  41.123  39.493   8.320
 2552POPC   C3B35553  41.080  39.694   7.939
 2552POPC   C4B35554  40.956  39.585   7.522
 2553POPC   NC335555  34.438  24.186   9.842
 2553POPC   PO435556  34.345  24.747   9.626
 2553POPC   GL135557  34.500  24.798   9.188
 2553POPC   GL235558  34.820  24.600   9.140
 2553POPC   C1A35559  34.528  24.850   8.738
 2553POPC   D2A35560  34.325  24.551   8.454
 2553POPC   C3A35561  34.407  24.563   8.033
 2553POPC   C4A35562  34.479  24.297   7.686
 2553POPC   C1B35563  34.969  24.559   8.725
 2553POPC   C2B35564  34.810  24.373   8.357
 2553POPC   C3B35565  34.908  24.442   7.947
 2553POPC   C4B35566  34.755  24.759   7.714
 2554POPC   NC335567   6.778  35.502   9.588
 2554POPC   PO435568   6.523  34.956   9.300
 2554POPC   GL135569   6.750  35.321   9.114
 2554POPC   GL235570   6.547  35.657   9.157
 2554POPC   C1A35571   6.779  35.445   8.699
 2554POPC   D2A35572   6.446  35.262   8.477
 2554POPC   C3A35573   6.504  35.346   8.051
 2554POPC   C4A35574   6.755  35.195   7.741
 2554POPC   C1B35575   6.332  35.719   8.783
 2554POPC   C2B35576   6.462  35.773   8.365
 2554POPC   C3B35577   6.397  35.857   7.934
 2554POPC   C4B35578   6.616  35.661   7.620
 2555POPC   NC335579  17.920  41.240   9.581
 2555POPC   PO435580  17.244  41.480   9.413
 2555POPC   GL135581  17.596  41.527   9.144
 2555POPC   GL235582  17.603  41.166   9.181
 2555POPC   C1A35583  17.467  41.610   8.709
 2555POPC   D2A35584  17.299  41.517   8.300
 2555POPC   C3A35585  17.489  41.583   7.880
 2555POPC   C4A35586  17.354  41.350   7.516
 2555POPC   C1B35587  17.757  41.120   8.778
 2555POPC   C2B35588  17.790  41.307   8.382
 2555POPC   C3B35589  17.671  41.119   7.991
 2555POPC   C4B35590  17.835  41.247   7.617
 2556POPC   NC335591   8.363  39.874   9.408
 2556POPC   PO435592   7.743  40.018   9.420
 2556POPC   GL135593   7.938  40.035   9.096
 2556POPC   GL235594   8.154  40.292   9.175
 2556POPC   C1A35595   7.861  40.012   8.691
 2556POPC   D2A35596   7.740  39.763   8.346
 2556POPC   C3A35597   7.924  39.876   8.007
 2556POPC   C4A35598   8.187  40.092   7.768
 2556POPC   C1B35599   8.345  40.120   8.792
 2556POPC   C2B35600   8.238  40.151   8.361
 2556POPC   C3B35601   8.545  40.253   8.097
 2556POPC   C4B35602   8.487  40.494   7.768
 2557POPC   NC335603  31.144  15.500   9.465
 2557POPC   PO435604  31.745  15.915   9.607
 2557POPC   GL135605  31.569  15.895   9.224
 2557POPC   GL235606  31.581  16.260   9.095
 2557POPC   C1A35607  31.742  15.880   8.816
 2557POPC   D2A35608  31.605  16.129   8.487
 2557POPC   C3A35609  31.622  15.909   8.116
 2557POPC   C4A35610  31.668  16.047   7.744
 2557POPC   C1B35611  31.235  16.040   8.854
 2557POPC   C2B35612  31.086  16.102   8.436
 2557POPC   C3B35613  31.213  16.196   8.052
 2557POPC   C4B35614  31.183  15.921   7.728
 2558POPC   NC335615  22.397  20.693   9.528
 2558POPC   PO435616  21.769  21.069   9.456
 2558POPC   GL135617  22.033  20.776   9.141
 2558POPC   GL235618  22.337  20.497   9.081
 2558POPC   C1A35619  22.254  20.858   8.748
 2558POPC   D2A35620  22.238  20.713   8.347
 2558POPC   C3A35621  21.880  20.676   8.124
 2558POPC   C4A35622  22.154  20.743   7.782
 2558POPC   C1B35623  22.100  20.382   8.724
 2558POPC   C2B35624  22.028  20.211   8.311
 2558POPC   C3B35625  22.320  20.113   8.004
 2558POPC   C4B35626  22.418  20.281   7.591
 2559POPC   NC335627   1.431  40.395   9.520
 2559POPC   PO435628   1.361  41.087   9.540
 2559POPC   GL135629   1.311  40.936   9.128
 2559POPC   GL235630   1.142  40.596   9.127
 2559POPC   C1A35631   1.414  40.811   8.726
 2559POPC   D2A35632   1.202  40.652   8.352
 2559POPC   C3A35633   1.022  40.937   8.076
 2559POPC   C4A35634   0.992  40.931   7.630
 2559POPC   C1B35635   0.863  40.535   8.736
 2559POPC   C2B35636   0.794  40.326   8.314
 2559POPC   C3B35637   0.925  40.438   7.900
 2559POPC   C4B35638   1.263  40.487   7.622
 2560POPC   NC335639  14.522  29.968   9.541
 2560POPC   PO435640  14.052  30.520   9.461
 2560POPC   GL135641  14.173  30.109   9.201
 2560POPC   GL235642  14.518  29.977   9.039
 2560POPC   C1A35643  14.047  29.939   8.800
 2560POPC   D2A35644  14.272  29.963   8.429
 2560POPC   C3A35645  14.125  29.920   8.032
 2560POPC   C4A35646  14.407  30.121   7.760
 2560POPC   C1B35647  14.523  29.637   8.720
 2560POPC   C2B35648  14.446  29.451   8.293
 2560POPC   C3B35649  14.571  29.624   7.859
 2560POPC   C4B35650  14.733  29.610   7.376
 2561POPC   NC335651  44.140  42.750   9.449
 2561POPC   PO435652  43.862  43.323   9.403
 2561POPC   GL135653  43.784  43.012   9.157
 2561POPC   GL235654  43.599  43.250   8.996
 2561POPC   C1A35655  43.961  42.936   8.772
 2561POPC   D2A35656  44.195  43.114   8.454
 2561POPC   C3A35657  44.068  42.996   8.059
 2561POPC   C4A35658  44.076  43.103   7.623
 2561POPC   C1B35659  43.782  43.434   8.695
 2561POPC   C2B35660  43.697  43.246   8.336
 2561POPC   C3B35661  43.683  43.311   7.922
 2561POPC   C4B35662  43.510  43.216   7.563
 2562POPC   NC335663   6.544  32.765   9.628
 2562POPC   PO435664   6.813  33.285   9.516
 2562POPC   GL135665   6.581  33.147   9.153
 2562POPC   GL235666   6.544  32.806   9.110
 2562POPC   C1A35667   6.577  33.149   8.712
 2562POPC   D2A35668   6.449  32.931   8.337
 2562POPC   C3A35669   6.589  33.190   7.978
 2562POPC   C4A35670   6.338  33.420   7.684
 2562POPC   C1B35671   6.747  32.634   8.728
 2562POPC   C2B35672   6.849  32.593   8.293
 2562POPC   C3B35673   6.635  32.683   7.907
 2562POPC   C4B35674   6.198  32.787   7.815
 2563POPC   NC335675   7.859   5.691   9.518
 2563POPC   PO435676   8.498   5.612   9.467
 2563POPC   GL135677   8.244   5.665   9.142
 2563POPC   GL235678   7.991   5.426   9.103
 2563POPC   C1A35679   8.159   5.837   8.753
 2563POPC   D2A35680   7.841   5.707   8.500
 2563POPC   C3A35681   7.964   5.705   8.096
 2563POPC   C4A35682   8.053   5.729   7.675
 2563POPC   C1B35683   8.266   5.337   8.748
 2563POPC   C2B35684   8.388   5.546   8.377
 2563POPC   C3B35685   8.427   5.492   7.943
 2563POPC   C4B35686   8.605   5.650   7.548
 2564POPC   NC335687   2.629  12.447   9.550
 2564POPC   PO435688   2.743  13.114   9.575
 2564POPC   GL135689   2.596  13.012   9.151
 2564POPC   GL235690   2.719  12.660   9.105
 2564POPC   C1A35691   2.818  13.042   8.755
 2564POPC   D2A35692   3.083  12.768   8.474
 2564POPC   C3A35693   2.994  12.810   8.034
 2564POPC   C4A35694   2.914  12.964   7.621
 2564POPC   C1B35695   2.492  12.639   8.738
 2564POPC   C2B35696   2.568  12.817   8.348
 2564POPC   C3B35697   2.456  12.692   7.960
 2564POPC   C4B35698   2.593  12.599   7.548
 2565POPC   NC335699   7.082  32.077   9.479
 2565POPC   PO435700   6.494  32.309   9.662
 2565POPC   GL135701   6.658  32.312   9.239
 2565POPC   GL235702   6.983  32.480   9.170
 2565POPC   C1A35703   6.430  32.252   8.858
 2565POPC   D2A35704   6.308  32.423   8.468
 2565POPC   C3A35705   6.376  32.132   8.146
 2565POPC   C4A35706   6.368  32.270   7.740
 2565POPC   C1B35707   6.996  32.179   8.812
 2565POPC   C2B35708   6.886  32.077   8.375
 2565POPC   C3B35709   6.835  32.221   7.938
 2565POPC   C4B35710   6.810  32.363   7.486
 2566POPC   NC335711  24.484  44.297   9.400
 2566POPC   PO435712  24.759  44.874   9.570
 2566POPC   GL135713  24.610   0.002   9.132
 2566POPC   GL235714  24.462  44.688   9.078
 2566POPC   C1A35715  24.502  44.987   8.662
 2566POPC   D2A35716  24.360  44.782   8.254
 2566POPC   C3A35717  24.385  45.000   7.854
 2566POPC   C4A35718  24.567  44.894   7.453
 2566POPC   C1B35719  24.646  44.495   8.691
 2566POPC   C2B35720  24.842  44.559   8.286
 2566POPC   C3B35721  24.834  44.518   7.852
 2566POPC   C4B35722  24.428  44.489   7.778
 2567POPC   NC335723  18.571  20.424   9.422
 2567POPC   PO435724  17.980  20.640   9.330
 2567POPC   GL135725  18.209  20.516   9.003
 2567POPC   GL235726  18.427  20.255   8.960
 2567POPC   C1A35727  18.456  20.707   8.718
 2567POPC   D2A35728  18.575  20.788   8.333
 2567POPC   C3A35729  18.616  20.505   8.000
 2567POPC   C4A35730  18.555  20.814   7.678
 2567POPC   C1B35731  18.220  20.223   8.575
 2567POPC   C2B35732  18.067  20.575   8.396
 2567POPC   C3B35733  18.168  20.738   8.010
 2567POPC   C4B35734  18.221  20.406   7.673
 2568POPC   NC335735  42.556  27.836   9.558
 2568POPC   PO435736  41.903  27.547   9.546
 2568POPC   GL135737  42.089  27.513   9.174
 2568POPC   GL235738  42.449  27.456   9.197
 2568POPC   C1A35739  42.073  27.618   8.770
 2568POPC   D2A35740  42.254  27.527   8.399
 2568POPC   C3A35741  42.023  27.614   8.029
 2568POPC   C4A35742  42.223  27.682   7.648
 2568POPC   C1B35743  42.519  27.844   8.924
 2568POPC   C2B35744  42.523  27.948   8.493
 2568POPC   C3B35745  42.587  27.766   8.096
 2568POPC   C4B35746  42.639  27.960   7.712
 2569POPC   NC335747  25.259  32.611   9.525
 2569POPC   PO435748  24.936  33.202   9.581
 2569POPC   GL135749  25.153  33.056   9.227
 2569POPC   GL235750  25.272  33.393   9.146
 2569POPC   C1A35751  25.103  32.796   8.861
 2569POPC   D2A35752  25.116  32.920   8.437
 2569POPC   C3A35753  25.186  32.702   8.056
 2569POPC   C4A35754  25.173  32.808   7.642
 2569POPC   C1B35755  25.365  33.287   8.733
 2569POPC   C2B35756  25.291  33.401   8.327
 2569POPC   C3B35757  25.213  33.232   7.922
 2569POPC   C4B35758  25.064  33.477   7.550
 2570POPC   NC335759  20.482  38.183   9.659
 2570POPC   PO435760  20.835  37.730   9.183
 2570POPC   GL135761  20.498  37.817   8.986
 2570POPC   GL235762  20.310  37.530   9.098
 2570POPC   C1A35763  20.595  37.818   8.556
 2570POPC   D2A35764  20.703  37.920   8.159
 2570POPC   C3A35765  20.902  37.570   7.953
 2570POPC   C4A35766  20.877  37.279   7.635
 2570POPC   C1B35767  20.127  37.684   8.658
 2570POPC   C2B35768  20.267  37.610   8.208
 2570POPC   C3B35769  20.417  37.641   7.764
 2570POPC   C4B35770  20.233  37.760   7.323
 2571POPC   NC335771  32.538  43.045   9.740
 2571POPC   PO435772  31.959  43.233   9.626
 2571POPC   GL135773  32.078  43.026   9.172
 2571POPC   GL235774  32.450  42.940   9.208
 2571POPC   C1A35775  31.979  43.130   8.680
 2571POPC   D2A35776  31.771  43.293   8.289
 2571POPC   C3A35777  31.862  43.137   7.866
 2571POPC   C4A35778  31.990  43.338   7.448
 2571POPC   C1B35779  32.500  43.082   8.833
 2571POPC   C2B35780  32.397  43.360   8.525
 2571POPC   C3B35781  32.289  43.231   8.130
 2571POPC   C4B35782  32.420  43.338   7.722
 2572POPC   NC335783  36.139  34.379   9.540
 2572POPC   PO435784  36.406  34.956   9.402
 2572POPC   GL135785  36.142  34.724   9.143
 2572POPC   GL235786  36.367  34.420   9.065
 2572POPC   C1A35787  36.112  34.777   8.707
 2572POPC   D2A35788  36.036  34.769   8.282
 2572POPC   C3A35789  36.304  34.484   8.055
 2572POPC   C4A35790  36.299  34.402   7.571
 2572POPC   C1B35791  35.986  34.288   8.820
 2572POPC   C2B35792  35.855  34.276   8.357
 2572POPC   C3B35793  35.861  34.348   7.888
 2572POPC   C4B35794  35.868  34.126   7.471
 2573POPC   NC335795   6.302  38.655   9.697
 2573POPC   PO435796   6.975  38.534   9.600
 2573POPC   GL135797   6.968  38.528   9.147
 2573POPC   GL235798   6.597  38.604   9.149
 2573POPC   C1A35799   6.836  38.360   8.748
 2573POPC   D2A35800   6.743  38.013   8.470
 2573POPC   C3A35801   6.857  38.136   8.046
 2573POPC   C4A35802   6.747  38.389   7.683
 2573POPC   C1B35803   6.419  38.665   8.725
 2573POPC   C2B35804   6.514  38.459   8.342
 2573POPC   C3B35805   6.364  38.555   7.976
 2573POPC   C4B35806   6.032  38.780   7.843
 2574POPC   NC335807   2.156  14.310   9.754
 2574POPC   PO435808   1.765  14.810   9.469
 2574POPC   GL135809   1.929  14.563   9.132
 2574POPC   GL235810   2.192  14.325   9.234
 2574POPC   C1A35811   1.745  14.463   8.759
 2574POPC   D2A35812   1.962  14.453   8.362
 2574POPC   C3A35813   1.731  14.460   7.975
 2574POPC   C4A35814   1.804  14.538   7.565
 2574POPC   C1B35815   2.238  14.055   8.885
 2574POPC   C2B35816   2.283  14.014   8.432
 2574POPC   C3B35817   2.408  14.162   8.020
 2574POPC   C4B35818   2.459  13.942   7.620
 2575POPC   NC335819  16.139   8.367   9.523
 2575POPC   PO435820  15.654   7.943   9.547
 2575POPC   GL135821  15.863   8.120   9.192
 2575POPC   GL235822  16.202   8.009   9.146
 2575POPC   C1A35823  15.806   8.391   8.866
 2575POPC   D2A35824  15.710   8.275   8.461
 2575POPC   C3A35825  15.606   8.431   8.070
 2575POPC   C4A35826  15.735   8.217   7.697
 2575POPC   C1B35827  16.311   8.320   8.858
 2575POPC   C2B35828  16.219   8.116   8.469
 2575POPC   C3B35829  16.088   8.238   8.083
 2575POPC   C4B35830  16.255   8.164   7.692
 2576POPC   NC335831  24.791  32.154   9.831
 2576POPC   PO435832  25.381  32.206   9.739
 2576POPC   GL135833  25.238  32.214   9.227
 2576POPC   GL235834  25.342  31.965   9.009
 2576POPC   C1A35835  25.011  32.281   8.800
 2576POPC   D2A35836  25.044  32.041   8.425
 2576POPC   C3A35837  24.900  32.249   8.065
 2576POPC   C4A35838  25.034  32.318   7.640
 2576POPC   C1B35839  25.534  32.295   8.798
 2576POPC   C2B35840  25.385  32.420   8.433
 2576POPC   C3B35841  25.407  32.237   8.056
 2576POPC   C4B35842  25.535  32.351   7.668
 2577POPC   NC335843  41.585  44.286   9.405
 2577POPC   PO435844  41.770  43.622   9.568
 2577POPC   GL135845  41.591  43.800   9.202
 2577POPC   GL235846  41.352  43.580   9.119
 2577POPC   C1A35847  41.541  43.989   8.786
 2577POPC   D2A35848  41.736  44.214   8.425
 2577POPC   C3A35849  41.564  44.100   8.043
 2577POPC   C4A35850  41.571  44.294   7.660
 2577POPC   C1B35851  41.330  43.517   8.696
 2577POPC   C2B35852  41.357  43.617   8.284
 2577POPC   C3B35853  41.148  43.812   7.952
 2577POPC   C4B35854  41.315  43.862   7.550
 2578POPC   NC335855  41.199  18.333   9.449
 2578POPC   PO435856  40.503  18.138   9.528
 2578POPC   GL135857  40.794  18.213   9.146
 2578POPC   GL235858  40.723  18.538   9.094
 2578POPC   C1A35859  40.654  18.301   8.668
 2578POPC   D2A35860  40.628  18.041   8.296
 2578POPC   C3A35861  40.715  18.055   7.857
 2578POPC   C4A35862  40.941  18.225   7.517
 2578POPC   C1B35863  41.035  18.638   8.719
 2578POPC   C2B35864  40.963  18.788   8.290
 2578POPC   C3B35865  40.728  18.526   8.011
 2578POPC   C4B35866  40.520  18.508   7.598
 2579POPC   NC335867  27.847  30.673   9.615
 2579POPC   PO435868  28.483  31.007   9.688
 2579POPC   GL135869  28.509  30.886   9.243
 2579POPC   GL235870  28.278  30.597   9.267
 2579POPC   C1A35871  28.408  30.883   8.785
 2579POPC   D2A35872  28.502  30.684   8.368
 2579POPC   C3A35873  28.471  30.982   7.990
 2579POPC   C4A35874  28.120  31.033   7.704
 2579POPC   C1B35875  27.989  30.595   8.915
 2579POPC   C2B35876  27.931  30.511   8.460
 2579POPC   C3B35877  28.121  30.576   8.046
 2579POPC   C4B35878  28.146  30.292   7.689
 2580POPC   NC335879  14.098  14.877   9.418
 2580POPC   PO435880  14.381  15.485   9.508
 2580POPC   GL135881  14.195  15.308   9.134
 2580POPC   GL235882  14.454  15.073   9.097
 2580POPC   C1A35883  14.126  15.071   8.728
 2580POPC   D2A35884  14.348  14.988   8.342
 2580POPC   C3A35885  14.232  15.091   7.920
 2580POPC   C4A35886  14.587  15.225   7.667
 2580POPC   C1B35887  14.666  14.792   8.772
 2580POPC   C2B35888  14.662  14.588   8.333
 2580POPC   C3B35889  14.715  14.802   7.933
 2580POPC   C4B35890  14.563  14.742   7.491
 2581POPC   NC335891  38.857  27.247   9.457
 2581POPC   PO435892  38.349  27.659   9.632
 2581POPC   GL135893  38.525  27.557   9.225
 2581POPC   GL235894  38.857  27.709   9.164
 2581POPC   C1A35895  38.405  27.308   8.878
 2581POPC   D2A35896  38.393  27.473   8.483
 2581POPC   C3A35897  38.401  27.296   8.091
 2581POPC   C4A35898  38.490  27.470   7.704
 2581POPC   C1B35899  38.879  27.505   8.740
 2581POPC   C2B35900  38.803  27.701   8.309
 2581POPC   C3B35901  38.971  27.611   7.911
 2581POPC   C4B35902  38.950  27.267   7.650
 2582POPC   NC335903  35.635  16.332   9.493
 2582POPC   PO435904  35.245  15.747   9.487
 2582POPC   GL135905  35.588  15.775   9.265
 2582POPC   GL235906  35.483  16.067   9.069
 2582POPC   C1A35907  35.568  15.575   8.868
 2582POPC   D2A35908  35.342  15.794   8.567
 2582POPC   C3A35909  35.461  15.788   8.131
 2582POPC   C4A35910  35.396  15.711   7.703
 2582POPC   C1B35911  35.046  16.089   8.866
 2582POPC   C2B35912  35.011  16.135   8.408
 2582POPC   C3B35913  35.094  16.127   7.942
 2582POPC   C4B35914  35.174  16.147   7.467
 2583POPC   NC335915   3.263  28.162   9.210
 2583POPC   PO435916   3.687  28.581   9.531
 2583POPC   GL135917   3.722  28.348   9.093
 2583POPC   GL235918   3.404  28.518   8.884
 2583POPC   C1A35919   3.733  28.312   8.600
 2583POPC   D2A35920   3.513  28.688   8.412
 2583POPC   C3A35921   3.316  28.527   8.074
 2583POPC   C4A35922   3.500  28.458   7.736
 2583POPC   C1B35923   3.172  28.317   8.553
 2583POPC   C2B35924   3.129  28.052   8.190
 2583POPC   C3B35925   3.208  28.054   7.748
 2583POPC   C4B35926   3.284  28.212   7.318
 2584POPC   NC335927  18.279  11.147   9.487
 2584POPC   PO435928  18.768  11.556   9.340
 2584POPC   GL135929  18.507  11.319   9.044
 2584POPC   GL235930  18.496  10.990   9.062
 2584POPC   C1A35931  18.336  11.250   8.620
 2584POPC   D2A35932  18.287  11.567   8.295
 2584POPC   C3A35933  18.330  11.447   7.880
 2584POPC   C4A35934  18.639  11.125   7.740
 2584POPC   C1B35935  18.245  10.744   8.792
 2584POPC   C2B35936  18.041  10.860   8.454
 2584POPC   C3B35937  18.278  11.009   8.133
 2584POPC   C4B35938  18.055  11.055   7.736
 2585POPC   NC335939   1.544  43.619   9.360
 2585POPC   PO435940   1.031  44.143   9.506
 2585POPC   GL135941   1.153  44.004   9.144
 2585POPC   GL235942   1.471  44.169   9.130
 2585POPC   C1A35943   0.931  44.022   8.769
 2585POPC   D2A35944   1.085  43.867   8.397
 2585POPC   C3A35945   0.984  43.969   7.979
 2585POPC   C4A35946   1.182  44.328   7.783
 2585POPC   C1B35947   1.490  43.920   8.738
 2585POPC   C2B35948   1.601  43.921   8.289
 2585POPC   C3B35949   1.478  43.741   7.853
 2585POPC   C4B35950   1.499  43.697   7.376
 2586POPC   NC335951  19.443  36.796   9.445
 2586POPC   PO435952  18.794  36.654   9.580
 2586POPC   GL135953  18.840  36.647   9.162
 2586POPC   GL235954  19.006  36.970   9.152
 2586POPC   C1A35955  18.853  36.722   8.730
 2586POPC   D2A35956  19.148  36.895   8.465
 2586POPC   C3A35957  18.957  36.939   8.120
 2586POPC   C4A35958  18.833  36.633   7.827
 2586POPC   C1B35959  19.037  37.257   8.773
 2586POPC   C2B35960  19.168  37.422   8.352
 2586POPC   C3B35961  19.239  37.319   7.913
 2586POPC   C4B35962  18.845  37.165   7.687
 2587POPC   NC335963  10.054  29.972   9.292
 2587POPC   PO435964  10.460  29.565   9.687
 2587POPC   GL135965  10.616  29.708   9.290
 2587POPC   GL235966  10.360  29.598   9.057
 2587POPC   C1A35967  10.674  29.943   8.887
 2587POPC   D2A35968  10.582  29.932   8.484
 2587POPC   C3A35969  10.878  30.084   8.158
 2587POPC   C4A35970  10.806  30.188   7.730
 2587POPC   C1B35971  10.124  29.773   8.683
 2587POPC   C2B35972  10.093  29.957   8.291
 2587POPC   C3B35973  10.409  29.968   8.001
 2587POPC   C4B35974  10.416  29.656   7.729
 2588POPC   NC335975  36.927  17.362   9.536
 2588POPC   PO435976  37.122  17.925   9.453
 2588POPC   GL135977  36.902  17.615   9.099
 2588POPC   GL235978  36.843  17.253   9.060
 2588POPC   C1A35979  36.922  17.582   8.657
 2588POPC   D2A35980  37.173  17.777   8.336
 2588POPC   C3A35981  36.991  17.834   7.932
 2588POPC   C4A35982  36.860  17.648   7.558
 2588POPC   C1B35983  36.477  17.279   8.824
 2588POPC   C2B35984  36.494  17.429   8.416
 2588POPC   C3B35985  36.842  17.373   8.161
 2588POPC   C4B35986  36.918  17.092   7.815
 2589POPC   NC335987  29.515  26.738   9.517
 2589POPC   PO435988  30.016  26.381   9.664
 2589POPC   GL135989  30.037  26.527   9.224
 2589POPC   GL235990  29.951  26.855   9.210
 2589POPC   C1A35991  30.151  26.601   8.777
 2589POPC   D2A35992  30.183  26.905   8.412
 2589POPC   C3A35993  29.906  26.853   8.093
 2589POPC   C4A35994  30.039  26.710   7.685
 2589POPC   C1B35995  29.930  27.065   8.809
 2589POPC   C2B35996  29.675  27.178   8.461
 2589POPC   C3B35997  29.625  27.298   8.040
 2589POPC   C4B35998  29.789  27.139   7.669
 2590POPC   NC335999  37.781  23.646   9.710
 2590POPC   PO436000  37.250  23.753   9.521
 2590POPC   GL136001  37.528  23.705   9.176
 2590POPC   GL236002  37.806  23.522   9.226
 2590POPC   C1A36003  37.461  23.490   8.781
 2590POPC   D2A36004  37.485  23.550   8.333
 2590POPC   C3A36005  37.683  23.888   8.108
 2590POPC   C4A36006  37.696  23.792   7.689
 2590POPC   C1B36007  37.936  23.329   8.858
 2590POPC   C2B36008  38.003  23.413   8.419
 2590POPC   C3B36009  37.911  23.406   7.987
 2590POPC   C4B36010  38.154  23.512   7.618
 2591POPC   NC336011  33.136   3.780   9.518
 2591POPC   PO436012  32.935   3.152   9.552
 2591POPC   GL136013  32.925   3.389   9.209
 2591POPC   GL236014  32.627   3.194   9.127
 2591POPC   C1A36015  32.875   3.691   8.858
 2591POPC   D2A36016  33.149   3.818   8.491
 2591POPC   C3A36017  33.256   3.503   8.138
 2591POPC   C4A36018  33.107   3.517   7.712
 2591POPC   C1B36019  32.905   3.204   8.731
 2591POPC   C2B36020  32.808   3.452   8.376
 2591POPC   C3B36021  32.657   3.524   7.954
 2591POPC   C4B36022  32.545   3.381   7.540
 2592POPC   NC336023  42.272  26.449   9.368
 2592POPC   PO436024  42.233  25.826   9.541
 2592POPC   GL136025  42.255  25.991   9.135
 2592POPC   GL236026  42.587  26.136   9.116
 2592POPC   C1A36027  42.052  26.134   8.761
 2592POPC   D2A36028  41.849  26.267   8.385
 2592POPC   C3A36029  42.163  26.272   8.069
 2592POPC   C4A36030  42.281  25.944   7.753
 2592POPC   C1B36031  42.564  26.098   8.672
 2592POPC   C2B36032  42.624  26.031   8.221
 2592POPC   C3B36033  42.620  26.292   7.854
 2592POPC   C4B36034  42.806  26.595   7.725
 2593POPC   NC336035   9.462  42.100   9.345
 2593POPC   PO436036   8.838  42.388   9.564
 2593POPC   GL136037   9.040  42.327   9.187
 2593POPC   GL236038   8.932  41.984   9.198
 2593POPC   C1A36039   9.261  42.392   8.791
 2593POPC   D2A36040   9.078  42.275   8.421
 2593POPC   C3A36041   9.222  42.400   8.034
 2593POPC   C4A36042   9.014  42.674   7.795
 2593POPC   C1B36043   8.652  41.915   8.845
 2593POPC   C2B36044   8.609  42.056   8.384
 2593POPC   C3B36045   8.739  42.228   7.966
 2593POPC   C4B36046   8.532  42.154   7.546
 2594POPC   NC336047  36.631  14.113   9.589
 2594POPC   PO436048  36.966  14.603   9.391
 2594POPC   GL136049  36.739  14.414   9.067
 2594POPC   GL236050  36.866  14.091   9.091
 2594POPC   C1A36051  36.753  14.290   8.609
 2594POPC   D2A36052  36.666  13.974   8.295
 2594POPC   C3A36053  36.652  14.141   7.885
 2594POPC   C4A36054  36.594  14.572   7.820
 2594POPC   C1B36055  37.225  14.262   8.812
 2594POPC   C2B36056  37.311  14.378   8.425
 2594POPC   C3B36057  37.040  14.370   8.121
 2594POPC   C4B36058  37.092  14.363   7.702
 2595POPC   NC336059   1.290   5.645   9.578
 2595POPC   PO436060   1.701   6.182   9.420
 2595POPC   GL136061   1.372   5.968   9.169
 2595POPC   GL236062   1.044   5.970   9.246
 2595POPC   C1A36063   1.270   5.582   8.917
 2595POPC   D2A36064   1.199   5.406   8.495
 2595POPC   C3A36065   1.373   5.696   8.195
 2595POPC   C4A36066   1.392   5.650   7.760
 2595POPC   C1B36067   1.060   6.030   8.774
 2595POPC   C2B36068   1.267   6.164   8.392
 2595POPC   C3B36069   1.191   6.121   7.939
 2595POPC   C4B36070   0.878   5.875   7.793
 2596POPC   NC336071  18.301  33.141   9.457
 2596POPC   PO436072  18.890  32.935   9.718
 2596POPC   GL136073  18.636  32.838   9.252
 2596POPC   GL236074  18.303  32.646   9.196
 2596POPC   C1A36075  18.554  32.812   8.790
 2596POPC   D2A36076  18.402  33.034   8.424
 2596POPC   C3A36077  18.539  32.934   8.019
 2596POPC   C4A36078  18.326  33.108   7.692
 2596POPC   C1B36079  18.016  32.790   8.808
 2596POPC   C2B36080  17.859  33.065   8.470
 2596POPC   C3B36081  17.982  33.220   8.051
 2596POPC   C4B36082  17.847  33.262   7.595
 2597POPC   NC336083  41.551  34.790   9.486
 2597POPC   PO436084  42.022  34.254   9.440
 2597POPC   GL136085  41.750  34.519   9.096
 2597POPC   GL236086  41.483  34.827   8.993
 2597POPC   C1A36087  41.825  34.625   8.703
 2597POPC   D2A36088  41.792  34.417   8.358
 2597POPC   C3A36089  41.581  34.674   8.133
 2597POPC   C4A36090  41.488  34.505   7.762
 2597POPC   C1B36091  41.650  35.100   8.633
 2597POPC   C2B36092  41.683  35.183   8.174
 2597POPC   C3B36093  41.770  34.956   7.760
 2597POPC   C4B36094  41.505  34.834   7.388
 2598POPC   NC336095  15.638  41.826   9.470
 2598POPC   PO436096  16.126  41.353   9.671
 2598POPC   GL136097  16.137  41.377   9.234
 2598POPC   GL236098  16.060  41.674   9.149
 2598POPC   C1A36099  16.246  41.268   8.805
 2598POPC   D2A36100  16.356  41.313   8.362
 2598POPC   C3A36101  15.994  41.395   8.115
 2598POPC   C4A36102  15.937  41.487   7.686
 2598POPC   C1B36103  15.830  41.826   8.827
 2598POPC   C2B36104  15.833  41.781   8.420
 2598POPC   C3B36105  15.846  41.884   8.012
 2598POPC   C4B36106  15.757  41.969   7.603
 2599POPC   NC336107  34.311   3.111   9.577
 2599POPC   PO436108  34.907   2.828   9.458
 2599POPC   GL136109  34.763   2.701   9.108
 2599POPC   GL236110  34.433   2.754   9.211
 2599POPC   C1A36111  34.875   2.613   8.722
 2599POPC   D2A36112  34.740   2.784   8.365
 2599POPC   C3A36113  34.636   2.502   8.056
 2599POPC   C4A36114  34.505   2.745   7.718
 2599POPC   C1B36115  34.396   2.856   8.767
 2599POPC   C2B36116  34.252   2.574   8.435
 2599POPC   C3B36117  34.122   2.566   8.018
 2599POPC   C4B36118  34.011   2.656   7.598
 2600POPC   NC336119  44.387  27.454   9.493
 2600POPC   PO436120  44.989  27.195   9.392
 2600POPC   GL136121  44.717  27.379   9.081
 2600POPC   GL236122  44.634  27.721   9.117
 2600POPC   C1A36123  44.583  27.424   8.650
 2600POPC   D2A36124  44.775  27.365   8.248
 2600POPC   C3A36125  44.571  27.507   7.878
 2600POPC   C4A36126  44.282  27.340   7.562
 2600POPC   C1B36127  44.911  27.823   8.775
 2600POPC   C2B36128  44.902  27.845   8.340
 2600POPC   C3B36129   0.043  27.709   7.965
 2600POPC   C4B36130   0.158  27.982   7.665
 2601POPC   NC336131   3.507  26.533   9.487
 2601POPC   PO436132   3.123  27.028   9.400
 2601POPC   GL136133   3.489  26.889   9.112
 2601POPC   GL236134   3.822  26.668   9.122
 2601POPC   C1A36135   3.638  26.915   8.684
 2601POPC   D2A36136   3.704  26.776   8.262
 2601POPC   C3A36137   3.364  26.754   7.996
 2601POPC   C4A36138   3.367  26.831   7.565
 2601POPC   C1B36139   4.012  26.579   8.720
 2601POPC   C2B36140   4.023  26.385   8.307
 2601POPC   C3B36141   4.114  26.572   7.933
 2601POPC   C4B36142   3.905  26.850   7.620
 2602POPC   NC336143  43.733  24.601   9.609
 2602POPC   PO436144  44.201  24.237   9.367
 2602POPC   GL136145  44.008  24.506   9.056
 2602POPC   GL236146  43.707  24.746   9.095
 2602POPC   C1A36147  44.167  24.492   8.652
 2602POPC   D2A36148  43.969  24.636   8.283
 2602POPC   C3A36149  44.203  24.674   7.931
 2602POPC   C4A36150  44.138  24.500   7.565
 2602POPC   C1B36151  43.655  24.511   8.697
 2602POPC   C2B36152  43.490  24.385   8.300
 2602POPC   C3B36153  43.613  24.558   7.912
 2602POPC   C4B36154  43.687  24.328   7.553
 2603POPC   NC336155  17.044   6.838   9.307
 2603POPC   PO436156  16.665   6.397   9.648
 2603POPC   GL136157  16.532   6.475   9.172
 2603POPC   GL236158  16.609   6.218   8.942
 2603POPC   C1A36159  16.624   6.664   8.735
 2603POPC   D2A36160  16.543   6.414   8.351
 2603POPC   C3A36161  16.782   6.608   8.022
 2603POPC   C4A36162  16.875   6.984   7.767
 2603POPC   C1B36163  16.997   6.341   8.608
 2603POPC   C2B36164  17.229   6.179   8.256
 2603POPC   C3B36165  17.295   6.304   7.822
 2603POPC   C4B36166  16.991   6.488   7.578
 2604POPC   NC336167  10.907  31.141   9.459
 2604POPC   PO436168  11.326  31.604   9.597
 2604POPC   GL136169  11.283  31.421   9.231
 2604POPC   GL236170  10.999  31.630   9.154
 2604POPC   C1A36171  11.227  31.248   8.848
 2604POPC   D2A36172  11.183  31.443   8.455
 2604POPC   C3A36173  11.228  31.233   8.069
 2604POPC   C4A36174  11.333  31.359   7.671
 2604POPC   C1B36175  10.781  31.691   8.752
 2604POPC   C2B36176  10.823  31.781   8.304
 2604POPC   C3B36177  11.108  31.736   7.971
 2604POPC   C4B36178  10.955  31.665   7.566
 2605POPC   NC336179  36.149  15.544   9.621
 2605POPC   PO436180  36.090  16.198   9.534
 2605POPC   GL136181  36.020  16.052   9.145
 2605POPC   GL236182  36.288  16.218   9.030
 2605POPC   C1A36183  36.092  15.704   8.843
 2605POPC   D2A36184  35.859  15.625   8.432
 2605POPC   C3A36185  35.973  15.817   8.042
 2605POPC   C4A36186  35.884  15.736   7.634
 2605POPC   C1B36187  36.132  16.146   8.601
 2605POPC   C2B36188  36.386  15.915   8.314
 2605POPC   C3B36189  36.604  15.713   8.005
 2605POPC   C4B36190  36.364  15.636   7.686
 2606POPC   NC336191  21.914  40.127   9.656
 2606POPC   PO436192  22.034  39.515   9.472
 2606POPC   GL136193  21.982  39.895   9.174
 2606POPC   GL236194  22.176  40.238   9.042
 2606POPC   C1A36195  21.881  39.927   8.743
 2606POPC   D2A36196  21.988  40.232   8.419
 2606POPC   C3A36197  22.021  40.039   7.983
 2606POPC   C4A36198  21.937  39.673   7.714
 2606POPC   C1B36199  22.457  40.414   8.662
 2606POPC   C2B36200  22.504  40.476   8.180
 2606POPC   C3B36201  22.409  40.295   7.748
 2606POPC   C4B36202  22.350  40.476   7.314
 2607POPC   NC336203  11.554   1.872   9.399
 2607POPC   PO436204  11.033   1.659   9.799
 2607POPC   GL136205  11.085   2.027   9.377
 2607POPC   GL236206  10.864   2.014   9.141
 2607POPC   C1A36207  11.266   2.102   8.879
 2607POPC   D2A36208  11.532   2.080   8.493
 2607POPC   C3A36209  11.317   2.077   8.114
 2607POPC   C4A36210  11.444   1.885   7.751
 2607POPC   C1B36211  10.887   1.791   8.692
 2607POPC   C2B36212  10.903   1.733   8.212
 2607POPC   C3B36213  10.940   1.904   7.779
 2607POPC   C4B36214  11.112   1.647   7.420
 2608POPC   NC336215  38.002   4.660   9.458
 2608POPC   PO436216  38.646   4.911   9.442
 2608POPC   GL136217  38.521   5.167   9.089
 2608POPC   GL236218  38.287   5.444   9.203
 2608POPC   C1A36219  38.515   5.003   8.694
 2608POPC   D2A36220  38.318   5.039   8.313
 2608POPC   C3A36221  38.636   5.070   8.043
 2608POPC   C4A36222  38.765   4.938   7.680
 2608POPC   C1B36223  38.154   5.368   8.762
 2608POPC   C2B36224  38.170   5.586   8.367
 2608POPC   C3B36225  38.217   5.425   7.952
 2608POPC   C4B36226  38.222   4.991   7.778
 2609POPC   NC336227  30.399   3.696   9.883
 2609POPC   PO436228  29.943   3.268   9.495
 2609POPC   GL136229  29.754   3.511   9.133
 2609POPC   GL236230  29.483   3.301   9.023
 2609POPC   C1A36231  29.947   3.750   8.771
 2609POPC   D2A36232  30.301   3.741   8.473
 2609POPC   C3A36233  30.065   3.835   8.103
 2609POPC   C4A36234  29.960   3.672   7.736
 2609POPC   C1B36235  29.810   3.234   8.730
 2609POPC   C2B36236  29.909   3.419   8.373
 2609POPC   C3B36237  29.795   3.298   8.022
 2609POPC   C4B36238  29.551   3.352   7.681
 2610POPC   NC336239  40.216  18.514   9.445
 2610POPC   PO436240  39.730  18.069   9.400
 2610POPC   GL136241  39.970  18.266   9.089
 2610POPC   GL236242  40.300  18.175   9.058
 2610POPC   C1A36243  40.110  18.511   8.725
 2610POPC   D2A36244  40.229  18.333   8.358
 2610POPC   C3A36245  40.148  18.428   7.957
 2610POPC   C4A36246  40.222  18.054   7.737
 2610POPC   C1B36247  40.253  17.934   8.692
 2610POPC   C2B36248  39.981  17.879   8.314
 2610POPC   C3B36249  39.763  18.060   7.962
 2610POPC   C4B36250  39.777  17.986   7.512
 2611POPC   NC336251   6.200  19.829   9.424
 2611POPC   PO436252   5.492  19.795   9.394
 2611POPC   GL136253   5.828  19.696   9.046
 2611POPC   GL236254   6.200  19.602   8.984
 2611POPC   C1A36255   5.912  19.788   8.586
 2611POPC   D2A36256   5.647  19.837   8.235
 2611POPC   C3A36257   5.729  19.536   7.959
 2611POPC   C4A36258   6.091  19.453   7.749
 2611POPC   C1B36259   6.317  20.031   8.804
 2611POPC   C2B36260   6.210  20.159   8.402
 2611POPC   C3B36261   6.146  19.874   8.087
 2611POPC   C4B36262   6.052  19.967   7.673
 2612POPC   NC336263  22.400  12.566   9.440
 2612POPC   PO436264  21.954  12.058   9.550
 2612POPC   GL136265  22.292  12.043   9.219
 2612POPC   GL236266  22.432  11.657   9.202
 2612POPC   C1A36267  22.524  12.222   8.876
 2612POPC   D2A36268  22.396  12.379   8.506
 2612POPC   C3A36269  22.374  12.202   8.137
 2612POPC   C4A36270  22.069  12.220   7.848
 2612POPC   C1B36271  22.258  11.766   8.807
 2612POPC   C2B36272  22.369  11.762   8.413
 2612POPC   C3B36273  22.120  11.750   8.061
 2612POPC   C4B36274  22.156  11.740   7.649
 2613POPC   NC336275  37.396  11.091   9.461
 2613POPC   PO436276  36.896  11.515   9.750
 2613POPC   GL136277  36.858  11.523   9.293
 2613POPC   GL236278  36.906  11.192   9.338
 2613POPC   C1A36279  36.674  11.586   8.858
 2613POPC   D2A36280  36.851  11.735   8.467
 2613POPC   C3A36281  36.900  11.481   8.103
 2613POPC   C4A36282  36.642  11.440   7.747
 2613POPC   C1B36283  36.904  11.153   8.921
 2613POPC   C2B36284  36.790  11.184   8.517
 2613POPC   C3B36285  36.565  11.106   8.169
 2613POPC   C4B36286  36.864  10.992   7.866
 2614POPC   NC336287  16.068  33.260   9.633
 2614POPC   PO436288  15.611  32.825   9.594
 2614POPC   GL136289  15.852  32.988   9.189
 2614POPC   GL236290  16.089  33.278   9.127
 2614POPC   C1A36291  16.008  32.822   8.769
 2614POPC   D2A36292  15.826  32.913   8.386
 2614POPC   C3A36293  15.981  32.932   8.003
 2614POPC   C4A36294  15.719  32.918   7.642
 2614POPC   C1B36295  15.919  33.322   8.718
 2614POPC   C2B36296  15.783  33.414   8.291
 2614POPC   C3B36297  15.816  33.407   7.861
 2614POPC   C4B36298  16.110  33.257   7.605
 2615POPC   NC336299  29.612  13.938   9.381
 2615POPC   PO436300  29.178  14.537   9.381
 2615POPC   GL136301  29.237  14.247   9.106
 2615POPC   GL236302  28.886  14.116   9.113
 2615POPC   C1A36303  29.375  14.425   8.707
 2615POPC   D2A36304  29.484  14.232   8.349
 2615POPC   C3A36305  29.212  14.211   8.044
 2615POPC   C4A36306  29.423  14.161   7.698
 2615POPC   C1B36307  28.944  14.143   8.692
 2615POPC   C2B36308  28.909  14.453   8.403
 2615POPC   C3B36309  28.858  14.580   7.980
 2615POPC   C4B36310  29.173  14.603   7.694
 2616POPC   NC336311  32.949  10.704   9.517
 2616POPC   PO436312  32.906  10.028   9.540
 2616POPC   GL136313  32.953  10.309   9.183
 2616POPC   GL236314  33.251  10.283   9.030
 2616POPC   C1A36315  32.746  10.573   8.846
 2616POPC   D2A36316  32.750  10.706   8.390
 2616POPC   C3A36317  32.994  10.581   8.008
 2616POPC   C4A36318  33.324  10.832   7.793
 2616POPC   C1B36319  33.228  10.500   8.644
 2616POPC   C2B36320  33.428  10.619   8.266
 2616POPC   C3B36321  33.454  10.366   7.865
 2616POPC   C4B36322  33.201  10.225   7.530
 2617POPC   NC336323  17.646  10.862   9.497
 2617POPC   PO436324  17.319  10.285   9.500
 2617POPC   GL136325  17.491  10.489   9.157
 2617POPC   GL236326  17.785  10.433   9.027
 2617POPC   C1A36327  17.381  10.418   8.709
 2617POPC   D2A36328  17.717  10.463   8.389
 2617POPC   C3A36329  17.564  10.400   7.962
 2617POPC   C4A36330  17.304  10.510   7.619
 2617POPC   C1B36331  17.653  10.826   8.801
 2617POPC   C2B36332  17.520  10.946   8.384
 2617POPC   C3B36333  17.615  10.910   7.917
 2617POPC   C4B36334  17.606  11.074   7.445
 2618POPC   NC336335   4.849  23.988   9.471
 2618POPC   PO436336   5.239  23.435   9.667
 2618POPC   GL136337   5.144  23.556   9.243
 2618POPC   GL236338   4.854  23.319   9.252
 2618POPC   C1A36339   5.213  23.797   8.832
 2618POPC   D2A36340   5.058  23.940   8.412
 2618POPC   C3A36341   5.020  23.622   8.082
 2618POPC   C4A36342   5.206  23.768   7.686
 2618POPC   C1B36343   4.767  23.536   8.847
 2618POPC   C2B36344   4.603  23.700   8.456
 2618POPC   C3B36345   4.480  23.889   8.098
 2618POPC   C4B36346   4.737  23.911   7.760
 2619POPC   NC336347  10.911  18.398   9.474
 2619POPC   PO436348  10.164  18.148   9.535
 2619POPC   GL136349  10.381  18.289   9.192
 2619POPC   GL236350  10.295  17.963   9.038
 2619POPC   C1A36351  10.339  18.611   8.853
 2619POPC   D2A36352  10.506  18.708   8.443
 2619POPC   C3A36353  10.551  18.588   8.015
 2619POPC   C4A36354  10.604  18.484   7.582
 2619POPC   C1B36355  10.538  18.166   8.690
 2619POPC   C2B36356  10.488  18.136   8.249
 2619POPC   C3B36357  10.742  18.109   7.897
 2619POPC   C4B36358  10.929  17.769   7.727
 2620POPC   NC336359  11.895  18.692   9.556
 2620POPC   PO436360  12.114  18.017   9.489
 2620POPC   GL136361  11.957  18.176   9.158
 2620POPC   GL236362  12.090  18.498   9.106
 2620POPC   C1A36363  11.999  18.028   8.768
 2620POPC   D2A36364  11.857  18.160   8.395
 2620POPC   C3A36365  12.097  18.389   8.139
 2620POPC   C4A36366  11.954  18.100   7.817
 2620POPC   C1B36367  11.745  18.499   8.793
 2620POPC   C2B36368  11.598  18.609   8.384
 2620POPC   C3B36369  11.595  18.430   7.963
 2620POPC   C4B36370  11.709  18.351   7.473
 2621POPC   NC336371  41.410  42.465   9.401
 2621POPC   PO436372  42.135  42.568   9.301
 2621POPC   GL136373  41.806  42.505   9.068
 2621POPC   GL236374  41.679  42.207   9.010
 2621POPC   C1A36375  41.529  42.643   8.773
 2621POPC   D2A36376  41.372  42.543   8.405
 2621POPC   C3A36377  41.413  42.612   7.976
 2621POPC   C4A36378  41.534  42.263   7.722
 2621POPC   C1B36379  41.295  42.168   8.771
 2621POPC   C2B36380  41.208  42.041   8.372
 2621POPC   C3B36381  41.398  41.869   8.019
 2621POPC   C4B36382  41.267  41.799   7.617
 2622POPC   NC336383  30.122  28.312   9.462
 2622POPC   PO436384  30.607  28.461   9.801
 2622POPC   GL136385  30.586  28.378   9.251
 2622POPC   GL236386  30.824  28.622   9.032
 2622POPC   C1A36387  30.518  28.357   8.755
 2622POPC   D2A36388  30.801  28.549   8.385
 2622POPC   C3A36389  30.778  28.311   7.958
 2622POPC   C4A36390  30.419  28.011   7.839
 2622POPC   C1B36391  31.195  28.691   8.772
 2622POPC   C2B36392  31.251  28.891   8.380
 2622POPC   C3B36393  31.115  28.776   7.965
 2622POPC   C4B36394  30.974  28.675   7.516
 2623POPC   NC336395  27.100  20.555   9.621
 2623POPC   PO436396  26.681  20.025   9.517
 2623POPC   GL136397  26.770  20.431   9.251
 2623POPC   GL236398  26.519  20.726   9.188
 2623POPC   C1A36399  27.072  20.545   8.898
 2623POPC   D2A36400  27.218  20.475   8.465
 2623POPC   C3A36401  27.048  20.614   8.052
 2623POPC   C4A36402  27.335  20.781   7.745
 2623POPC   C1B36403  26.571  20.503   8.797
 2623POPC   C2B36404  26.655  20.629   8.417
 2623POPC   C3B36405  26.444  20.791   8.106
 2623POPC   C4B36406  26.585  20.652   7.747
 2624POPC   NC336407   5.435   8.508   9.780
 2624POPC   PO436408   5.067   7.985   9.634
 2624POPC   GL136409   4.942   8.265   9.312
 2624POPC   GL236410   5.052   7.950   9.115
 2624POPC   C1A36411   4.818   8.425   8.898
 2624POPC   D2A36412   4.677   8.493   8.446
 2624POPC   C3A36413   4.872   8.323   8.051
 2624POPC   C4A36414   4.818   8.219   7.607
 2624POPC   C1B36415   5.249   8.156   8.766
 2624POPC   C2B36416   5.216   8.063   8.361
 2624POPC   C3B36417   5.206   7.913   7.968
 2624POPC   C4B36418   5.319   8.204   7.709
 2625POPC   NC336419  35.355  25.802   9.437
 2625POPC   PO436420  35.707  26.295   9.416
 2625POPC   GL136421  35.374  26.210   9.086
 2625POPC   GL236422  35.071  26.008   9.083
 2625POPC   C1A36423  35.298  26.142   8.646
 2625POPC   D2A36424  35.425  25.811   8.320
 2625POPC   C3A36425  35.541  25.964   7.922
 2625POPC   C4A36426  35.266  26.135   7.622
 2625POPC   C1B36427  35.142  25.681   8.772
 2625POPC   C2B36428  34.952  25.570   8.359
 2625POPC   C3B36429  35.115  25.680   7.911
 2625POPC   C4B36430  35.432  25.494   7.671
 2626POPC   NC336431   4.111  34.485   9.410
 2626POPC   PO436432   4.708  34.754   9.559
 2626POPC   GL136433   4.490  34.781   9.183
 2626POPC   GL236434   4.545  34.445   9.113
 2626POPC   C1A36435   4.303  34.716   8.761
 2626POPC   D2A36436   4.117  34.924   8.407
 2626POPC   C3A36437   4.244  34.786   8.012
 2626POPC   C4A36438   4.170  34.825   7.578
 2626POPC   C1B36439   4.647  34.299   8.673
 2626POPC   C2B36440   4.599  34.445   8.221
 2626POPC   C3B36441   4.415  34.342   7.785
 2626POPC   C4B36442   4.424  34.482   7.315
 2627POPC   NC336443  12.022  23.015   9.655
 2627POPC   PO436444  12.349  22.469   9.596
 2627POPC   GL136445  12.321  22.799   9.158
 2627POPC   GL236446  12.184  23.120   9.176
 2627POPC   C1A36447  12.155  22.908   8.724
 2627POPC   D2A36448  12.130  22.849   8.278
 2627POPC   C3A36449  11.902  23.049   7.935
 2627POPC   C4A36450  11.995  22.807   7.560
 2627POPC   C1B36451  12.357  23.386   8.876
 2627POPC   C2B36452  12.346  23.309   8.448
 2627POPC   C3B36453  12.394  23.249   8.027
 2627POPC   C4B36454  12.248  23.254   7.600
 2628POPC   NC336455  26.626  44.680   9.590
 2628POPC   PO436456  27.086  44.211   9.598
 2628POPC   GL136457  26.968  44.508   9.259
 2628POPC   GL236458  27.230  44.650   9.091
 2628POPC   C1A36459  26.779  44.750   8.908
 2628POPC   D2A36460  26.947  44.615   8.528
 2628POPC   C3A36461  26.888  44.567   8.079
 2628POPC   C4A36462  26.673  44.719   7.721
 2628POPC   C1B36463  27.329  44.889   8.726
 2628POPC   C2B36464  27.205   0.001   8.274
 2628POPC   C3B36465  27.260  44.832   7.834
 2628POPC   C4B36466  27.098  44.497   7.536
 2629POPC   NC336467  31.670  44.554   9.497
 2629POPC   PO436468  31.156   0.000   9.401
 2629POPC   GL136469  31.473  44.852   9.135
 2629POPC   GL236470  31.869  44.884   9.128
 2629POPC   C1A36471  31.402  44.547   8.841
 2629POPC   D2A36472  31.190  44.436   8.470
 2629POPC   C3A36473  31.364  44.298   8.123
 2629POPC   C4A36474  31.338  44.555   7.780
 2629POPC   C1B36475  31.714  44.930   8.704
 2629POPC   C2B36476  31.674  44.653   8.352
 2629POPC   C3B36477  31.817  44.634   7.924
 2629POPC   C4B36478  31.730  44.865   7.526
 2630POPC   NC336479  30.842   4.482   9.451
 2630POPC   PO436480  30.538   3.938   9.374
 2630POPC   GL136481  30.604   4.224   9.062
 2630POPC   GL236482  30.412   4.556   9.154
 2630POPC   C1A36483  30.623   4.138   8.619
 2630POPC   D2A36484  30.396   4.198   8.237
 2630POPC   C3A36485  30.674   4.275   7.901
 2630POPC   C4A36486  30.722   4.202   7.456
 2630POPC   C1B36487  30.694   4.626   8.779
 2630POPC   C2B36488  30.651   4.639   8.328
 2630POPC   C3B36489  30.752   4.771   7.903
 2630POPC   C4B36490  30.793   4.722   7.444
 2631POPC   NC336491  26.712   2.888   9.625
 2631POPC   PO436492  27.090   2.327   9.506
 2631POPC   GL136493  27.008   2.685   9.229
 2631POPC   GL236494  26.643   2.780   9.137
 2631POPC   C1A36495  26.961   2.655   8.781
 2631POPC   D2A36496  26.875   2.829   8.395
 2631POPC   C3A36497  26.943   2.516   8.099
 2631POPC   C4A36498  26.997   2.603   7.675
 2631POPC   C1B36499  26.429   2.739   8.719
 2631POPC   C2B36500  26.431   2.614   8.272
 2631POPC   C3B36501  26.578   2.812   7.899
 2631POPC   C4B36502  26.446   3.055   7.553
 2632POPC   NC336503  15.428  26.718   9.556
 2632POPC   PO436504  14.787  26.566   9.576
 2632POPC   GL136505  14.987  26.695   9.212
 2632POPC   GL236506  15.229  26.483   9.133
 2632POPC   C1A36507  14.960  26.870   8.824
 2632POPC   D2A36508  15.193  26.813   8.482
 2632POPC   C3A36509  15.034  26.832   8.105
 2632POPC   C4A36510  15.195  26.770   7.730
 2632POPC   C1B36511  15.109  26.360   8.701
 2632POPC   C2B36512  15.182  26.357   8.223
 2632POPC   C3B36513  15.274  26.288   7.772
 2632POPC   C4B36514  15.174  26.432   7.300
 2633POPC   NC336515  24.810  19.492   9.619
 2633POPC   PO436516  24.611  18.834   9.645
 2633POPC   GL136517  24.614  18.861   9.205
 2633POPC   GL236518  24.532  19.224   9.249
 2633POPC   C1A36519  24.340  18.864   8.846
 2633POPC   D2A36520  24.321  18.726   8.452
 2633POPC   C3A36521  24.188  18.987   8.102
 2633POPC   C4A36522  24.436  18.844   7.767
 2633POPC   C1B36523  24.729  19.231   8.854
 2633POPC   C2B36524  24.498  19.221   8.485
 2633POPC   C3B36525  24.666  19.095   8.134
 2633POPC   C4B36526  24.831  19.201   7.777
 2634POPC   NC336527  41.148  37.314   9.421
 2634POPC   PO436528  40.482  36.928   9.469
 2634POPC   GL136529  40.804  36.885   9.167
 2634POPC   GL236530  40.815  37.222   9.024
 2634POPC   C1A36531  40.902  36.787   8.733
 2634POPC   D2A36532  40.744  36.954   8.353
 2634POPC   C3A36533  40.882  36.847   7.955
 2634POPC   C4A36534  41.023  37.223   7.820
 2634POPC   C1B36535  40.447  37.117   8.739
 2634POPC   C2B36536  40.278  37.217   8.292
 2634POPC   C3B36537  40.474  37.214   7.858
 2634POPC   C4B36538  40.646  37.290   7.417
 2635POPC   NC336539  29.028  29.364   9.424
 2635POPC   PO436540  29.608  29.730   9.465
 2635POPC   GL136541  29.457  29.385   9.131
 2635POPC   GL236542  29.081  29.403   8.943
 2635POPC   C1A36543  29.444  29.119   8.744
 2635POPC   D2A36544  29.471  29.258   8.325
 2635POPC   C3A36545  29.433  29.001   8.010
 2635POPC   C4A36546  29.358  29.020   7.611
 2635POPC   C1B36547  29.019  29.376   8.541
 2635POPC   C2B36548  29.014  29.019   8.290
 2635POPC   C3B36549  29.011  29.254   7.916
 2635POPC   C4B36550  29.024  29.526   7.584
 2636POPC   NC336551  23.335  14.490   9.588
 2636POPC   PO436552  22.679  14.345   9.629
 2636POPC   GL136553  22.884  14.411   9.223
 2636POPC   GL236554  23.142  14.657   9.143
 2636POPC   C1A36555  22.754  14.546   8.813
 2636POPC   D2A36556  22.799  14.702   8.412
 2636POPC   C3A36557  22.629  14.468   8.070
 2636POPC   C4A36558  22.821  14.226   7.733
 2636POPC   C1B36559  23.384  14.701   8.759
 2636POPC   C2B36560  23.409  14.526   8.329
 2636POPC   C3B36561  23.155  14.559   7.958
 2636POPC   C4B36562  23.066  14.618   7.481
 2637POPC   NC336563  20.005  38.898   9.417
 2637POPC   PO436564  19.700  39.727   9.420
 2637POPC   GL136565  19.828  39.541   9.073
 2637POPC   GL236566  19.826  39.185   9.051
 2637POPC   C1A36567  19.658  39.521   8.675
 2637POPC   D2A36568  19.532  39.350   8.289
 2637POPC   C3A36569  19.745  39.498   7.919
 2637POPC   C4A36570  20.031  39.265   7.675
 2637POPC   C1B36571  19.782  38.999   8.677
 2637POPC   C2B36572  20.138  38.863   8.471
 2637POPC   C3B36573  20.105  38.872   8.000
 2637POPC   C4B36574  19.942  38.733   7.593
 2638POPC   NC336575  20.044  43.603   9.446
 2638POPC   PO436576  19.615  44.141   9.436
 2638POPC   GL136577  19.835  43.940   9.090
 2638POPC   GL236578  20.209  43.873   9.051
 2638POPC   C1A36579  19.939  43.988   8.651
 2638POPC   D2A36580  19.936  44.193   8.282
 2638POPC   C3A36581  19.811  43.949   7.945
 2638POPC   C4A36582  19.718  43.886   7.508
 2638POPC   C1B36583  20.212  43.544   8.752
 2638POPC   C2B36584  20.148  43.426   8.334
 2638POPC   C3B36585  20.224  43.626   7.928
 2638POPC   C4B36586  20.436  43.810   7.576
 2639POPC   NC336587  10.157  30.752   9.762
 2639POPC   PO436588  10.447  30.183   9.478
 2639POPC   GL136589  10.605  30.408   9.114
 2639POPC   GL236590  10.544  30.782   9.121
 2639POPC   C1A36591  10.673  30.414   8.671
 2639POPC   D2A36592  10.410  30.385   8.307
 2639POPC   C3A36593  10.497  30.575   7.903
 2639POPC   C4A36594  10.811  30.685   7.600
 2639POPC   C1B36595  10.301  30.781   8.703
 2639POPC   C2B36596  10.141  30.825   8.269
 2639POPC   C3B36597  10.239  31.056   7.915
 2639POPC   C4B36598  10.413  30.974   7.540
 2640POPC   NC336599  17.075  26.839   9.622
 2640POPC   PO436600  16.449  27.115   9.416
 2640POPC   GL136601  16.693  26.838   9.171
 2640POPC   GL236602  17.036  26.941   9.101
 2640POPC   C1A36603  16.557  26.785   8.731
 2640POPC   D2A36604  16.516  26.981   8.307
 2640POPC   C3A36605  16.617  26.671   7.977
 2640POPC   C4A36606  16.552  26.843   7.556
 2640POPC   C1B36607  17.007  26.587   8.829
 2640POPC   C2B36608  16.968  26.765   8.394
 2640POPC   C3B36609  17.131  26.685   7.980
 2640POPC   C4B36610  17.086  26.406   7.615
 2641POPC   NC336611  29.355   8.538   9.492
 2641POPC   PO436612  28.918   9.060   9.466
 2641POPC   GL136613  29.027   8.756   9.154
 2641POPC   GL236614  29.399   8.846   9.105
 2641POPC   C1A36615  29.062   8.748   8.713
 2641POPC   D2A36616  28.855   8.759   8.342
 2641POPC   C3A36617  29.094   8.853   7.971
 2641POPC   C4A36618  29.342   9.173   7.767
 2641POPC   C1B36619  29.241   9.193   8.849
 2641POPC   C2B36620  29.140   9.193   8.402
 2641POPC   C3B36621  28.888   9.329   8.050
 2641POPC   C4B36622  28.941   9.531   7.678
 2642POPC   NC336623  44.319  32.179   9.575
 2642POPC   PO436624  44.934  32.124   9.533
 2642POPC   GL136625  44.690  32.356   9.196
 2642POPC   GL236626  44.337  32.420   9.143
 2642POPC   C1A36627  44.643  32.295   8.757
 2642POPC   D2A36628  44.609  32.490   8.365
 2642POPC   C3A36629  44.630  32.201   8.030
 2642POPC   C4A36630  44.652  32.463   7.672
 2642POPC   C1B36631  44.163  32.087   8.878
 2642POPC   C2B36632  44.284  32.102   8.444
 2642POPC   C3B36633  44.158  32.041   8.044
 2642POPC   C4B36634  44.269  32.126   7.652
 2643POPC   NC336635  20.051   6.769   9.480
 2643POPC   PO436636  19.411   6.884   9.413
 2643POPC   GL136637  19.695   6.695   9.103
 2643POPC   GL236638  20.009   6.482   9.091
 2643POPC   C1A36639  19.882   6.773   8.697
 2643POPC   D2A36640  19.678   6.765   8.320
 2643POPC   C3A36641  19.865   6.676   7.937
 2643POPC   C4A36642  19.813   6.862   7.563
 2643POPC   C1B36643  20.149   6.319   8.754
 2643POPC   C2B36644  19.998   6.368   8.369
 2643POPC   C3B36645  20.188   6.291   8.019
 2643POPC   C4B36646  20.004   6.236   7.656
 2644POPC   NC336647  43.718  29.948   9.881
 2644POPC   PO436648  44.008  30.265   9.341
 2644POPC   GL136649  43.986  29.882   9.116
 2644POPC   GL236650  44.266  29.804   8.911
 2644POPC   C1A36651  43.745  29.762   8.739
 2644POPC   D2A36652  43.984  29.742   8.362
 2644POPC   C3A36653  43.975  29.763   7.911
 2644POPC   C4A36654  43.942  30.167   7.753
 2644POPC   C1B36655  44.048  30.166   8.690
 2644POPC   C2B36656  44.027  30.319   8.285
 2644POPC   C3B36657  44.357  30.375   7.994
 2644POPC   C4B36658  44.315  30.383   7.500
 2645POPC   NC336659  36.952   0.021   9.359
 2645POPC   PO436660  36.682  44.381   9.478
 2645POPC   GL136661  36.899  44.546   9.130
 2645POPC   GL236662  37.266  44.615   9.199
 2645POPC   C1A36663  36.706  44.579   8.714
 2645POPC   D2A36664  36.474  44.479   8.323
 2645POPC   C3A36665  36.697  44.613   7.928
 2645POPC   C4A36666  36.856  44.664   7.490
 2645POPC   C1B36667  37.206  44.758   8.754
 2645POPC   C2B36668  37.094  44.550   8.345
 2645POPC   C3B36669  37.203  44.513   7.900
 2645POPC   C4B36670  37.393  44.601   7.463
 2646POPC   NC336671  10.025  34.691   9.583
 2646POPC   PO436672   9.522  34.351   9.763
 2646POPC   GL136673   9.600  34.613   9.315
 2646POPC   GL236674   9.856  34.414   9.160
 2646POPC   C1A36675   9.760  34.881   8.928
 2646POPC   D2A36676   9.951  34.683   8.554
 2646POPC   C3A36677   9.949  34.842   8.137
 2646POPC   C4A36678   9.864  34.701   7.733
 2646POPC   C1B36679   9.554  34.436   8.796
 2646POPC   C2B36680   9.544  34.380   8.388
 2646POPC   C3B36681   9.674  34.302   8.001
 2646POPC   C4B36682   9.453  34.160   7.698
 2647POPC   NC336683  22.019  17.990   9.431
 2647POPC   PO436684  22.219  18.672   9.547
 2647POPC   GL136685  22.151  18.449   9.159
 2647POPC   GL236686  22.430  18.205   9.159
 2647POPC   C1A36687  22.131  18.255   8.734
 2647POPC   D2A36688  22.072  18.363   8.325
 2647POPC   C3A36689  22.000  18.160   8.000
 2647POPC   C4A36690  21.977  18.481   7.733
 2647POPC   C1B36691  22.635  18.125   8.753
 2647POPC   C2B36692  22.561  18.386   8.379
 2647POPC   C3B36693  22.468  18.427   7.943
 2647POPC   C4B36694  22.602  18.066   7.701
 2648POPC   NC336695  25.451  11.736   9.547
 2648POPC   PO436696  25.312  12.427   9.539
 2648POPC   GL136697  25.243  12.121   9.275
 2648POPC   GL236698  25.575  12.060   9.138
 2648POPC   C1A36699  25.130  11.972   8.891
 2648POPC   D2A36700  25.324  12.034   8.524
 2648POPC   C3A36701  25.109  12.105   8.153
 2648POPC   C4A36702  24.982  11.964   7.730
 2648POPC   C1B36703  25.517  12.411   8.837
 2648POPC   C2B36704  25.359  12.527   8.410
 2648POPC   C3B36705  25.520  12.475   8.013
 2648POPC   C4B36706  25.521  12.438   7.568
 2649POPC   NC336707   7.754  12.854   9.447
 2649POPC   PO436708   7.194  12.547   9.369
 2649POPC   GL136709   7.379  12.854   9.089
 2649POPC   GL236710   7.555  13.214   9.130
 2649POPC   C1A36711   7.223  13.027   8.725
 2649POPC   D2A36712   7.141  12.864   8.310
 2649POPC   C3A36713   7.279  13.108   7.977
 2649POPC   C4A36714   7.346  13.040   7.603
 2649POPC   C1B36715   7.742  13.018   8.771
 2649POPC   C2B36716   7.610  13.075   8.363
 2649POPC   C3B36717   7.775  12.963   7.942
 2649POPC   C4B36718   7.849  12.577   7.711
 2650POPC   NC336719  36.861  38.161   9.660
 2650POPC   PO436720  37.398  38.514   9.580
 2650POPC   GL136721  37.062  38.377   9.233
 2650POPC   GL236722  36.751  38.126   9.175
 2650POPC   C1A36723  36.950  38.439   8.796
 2650POPC   D2A36724  37.170  38.414   8.421
 2650POPC   C3A36725  36.938  38.450   8.053
 2650POPC   C4A36726  37.026  38.504   7.650
 2650POPC   C1B36727  36.680  37.983   8.777
 2650POPC   C2B36728  36.756  38.104   8.402
 2650POPC   C3B36729  36.768  37.914   8.043
 2650POPC   C4B36730  36.645  38.109   7.700
 2651POPC   NC336731  18.441  36.406   9.419
 2651POPC   PO436732  18.573  35.804   9.679
 2651POPC   GL136733  18.481  35.969   9.197
 2651POPC   GL236734  18.155  36.112   9.108
 2651POPC   C1A36735  18.589  36.260   8.802
 2651POPC   D2A36736  18.549  36.440   8.346
 2651POPC   C3A36737  18.483  36.189   7.959
 2651POPC   C4A36738  18.369  36.229   7.515
 2651POPC   C1B36739  18.101  36.239   8.661
 2651POPC   C2B36740  18.026  36.272   8.210
 2651POPC   C3B36741  18.011  36.018   7.850
 2651POPC   C4B36742  18.331  35.729   7.731
 2652POPC   NC336743   3.795  19.311   9.541
 2652POPC   PO436744   3.153  19.191   9.489
 2652POPC   GL136745   3.358  19.293   9.131
 2652POPC   GL236746   3.714  19.352   9.053
 2652POPC   C1A36747   3.390  19.092   8.749
 2652POPC   D2A36748   3.149  18.934   8.442
 2652POPC   C3A36749   3.497  18.842   8.189
 2652POPC   C4A36750   3.562  18.970   7.787
 2652POPC   C1B36751   3.924  19.568   8.759
 2652POPC   C2B36752   3.719  19.343   8.471
 2652POPC   C3B36753   3.677  19.340   8.089
 2652POPC   C4B36754   3.981  19.224   7.734
 2653POPC   NC336755  33.371  10.038   9.488
 2653POPC   PO436756  33.813   9.606   9.529
 2653POPC   GL136757  33.789   9.737   9.105
 2653POPC   GL236758  33.476   9.834   9.037
 2653POPC   C1A36759  33.782   9.709   8.652
 2653POPC   D2A36760  33.590   9.662   8.269
 2653POPC   C3A36761  33.901   9.618   7.958
 2653POPC   C4A36762  34.295   9.792   7.831
 2653POPC   C1B36763  33.294   9.946   8.622
 2653POPC   C2B36764  33.206  10.018   8.170
 2653POPC   C3B36765  33.447   9.855   7.804
 2653POPC   C4B36766  33.374   9.763   7.361
 2654POPC   NC336767  20.847   3.485   9.866
 2654POPC   PO436768  20.386   3.615   9.597
 2654POPC   GL136769  20.426   3.801   9.178
 2654POPC   GL236770  20.154   3.660   8.983
 2654POPC   C1A36771  20.635   3.774   8.743
 2654POPC   D2A36772  20.650   3.455   8.392
 2654POPC   C3A36773  20.728   3.495   7.956
 2654POPC   C4A36774  20.549   3.519   7.591
 2654POPC   C1B36775  20.192   3.650   8.522
 2654POPC   C2B36776  20.229   3.610   8.050
 2654POPC   C3B36777  20.302   3.932   7.734
 2654POPC   C4B36778  20.564   3.978   7.336
 2655POPC   NC336779  29.155  38.991   9.788
 2655POPC   PO436780  29.409  39.600   9.642
 2655POPC   GL136781  29.360  39.358   9.257
 2655POPC   GL236782  29.413  39.587   8.981
 2655POPC   C1A36783  29.480  39.085   8.912
 2655POPC   D2A36784  29.266  38.895   8.568
 2655POPC   C3A36785  29.358  38.924   8.142
 2655POPC   C4A36786  29.425  39.057   7.750
 2655POPC   C1B36787  29.110  39.386   8.676
 2655POPC   C2B36788  28.938  39.205   8.285
 2655POPC   C3B36789  29.028  39.336   7.871
 2655POPC   C4B36790  29.099  39.754   7.675
 2656POPC   NC336791  16.597  32.010   9.877
 2656POPC   PO436792  17.012  32.480   9.539
 2656POPC   GL136793  16.757  32.227   9.213
 2656POPC   GL236794  16.455  32.350   9.107
 2656POPC   C1A36795  16.640  32.034   8.794
 2656POPC   D2A36796  16.468  32.109   8.413
 2656POPC   C3A36797  16.793  31.927   8.183
 2656POPC   C4A36798  16.763  31.988   7.768
 2656POPC   C1B36799  16.468  32.566   8.719
 2656POPC   C2B36800  16.414  32.682   8.301
 2656POPC   C3B36801  16.512  32.400   7.971
 2656POPC   C4B36802  16.782  32.490   7.615
 2657POPC   NC336803  32.735  28.695   9.420
 2657POPC   PO436804  33.202  29.119   9.339
 2657POPC   GL136805  33.012  29.307   9.009
 2657POPC   GL236806  32.725  29.123   9.067
 2657POPC   C1A36807  32.952  29.323   8.559
 2657POPC   D2A36808  33.149  29.087   8.228
 2657POPC   C3A36809  33.145  29.355   7.918
 2657POPC   C4A36810  33.298  29.428   7.530
 2657POPC   C1B36811  32.556  29.009   8.656
 2657POPC   C2B36812  32.599  29.066   8.208
 2657POPC   C3B36813  32.775  29.039   7.793
 2657POPC   C4B36814  32.711  29.119   7.336
 2658POPC   NC336815   8.093  25.771   9.186
 2658POPC   PO436816   7.898  26.430   9.350
 2658POPC   GL136817   8.114  26.264   9.078
 2658POPC   GL236818   8.416  26.318   9.164
 2658POPC   C1A36819   8.265  26.143   8.700
 2658POPC   D2A36820   8.143  25.867   8.474
 2658POPC   C3A36821   8.171  25.885   8.055
 2658POPC   C4A36822   7.809  26.048   7.866
 2658POPC   C1B36823   8.610  26.488   8.758
 2658POPC   C2B36824   8.519  26.561   8.306
 2658POPC   C3B36825   8.435  26.329   7.928
 2658POPC   C4B36826   8.363  26.048   7.613
 2659POPC   NC336827   3.106   3.946   9.423
 2659POPC   PO436828   2.528   3.607   9.676
 2659POPC   GL136829   2.536   3.697   9.264
 2659POPC   GL236830   2.874   3.554   9.164
 2659POPC   C1A36831   2.516   3.707   8.828
 2659POPC   D2A36832   2.511   3.398   8.522
 2659POPC   C3A36833   2.660   3.580   8.143
 2659POPC   C4A36834   2.876   3.429   7.783
 2659POPC   C1B36835   3.050   3.427   8.745
 2659POPC   C2B36836   3.173   3.583   8.316
 2659POPC   C3B36837   3.320   3.681   7.895
 2659POPC   C4B36838   3.185   3.709   7.461
 2660POPC   NC336839   7.776  36.797   9.699
 2660POPC   PO436840   7.102  36.973   9.478
 2660POPC   GL136841   7.397  37.064   9.174
 2660POPC   GL236842   7.481  36.728   9.151
 2660POPC   C1A36843   7.459  37.041   8.726
 2660POPC   D2A36844   7.492  36.828   8.320
 2660POPC   C3A36845   7.586  37.084   7.962
 2660POPC   C4A36846   7.296  37.077   7.579
 2660POPC   C1B36847   7.699  36.581   8.779
 2660POPC   C2B36848   7.945  36.549   8.404
 2660POPC   C3B36849   7.931  36.675   7.992
 2660POPC   C4B36850   7.545  36.614   7.784
 2661POPC   NC336851  32.947  16.373   9.302
 2661POPC   PO436852  32.653  16.989   9.390
 2661POPC   GL136853  32.849  16.795   9.030
 2661POPC   GL236854  33.161  16.743   9.006
 2661POPC   C1A36855  32.944  16.629   8.576
 2661POPC   D2A36856  32.688  16.828   8.257
 2661POPC   C3A36857  32.777  16.865   7.826
 2661POPC   C4A36858  32.791  16.622   7.467
 2661POPC   C1B36859  33.452  16.503   8.785
 2661POPC   C2B36860  33.429  16.610   8.341
 2661POPC   C3B36861  33.159  16.544   7.981
 2661POPC   C4B36862  33.284  16.378   7.566
 2662POPC   NC336863   0.228  35.044   9.624
 2662POPC   PO436864   0.607  35.564   9.424
 2662POPC   GL136865   0.553  35.444   9.038
 2662POPC   GL236866   0.293  35.224   9.120
 2662POPC   C1A36867   0.731  35.223   8.684
 2662POPC   D2A36868   0.877  35.329   8.253
 2662POPC   C3A36869   0.591  35.187   7.925
 2662POPC   C4A36870   0.350  35.496   7.705
 2662POPC   C1B36871   0.203  35.337   8.675
 2662POPC   C2B36872   0.200  35.112   8.288
 2662POPC   C3B36873   0.076  35.091   7.867
 2662POPC   C4B36874   0.205  34.982   7.443
 2663POPC   NC336875  11.777  32.915   9.598
 2663POPC   PO436876  12.312  32.497   9.683
 2663POPC   GL136877  12.291  32.724   9.264
 2663POPC   GL236878  12.084  33.051   9.183
 2663POPC   C1A36879  12.292  32.743   8.806
 2663POPC   D2A36880  12.378  32.671   8.354
 2663POPC   C3A36881  12.286  33.007   8.035
 2663POPC   C4A36882  12.317  33.355   7.723
 2663POPC   C1B36883  11.875  33.196   8.774
 2663POPC   C2B36884  11.891  33.316   8.325
 2663POPC   C3B36885  11.837  33.190   7.883
 2663POPC   C4B36886  11.918  33.225   7.425
 2664POPC   NC336887  42.606   2.380   9.418
 2664POPC   PO436888  42.128   2.736   9.761
 2664POPC   GL136889  42.217   2.708   9.301
 2664POPC   GL236890  42.342   3.036   9.168
 2664POPC   C1A36891  42.274   2.611   8.849
 2664POPC   D2A36892  42.472   2.567   8.445
 2664POPC   C3A36893  42.249   2.608   8.061
 2664POPC   C4A36894  42.317   2.702   7.659
 2664POPC   C1B36895  42.172   3.124   8.769
 2664POPC   C2B36896  42.289   3.036   8.359
 2664POPC   C3B36897  42.093   3.087   7.954
 2664POPC   C4B36898  42.260   3.188   7.580
 2665POPC   NC336899  43.423  26.221   9.505
 2665POPC   PO436900  42.990  25.696   9.468
 2665POPC   GL136901  43.014  25.855   9.057
 2665POPC   GL236902  43.331  25.881   9.104
 2665POPC   C1A36903  43.034  25.891   8.585
 2665POPC   D2A36904  43.126  25.774   8.155
 2665POPC   C3A36905  42.881  25.873   7.787
 2665POPC   C4A36906  42.793  25.780   7.353
 2665POPC   C1B36907  43.369  25.561   8.791
 2665POPC   C2B36908  43.562  25.590   8.386
 2665POPC   C3B36909  43.500  25.482   7.978
 2665POPC   C4B36910  43.384  25.803   7.649
 2666POPC   NC336911  34.515  11.229   9.860
 2666POPC   PO436912  35.011  11.550   9.582
 2666POPC   GL136913  34.834  11.366   9.166
 2666POPC   GL236914  34.458  11.304   9.151
 2666POPC   C1A36915  34.743  11.124   8.763
 2666POPC   D2A36916  34.552  11.216   8.363
 2666POPC   C3A36917  34.723  11.088   7.995
 2666POPC   C4A36918  34.742  11.288   7.613
 2666POPC   C1B36919  34.213  11.275   8.730
 2666POPC   C2B36920  34.072  11.420   8.306
 2666POPC   C3B36921  34.202  11.218   7.920
 2666POPC   C4B36922  34.245  11.189   7.459
 2667POPC   NC336923  30.721  23.933   9.620
 2667POPC   PO436924  30.319  23.462   9.741
 2667POPC   GL136925  30.479  23.501   9.279
 2667POPC   GL236926  30.287  23.290   9.051
 2667POPC   C1A36927  30.534  23.686   8.796
 2667POPC   D2A36928  30.422  23.977   8.433
 2667POPC   C3A36929  30.454  23.849   7.986
 2667POPC   C4A36930  30.830  23.892   7.739
 2667POPC   C1B36931  30.521  23.208   8.645
 2667POPC   C2B36932  30.603  23.409   8.230
 2667POPC   C3B36933  30.746  23.400   7.790
 2667POPC   C4B36934  30.899  23.506   7.338
 2668POPC   NC336935  44.834  44.267   9.545
 2668POPC   PO436936  44.313  44.802   9.568
 2668POPC   GL136937  44.500  44.724   9.163
 2668POPC   GL236938  44.636  44.402   9.087
 2668POPC   C1A36939  44.648  44.766   8.727
 2668POPC   D2A36940  44.702  44.508   8.347
 2668POPC   C3A36941  44.721  44.731   7.964
 2668POPC   C4A36942  44.444  44.984   7.732
 2668POPC   C1B36943  44.879  44.199   8.741
 2668POPC   C2B36944   0.104  44.208   8.325
 2668POPC   C3B36945  44.942  44.254   7.904
 2668POPC   C4B36946  44.927  44.528   7.504
 2669POPC   NC336947  23.061   8.695   9.531
 2669POPC   PO436948  22.742   9.255   9.541
 2669POPC   GL136949  22.837   9.000   9.171
 2669POPC   GL236950  22.681   8.651   9.198
 2669POPC   C1A36951  23.147   9.066   8.832
 2669POPC   D2A36952  23.306   9.189   8.410
 2669POPC   C3A36953  23.068   8.948   8.106
 2669POPC   C4A36954  22.992   8.636   7.801
 2669POPC   C1B36955  22.557   8.728   8.771
 2669POPC   C2B36956  22.729   8.644   8.350
 2669POPC   C3B36957  22.514   8.647   7.961
 2669POPC   C4B36958  22.539   8.762   7.529
 2670POPC   NC336959  15.054  28.668   9.604
 2670POPC   PO436960  15.294  28.094   9.507
 2670POPC   GL136961  15.161  28.261   9.113
 2670POPC   GL236962  15.191  28.587   9.141
 2670POPC   C1A36963  15.354  28.409   8.715
 2670POPC   D2A36964  15.187  28.349   8.353
 2670POPC   C3A36965  15.362  28.185   8.011
 2670POPC   C4A36966  15.077  28.310   7.720
 2670POPC   C1B36967  14.919  28.707   8.840
 2670POPC   C2B36968  14.981  28.821   8.441
 2670POPC   C3B36969  14.928  28.674   8.040
 2670POPC   C4B36970  14.775  28.784   7.654
 2671POPC   NC336971  26.927  25.472   9.476
 2671POPC   PO436972  26.416  25.240   9.412
 2671POPC   GL136973  26.696  25.313   9.031
 2671POPC   GL236974  26.821  25.657   9.007
 2671POPC   C1A36975  26.990  25.294   8.662
 2671POPC   D2A36976  27.218  25.187   8.274
 2671POPC   C3A36977  26.983  24.983   7.956
 2671POPC   C4A36978  26.798  25.026   7.568
 2671POPC   C1B36979  26.631  25.650   8.585
 2671POPC   C2B36980  26.742  25.436   8.195
 2671POPC   C3B36981  27.021  25.501   7.872
 2671POPC   C4B36982  27.323  25.707   7.570
 2672POPC   NC336983   7.643  13.847   9.487
 2672POPC   PO436984   7.139  13.374   9.399
 2672POPC   GL136985   7.255  13.697   9.117
 2672POPC   GL236986   7.596  13.739   9.004
 2672POPC   C1A36987   7.227  13.625   8.692
 2672POPC   D2A36988   7.204  13.392   8.376
 2672POPC   C3A36989   7.157  13.602   8.014
 2672POPC   C4A36990   7.238  13.537   7.581
 2672POPC   C1B36991   7.736  13.524   8.631
 2672POPC   C2B36992   7.766  13.516   8.181
 2672POPC   C3B36993   7.683  13.432   7.780
 2672POPC   C4B36994   7.725  13.638   7.410
 2673POPC   NC336995  16.416  41.801   9.508
 2673POPC   PO436996  16.566  41.126   9.355
 2673POPC   GL136997  16.708  41.532   9.128
 2673POPC   GL236998  16.587  41.885   9.045
 2673POPC   C1A36999  16.891  41.650   8.698
 2673POPC   D2A37000  16.812  41.708   8.245
 2673POPC   C3A37001  16.983  41.459   7.901
 2673POPC   C4A37002  16.839  41.417   7.489
 2673POPC   C1B37003  16.350  41.759   8.697
 2673POPC   C2B37004  16.304  41.818   8.245
 2673POPC   C3B37005  16.448  41.595   7.899
 2673POPC   C4B37006  16.740  41.859   7.708
 2674POPC   NC337007  17.154  31.992   9.436
 2674POPC   PO437008  17.796  31.903   9.637
 2674POPC   GL137009  17.647  32.142   9.258
 2674POPC   GL237010  17.388  32.428   9.206
 2674POPC   C1A37011  17.679  32.271   8.828
 2674POPC   D2A37012  17.408  32.244   8.475
 2674POPC   C3A37013  17.620  32.383   8.129
 2674POPC   C4A37014  17.583  32.196   7.785
 2674POPC   C1B37015  17.073  32.367   8.850
 2674POPC   C2B37016  16.887  32.401   8.430
 2674POPC   C3B37017  17.087  32.322   8.025
 2674POPC   C4B37018  17.271  32.624   7.767
 2675POPC   NC337019  37.327  14.270   9.425
 2675POPC   PO437020  37.662  14.817   9.519
 2675POPC   GL137021  37.667  14.575   9.135
 2675POPC   GL237022  37.356  14.670   9.074
 2675POPC   C1A37023  37.723  14.423   8.712
 2675POPC   D2A37024  37.835  14.336   8.280
 2675POPC   C3A37025  37.551  14.120   8.023
 2675POPC   C4A37026  37.498  14.085   7.582
 2675POPC   C1B37027  37.489  14.874   8.721
 2675POPC   C2B37028  37.657  14.829   8.337
 2675POPC   C3B37029  37.493  14.633   7.991
 2675POPC   C4B37030  37.519  14.636   7.574
 2676POPC   NC337031   3.333  28.325   9.672
 2676POPC   PO437032   2.647  28.412   9.476
 2676POPC   GL137033   2.761  28.221   9.129
 2676POPC   GL237034   2.888  28.470   8.973
 2676POPC   C1A37035   2.751  28.057   8.723
 2676POPC   D2A37036   2.704  28.289   8.324
 2676POPC   C3A37037   2.716  28.127   7.876
 2676POPC   C4A37038   2.760  28.146   7.390
 2676POPC   C1B37039   2.796  28.747   8.676
 2676POPC   C2B37040   2.941  28.748   8.320
 2676POPC   C3B37041   2.796  28.617   7.956
 2676POPC   C4B37042   3.004  28.500   7.644
 2677POPC   NC337043  12.944  20.681   9.590
 2677POPC   PO437044  12.293  20.710   9.442
 2677POPC   GL137045  12.664  20.760   9.170
 2677POPC   GL237046  12.860  20.481   9.129
 2677POPC   C1A37047  12.894  20.866   8.793
 2677POPC   D2A37048  12.747  20.970   8.385
 2677POPC   C3A37049  12.897  20.828   7.969
 2677POPC   C4A37050  12.598  20.593   7.699
 2677POPC   C1B37051  12.676  20.403   8.743
 2677POPC   C2B37052  12.799  20.451   8.327
 2677POPC   C3B37053  12.869  20.217   7.952
 2677POPC   C4B37054  13.240  20.101   7.718
 2678POPC   NC337055   2.185   0.106   9.481
 2678POPC   PO437056   2.924   0.435   9.435
 2678POPC   GL137057   2.626   0.267   9.174
 2678POPC   GL237058   2.342   0.517   9.131
 2678POPC   C1A37059   2.802   0.179   8.757
 2678POPC   D2A37060   2.946   0.458   8.419
 2678POPC   C3A37061   2.881   0.443   7.981
 2678POPC   C4A37062   3.031   0.729   7.656
 2678POPC   C1B37063   2.647   0.670   8.803
 2678POPC   C2B37064   2.637   0.859   8.398
 2678POPC   C3B37065   2.589   0.890   7.964
 2678POPC   C4B37066   2.425   0.592   7.710
 2679POPC   NC337067  28.718   1.731   9.380
 2679POPC   PO437068  28.338   2.181   9.741
 2679POPC   GL137069  28.345   2.091   9.262
 2679POPC   GL237070  28.163   1.832   9.100
 2679POPC   C1A37071  28.520   2.121   8.810
 2679POPC   D2A37072  28.346   1.990   8.421
 2679POPC   C3A37073  28.563   1.907   8.057
 2679POPC   C4A37074  28.275   1.783   7.746
 2679POPC   C1B37075  28.045   2.215   8.806
 2679POPC   C2B37076  28.154   2.456   8.405
 2679POPC   C3B37077  28.167   2.253   7.973
 2679POPC   C4B37078  28.185   2.226   7.485
 2680POPC   NC337079  32.752  13.553   9.341
 2680POPC   PO437080  32.074  13.664   9.502
 2680POPC   GL137081  32.253  13.642   9.118
 2680POPC   GL237082  32.464  13.932   9.152
 2680POPC   C1A37083  32.101  13.690   8.686
 2680POPC   D2A37084  31.987  13.656   8.233
 2680POPC   C3A37085  32.116  13.409   7.888
 2680POPC   C4A37086  31.981  13.420   7.428
 2680POPC   C1B37087  32.582  13.819   8.742
 2680POPC   C2B37088  32.398  13.968   8.372
 2680POPC   C3B37089  32.371  13.889   7.959
 2680POPC   C4B37090  32.469  13.605   7.595
 2681POPC   NC337091  36.185  17.070   9.468
 2681POPC   PO437092  36.145  17.733   9.541
 2681POPC   GL137093  36.036  17.474   9.160
 2681POPC   GL237094  35.780  17.195   9.169
 2681POPC   C1A37095  36.086  17.606   8.717
 2681POPC   D2A37096  35.983  17.775   8.309
 2681POPC   C3A37097  36.216  17.594   8.017
 2681POPC   C4A37098  36.502  17.403   7.782
 2681POPC   C1B37099  35.998  17.084   8.778
 2681POPC   C2B37100  36.043  17.224   8.359
 2681POPC   C3B37101  35.915  17.194   7.961
 2681POPC   C4B37102  36.059  17.254   7.568
 2682POPC   NC337103  40.085  31.102   9.410
 2682POPC   PO437104  40.125  30.366   9.528
 2682POPC   GL137105  39.954  30.647   9.190
 2682POPC   GL237106  40.230  30.828   9.020
 2682POPC   C1A37107  39.785  30.884   8.812
 2682POPC   D2A37108  39.739  30.734   8.379
 2682POPC   C3A37109  39.894  30.920   8.006
 2682POPC   C4A37110  39.873  30.852   7.534
 2682POPC   C1B37111  40.140  30.505   8.715
 2682POPC   C2B37112  40.087  30.337   8.302
 2682POPC   C3B37113  40.158  30.506   7.875
 2682POPC   C4B37114  40.263  30.558   7.421
 2683POPC   NC337115  11.549  26.411   9.339
 2683POPC   PO437116  10.895  26.139   9.421
 2683POPC   GL137117  11.292  25.975   9.215
 2683POPC   GL237118  11.109  25.962   8.919
 2683POPC   C1A37119  11.604  25.873   8.858
 2683POPC   D2A37120  11.628  26.027   8.421
 2683POPC   C3A37121  11.502  25.877   8.017
 2683POPC   C4A37122  11.444  26.018   7.593
 2683POPC   C1B37123  10.916  26.291   8.674
 2683POPC   C2B37124  11.066  26.406   8.278
 2683POPC   C3B37125  11.085  26.129   7.928
 2683POPC   C4B37126  10.965  26.163   7.485
 2684POPC   NC337127   9.078  21.693   9.485
 2684POPC   PO437128   9.413  21.117   9.553
 2684POPC   GL137129   9.125  21.244   9.179
 2684POPC   GL237130   8.921  21.567   9.039
 2684POPC   C1A37131   8.966  21.150   8.780
 2684POPC   D2A37132   8.811  21.392   8.432
 2684POPC   C3A37133   8.929  21.257   8.007
 2684POPC   C4A37134   9.320  21.047   7.912
 2684POPC   C1B37135   8.879  21.855   8.722
 2684POPC   C2B37136   9.049  21.927   8.346
 2684POPC   C3B37137   9.123  21.768   7.964
 2684POPC   C4B37138   8.861  21.656   7.613
 2685POPC   NC337139  37.290  29.525   9.628
 2685POPC   PO437140  37.849  29.882   9.510
 2685POPC   GL137141  37.691  29.916   9.120
 2685POPC   GL237142  37.418  29.669   9.101
 2685POPC   C1A37143  37.834  30.063   8.717
 2685POPC   D2A37144  37.532  30.244   8.432
 2685POPC   C3A37145  37.447  29.972   8.085
 2685POPC   C4A37146  37.794  29.832   7.808
 2685POPC   C1B37147  37.729  29.552   8.751
 2685POPC   C2B37148  37.786  29.614   8.296
 2685POPC   C3B37149  37.526  29.425   7.965
 2685POPC   C4B37150  37.280  29.675   7.672
 2686POPC   NC337151   6.053  37.586   9.638
 2686POPC   PO437152   6.057  38.247   9.678
 2686POPC   GL137153   6.027  38.013   9.257
 2686POPC   GL237154   5.913  37.656   9.161
 2686POPC   C1A37155   5.848  38.044   8.830
 2686POPC   D2A37156   5.711  37.808   8.451
 2686POPC   C3A37157   5.913  37.779   8.040
 2686POPC   C4A37158   5.816  37.948   7.648
 2686POPC   C1B37159   5.638  37.474   8.839
 2686POPC   C2B37160   5.685  37.294   8.417
 2686POPC   C3B37161   5.545  37.433   8.013
 2686POPC   C4B37162   5.657  37.470   7.602
 2687POPC   NC337163  27.947  13.896   9.464
 2687POPC   PO437164  28.533  13.440   9.478
 2687POPC   GL137165  28.501  13.650   9.074
 2687POPC   GL237166  28.366  13.976   9.126
 2687POPC   C1A37167  28.450  13.454   8.659
 2687POPC   D2A37168  28.607  13.323   8.279
 2687POPC   C3A37169  28.330  13.494   7.971
 2687POPC   C4A37170  28.336  13.894   7.795
 2687POPC   C1B37171  28.097  13.821   8.774
 2687POPC   C2B37172  28.166  13.858   8.319
 2687POPC   C3B37173  27.902  14.023   7.986
 2687POPC   C4B37174  27.962  14.132   7.554
 2688POPC   NC337175  13.184  21.600   9.414
 2688POPC   PO437176  12.719  21.112   9.553
 2688POPC   GL137177  12.920  21.252   9.143
 2688POPC   GL237178  12.746  21.594   9.095
 2688POPC   C1A37179  13.233  21.264   8.755
 2688POPC   D2A37180  13.155  21.297   8.287
 2688POPC   C3A37181  12.744  21.379   8.087
 2688POPC   C4A37182  12.483  21.133   7.782
 2688POPC   C1B37183  13.028  21.746   8.758
 2688POPC   C2B37184  13.041  21.826   8.318
 2688POPC   C3B37185  13.011  21.770   7.886
 2688POPC   C4B37186  12.664  21.678   7.680
 2689POPC   NC337187   0.561   0.104   9.545
 2689POPC   PO437188   0.435   0.819   9.464
 2689POPC   GL137189   0.520   0.475   9.166
 2689POPC   GL237190   0.269   0.205   9.156
 2689POPC   C1A37191   0.416   0.518   8.734
 2689POPC   D2A37192   0.118   0.504   8.396
 2689POPC   C3A37193   0.342   0.550   8.022
 2689POPC   C4A37194   0.133   0.527   7.629
 2689POPC   C1B37195   0.483   0.007   8.781
 2689POPC   C2B37196   0.560   0.158   8.384
 2689POPC   C3B37197   0.605   0.018   7.996
 2689POPC   C4B37198   0.552   0.249   7.657
 2690POPC   NC337199  14.977  43.301   9.555
 2690POPC   PO437200  15.448  42.816   9.780
 2690POPC   GL137201  15.266  42.913   9.332
 2690POPC   GL237202  15.474  43.136   9.123
 2690POPC   C1A37203  15.139  42.835   8.877
 2690POPC   D2A37204  14.855  42.599   8.574
 2690POPC   C3A37205  14.814  42.797   8.177
 2690POPC   C4A37206  15.016  42.973   7.842
 2690POPC   C1B37207  15.307  43.308   8.700
 2690POPC   C2B37208  15.177  43.258   8.247
 2690POPC   C3B37209  15.278  43.413   7.811
 2690POPC   C4B37210  15.513  43.401   7.395
 2691POPC   NC337211  41.453   5.607   9.416
 2691POPC   PO437212  41.237   6.130   9.337
 2691POPC   GL137213  41.462   5.942   9.002
 2691POPC   GL237214  41.791   5.971   9.069
 2691POPC   C1A37215  41.531   5.773   8.585
 2691POPC   D2A37216  41.287   5.878   8.227
 2691POPC   C3A37217  41.511   5.777   7.855
 2691POPC   C4A37218  41.481   5.602   7.448
 2691POPC   C1B37219  41.837   6.186   8.649
 2691POPC   C2B37220  41.717   6.138   8.205
 2691POPC   C3B37221  41.916   6.098   7.786
 2691POPC   C4B37222  42.040   6.329   7.393
 2692POPC   NC337223  19.796   5.878   9.856
 2692POPC   PO437224  20.237   6.336   9.533
 2692POPC   GL137225  19.903   6.049   9.356
 2692POPC   GL237226  19.597   6.219   9.275
 2692POPC   C1A37227  19.809   5.865   8.929
 2692POPC   D2A37228  20.042   5.877   8.511
 2692POPC   C3A37229  19.903   5.866   8.070
 2692POPC   C4A37230  19.766   5.653   7.700
 2692POPC   C1B37231  19.622   6.304   8.797
 2692POPC   C2B37232  19.557   6.095   8.407
 2692POPC   C3B37233  19.576   6.243   7.971
 2692POPC   C4B37234  19.524   6.102   7.532
 2693POPC   NC337235  18.421   1.553   9.480
 2693POPC   PO437236  19.003   1.755   9.572
 2693POPC   GL137237  18.892   1.371   9.248
 2693POPC   GL237238  18.598   1.368   9.048
 2693POPC   C1A37239  18.982   1.110   8.820
 2693POPC   D2A37240  19.188   0.841   8.475
 2693POPC   C3A37241  19.226   0.986   8.043
 2693POPC   C4A37242  19.273   0.827   7.639
 2693POPC   C1B37243  18.460   1.148   8.685
 2693POPC   C2B37244  18.728   1.070   8.360
 2693POPC   C3B37245  18.770   1.247   7.988
 2693POPC   C4B37246  18.687   1.088   7.644
 2694POPC   NC337247  34.214  43.114   9.401
 2694POPC   PO437248  33.632  43.110   9.656
 2694POPC   GL137249  33.721  43.239   9.238
 2694POPC   GL237250  33.751  42.896   9.155
 2694POPC   C1A37251  33.608  43.209   8.778
 2694POPC   D2A37252  33.575  42.900   8.412
 2694POPC   C3A37253  33.513  43.050   7.966
 2694POPC   C4A37254  33.788  43.322   7.723
 2694POPC   C1B37255  34.046  42.930   8.788
 2694POPC   C2B37256  34.075  43.105   8.374
 2694POPC   C3B37257  34.002  42.837   8.025
 2694POPC   C4B37258  33.939  42.822   7.598
 2695POPC   NC337259  39.302   3.562   9.608
 2695POPC   PO437260  38.877   3.847   9.172
 2695POPC   GL137261  39.123   3.440   9.137
 2695POPC   GL237262  39.518   3.452   9.150
 2695POPC   C1A37263  39.108   3.276   8.723
 2695POPC   D2A37264  39.066   3.597   8.406
 2695POPC   C3A37265  39.000   3.488   8.001
 2695POPC   C4A37266  38.794   3.658   7.677
 2695POPC   C1B37267  39.431   3.668   8.776
 2695POPC   C2B37268  39.599   3.631   8.390
 2695POPC   C3B37269  39.451   3.755   8.014
 2695POPC   C4B37270  39.403   3.620   7.654
 2696POPC   NC337271  16.473   0.734   9.653
 2696POPC   PO437272  16.930   1.258   9.662
 2696POPC   GL137273  16.829   1.175   9.214
 2696POPC   GL237274  16.968   0.894   9.019
 2696POPC   C1A37275  16.894   1.362   8.793
 2696POPC   D2A37276  16.837   1.521   8.369
 2696POPC   C3A37277  16.742   1.240   8.020
 2696POPC   C4A37278  16.708   1.358   7.596
 2696POPC   C1B37279  16.863   0.704   8.639
 2696POPC   C2B37280  16.810   0.699   8.192
 2696POPC   C3B37281  16.917   0.723   7.771
 2696POPC   C4B37282  17.040   1.014   7.410
 2697POPC   NC337283  25.327  20.783   9.536
 2697POPC   PO437284  25.081  20.175   9.433
 2697POPC   GL137285  25.143  20.547   9.117
 2697POPC   GL237286  25.477  20.721   9.064
 2697POPC   C1A37287  25.124  20.778   8.710
 2697POPC   D2A37288  25.284  20.676   8.311
 2697POPC   C3A37289  25.086  20.788   7.935
 2697POPC   C4A37290  25.176  20.423   7.712
 2697POPC   C1B37291  25.614  20.552   8.693
 2697POPC   C2B37292  25.815  20.667   8.311
 2697POPC   C3B37293  25.603  20.667   7.886
 2697POPC   C4B37294  25.626  20.471   7.472
 2698POPC   NC337295  36.908  24.056   9.447
 2698POPC   PO437296  37.065  24.710   9.550
 2698POPC   GL137297  36.906  24.698   9.116
 2698POPC   GL237298  36.918  24.348   8.984
 2698POPC   C1A37299  36.825  24.743   8.656
 2698POPC   D2A37300  36.927  24.472   8.314
 2698POPC   C3A37301  36.793  24.611   7.921
 2698POPC   C4A37302  37.141  24.699   7.760
 2698POPC   C1B37303  36.810  24.075   8.629
 2698POPC   C2B37304  36.696  24.016   8.240
 2698POPC   C3B37305  36.808  24.106   7.844
 2698POPC   C4B37306  36.898  24.315   7.487
 2699POPC   NC337307   5.514   3.455   9.610
 2699POPC   PO437308   5.025   3.889   9.525
 2699POPC   GL137309   5.326   3.834   9.181
 2699POPC   GL237310   5.421   3.483   9.092
 2699POPC   C1A37311   5.043   3.791   8.832
 2699POPC   D2A37312   4.848   3.547   8.519
 2699POPC   C3A37313   5.031   3.584   8.128
 2699POPC   C4A37314   5.004   3.369   7.722
 2699POPC   C1B37315   5.367   3.452   8.636
 2699POPC   C2B37316   5.328   3.172   8.291
 2699POPC   C3B37317   5.496   3.236   7.895
 2699POPC   C4B37318   5.468   3.289   7.450
 2700POPC   NC337319  20.367  17.892   9.570
 2700POPC   PO437320  19.735  17.738   9.553
 2700POPC   GL137321  19.925  17.643   9.156
 2700POPC   GL237322  20.207  17.811   9.092
 2700POPC   C1A37323  19.845  17.751   8.709
 2700POPC   D2A37324  19.684  17.786   8.275
 2700POPC   C3A37325  19.666  17.392   8.062
 2700POPC   C4A37326  19.842  17.225   7.665
 2700POPC   C1B37327  20.343  17.835   8.693
 2700POPC   C2B37328  20.212  17.628   8.328
 2700POPC   C3B37329  20.112  17.610   7.902
 2700POPC   C4B37330  20.264  17.501   7.475
 2701POPC   NC337331  34.322  38.108   9.483
 2701POPC   PO437332  34.859  37.775   9.394
 2701POPC   GL137333  34.622  37.825   9.061
 2701POPC   GL237334  34.266  37.915   9.023
 2701POPC   C1A37335  34.753  37.671   8.675
 2701POPC   D2A37336  34.918  37.811   8.298
 2701POPC   C3A37337  34.602  37.687   8.007
 2701POPC   C4A37338  34.612  37.401   7.684
 2701POPC   C1B37339  34.274  37.487   8.905
 2701POPC   C2B37340  34.313  37.428   8.467
 2701POPC   C3B37341  34.233  37.289   8.058
 2701POPC   C4B37342  34.118  37.421   7.656
 2702POPC   NC337343   5.663  24.569   9.475
 2702POPC   PO437344   6.329  24.477   9.697
 2702POPC   GL137345   6.055  24.347   9.245
 2702POPC   GL237346   5.837  24.609   9.010
 2702POPC   C1A37347   5.926  24.131   8.849
 2702POPC   D2A37348   6.006  24.032   8.396
 2702POPC   C3A37349   5.677  24.084   8.065
 2702POPC   C4A37350   5.714  24.437   7.767
 2702POPC   C1B37351   5.620  24.496   8.618
 2702POPC   C2B37352   5.879  24.534   8.240
 2702POPC   C3B37353   5.971  24.867   7.909
 2702POPC   C4B37354   5.960  24.860   7.450
 2703POPC   NC337355  36.160  29.336   9.561
 2703POPC   PO437356  36.101  30.018   9.559
 2703POPC   GL137357  36.059  29.866   9.178
 2703POPC   GL237358  36.410  29.841   9.121
 2703POPC   C1A37359  36.071  30.037   8.773
 2703POPC   D2A37360  36.003  29.912   8.398
 2703POPC   C3A37361  36.162  30.099   8.034
 2703POPC   C4A37362  36.041  29.958   7.619
 2703POPC   C1B37363  36.604  29.959   8.742
 2703POPC   C2B37364  36.511  29.915   8.341
 2703POPC   C3B37365  36.404  29.668   7.997
 2703POPC   C4B37366  36.547  29.904   7.677
 2704POPC   NC337367  21.623  12.501   9.585
 2704POPC   PO437368  21.197  12.007   9.408
 2704POPC   GL137369  21.406  12.190   9.097
 2704POPC   GL237370  21.729  12.258   9.148
 2704POPC   C1A37371  21.422  12.066   8.680
 2704POPC   D2A37372  21.050  12.029   8.416
 2704POPC   C3A37373  21.171  12.004   7.987
 2704POPC   C4A37374  21.202  12.355   7.762
 2704POPC   C1B37375  21.996  12.229   8.819
 2704POPC   C2B37376  21.940  12.095   8.412
 2704POPC   C3B37377  21.664  11.968   8.085
 2704POPC   C4B37378  21.612  11.656   7.775
 2705POPC   NC337379   9.214  44.584   9.563
 2705POPC   PO437380   8.804  44.984   9.451
 2705POPC   GL137381   8.924  44.921   9.070
 2705POPC   GL237382   9.239  44.874   9.155
 2705POPC   C1A37383   8.723  44.685   8.745
 2705POPC   D2A37384   8.632  44.419   8.393
 2705POPC   C3A37385   8.686  44.647   8.017
 2705POPC   C4A37386   8.542  44.421   7.685
 2705POPC   C1B37387   9.307  44.950   8.731
 2705POPC   C2B37388   9.130  44.715   8.415
 2705POPC   C3B37389   9.186  44.819   8.026
 2705POPC   C4B37390   9.096  44.611   7.662
 2706POPC   NC337391  25.858  17.050   9.438
 2706POPC   PO437392  26.282  16.451   9.538
 2706POPC   GL137393  26.119  16.664   9.173
 2706POPC   GL237394  26.311  16.985   9.148
 2706POPC   C1A37395  25.846  16.791   8.801
 2706POPC   D2A37396  25.896  16.898   8.354
 2706POPC   C3A37397  25.784  16.627   8.022
 2706POPC   C4A37398  25.925  16.683   7.619
 2706POPC   C1B37399  26.364  16.794   8.725
 2706POPC   C2B37400  26.344  16.657   8.305
 2706POPC   C3B37401  26.366  16.801   7.850
 2706POPC   C4B37402  26.335  16.792   7.369
 2707POPC   NC337403  23.809  16.564   9.490
 2707POPC   PO437404  23.682  15.881   9.442
 2707POPC   GL137405  23.853  16.052   9.095
 2707POPC   GL237406  23.673  16.371   9.044
 2707POPC   C1A37407  23.748  15.786   8.751
 2707POPC   D2A37408  23.701  15.909   8.324
 2707POPC   C3A37409  23.870  15.579   8.064
 2707POPC   C4A37410  23.790  15.837   7.783
 2707POPC   C1B37411  23.543  16.248   8.675
 2707POPC   C2B37412  23.418  16.392   8.280
 2707POPC   C3B37413  23.347  16.122   7.936
 2707POPC   C4B37414  23.669  16.318   7.707
 2708POPC   NC337415  39.514  37.396   9.809
 2708POPC   PO437416  40.056  37.798   9.482
 2708POPC   GL137417  39.856  37.643   9.131
 2708POPC   GL237418  39.597  37.403   9.236
 2708POPC   C1A37419  39.710  37.818   8.744
 2708POPC   D2A37420  39.820  38.055   8.413
 2708POPC   C3A37421  39.839  37.870   8.062
 2708POPC   C4A37422  39.916  37.929   7.643
 2708POPC   C1B37423  39.736  37.286   8.795
 2708POPC   C2B37424  39.799  37.437   8.353
 2708POPC   C3B37425  39.942  37.383   7.897
 2708POPC   C4B37426  39.773  37.411   7.469
 2709POPC   NC337427  42.277  18.613   9.435
 2709POPC   PO437428  42.101  19.328   9.451
 2709POPC   GL137429  42.387  19.095   9.211
 2709POPC   GL237430  42.673  19.318   9.169
 2709POPC   C1A37431  42.372  18.882   8.810
 2709POPC   D2A37432  42.422  18.756   8.373
 2709POPC   C3A37433  42.130  18.924   8.096
 2709POPC   C4A37434  42.153  19.037   7.667
 2709POPC   C1B37435  42.443  19.417   8.814
 2709POPC   C2B37436  42.397  19.265   8.422
 2709POPC   C3B37437  42.579  19.176   8.042
 2709POPC   C4B37438  42.540  19.355   7.633
 2710POPC   NC337439  16.696  20.987   9.830
 2710POPC   PO437440  16.407  20.511   9.412
 2710POPC   GL137441  16.671  20.633   9.064
 2710POPC   GL237442  16.791  20.948   9.171
 2710POPC   C1A37443  16.623  20.569   8.615
 2710POPC   D2A37444  16.338  20.347   8.304
 2710POPC   C3A37445  16.527  20.246   7.888
 2710POPC   C4A37446  16.743  20.478   7.519
 2710POPC   C1B37447  17.065  20.967   8.788
 2710POPC   C2B37448  17.021  20.810   8.384
 2710POPC   C3B37449  16.789  20.694   8.031
 2710POPC   C4B37450  16.990  20.928   7.728
 2711POPC   NC337451  36.788  29.532   9.275
 2711POPC   PO437452  37.141  29.961   9.519
 2711POPC   GL137453  37.004  29.987   9.100
 2711POPC   GL237454  36.773  30.238   9.161
 2711POPC   C1A37455  37.147  29.860   8.678
 2711POPC   D2A37456  37.190  29.533   8.347
 2711POPC   C3A37457  36.921  29.718   8.029
 2711POPC   C4A37458  37.018  30.087   7.795
 2711POPC   C1B37459  36.922  30.358   8.738
 2711POPC   C2B37460  36.916  30.218   8.310
 2711POPC   C3B37461  36.635  30.348   7.959
 2711POPC   C4B37462  36.701  30.330   7.458
 2712POPC   NC337463  25.853  34.106   9.491
 2712POPC   PO437464  26.124  33.559   9.392
 2712POPC   GL137465  25.967  33.833   9.090
 2712POPC   GL237466  25.722  33.594   9.010
 2712POPC   C1A37467  25.832  34.002   8.709
 2712POPC   D2A37468  25.944  33.812   8.336
 2712POPC   C3A37469  25.827  33.971   7.959
 2712POPC   C4A37470  26.105  34.047   7.685
 2712POPC   C1B37471  26.028  33.463   8.712
 2712POPC   C2B37472  26.128  33.304   8.280
 2712POPC   C3B37473  26.194  33.588   7.939
 2712POPC   C4B37474  26.563  33.665   7.760
 2713POPC   NC337475  38.994   1.757   9.597
 2713POPC   PO437476  39.457   2.246   9.587
 2713POPC   GL137477  39.287   2.041   9.207
 2713POPC   GL237478  39.445   1.704   9.277
 2713POPC   C1A37479  39.240   1.958   8.710
 2713POPC   D2A37480  39.279   1.742   8.314
 2713POPC   C3A37481  39.248   2.034   7.989
 2713POPC   C4A37482  38.859   2.166   7.773
 2713POPC   C1B37483  39.676   1.856   8.932
 2713POPC   C2B37484  39.714   1.965   8.521
 2713POPC   C3B37485  39.749   1.902   8.099
 2713POPC   C4B37486  39.681   1.972   7.688
 2714POPC   NC337487   6.764  40.604   9.452
 2714POPC   PO437488   6.085  40.825   9.330
 2714POPC   GL137489   6.479  40.898   9.124
 2714POPC   GL237490   6.736  41.116   8.938
 2714POPC   C1A37491   6.559  40.646   8.757
 2714POPC   D2A37492   6.430  40.424   8.385
 2714POPC   C3A37493   6.714  40.582   8.066
 2714POPC   C4A37494   6.714  40.603   7.625
 2714POPC   C1B37495   6.992  40.893   8.627
 2714POPC   C2B37496   6.994  41.033   8.240
 2714POPC   C3B37497   7.077  40.880   7.883
 2714POPC   C4B37498   6.694  41.102   7.762
 2715POPC   NC337499   6.884  15.546   9.490
 2715POPC   PO437500   6.638  14.950   9.513
 2715POPC   GL137501   6.475  15.042   9.120
 2715POPC   GL237502   6.554  15.381   9.097
 2715POPC   C1A37503   6.348  15.116   8.687
 2715POPC   D2A37504   6.545  15.395   8.388
 2715POPC   C3A37505   6.377  15.319   7.984
 2715POPC   C4A37506   6.566  15.347   7.568
 2715POPC   C1B37507   6.838  15.131   8.785
 2715POPC   C2B37508   6.762  14.910   8.392
 2715POPC   C3B37509   6.819  15.081   7.978
 2715POPC   C4B37510   7.059  15.228   7.629
 2716POPC   NC337511   3.962  16.507   9.780
 2716POPC   PO437512   4.425  16.897   9.557
 2716POPC   GL137513   4.424  16.821   9.150
 2716POPC   GL237514   4.096  16.645   9.175
 2716POPC   C1A37515   4.279  17.025   8.760
 2716POPC   D2A37516   4.174  16.808   8.360
 2716POPC   C3A37517   4.373  16.916   8.011
 2716POPC   C4A37518   4.101  17.114   7.728
 2716POPC   C1B37519   4.289  16.518   8.776
 2716POPC   C2B37520   4.495  16.259   8.484
 2716POPC   C3B37521   4.440  16.422   8.085
 2716POPC   C4B37522   4.643  16.593   7.685
 2717POPC   NC337523   3.373  24.338   9.395
 2717POPC   PO437524   3.748  24.829   9.442
 2717POPC   GL137525   3.661  24.649   9.081
 2717POPC   GL237526   3.337  24.704   9.077
 2717POPC   C1A37527   3.618  24.620   8.643
 2717POPC   D2A37528   3.823  24.822   8.298
 2717POPC   C3A37529   3.807  24.539   7.995
 2717POPC   C4A37530   3.676  24.317   7.700
 2717POPC   C1B37531   3.170  24.425   8.787
 2717POPC   C2B37532   3.073  24.393   8.386
 2717POPC   C3B37533   3.266  24.416   7.990
 2717POPC   C4B37534   3.381  24.730   7.716
 2718POPC   NC337535  32.360   4.357   9.775
 2718POPC   PO437536  32.916   4.182   9.477
 2718POPC   GL137537  33.001   4.141   9.050
 2718POPC   GL237538  32.945   4.488   8.998
 2718POPC   C1A37539  32.768   4.150   8.641
 2718POPC   D2A37540  32.822   4.236   8.232
 2718POPC   C3A37541  32.991   3.919   8.004
 2718POPC   C4A37542  33.427   3.888   7.807
 2718POPC   C1B37543  32.944   4.633   8.574
 2718POPC   C2B37544  32.632   4.707   8.261
 2718POPC   C3B37545  32.698   4.554   7.827
 2718POPC   C4B37546  32.882   4.631   7.394
 2719POPC   NC337547   3.998  17.210   9.514
 2719POPC   PO437548   4.545  17.715   9.629
 2719POPC   GL137549   4.365  17.514   9.289
 2719POPC   GL237550   4.622  17.294   9.218
 2719POPC   C1A37551   4.067  17.516   8.937
 2719POPC   D2A37552   4.138  17.602   8.510
 2719POPC   C3A37553   4.071  17.320   8.185
 2719POPC   C4A37554   4.040  17.607   7.815
 2719POPC   C1B37555   4.552  17.466   8.796
 2719POPC   C2B37556   4.536  17.265   8.379
 2719POPC   C3B37557   4.524  17.385   7.928
 2719POPC   C4B37558   4.569  17.073   7.543
 2720POPC   NC337559  13.342  18.063   9.536
 2720POPC   PO437560  14.001  18.148   9.418
 2720POPC   GL137561  13.695  18.069   9.111
 2720POPC   GL237562  13.447  18.314   9.142
 2720POPC   C1A37563  13.631  18.220   8.692
 2720POPC   D2A37564  13.416  18.157   8.345
 2720POPC   C3A37565  13.671  18.224   8.000
 2720POPC   C4A37566  13.403  18.160   7.684
 2720POPC   C1B37567  13.207  18.472   8.832
 2720POPC   C2B37568  13.356  18.670   8.515
 2720POPC   C3B37569  13.363  18.627   8.101
 2720POPC   C4B37570  13.084  18.549   7.754
 2721POPC   NC337571   5.045   4.761   9.439
 2721POPC   PO437572   5.225   5.457   9.305
 2721POPC   GL137573   5.141   5.115   9.073
 2721POPC   GL237574   4.803   5.130   9.162
 2721POPC   C1A37575   5.171   4.996   8.654
 2721POPC   D2A37576   5.329   5.255   8.329
 2721POPC   C3A37577   5.269   5.100   7.925
 2721POPC   C4A37578   5.175   5.357   7.547
 2721POPC   C1B37579   4.692   5.108   8.744
 2721POPC   C2B37580   4.771   5.024   8.314
 2721POPC   C3B37581   4.811   5.278   7.951
 2721POPC   C4B37582   4.808   5.040   7.565
 2722POPC   NC337583  13.108  23.396   9.896
 2722POPC   PO437584  12.460  23.225   9.571
 2722POPC   GL137585  12.708  23.108   9.130
 2722POPC   GL237586  13.030  23.051   9.122
 2722POPC   C1A37587  12.787  23.167   8.684
 2722POPC   D2A37588  12.617  22.845   8.460
 2722POPC   C3A37589  12.673  22.826   8.071
 2722POPC   C4A37590  12.734  23.054   7.676
 2722POPC   C1B37591  13.045  22.731   8.765
 2722POPC   C2B37592  13.161  22.845   8.302
 2722POPC   C3B37593  13.080  22.652   7.854
 2722POPC   C4B37594  12.966  22.723   7.383
 2723POPC   NC337595  25.463  35.433   9.480
 2723POPC   PO437596  24.802  35.703   9.396
 2723POPC   GL137597  25.095  35.426   9.124
 2723POPC   GL237598  25.466  35.368   8.989
 2723POPC   C1A37599  25.042  35.185   8.760
 2723POPC   D2A37600  24.938  35.268   8.324
 2723POPC   C3A37601  25.186  35.143   7.928
 2723POPC   C4A37602  25.027  34.910   7.530
 2723POPC   C1B37603  25.281  35.638   8.684
 2723POPC   C2B37604  25.228  35.757   8.261
 2723POPC   C3B37605  25.451  35.901   7.885
 2723POPC   C4B37606  25.581  35.676   7.482
 2724POPC   NC337607  13.420  14.640   9.598
 2724POPC   PO437608  13.966  14.142   9.544
 2724POPC   GL137609  13.638  14.242   9.280
 2724POPC   GL237610  13.714  14.590   9.204
 2724POPC   C1A37611  13.558  14.197   8.840
 2724POPC   D2A37612  13.840  14.136   8.483
 2724POPC   C3A37613  13.650  14.229   8.092
 2724POPC   C4A37614  13.730  14.190   7.656
 2724POPC   C1B37615  13.805  14.654   8.837
 2724POPC   C2B37616  13.610  14.597   8.485
 2724POPC   C3B37617  13.454  14.722   8.142
 2724POPC   C4B37618  13.754  14.677   7.818
 2725POPC   NC337619  44.219  38.321   9.448
 2725POPC   PO437620  44.795  38.680   9.526
 2725POPC   GL137621  44.671  38.420   9.196
 2725POPC   GL237622  44.897  38.167   9.096
 2725POPC   C1A37623  44.420  38.461   8.830
 2725POPC   D2A37624  44.531  38.630   8.447
 2725POPC   C3A37625  44.475  38.405   8.066
 2725POPC   C4A37626  44.505  38.461   7.636
 2725POPC   C1B37627  44.939  38.436   8.735
 2725POPC   C2B37628  44.975  38.422   8.289
 2725POPC   C3B37629   0.193  38.571   7.934
 2725POPC   C4B37630   0.001  38.531   7.560
 2726POPC   NC337631   5.040  19.688   9.456
 2726POPC   PO437632   4.672  20.145   9.254
 2726POPC   GL137633   5.053  20.015   9.083
 2726POPC   GL237634   5.382  20.119   8.958
 2726POPC   C1A37635   4.919  19.785   8.747
 2726POPC   D2A37636   4.784  19.919   8.357
 2726POPC   C3A37637   4.735  19.590   8.052
 2726POPC   C4A37638   4.764  19.858   7.698
 2726POPC   C1B37639   5.424  19.746   8.719
 2726POPC   C2B37640   5.201  19.613   8.357
 2726POPC   C3B37641   5.211  19.770   7.954
 2726POPC   C4B37642   5.272  19.363   7.802
 2727POPC   NC337643   3.308   4.917   9.299
 2727POPC   PO437644   3.699   5.119   9.815
 2727POPC   GL137645   3.751   5.201   9.296
 2727POPC   GL237646   3.823   4.907   9.096
 2727POPC   C1A37647   3.511   5.349   8.853
 2727POPC   D2A37648   3.595   5.374   8.378
 2727POPC   C3A37649   3.556   5.148   7.974
 2727POPC   C4A37650   3.475   5.084   7.539
 2727POPC   C1B37651   3.773   4.971   8.637
 2727POPC   C2B37652   3.517   4.796   8.336
 2727POPC   C3B37653   3.478   4.617   7.929
 2727POPC   C4B37654   3.605   4.595   7.477
 2728POPC   NC337655  10.273   2.491   9.439
 2728POPC   PO437656  10.900   2.454   9.560
 2728POPC   GL137657  10.687   2.571   9.088
 2728POPC   GL237658  10.297   2.610   8.952
 2728POPC   C1A37659  10.624   2.874   8.682
 2728POPC   D2A37660  10.489   2.715   8.262
 2728POPC   C3A37661  10.603   2.808   7.825
 2728POPC   C4A37662  10.877   3.093   7.666
 2728POPC   C1B37663  10.115   3.027   8.767
 2728POPC   C2B37664  10.199   3.166   8.362
 2728POPC   C3B37665  10.125   2.927   7.962
 2728POPC   C4B37666  10.122   2.519   7.700
 2729POPC   NC337667   2.595   3.123   9.673
 2729POPC   PO437668   2.896   2.528   9.640
 2729POPC   GL137669   2.752   2.479   9.221
 2729POPC   GL237670   2.548   2.800   9.232
 2729POPC   C1A37671   2.779   2.507   8.766
 2729POPC   D2A37672   2.844   2.737   8.373
 2729POPC   C3A37673   2.656   2.591   8.000
 2729POPC   C4A37674   2.448   2.627   7.621
 2729POPC   C1B37675   2.463   2.936   8.808
 2729POPC   C2B37676   2.365   2.918   8.367
 2729POPC   C3B37677   2.520   3.096   8.001
 2729POPC   C4B37678   2.482   3.178   7.544
 2730POPC   NC337679   2.180  18.814   9.434
 2730POPC   PO437680   1.631  19.303   9.422
 2730POPC   GL137681   1.896  19.130   9.133
 2730POPC   GL237682   1.805  18.808   9.054
 2730POPC   C1A37683   1.900  19.192   8.703
 2730POPC   D2A37684   1.913  19.430   8.350
 2730POPC   C3A37685   1.983  19.221   7.951
 2730POPC   C4A37686   1.780  19.105   7.592
 2730POPC   C1B37687   2.102  18.728   8.759
 2730POPC   C2B37688   1.926  18.627   8.389
 2730POPC   C3B37689   2.066  18.700   8.037
 2730POPC   C4B37690   2.221  18.803   7.690
 2731POPC   NC337691   7.813  39.345   9.604
 2731POPC   PO437692   7.187  39.458   9.794
 2731POPC   GL137693   7.318  39.330   9.309
 2731POPC   GL237694   7.616  39.542   9.166
 2731POPC   C1A37695   7.277  39.156   8.850
 2731POPC   D2A37696   7.015  39.301   8.494
 2731POPC   C3A37697   7.114  39.226   8.045
 2731POPC   C4A37698   7.447  38.943   7.911
 2731POPC   C1B37699   7.488  39.597   8.744
 2731POPC   C2B37700   7.514  39.307   8.371
 2731POPC   C3B37701   7.569  39.463   7.947
 2731POPC   C4B37702   7.831  39.586   7.593
 2732POPC   NC337703  35.008   1.615   9.561
 2732POPC   PO437704  35.638   1.458   9.360
 2732POPC   GL137705  35.390   1.175   9.122
 2732POPC   GL237706  35.027   1.231   9.193
 2732POPC   C1A37707  35.479   1.016   8.695
 2732POPC   D2A37708  35.356   0.861   8.286
 2732POPC   C3A37709  35.434   1.185   7.974
 2732POPC   C4A37710  35.215   1.017   7.639
 2732POPC   C1B37711  35.075   1.379   8.772
 2732POPC   C2B37712  35.028   1.278   8.340
 2732POPC   C3B37713  34.949   1.361   7.910
 2732POPC   C4B37714  35.035   1.428   7.443
 2733POPC   NC337715  30.280  42.395   9.478
 2733POPC   PO437716  30.901  42.021   9.461
 2733POPC   GL137717  30.651  42.160   9.116
 2733POPC   GL237718  30.668  42.495   9.126
 2733POPC   C1A37719  30.485  42.261   8.695
 2733POPC   D2A37720  30.594  42.106   8.288
 2733POPC   C3A37721  30.596  42.324   7.916
 2733POPC   C4A37722  30.218  42.311   7.750
 2733POPC   C1B37723  30.964  42.472   8.756
 2733POPC   C2B37724  31.109  42.717   8.395
 2733POPC   C3B37725  30.941  42.900   7.999
 2733POPC   C4B37726  30.818  42.719   7.569
 2734POPC   NC337727  20.845  29.487   9.464
 2734POPC   PO437728  20.344  28.976   9.435
 2734POPC   GL137729  20.514  29.257   9.122
 2734POPC   GL237730  20.884  29.181   9.075
 2734POPC   C1A37731  20.557  29.246   8.671
 2734POPC   D2A37732  20.643  28.935   8.345
 2734POPC   C3A37733  20.461  28.953   7.930
 2734POPC   C4A37734  20.499  29.032   7.472
 2734POPC   C1B37735  21.064  29.230   8.663
 2734POPC   C2B37736  20.891  29.347   8.252
 2734POPC   C3B37737  20.936  29.161   7.827
 2734POPC   C4B37738  20.891  29.349   7.393
 2735POPC   NC337739   3.949  37.928   9.451
 2735POPC   PO437740   4.029  37.277   9.595
 2735POPC   GL137741   4.249  37.517   9.271
 2735POPC   GL237742   3.984  37.506   9.073
 2735POPC   C1A37743   4.388  37.735   8.846
 2735POPC   D2A37744   4.177  37.773   8.425
 2735POPC   C3A37745   4.355  37.779   7.997
 2735POPC   C4A37746   4.648  37.677   7.676
 2735POPC   C1B37747   3.826  37.846   8.807
 2735POPC   C2B37748   3.711  37.978   8.379
 2735POPC   C3B37749   3.965  38.115   8.068
 2735POPC   C4B37750   3.850  37.932   7.701
 2736POPC   NC337751  30.660   0.031   9.418
 2736POPC   PO437752  30.639  44.377   9.581
 2736POPC   GL137753  30.773  44.562   9.235
 2736POPC   GL237754  30.445  44.663   9.149
 2736POPC   C1A37755  30.851  44.559   8.823
 2736POPC   D2A37756  30.671  44.363   8.452
 2736POPC   C3A37757  30.863  44.471   8.061
 2736POPC   C4A37758  30.844  44.595   7.637
 2736POPC   C1B37759  30.296  44.671   8.741
 2736POPC   C2B37760  30.407  44.956   8.417
 2736POPC   C3B37761  30.489  44.898   7.988
 2736POPC   C4B37762  30.381  44.475   7.845
 2737POPC   NC337763  39.929  12.014   9.455
 2737POPC   PO437764  40.181  12.410   9.063
 2737POPC   GL137765  40.044  11.954   8.956
 2737POPC   GL237766  39.667  12.125   9.057
 2737POPC   C1A37767  39.945  11.697   8.485
 2737POPC   D2A37768  39.805  11.942   8.111
 2737POPC   C3A37769  40.208  12.135   7.926
 2737POPC   C4A37770  40.595  12.126   7.647
 2737POPC   C1B37771  39.484  12.438   8.784
 2737POPC   C2B37772  39.399  12.304   8.380
 2737POPC   C3B37773  39.516  12.405   7.998
 2737POPC   C4B37774  39.878  12.472   7.738
 2738POPC   NC337775   3.018  18.011   9.650
 2738POPC   PO437776   2.502  18.444   9.497
 2738POPC   GL137777   2.829  18.255   9.226
 2738POPC   GL237778   2.594  18.028   9.098
 2738POPC   C1A37779   2.957  18.110   8.766
 2738POPC   D2A37780   2.646  18.081   8.403
 2738POPC   C3A37781   2.839  18.187   8.010
 2738POPC   C4A37782   3.044  18.204   7.604
 2738POPC   C1B37783   2.590  18.447   8.820
 2738POPC   C2B37784   2.433  18.537   8.419
 2738POPC   C3B37785   2.608  18.660   8.073
 2738POPC   C4B37786   2.638  18.511   7.664
 2739POPC   NC337787  37.974  31.996   9.666
 2739POPC   PO437788  37.531  32.451   9.437
 2739POPC   GL137789  37.548  32.233   9.103
 2739POPC   GL237790  37.892  32.114   9.149
 2739POPC   C1A37791  37.702  32.306   8.721
 2739POPC   D2A37792  37.704  32.069   8.378
 2739POPC   C3A37793  37.771  32.348   8.065
 2739POPC   C4A37794  37.629  32.548   7.718
 2739POPC   C1B37795  38.108  31.934   8.744
 2739POPC   C2B37796  38.130  31.787   8.305
 2739POPC   C3B37797  37.947  31.898   7.900
 2739POPC   C4B37798  37.841  32.102   7.560
 2740POPC   NC337799  11.673  38.092   9.437
 2740POPC   PO437800  11.637  37.494   9.474
 2740POPC   GL137801  11.736  37.699   9.083
 2740POPC   GL237802  12.053  37.871   9.068
 2740POPC   C1A37803  11.855  37.634   8.631
 2740POPC   D2A37804  11.919  37.455   8.210
 2740POPC   C3A37805  11.889  37.731   7.873
 2740POPC   C4A37806  12.202  37.934   7.617
 2740POPC   C1B37807  12.348  37.740   8.711
 2740POPC   C2B37808  12.423  37.502   8.314
 2740POPC   C3B37809  12.337  37.465   7.864
 2740POPC   C4B37810  12.547  37.457   7.446
 2741POPC   NC337811  28.369  29.820   9.596
 2741POPC   PO437812  28.180  29.152   9.476
 2741POPC   GL137813  28.248  29.322   9.098
 2741POPC   GL237814  28.592  29.347   9.157
 2741POPC   C1A37815  28.120  29.210   8.680
 2741POPC   D2A37816  28.108  28.958   8.306
 2741POPC   C3A37817  28.130  29.097   7.850
 2741POPC   C4A37818  28.387  28.895   7.469
 2741POPC   C1B37819  28.633  29.111   8.776
 2741POPC   C2B37820  28.548  29.205   8.349
 2741POPC   C3B37821  28.603  28.971   7.964
 2741POPC   C4B37822  28.555  29.319   7.665
 2742POPC   NC337823  10.892  29.701   9.765
 2742POPC   PO437824  11.387  30.106   9.528
 2742POPC   GL137825  11.423  29.861   9.209
 2742POPC   GL237826  11.102  29.795   9.132
 2742POPC   C1A37827  11.463  29.955   8.804
 2742POPC   D2A37828  11.206  30.163   8.541
 2742POPC   C3A37829  11.401  30.126   8.130
 2742POPC   C4A37830  11.301  30.300   7.749
 2742POPC   C1B37831  11.063  29.654   8.721
 2742POPC   C2B37832  11.261  29.667   8.346
 2742POPC   C3B37833  11.188  29.707   7.913
 2742POPC   C4B37834  11.004  29.561   7.545
 2743POPC   NC337835  37.216   4.220   9.520
 2743POPC   PO437836  36.605   4.287   9.382
 2743POPC   GL137837  36.921   4.098   9.119
 2743POPC   GL237838  37.138   4.396   9.057
 2743POPC   C1A37839  36.840   3.865   8.767
 2743POPC   D2A37840  36.744   3.979   8.369
 2743POPC   C3A37841  36.645   4.125   7.968
 2743POPC   C4A37842  36.625   4.262   7.546
 2743POPC   C1B37843  36.926   4.388   8.669
 2743POPC   C2B37844  37.087   4.346   8.247
 2743POPC   C3B37845  37.047   4.418   7.800
 2743POPC   C4B37846  36.893   4.686   7.434
 2744POPC   NC337847  30.294   5.953   9.336
 2744POPC   PO437848  30.946   6.116   9.509
 2744POPC   GL137849  30.773   5.778   9.234
 2744POPC   GL237850  31.040   5.746   9.012
 2744POPC   C1A37851  30.573   5.656   8.803
 2744POPC   D2A37852  30.558   5.573   8.328
 2744POPC   C3A37853  30.594   5.777   7.876
 2744POPC   C4A37854  30.850   5.751   7.467
 2744POPC   C1B37855  30.791   6.136   8.854
 2744POPC   C2B37856  30.656   6.333   8.453
 2744POPC   C3B37857  30.768   6.272   8.005
 2744POPC   C4B37858  30.795   6.599   7.746
 2745POPC   NC337859  38.196  19.720   9.562
 2745POPC   PO437860  38.808  19.430   9.543
 2745POPC   GL137861  38.526  19.561   9.164
 2745POPC   GL237862  38.391  19.886   9.132
 2745POPC   C1A37863  38.578  19.706   8.720
 2745POPC   D2A37864  38.535  19.978   8.398
 2745POPC   C3A37865  38.550  19.765   7.976
 2745POPC   C4A37866  38.559  19.941   7.603
 2745POPC   C1B37867  38.276  20.173   8.823
 2745POPC   C2B37868  38.055  20.139   8.445
 2745POPC   C3B37869  38.196  20.107   8.033
 2745POPC   C4B37870  38.027  20.065   7.656
 2746POPC   NC337871  14.031  12.800   9.581
 2746POPC   PO437872  14.706  12.702   9.556
 2746POPC   GL137873  14.372  12.642   9.254
 2746POPC   GL237874  14.204  12.982   9.150
 2746POPC   C1A37875  14.174  12.575   8.867
 2746POPC   D2A37876  14.351  12.760   8.508
 2746POPC   C3A37877  14.154  12.724   8.092
 2746POPC   C4A37878  14.394  12.624   7.745
 2746POPC   C1B37879  14.450  13.176   8.837
 2746POPC   C2B37880  14.666  13.163   8.448
 2746POPC   C3B37881  14.643  12.920   8.094
 2746POPC   C4B37882  14.465  13.165   7.814
 2747POPC   NC337883  28.213   6.330   9.602
 2747POPC   PO437884  28.632   6.797   9.444
 2747POPC   GL137885  28.387   6.696   9.131
 2747POPC   GL237886  28.350   6.347   9.115
 2747POPC   C1A37887  28.505   6.719   8.715
 2747POPC   D2A37888  28.448   6.971   8.365
 2747POPC   C3A37889  28.478   6.698   8.029
 2747POPC   C4A37890  28.567   6.790   7.603
 2747POPC   C1B37891  28.087   6.425   8.790
 2747POPC   C2B37892  28.061   6.600   8.389
 2747POPC   C3B37893  28.094   6.373   7.996
 2747POPC   C4B37894  28.230   6.418   7.595
 2748POPC   NC337895  10.746  43.993   9.620
 2748POPC   PO437896  11.396  44.139   9.452
 2748POPC   GL137897  11.177  43.885   9.188
 2748POPC   GL237898  11.118  43.552   9.327
 2748POPC   C1A37899  11.296  43.958   8.765
 2748POPC   D2A37900  11.458  44.066   8.363
 2748POPC   C3A37901  11.174  43.986   8.032
 2748POPC   C4A37902  11.341  43.819   7.709
 2748POPC   C1B37903  11.071  43.506   8.867
 2748POPC   C2B37904  11.000  43.690   8.447
 2748POPC   C3B37905  11.169  43.488   8.089
 2748POPC   C4B37906  11.039  43.430   7.668
 2749POPC   NC337907  28.894   2.633   9.452
 2749POPC   PO437908  29.449   2.948   9.599
 2749POPC   GL137909  29.293   2.848   9.180
 2749POPC   GL237910  29.391   2.491   9.194
 2749POPC   C1A37911  29.159   2.983   8.736
 2749POPC   D2A37912  29.109   2.746   8.332
 2749POPC   C3A37913  28.884   2.938   7.978
 2749POPC   C4A37914  29.163   3.030   7.623
 2749POPC   C1B37915  29.188   2.452   8.794
 2749POPC   C2B37916  28.880   2.298   8.494
 2749POPC   C3B37917  29.012   2.240   8.085
 2749POPC   C4B37918  29.110   2.535   7.765
 2750POPC   NC337919  18.404  24.066   9.489
 2750POPC   PO437920  18.304  24.682   9.643
 2750POPC   GL137921  18.477  24.525   9.250
 2750POPC   GL237922  18.184  24.349   9.121
 2750POPC   C1A37923  18.579  24.581   8.807
 2750POPC   D2A37924  18.439  24.815   8.436
 2750POPC   C3A37925  18.472  24.509   8.124
 2750POPC   C4A37926  18.462  24.375   7.729
 2750POPC   C1B37927  18.038  24.659   8.815
 2750POPC   C2B37928  18.030  24.485   8.401
 2750POPC   C3B37929  17.979  24.342   8.000
 2750POPC   C4B37930  18.081  24.732   7.835
 2751POPC   NC337931  21.950  31.873   9.959
 2751POPC   PO437932  22.231  32.398   9.527
 2751POPC   GL137933  22.256  32.285   9.092
 2751POPC   GL237934  21.941  32.464   9.032
 2751POPC   C1A37935  22.510  32.254   8.682
 2751POPC   D2A37936  22.647  32.195   8.232
 2751POPC   C3A37937  22.328  32.203   7.891
 2751POPC   C4A37938  21.896  32.073   7.811
 2751POPC   C1B37939  22.202  32.653   8.734
 2751POPC   C2B37940  22.240  32.532   8.300
 2751POPC   C3B37941  22.217  32.697   7.867
 2751POPC   C4B37942  22.022  32.535   7.488
 2752POPC   NC337943  32.765  34.476   9.330
 2752POPC   PO437944  33.278  34.854   9.635
 2752POPC   GL137945  33.214  34.726   9.221
 2752POPC   GL237946  33.239  34.372   9.104
 2752POPC   C1A37947  33.159  34.796   8.795
 2752POPC   D2A37948  32.799  34.890   8.547
 2752POPC   C3A37949  32.877  34.798   8.131
 2752POPC   C4A37950  33.043  34.842   7.730
 2752POPC   C1B37951  32.933  34.362   8.724
 2752POPC   C2B37952  32.949  34.303   8.274
 2752POPC   C3B37953  32.837  34.386   7.850
 2752POPC   C4B37954  32.613  34.181   7.544
 2753POPC   NC337955  38.919   6.825   9.635
 2753POPC   PO437956  39.212   6.342   9.671
 2753POPC   GL137957  39.241   6.554   9.236
 2753POPC   GL237958  39.168   6.905   9.190
 2753POPC   C1A37959  39.175   6.577   8.764
 2753POPC   D2A37960  39.360   6.577   8.353
 2753POPC   C3A37961  39.220   6.340   8.013
 2753POPC   C4A37962  39.176   6.440   7.580
 2753POPC   C1B37963  39.344   7.059   8.802
 2753POPC   C2B37964  39.239   7.069   8.353
 2753POPC   C3B37965  39.238   6.875   7.899
 2753POPC   C4B37966  39.456   6.867   7.450
 2754POPC   NC337967  13.890  11.270   9.490
 2754POPC   PO437968  14.356  11.662   9.396
 2754POPC   GL137969  14.207  11.639   9.045
 2754POPC   GL237970  14.214  11.279   9.085
 2754POPC   C1A37971  14.453  11.574   8.691
 2754POPC   D2A37972  14.702  11.343   8.368
 2754POPC   C3A37973  14.504  11.418   7.955
 2754POPC   C4A37974  14.493  11.745   7.647
 2754POPC   C1B37975  14.408  11.079   8.726
 2754POPC   C2B37976  14.246  11.152   8.323
 2754POPC   C3B37977  14.510  10.916   8.094
 2754POPC   C4B37978  14.590  10.880   7.677
 2755POPC   NC337979  12.164  21.135   9.559
 2755POPC   PO437980  11.963  21.740   9.737
 2755POPC   GL137981  12.237  21.558   9.289
 2755POPC   GL237982  12.391  21.198   9.127
 2755POPC   C1A37983  12.217  21.544   8.819
 2755POPC   D2A37984  12.062  21.676   8.420
 2755POPC   C3A37985  12.212  21.457   8.072
 2755POPC   C4A37986  12.173  21.602   7.653
 2755POPC   C1B37987  12.149  21.048   8.750
 2755POPC   C2B37988  11.947  21.088   8.326
 2755POPC   C3B37989  11.801  21.203   7.899
 2755POPC   C4B37990  12.037  21.143   7.504
 2756POPC   NC337991  34.052  41.417   9.516
 2756POPC   PO437992  33.486  41.359   9.899
 2756POPC   GL137993  33.438  41.391   9.374
 2756POPC   GL237994  33.704  41.601   9.180
 2756POPC   C1A37995  33.402  41.355   8.872
 2756POPC   D2A37996  33.524  41.114   8.499
 2756POPC   C3A37997  33.589  41.343   8.089
 2756POPC   C4A37998  33.561  41.589   7.682
 2756POPC   C1B37999  33.915  41.275   8.855
 2756POPC   C2B38000  34.068  41.200   8.400
 2756POPC   C3B38001  34.135  41.368   7.963
 2756POPC   C4B38002  34.073  41.459   7.515
 2757POPC   NC338003  41.612  32.059   9.445
 2757POPC   PO438004  41.734  32.740   9.489
 2757POPC   GL138005  41.920  32.376   9.190
 2757POPC   GL238006  41.906  31.973   9.049
 2757POPC   C1A38007  41.692  32.342   8.813
 2757POPC   D2A38008  41.602  32.539   8.475
 2757POPC   C3A38009  41.606  32.290   8.106
 2757POPC   C4A38010  41.359  32.380   7.792
 2757POPC   C1B38011  41.533  31.848   8.766
 2757POPC   C2B38012  41.253  31.981   8.387
 2757POPC   C3B38013  41.380  31.869   7.957
 2757POPC   C4B38014  41.829  31.867   7.824
 2758POPC   NC338015  26.648   3.775   9.335
 2758POPC   PO438016  27.038   3.258   9.552
 2758POPC   GL138017  27.103   3.496   9.184
 2758POPC   GL238018  27.053   3.171   9.026
 2758POPC   C1A38019  26.993   3.590   8.737
 2758POPC   D2A38020  27.011   3.325   8.345
 2758POPC   C3A38021  27.082   3.584   7.980
 2758POPC   C4A38022  26.733   3.768   7.793
 2758POPC   C1B38023  26.692   3.168   8.762
 2758POPC   C2B38024  26.464   3.144   8.358
 2758POPC   C3B38025  26.626   3.304   7.971
 2758POPC   C4B38026  26.997   3.109   7.790
 2759POPC   NC338027   5.019  43.618   9.388
 2759POPC   PO438028   5.241  44.188   9.704
 2759POPC   GL138029   5.344  44.003   9.279
 2759POPC   GL238030   5.491  43.676   9.182
 2759POPC   C1A38031   5.180  43.998   8.832
 2759POPC   D2A38032   5.099  43.779   8.444
 2759POPC   C3A38033   5.193  43.987   8.087
 2759POPC   C4A38034   5.065  43.930   7.711
 2759POPC   C1B38035   5.522  43.648   8.725
 2759POPC   C2B38036   5.626  43.559   8.283
 2759POPC   C3B38037   5.426  43.581   7.860
 2759POPC   C4B38038   5.299  43.600   7.414
 2760POPC   NC338039  28.091  11.535   9.362
 2760POPC   PO438040  27.441  11.519   9.585
 2760POPC   GL138041  27.645  11.256   9.269
 2760POPC   GL238042  27.667  11.578   9.077
 2760POPC   C1A38043  27.608  11.141   8.818
 2760POPC   D2A38044  27.401  11.421   8.509
 2760POPC   C3A38045  27.347  11.424   8.025
 2760POPC   C4A38046  27.367  11.045   7.762
 2760POPC   C1B38047  27.825  11.725   8.670
 2760POPC   C2B38048  27.744  11.692   8.219
 2760POPC   C3B38049  27.869  11.427   7.857
 2760POPC   C4B38050  28.017  11.489   7.431
 2761POPC   NC338051  27.444  16.433   9.457
 2761POPC   PO438052  27.707  15.772   9.435
 2761POPC   GL138053  27.759  16.140   9.148
 2761POPC   GL238054  27.441  16.229   8.982
 2761POPC   C1A38055  27.853  16.070   8.694
 2761POPC   D2A38056  27.760  15.845   8.287
 2761POPC   C3A38057  27.712  16.039   7.885
 2761POPC   C4A38058  27.487  16.236   7.525
 2761POPC   C1B38059  27.413  15.763   8.829
 2761POPC   C2B38060  27.358  15.540   8.407
 2761POPC   C3B38061  27.333  15.708   7.971
 2761POPC   C4B38062  27.030  15.820   7.631
 2762POPC   NC338063  19.984  40.584   9.562
 2762POPC   PO438064  20.019  41.244   9.475
 2762POPC   GL138065  19.835  41.002   9.141
 2762POPC   GL238066  19.808  40.649   9.057
 2762POPC   C1A38067  19.647  41.060   8.794
 2762POPC   D2A38068  19.764  40.796   8.478
 2762POPC   C3A38069  19.831  40.816   8.091
 2762POPC   C4A38070  20.041  40.492   7.829
 2762POPC   C1B38071  19.444  40.570   8.773
 2762POPC   C2B38072  19.377  40.363   8.367
 2762POPC   C3B38073  19.520  40.446   7.939
 2762POPC   C4B38074  19.429  40.814   7.745
 2763POPC   NC338075  27.410  14.635   9.434
 2763POPC   PO438076  27.478  13.939   9.343
 2763POPC   GL138077  27.542  14.260   9.104
 2763POPC   GL238078  27.197  14.341   9.057
 2763POPC   C1A38079  27.567  14.247   8.687
 2763POPC   D2A38080  27.588  13.954   8.372
 2763POPC   C3A38081  27.413  14.139   7.967
 2763POPC   C4A38082  27.659  14.476   7.758
 2763POPC   C1B38083  27.225  14.629   8.712
 2763POPC   C2B38084  27.364  14.532   8.288
 2763POPC   C3B38085  27.225  14.664   7.890
 2763POPC   C4B38086  27.244  14.396   7.476
 2764POPC   NC338087  24.989  36.934   9.731
 2764POPC   PO438088  25.569  36.599   9.773
 2764POPC   GL138089  25.191  36.802   9.305
 2764POPC   GL238090  25.375  37.009   9.077
 2764POPC   C1A38091  25.144  36.594   8.838
 2764POPC   D2A38092  25.034  36.741   8.444
 2764POPC   C3A38093  25.140  36.634   8.025
 2764POPC   C4A38094  25.188  36.930   7.689
 2764POPC   C1B38095  25.352  37.093   8.629
 2764POPC   C2B38096  25.276  37.117   8.173
 2764POPC   C3B38097  25.411  37.361   7.814
 2764POPC   C4B38098  25.175  37.358   7.405
 2765POPC   NC338099  10.155  43.896   9.414
 2765POPC   PO438100  10.654  43.502   9.609
 2765POPC   GL138101  10.637  43.725   9.208
 2765POPC   GL238102  10.348  43.570   9.075
 2765POPC   C1A38103  10.767  43.994   8.860
 2765POPC   D2A38104  10.503  44.135   8.513
 2765POPC   C3A38105  10.650  44.037   8.098
 2765POPC   C4A38106  10.350  44.012   7.741
 2765POPC   C1B38107  10.565  43.536   8.731
 2765POPC   C2B38108  10.464  43.633   8.339
 2765POPC   C3B38109  10.649  43.548   7.971
 2765POPC   C4B38110  10.395  43.435   7.674
 2766POPC   NC338111   4.578  21.560   9.537
 2766POPC   PO438112   3.975  21.579   9.768
 2766POPC   GL138113   4.128  21.531   9.283
 2766POPC   GL238114   4.007  21.251   9.072
 2766POPC   C1A38115   4.461  21.444   8.917
 2766POPC   D2A38116   4.467  21.557   8.479
 2766POPC   C3A38117   4.290  21.248   8.178
 2766POPC   C4A38118   4.470  21.254   7.770
 2766POPC   C1B38119   4.017  21.641   8.790
 2766POPC   C2B38120   3.981  21.664   8.337
 2766POPC   C3B38121   4.186  21.689   7.942
 2766POPC   C4B38122   4.071  21.527   7.549
 2767POPC   NC338123  30.794  10.274   9.321
 2767POPC   PO438124  30.649  10.916   9.507
 2767POPC   GL138125  30.702  10.717   9.099
 2767POPC   GL238126  30.381  10.593   9.067
 2767POPC   C1A38127  30.972  10.548   8.739
 2767POPC   D2A38128  30.784  10.537   8.351
 2767POPC   C3A38129  30.883  10.315   8.001
 2767POPC   C4A38130  31.021  10.628   7.733
 2767POPC   C1B38131  30.437  10.379   8.714
 2767POPC   C2B38132  30.260  10.397   8.314
 2767POPC   C3B38133  30.442  10.553   7.954
 2767POPC   C4B38134  30.499  10.580   7.534
 2768POPC   NC338135   6.365  17.113   9.862
 2768POPC   PO438136   6.669  16.604   9.403
 2768POPC   GL138137   6.536  16.662   9.026
 2768POPC   GL238138   6.805  16.938   9.046
 2768POPC   C1A38139   6.544  16.826   8.616
 2768POPC   D2A38140   6.632  16.538   8.311
 2768POPC   C3A38141   6.434  16.584   7.908
 2768POPC   C4A38142   6.362  16.991   7.710
 2768POPC   C1B38143   6.974  16.606   8.788
 2768POPC   C2B38144   7.158  16.637   8.411
 2768POPC   C3B38145   7.026  16.560   8.009
 2768POPC   C4B38146   6.854  16.835   7.722
 2769POPC   NC338147   4.473  40.646   9.567
 2769POPC   PO438148   3.943  41.058   9.514
 2769POPC   GL138149   4.178  40.818   9.177
 2769POPC   GL238150   4.556  40.872   9.121
 2769POPC   C1A38151   4.288  40.686   8.742
 2769POPC   D2A38152   4.515  40.774   8.357
 2769POPC   C3A38153   4.392  40.527   8.020
 2769POPC   C4A38154   4.609  40.357   7.705
 2769POPC   C1B38155   4.363  41.203   8.848
 2769POPC   C2B38156   4.164  41.137   8.480
 2769POPC   C3B38157   4.286  41.168   8.063
 2769POPC   C4B38158   4.321  40.937   7.688
 2770POPC   NC338159  18.229  38.029   9.475
 2770POPC   PO438160  18.592  38.563   9.539
 2770POPC   GL138161  18.493  38.405   9.144
 2770POPC   GL238162  18.139  38.405   9.142
 2770POPC   C1A38163  18.402  38.588   8.746
 2770POPC   D2A38164  18.475  38.539   8.316
 2770POPC   C3A38165  18.339  38.519   7.909
 2770POPC   C4A38166  18.428  38.529   7.494
 2770POPC   C1B38167  18.130  38.155   8.754
 2770POPC   C2B38168  18.087  38.193   8.296
 2770POPC   C3B38169  18.006  38.151   7.854
 2770POPC   C4B38170  18.086  38.085   7.411
 2771POPC   NC338171  16.469  24.200   9.692
 2771POPC   PO438172  15.860  24.563   9.616
 2771POPC   GL138173  15.781  24.536   9.153
 2771POPC   GL238174  15.779  24.203   8.985
 2771POPC   C1A38175  15.758  24.747   8.718
 2771POPC   D2A38176  15.919  24.783   8.277
 2771POPC   C3A38177  15.859  24.478   7.972
 2771POPC   C4A38178  16.001  24.248   7.651
 2771POPC   C1B38179  16.126  24.356   8.739
 2771POPC   C2B38180  16.149  24.232   8.325
 2771POPC   C3B38181  16.392  24.346   7.998
 2771POPC   C4B38182  16.503  24.138   7.640
 2772POPC   NC338183  21.944  33.468   9.545
 2772POPC   PO438184  22.424  33.906   9.652
 2772POPC   GL138185  22.207  33.857   9.268
 2772POPC   GL238186  22.307  33.517   9.184
 2772POPC   C1A38187  22.328  33.920   8.826
 2772POPC   D2A38188  22.142  33.958   8.410
 2772POPC   C3A38189  22.370  34.038   7.997
 2772POPC   C4A38190  22.266  33.853   7.579
 2772POPC   C1B38191  21.962  33.567   8.885
 2772POPC   C2B38192  21.936  33.462   8.442
 2772POPC   C3B38193  22.111  33.584   8.041
 2772POPC   C4B38194  21.966  33.439   7.638
 2773POPC   NC338195  16.869   4.478   9.525
 2773POPC   PO438196  16.488   3.854   9.672
 2773POPC   GL138197  16.633   4.069   9.276
 2773POPC   GL238198  16.466   4.413   9.190
 2773POPC   C1A38199  16.871   4.113   8.875
 2773POPC   D2A38200  16.683   4.138   8.464
 2773POPC   C3A38201  16.889   4.154   8.066
 2773POPC   C4A38202  16.586   4.146   7.792
 2773POPC   C1B38203  16.773   4.608   8.884
 2773POPC   C2B38204  17.019   4.514   8.516
 2773POPC   C3B38205  17.065   4.649   8.109
 2773POPC   C4B38206  16.730   4.616   7.823
 2774POPC   NC338207  13.157  32.692   9.300
 2774POPC   PO438208  13.714  33.078   9.353
 2774POPC   GL138209  13.542  32.880   9.014
 2774POPC   GL238210  13.287  33.112   8.974
 2774POPC   C1A38211  13.307  32.733   8.638
 2774POPC   D2A38212  13.286  32.891   8.195
 2774POPC   C3A38213  13.615  32.985   7.889
 2774POPC   C4A38214  13.793  33.232   7.565
 2774POPC   C1B38215  13.494  33.202   8.579
 2774POPC   C2B38216  13.618  33.395   8.177
 2774POPC   C3B38217  13.550  33.632   7.767
 2774POPC   C4B38218  13.482  33.591   7.307
 2775POPC   NC338219  19.557  22.727   9.338
 2775POPC   PO438220  20.112  23.145   9.491
 2775POPC   GL138221  19.911  23.063   9.162
 2775POPC   GL238222  20.053  22.738   9.184
 2775POPC   C1A38223  19.762  22.968   8.769
 2775POPC   D2A38224  19.915  23.068   8.386
 2775POPC   C3A38225  19.577  23.091   8.091
 2775POPC   C4A38226  19.733  22.949   7.740
 2775POPC   C1B38227  20.267  22.851   8.834
 2775POPC   C2B38228  20.291  22.666   8.440
 2775POPC   C3B38229  20.092  22.709   8.059
 2775POPC   C4B38230  20.049  22.560   7.674
 2776POPC   NC338231   5.186  30.784   9.359
 2776POPC   PO438232   4.621  31.055   9.587
 2776POPC   GL138233   4.770  30.929   9.111
 2776POPC   GL238234   4.790  30.595   8.958
 2776POPC   C1A38235   5.100  30.936   8.722
 2776POPC   D2A38236   5.401  30.808   8.358
 2776POPC   C3A38237   5.404  30.427   8.080
 2776POPC   C4A38238   5.485  30.497   7.624
 2776POPC   C1B38239   4.632  30.758   8.577
 2776POPC   C2B38240   4.907  30.928   8.257
 2776POPC   C3B38241   5.091  30.777   7.893
 2776POPC   C4B38242   5.085  30.793   7.447
 2777POPC   NC338243  11.736  42.125   9.757
 2777POPC   PO438244  12.016  42.691   9.518
 2777POPC   GL138245  12.055  42.484   9.116
 2777POPC   GL238246  12.072  42.202   9.298
 2777POPC   C1A38247  12.094  42.335   8.677
 2777POPC   D2A38248  11.891  42.381   8.340
 2777POPC   C3A38249  12.120  42.586   8.037
 2777POPC   C4A38250  12.001  42.333   7.708
 2777POPC   C1B38251  12.352  42.013   8.952
 2777POPC   C2B38252  12.387  41.926   8.489
 2777POPC   C3B38253  12.238  42.066   8.095
 2777POPC   C4B38254  12.266  41.892   7.672
 2778POPC   NC338255  36.128  23.630   9.529
 2778POPC   PO438256  36.525  24.083   9.187
 2778POPC   GL138257  36.238  23.855   8.976
 2778POPC   GL238258  35.934  23.655   9.049
 2778POPC   C1A38259  36.324  23.921   8.573
 2778POPC   D2A38260  36.145  24.025   8.249
 2778POPC   C3A38261  35.925  23.729   8.064
 2778POPC   C4A38262  35.972  23.850   7.665
 2778POPC   C1B38263  35.967  23.577   8.588
 2778POPC   C2B38264  36.335  23.481   8.312
 2778POPC   C3B38265  36.259  23.290   7.911
 2778POPC   C4B38266  35.845  23.365   7.687
 2779POPC   NC338267  38.332  24.023   9.495
 2779POPC   PO438268  38.644  24.554   9.630
 2779POPC   GL138269  38.578  24.518   9.174
 2779POPC   GL238270  38.550  24.160   9.050
 2779POPC   C1A38271  38.707  24.518   8.731
 2779POPC   D2A38272  38.511  24.237   8.440
 2779POPC   C3A38273  38.636  24.189   8.008
 2779POPC   C4A38274  38.637  24.503   7.664
 2779POPC   C1B38275  38.192  24.346   8.830
 2779POPC   C2B38276  38.002  24.439   8.447
 2779POPC   C3B38277  38.156  24.378   8.043
 2779POPC   C4B38278  37.874  24.402   7.744
 2780POPC   NC338279  15.942  25.008   9.429
 2780POPC   PO438280  16.584  24.970   9.415
 2780POPC   GL138281  16.314  25.257   9.144
 2780POPC   GL238282  15.974  25.447   9.181
 2780POPC   C1A38283  16.281  25.448   8.760
 2780POPC   D2A38284  16.171  25.173   8.474
 2780POPC   C3A38285  16.100  25.341   8.100
 2780POPC   C4A38286  15.973  25.133   7.763
 2780POPC   C1B38287  15.751  25.319   8.785
 2780POPC   C2B38288  15.671  25.238   8.339
 2780POPC   C3B38289  15.647  25.498   7.979
 2780POPC   C4B38290  15.769  25.648   7.608
 2781POPC   NC338291  12.529  24.719   9.326
 2781POPC   PO438292  13.187  24.458   9.198
 2781POPC   GL138293  12.947  24.222   8.904
 2781POPC   GL238294  12.604  24.330   8.980
 2781POPC   C1A38295  12.723  24.240   8.487
 2781POPC   D2A38296  12.935  24.569   8.314
 2781POPC   C3A38297  13.120  24.477   7.946
 2781POPC   C4A38298  13.270  24.750   7.668
 2781POPC   C1B38299  12.592  24.716   8.686
 2781POPC   C2B38300  12.514  24.877   8.265
 2781POPC   C3B38301  12.617  24.551   7.906
 2781POPC   C4B38302  12.796  24.161   7.721
 2782POPC   NC338303   6.948  44.144   9.536
 2782POPC   PO438304   7.605  44.008   9.530
 2782POPC   GL138305   7.362  43.840   9.217
 2782POPC   GL238306   7.242  44.164   9.129
 2782POPC   C1A38307   7.543  43.676   8.832
 2782POPC   D2A38308   7.539  43.795   8.405
 2782POPC   C3A38309   7.499  43.594   8.009
 2782POPC   C4A38310   7.593  43.899   7.705
 2782POPC   C1B38311   7.125  43.948   8.756
 2782POPC   C2B38312   7.033  43.842   8.336
 2782POPC   C3B38313   7.175  44.042   7.990
 2782POPC   C4B38314   7.105  44.023   7.565
 2783POPC   NC338315  40.224  17.080   9.569
 2783POPC   PO438316  39.729  17.070   9.203
 2783POPC   GL138317  40.007  16.823   9.063
 2783POPC   GL238318  40.355  16.975   9.061
 2783POPC   C1A38319  39.890  16.647   8.652
 2783POPC   D2A38320  39.757  16.762   8.224
 2783POPC   C3A38321  40.095  16.595   7.972
 2783POPC   C4A38322  40.099  16.298   7.636
 2783POPC   C1B38323  40.149  17.078   8.647
 2783POPC   C2B38324  40.251  17.007   8.228
 2783POPC   C3B38325  40.257  17.066   7.780
 2783POPC   C4B38326  40.083  17.188   7.383
 2784POPC   NC338327   4.990  28.811   9.645
 2784POPC   PO438328   4.978  29.471   9.533
 2784POPC   GL138329   5.057  29.130   9.229
 2784POPC   GL238330   5.225  29.358   9.007
 2784POPC   C1A38331   4.962  28.987   8.794
 2784POPC   D2A38332   5.172  29.238   8.469
 2784POPC   C3A38333   4.956  29.250   8.118
 2784POPC   C4A38334   4.838  28.897   7.850
 2784POPC   C1B38335   5.478  29.004   8.808
 2784POPC   C2B38336   5.426  28.759   8.416
 2784POPC   C3B38337   5.322  28.893   7.992
 2784POPC   C4B38338   5.283  29.273   7.735
 2785POPC   NC338339  17.749  10.041   9.453
 2785POPC   PO438340  17.116   9.706   9.452
 2785POPC   GL138341  17.467   9.686   9.164
 2785POPC   GL238342  17.460  10.002   9.020
 2785POPC   C1A38343  17.471   9.555   8.722
 2785POPC   D2A38344  17.272   9.511   8.315
 2785POPC   C3A38345  17.350   9.637   7.895
 2785POPC   C4A38346  17.504   9.653   7.452
 2785POPC   C1B38347  17.697  10.008   8.625
 2785POPC   C2B38348  17.924   9.926   8.225
 2785POPC   C3B38349  17.761   9.958   7.790
 2785POPC   C4B38350  17.629  10.170   7.426
 2786POPC   NC338351   9.924  44.436   9.830
 2786POPC   PO438352   9.534  44.875   9.726
 2786POPC   GL138353   9.741  44.800   9.283
 2786POPC   GL238354   9.590  44.505   9.230
 2786POPC   C1A38355   9.879  44.582   8.822
 2786POPC   D2A38356  10.181  44.709   8.478
 2786POPC   C3A38357  10.024  44.759   8.030
 2786POPC   C4A38358   9.625  44.755   7.794
 2786POPC   C1B38359   9.387  44.457   8.824
 2786POPC   C2B38360   9.565  44.408   8.390
 2786POPC   C3B38361   9.432  44.322   7.949
 2786POPC   C4B38362   9.487  44.350   7.451
 2787POPC   NC338363  40.551  39.901   9.496
 2787POPC   PO438364  40.994  39.422   9.675
 2787POPC   GL138365  40.921  39.675   9.227
 2787POPC   GL238366  40.581  39.763   8.999
 2787POPC   C1A38367  41.031  39.935   8.854
 2787POPC   D2A38368  40.750  39.906   8.488
 2787POPC   C3A38369  40.816  40.144   8.115
 2787POPC   C4A38370  40.758  40.020   7.705
 2787POPC   C1B38371  40.590  40.231   8.856
 2787POPC   C2B38372  40.569  40.438   8.451
 2787POPC   C3B38373  40.414  40.493   8.017
 2787POPC   C4B38374  40.586  40.478   7.604
 2788POPC   NC338375   8.792   2.856   9.419
 2788POPC   PO438376   9.302   3.273   9.363
 2788POPC   GL138377   9.026   3.051   9.020
 2788POPC   GL238378   8.613   3.106   9.010
 2788POPC   C1A38379   9.164   2.745   8.736
 2788POPC   D2A38380   9.420   2.619   8.395
 2788POPC   C3A38381   9.211   2.614   7.985
 2788POPC   C4A38382   8.995   2.986   7.806
 2788POPC   C1B38383   8.641   2.748   8.741
 2788POPC   C2B38384   8.838   2.599   8.358
 2788POPC   C3B38385   8.708   2.579   7.942
 2788POPC   C4B38386   8.528   2.379   7.607
 2789POPC   NC338387  11.065   0.332   9.494
 2789POPC   PO438388  11.576   0.720   9.562
 2789POPC   GL138389  11.379   0.571   9.156
 2789POPC   GL238390  11.031   0.709   9.149
 2789POPC   C1A38391  11.350   0.436   8.719
 2789POPC   D2A38392  11.503   0.157   8.394
 2789POPC   C3A38393  11.437   0.374   8.006
 2789POPC   C4A38394  11.053   0.337   7.767
 2789POPC   C1B38395  11.142   0.907   8.771
 2789POPC   C2B38396  11.319   0.884   8.377
 2789POPC   C3B38397  11.162   0.801   7.965
 2789POPC   C4B38398  10.816   0.863   7.697
 2790POPC   NC338399   2.245  42.662   9.398
 2790POPC   PO438400   1.890  43.271   9.454
 2790POPC   GL138401   2.049  43.292   9.092
 2790POPC   GL238402   2.005  42.921   9.049
 2790POPC   C1A38403   2.302  43.209   8.769
 2790POPC   D2A38404   2.193  42.940   8.397
 2790POPC   C3A38405   2.017  43.116   8.010
 2790POPC   C4A38406   2.151  43.184   7.593
 2790POPC   C1B38407   1.808  42.727   8.722
 2790POPC   C2B38408   1.682  42.865   8.332
 2790POPC   C3B38409   1.735  42.699   7.929
 2790POPC   C4B38410   1.718  42.892   7.525
 2791POPC   NC338411  12.838  16.404   9.335
 2791POPC   PO438412  12.964  16.997   9.689
 2791POPC   GL138413  12.848  17.088   9.248
 2791POPC   GL238414  12.487  16.966   9.203
 2791POPC   C1A38415  12.801  17.149   8.769
 2791POPC   D2A38416  12.914  16.780   8.460
 2791POPC   C3A38417  13.079  16.795   8.028
 2791POPC   C4A38418  12.953  16.626   7.649
 2791POPC   C1B38419  12.440  16.785   8.768
 2791POPC   C2B38420  12.473  16.999   8.350
 2791POPC   C3B38421  12.548  16.782   7.957
 2791POPC   C4B38422  12.515  16.785   7.483
 2792POPC   NC338423  26.843  36.698   9.490
 2792POPC   PO438424  26.404  37.120   9.558
 2792POPC   GL138425  26.668  37.007   9.128
 2792POPC   GL238426  27.045  37.030   9.162
 2792POPC   C1A38427  26.846  36.749   8.760
 2792POPC   D2A38428  27.012  36.506   8.409
 2792POPC   C3A38429  26.922  36.720   8.004
 2792POPC   C4A38430  27.149  36.752   7.632
 2792POPC   C1B38431  27.079  37.197   8.757
 2792POPC   C2B38432  27.094  37.035   8.367
 2792POPC   C3B38433  27.238  37.129   7.962
 2792POPC   C4B38434  26.917  37.206   7.645
 2793POPC   NC338435   1.617  12.188   9.527
 2793POPC   PO438436   2.235  12.269   9.744
 2793POPC   GL138437   2.068  12.190   9.288
 2793POPC   GL238438   1.820  12.450   9.164
 2793POPC   C1A38439   2.164  12.252   8.823
 2793POPC   D2A38440   2.098  12.015   8.461
 2793POPC   C3A38441   2.172  12.135   8.044
 2793POPC   C4A38442   1.976  11.848   7.768
 2793POPC   C1B38443   1.664  12.163   8.865
 2793POPC   C2B38444   1.674  12.312   8.464
 2793POPC   C3B38445   1.672  12.145   8.077
 2793POPC   C4B38446   1.675  12.291   7.682
 2794POPC   NC338447  17.170   0.902   9.508
 2794POPC   PO438448  17.810   0.895   9.361
 2794POPC   GL138449  17.549   0.976   9.039
 2794POPC   GL238450  17.334   1.230   9.089
 2794POPC   C1A38451  17.447   0.914   8.597
 2794POPC   D2A38452  17.135   1.100   8.346
 2794POPC   C3A38453  17.230   1.124   7.909
 2794POPC   C4A38454  17.441   0.802   7.670
 2794POPC   C1B38455  17.398   1.414   8.684
 2794POPC   C2B38456  17.662   1.379   8.292
 2794POPC   C3B38457  17.741   1.174   7.873
 2794POPC   C4B38458  17.499   1.253   7.460
 2795POPC   NC338459   4.973  38.724   9.772
 2795POPC   PO438460   5.244  38.207   9.422
 2795POPC   GL138461   5.240  38.543   9.155
 2795POPC   GL238462   5.053  38.305   8.955
 2795POPC   C1A38463   5.097  38.760   8.752
 2795POPC   D2A38464   4.952  38.460   8.444
 2795POPC   C3A38465   5.025  38.488   8.018
 2795POPC   C4A38466   5.111  38.628   7.617
 2795POPC   C1B38467   4.833  37.996   8.738
 2795POPC   C2B38468   4.730  37.837   8.360
 2795POPC   C3B38469   4.907  37.997   7.990
 2795POPC   C4B38470   4.857  38.163   7.571
 2796POPC   NC338471  42.073   1.751   5.399
 2796POPC   PO438472  42.682   2.072   5.349
 2796POPC   GL138473  42.390   2.092   5.734
 2796POPC   GL238474  42.064   1.927   5.884
 2796POPC   C1A38475  42.475   1.900   6.147
 2796POPC   D2A38476  42.451   1.656   6.505
 2796POPC   C3A38477  42.279   1.909   6.827
 2796POPC   C4A38478  42.325   1.974   7.250
 2796POPC   C1B38479  42.046   2.134   6.295
 2796POPC   C2B38480  41.838   2.157   6.692
 2796POPC   C3B38481  41.937   2.287   7.139
 2796POPC   C4B38482  42.061   2.270   7.585
 2797POPC   NC338483  42.246  42.653   5.273
 2797POPC   PO438484  42.746  42.164   5.189
 2797POPC   GL138485  42.434  42.220   5.540
 2797POPC   GL238486  42.620  42.335   5.844
 2797POPC   C1A38487  42.157  42.133   5.941
 2797POPC   D2A38488  41.995  41.987   6.377
 2797POPC   C3A38489  41.939  42.174   6.831
 2797POPC   C4A38490  42.053  42.561   7.092
 2797POPC   C1B38491  42.474  42.359   6.300
 2797POPC   C2B38492  42.479  42.459   6.751
 2797POPC   C3B38493  42.616  42.461   7.168
 2797POPC   C4B38494  42.609  42.123   7.457
 2798POPC   NC338495   7.729  23.618   5.498
 2798POPC   PO438496   8.355  23.495   5.421
 2798POPC   GL138497   8.192  23.693   5.773
 2798POPC   GL238498   8.375  23.969   5.903
 2798POPC   C1A38499   8.032  23.671   6.184
 2798POPC   D2A38500   8.058  23.941   6.535
 2798POPC   C3A38501   7.963  23.753   6.926
 2798POPC   C4A38502   8.140  23.770   7.318
 2798POPC   C1B38503   8.638  24.188   6.201
 2798POPC   C2B38504   8.504  24.168   6.632
 2798POPC   C3B38505   8.458  23.828   6.901
 2798POPC   C4B38506   8.675  23.802   7.254
 2799POPC   NC338507  25.330  19.057   4.918
 2799POPC   PO438508  25.165  19.098   5.540
 2799POPC   GL138509  25.155  18.966   5.916
 2799POPC   GL238510  25.484  18.893   5.957
 2799POPC   C1A38511  25.033  19.222   6.232
 2799POPC   D2A38512  25.106  19.424   6.609
 2799POPC   C3A38513  24.971  19.186   6.935
 2799POPC   C4A38514  25.005  19.293   7.320
 2799POPC   C1B38515  25.369  18.855   6.383
 2799POPC   C2B38516  25.416  19.019   6.748
 2799POPC   C3B38517  25.487  19.212   7.081
 2799POPC   C4B38518  25.332  18.874   7.285
 2800POPC   NC338519  41.241  14.766   5.312
 2800POPC   PO438520  40.718  14.656   5.445
 2800POPC   GL138521  40.797  14.479   5.858
 2800POPC   GL238522  40.512  14.255   5.923
 2800POPC   C1A38523  40.941  14.360   6.299
 2800POPC   D2A38524  40.849  13.984   6.555
 2800POPC   C3A38525  40.513  14.024   6.908
 2800POPC   C4A38526  40.532  14.287   7.273
 2800POPC   C1B38527  40.464  14.551   6.237
 2800POPC   C2B38528  40.530  14.449   6.639
 2800POPC   C3B38529  40.213  14.506   6.941
 2800POPC   C4B38530  40.229  14.864   7.234
 2801POPC   NC338531  26.903   9.644   5.353
 2801POPC   PO438532  26.423   9.475   5.654
 2801POPC   GL138533  26.682   9.788   5.825
 2801POPC   GL238534  26.972   9.553   5.875
 2801POPC   C1A38535  26.943   9.985   6.157
 2801POPC   D2A38536  27.078   9.803   6.561
 2801POPC   C3A38537  26.826   9.862   6.924
 2801POPC   C4A38538  26.962   9.933   7.324
 2801POPC   C1B38539  26.727   9.537   6.284
 2801POPC   C2B38540  26.439   9.537   6.645
 2801POPC   C3B38541  26.393   9.464   7.052
 2801POPC   C4B38542  26.736   9.467   7.267
 2802POPC   NC338543   0.348  30.759   5.353
 2802POPC   PO438544   0.286  30.078   5.112
 2802POPC   GL138545   0.389  30.304   5.583
 2802POPC   GL238546   0.133  30.537   5.744
 2802POPC   C1A38547   0.537  30.526   6.032
 2802POPC   D2A38548   0.629  30.816   6.422
 2802POPC   C3A38549   0.605  30.713   6.879
 2802POPC   C4A38550   0.924  30.615   7.199
 2802POPC   C1B38551   0.079  30.755   6.162
 2802POPC   C2B38552   0.132  30.865   6.598
 2802POPC   C3B38553   0.142  30.910   7.030
 2802POPC   C4B38554   0.353  30.703   7.360
 2803POPC   NC338555  27.926  37.011   5.470
 2803POPC   PO438556  27.396  36.560   5.377
 2803POPC   GL138557  27.611  36.747   5.770
 2803POPC   GL238558  27.931  36.569   5.909
 2803POPC   C1A38559  27.726  36.915   6.194
 2803POPC   D2A38560  27.607  36.833   6.619
 2803POPC   C3A38561  27.675  37.094   7.008
 2803POPC   C4A38562  27.385  37.160   7.416
 2803POPC   C1B38563  27.972  36.502   6.373
 2803POPC   C2B38564  27.987  36.519   6.830
 2803POPC   C3B38565  27.849  36.312   7.200
 2803POPC   C4B38566  27.897  36.438   7.647
 2804POPC   NC338567  28.988  35.314   5.313
 2804POPC   PO438568  28.997  35.962   5.408
 2804POPC   GL138569  29.037  35.636   5.802
 2804POPC   GL238570  28.882  35.283   5.805
 2804POPC   C1A38571  29.154  35.399   6.229
 2804POPC   D2A38572  28.983  35.466   6.648
 2804POPC   C3A38573  29.197  35.325   7.022
 2804POPC   C4A38574  29.239  35.534   7.412
 2804POPC   C1B38575  28.824  35.003   6.145
 2804POPC   C2B38576  28.983  34.952   6.546
 2804POPC   C3B38577  28.797  35.034   6.886
 2804POPC   C4B38578  28.694  35.352   7.179
 2805POPC   NC338579  29.408  35.963   5.618
 2805POPC   PO438580  29.018  36.572   5.439
 2805POPC   GL138581  29.050  36.253   5.860
 2805POPC   GL238582  29.373  36.312   6.002
 2805POPC   C1A38583  29.236  35.898   6.226
 2805POPC   D2A38584  29.447  35.694   6.600
 2805POPC   C3A38585  29.257  35.857   6.983
 2805POPC   C4A38586  29.006  36.154   7.222
 2805POPC   C1B38587  29.243  36.375   6.411
 2805POPC   C2B38588  29.225  36.386   6.840
 2805POPC   C3B38589  29.464  36.463   7.216
 2805POPC   C4B38590  29.469  36.813   7.528
 2806POPC   NC338591  10.671  42.259   5.198
 2806POPC   PO438592  10.296  41.880   5.600
 2806POPC   GL138593  10.378  42.223   5.820
 2806POPC   GL238594  10.720  42.214   5.802
 2806POPC   C1A38595  10.402  42.125   6.252
 2806POPC   D2A38596  10.196  41.915   6.571
 2806POPC   C3A38597  10.416  42.074   6.926
 2806POPC   C4A38598  10.306  42.344   7.262
 2806POPC   C1B38599  10.785  42.458   6.171
 2806POPC   C2B38600  10.676  42.459   6.611
 2806POPC   C3B38601  10.450  42.675   6.908
 2806POPC   C4B38602  10.582  42.874   7.233
 2807POPC   NC338603  37.159  29.801   5.468
 2807POPC   PO438604  36.503  29.679   5.386
 2807POPC   GL138605  36.767  29.797   5.824
 2807POPC   GL238606  37.131  29.865   5.963
 2807POPC   C1A38607  36.757  30.144   6.164
 2807POPC   D2A38608  36.469  30.282   6.465
 2807POPC   C3A38609  36.608  30.139   6.857
 2807POPC   C4A38610  36.707  29.869   7.195
 2807POPC   C1B38611  37.166  29.628   6.368
 2807POPC   C2B38612  37.142  29.401   6.782
 2807POPC   C3B38613  37.176  29.616   7.169
 2807POPC   C4B38614  37.145  30.058   7.298
 2808POPC   NC338615  23.588  28.729   5.337
 2808POPC   PO438616  23.906  28.175   5.462
 2808POPC   GL138617  23.803  28.536   5.792
 2808POPC   GL238618  23.467  28.683   5.843
 2808POPC   C1A38619  23.801  28.681   6.258
 2808POPC   D2A38620  23.600  28.591   6.675
 2808POPC   C3A38621  23.771  28.633   7.085
 2808POPC   C4A38622  23.652  28.266   7.315
 2808POPC   C1B38623  23.279  28.669   6.272
 2808POPC   C2B38624  23.103  28.748   6.698
 2808POPC   C3B38625  23.256  28.562   7.117
 2808POPC   C4B38626  23.304  28.547   7.591
 2809POPC   NC338627  40.283  21.117   5.632
 2809POPC   PO438628  39.790  21.463   5.397
 2809POPC   GL138629  40.004  21.516   5.772
 2809POPC   GL238630  40.340  21.656   5.752
 2809POPC   C1A38631  39.931  21.405   6.208
 2809POPC   D2A38632  39.711  21.352   6.607
 2809POPC   C3A38633  39.947  21.337   6.969
 2809POPC   C4A38634  39.796  21.069   7.272
 2809POPC   C1B38635  40.235  21.839   6.171
 2809POPC   C2B38636  40.106  21.711   6.591
 2809POPC   C3B38637  40.104  21.833   7.022
 2809POPC   C4B38638  39.964  21.784   7.452
 2810POPC   NC338639   2.087  28.047   5.229
 2810POPC   PO438640   2.162  28.724   5.457
 2810POPC   GL138641   2.032  28.307   5.677
 2810POPC   GL238642   1.703  28.251   5.863
 2810POPC   C1A38643   2.210  28.117   6.053
 2810POPC   D2A38644   2.338  28.279   6.470
 2810POPC   C3A38645   2.093  28.041   6.791
 2810POPC   C4A38646   1.805  27.997   7.148
 2810POPC   C1B38647   1.913  28.489   6.205
 2810POPC   C2B38648   1.919  28.510   6.664
 2810POPC   C3B38649   2.088  28.449   7.114
 2810POPC   C4B38650   1.959  28.328   7.542
 2811POPC   NC338651  20.205  30.050   5.378
 2811POPC   PO438652  19.499  29.832   5.460
 2811POPC   GL138653  19.660  29.728   5.858
 2811POPC   GL238654  20.010  29.769   5.832
 2811POPC   C1A38655  19.744  29.840   6.283
 2811POPC   D2A38656  19.787  29.779   6.719
 2811POPC   C3A38657  19.612  30.020   7.057
 2811POPC   C4A38658  19.852  29.798   7.356
 2811POPC   C1B38659  20.163  30.089   6.106
 2811POPC   C2B38660  20.055  30.174   6.532
 2811POPC   C3B38661  20.110  30.141   6.983
 2811POPC   C4B38662  19.956  30.286   7.392
 2812POPC   NC338663   4.713  29.862   5.586
 2812POPC   PO438664   4.111  30.051   5.386
 2812POPC   GL138665   4.286  30.118   5.790
 2812POPC   GL238666   4.306  29.790   5.959
 2812POPC   C1A38667   4.181  30.233   6.223
 2812POPC   D2A38668   4.296  30.007   6.619
 2812POPC   C3A38669   4.057  29.974   7.005
 2812POPC   C4A38670   4.302  29.820   7.350
 2812POPC   C1B38671   4.385  29.556   6.364
 2812POPC   C2B38672   4.583  29.573   6.779
 2812POPC   C3B38673   4.617  29.439   7.224
 2812POPC   C4B38674   4.773  29.399   7.675
 2813POPC   NC338675  38.828  15.742   5.591
 2813POPC   PO438676  39.229  16.198   5.228
 2813POPC   GL138677  39.208  16.065   5.620
 2813POPC   GL238678  38.859  16.242   5.595
 2813POPC   C1A38679  39.230  15.933   6.056
 2813POPC   D2A38680  39.150  16.052   6.460
 2813POPC   C3A38681  39.426  15.952   6.786
 2813POPC   C4A38682  39.256  15.942   7.193
 2813POPC   C1B38683  38.866  16.319   6.028
 2813POPC   C2B38684  38.829  16.459   6.453
 2813POPC   C3B38685  38.939  16.339   6.869
 2813POPC   C4B38686  38.863  16.562   7.202
 2814POPC   NC338687  19.016   0.868   5.448
 2814POPC   PO438688  19.521   0.366   5.429
 2814POPC   GL138689  19.261   0.226   5.757
 2814POPC   GL238690  19.201   0.573   5.849
 2814POPC   C1A38691  19.095   0.201   6.173
 2814POPC   D2A38692  19.203   0.384   6.554
 2814POPC   C3A38693  19.062   0.221   6.956
 2814POPC   C4A38694  19.183   0.504   7.246
 2814POPC   C1B38695  18.807   0.620   6.088
 2814POPC   C2B38696  18.760   0.769   6.487
 2814POPC   C3B38697  18.873   0.677   6.854
 2814POPC   C4B38698  18.870   0.902   7.224
 2815POPC   NC338699  28.485  13.922   5.674
 2815POPC   PO438700  28.187  14.428   5.210
 2815POPC   GL138701  28.141  14.563   5.677
 2815POPC   GL238702  28.407  14.392   5.827
 2815POPC   C1A38703  28.048  14.499   6.154
 2815POPC   D2A38704  27.908  14.484   6.565
 2815POPC   C3A38705  28.281  14.522   6.781
 2815POPC   C4A38706  28.302  14.578   7.200
 2815POPC   C1B38707  28.584  14.609   6.156
 2815POPC   C2B38708  28.741  14.755   6.540
 2815POPC   C3B38709  28.780  14.590   6.956
 2815POPC   C4B38710  28.794  14.477   7.379
 2816POPC   NC338711  18.929  41.001   5.236
 2816POPC   PO438712  19.296  40.485   5.502
 2816POPC   GL138713  19.086  40.622   5.852
 2816POPC   GL238714  18.782  40.728   5.736
 2816POPC   C1A38715  18.926  40.675   6.257
 2816POPC   D2A38716  19.031  40.514   6.648
 2816POPC   C3A38717  19.378  40.680   6.895
 2816POPC   C4A38718  19.261  40.827   7.282
 2816POPC   C1B38719  18.744  41.090   6.029
 2816POPC   C2B38720  18.796  41.174   6.462
 2816POPC   C3B38721  18.907  40.992   6.864
 2816POPC   C4B38722  18.894  41.194   7.259
 2817POPC   NC338723  42.354   3.199   5.306
 2817POPC   PO438724  42.548   3.784   5.551
 2817POPC   GL138725  42.571   3.605   5.954
 2817POPC   GL238726  42.438   3.294   5.807
 2817POPC   C1A38727  42.466   3.661   6.403
 2817POPC   D2A38728  42.377   4.000   6.722
 2817POPC   C3A38729  42.117   3.799   7.004
 2817POPC   C4A38730  42.026   3.415   7.194
 2817POPC   C1B38731  42.665   3.144   6.154
 2817POPC   C2B38732  42.623   3.173   6.580
 2817POPC   C3B38733  42.699   3.481   6.864
 2817POPC   C4B38734  42.554   3.382   7.236
 2818POPC   NC338735  13.266  12.262   5.407
 2818POPC   PO438736  13.936  12.020   5.497
 2818POPC   GL138737  13.895  12.094   5.903
 2818POPC   GL238738  13.524  12.111   5.877
 2818POPC   C1A38739  13.988  12.035   6.331
 2818POPC   D2A38740  13.869  11.790   6.654
 2818POPC   C3A38741  13.792  11.938   7.043
 2818POPC   C4A38742  13.776  12.237   7.332
 2818POPC   C1B38743  13.482  12.129   6.325
 2818POPC   C2B38744  13.522  12.269   6.765
 2818POPC   C3B38745  13.309  12.208   7.181
 2818POPC   C4B38746  13.404  12.337   7.646
 2819POPC   NC338747  11.619  12.050   5.356
 2819POPC   PO438748  11.018  12.098   5.230
 2819POPC   GL138749  11.233  12.097   5.692
 2819POPC   GL238750  11.527  12.332   5.769
 2819POPC   C1A38751  11.278  12.168   6.176
 2819POPC   D2A38752  11.297  12.377   6.609
 2819POPC   C3A38753  11.364  12.054   6.942
 2819POPC   C4A38754  11.363  11.765   7.330
 2819POPC   C1B38755  11.566  12.587   6.183
 2819POPC   C2B38756  11.762  12.613   6.613
 2819POPC   C3B38757  11.851  12.469   7.040
 2819POPC   C4B38758  11.596  12.223   7.365
 2820POPC   NC338759   7.254  21.973   5.438
 2820POPC   PO438760   7.016  22.589   5.448
 2820POPC   GL138761   7.296  22.333   5.805
 2820POPC   GL238762   7.530  21.996   5.872
 2820POPC   C1A38763   7.381  22.301   6.264
 2820POPC   D2A38764   7.561  22.252   6.660
 2820POPC   C3A38765   7.258  22.416   6.911
 2820POPC   C4A38766   7.190  22.342   7.319
 2820POPC   C1B38767   7.270  21.807   6.204
 2820POPC   C2B38768   7.126  21.950   6.646
 2820POPC   C3B38769   7.348  21.928   7.058
 2820POPC   C4B38770   7.548  21.861   7.475
 2821POPC   NC338771  28.065  12.327   5.156
 2821POPC   PO438772  28.369  11.727   5.372
 2821POPC   GL138773  28.290  11.894   5.774
 2821POPC   GL238774  28.596  12.058   5.868
 2821POPC   C1A38775  28.160  12.101   6.187
 2821POPC   D2A38776  28.117  12.333   6.609
 2821POPC   C3A38777  28.367  12.171   6.959
 2821POPC   C4A38778  28.256  11.917   7.316
 2821POPC   C1B38779  28.759  11.802   6.205
 2821POPC   C2B38780  28.700  11.874   6.665
 2821POPC   C3B38781  28.683  11.735   7.106
 2821POPC   C4B38782  28.684  11.793   7.588
 2822POPC   NC338783   7.370  34.996   5.180
 2822POPC   PO438784   7.705  34.560   5.540
 2822POPC   GL138785   7.633  34.661   5.897
 2822POPC   GL238786   7.303  34.509   5.933
 2822POPC   C1A38787   7.713  34.486   6.250
 2822POPC   D2A38788   7.496  34.475   6.583
 2822POPC   C3A38789   7.646  34.670   6.930
 2822POPC   C4A38790   7.344  34.733   7.178
 2822POPC   C1B38791   7.176  34.214   6.266
 2822POPC   C2B38792   7.037  34.297   6.707
 2822POPC   C3B38793   7.387  34.220   7.024
 2822POPC   C4B38794   7.382  34.194   7.464
 2823POPC   NC338795  37.058  41.123   5.437
 2823POPC   PO438796  36.589  40.496   5.387
 2823POPC   GL138797  36.814  40.577   5.763
 2823POPC   GL238798  36.694  40.443   6.058
 2823POPC   C1A38799  36.895  40.912   6.080
 2823POPC   D2A38800  37.007  40.890   6.515
 2823POPC   C3A38801  36.715  40.919   6.829
 2823POPC   C4A38802  36.880  40.983   7.259
 2823POPC   C1B38803  37.050  40.393   6.219
 2823POPC   C2B38804  37.194  40.320   6.606
 2823POPC   C3B38805  37.066  40.583   6.944
 2823POPC   C4B38806  36.850  40.469   7.336
 2824POPC   NC338807  38.681  12.220   5.520
 2824POPC   PO438808  38.005  12.222   5.448
 2824POPC   GL138809  38.263  12.104   5.828
 2824POPC   GL238810  38.538  11.833   5.841
 2824POPC   C1A38811  38.347  12.145   6.266
 2824POPC   D2A38812  38.622  12.356   6.587
 2824POPC   C3A38813  38.520  12.232   7.002
 2824POPC   C4A38814  38.120  12.152   7.209
 2824POPC   C1B38815  38.774  11.845   6.240
 2824POPC   C2B38816  38.577  11.858   6.641
 2824POPC   C3B38817  38.347  11.754   6.980
 2824POPC   C4B38818  38.593  11.836   7.330
 2825POPC   NC338819  17.653   7.689   5.476
 2825POPC   PO438820  17.193   7.264   5.645
 2825POPC   GL138821  17.447   7.496   5.906
 2825POPC   GL238822  17.711   7.248   5.830
 2825POPC   C1A38823  17.318   7.537   6.327
 2825POPC   D2A38824  17.287   7.294   6.712
 2825POPC   C3A38825  17.307   7.492   7.111
 2825POPC   C4A38826  17.581   7.529   7.494
 2825POPC   C1B38827  17.572   7.059   6.243
 2825POPC   C2B38828  17.761   7.075   6.660
 2825POPC   C3B38829  17.772   7.252   7.086
 2825POPC   C4B38830  17.862   7.091   7.515
 2826POPC   NC338831   6.985   9.684   5.205
 2826POPC   PO438832   7.576   9.770   5.323
 2826POPC   GL138833   7.664   9.940   5.723
 2826POPC   GL238834   7.808  10.284   5.812
 2826POPC   C1A38835   7.430   9.917   6.114
 2826POPC   D2A38836   7.287   9.655   6.460
 2826POPC   C3A38837   7.174   9.803   6.860
 2826POPC   C4A38838   7.339   9.666   7.251
 2826POPC   C1B38839   7.665  10.346   6.262
 2826POPC   C2B38840   7.499  10.098   6.601
 2826POPC   C3B38841   7.678   9.927   6.943
 2826POPC   C4B38842   7.755   9.992   7.337
 2827POPC   NC338843  28.675  23.093   5.568
 2827POPC   PO438844  28.020  22.750   5.456
 2827POPC   GL138845  28.237  22.974   5.811
 2827POPC   GL238846  28.506  22.726   5.903
 2827POPC   C1A38847  28.433  23.156   6.215
 2827POPC   D2A38848  28.465  22.963   6.642
 2827POPC   C3A38849  28.375  23.211   7.006
 2827POPC   C4A38850  28.696  23.354   7.253
 2827POPC   C1B38851  28.184  22.718   6.258
 2827POPC   C2B38852  27.950  22.730   6.649
 2827POPC   C3B38853  28.133  22.763   7.043
 2827POPC   C4B38854  28.477  22.606   7.266
 2828POPC   NC338855   2.271  32.815   5.284
 2828POPC   PO438856   2.207  33.454   5.248
 2828POPC   GL138857   2.267  33.202   5.659
 2828POPC   GL238858   2.142  32.842   5.764
 2828POPC   C1A38859   2.121  33.227   6.111
 2828POPC   D2A38860   1.881  33.073   6.467
 2828POPC   C3A38861   2.087  33.160   6.829
 2828POPC   C4A38862   1.837  33.179   7.146
 2828POPC   C1B38863   2.057  32.694   6.168
 2828POPC   C2B38864   2.166  32.633   6.588
 2828POPC   C3B38865   1.941  32.700   6.938
 2828POPC   C4B38866   2.119  32.757   7.301
 2829POPC   NC338867  23.884  13.662   5.537
 2829POPC   PO438868  23.270  13.408   5.480
 2829POPC   GL138869  23.548  13.448   5.844
 2829POPC   GL238870  23.615  13.804   5.956
 2829POPC   C1A38871  23.848  13.385   6.197
 2829POPC   D2A38872  24.005  13.194   6.555
 2829POPC   C3A38873  23.702  13.283   6.852
 2829POPC   C4A38874  23.756  13.326   7.262
 2829POPC   C1B38875  23.959  13.892   6.231
 2829POPC   C2B38876  24.070  13.714   6.613
 2829POPC   C3B38877  24.010  13.773   7.027
 2829POPC   C4B38878  24.034  13.726   7.438
 2830POPC   NC338879  24.460  11.878   5.594
 2830POPC   PO438880  24.615  11.219   5.536
 2830POPC   GL138881  24.506  11.403   5.877
 2830POPC   GL238882  24.254  11.115   5.891
 2830POPC   C1A38883  24.754  11.624   6.187
 2830POPC   D2A38884  24.642  11.451   6.561
 2830POPC   C3A38885  24.733  11.413   6.975
 2830POPC   C4A38886  24.496  11.538   7.326
 2830POPC   C1B38887  24.342  11.099   6.318
 2830POPC   C2B38888  24.517  10.985   6.706
 2830POPC   C3B38889  24.352  11.078   7.101
 2830POPC   C4B38890  24.328  11.132   7.570
 2831POPC   NC338891  33.884  13.961   5.526
 2831POPC   PO438892  33.418  14.378   5.198
 2831POPC   GL138893  33.454  14.663   5.667
 2831POPC   GL238894  33.805  14.536   5.779
 2831POPC   C1A38895  33.485  14.641   6.172
 2831POPC   D2A38896  33.521  14.357   6.579
 2831POPC   C3A38897  33.559  14.565   6.976
 2831POPC   C4A38898  33.330  14.945   7.089
 2831POPC   C1B38899  33.868  14.285   6.178
 2831POPC   C2B38900  34.045  14.283   6.578
 2831POPC   C3B38901  33.941  14.200   6.979
 2831POPC   C4B38902  33.932  14.424   7.329
 2832POPC   NC338903  35.149  35.485   5.492
 2832POPC   PO438904  35.606  35.631   5.161
 2832POPC   GL138905  35.625  35.299   5.579
 2832POPC   GL238906  35.280  35.110   5.754
 2832POPC   C1A38907  35.619  35.350   6.062
 2832POPC   D2A38908  35.656  35.725   6.361
 2832POPC   C3A38909  35.865  35.684   6.771
 2832POPC   C4A38910  35.754  35.592   7.214
 2832POPC   C1B38911  35.104  35.324   6.121
 2832POPC   C2B38912  35.295  35.358   6.491
 2832POPC   C3B38913  35.351  35.391   6.915
 2832POPC   C4B38914  34.968  35.317   7.130
 2833POPC   NC338915  40.511   5.632   5.417
 2833POPC   PO438916  39.986   6.002   5.454
 2833POPC   GL138917  39.885   5.770   5.836
 2833POPC   GL238918  39.750   5.421   5.813
 2833POPC   C1A38919  39.914   5.883   6.293
 2833POPC   D2A38920  40.119   5.921   6.695
 2833POPC   C3A38921  39.797   5.960   6.972
 2833POPC   C4A38922  39.634   5.898   7.364
 2833POPC   C1B38923  39.826   5.376   6.248
 2833POPC   C2B38924  39.809   5.505   6.665
 2833POPC   C3B38925  40.075   5.489   7.006
 2833POPC   C4B38926  39.913   5.464   7.399
 2834POPC   NC338927   6.089  27.052   5.148
 2834POPC   PO438928   5.673  26.582   5.374
 2834POPC   GL138929   5.995  26.654   5.679
 2834POPC   GL238930   5.979  27.010   5.751
 2834POPC   C1A38931   6.133  26.556   6.095
 2834POPC   D2A38932   5.920  26.541   6.523
 2834POPC   C3A38933   6.075  26.773   6.879
 2834POPC   C4A38934   6.258  26.646   7.271
 2834POPC   C1B38935   5.840  26.959   6.209
 2834POPC   C2B38936   5.595  26.911   6.629
 2834POPC   C3B38937   5.620  26.706   7.062
 2834POPC   C4B38938   5.886  27.016   7.286
 2835POPC   NC338939  36.761  33.365   5.475
 2835POPC   PO438940  36.860  32.689   5.310
 2835POPC   GL138941  36.869  32.903   5.736
 2835POPC   GL238942  37.103  33.193   5.807
 2835POPC   C1A38943  36.929  32.741   6.179
 2835POPC   D2A38944  36.907  32.984   6.542
 2835POPC   C3A38945  37.063  32.840   6.919
 2835POPC   C4A38946  36.945  32.919   7.348
 2835POPC   C1B38947  36.784  33.298   6.122
 2835POPC   C2B38948  36.659  33.424   6.513
 2835POPC   C3B38949  36.881  33.592   6.862
 2835POPC   C4B38950  36.772  33.383   7.241
 2836POPC   NC338951  36.866  35.811   5.508
 2836POPC   PO438952  37.086  36.445   5.477
 2836POPC   GL138953  36.865  36.234   5.805
 2836POPC   GL238954  37.137  36.029   5.890
 2836POPC   C1A38955  36.736  36.055   6.234
 2836POPC   D2A38956  36.903  35.941   6.658
 2836POPC   C3A38957  36.910  36.132   7.055
 2836POPC   C4A38958  37.040  36.050   7.468
 2836POPC   C1B38959  37.131  35.693   6.195
 2836POPC   C2B38960  37.285  35.589   6.630
 2836POPC   C3B38961  37.163  35.656   7.075
 2836POPC   C4B38962  37.100  35.545   7.541
 2837POPC   NC338963  14.848  11.236   5.381
 2837POPC   PO438964  14.323  11.592   5.289
 2837POPC   GL138965  14.326  11.363   5.714
 2837POPC   GL238966  14.627  11.440   5.811
 2837POPC   C1A38967  14.264  11.191   6.169
 2837POPC   D2A38968  14.448  11.137   6.616
 2837POPC   C3A38969  14.240  11.157   7.022
 2837POPC   C4A38970  14.348  11.295   7.453
 2837POPC   C1B38971  14.740  11.389   6.231
 2837POPC   C2B38972  14.902  11.342   6.649
 2837POPC   C3B38973  14.778  11.154   7.085
 2837POPC   C4B38974  14.844  11.313   7.542
 2838POPC   NC338975   5.351  14.718   5.409
 2838POPC   PO438976   4.999  15.332   5.369
 2838POPC   GL138977   4.948  15.380   5.781
 2838POPC   GL238978   5.230  15.210   5.958
 2838POPC   C1A38979   4.789  15.337   6.184
 2838POPC   D2A38980   4.861  15.062   6.522
 2838POPC   C3A38981   5.033  15.253   6.864
 2838POPC   C4A38982   4.791  15.285   7.247
 2838POPC   C1B38983   5.354  14.953   6.354
 2838POPC   C2B38984   5.169  14.663   6.687
 2838POPC   C3B38985   4.999  14.800   7.072
 2838POPC   C4B38986   5.252  15.110   7.310
 2839POPC   NC338987   7.322  39.694   5.260
 2839POPC   PO438988   7.367  40.305   5.525
 2839POPC   GL138989   7.321  40.083   5.907
 2839POPC   GL238990   7.125  39.796   5.755
 2839POPC   C1A38991   7.466  40.200   6.350
 2839POPC   D2A38992   7.812  40.234   6.647
 2839POPC   C3A38993   7.729  40.066   7.048
 2839POPC   C4A38994   7.307  40.121   7.245
 2839POPC   C1B38995   6.955  39.787   6.164
 2839POPC   C2B38996   7.079  39.943   6.555
 2839POPC   C3B38997   7.062  39.778   6.958
 2839POPC   C4B38998   6.944  39.713   7.350
 2840POPC   NC338999  38.979  30.199   5.474
 2840POPC   PO439000  39.336  30.745   5.445
 2840POPC   GL139001  39.175  30.807   5.866
 2840POPC   GL239002  39.098  30.493   5.863
 2840POPC   C1A39003  39.364  30.879   6.281
 2840POPC   D2A39004  39.565  30.656   6.653
 2840POPC   C3A39005  39.548  30.653   7.098
 2840POPC   C4A39006  39.279  30.842   7.391
 2840POPC   C1B39007  38.959  30.531   6.259
 2840POPC   C2B39008  39.037  30.720   6.634
 2840POPC   C3B39009  39.047  30.596   7.007
 2840POPC   C4B39010  38.819  30.336   7.261
 2841POPC   NC339011  13.665  29.545   5.605
 2841POPC   PO439012  13.703  30.221   5.406
 2841POPC   GL139013  13.652  30.030   5.806
 2841POPC   GL239014  13.992  29.878   5.808
 2841POPC   C1A39015  13.429  29.976   6.198
 2841POPC   D2A39016  13.494  29.889   6.634
 2841POPC   C3A39017  13.364  30.150   6.954
 2841POPC   C4A39018  13.572  30.229   7.310
 2841POPC   C1B39019  13.867  29.725   6.234
 2841POPC   C2B39020  13.998  29.715   6.667
 2841POPC   C3B39021  13.780  29.786   7.063
 2841POPC   C4B39022  13.805  29.718   7.519
 2842POPC   NC339023  42.770  25.186   5.663
 2842POPC   PO439024  42.147  25.199   5.316
 2842POPC   GL139025  42.181  25.259   5.794
 2842POPC   GL239026  42.447  25.497   5.885
 2842POPC   C1A39027  42.331  25.129   6.239
 2842POPC   D2A39028  42.694  25.180   6.519
 2842POPC   C3A39029  42.560  24.978   6.871
 2842POPC   C4A39030  42.111  24.793   6.959
 2842POPC   C1B39031  42.241  25.624   6.243
 2842POPC   C2B39032  42.360  25.576   6.648
 2842POPC   C3B39033  42.225  25.333   6.968
 2842POPC   C4B39034  42.314  25.105   7.310
 2843POPC   NC339035  40.950  42.358   5.471
 2843POPC   PO439036  40.744  41.746   5.319
 2843POPC   GL139037  40.692  42.012   5.742
 2843POPC   GL239038  40.477  42.325   5.707
 2843POPC   C1A39039  40.977  42.218   6.104
 2843POPC   D2A39040  41.156  42.362   6.515
 2843POPC   C3A39041  40.983  42.487   6.918
 2843POPC   C4A39042  40.687  42.236   7.154
 2843POPC   C1B39043  40.588  42.534   6.093
 2843POPC   C2B39044  40.649  42.399   6.530
 2843POPC   C3B39045  40.460  42.620   6.902
 2843POPC   C4B39046  40.494  42.792   7.315
 2844POPC   NC339047   7.822  27.861   5.087
 2844POPC   PO439048   8.436  27.827   5.470
 2844POPC   GL139049   8.246  27.585   5.829
 2844POPC   GL239050   8.058  27.296   5.688
 2844POPC   C1A39051   8.262  27.585   6.301
 2844POPC   D2A39052   8.067  27.771   6.716
 2844POPC   C3A39053   8.304  27.615   7.114
 2844POPC   C4A39054   8.170  27.744   7.531
 2844POPC   C1B39055   7.937  27.218   6.131
 2844POPC   C2B39056   8.001  27.289   6.617
 2844POPC   C3B39057   7.864  27.385   7.061
 2844POPC   C4B39058   8.003  27.272   7.512
 2845POPC   NC339059   7.647  38.377   5.607
 2845POPC   PO439060   7.102  38.110   5.525
 2845POPC   GL139061   7.167  38.462   5.794
 2845POPC   GL239062   7.350  38.779   5.697
 2845POPC   C1A39063   7.180  38.519   6.243
 2845POPC   D2A39064   7.512  38.424   6.552
 2845POPC   C3A39065   7.464  38.320   6.999
 2845POPC   C4A39066   7.755  38.351   7.321
 2845POPC   C1B39067   7.514  38.874   6.102
 2845POPC   C2B39068   7.343  38.919   6.521
 2845POPC   C3B39069   7.467  38.837   6.904
 2845POPC   C4B39070   7.446  38.776   7.310
 2846POPC   NC339071  10.264  28.417   5.480
 2846POPC   PO439072  10.839  28.225   5.445
 2846POPC   GL139073  10.831  28.464   5.792
 2846POPC   GL239074  10.527  28.364   5.945
 2846POPC   C1A39075  10.977  28.412   6.205
 2846POPC   D2A39076  11.134  28.382   6.626
 2846POPC   C3A39077  10.918  28.560   6.934
 2846POPC   C4A39078  10.581  28.526   7.182
 2846POPC   C1B39079  10.508  28.428   6.413
 2846POPC   C2B39080  10.309  28.691   6.728
 2846POPC   C3B39081  10.082  28.567   7.076
 2846POPC   C4B39082  10.223  28.161   7.260
 2847POPC   NC339083  17.997   4.298   5.232
 2847POPC   PO439084  17.471   4.556   5.586
 2847POPC   GL139085  17.619   4.226   5.834
 2847POPC   GL239086  17.307   4.059   5.901
 2847POPC   C1A39087  17.829   4.250   6.242
 2847POPC   D2A39088  17.663   4.296   6.619
 2847POPC   C3A39089  17.794   4.489   6.959
 2847POPC   C4A39090  17.748   4.188   7.242
 2847POPC   C1B39091  17.247   4.291   6.306
 2847POPC   C2B39092  17.205   4.425   6.765
 2847POPC   C3B39093  17.201   4.261   7.193
 2847POPC   C4B39094  17.137   4.395   7.631
 2848POPC   NC339095  35.848  11.162   5.327
 2848POPC   PO439096  36.321  11.524   5.300
 2848POPC   GL139097  36.143  11.430   5.735
 2848POPC   GL239098  36.248  11.104   5.844
 2848POPC   C1A39099  36.045  11.382   6.221
 2848POPC   D2A39100  35.923  11.541   6.607
 2848POPC   C3A39101  36.013  11.355   7.019
 2848POPC   C4A39102  36.346  11.346   7.325
 2848POPC   C1B39103  36.524  11.424   6.098
 2848POPC   C2B39104  36.509  11.424   6.569
 2848POPC   C3B39105  36.440  11.073   6.861
 2848POPC   C4B39106  36.328  10.854   7.234
 2849POPC   NC339107  39.590  37.841   5.509
 2849POPC   PO439108  40.285  37.625   5.419
 2849POPC   GL139109  40.021  37.664   5.782
 2849POPC   GL239110  39.999  38.024   5.911
 2849POPC   C1A39111  40.161  37.605   6.211
 2849POPC   D2A39112  40.240  37.758   6.618
 2849POPC   C3A39113  40.347  37.494   6.992
 2849POPC   C4A39114  40.259  37.630   7.411
 2849POPC   C1B39115  39.684  37.802   6.194
 2849POPC   C2B39116  39.726  37.675   6.643
 2849POPC   C3B39117  39.930  37.937   7.011
 2849POPC   C4B39118  39.750  38.283   7.325
 2850POPC   NC339119  20.121   5.302   5.602
 2850POPC   PO439120  20.715   5.418   5.470
 2850POPC   GL139121  20.538   5.348   5.914
 2850POPC   GL239122  20.213   5.505   6.064
 2850POPC   C1A39123  20.580   5.329   6.371
 2850POPC   D2A39124  20.328   5.413   6.746
 2850POPC   C3A39125  20.453   5.195   7.137
 2850POPC   C4A39126  20.605   5.398   7.530
 2850POPC   C1B39127  20.060   5.170   6.387
 2850POPC   C2B39128  20.083   4.970   6.829
 2850POPC   C3B39129  20.198   4.723   7.218
 2850POPC   C4B39130  20.157   4.434   7.595
 2851POPC   NC339131  26.134   9.257   5.373
 2851POPC   PO439132  25.955   8.665   5.580
 2851POPC   GL139133  26.175   8.920   5.843
 2851POPC   GL239134  26.018   9.237   5.880
 2851POPC   C1A39135  26.128   8.773   6.264
 2851POPC   D2A39136  25.870   8.749   6.641
 2851POPC   C3A39137  26.082   8.695   7.010
 2851POPC   C4A39138  25.781   8.806   7.317
 2851POPC   C1B39139  26.285   9.246   6.255
 2851POPC   C2B39140  26.255   9.071   6.683
 2851POPC   C3B39141  25.970   9.178   6.995
 2851POPC   C4B39142  25.944   9.280   7.408
 2852POPC   NC339143   9.999  22.877   5.274
 2852POPC   PO439144   9.740  23.463   5.479
 2852POPC   GL139145   9.867  23.069   5.730
 2852POPC   GL239146   9.524  22.980   5.816
 2852POPC   C1A39147   9.831  22.742   6.109
 2852POPC   D2A39148   9.578  22.570   6.467
 2852POPC   C3A39149   9.846  22.547   6.846
 2852POPC   C4A39150   9.750  22.717   7.252
 2852POPC   C1B39151   9.616  23.222   6.156
 2852POPC   C2B39152   9.726  23.047   6.523
 2852POPC   C3B39153   9.534  22.968   6.872
 2852POPC   C4B39154   9.510  23.198   7.240
 2853POPC   NC339155  42.876   0.784   5.082
 2853POPC   PO439156  43.278   1.323   5.408
 2853POPC   GL139157  43.142   1.367   5.839
 2853POPC   GL239158  42.811   1.231   5.965
 2853POPC   C1A39159  43.207   1.266   6.282
 2853POPC   D2A39160  43.011   1.371   6.684
 2853POPC   C3A39161  43.311   1.314   7.035
 2853POPC   C4A39162  43.259   0.899   7.255
 2853POPC   C1B39163  42.819   0.887   6.315
 2853POPC   C2B39164  42.897   0.836   6.791
 2853POPC   C3B39165  42.825   1.152   7.124
 2853POPC   C4B39166  42.920   1.131   7.560
 2854POPC   NC339167  19.848  17.997   5.541
 2854POPC   PO439168  19.794  17.375   5.596
 2854POPC   GL139169  19.750  17.631   5.995
 2854POPC   GL239170  19.697  17.999   6.033
 2854POPC   C1A39171  19.891  17.685   6.431
 2854POPC   D2A39172  20.279  17.803   6.661
 2854POPC   C3A39173  20.090  17.816   7.055
 2854POPC   C4A39174  19.833  17.477   7.209
 2854POPC   C1B39175  19.482  18.012   6.441
 2854POPC   C2B39176  19.608  17.874   6.866
 2854POPC   C3B39177  19.420  17.742   7.271
 2854POPC   C4B39178  19.654  17.721   7.677
 2855POPC   NC339179  31.640  33.433   5.470
 2855POPC   PO439180  31.378  34.048   5.269
 2855POPC   GL139181  31.420  33.892   5.699
 2855POPC   GL239182  31.750  33.851   5.759
 2855POPC   C1A39183  31.460  34.024   6.176
 2855POPC   D2A39184  31.733  34.150   6.548
 2855POPC   C3A39185  31.519  34.012   6.975
 2855POPC   C4A39186  31.142  34.162   7.202
 2855POPC   C1B39187  31.659  33.551   6.125
 2855POPC   C2B39188  31.593  33.674   6.560
 2855POPC   C3B39189  31.507  33.478   6.928
 2855POPC   C4B39190  31.664  33.603   7.282
 2856POPC   NC339191  37.881  20.038   5.387
 2856POPC   PO439192  37.784  19.379   5.283
 2856POPC   GL139193  37.777  19.620   5.676
 2856POPC   GL239194  37.527  19.913   5.753
 2856POPC   C1A39195  37.921  19.660   6.108
 2856POPC   D2A39196  38.026  19.578   6.556
 2856POPC   C3A39197  37.756  19.602   6.930
 2856POPC   C4A39198  37.734  19.787   7.338
 2856POPC   C1B39199  37.619  20.085   6.197
 2856POPC   C2B39200  37.525  20.009   6.662
 2856POPC   C3B39201  37.529  20.205   7.097
 2856POPC   C4B39202  37.530  20.197   7.593
 2857POPC   NC339203  33.233  40.220   5.374
 2857POPC   PO439204  32.698  39.787   5.335
 2857POPC   GL139205  32.881  39.941   5.746
 2857POPC   GL239206  32.906  40.315   5.764
 2857POPC   C1A39207  33.081  39.851   6.158
 2857POPC   D2A39208  33.172  40.080   6.554
 2857POPC   C3A39209  32.891  39.945   6.881
 2857POPC   C4A39210  33.060  39.701   7.203
 2857POPC   C1B39211  32.834  40.303   6.213
 2857POPC   C2B39212  32.900  40.518   6.619
 2857POPC   C3B39213  33.099  40.393   7.015
 2857POPC   C4B39214  32.833  40.266   7.339
 2858POPC   NC339215   4.926   1.071   5.338
 2858POPC   PO439216   5.625   1.029   5.283
 2858POPC   GL139217   5.400   1.276   5.642
 2858POPC   GL239218   5.050   1.217   5.815
 2858POPC   C1A39219   5.451   1.411   6.101
 2858POPC   D2A39220   5.216   1.264   6.466
 2858POPC   C3A39221   5.169   1.451   6.875
 2858POPC   C4A39222   5.142   1.163   7.207
 2858POPC   C1B39223   4.785   1.177   6.193
 2858POPC   C2B39224   4.731   1.397   6.604
 2858POPC   C3B39225   4.668   1.219   7.006
 2858POPC   C4B39226   4.725   1.486   7.348
 2859POPC   NC339227  11.959  40.993   5.233
 2859POPC   PO439228  12.569  41.285   5.449
 2859POPC   GL139229  12.317  40.897   5.663
 2859POPC   GL239230  11.975  40.824   5.697
 2859POPC   C1A39231  12.230  40.722   6.139
 2859POPC   D2A39232  12.257  40.932   6.588
 2859POPC   C3A39233  12.240  40.806   7.036
 2859POPC   C4A39234  12.471  41.062   7.365
 2859POPC   C1B39235  11.838  41.035   6.040
 2859POPC   C2B39236  11.802  40.787   6.425
 2859POPC   C3B39237  11.743  40.754   6.875
 2859POPC   C4B39238  11.690  40.504   7.255
 2860POPC   NC339239   2.840  10.020   5.098
 2860POPC   PO439240   2.497   9.604   5.541
 2860POPC   GL139241   2.649   9.715   5.956
 2860POPC   GL239242   2.992   9.812   5.859
 2860POPC   C1A39243   2.720  10.006   6.308
 2860POPC   D2A39244   2.788  10.151   6.741
 2860POPC   C3A39245   2.794   9.825   7.071
 2860POPC   C4A39246   2.741   9.815   7.519
 2860POPC   C1B39247   3.090   9.604   6.208
 2860POPC   C2B39248   3.141   9.781   6.593
 2860POPC   C3B39249   3.253   9.597   6.955
 2860POPC   C4B39250   3.365   9.734   7.355
 2861POPC   NC339251  42.884  31.147   5.261
 2861POPC   PO439252  42.159  31.362   5.243
 2861POPC   GL139253  42.412  31.389   5.675
 2861POPC   GL239254  42.469  31.051   5.829
 2861POPC   C1A39255  42.377  31.581   6.117
 2861POPC   D2A39256  42.266  31.383   6.536
 2861POPC   C3A39257  42.256  31.523   6.985
 2861POPC   C4A39258  42.488  31.822   7.211
 2861POPC   C1B39259  42.711  31.210   6.196
 2861POPC   C2B39260  42.764  31.328   6.612
 2861POPC   C3B39261  42.561  31.127   6.919
 2861POPC   C4B39262  42.394  31.075   7.284
 2862POPC   NC339263   3.896  44.671   5.394
 2862POPC   PO439264   4.593  44.719   5.607
 2862POPC   GL139265   4.214  44.597   5.833
 2862POPC   GL239266   4.009  44.903   5.832
 2862POPC   C1A39267   4.246  44.624   6.282
 2862POPC   D2A39268   4.534  44.783   6.584
 2862POPC   C3A39269   4.482  44.523   6.914
 2862POPC   C4A39270   4.112  44.476   7.115
 2862POPC   C1B39271   4.218   0.115   6.163
 2862POPC   C2B39272   4.145   0.194   6.585
 2862POPC   C3B39273   4.162  44.945   6.947
 2862POPC   C4B39274   4.501  44.884   7.258
 2863POPC   NC339275  12.633   3.335   5.490
 2863POPC   PO439276  12.854   3.967   5.386
 2863POPC   GL139277  12.690   3.786   5.767
 2863POPC   GL239278  13.000   3.580   5.799
 2863POPC   C1A39279  12.620   3.464   6.127
 2863POPC   D2A39280  12.814   3.463   6.527
 2863POPC   C3A39281  12.676   3.506   6.945
 2863POPC   C4A39282  12.633   3.684   7.361
 2863POPC   C1B39283  13.132   3.269   6.128
 2863POPC   C2B39284  13.139   3.075   6.549
 2863POPC   C3B39285  13.155   3.240   6.962
 2863POPC   C4B39286  13.111   3.537   7.266
 2864POPC   NC339287  31.627  17.656   5.485
 2864POPC   PO439288  31.043  17.279   5.415
 2864POPC   GL139289  31.350  17.361   5.789
 2864POPC   GL239290  31.662  17.206   5.822
 2864POPC   C1A39291  31.566  17.611   6.155
 2864POPC   D2A39292  31.720  17.667   6.602
 2864POPC   C3A39293  31.547  17.619   7.045
 2864POPC   C4A39294  31.445  17.438   7.486
 2864POPC   C1B39295  31.449  17.120   6.229
 2864POPC   C2B39296  31.365  17.228   6.686
 2864POPC   C3B39297  31.528  17.090   7.114
 2864POPC   C4B39298  31.577  16.962   7.591
 2865POPC   NC339299  42.502  19.000   5.370
 2865POPC   PO439300  42.047  19.424   5.438
 2865POPC   GL139301  42.145  19.065   5.767
 2865POPC   GL239302  42.513  19.008   5.882
 2865POPC   C1A39303  42.086  18.870   6.194
 2865POPC   D2A39304  41.907  18.713   6.603
 2865POPC   C3A39305  42.134  18.918   6.926
 2865POPC   C4A39306  42.272  19.255   7.191
 2865POPC   C1B39307  42.700  19.355   6.122
 2865POPC   C2B39308  42.827  19.323   6.549
 2865POPC   C3B39309  42.671  19.065   6.895
 2865POPC   C4B39310  42.666  18.966   7.318
 2866POPC   NC339311  41.645  32.599   5.601
 2866POPC   PO439312  41.781  31.938   5.535
 2866POPC   GL139313  41.755  32.201   5.940
 2866POPC   GL239314  42.008  32.479   5.932
 2866POPC   C1A39315  41.424  32.336   6.250
 2866POPC   D2A39316  41.109  32.261   6.623
 2866POPC   C3A39317  41.301  32.166   7.048
 2866POPC   C4A39318  41.508  32.028   7.456
 2866POPC   C1B39319  42.045  32.612   6.339
 2866POPC   C2B39320  41.744  32.512   6.641
 2866POPC   C3B39321  41.510  32.714   6.941
 2866POPC   C4B39322  41.488  32.565   7.347
 2867POPC   NC339323  23.281   6.254   5.065
 2867POPC   PO439324  22.803   6.687   5.251
 2867POPC   GL139325  22.880   6.834   5.763
 2867POPC   GL239326  23.163   7.089   5.839
 2867POPC   C1A39327  22.874   6.713   6.263
 2867POPC   D2A39328  22.813   6.553   6.712
 2867POPC   C3A39329  22.625   6.740   7.067
 2867POPC   C4A39330  22.837   6.689   7.441
 2867POPC   C1B39331  23.326   6.966   6.249
 2867POPC   C2B39332  23.270   6.817   6.678
 2867POPC   C3B39333  23.204   6.606   7.088
 2867POPC   C4B39334  23.333   6.519   7.534
 2868POPC   NC339335  37.214   3.613   5.571
 2868POPC   PO439336  36.654   3.181   5.541
 2868POPC   GL139337  36.924   3.301   5.886
 2868POPC   GL239338  37.250   3.181   5.828
 2868POPC   C1A39339  36.954   3.593   6.241
 2868POPC   D2A39340  36.726   3.720   6.623
 2868POPC   C3A39341  36.780   3.450   6.964
 2868POPC   C4A39342  36.899   3.438   7.370
 2868POPC   C1B39343  37.298   3.165   6.259
 2868POPC   C2B39344  37.173   3.335   6.651
 2868POPC   C3B39345  37.203   3.119   7.044
 2868POPC   C4B39346  37.350   3.182   7.477
 2869POPC   NC339347  36.729  14.694   5.339
 2869POPC   PO439348  36.554  15.405   5.366
 2869POPC   GL139349  36.809  15.156   5.670
 2869POPC   GL239350  36.590  14.896   5.811
 2869POPC   C1A39351  37.017  15.063   6.076
 2869POPC   D2A39352  36.908  15.089   6.525
 2869POPC   C3A39353  36.933  15.419   6.855
 2869POPC   C4A39354  36.997  15.282   7.262
 2869POPC   C1B39355  36.592  14.765   6.245
 2869POPC   C2B39356  36.419  14.971   6.629
 2869POPC   C3B39357  36.649  14.957   7.018
 2869POPC   C4B39358  36.580  14.912   7.457
 2870POPC   NC339359  34.194  15.471   5.291
 2870POPC   PO439360  34.221  14.766   5.309
 2870POPC   GL139361  34.501  15.043   5.603
 2870POPC   GL239362  34.346  15.364   5.768
 2870POPC   C1A39363  34.509  14.986   6.083
 2870POPC   D2A39364  34.382  14.867   6.515
 2870POPC   C3A39365  34.667  14.995   6.863
 2870POPC   C4A39366  34.673  14.874   7.271
 2870POPC   C1B39367  34.500  15.524   6.160
 2870POPC   C2B39368  34.475  15.380   6.579
 2870POPC   C3B39369  34.554  15.531   6.990
 2870POPC   C4B39370  34.836  15.353   7.279
 2871POPC   NC339371  20.768  32.671   5.505
 2871POPC   PO439372  20.532  33.349   5.648
 2871POPC   GL139373  20.572  32.998   5.853
 2871POPC   GL239374  20.224  32.923   5.815
 2871POPC   C1A39375  20.741  33.021   6.266
 2871POPC   D2A39376  20.756  32.921   6.699
 2871POPC   C3A39377  20.567  33.216   6.982
 2871POPC   C4A39378  20.504  33.086   7.405
 2871POPC   C1B39379  20.333  32.713   6.215
 2871POPC   C2B39380  20.183  32.643   6.612
 2871POPC   C3B39381  20.280  32.806   6.999
 2871POPC   C4B39382  20.149  32.718   7.409
 2872POPC   NC339383  39.270  15.070   4.997
 2872POPC   PO439384  38.920  15.325   5.431
 2872POPC   GL139385  39.022  15.113   5.816
 2872POPC   GL239386  39.010  14.750   5.779
 2872POPC   C1A39387  39.191  15.288   6.216
 2872POPC   D2A39388  39.082  15.548   6.583
 2872POPC   C3A39389  39.268  15.419   6.969
 2872POPC   C4A39390  39.345  15.360   7.414
 2872POPC   C1B39391  39.204  14.756   6.215
 2872POPC   C2B39392  39.234  14.585   6.646
 2872POPC   C3B39393  39.280  14.867   7.010
 2872POPC   C4B39394  38.966  15.070   7.197
 2873POPC   NC339395   0.751  24.453   5.044
 2873POPC   PO439396   1.300  24.486   5.466
 2873POPC   GL139397   1.262  24.286   5.835
 2873POPC   GL239398   0.908  24.250   5.784
 2873POPC   C1A39399   1.358  24.426   6.278
 2873POPC   D2A39400   1.376  24.618   6.708
 2873POPC   C3A39401   1.120  24.467   7.067
 2873POPC   C4A39402   1.218  24.579   7.517
 2873POPC   C1B39403   0.897  24.586   6.094
 2873POPC   C2B39404   0.880  24.591   6.549
 2873POPC   C3B39405   0.690  24.749   6.944
 2873POPC   C4B39406   0.738  24.619   7.378
 2874POPC   NC339407  17.843  33.258   5.044
 2874POPC   PO439408  17.384  32.881   5.254
 2874POPC   GL139409  17.498  32.817   5.697
 2874POPC   GL239410  17.183  32.907   5.808
 2874POPC   C1A39411  17.654  33.027   6.100
 2874POPC   D2A39412  17.627  33.217   6.522
 2874POPC   C3A39413  17.836  33.103   6.911
 2874POPC   C4A39414  17.588  32.975   7.250
 2874POPC   C1B39415  17.165  32.707   6.171
 2874POPC   C2B39416  17.213  32.844   6.544
 2874POPC   C3B39417  17.170  32.960   6.920
 2874POPC   C4B39418  17.094  32.769   7.303
 2875POPC   NC339419  42.677  21.530   5.335
 2875POPC   PO439420  42.032  21.341   5.488
 2875POPC   GL139421  42.242  21.512   5.778
 2875POPC   GL239422  42.537  21.316   5.803
 2875POPC   C1A39423  42.320  21.680   6.168
 2875POPC   D2A39424  42.180  21.594   6.568
 2875POPC   C3A39425  42.510  21.602   6.871
 2875POPC   C4A39426  42.302  21.626   7.242
 2875POPC   C1B39427  42.454  21.146   6.228
 2875POPC   C2B39428  42.580  21.112   6.675
 2875POPC   C3B39429  42.421  21.133   7.095
 2875POPC   C4B39430  42.473  21.203   7.554
 2876POPC   NC339431  11.232   1.640   5.637
 2876POPC   PO439432  10.781   1.238   5.274
 2876POPC   GL139433  10.457   1.306   5.593
 2876POPC   GL239434  10.418   0.987   5.688
 2876POPC   C1A39435  10.465   1.355   6.055
 2876POPC   D2A39436  10.528   1.274   6.503
 2876POPC   C3A39437  10.723   1.593   6.783
 2876POPC   C4A39438  10.633   1.597   7.218
 2876POPC   C1B39439  10.229   0.891   6.097
 2876POPC   C2B39440  10.343   0.700   6.454
 2876POPC   C3B39441  10.283   0.826   6.870
 2876POPC   C4B39442  10.061   0.892   7.266
 2877POPC   NC339443  19.386  41.716   5.581
 2877POPC   PO439444  18.749  41.736   5.353
 2877POPC   GL139445  18.941  41.456   5.680
 2877POPC   GL239446  19.116  41.123   5.724
 2877POPC   C1A39447  19.048  41.500   6.117
 2877POPC   D2A39448  18.932  41.698   6.490
 2877POPC   C3A39449  18.997  41.583   6.908
 2877POPC   C4A39450  19.190  41.622   7.318
 2877POPC   C1B39451  19.287  41.059   6.159
 2877POPC   C2B39452  19.303  41.292   6.574
 2877POPC   C3B39453  19.351  41.230   7.013
 2877POPC   C4B39454  19.518  41.288   7.444
 2878POPC   NC339455   8.552  33.442   5.403
 2878POPC   PO439456   7.973  33.702   5.583
 2878POPC   GL139457   8.086  33.867   5.950
 2878POPC   GL239458   8.400  33.978   5.801
 2878POPC   C1A39459   8.098  33.754   6.403
 2878POPC   D2A39460   8.139  33.515   6.785
 2878POPC   C3A39461   8.269  33.733   7.121
 2878POPC   C4A39462   8.246  33.979   7.509
 2878POPC   C1B39463   8.552  33.868   6.210
 2878POPC   C2B39464   8.589  33.709   6.639
 2878POPC   C3B39465   8.748  33.604   7.035
 2878POPC   C4B39466   8.678  33.686   7.478
 2879POPC   NC339467  33.103  34.636   5.361
 2879POPC   PO439468  32.720  34.166   5.565
 2879POPC   GL139469  33.019  34.353   5.838
 2879POPC   GL239470  33.177  34.708   5.843
 2879POPC   C1A39471  32.803  34.463   6.219
 2879POPC   D2A39472  32.653  34.255   6.604
 2879POPC   C3A39473  32.660  34.477   6.985
 2879POPC   C4A39474  32.771  34.637   7.371
 2879POPC   C1B39475  33.322  34.519   6.219
 2879POPC   C2B39476  33.108  34.499   6.623
 2879POPC   C3B39477  33.177  34.588   7.023
 2879POPC   C4B39478  33.387  34.705   7.376
 2880POPC   NC339479  13.134  21.982   5.614
 2880POPC   PO439480  12.505  21.856   5.544
 2880POPC   GL139481  12.592  22.166   5.877
 2880POPC   GL239482  12.880  22.145   6.044
 2880POPC   C1A39483  12.404  22.251   6.305
 2880POPC   D2A39484  12.481  22.574   6.646
 2880POPC   C3A39485  12.796  22.477   6.929
 2880POPC   C4A39486  12.650  22.343   7.288
 2880POPC   C1B39487  12.905  22.310   6.442
 2880POPC   C2B39488  13.137  22.123   6.757
 2880POPC   C3B39489  13.285  22.004   7.133
 2880POPC   C4B39490  13.001  21.953   7.392
 2881POPC   NC339491  33.799  30.282   5.473
 2881POPC   PO439492  34.271  29.851   5.468
 2881POPC   GL139493  34.071  30.027   5.849
 2881POPC   GL239494  33.717  29.885   5.923
 2881POPC   C1A39495  34.036  30.020   6.314
 2881POPC   D2A39496  34.080  29.707   6.658
 2881POPC   C3A39497  33.917  29.908   7.040
 2881POPC   C4A39498  33.892  30.336   7.146
 2881POPC   C1B39499  33.353  29.846   6.239
 2881POPC   C2B39500  33.296  29.805   6.697
 2881POPC   C3B39501  33.430  30.125   7.029
 2881POPC   C4B39502  33.531  30.192   7.479
 2882POPC   NC339503  38.595  22.023   5.256
 2882POPC   PO439504  38.038  22.145   5.290
 2882POPC   GL139505  38.265  22.036   5.691
 2882POPC   GL239506  37.970  22.165   5.825
 2882POPC   C1A39507  38.518  22.067   6.131
 2882POPC   D2A39508  38.761  22.157   6.559
 2882POPC   C3A39509  38.609  22.008   6.987
 2882POPC   C4A39510  38.613  21.708   7.341
 2882POPC   C1B39511  38.085  22.321   6.235
 2882POPC   C2B39512  38.243  22.253   6.676
 2882POPC   C3B39513  38.207  22.294   7.140
 2882POPC   C4B39514  38.278  22.044   7.503
 2883POPC   NC339515  31.287   6.285   5.510
 2883POPC   PO439516  31.487   5.757   5.355
 2883POPC   GL139517  31.353   5.614   5.798
 2883POPC   GL239518  31.119   5.885   5.828
 2883POPC   C1A39519  31.359   5.633   6.289
 2883POPC   D2A39520  31.219   5.704   6.742
 2883POPC   C3A39521  31.469   5.805   7.124
 2883POPC   C4A39522  31.491   5.992   7.541
 2883POPC   C1B39523  31.130   6.087   6.222
 2883POPC   C2B39524  31.033   6.214   6.655
 2883POPC   C3B39525  31.003   6.051   7.077
 2883POPC   C4B39526  31.036   6.242   7.485
 2884POPC   NC339527  40.340  24.656   5.517
 2884POPC   PO439528  39.998  24.123   5.348
 2884POPC   GL139529  39.940  24.397   5.729
 2884POPC   GL239530  40.248  24.246   5.821
 2884POPC   C1A39531  39.852  24.551   6.177
 2884POPC   D2A39532  39.675  24.478   6.627
 2884POPC   C3A39533  39.819  24.722   6.973
 2884POPC   C4A39534  39.975  24.616   7.368
 2884POPC   C1B39535  40.325  24.305   6.223
 2884POPC   C2B39536  40.119  24.264   6.568
 2884POPC   C3B39537  40.175  24.357   6.976
 2884POPC   C4B39538  40.263  24.111   7.325
 2885POPC   NC339539   7.207  19.993   5.736
 2885POPC   PO439540   7.642  19.684   5.284
 2885POPC   GL139541   7.655  19.661   5.728
 2885POPC   GL239542   7.741  19.988   5.845
 2885POPC   C1A39543   7.497  19.612   6.155
 2885POPC   D2A39544   7.476  19.521   6.543
 2885POPC   C3A39545   7.560  19.829   6.829
 2885POPC   C4A39546   7.335  19.851   7.200
 2885POPC   C1B39547   7.619  20.090   6.300
 2885POPC   C2B39548   7.714  20.307   6.678
 2885POPC   C3B39549   7.663  20.247   7.130
 2885POPC   C4B39550   7.546  20.166   7.556
 2886POPC   NC339551  11.413  14.229   5.451
 2886POPC   PO439552  10.989  14.690   5.318
 2886POPC   GL139553  11.088  14.604   5.761
 2886POPC   GL239554  11.080  14.262   5.828
 2886POPC   C1A39555  11.377  14.557   6.146
 2886POPC   D2A39556  11.531  14.392   6.534
 2886POPC   C3A39557  11.371  14.480   6.919
 2886POPC   C4A39558  11.516  14.462   7.347
 2886POPC   C1B39559  11.194  14.066   6.236
 2886POPC   C2B39560  11.033  13.914   6.643
 2886POPC   C3B39561  11.191  14.029   7.048
 2886POPC   C4B39562  11.156  14.118   7.490
 2887POPC   NC339563  25.974  11.614   5.342
 2887POPC   PO439564  26.184  10.947   5.459
 2887POPC   GL139565  26.006  11.086   5.864
 2887POPC   GL239566  25.636  11.122   5.930
 2887POPC   C1A39567  26.193  11.171   6.271
 2887POPC   D2A39568  26.111  11.329   6.672
 2887POPC   C3A39569  26.329  11.102   6.960
 2887POPC   C4A39570  26.070  11.053   7.264
 2887POPC   C1B39571  25.760  11.449   6.246
 2887POPC   C2B39572  25.644  11.543   6.675
 2887POPC   C3B39573  25.721  11.404   7.118
 2887POPC   C4B39574  25.530  11.535   7.522
 2888POPC   NC339575   2.489  15.560   5.491
 2888POPC   PO439576   2.799  16.204   5.493
 2888POPC   GL139577   2.879  16.037   5.887
 2888POPC   GL239578   2.780  15.723   5.872
 2888POPC   C1A39579   2.716  15.982   6.308
 2888POPC   D2A39580   2.643  15.844   6.703
 2888POPC   C3A39581   2.788  16.135   6.977
 2888POPC   C4A39582   3.087  16.183   7.279
 2888POPC   C1B39583   2.890  15.482   6.206
 2888POPC   C2B39584   3.014  15.429   6.624
 2888POPC   C3B39585   2.823  15.476   7.006
 2888POPC   C4B39586   2.937  15.677   7.385
 2889POPC   NC339587  15.858  39.567   5.492
 2889POPC   PO439588  16.016  38.990   5.683
 2889POPC   GL139589  15.992  39.348   5.963
 2889POPC   GL239590  16.184  39.662   5.882
 2889POPC   C1A39591  15.843  39.308   6.390
 2889POPC   D2A39592  15.646  39.384   6.794
 2889POPC   C3A39593  15.882  39.217   7.124
 2889POPC   C4A39594  15.826  39.179   7.554
 2889POPC   C1B39595  16.291  39.552   6.338
 2889POPC   C2B39596  16.231  39.364   6.754
 2889POPC   C3B39597  16.371  39.356   7.207
 2889POPC   C4B39598  16.538  39.491   7.623
 2890POPC   NC339599   5.795  10.291   5.271
 2890POPC   PO439600   5.941   9.710   5.453
 2890POPC   GL139601   5.997   9.784   5.866
 2890POPC   GL239602   6.116  10.119   5.885
 2890POPC   C1A39603   5.840   9.598   6.239
 2890POPC   D2A39604   5.569   9.608   6.601
 2890POPC   C3A39605   5.852   9.575   6.972
 2890POPC   C4A39606   5.702   9.759   7.365
 2890POPC   C1B39607   6.225   9.943   6.292
 2890POPC   C2B39608   6.222   9.897   6.752
 2890POPC   C3B39609   6.058  10.053   7.133
 2890POPC   C4B39610   6.026  10.094   7.582
 2891POPC   NC339611  39.414  22.498   5.334
 2891POPC   PO439612  39.160  23.153   5.312
 2891POPC   GL139613  39.252  23.046   5.725
 2891POPC   GL239614  39.193  22.706   5.779
 2891POPC   C1A39615  39.401  23.066   6.146
 2891POPC   D2A39616  39.489  22.922   6.584
 2891POPC   C3A39617  39.409  23.136   6.982
 2891POPC   C4A39618  39.044  23.226   7.261
 2891POPC   C1B39619  39.045  22.628   6.220
 2891POPC   C2B39620  39.069  22.642   6.679
 2891POPC   C3B39621  39.117  22.728   7.126
 2891POPC   C4B39622  39.037  22.723   7.577
 2892POPC   NC339623  16.250  21.283   5.366
 2892POPC   PO439624  15.680  21.027   5.310
 2892POPC   GL139625  15.827  21.212   5.708
 2892POPC   GL239626  16.029  21.500   5.791
 2892POPC   C1A39627  15.843  21.230   6.178
 2892POPC   D2A39628  15.962  21.450   6.557
 2892POPC   C3A39629  15.891  21.283   6.945
 2892POPC   C4A39630  15.668  21.508   7.203
 2892POPC   C1B39631  16.323  21.494   6.212
 2892POPC   C2B39632  16.437  21.600   6.663
 2892POPC   C3B39633  16.362  21.449   7.101
 2892POPC   C4B39634  16.101  21.252   7.433
 2893POPC   NC339635  32.979   3.164   5.386
 2893POPC   PO439636  33.167   3.733   5.306
 2893POPC   GL139637  33.024   3.772   5.738
 2893POPC   GL239638  32.875   3.472   5.803
 2893POPC   C1A39639  32.925   3.797   6.204
 2893POPC   D2A39640  32.669   3.678   6.597
 2893POPC   C3A39641  32.955   3.779   6.946
 2893POPC   C4A39642  33.221   3.805   7.318
 2893POPC   C1B39643  32.909   3.275   6.231
 2893POPC   C2B39644  32.743   3.175   6.634
 2893POPC   C3B39645  32.827   3.291   7.075
 2893POPC   C4B39646  33.246   3.281   7.269
 2894POPC   NC339647   7.826   5.729   5.404
 2894POPC   PO439648   8.412   5.562   5.206
 2894POPC   GL139649   8.261   5.776   5.668
 2894POPC   GL239650   7.949   6.011   5.816
 2894POPC   C1A39651   8.258   5.701   6.141
 2894POPC   D2A39652   8.513   5.486   6.481
 2894POPC   C3A39653   8.492   5.584   6.929
 2894POPC   C4A39654   8.233   5.473   7.246
 2894POPC   C1B39655   7.695   6.197   6.204
 2894POPC   C2B39656   7.623   6.033   6.660
 2894POPC   C3B39657   7.960   5.802   6.936
 2894POPC   C4B39658   8.237   5.982   7.272
 2895POPC   NC339659  44.388  38.845   5.594
 2895POPC   PO439660  44.705  38.247   5.508
 2895POPC   GL139661  44.773  38.302   5.933
 2895POPC   GL239662  44.935  38.641   5.929
 2895POPC   C1A39663  44.921  38.051   6.286
 2895POPC   D2A39664  44.992  38.137   6.715
 2895POPC   C3A39665  44.648  38.027   6.982
 2895POPC   C4A39666  44.760  38.106   7.385
 2895POPC   C1B39667  44.967  38.544   6.375
 2895POPC   C2B39668  44.587  38.457   6.665
 2895POPC   C3B39669  44.670  38.545   7.102
 2895POPC   C4B39670   0.075  38.732   7.110
 2896POPC   NC339671  23.334  34.492   5.258
 2896POPC   PO439672  22.686  34.279   5.107
 2896POPC   GL139673  22.862  34.630   5.564
 2896POPC   GL239674  22.661  34.717   5.884
 2896POPC   C1A39675  23.124  34.655   6.042
 2896POPC   D2A39676  23.265  34.448   6.462
 2896POPC   C3A39677  23.192  34.564   6.910
 2896POPC   C4A39678  22.950  34.694   7.244
 2896POPC   C1B39679  22.719  34.573   6.344
 2896POPC   C2B39680  22.698  34.690   6.786
 2896POPC   C3B39681  22.485  34.525   7.148
 2896POPC   C4B39682  22.556  34.093   7.239
 2897POPC   NC339683   3.340  42.799   5.316
 2897POPC   PO439684   3.825  43.284   5.361
 2897POPC   GL139685   3.613  43.095   5.723
 2897POPC   GL239686   3.219  42.965   5.764
 2897POPC   C1A39687   3.760  43.316   6.120
 2897POPC   D2A39688   3.970  43.353   6.522
 2897POPC   C3A39689   3.784  43.211   6.918
 2897POPC   C4A39690   3.536  43.409   7.256
 2897POPC   C1B39691   3.336  43.022   6.164
 2897POPC   C2B39692   3.567  42.981   6.508
 2897POPC   C3B39693   3.294  43.127   6.817
 2897POPC   C4B39694   3.221  43.009   7.184
 2898POPC   NC339695   1.518  29.399   5.504
 2898POPC   PO439696   1.176  28.826   5.537
 2898POPC   GL139697   1.202  29.166   5.840
 2898POPC   GL239698   1.512  29.108   6.002
 2898POPC   C1A39699   1.032  29.397   6.205
 2898POPC   D2A39700   1.036  29.642   6.623
 2898POPC   C3A39701   1.217  29.390   6.962
 2898POPC   C4A39702   1.454  29.037   7.127
 2898POPC   C1B39703   1.146  28.868   6.238
 2898POPC   C2B39704   1.126  28.640   6.647
 2898POPC   C3B39705   1.090  28.677   7.112
 2898POPC   C4B39706   1.085  28.784   7.559
 2899POPC   NC339707  13.551   3.104   5.452
 2899POPC   PO439708  13.174   2.525   5.412
 2899POPC   GL139709  13.516   2.558   5.740
 2899POPC   GL239710  13.662   2.850   5.859
 2899POPC   C1A39711  13.608   2.496   6.194
 2899POPC   D2A39712  13.472   2.702   6.546
 2899POPC   C3A39713  13.613   2.605   6.901
 2899POPC   C4A39714  13.587   2.505   7.293
 2899POPC   C1B39715  13.763   2.995   6.244
 2899POPC   C2B39716  13.952   2.870   6.631
 2899POPC   C3B39717  13.710   3.117   6.905
 2899POPC   C4B39718  13.520   3.002   7.243
 2900POPC   NC339719   3.937   5.069   5.430
 2900POPC   PO439720   3.295   4.826   5.656
 2900POPC   GL139721   3.492   5.074   5.968
 2900POPC   GL239722   3.861   5.110   5.933
 2900POPC   C1A39723   3.422   5.288   6.369
 2900POPC   D2A39724   3.540   5.500   6.740
 2900POPC   C3A39725   3.522   5.267   7.067
 2900POPC   C4A39726   3.412   4.836   7.052
 2900POPC   C1B39727   3.898   5.024   6.388
 2900POPC   C2B39728   3.878   4.862   6.816
 2900POPC   C3B39729   3.882   4.963   7.252
 2900POPC   C4B39730   3.961   5.196   7.654
 2901POPC   NC339731  16.010  25.687   5.417
 2901POPC   PO439732  15.843  25.000   5.414
 2901POPC   GL139733  15.938  25.284   5.780
 2901POPC   GL239734  16.197  25.521   5.850
 2901POPC   C1A39735  15.871  25.408   6.220
 2901POPC   D2A39736  16.099  25.543   6.532
 2901POPC   C3A39737  15.980  25.327   6.908
 2901POPC   C4A39738  15.782  25.229   7.299
 2901POPC   C1B39739  16.306  25.170   6.127
 2901POPC   C2B39740  16.204  25.048   6.517
 2901POPC   C3B39741  16.383  25.029   6.920
 2901POPC   C4B39742  16.248  25.045   7.319
 2902POPC   NC339743  31.234  32.781   5.281
 2902POPC   PO439744  31.806  32.997   5.521
 2902POPC   GL139745  31.453  33.015   5.772
 2902POPC   GL239746  31.109  32.880   5.764
 2902POPC   C1A39747  31.581  32.981   6.181
 2902POPC   D2A39748  31.640  33.185   6.519
 2902POPC   C3A39749  31.581  32.974   6.891
 2902POPC   C4A39750  31.604  32.772   7.270
 2902POPC   C1B39751  31.116  33.142   6.163
 2902POPC   C2B39752  31.149  33.099   6.604
 2902POPC   C3B39753  31.026  33.273   6.986
 2902POPC   C4B39754  31.265  33.176   7.363
 2903POPC   NC339755  43.411  28.885   5.565
 2903POPC   PO439756  42.968  28.403   5.208
 2903POPC   GL139757  42.975  28.383   5.666
 2903POPC   GL239758  43.180  28.574   5.911
 2903POPC   C1A39759  42.785  28.222   6.072
 2903POPC   D2A39760  42.751  28.210   6.557
 2903POPC   C3A39761  43.116  28.388   6.805
 2903POPC   C4A39762  43.315  28.192   7.184
 2903POPC   C1B39763  43.330  28.683   6.330
 2903POPC   C2B39764  43.408  28.858   6.768
 2903POPC   C3B39765  43.461  28.688   7.216
 2903POPC   C4B39766  43.445  28.510   7.676
 2904POPC   NC339767  33.248  15.472   4.967
 2904POPC   PO439768  32.971  14.932   5.248
 2904POPC   GL139769  32.998  14.923   5.743
 2904POPC   GL239770  32.997  14.611   5.917
 2904POPC   C1A39771  33.175  15.076   6.180
 2904POPC   D2A39772  33.200  15.449   6.508
 2904POPC   C3A39773  33.131  15.404   6.971
 2904POPC   C4A39774  33.184  15.406   7.424
 2904POPC   C1B39775  32.739  14.810   6.267
 2904POPC   C2B39776  32.808  14.994   6.722
 2904POPC   C3B39777  32.749  15.006   7.212
 2904POPC   C4B39778  32.659  14.791   7.692
 2905POPC   NC339779   9.873  32.149   5.449
 2905POPC   PO439780   9.439  32.586   5.364
 2905POPC   GL139781   9.625  32.496   5.740
 2905POPC   GL239782   9.983  32.594   5.718
 2905POPC   C1A39783   9.648  32.329   6.147
 2905POPC   D2A39784   9.536  32.498   6.536
 2905POPC   C3A39785   9.674  32.319   6.904
 2905POPC   C4A39786   9.758  32.044   7.222
 2905POPC   C1B39787  10.140  32.461   6.110
 2905POPC   C2B39788  10.028  32.294   6.522
 2905POPC   C3B39789  10.168  32.446   6.913
 2905POPC   C4B39790  10.021  32.458   7.329
 2906POPC   NC339791  27.460  28.433   5.406
 2906POPC   PO439792  28.023  28.721   5.490
 2906POPC   GL139793  27.849  28.452   5.806
 2906POPC   GL239794  27.578  28.204   5.873
 2906POPC   C1A39795  27.686  28.677   6.171
 2906POPC   D2A39796  27.496  28.763   6.584
 2906POPC   C3A39797  27.646  28.598   6.969
 2906POPC   C4A39798  27.500  28.539   7.382
 2906POPC   C1B39799  27.791  28.179   6.278
 2906POPC   C2B39800  27.732  28.111   6.756
 2906POPC   C3B39801  27.432  28.065   7.152
 2906POPC   C4B39802  27.143  27.917   7.499
 2907POPC   NC339803  10.544  36.942   5.474
 2907POPC   PO439804  11.021  37.437   5.549
 2907POPC   GL139805  10.800  37.147   5.867
 2907POPC   GL239806  10.399  37.062   5.941
 2907POPC   C1A39807  10.701  37.266   6.289
 2907POPC   D2A39808  10.347  37.213   6.512
 2907POPC   C3A39809  10.532  37.103   6.860
 2907POPC   C4A39810  10.434  37.124   7.236
 2907POPC   C1B39811  10.512  36.770   6.275
 2907POPC   C2B39812  10.687  36.612   6.670
 2907POPC   C3B39813  10.521  36.570   7.081
 2907POPC   C4B39814  10.417  36.697   7.486
 2908POPC   NC339815   3.499  39.498   5.103
 2908POPC   PO439816   3.878  39.949   5.479
 2908POPC   GL139817   3.774  40.175   5.845
 2908POPC   GL239818   3.466  40.005   5.858
 2908POPC   C1A39819   3.645  40.210   6.284
 2908POPC   D2A39820   3.717  39.974   6.649
 2908POPC   C3A39821   3.659  40.179   6.991
 2908POPC   C4A39822   3.372  40.412   7.190
 2908POPC   C1B39823   3.454  39.754   6.267
 2908POPC   C2B39824   3.262  39.754   6.705
 2908POPC   C3B39825   3.349  39.802   7.162
 2908POPC   C4B39826   3.467  39.669   7.592
 2909POPC   NC339827   1.575  35.547   5.519
 2909POPC   PO439828   1.038  35.282   5.286
 2909POPC   GL139829   1.122  35.381   5.731
 2909POPC   GL239830   1.163  35.077   5.918
 2909POPC   C1A39831   1.329  35.523   6.160
 2909POPC   D2A39832   1.213  35.507   6.627
 2909POPC   C3A39833   1.266  35.746   7.023
 2909POPC   C4A39834   1.338  35.613   7.450
 2909POPC   C1B39835   1.055  35.092   6.364
 2909POPC   C2B39836   0.777  34.878   6.700
 2909POPC   C3B39837   0.964  34.919   7.111
 2909POPC   C4B39838   1.314  35.212   7.112
 2910POPC   NC339839  22.941  40.649   5.446
 2910POPC   PO439840  22.456  41.117   5.475
 2910POPC   GL139841  22.754  40.988   5.838
 2910POPC   GL239842  22.821  40.639   5.962
 2910POPC   C1A39843  22.824  41.023   6.309
 2910POPC   D2A39844  22.966  40.960   6.751
 2910POPC   C3A39845  22.848  40.582   7.032
 2910POPC   C4A39846  22.792  40.244   7.354
 2910POPC   C1B39847  23.027  40.558   6.416
 2910POPC   C2B39848  23.323  40.616   6.820
 2910POPC   C3B39849  23.248  40.925   7.176
 2910POPC   C4B39850  23.036  41.137   7.543
 2911POPC   NC339851   1.511  24.934   5.451
 2911POPC   PO439852   0.821  25.213   5.384
 2911POPC   GL139853   1.019  25.478   5.743
 2911POPC   GL239854   1.375  25.575   5.699
 2911POPC   C1A39855   1.057  25.392   6.211
 2911POPC   D2A39856   1.296  25.546   6.587
 2911POPC   C3A39857   1.090  25.438   7.002
 2911POPC   C4A39858   1.062  25.011   7.212
 2911POPC   C1B39859   1.528  25.373   6.059
 2911POPC   C2B39860   1.470  25.064   6.413
 2911POPC   C3B39861   1.463  25.122   6.874
 2911POPC   C4B39862   1.571  25.512   7.164
 2912POPC   NC339863   6.207  30.291   5.637
 2912POPC   PO439864   6.682  30.657   5.344
 2912POPC   GL139865   6.850  30.783   5.761
 2912POPC   GL239866   6.952  30.469   5.902
 2912POPC   C1A39867   6.965  30.895   6.184
 2912POPC   D2A39868   6.906  30.521   6.485
 2912POPC   C3A39869   6.924  30.557   6.932
 2912POPC   C4A39870   7.073  30.553   7.356
 2912POPC   C1B39871   6.542  30.628   6.127
 2912POPC   C2B39872   6.387  30.540   6.549
 2912POPC   C3B39873   6.458  30.336   6.938
 2912POPC   C4B39874   6.486  30.568   7.296
 2913POPC   NC339875  15.276  13.380   4.912
 2913POPC   PO439876  15.064  13.370   5.559
 2913POPC   GL139877  15.078  13.632   5.885
 2913POPC   GL239878  14.747  13.726   5.954
 2913POPC   C1A39879  15.312  13.620   6.271
 2913POPC   D2A39880  15.187  13.752   6.693
 2913POPC   C3A39881  15.246  13.473   7.058
 2913POPC   C4A39882  15.484  13.628   7.412
 2913POPC   C1B39883  14.817  13.531   6.350
 2913POPC   C2B39884  14.810  13.429   6.767
 2913POPC   C3B39885  14.821  13.776   7.087
 2913POPC   C4B39886  15.112  14.022   7.333
 2914POPC   NC339887  33.115  43.660   5.484
 2914POPC   PO439888  33.043  44.345   5.449
 2914POPC   GL139889  32.809  44.111   5.799
 2914POPC   GL239890  32.815  43.717   5.890
 2914POPC   C1A39891  32.771  44.071   6.255
 2914POPC   D2A39892  33.013  43.892   6.590
 2914POPC   C3A39893  32.838  43.763   7.025
 2914POPC   C4A39894  32.841  43.600   7.489
 2914POPC   C1B39895  33.162  43.577   6.185
 2914POPC   C2B39896  33.407  43.530   6.582
 2914POPC   C3B39897  33.372  43.804   6.929
 2914POPC   C4B39898  33.248  43.835   7.328
 2915POPC   NC339899   5.167  19.106   5.100
 2915POPC   PO439900   5.214  19.376   5.712
 2915POPC   GL139901   5.107  19.237   6.032
 2915POPC   GL239902   5.165  18.929   6.048
 2915POPC   C1A39903   5.199  19.329   6.404
 2915POPC   D2A39904   5.427  19.458   6.681
 2915POPC   C3A39905   5.209  19.305   6.988
 2915POPC   C4A39906   5.292  19.183   7.337
 2915POPC   C1B39907   4.711  18.783   6.123
 2915POPC   C2B39908   4.557  18.729   6.536
 2915POPC   C3B39909   4.548  18.883   6.973
 2915POPC   C4B39910   4.881  18.874   7.282
 2916POPC   NC339911  43.830  32.483   5.417
 2916POPC   PO439912  44.485  32.321   5.455
 2916POPC   GL139913  44.714  32.346   5.855
 2916POPC   GL239914  44.380  32.287   5.944
 2916POPC   C1A39915  44.696  32.301   6.330
 2916POPC   D2A39916  44.775  32.424   6.746
 2916POPC   C3A39917  44.500  32.301   7.068
 2916POPC   C4A39918  44.702  32.070   7.358
 2916POPC   C1B39919  44.194  32.482   6.252
 2916POPC   C2B39920  44.171  32.347   6.644
 2916POPC   C3B39921  44.093  32.587   6.973
 2916POPC   C4B39922  44.185  32.547   7.399
 2917POPC   NC339923  26.431   6.865   5.208
 2917POPC   PO439924  27.064   6.653   5.340
 2917POPC   GL139925  26.788   6.592   5.736
 2917POPC   GL239926  27.036   6.324   5.789
 2917POPC   C1A39927  26.623   6.722   6.201
 2917POPC   D2A39928  26.584   6.952   6.642
 2917POPC   C3A39929  26.647   6.724   7.044
 2917POPC   C4A39930  26.926   6.687   7.405
 2917POPC   C1B39931  26.876   6.281   6.198
 2917POPC   C2B39932  26.814   6.457   6.626
 2917POPC   C3B39933  26.902   6.250   7.049
 2917POPC   C4B39934  26.921   6.193   7.517
 2918POPC   NC339935  26.029  37.053   5.462
 2918POPC   PO439936  25.634  37.382   5.708
 2918POPC   GL139937  25.863  36.997   5.949
 2918POPC   GL239938  26.044  36.683   5.851
 2918POPC   C1A39939  26.031  36.894   6.367
 2918POPC   D2A39940  25.870  36.829   6.790
 2918POPC   C3A39941  26.144  37.023   7.103
 2918POPC   C4A39942  26.471  37.250   7.372
 2918POPC   C1B39943  25.774  36.502   6.205
 2918POPC   C2B39944  25.684  36.341   6.666
 2918POPC   C3B39945  25.714  36.498   7.151
 2918POPC   C4B39946  25.672  36.930   7.357
 2919POPC   NC339947  34.997   0.804   5.653
 2919POPC   PO439948  35.384   0.519   5.228
 2919POPC   GL139949  35.354   0.404   5.679
 2919POPC   GL239950  35.229   0.053   5.779
 2919POPC   C1A39951  35.371   0.416   6.139
 2919POPC   D2A39952  35.425   0.369   6.600
 2919POPC   C3A39953  35.213   0.649   6.881
 2919POPC   C4A39954  35.305   0.664   7.315
 2919POPC   C1B39955  35.158  44.940   6.238
 2919POPC   C2B39956  35.204  44.937   6.724
 2919POPC   C3B39957  35.299   0.206   7.104
 2919POPC   C4B39958  35.142   0.209   7.568
 2920POPC   NC339959   7.191  32.445   5.489
 2920POPC   PO439960   7.741  32.016   5.466
 2920POPC   GL139961   7.459  32.111   5.803
 2920POPC   GL239962   7.460  32.461   5.946
 2920POPC   C1A39963   7.236  32.064   6.190
 2920POPC   D2A39964   7.223  32.435   6.494
 2920POPC   C3A39965   7.432  32.404   6.891
 2920POPC   C4A39966   7.235  32.188   7.215
 2920POPC   C1B39967   7.610  32.773   6.261
 2920POPC   C2B39968   7.603  32.862   6.705
 2920POPC   C3B39969   7.500  32.878   7.122
 2920POPC   C4B39970   7.489  32.566   7.400
 2921POPC   NC339971  19.325   6.863   5.531
 2921POPC   PO439972  18.867   6.471   5.254
 2921POPC   GL139973  18.844   6.560   5.737
 2921POPC   GL239974  18.914   6.903   5.822
 2921POPC   C1A39975  19.014   6.516   6.193
 2921POPC   D2A39976  19.355   6.480   6.506
 2921POPC   C3A39977  19.278   6.437   6.992
 2921POPC   C4A39978  18.984   6.304   7.307
 2921POPC   C1B39979  18.738   7.023   6.212
 2921POPC   C2B39980  18.760   6.760   6.565
 2921POPC   C3B39981  18.804   6.630   6.946
 2921POPC   C4B39982  19.000   6.811   7.266
 2922POPC   NC339983  14.423  14.575   5.189
 2922POPC   PO439984  14.405  14.014   5.385
 2922POPC   GL139985  14.299  14.080   5.810
 2922POPC   GL239986  14.082  14.362   5.774
 2922POPC   C1A39987  14.514  14.231   6.199
 2922POPC   D2A39988  14.649  14.487   6.557
 2922POPC   C3A39989  14.746  14.279   6.925
 2922POPC   C4A39990  14.652  14.252   7.337
 2922POPC   C1B39991  14.163  14.596   6.187
 2922POPC   C2B39992  14.148  14.361   6.599
 2922POPC   C3B39993  14.238  14.451   7.042
 2922POPC   C4B39994  14.065  14.623   7.415
 2923POPC   NC339995  20.629  29.152   5.382
 2923POPC   PO439996  20.949  29.789   5.287
 2923POPC   GL139997  20.911  29.431   5.684
 2923POPC   GL239998  20.571  29.328   5.847
 2923POPC   C1A39999  20.937  29.384   6.170
 2923POPC   D2A40000  20.621  29.334   6.490
 2923POPC   C3A40001  20.652  29.273   6.920
 2923POPC   C4A40002  20.841  28.924   7.084
 2923POPC   C1B40003  20.520  28.972   6.139
 2923POPC   C2B40004  20.533  28.844   6.600
 2923POPC   C3B40005  20.305  28.881   6.996
 2923POPC   C4B40006  19.896  28.991   7.199
 2924POPC   NC340007  41.383  29.243   5.382
 2924POPC   PO440008  41.938  29.556   5.675
 2924POPC   GL140009  41.604  29.273   5.854
 2924POPC   GL240010  41.764  29.120   6.049
 2924POPC   C1A40011  41.280  29.175   6.164
 2924POPC   D2A40012  41.214  29.316   6.572
 2924POPC   C3A40013  41.410  29.050   6.871
 2924POPC   C4A40014  41.608  29.233   7.196
 2924POPC   C1B40015  41.972  29.381   6.333
 2924POPC   C2B40016  41.894  29.333   6.779
 2924POPC   C3B40017  42.039  29.508   7.167
 2924POPC   C4B40018  41.967  29.582   7.628
 2925POPC   NC340019  12.899  20.272   5.616
 2925POPC   PO440020  12.496  20.754   5.485
 2925POPC   GL140021  12.543  20.609   5.871
 2925POPC   GL240022  12.383  20.301   5.795
 2925POPC   C1A40023  12.703  20.742   6.285
 2925POPC   D2A40024  12.628  20.760   6.749
 2925POPC   C3A40025  12.998  20.670   7.073
 2925POPC   C4A40026  13.115  20.564   7.541
 2925POPC   C1B40027  12.584  20.217   6.219
 2925POPC   C2B40028  12.860  20.344   6.580
 2925POPC   C3B40029  12.673  20.295   7.007
 2925POPC   C4B40030  12.802  20.172   7.438
 2926POPC   NC340031   2.244  27.662   5.563
 2926POPC   PO440032   1.886  27.287   5.108
 2926POPC   GL140033   1.786  27.439   5.621
 2926POPC   GL240034   1.877  27.757   5.881
 2926POPC   C1A40035   1.757  27.326   6.127
 2926POPC   D2A40036   1.916  27.270   6.597
 2926POPC   C3A40037   2.184  27.536   6.903
 2926POPC   C4A40038   2.116  27.499   7.368
 2926POPC   C1B40039   1.734  27.944   6.288
 2926POPC   C2B40040   1.642  27.741   6.707
 2926POPC   C3B40041   1.701  27.479   7.067
 2926POPC   C4B40042   1.588  27.647   7.468
 2927POPC   NC340043  29.204  17.007   5.580
 2927POPC   PO440044  29.414  17.625   5.428
 2927POPC   GL140045  29.216  17.540   5.864
 2927POPC   GL240046  28.877  17.340   5.839
 2927POPC   C1A40047  29.131  17.723   6.303
 2927POPC   D2A40048  29.290  17.895   6.715
 2927POPC   C3A40049  29.252  17.655   7.127
 2927POPC   C4A40050  29.240  17.782   7.564
 2927POPC   C1B40051  28.977  17.217   6.275
 2927POPC   C2B40052  29.019  17.391   6.707
 2927POPC   C3B40053  28.896  17.228   7.104
 2927POPC   C4B40054  28.965  17.365   7.498
 2928POPC   NC340055  16.545   0.432   5.356
 2928POPC   PO440056  17.230   0.352   5.352
 2928POPC   GL140057  16.872   0.468   5.723
 2928POPC   GL240058  16.553   0.734   5.770
 2928POPC   C1A40059  16.711   0.385   6.114
 2928POPC   D2A40060  16.920   0.342   6.483
 2928POPC   C3A40061  16.689   0.323   6.806
 2928POPC   C4A40062  16.679   0.317   7.217
 2928POPC   C1B40063  16.713   0.894   6.163
 2928POPC   C2B40064  16.633   0.812   6.595
 2928POPC   C3B40065  16.838   0.776   6.998
 2928POPC   C4B40066  16.581   0.773   7.384
 2929POPC   NC340067   9.391  27.033   5.261
 2929POPC   PO440068   8.902  26.653   5.481
 2929POPC   GL140069   9.124  26.809   5.833
 2929POPC   GL240070   8.851  27.025   5.946
 2929POPC   C1A40071   9.193  26.920   6.286
 2929POPC   D2A40072   8.805  27.081   6.497
 2929POPC   C3A40073   8.904  27.030   6.908
 2929POPC   C4A40074   9.278  26.822   7.016
 2929POPC   C1B40075   8.758  26.638   6.242
 2929POPC   C2B40076   8.840  26.567   6.674
 2929POPC   C3B40077   8.578  26.656   7.010
 2929POPC   C4B40078   8.497  26.480   7.398
 2930POPC   NC340079  23.891   6.869   5.565
 2930POPC   PO440080  23.384   7.345   5.456
 2930POPC   GL140081  23.574   7.533   5.801
 2930POPC   GL240082  23.676   7.218   5.937
 2930POPC   C1A40083  23.942   7.655   6.084
 2930POPC   D2A40084  23.921   7.827   6.496
 2930POPC   C3A40085  23.778   7.597   6.853
 2930POPC   C4A40086  23.703   7.659   7.290
 2930POPC   C1B40087  23.525   7.436   6.320
 2930POPC   C2B40088  23.308   7.362   6.718
 2930POPC   C3B40089  23.513   7.199   7.097
 2930POPC   C4B40090  23.672   7.216   7.527
 2931POPC   NC340091  20.767  30.129   5.543
 2931POPC   PO440092  20.336  29.612   5.465
 2931POPC   GL140093  20.517  29.825   5.840
 2931POPC   GL240094  20.876  29.852   5.934
 2931POPC   C1A40095  20.515  29.756   6.260
 2931POPC   D2A40096  20.258  29.700   6.579
 2931POPC   C3A40097  20.417  29.736   6.971
 2931POPC   C4A40098  20.374  29.911   7.364
 2931POPC   C1B40099  21.014  29.862   6.338
 2931POPC   C2B40100  20.868  29.715   6.728
 2931POPC   C3B40101  20.873  29.810   7.173
 2931POPC   C4B40102  20.805  30.114   7.526
 2932POPC   NC340103   0.608  35.311   5.420
 2932POPC   PO440104  44.985  35.551   5.390
 2932POPC   GL140105   0.284  35.536   5.767
 2932POPC   GL240106   0.625  35.705   5.748
 2932POPC   C1A40107   0.255  35.352   6.197
 2932POPC   D2A40108   0.285  35.020   6.520
 2932POPC   C3A40109   0.388  35.132   6.929
 2932POPC   C4A40110   0.245  35.414   7.199
 2932POPC   C1B40111   0.762  35.428   6.099
 2932POPC   C2B40112   0.688  35.373   6.551
 2932POPC   C3B40113   0.825  35.408   6.985
 2932POPC   C4B40114   0.674  35.228   7.394
 2933POPC   NC340115  40.712   2.562   5.375
 2933POPC   PO440116  40.179   2.395   5.773
 2933POPC   GL140117  40.597   2.633   5.867
 2933POPC   GL240118  40.682   2.980   5.667
 2933POPC   C1A40119  40.982   2.691   6.123
 2933POPC   D2A40120  41.158   2.658   6.552
 2933POPC   C3A40121  40.771   2.718   6.862
 2933POPC   C4A40122  40.382   2.659   7.104
 2933POPC   C1B40123  40.571   3.104   6.068
 2933POPC   C2B40124  40.569   2.957   6.464
 2933POPC   C3B40125  40.427   3.122   6.858
 2933POPC   C4B40126  40.642   3.104   7.218
 2934POPC   NC340127   4.333   4.089   5.461
 2934POPC   PO440128   4.049   4.655   5.631
 2934POPC   GL140129   4.226   4.333   5.884
 2934POPC   GL240130   4.181   3.966   5.937
 2934POPC   C1A40131   4.349   4.364   6.258
 2934POPC   D2A40132   4.297   4.684   6.553
 2934POPC   C3A40133   4.241   4.507   6.975
 2934POPC   C4A40134   4.110   4.519   7.409
 2934POPC   C1B40135   4.489   3.848   6.220
 2934POPC   C2B40136   4.572   3.808   6.666
 2934POPC   C3B40137   4.409   3.960   7.070
 2934POPC   C4B40138   3.977   4.077   7.208
 2935POPC   NC340139  26.325   2.699   5.289
 2935POPC   PO440140  25.777   2.751   5.302
 2935POPC   GL140141  25.957   2.801   5.718
 2935POPC   GL240142  26.262   3.006   5.821
 2935POPC   C1A40143  25.849   2.699   6.147
 2935POPC   D2A40144  26.026   2.644   6.549
 2935POPC   C3A40145  25.800   2.626   6.937
 2935POPC   C4A40146  26.144   2.471   7.170
 2935POPC   C1B40147  26.142   3.096   6.295
 2935POPC   C2B40148  26.074   3.095   6.776
 2935POPC   C3B40149  26.068   2.981   7.213
 2935POPC   C4B40150  25.935   3.175   7.603
 2936POPC   NC340151  39.718  43.489   5.501
 2936POPC   PO440152  40.401  43.744   5.403
 2936POPC   GL140153  40.264  43.590   5.760
 2936POPC   GL240154  40.003  43.817   5.795
 2936POPC   C1A40155  40.131  43.486   6.168
 2936POPC   D2A40156  39.872  43.488   6.514
 2936POPC   C3A40157  40.094  43.613   6.852
 2936POPC   C4A40158  39.749  43.684   7.134
 2936POPC   C1B40159  40.137  44.034   6.161
 2936POPC   C2B40160  39.960  44.036   6.572
 2936POPC   C3B40161  39.996  44.156   7.002
 2936POPC   C4B40162  40.319  44.385   7.201
 2937POPC   NC340163  29.480  29.036   5.400
 2937POPC   PO440164  29.005  29.487   5.478
 2937POPC   GL140165  29.118  29.177   5.771
 2937POPC   GL240166  29.003  28.832   5.698
 2937POPC   C1A40167  28.977  29.274   6.196
 2937POPC   D2A40168  29.084  29.233   6.627
 2937POPC   C3A40169  28.945  29.525   6.923
 2937POPC   C4A40170  29.178  29.257   7.194
 2937POPC   C1B40171  29.095  28.783   6.120
 2937POPC   C2B40172  29.300  28.778   6.483
 2937POPC   C3B40173  29.192  28.814   6.915
 2937POPC   C4B40174  29.536  28.856   7.154
 2938POPC   NC340175  10.843  35.412   5.453
 2938POPC   PO440176  10.251  35.737   5.553
 2938POPC   GL140177  10.451  35.405   5.829
 2938POPC   GL240178  10.170  35.181   5.969
 2938POPC   C1A40179  10.595  35.227   6.255
 2938POPC   D2A40180  10.508  35.220   6.729
 2938POPC   C3A40181  10.737  35.461   7.098
 2938POPC   C4A40182  10.684  35.312   7.566
 2938POPC   C1B40183  10.196  35.568   6.233
 2938POPC   C2B40184  10.372  35.726   6.606
 2938POPC   C3B40185  10.257  35.591   6.989
 2938POPC   C4B40186  10.314  35.231   7.217
 2939POPC   NC340187   5.874  25.114   5.322
 2939POPC   PO440188   6.247  25.657   5.213
 2939POPC   GL140189   6.193  25.424   5.648
 2939POPC   GL240190   6.107  25.068   5.768
 2939POPC   C1A40191   5.973  25.463   6.079
 2939POPC   D2A40192   5.754  25.394   6.481
 2939POPC   C3A40193   5.930  25.381   6.888
 2939POPC   C4A40194   5.798  25.551   7.277
 2939POPC   C1B40195   5.688  25.030   5.973
 2939POPC   C2B40196   5.418  25.046   6.325
 2939POPC   C3B40197   5.459  25.081   6.772
 2939POPC   C4B40198   5.571  25.093   7.187
 2940POPC   NC340199  31.257  34.364   5.588
 2940POPC   PO440200  31.703  34.738   5.354
 2940POPC   GL140201  31.547  34.728   5.784
 2940POPC   GL240202  31.226  34.784   5.988
 2940POPC   C1A40203  31.625  34.519   6.171
 2940POPC   D2A40204  31.437  34.620   6.537
 2940POPC   C3A40205  31.632  34.489   6.898
 2940POPC   C4A40206  31.559  34.487   7.312
 2940POPC   C1B40207  31.077  34.397   6.211
 2940POPC   C2B40208  31.133  34.217   6.615
 2940POPC   C3B40209  31.093  34.550   6.903
 2940POPC   C4B40210  31.074  34.670   7.300
 2941POPC   NC340211  41.813  24.955   5.512
 2941POPC   PO440212  41.485  25.568   5.471
 2941POPC   GL140213  41.569  25.328   5.765
 2941POPC   GL240214  41.309  25.088   5.649
 2941POPC   C1A40215  41.792  25.297   6.144
 2941POPC   D2A40216  41.930  25.311   6.558
 2941POPC   C3A40217  41.724  25.144   6.931
 2941POPC   C4A40218  41.828  25.405   7.288
 2941POPC   C1B40219  41.249  25.131   6.103
 2941POPC   C2B40220  41.242  25.026   6.531
 2941POPC   C3B40221  41.176  25.121   6.925
 2941POPC   C4B40222  41.334  25.212   7.288
 2942POPC   NC340223  39.418  38.575   5.355
 2942POPC   PO440224  38.792  38.656   5.346
 2942POPC   GL140225  39.065  38.402   5.708
 2942POPC   GL240226  39.369  38.562   5.862
 2942POPC   C1A40227  39.244  38.105   6.064
 2942POPC   D2A40228  39.218  37.960   6.500
 2942POPC   C3A40229  39.441  38.047   6.851
 2942POPC   C4A40230  39.271  38.259   7.178
 2942POPC   C1B40231  39.504  38.480   6.294
 2942POPC   C2B40232  39.253  38.485   6.658
 2942POPC   C3B40233  39.169  38.725   7.006
 2942POPC   C4B40234  39.545  38.764   7.110
 2943POPC   NC340235   9.849  13.266   5.399
 2943POPC   PO440236   9.532  12.628   5.418
 2943POPC   GL140237   9.629  12.754   5.824
 2943POPC   GL240238   9.957  12.898   5.764
 2943POPC   C1A40239   9.526  12.676   6.244
 2943POPC   D2A40240   9.533  12.952   6.567
 2943POPC   C3A40241   9.653  12.926   6.984
 2943POPC   C4A40242   9.492  13.013   7.429
 2943POPC   C1B40243  10.002  12.869   6.224
 2943POPC   C2B40244  10.055  13.084   6.618
 2943POPC   C3B40245  10.108  13.165   7.040
 2943POPC   C4B40246  10.112  12.785   7.251
 2944POPC   NC340247   8.465  23.942   5.405
 2944POPC   PO440248   9.070  23.527   5.404
 2944POPC   GL140249   8.759  23.644   5.711
 2944POPC   GL240250   8.867  24.000   5.749
 2944POPC   C1A40251   8.599  23.588   6.129
 2944POPC   D2A40252   8.753  23.707   6.518
 2944POPC   C3A40253   8.770  23.420   6.896
 2944POPC   C4A40254   9.059  23.438   7.239
 2944POPC   C1B40255   9.129  24.040   6.147
 2944POPC   C2B40256   9.010  24.157   6.584
 2944POPC   C3B40257   9.041  23.897   6.918
 2944POPC   C4B40258   9.145  23.951   7.332
 2945POPC   NC340259   5.328  18.246   5.304
 2945POPC   PO440260   5.364  18.882   5.465
 2945POPC   GL140261   5.145  18.534   5.747
 2945POPC   GL240262   5.255  18.230   5.869
 2945POPC   C1A40263   5.065  18.474   6.259
 2945POPC   D2A40264   5.064  18.850   6.578
 2945POPC   C3A40265   5.311  18.785   6.967
 2945POPC   C4A40266   5.156  18.433   7.198
 2945POPC   C1B40267   5.448  17.994   6.195
 2945POPC   C2B40268   5.427  17.760   6.566
 2945POPC   C3B40269   5.256  17.913   6.928
 2945POPC   C4B40270   5.456  18.011   7.280
 2946POPC   NC340271  13.180  30.215   5.405
 2946POPC   PO440272  12.496  29.952   5.518
 2946POPC   GL140273  12.862  30.012   5.742
 2946POPC   GL240274  13.165  29.793   5.723
 2946POPC   C1A40275  12.990  30.235   6.110
 2946POPC   D2A40276  13.039  30.103   6.554
 2946POPC   C3A40277  12.720  30.158   6.883
 2946POPC   C4A40278  12.481  29.820   7.099
 2946POPC   C1B40279  12.999  29.690   6.140
 2946POPC   C2B40280  13.032  29.560   6.573
 2946POPC   C3B40281  13.036  29.761   6.978
 2946POPC   C4B40282  13.324  29.737   7.328
 2947POPC   NC340283  43.941   5.797   5.229
 2947POPC   PO440284  43.590   5.519   5.394
 2947POPC   GL140285  43.817   5.675   5.754
 2947POPC   GL240286  43.852   6.033   5.808
 2947POPC   C1A40287  43.750   5.691   6.229
 2947POPC   D2A40288  43.713   5.958   6.618
 2947POPC   C3A40289  43.735   5.794   7.058
 2947POPC   C4A40290  43.664   5.898   7.514
 2947POPC   C1B40291  44.079   6.082   6.222
 2947POPC   C2B40292  44.223   6.055   6.672
 2947POPC   C3B40293  44.208   6.017   7.140
 2947POPC   C4B40294  44.410   6.036   7.565
 2948POPC   NC340295  11.249  17.173   5.470
 2948POPC   PO440296  11.645  17.700   5.387
 2948POPC   GL140297  11.524  17.524   5.822
 2948POPC   GL240298  11.393  17.232   5.941
 2948POPC   C1A40299  11.555  17.544   6.303
 2948POPC   D2A40300  11.267  17.516   6.671
 2948POPC   C3A40301  11.492  17.532   7.069
 2948POPC   C4A40302  11.759  17.866   7.253
 2948POPC   C1B40303  11.079  17.179   6.248
 2948POPC   C2B40304  11.001  17.050   6.666
 2948POPC   C3B40305  11.057  17.222   7.062
 2948POPC   C4B40306  10.991  17.628   7.227
 2949POPC   NC340307   0.234  42.814   5.167
 2949POPC   PO440308   0.546  43.461   5.393
 2949POPC   GL140309   0.383  43.370   5.830
 2949POPC   GL240310   0.223  43.090   5.870
 2949POPC   C1A40311   0.525  43.198   6.262
 2949POPC   D2A40312   0.567  43.374   6.676
 2949POPC   C3A40313   0.673  43.112   7.008
 2949POPC   C4A40314   0.615  43.364   7.348
 2949POPC   C1B40315   0.034  43.310   6.199
 2949POPC   C2B40316   0.066  43.236   6.628
 2949POPC   C3B40317   0.163  43.247   7.048
 2949POPC   C4B40318  44.927  42.962   7.266
 2950POPC   NC340319  15.291   8.623   5.550
 2950POPC   PO440320  14.904   8.083   5.179
 2950POPC   GL140321  15.140   8.102   5.583
 2950POPC   GL240322  15.503   8.046   5.681
 2950POPC   C1A40323  15.146   8.149   6.035
 2950POPC   D2A40324  15.132   8.148   6.476
 2950POPC   C3A40325  15.126   8.245   6.913
 2950POPC   C4A40326  14.954   8.231   7.340
 2950POPC   C1B40327  15.619   7.891   6.136
 2950POPC   C2B40328  15.593   7.966   6.595
 2950POPC   C3B40329  15.605   7.985   7.039
 2950POPC   C4B40330  15.459   8.334   7.286
 2951POPC   NC340331   3.706  26.143   5.460
 2951POPC   PO440332   3.335  25.545   5.359
 2951POPC   GL140333   3.424  25.800   5.738
 2951POPC   GL240334   3.789  25.699   5.741
 2951POPC   C1A40335   3.510  26.026   6.172
 2951POPC   D2A40336   3.424  26.421   6.441
 2951POPC   C3A40337   3.241  26.415   6.878
 2951POPC   C4A40338   3.256  26.174   7.256
 2951POPC   C1B40339   3.952  25.563   6.154
 2951POPC   C2B40340   3.760  25.729   6.549
 2951POPC   C3B40341   3.594  25.992   6.904
 2951POPC   C4B40342   3.731  26.031   7.353
 2952POPC   NC340343  18.493  42.137   5.424
 2952POPC   PO440344  17.860  42.453   5.425
 2952POPC   GL140345  18.174  42.526   5.754
 2952POPC   GL240346  18.468  42.316   5.901
 2952POPC   C1A40347  18.170  42.622   6.181
 2952POPC   D2A40348  18.320  42.402   6.531
 2952POPC   C3A40349  18.120  42.514   6.888
 2952POPC   C4A40350  18.283  42.487   7.265
 2952POPC   C1B40351  18.627  42.065   6.258
 2952POPC   C2B40352  18.662  42.062   6.723
 2952POPC   C3B40353  18.390  42.041   7.071
 2952POPC   C4B40354  18.498  42.033   7.532
 2953POPC   NC340355  34.018   2.443   5.387
 2953POPC   PO440356  33.429   2.745   5.151
 2953POPC   GL140357  33.465   2.653   5.634
 2953POPC   GL240358  33.700   2.452   5.769
 2953POPC   C1A40359  33.389   2.643   6.110
 2953POPC   D2A40360  33.696   2.675   6.486
 2953POPC   C3A40361  33.508   2.742   6.915
 2953POPC   C4A40362  33.634   2.931   7.343
 2953POPC   C1B40363  34.038   2.501   6.071
 2953POPC   C2B40364  34.232   2.721   6.401
 2953POPC   C3B40365  34.129   2.802   6.806
 2953POPC   C4B40366  33.954   2.565   7.104
 2954POPC   NC340367   1.753  31.189   5.160
 2954POPC   PO440368   2.243  31.601   5.191
 2954POPC   GL140369   1.990  31.508   5.591
 2954POPC   GL240370   1.764  31.781   5.715
 2954POPC   C1A40371   1.945  31.460   6.063
 2954POPC   D2A40372   1.952  31.284   6.479
 2954POPC   C3A40373   2.065  31.435   6.892
 2954POPC   C4A40374   1.725  31.482   7.161
 2954POPC   C1B40375   1.808  31.940   6.110
 2954POPC   C2B40376   1.946  31.812   6.487
 2954POPC   C3B40377   1.802  31.925   6.877
 2954POPC   C4B40378   2.034  31.883   7.215
 2955POPC   NC340379   4.959  20.005   5.329
 2955POPC   PO440380   4.294  19.910   5.460
 2955POPC   GL140381   4.313  19.647   5.802
 2955POPC   GL240382   4.500  19.932   5.952
 2955POPC   C1A40383   4.334  19.528   6.234
 2955POPC   D2A40384   4.484  19.760   6.546
 2955POPC   C3A40385   4.379  19.630   6.919
 2955POPC   C4A40386   4.503  19.834   7.261
 2955POPC   C1B40387   4.086  19.965   6.145
 2955POPC   C2B40388   4.042  20.070   6.543
 2955POPC   C3B40389   4.228  20.119   6.879
 2955POPC   C4B40390   4.054  20.104   7.203
 2956POPC   NC340391  43.248   2.695   5.165
 2956POPC   PO440392  42.768   3.061   5.454
 2956POPC   GL140393  43.060   3.028   5.839
 2956POPC   GL240394  43.222   2.705   5.863
 2956POPC   C1A40395  43.089   2.907   6.311
 2956POPC   D2A40396  42.813   2.698   6.610
 2956POPC   C3A40397  42.843   2.910   7.001
 2956POPC   C4A40398  43.223   2.913   7.265
 2956POPC   C1B40399  42.993   2.426   6.170
 2956POPC   C2B40400  43.149   2.299   6.573
 2956POPC   C3B40401  43.184   2.449   6.976
 2956POPC   C4B40402  42.921   2.499   7.320
 2957POPC   NC340403  20.467  36.540   5.594
 2957POPC   PO440404  21.065  36.620   5.216
 2957POPC   GL140405  20.808  36.889   5.694
 2957POPC   GL240406  20.763  36.683   6.018
 2957POPC   C1A40407  20.815  37.149   6.145
 2957POPC   D2A40408  20.595  37.079   6.565
 2957POPC   C3A40409  20.751  37.055   7.000
 2957POPC   C4A40410  20.672  36.858   7.431
 2957POPC   C1B40411  20.341  36.784   6.228
 2957POPC   C2B40412  20.152  36.815   6.661
 2957POPC   C3B40413  20.338  36.733   7.071
 2957POPC   C4B40414  20.244  36.636   7.561
 2958POPC   NC340415  25.306   5.788   5.461
 2958POPC   PO440416  25.103   6.443   5.382
 2958POPC   GL140417  25.281   6.210   5.775
 2958POPC   GL240418  25.636   6.189   5.760
 2958POPC   C1A40419  25.179   5.869   6.132
 2958POPC   D2A40420  25.234   5.599   6.517
 2958POPC   C3A40421  25.147   5.805   6.939
 2958POPC   C4A40422  25.104   6.199   7.210
 2958POPC   C1B40423  25.646   6.058   6.185
 2958POPC   C2B40424  25.477   6.040   6.570
 2958POPC   C3B40425  25.555   6.098   6.986
 2958POPC   C4B40426  25.465   5.849   7.353
 2959POPC   NC340427   3.510   6.831   5.340
 2959POPC   PO440428   3.139   6.300   5.300
 2959POPC   GL140429   3.446   6.475   5.697
 2959POPC   GL240430   3.292   6.806   5.813
 2959POPC   C1A40431   3.701   6.714   6.094
 2959POPC   D2A40432   3.841   6.922   6.518
 2959POPC   C3A40433   3.712   6.662   6.892
 2959POPC   C4A40434   3.465   6.381   7.187
 2959POPC   C1B40435   3.201   6.990   6.227
 2959POPC   C2B40436   3.354   7.004   6.653
 2959POPC   C3B40437   3.326   6.925   7.097
 2959POPC   C4B40438   3.095   6.878   7.468
 2960POPC   NC340439  31.766  42.693   5.379
 2960POPC   PO440440  32.397  42.401   5.361
 2960POPC   GL140441  32.372  42.502   5.775
 2960POPC   GL240442  32.043  42.527   5.759
 2960POPC   C1A40443  32.322  42.293   6.198
 2960POPC   D2A40444  32.478  42.420   6.613
 2960POPC   C3A40445  32.211  42.303   6.919
 2960POPC   C4A40446  32.210  41.863   6.894
 2960POPC   C1B40447  32.048  42.725   6.132
 2960POPC   C2B40448  32.030  42.653   6.518
 2960POPC   C3B40449  31.958  42.832   6.849
 2960POPC   C4B40450  31.956  42.679   7.204
 2961POPC   NC340451   5.287  26.296   5.372
 2961POPC   PO440452   4.858  25.739   5.139
 2961POPC   GL140453   4.991  25.871   5.626
 2961POPC   GL240454   4.919  26.204   5.736
 2961POPC   C1A40455   4.953  25.863   6.133
 2961POPC   D2A40456   5.159  25.971   6.545
 2961POPC   C3A40457   4.961  25.878   6.949
 2961POPC   C4A40458   5.085  25.944   7.374
 2961POPC   C1B40459   5.261  26.247   6.078
 2961POPC   C2B40460   5.423  26.408   6.502
 2961POPC   C3B40461   5.308  26.293   6.946
 2961POPC   C4B40462   4.908  26.366   7.154
 2962POPC   NC340463  15.787  41.983   5.124
 2962POPC   PO440464  16.076  42.382   5.508
 2962POPC   GL140465  15.974  42.279   5.888
 2962POPC   GL240466  16.213  42.073   6.008
 2962POPC   C1A40467  15.762  42.466   6.209
 2962POPC   D2A40468  15.680  42.321   6.641
 2962POPC   C3A40469  15.867  42.528   7.014
 2962POPC   C4A40470  15.811  42.456   7.476
 2962POPC   C1B40471  16.045  42.077   6.378
 2962POPC   C2B40472  16.145  42.131   6.781
 2962POPC   C3B40473  16.065  42.097   7.208
 2962POPC   C4B40474  16.251  41.882   7.538
 2963POPC   NC340475  23.234  11.143   5.259
 2963POPC   PO440476  22.593  11.482   5.467
 2963POPC   GL140477  22.754  11.311   5.808
 2963POPC   GL240478  23.040  11.138   5.736
 2963POPC   C1A40479  22.901  11.464   6.206
 2963POPC   D2A40480  22.654  11.403   6.575
 2963POPC   C3A40481  22.847  11.450   6.966
 2963POPC   C4A40482  23.204  11.468   7.220
 2963POPC   C1B40483  22.989  10.967   6.139
 2963POPC   C2B40484  23.110  11.119   6.559
 2963POPC   C3B40485  23.119  11.006   6.999
 2963POPC   C4B40486  23.367  10.713   7.208
 2964POPC   NC340487  25.289  21.829   5.448
 2964POPC   PO440488  25.484  21.158   5.478
 2964POPC   GL140489  25.200  21.344   5.770
 2964POPC   GL240490  25.372  21.584   5.911
 2964POPC   C1A40491  24.945  21.291   6.164
 2964POPC   D2A40492  24.901  21.187   6.620
 2964POPC   C3A40493  25.167  21.428   6.949
 2964POPC   C4A40494  25.110  21.689   7.364
 2964POPC   C1B40495  25.479  21.226   6.202
 2964POPC   C2B40496  25.659  21.229   6.615
 2964POPC   C3B40497  25.567  21.097   7.017
 2964POPC   C4B40498  25.486  21.360   7.369
 2965POPC   NC340499  40.008  37.252   5.421
 2965POPC   PO440500  40.171  36.757   4.934
 2965POPC   GL140501  40.039  36.741   5.477
 2965POPC   GL240502  39.720  36.894   5.688
 2965POPC   C1A40503  40.061  36.717   5.996
 2965POPC   D2A40504  39.866  36.763   6.429
 2965POPC   C3A40505  40.130  36.809   6.814
 2965POPC   C4A40506  40.044  36.704   7.232
 2965POPC   C1B40507  39.806  37.178   6.104
 2965POPC   C2B40508  40.006  37.250   6.554
 2965POPC   C3B40509  39.915  37.222   7.021
 2965POPC   C4B40510  40.179  37.136   7.420
 2966POPC   NC340511  44.016  37.250   5.210
 2966POPC   PO440512  43.722  37.861   5.321
 2966POPC   GL140513  43.737  37.558   5.703
 2966POPC   GL240514  43.509  37.773   5.905
 2966POPC   C1A40515  43.884  37.467   6.165
 2966POPC   D2A40516  44.128  37.717   6.487
 2966POPC   C3A40517  44.111  37.813   6.938
 2966POPC   C4A40518  43.922  37.512   7.208
 2966POPC   C1B40519  43.631  37.873   6.352
 2966POPC   C2B40520  43.632  37.697   6.799
 2966POPC   C3B40521  43.643  37.939   7.209
 2966POPC   C4B40522  43.709  38.112   7.646
 2967POPC   NC340523  39.538  25.954   5.489
 2967POPC   PO440524  38.856  26.251   5.501
 2967POPC   GL140525  39.172  26.180   5.788
 2967POPC   GL240526  39.171  25.825   5.861
 2967POPC   C1A40527  39.184  26.163   6.222
 2967POPC   D2A40528  39.050  26.334   6.536
 2967POPC   C3A40529  39.125  26.134   6.907
 2967POPC   C4A40530  39.167  26.333   7.312
 2967POPC   C1B40531  39.528  25.785   6.161
 2967POPC   C2B40532  39.539  25.922   6.606
 2967POPC   C3B40533  39.440  25.697   6.997
 2967POPC   C4B40534  39.168  25.822   7.332
 2968POPC   NC340535  22.371  33.182   5.585
 2968POPC   PO440536  21.925  32.726   5.406
 2968POPC   GL140537  21.953  32.964   5.799
 2968POPC   GL240538  21.681  33.161   5.887
 2968POPC   C1A40539  22.147  32.912   6.224
 2968POPC   D2A40540  22.394  32.789   6.605
 2968POPC   C3A40541  22.397  32.984   7.023
 2968POPC   C4A40542  22.246  33.004   7.453
 2968POPC   C1B40543  21.958  33.387   6.164
 2968POPC   C2B40544  22.200  33.362   6.530
 2968POPC   C3B40545  22.004  33.312   6.897
 2968POPC   C4B40546  21.805  33.160   7.241
 2969POPC   NC340547  24.741  43.756   5.585
 2969POPC   PO440548  24.089  43.725   5.564
 2969POPC   GL140549  24.327  43.779   5.894
 2969POPC   GL240550  24.283  44.116   5.852
 2969POPC   C1A40551  24.554  43.723   6.266
 2969POPC   D2A40552  24.535  43.880   6.670
 2969POPC   C3A40553  24.393  43.596   6.993
 2969POPC   C4A40554  24.676  43.368   7.250
 2969POPC   C1B40555  24.509  44.277   6.196
 2969POPC   C2B40556  24.364  44.361   6.611
 2969POPC   C3B40557  24.354  44.194   7.037
 2969POPC   C4B40558  24.234  44.084   7.496
 2970POPC   NC340559  24.730   8.941   5.607
 2970POPC   PO440560  24.133   8.657   5.504
 2970POPC   GL140561  24.326   8.759   5.896
 2970POPC   GL240562  24.427   9.121   5.986
 2970POPC   C1A40563  24.411   8.677   6.312
 2970POPC   D2A40564  24.509   8.908   6.683
 2970POPC   C3A40565  24.320   8.840   7.088
 2970POPC   C4A40566  24.189   9.134   7.403
 2970POPC   C1B40567  24.800   9.056   6.262
 2970POPC   C2B40568  25.010   9.050   6.661
 2970POPC   C3B40569  24.863   8.960   7.057
 2970POPC   C4B40570  24.993   9.241   7.336
 2971POPC   NC340571  28.218  32.131   5.286
 2971POPC   PO440572  28.836  31.957   5.497
 2971POPC   GL140573  28.468  32.139   5.740
 2971POPC   GL240574  28.107  32.296   5.747
 2971POPC   C1A40575  28.469  32.392   6.102
 2971POPC   D2A40576  28.592  32.297   6.506
 2971POPC   C3A40577  28.404  32.422   6.869
 2971POPC   C4A40578  28.467  32.285   7.273
 2971POPC   C1B40579  27.983  32.256   6.178
 2971POPC   C2B40580  28.092  32.089   6.574
 2971POPC   C3B40581  28.104  32.035   7.018
 2971POPC   C4B40582  28.064  32.066   7.488
 2972POPC   NC340583  14.462   8.129   5.297
 2972POPC   PO440584  14.835   8.592   5.473
 2972POPC   GL140585  14.702   8.307   5.795
 2972POPC   GL240586  14.350   8.185   5.802
 2972POPC   C1A40587  14.687   8.267   6.256
 2972POPC   D2A40588  14.657   8.056   6.660
 2972POPC   C3A40589  14.592   8.305   6.998
 2972POPC   C4A40590  14.506   8.483   7.392
 2972POPC   C1B40591  14.184   8.187   6.249
 2972POPC   C2B40592  14.185   8.329   6.696
 2972POPC   C3B40593  14.093   8.288   7.159
 2972POPC   C4B40594  14.105   8.283   7.626
 2973POPC   NC340595  35.851  33.108   5.604
 2973POPC   PO440596  36.339  33.517   5.525
 2973POPC   GL140597  36.279  33.296   5.857
 2973POPC   GL240598  36.354  32.969   5.669
 2973POPC   C1A40599  36.069  33.303   6.267
 2973POPC   D2A40600  36.183  33.408   6.707
 2973POPC   C3A40601  36.009  33.171   7.054
 2973POPC   C4A40602  35.952  32.900   7.427
 2973POPC   C1B40603  36.464  32.899   6.093
 2973POPC   C2B40604  36.360  32.967   6.517
 2973POPC   C3B40605  36.525  33.047   6.920
 2973POPC   C4B40606  36.436  32.913   7.333
 2974POPC   NC340607  41.060  24.720   5.331
 2974POPC   PO440608  40.689  24.239   5.551
 2974POPC   GL140609  40.763  24.312   5.936
 2974POPC   GL240610  40.616  24.634   5.941
 2974POPC   C1A40611  40.806  24.374   6.367
 2974POPC   D2A40612  40.560  24.525   6.677
 2974POPC   C3A40613  40.688  24.297   7.033
 2974POPC   C4A40614  41.063  24.300   7.249
 2974POPC   C1B40615  40.815  24.870   6.250
 2974POPC   C2B40616  40.753  25.001   6.664
 2974POPC   C3B40617  40.780  24.809   7.069
 2974POPC   C4B40618  40.474  24.632   7.339
 2975POPC   NC340619   9.505  20.480   5.321
 2975POPC   PO440620   9.980  20.889   5.501
 2975POPC   GL140621   9.889  20.614   5.794
 2975POPC   GL240622   9.536  20.595   5.809
 2975POPC   C1A40623   9.867  20.742   6.202
 2975POPC   D2A40624   9.712  20.509   6.520
 2975POPC   C3A40625   9.968  20.469   6.878
 2975POPC   C4A40626   9.958  20.605   7.304
 2975POPC   C1B40627   9.349  20.707   6.162
 2975POPC   C2B40628   9.310  20.882   6.539
 2975POPC   C3B40629   9.496  20.732   6.918
 2975POPC   C4B40630   9.428  20.464   7.268
 2976POPC   NC340631  30.003   8.018   5.508
 2976POPC   PO440632  30.065   8.678   5.485
 2976POPC   GL140633  29.959   8.409   5.868
 2976POPC   GL240634  29.729   8.090   5.932
 2976POPC   C1A40635  30.076   8.206   6.283
 2976POPC   D2A40636  30.058   7.986   6.699
 2976POPC   C3A40637  30.090   8.299   7.050
 2976POPC   C4A40638  30.076   8.344   7.503
 2976POPC   C1B40639  29.565   8.385   6.207
 2976POPC   C2B40640  29.662   8.311   6.617
 2976POPC   C3B40641  29.610   8.142   6.990
 2976POPC   C4B40642  29.639   8.462   7.288
 2977POPC   NC340643   9.771  42.806   5.369
 2977POPC   PO440644  10.211  43.377   5.483
 2977POPC   GL140645   9.932  43.072   5.787
 2977POPC   GL240646   9.552  43.165   5.901
 2977POPC   C1A40647   9.836  42.849   6.184
 2977POPC   D2A40648   9.617  42.773   6.581
 2977POPC   C3A40649   9.735  43.073   6.911
 2977POPC   C4A40650   9.662  43.008   7.353
 2977POPC   C1B40651   9.391  43.417   6.267
 2977POPC   C2B40652   9.468  43.535   6.712
 2977POPC   C3B40653   9.329  43.353   7.102
 2977POPC   C4B40654   9.393  43.431   7.539
 2978POPC   NC340655  19.095  41.981   5.123
 2978POPC   PO440656  18.824  42.458   5.342
 2978POPC   GL140657  18.962  42.330   5.738
 2978POPC   GL240658  18.945  41.973   5.802
 2978POPC   C1A40659  18.976  42.433   6.171
 2978POPC   D2A40660  18.807  42.564   6.570
 2978POPC   C3A40661  18.928  42.453   7.002
 2978POPC   C4A40662  19.212  42.601   7.331
 2978POPC   C1B40663  19.244  41.981   6.168
 2978POPC   C2B40664  19.405  41.915   6.590
 2978POPC   C3B40665  19.275  42.029   7.018
 2978POPC   C4B40666  18.882  42.001   7.222
 2979POPC   NC340667  43.006  18.514   5.352
 2979POPC   PO440668  43.239  18.009   5.082
 2979POPC   GL140669  43.148  18.144   5.657
 2979POPC   GL240670  42.963  18.470   5.868
 2979POPC   C1A40671  43.094  18.107   6.179
 2979POPC   D2A40672  43.016  18.319   6.629
 2979POPC   C3A40673  43.048  18.111   7.074
 2979POPC   C4A40674  43.012  18.084   7.544
 2979POPC   C1B40675  42.658  18.635   6.217
 2979POPC   C2B40676  42.530  18.602   6.648
 2979POPC   C3B40677  42.757  18.533   7.062
 2979POPC   C4B40678  42.973  18.599   7.489
 2980POPC   NC340679  30.425  12.524   5.489
 2980POPC   PO440680  30.715  13.095   5.228
 2980POPC   GL140681  30.815  13.005   5.705
 2980POPC   GL240682  30.712  12.662   5.862
 2980POPC   C1A40683  30.684  13.046   6.181
 2980POPC   D2A40684  30.781  12.837   6.570
 2980POPC   C3A40685  30.671  13.038   6.959
 2980POPC   C4A40686  30.589  13.137   7.401
 2980POPC   C1B40687  30.752  12.356   6.194
 2980POPC   C2B40688  30.577  12.324   6.578
 2980POPC   C3B40689  30.408  12.435   6.954
 2980POPC   C4B40690  30.650  12.622   7.273
 2981POPC   NC340691  14.742   0.878   5.406
 2981POPC   PO440692  14.072   1.067   5.434
 2981POPC   GL140693  14.302   1.237   5.805
 2981POPC   GL240694  14.678   1.166   5.812
 2981POPC   C1A40695  14.449   1.285   6.248
 2981POPC   D2A40696  14.191   1.233   6.614
 2981POPC   C3A40697  14.327   1.520   6.910
 2981POPC   C4A40698  14.437   1.630   7.273
 2981POPC   C1B40699  14.511   0.814   6.058
 2981POPC   C2B40700  14.573   0.833   6.509
 2981POPC   C3B40701  14.666   1.150   6.815
 2981POPC   C4B40702  14.554   1.132   7.277
 2982POPC   NC340703  19.104  27.891   5.345
 2982POPC   PO440704  19.473  27.390   5.358
 2982POPC   GL140705  19.173  27.429   5.729
 2982POPC   GL240706  19.060  27.744   5.827
 2982POPC   C1A40707  19.007  27.354   6.166
 2982POPC   D2A40708  19.158  27.316   6.587
 2982POPC   C3A40709  19.045  27.494   6.986
 2982POPC   C4A40710  18.914  27.309   7.380
 2982POPC   C1B40711  18.860  27.859   6.199
 2982POPC   C2B40712  19.056  27.866   6.602
 2982POPC   C3B40713  19.005  28.020   7.000
 2982POPC   C4B40714  18.701  27.825   7.210
 2983POPC   NC340715  28.750  31.532   5.685
 2983POPC   PO440716  28.153  31.644   5.361
 2983POPC   GL140717  28.246  31.601   5.806
 2983POPC   GL240718  28.062  31.824   5.948
 2983POPC   C1A40719  28.369  31.396   6.255
 2983POPC   D2A40720  28.634  31.172   6.570
 2983POPC   C3A40721  28.563  31.335   6.984
 2983POPC   C4A40722  28.562  31.216   7.430
 2983POPC   C1B40723  28.417  31.900   6.187
 2983POPC   C2B40724  28.589  31.786   6.544
 2983POPC   C3B40725  28.629  31.941   6.926
 2983POPC   C4B40726  28.434  31.745   7.289
 2984POPC   NC340727   0.434  36.562   5.284
 2984POPC   PO440728   0.826  37.049   5.368
 2984POPC   GL140729   0.460  37.053   5.678
 2984POPC   GL240730   0.248  37.390   5.692
 2984POPC   C1A40731   0.330  36.838   6.079
 2984POPC   D2A40732   0.152  36.710   6.495
 2984POPC   C3A40733   0.418  36.816   6.843
 2984POPC   C4A40734   0.833  36.652   6.965
 2984POPC   C1B40735   0.442  37.346   6.101
 2984POPC   C2B40736   0.332  37.206   6.488
 2984POPC   C3B40737   0.386  37.332   6.903
 2984POPC   C4B40738   0.516  37.140   7.248
 2985POPC   NC340739  43.553  29.606   5.390
 2985POPC   PO440740  44.187  29.745   5.462
 2985POPC   GL140741  44.072  29.873   5.849
 2985POPC   GL240742  43.710  29.830   5.851
 2985POPC   C1A40743  44.124  30.111   6.237
 2985POPC   D2A40744  43.935  30.128   6.640
 2985POPC   C3A40745  44.079  30.173   7.062
 2985POPC   C4A40746  43.756  29.968   7.323
 2985POPC   C1B40747  43.859  29.597   6.220
 2985POPC   C2B40748  43.972  29.617   6.663
 2985POPC   C3B40749  43.907  29.535   7.095
 2985POPC   C4B40750  43.690  29.490   7.487
 2986POPC   NC340751  41.969  38.911   5.396
 2986POPC   PO440752  41.775  38.208   5.385
 2986POPC   GL140753  41.678  38.125   5.801
 2986POPC   GL240754  41.686  38.499   5.863
 2986POPC   C1A40755  41.522  38.177   6.227
 2986POPC   D2A40756  41.330  38.477   6.485
 2986POPC   C3A40757  41.370  38.360   6.877
 2986POPC   C4A40758  41.552  38.176   7.221
 2986POPC   C1B40759  41.534  38.814   6.126
 2986POPC   C2B40760  41.589  38.960   6.545
 2986POPC   C3B40761  41.657  38.787   6.935
 2986POPC   C4B40762  41.406  38.669   7.296
 2987POPC   NC340763  31.503  13.864   5.340
 2987POPC   PO440764  31.695  13.221   5.381
 2987POPC   GL140765  31.428  13.472   5.716
 2987POPC   GL240766  31.528  13.863   5.832
 2987POPC   C1A40767  31.124  13.303   6.068
 2987POPC   D2A40768  30.938  13.334   6.535
 2987POPC   C3A40769  31.190  13.188   6.900
 2987POPC   C4A40770  31.432  13.400   7.240
 2987POPC   C1B40771  31.331  13.750   6.198
 2987POPC   C2B40772  31.329  13.656   6.647
 2987POPC   C3B40773  31.302  13.862   7.050
 2987POPC   C4B40774  31.619  13.869   7.342
 2988POPC   NC340775   0.176  43.729   5.500
 2988POPC   PO440776   0.717  44.159   5.668
 2988POPC   GL140777   0.550  43.839   5.853
 2988POPC   GL240778   0.205  43.964   5.950
 2988POPC   C1A40779   0.530  43.716   6.269
 2988POPC   D2A40780   0.449  44.078   6.500
 2988POPC   C3A40781   0.577  44.084   6.905
 2988POPC   C4A40782   0.795  43.788   7.142
 2988POPC   C1B40783   0.038  43.826   6.347
 2988POPC   C2B40784   0.184  43.722   6.768
 2988POPC   C3B40785   0.298  43.742   7.200
 2988POPC   C4B40786   0.166  43.937   7.567
 2989POPC   NC340787  13.674  18.832   5.275
 2989POPC   PO440788  13.495  19.436   5.236
 2989POPC   GL140789  13.792  19.231   5.606
 2989POPC   GL240790  13.634  18.938   5.777
 2989POPC   C1A40791  13.892  19.228   6.110
 2989POPC   D2A40792  13.612  19.076   6.480
 2989POPC   C3A40793  13.707  19.161   6.913
 2989POPC   C4A40794  13.429  19.012   7.267
 2989POPC   C1B40795  13.781  18.721   6.152
 2989POPC   C2B40796  13.690  18.525   6.507
 2989POPC   C3B40797  13.571  18.674   6.883
 2989POPC   C4B40798  13.832  18.703   7.231
 2990POPC   NC340799  11.372   4.640   5.619
 2990POPC   PO440800  11.156   4.103   5.411
 2990POPC   GL140801  11.231   3.997   5.846
 2990POPC   GL240802  11.473   4.236   5.902
 2990POPC   C1A40803  11.329   4.064   6.338
 2990POPC   D2A40804  11.308   4.388   6.644
 2990POPC   C3A40805  11.253   4.219   7.032
 2990POPC   C4A40806  11.442   4.229   7.445
 2990POPC   C1B40807  11.652   4.517   6.259
 2990POPC   C2B40808  11.798   4.537   6.723
 2990POPC   C3B40809  11.547   4.630   7.139
 2990POPC   C4B40810  11.375   4.700   7.606
 2991POPC   NC340811  36.354   0.027   5.184
 2991POPC   PO440812  36.117   0.548   5.583
 2991POPC   GL140813  35.868   0.453   5.915
 2991POPC   GL240814  36.203   0.365   6.060
 2991POPC   C1A40815  35.826   0.524   6.341
 2991POPC   D2A40816  36.012   0.329   6.667
 2991POPC   C3A40817  35.759   0.424   7.011
 2991POPC   C4A40818  35.809   0.790   7.263
 2991POPC   C1B40819  36.459   0.144   6.327
 2991POPC   C2B40820  36.478   0.070   6.744
 2991POPC   C3B40821  36.171   0.041   7.058
 2991POPC   C4B40822  36.145   0.385   7.353
 2992POPC   NC340823  11.080  40.826   5.373
 2992POPC   PO440824  11.610  41.289   5.340
 2992POPC   GL140825  11.473  40.945   5.666
 2992POPC   GL240826  11.121  40.980   5.860
 2992POPC   C1A40827  11.472  40.684   6.055
 2992POPC   D2A40828  11.311  40.822   6.502
 2992POPC   C3A40829  11.209  40.656   6.938
 2992POPC   C4A40830  11.226  40.671   7.401
 2992POPC   C1B40831  10.884  40.967   6.262
 2992POPC   C2B40832  10.965  41.146   6.703
 2992POPC   C3B40833  11.056  41.113   7.181
 2992POPC   C4B40834  10.864  41.019   7.613
 2993POPC   NC340835  26.730  16.176   5.372
 2993POPC   PO440836  27.254  15.800   5.403
 2993POPC   GL140837  26.933  15.810   5.748
 2993POPC   GL240838  26.617  16.034   5.833
 2993POPC   C1A40839  26.965  15.934   6.201
 2993POPC   D2A40840  27.102  15.943   6.630
 2993POPC   C3A40841  27.017  15.805   7.032
 2993POPC   C4A40842  27.019  16.179   7.273
 2993POPC   C1B40843  26.434  15.825   6.173
 2993POPC   C2B40844  26.609  15.793   6.580
 2993POPC   C3B40845  26.641  16.121   6.883
 2993POPC   C4B40846  26.301  16.300   7.118
 2994POPC   NC340847  13.203  11.279   5.504
 2994POPC   PO440848  12.612  11.293   5.497
 2994POPC   GL140849  12.844  11.238   5.869
 2994POPC   GL240850  12.927  11.556   5.860
 2994POPC   C1A40851  12.930  11.312   6.321
 2994POPC   D2A40852  12.937  11.458   6.749
 2994POPC   C3A40853  12.935  11.096   7.056
 2994POPC   C4A40854  12.786  10.765   7.363
 2994POPC   C1B40855  13.112  11.770   6.211
 2994POPC   C2B40856  13.379  11.684   6.556
 2994POPC   C3B40857  13.326  11.715   6.982
 2994POPC   C4B40858  12.970  11.593   7.244
 2995POPC   NC340859  19.196  44.123   5.257
 2995POPC   PO440860  19.055  43.480   5.454
 2995POPC   GL140861  18.942  43.834   5.798
 2995POPC   GL240862  18.907  44.209   5.698
 2995POPC   C1A40863  18.869  43.882   6.275
 2995POPC   D2A40864  18.911  43.656   6.671
 2995POPC   C3A40865  18.964  43.891   7.020
 2995POPC   C4A40866  18.892  43.875   7.452
 2995POPC   C1B40867  19.064  44.323   6.124
 2995POPC   C2B40868  18.976  44.356   6.580
 2995POPC   C3B40869  19.193  44.339   6.989
 2995POPC   C4B40870  19.186  44.275   7.439
 2996POPC   NC340871  41.875  35.333   5.249
 2996POPC   PO440872  41.268  35.290   5.370
 2996POPC   GL140873  41.434  35.274   5.789
 2996POPC   GL240874  41.774  35.231   5.773
 2996POPC   C1A40875  41.462  35.154   6.215
 2996POPC   D2A40876  41.238  35.218   6.558
 2996POPC   C3A40877  41.414  35.103   6.938
 2996POPC   C4A40878  41.551  35.317   7.269
 2996POPC   C1B40879  41.897  35.424   6.178
 2996POPC   C2B40880  41.591  35.598   6.479
 2996POPC   C3B40881  41.569  35.685   6.896
 2996POPC   C4B40882  41.795  35.736   7.310
 2997POPC   NC340883  38.375  34.828   5.475
 2997POPC   PO440884  38.505  34.161   5.447
 2997POPC   GL140885  38.678  34.439   5.770
 2997POPC   GL240886  38.773  34.799   5.808
 2997POPC   C1A40887  38.712  34.403   6.204
 2997POPC   D2A40888  38.461  34.537   6.555
 2997POPC   C3A40889  38.660  34.503   6.951
 2997POPC   C4A40890  38.444  34.523   7.318
 2997POPC   C1B40891  38.442  34.837   6.125
 2997POPC   C2B40892  38.398  35.070   6.494
 2997POPC   C3B40893  38.377  34.928   6.902
 2997POPC   C4B40894  38.326  35.018   7.306
 2998POPC   NC340895  22.353   6.519   5.327
 2998POPC   PO440896  22.200   5.965   5.590
 2998POPC   GL140897  22.056   5.777   5.979
 2998POPC   GL240898  22.235   5.976   6.152
 2998POPC   C1A40899  21.865   5.548   6.339
 2998POPC   D2A40900  21.707   5.556   6.775
 2998POPC   C3A40901  21.864   5.801   7.119
 2998POPC   C4A40902  21.995   5.667   7.527
 2998POPC   C1B40903  22.099   5.944   6.600
 2998POPC   C2B40904  22.352   5.959   6.993
 2998POPC   C3B40905  22.701   6.227   7.193
 2998POPC   C4B40906  22.882   6.224   7.644
 2999POPC   NC340907  28.553  14.686   5.402
 2999POPC   PO440908  28.402  15.317   5.151
 2999POPC   GL140909  28.381  15.320   5.621
 2999POPC   GL240910  28.723  15.423   5.730
 2999POPC   C1A40911  28.383  15.061   6.012
 2999POPC   D2A40912  28.240  14.904   6.427
 2999POPC   C3A40913  28.415  15.007   6.847
 2999POPC   C4A40914  28.236  15.129   7.202
 2999POPC   C1B40915  28.541  15.519   6.161
 2999POPC   C2B40916  28.334  15.422   6.556
 2999POPC   C3B40917  28.518  15.504   6.990
 2999POPC   C4B40918  28.707  15.294   7.349
 3000POPC   NC340919  34.896  43.820   5.405
 3000POPC   PO440920  34.381  44.173   5.371
 3000POPC   GL140921  34.580  44.014   5.789
 3000POPC   GL240922  34.942  44.047   5.864
 3000POPC   C1A40923  34.591  44.056   6.258
 3000POPC   D2A40924  34.649  44.170   6.707
 3000POPC   C3A40925  34.663  43.867   7.022
 3000POPC   C4A40926  34.511  43.970   7.422
 3000POPC   C1B40927  34.877  43.648   6.107
 3000POPC   C2B40928  34.704  43.568   6.530
 3000POPC   C3B40929  34.832  43.381   6.915
 3000POPC   C4B40930  35.050  43.409   7.270
 3001POPC   NC340931  24.586  36.738   5.254
 3001POPC   PO440932  24.158  37.199   5.540
 3001POPC   GL140933  24.286  36.872   5.831
 3001POPC   GL240934  24.601  36.778   5.771
 3001POPC   C1A40935  24.443  36.958   6.244
 3001POPC   D2A40936  24.550  37.083   6.662
 3001POPC   C3A40937  24.425  36.772   6.916
 3001POPC   C4A40938  24.360  36.885   7.310
 3001POPC   C1B40939  24.787  36.602   6.144
 3001POPC   C2B40940  24.910  36.736   6.583
 3001POPC   C3B40941  24.850  36.520   6.998
 3001POPC   C4B40942  24.806  36.698   7.465
 3002POPC   NC340943  42.006  36.859   5.653
 3002POPC   PO440944  41.456  37.124   5.361
 3002POPC   GL140945  41.411  36.934   5.793
 3002POPC   GL240946  41.666  37.010   6.011
 3002POPC   C1A40947  41.330  36.717   6.243
 3002POPC   D2A40948  41.548  36.717   6.676
 3002POPC   C3A40949  41.575  37.129   6.859
 3002POPC   C4A40950  41.482  37.159   7.273
 3002POPC   C1B40951  41.877  36.726   6.285
 3002POPC   C2B40952  42.079  36.877   6.659
 3002POPC   C3B40953  42.000  36.939   7.093
 3002POPC   C4B40954  41.648  36.692   7.236
 3003POPC   NC340955   4.791  25.433   5.476
 3003POPC   PO440956   4.227  25.204   5.182
 3003POPC   GL140957   4.179  25.186   5.688
 3003POPC   GL240958   4.443  25.362   5.839
 3003POPC   C1A40959   4.194  25.101   6.189
 3003POPC   D2A40960   4.182  25.385   6.587
 3003POPC   C3A40961   4.025  25.299   7.009
 3003POPC   C4A40962   4.143  24.931   7.233
 3003POPC   C1B40963   4.540  25.550   6.241
 3003POPC   C2B40964   4.683  25.544   6.665
 3003POPC   C3B40965   4.519  25.586   7.092
 3003POPC   C4B40966   4.676  25.691   7.528
 3004POPC   NC340967  28.558  11.306   5.228
 3004POPC   PO440968  27.927  11.119   5.372
 3004POPC   GL140969  28.181  11.348   5.754
 3004POPC   GL240970  28.537  11.431   5.742
 3004POPC   C1A40971  28.263  11.582   6.170
 3004POPC   D2A40972  28.361  11.358   6.553
 3004POPC   C3A40973  28.232  11.512   6.938
 3004POPC   C4A40974  28.375  11.219   7.213
 3004POPC   C1B40975  28.652  11.284   6.137
 3004POPC   C2B40976  28.869  11.403   6.535
 3004POPC   C3B40977  28.815  11.237   6.948
 3004POPC   C4B40978  28.865  11.341   7.387
 3005POPC   NC340979   8.572   2.393   5.513
 3005POPC   PO440980   9.092   1.972   5.330
 3005POPC   GL140981   8.864   1.997   5.708
 3005POPC   GL240982   8.948   2.322   5.851
 3005POPC   C1A40983   8.812   1.799   6.126
 3005POPC   D2A40984   8.666   1.687   6.566
 3005POPC   C3A40985   8.900   1.795   6.964
 3005POPC   C4A40986   8.789   2.152   7.233
 3005POPC   C1B40987   9.288   2.044   6.031
 3005POPC   C2B40988   9.374   2.008   6.490
 3005POPC   C3B40989   9.207   2.225   6.886
 3005POPC   C4B40990   9.280   2.140   7.312
 3006POPC   NC340991  12.287  19.645   5.134
 3006POPC   PO440992  11.922  19.084   5.422
 3006POPC   GL140993  11.909  19.181   5.805
 3006POPC   GL240994  12.250  19.050   5.827
 3006POPC   C1A40995  11.780  19.043   6.174
 3006POPC   D2A40996  11.872  18.837   6.536
 3006POPC   C3A40997  11.766  19.035   6.894
 3006POPC   C4A40998  11.921  18.877   7.281
 3006POPC   C1B40999  12.330  19.134   6.219
 3006POPC   C2B41000  12.455  18.949   6.586
 3006POPC   C3B41001  12.273  19.060   6.945
 3006POPC   C4B41002  12.424  19.085   7.357
 3007POPC   NC341003  41.714  43.580   5.146
 3007POPC   PO441004  41.332  44.082   5.423
 3007POPC   GL141005  41.184  43.983   5.831
 3007POPC   GL241006  41.497  44.018   6.048
 3007POPC   C1A41007  41.076  43.808   6.255
 3007POPC   D2A41008  41.339  44.005   6.546
 3007POPC   C3A41009  41.399  43.886   6.967
 3007POPC   C4A41010  41.702  44.020   7.240
 3007POPC   C1B41011  41.569  43.644   6.263
 3007POPC   C2B41012  41.494  43.508   6.623
 3007POPC   C3B41013  41.710  43.489   6.963
 3007POPC   C4B41014  41.578  43.488   7.332
 3008POPC   NC341015  35.336  20.886   5.437
 3008POPC   PO441016  35.816  20.605   5.367
 3008POPC   GL141017  35.647  20.659   5.820
 3008POPC   GL241018  35.392  20.427   5.939
 3008POPC   C1A41019  35.565  20.789   6.292
 3008POPC   D2A41020  35.467  20.594   6.724
 3008POPC   C3A41021  35.573  20.732   7.178
 3008POPC   C4A41022  35.814  20.616   7.565
 3008POPC   C1B41023  35.728  20.315   6.245
 3008POPC   C2B41024  35.894  20.255   6.673
 3008POPC   C3B41025  35.629  20.216   7.027
 3008POPC   C4B41026  35.260  20.330   7.278
 3009POPC   NC341027  11.692  27.483   5.429
 3009POPC   PO441028  11.106  27.394   5.801
 3009POPC   GL141029  11.487  27.537   5.915
 3009POPC   GL241030  11.715  27.235   5.869
 3009POPC   C1A41031  11.394  27.696   6.339
 3009POPC   D2A41032  11.024  27.862   6.605
 3009POPC   C3A41033  11.146  27.737   7.027
 3009POPC   C4A41034  11.227  27.322   7.162
 3009POPC   C1B41035  11.769  27.349   6.301
 3009POPC   C2B41036  11.784  27.601   6.705
 3009POPC   C3B41037  11.673  27.576   7.166
 3009POPC   C4B41038  11.571  27.291   7.557
 3010POPC   NC341039  26.276  36.443   5.401
 3010POPC   PO441040  25.805  35.844   5.491
 3010POPC   GL141041  25.937  36.156   5.828
 3010POPC   GL241042  26.298  36.171   5.828
 3010POPC   C1A41043  25.949  36.030   6.276
 3010POPC   D2A41044  25.968  35.825   6.687
 3010POPC   C3A41045  25.797  36.008   7.083
 3010POPC   C4A41046  25.808  36.112   7.569
 3010POPC   C1B41047  26.300  36.416   6.190
 3010POPC   C2B41048  26.166  36.435   6.604
 3010POPC   C3B41049  26.227  36.487   7.036
 3010POPC   C4B41050  26.256  36.261   7.411
 3011POPC   NC341051  38.959  26.711   5.518
 3011POPC   PO441052  39.389  27.172   5.351
 3011POPC   GL141053  39.404  26.911   5.703
 3011POPC   GL241054  39.146  27.082   5.844
 3011POPC   C1A41055  39.324  26.645   6.092
 3011POPC   D2A41056  39.169  26.843   6.476
 3011POPC   C3A41057  39.228  26.682   6.898
 3011POPC   C4A41058  39.493  26.728   7.262
 3011POPC   C1B41059  38.815  27.062   6.138
 3011POPC   C2B41060  38.767  27.219   6.541
 3011POPC   C3B41061  38.784  27.024   6.924
 3011POPC   C4B41062  39.087  27.075   7.201
 3012POPC   NC341063   0.606   5.052   5.471
 3012POPC   PO441064   0.555   5.677   5.426
 3012POPC   GL141065   0.480   5.365   5.844
 3012POPC   GL241066   0.286   4.988   5.858
 3012POPC   C1A41067   0.656   5.064   6.185
 3012POPC   D2A41068   0.598   4.867   6.582
 3012POPC   C3A41069   0.546   5.173   6.924
 3012POPC   C4A41070   0.485   5.268   7.387
 3012POPC   C1B41071   0.229   4.738   6.260
 3012POPC   C2B41072   0.093   4.893   6.687
 3012POPC   C3B41073   0.105   5.039   7.152
 3012POPC   C4B41074   0.231   4.796   7.592
 3013POPC   NC341075  30.480  25.916   5.406
 3013POPC   PO441076  30.844  26.456   5.320
 3013POPC   GL141077  30.752  26.199   5.720
 3013POPC   GL241078  30.430  26.256   5.813
 3013POPC   C1A41079  30.727  26.052   6.169
 3013POPC   D2A41080  30.545  25.931   6.601
 3013POPC   C3A41081  30.826  26.038   6.904
 3013POPC   C4A41082  30.736  26.334   7.219
 3013POPC   C1B41083  30.184  26.302   6.181
 3013POPC   C2B41084  30.091  26.200   6.585
 3013POPC   C3B41085  30.308  26.297   6.935
 3013POPC   C4B41086  30.211  26.369   7.347
 3014POPC   NC341087   1.388  33.258   5.437
 3014POPC   PO441088   1.109  32.670   5.365
 3014POPC   GL141089   1.126  32.917   5.790
 3014POPC   GL241090   1.004  33.281   5.792
 3014POPC   C1A41091   1.286  32.875   6.273
 3014POPC   D2A41092   1.127  33.031   6.685
 3014POPC   C3A41093   1.380  32.879   7.065
 3014POPC   C4A41094   1.630  32.774   7.420
 3014POPC   C1B41095   1.195  33.355   6.185
 3014POPC   C2B41096   1.491  33.448   6.537
 3014POPC   C3B41097   1.366  33.382   6.984
 3014POPC   C4B41098   0.940  33.257   7.149
 3015POPC   NC341099  20.178  44.173   5.439
 3015POPC   PO441100  19.696  43.768   5.229
 3015POPC   GL141101  19.698  44.027   5.617
 3015POPC   GL241102  19.435  44.279   5.721
 3015POPC   C1A41103  19.907  44.009   6.024
 3015POPC   D2A41104  19.812  43.883   6.436
 3015POPC   C3A41105  19.889  44.093   6.804
 3015POPC   C4A41106  20.089  43.950   7.176
 3015POPC   C1B41107  19.406  43.964   6.102
 3015POPC   C2B41108  19.336  43.987   6.590
 3015POPC   C3B41109  19.478  43.925   7.042
 3015POPC   C4B41110  19.311  43.618   7.316
 3016POPC   NC341111  15.197  28.743   5.651
 3016POPC   PO441112  15.231  29.238   5.153
 3016POPC   GL141113  15.078  29.282   5.625
 3016POPC   GL241114  15.338  29.178   5.866
 3016POPC   C1A41115  14.884  29.273   6.086
 3016POPC   D2A41116  15.017  29.392   6.524
 3016POPC   C3A41117  15.173  29.141   6.893
 3016POPC   C4A41118  14.976  29.110   7.313
 3016POPC   C1B41119  15.288  29.011   6.301
 3016POPC   C2B41120  15.379  28.685   6.605
 3016POPC   C3B41121  15.567  28.651   7.013
 3016POPC   C4B41122  15.483  28.998   7.278
 3017POPC   NC341123  21.581  32.407   5.350
 3017POPC   PO441124  20.941  32.096   5.460
 3017POPC   GL141125  21.177  32.274   5.794
 3017POPC   GL241126  21.538  32.203   5.816
 3017POPC   C1A41127  21.282  32.391   6.232
 3017POPC   D2A41128  21.492  32.499   6.634
 3017POPC   C3A41129  21.234  32.412   7.040
 3017POPC   C4A41130  21.080  32.478   7.480
 3017POPC   C1B41131  21.781  32.215   6.203
 3017POPC   C2B41132  22.002  32.175   6.576
 3017POPC   C3B41133  21.981  32.326   6.989
 3017POPC   C4B41134  21.744  32.149   7.316
 3018POPC   NC341135  40.550   3.861   5.462
 3018POPC   PO441136  41.107   3.663   5.326
 3018POPC   GL141137  40.846   3.518   5.691
 3018POPC   GL241138  40.869   3.870   5.852
 3018POPC   C1A41139  40.889   3.479   6.157
 3018POPC   D2A41140  40.621   3.457   6.506
 3018POPC   C3A41141  40.845   3.458   6.900
 3018POPC   C4A41142  40.684   3.604   7.263
 3018POPC   C1B41143  40.658   3.916   6.276
 3018POPC   C2B41144  40.993   3.828   6.580
 3018POPC   C3B41145  41.116   3.954   6.991
 3018POPC   C4B41146  41.121   3.799   7.410
 3019POPC   NC341147  21.188   7.946   5.542
 3019POPC   PO441148  21.248   8.595   5.352
 3019POPC   GL141149  21.356   8.405   5.746
 3019POPC   GL241150  21.601   8.125   5.741
 3019POPC   C1A41151  21.348   8.520   6.167
 3019POPC   D2A41152  21.257   8.326   6.541
 3019POPC   C3A41153  21.500   8.354   6.881
 3019POPC   C4A41154  21.365   8.460   7.275
 3019POPC   C1B41155  21.403   8.015   6.150
 3019POPC   C2B41156  21.626   7.967   6.544
 3019POPC   C3B41157  21.798   7.905   6.924
 3019POPC   C4B41158  21.544   7.983   7.248
 3020POPC   NC341159   7.768  14.167   5.574
 3020POPC   PO441160   8.255  14.384   5.170
 3020POPC   GL141161   8.294  14.313   5.675
 3020POPC   GL241162   8.007  14.398   5.940
 3020POPC   C1A41163   8.450  14.287   6.138
 3020POPC   D2A41164   8.463  14.552   6.527
 3020POPC   C3A41165   8.378  14.456   6.984
 3020POPC   C4A41166   8.016  14.498   7.220
 3020POPC   C1B41167   7.965  14.152   6.320
 3020POPC   C2B41168   7.997  14.189   6.763
 3020POPC   C3B41169   7.748  14.091   7.113
 3020POPC   C4B41170   7.898  14.104   7.526
 3021POPC   NC341171  38.177  25.284   4.938
 3021POPC   PO441172  38.444  24.988   5.521
 3021POPC   GL141173  38.551  25.209   5.882
 3021POPC   GL241174  38.458  25.560   5.817
 3021POPC   C1A41175  38.334  25.336   6.279
 3021POPC   D2A41176  38.200  25.254   6.708
 3021POPC   C3A41177  38.284  25.222   7.157
 3021POPC   C4A41178  38.201  24.903   7.516
 3021POPC   C1B41179  38.795  25.574   6.134
 3021POPC   C2B41180  38.742  25.550   6.553
 3021POPC   C3B41181  38.918  25.645   6.912
 3021POPC   C4B41182  38.767  25.512   7.274
 3022POPC   NC341183   8.445   0.731   5.304
 3022POPC   PO441184   8.066   0.195   5.308
 3022POPC   GL141185   8.248   0.317   5.743
 3022POPC   GL241186   8.254   0.671   5.782
 3022POPC   C1A41187   8.086   0.408   6.196
 3022POPC   D2A41188   7.894   0.713   6.496
 3022POPC   C3A41189   7.859   0.551   6.909
 3022POPC   C4A41190   8.230   0.440   7.099
 3022POPC   C1B41191   8.363   0.858   6.186
 3022POPC   C2B41192   8.410   0.705   6.606
 3022POPC   C3B41193   8.415   0.906   6.999
 3022POPC   C4B41194   8.551   0.758   7.381
 3023POPC   NC341195  37.611   6.904   5.270
 3023POPC   PO441196  37.645   6.319   5.488
 3023POPC   GL141197  37.328   6.555   5.744
 3023POPC   GL241198  36.937   6.619   5.762
 3023POPC   C1A41199  37.228   6.658   6.182
 3023POPC   D2A41200  37.342   6.774   6.599
 3023POPC   C3A41201  37.140   6.603   6.960
 3023POPC   C4A41202  37.162   6.867   7.292
 3023POPC   C1B41203  36.750   6.813   6.191
 3023POPC   C2B41204  36.808   6.886   6.675
 3023POPC   C3B41205  36.676   6.818   7.132
 3023POPC   C4B41206  36.392   6.784   7.481
 3024POPC   NC341207  19.247  18.707   5.417
 3024POPC   PO441208  18.896  19.241   5.484
 3024POPC   GL141209  19.154  19.204   5.813
 3024POPC   GL241210  19.160  18.885   5.887
 3024POPC   C1A41211  18.998  19.269   6.249
 3024POPC   D2A41212  18.735  19.370   6.667
 3024POPC   C3A41213  18.842  19.156   7.083
 3024POPC   C4A41214  19.246  19.054   7.245
 3024POPC   C1B41215  19.209  18.804   6.316
 3024POPC   C2B41216  19.167  18.887   6.747
 3024POPC   C3B41217  19.071  18.603   7.085
 3024POPC   C4B41218  19.237  18.589   7.504
 3025POPC   NC341219   2.161  34.749   5.380
 3025POPC   PO441220   1.793  34.200   5.150
 3025POPC   GL141221   1.780  34.401   5.613
 3025POPC   GL241222   2.049  34.565   5.821
 3025POPC   C1A41223   1.761  34.288   6.088
 3025POPC   D2A41224   1.646  34.492   6.461
 3025POPC   C3A41225   1.928  34.406   6.791
 3025POPC   C4A41226   1.923  34.549   7.210
 3025POPC   C1B41227   2.189  34.731   6.203
 3025POPC   C2B41228   2.443  34.631   6.535
 3025POPC   C3B41229   2.308  34.719   6.923
 3025POPC   C4B41230   2.410  34.684   7.323
 3026POPC   NC341231  26.963   5.339   5.588
 3026POPC   PO441232  26.468   4.937   5.555
 3026POPC   GL141233  26.768   4.935   5.873
 3026POPC   GL241234  27.142   4.895   5.810
 3026POPC   C1A41235  26.692   5.187   6.220
 3026POPC   D2A41236  26.592   5.057   6.591
 3026POPC   C3A41237  26.636   5.267   6.898
 3026POPC   C4A41238  26.666   5.118   7.235
 3026POPC   C1B41239  27.135   4.968   6.280
 3026POPC   C2B41240  27.074   5.315   6.626
 3026POPC   C3B41241  27.105   5.370   7.093
 3026POPC   C4B41242  27.152   5.044   7.391
 3027POPC   NC341243  15.832  32.500   5.432
 3027POPC   PO441244  16.266  32.001   5.476
 3027POPC   GL141245  16.091  32.235   5.827
 3027POPC   GL241246  15.745  32.318   5.888
 3027POPC   C1A41247  16.051  32.219   6.267
 3027POPC   D2A41248  16.288  32.325   6.607
 3027POPC   C3A41249  16.191  32.092   6.945
 3027POPC   C4A41250  16.162  32.374   7.267
 3027POPC   C1B41251  15.739  32.659   6.169
 3027POPC   C2B41252  15.848  32.585   6.575
 3027POPC   C3B41253  15.731  32.332   6.920
 3027POPC   C4B41254  15.665  32.485   7.325
 3028POPC   NC341255  37.989  44.399   5.429
 3028POPC   PO441256  37.802  43.769   5.088
 3028POPC   GL141257  37.671  43.977   5.524
 3028POPC   GL241258  37.988  43.962   5.726
 3028POPC   C1A41259  37.570  43.832   5.995
 3028POPC   D2A41260  37.671  43.697   6.448
 3028POPC   C3A41261  37.750  43.932   6.861
 3028POPC   C4A41262  37.458  43.947   7.234
 3028POPC   C1B41263  38.039  43.993   6.188
 3028POPC   C2B41264  37.950  44.296   6.529
 3028POPC   C3B41265  38.112  44.333   6.936
 3028POPC   C4B41266  38.263  44.053   7.255
 3029POPC   NC341267   8.730  16.502   5.423
 3029POPC   PO441268   9.204  16.963   5.377
 3029POPC   GL141269   9.051  16.748   5.763
 3029POPC   GL241270   8.709  16.851   5.822
 3029POPC   C1A41271   8.990  16.392   6.098
 3029POPC   D2A41272   8.869  16.455   6.557
 3029POPC   C3A41273   8.999  16.370   6.999
 3029POPC   C4A41274   8.822  16.558   7.394
 3029POPC   C1B41275   8.875  16.873   6.233
 3029POPC   C2B41276   8.890  17.099   6.587
 3029POPC   C3B41277   8.824  16.893   6.978
 3029POPC   C4B41278   8.664  17.049   7.356
 3030POPC   NC341279  26.936  12.767   5.427
 3030POPC   PO441280  27.283  13.326   5.406
 3030POPC   GL141281  27.037  13.159   5.791
 3030POPC   GL241282  26.682  13.044   5.804
 3030POPC   C1A41283  26.858  13.241   6.231
 3030POPC   D2A41284  26.813  12.985   6.598
 3030POPC   C3A41285  27.177  12.852   6.852
 3030POPC   C4A41286  27.314  13.127   7.172
 3030POPC   C1B41287  26.810  12.712   6.132
 3030POPC   C2B41288  26.936  12.498   6.537
 3030POPC   C3B41289  26.800  12.506   6.948
 3030POPC   C4B41290  26.735  12.918   7.123
 3031POPC   NC341291  30.233  27.439   5.439
 3031POPC   PO441292  29.681  27.765   5.571
 3031POPC   GL141293  29.870  27.455   5.802
 3031POPC   GL241294  30.109  27.713   5.869
 3031POPC   C1A41295  29.727  27.383   6.203
 3031POPC   D2A41296  29.818  27.543   6.588
 3031POPC   C3A41297  29.832  27.272   6.893
 3031POPC   C4A41298  29.762  27.449   7.272
 3031POPC   C1B41299  30.202  27.541   6.251
 3031POPC   C2B41300  30.356  27.628   6.641
 3031POPC   C3B41301  30.204  27.636   7.035
 3031POPC   C4B41302  30.404  27.836   7.360
 3032POPC   NC341303  17.671   6.418   5.236
 3032POPC   PO441304  17.508   5.787   5.292
 3032POPC   GL141305  17.422   5.816   5.791
 3032POPC   GL241306  17.259   6.094   5.833
 3032POPC   C1A41307  17.522   5.953   6.260
 3032POPC   D2A41308  17.473   6.033   6.718
 3032POPC   C3A41309  17.455   5.685   7.029
 3032POPC   C4A41310  17.601   5.713   7.458
 3032POPC   C1B41311  17.029   6.058   6.233
 3032POPC   C2B41312  17.014   5.821   6.600
 3032POPC   C3B41313  17.046   5.966   7.003
 3032POPC   C4B41314  17.304   6.144   7.302
 3033POPC   NC341315  18.829   4.480   5.371
 3033POPC   PO441316  19.168   3.939   5.542
 3033POPC   GL141317  19.041   4.064   5.894
 3033POPC   GL241318  19.313   3.837   6.034
 3033POPC   C1A41319  18.813   4.286   6.237
 3033POPC   D2A41320  18.676   4.413   6.656
 3033POPC   C3A41321  18.895   4.303   7.024
 3033POPC   C4A41322  19.092   4.441   7.386
 3033POPC   C1B41323  19.313   4.187   6.310
 3033POPC   C2B41324  19.178   4.526   6.561
 3033POPC   C3B41325  19.364   4.559   6.945
 3033POPC   C4B41326  19.536   4.269   7.197
 3034POPC   NC341327   5.801  34.891   5.324
 3034POPC   PO441328   6.162  34.353   5.393
 3034POPC   GL141329   5.999  34.526   5.784
 3034POPC   GL241330   5.865  34.866   5.822
 3034POPC   C1A41331   5.900  34.357   6.209
 3034POPC   D2A41332   5.653  34.234   6.579
 3034POPC   C3A41333   5.675  34.408   6.989
 3034POPC   C4A41334   5.590  34.582   7.385
 3034POPC   C1B41335   5.760  34.837   6.251
 3034POPC   C2B41336   5.934  34.705   6.651
 3034POPC   C3B41337   5.799  34.906   7.043
 3034POPC   C4B41338   5.867  35.010   7.510
 3035POPC   NC341339  35.569  30.447   5.390
 3035POPC   PO441340  36.254  30.658   5.195
 3035POPC   GL141341  36.076  30.507   5.630
 3035POPC   GL241342  35.788  30.368   5.826
 3035POPC   C1A41343  36.206  30.522   6.080
 3035POPC   D2A41344  36.237  30.771   6.467
 3035POPC   C3A41345  36.290  30.557   6.857
 3035POPC   C4A41346  36.228  30.678   7.241
 3035POPC   C1B41347  35.704  30.539   6.223
 3035POPC   C2B41348  35.736  30.761   6.608
 3035POPC   C3B41349  35.776  30.613   7.014
 3035POPC   C4B41350  35.824  30.367   7.380
 3036POPC   NC341351  30.986  10.606   5.508
 3036POPC   PO441352  30.348  10.501   5.625
 3036POPC   GL141353  30.675  10.538   5.918
 3036POPC   GL241354  30.868  10.261   5.860
 3036POPC   C1A41355  30.729  10.700   6.335
 3036POPC   D2A41356  30.434  10.649   6.694
 3036POPC   C3A41357  30.610  10.445   7.038
 3036POPC   C4A41358  30.882  10.712   7.242
 3036POPC   C1B41359  30.849  10.190   6.269
 3036POPC   C2B41360  30.968  10.366   6.655
 3036POPC   C3B41361  31.070  10.208   7.047
 3036POPC   C4B41362  30.864  10.236   7.456
 3037POPC   NC341363   1.023  38.879   5.563
 3037POPC   PO441364   1.548  39.333   5.382
 3037POPC   GL141365   1.276  39.283   5.768
 3037POPC   GL241366   1.396  38.961   5.886
 3037POPC   C1A41367   1.047  39.268   6.188
 3037POPC   D2A41368   1.090  39.474   6.616
 3037POPC   C3A41369   1.210  39.209   6.976
 3037POPC   C4A41370   1.573  39.275   7.234
 3037POPC   C1B41371   1.402  38.798   6.272
 3037POPC   C2B41372   1.528  38.962   6.646
 3037POPC   C3B41373   1.557  38.788   7.029
 3037POPC   C4B41374   1.345  38.845   7.412
 3038POPC   NC341375  37.439  36.705   5.303
 3038POPC   PO441376  36.804  36.979   5.357
 3038POPC   GL141377  36.784  36.902   5.804
 3038POPC   GL241378  37.079  36.717   5.919
 3038POPC   C1A41379  36.826  37.070   6.244
 3038POPC   D2A41380  36.979  37.330   6.593
 3038POPC   C3A41381  36.802  37.123   6.926
 3038POPC   C4A41382  37.021  36.935   7.246
 3038POPC   C1B41383  36.687  36.558   6.150
 3038POPC   C2B41384  36.641  36.437   6.582
 3038POPC   C3B41385  36.883  36.606   6.892
 3038POPC   C4B41386  36.726  36.546   7.304
 3039POPC   NC341387  29.010  43.369   5.507
 3039POPC   PO441388  29.367  42.771   5.444
 3039POPC   GL141389  29.463  43.069   5.749
 3039POPC   GL241390  29.534  42.758   5.941
 3039POPC   C1A41391  29.592  43.247   6.157
 3039POPC   D2A41392  29.418  43.340   6.546
 3039POPC   C3A41393  29.441  43.208   6.971
 3039POPC   C4A41394  29.097  43.411   7.153
 3039POPC   C1B41395  29.221  42.916   6.252
 3039POPC   C2B41396  29.079  42.970   6.701
 3039POPC   C3B41397  29.115  42.794   7.125
 3039POPC   C4B41398  28.982  42.654   7.567
 3040POPC   NC341399  22.793  21.531   5.055
 3040POPC   PO441400  23.054  20.980   5.363
 3040POPC   GL141401  22.902  21.226   5.760
 3040POPC   GL241402  23.024  21.550   5.849
 3040POPC   C1A41403  22.770  21.329   6.214
 3040POPC   D2A41404  22.718  21.091   6.589
 3040POPC   C3A41405  22.877  21.296   6.965
 3040POPC   C4A41406  22.874  21.632   7.250
 3040POPC   C1B41407  23.285  21.433   6.163
 3040POPC   C2B41408  23.192  21.321   6.567
 3040POPC   C3B41409  23.344  21.501   6.969
 3040POPC   C4B41410  23.352  21.503   7.409
 3041POPC   NC341411  30.968  22.746   5.600
 3041POPC   PO441412  30.423  23.106   5.420
 3041POPC   GL141413  30.459  23.280   5.839
 3041POPC   GL241414  30.596  22.950   5.919
 3041POPC   C1A41415  30.493  23.242   6.311
 3041POPC   D2A41416  30.429  22.960   6.611
 3041POPC   C3A41417  30.565  23.155   6.984
 3041POPC   C4A41418  30.551  23.133   7.419
 3041POPC   C1B41419  30.834  22.842   6.304
 3041POPC   C2B41420  30.851  22.710   6.754
 3041POPC   C3B41421  30.853  22.773   7.207
 3041POPC   C4B41422  31.048  23.036   7.540
 3042POPC   NC341423  18.951  39.350   5.424
 3042POPC   PO441424  19.443  38.864   5.358
 3042POPC   GL141425  19.302  39.170   5.741
 3042POPC   GL241426  18.932  39.150   5.885
 3042POPC   C1A41427  19.210  39.467   6.115
 3042POPC   D2A41428  19.268  39.351   6.522
 3042POPC   C3A41429  19.034  39.491   6.866
 3042POPC   C4A41430  19.249  39.365   7.227
 3042POPC   C1B41431  18.824  38.941   6.285
 3042POPC   C2B41432  19.000  38.957   6.679
 3042POPC   C3B41433  18.879  39.050   7.085
 3042POPC   C4B41434  18.598  39.044   7.415
 3043POPC   NC341435  14.012   4.099   5.426
 3043POPC   PO441436  13.417   4.187   5.054
 3043POPC   GL141437  13.492   4.151   5.554
 3043POPC   GL241438  13.436   4.516   5.685
 3043POPC   C1A41439  13.702   4.146   6.038
 3043POPC   D2A41440  13.769   4.327   6.510
 3043POPC   C3A41441  13.723   4.159   6.966
 3043POPC   C4A41442  13.528   4.013   7.365
 3043POPC   C1B41443  13.530   4.610   6.133
 3043POPC   C2B41444  13.349   4.645   6.514
 3043POPC   C3B41445  13.452   4.596   6.916
 3043POPC   C4B41446  13.688   4.670   7.273
 3044POPC   NC341447   4.245   4.670   5.197
 3044POPC   PO441448   4.329   5.333   5.272
 3044POPC   GL141449   4.403   5.030   5.651
 3044POPC   GL241450   4.566   4.704   5.780
 3044POPC   C1A41451   4.354   5.012   6.118
 3044POPC   D2A41452   4.373   5.224   6.505
 3044POPC   C3A41453   4.380   5.029   6.923
 3044POPC   C4A41454   4.363   4.985   7.339
 3044POPC   C1B41455   4.750   4.708   6.242
 3044POPC   C2B41456   4.785   4.827   6.701
 3044POPC   C3B41457   4.723   4.619   7.160
 3044POPC   C4B41458   4.550   4.627   7.629
 3045POPC   NC341459   0.100  19.842   5.196
 3045POPC   PO441460  44.430  19.637   5.372
 3045POPC   GL141461  44.628  19.814   5.783
 3045POPC   GL241462  44.694  20.150   5.801
 3045POPC   C1A41463  44.821  19.708   6.227
 3045POPC   D2A41464  44.686  19.557   6.646
 3045POPC   C3A41465  44.808  19.690   7.047
 3045POPC   C4A41466  44.635  19.728   7.481
 3045POPC   C1B41467  44.486  20.101   6.232
 3045POPC   C2B41468  44.585  20.096   6.705
 3045POPC   C3B41469  44.578  20.166   7.164
 3045POPC   C4B41470  44.838  20.175   7.536
 3046POPC   NC341471  31.315  30.299   5.407
 3046POPC   PO441472  31.190  30.930   5.318
 3046POPC   GL141473  31.311  30.968   5.725
 3046POPC   GL241474  31.413  30.657   5.827
 3046POPC   C1A41475  31.119  30.981   6.100
 3046POPC   D2A41476  31.185  31.111   6.523
 3046POPC   C3A41477  31.464  30.815   6.767
 3046POPC   C4A41478  31.389  30.744   7.222
 3046POPC   C1B41479  31.560  30.523   6.230
 3046POPC   C2B41480  31.662  30.340   6.622
 3046POPC   C3B41481  31.726  30.423   7.058
 3046POPC   C4B41482  31.555  30.321   7.458
 3047POPC   NC341483  22.963  19.499   5.450
 3047POPC   PO441484  22.878  18.856   5.342
 3047POPC   GL141485  23.069  18.982   5.730
 3047POPC   GL241486  22.731  18.948   5.838
 3047POPC   C1A41487  23.113  19.165   6.169
 3047POPC   D2A41488  23.198  18.981   6.609
 3047POPC   C3A41489  23.142  19.183   7.035
 3047POPC   C4A41490  23.133  18.926   7.398
 3047POPC   C1B41491  22.895  18.719   6.194
 3047POPC   C2B41492  22.702  19.036   6.482
 3047POPC   C3B41493  22.517  19.184   6.859
 3047POPC   C4B41494  22.665  19.002   7.246
 3048POPC   NC341495   6.947  23.009   5.631
 3048POPC   PO441496   6.291  22.722   5.456
 3048POPC   GL141497   6.538  22.685   5.817
 3048POPC   GL241498   6.504  23.048   5.905
 3048POPC   C1A41499   6.363  22.663   6.253
 3048POPC   D2A41500   6.411  22.939   6.603
 3048POPC   C3A41501   6.789  22.810   6.822
 3048POPC   C4A41502   6.644  22.702   7.194
 3048POPC   C1B41503   6.793  22.965   6.253
 3048POPC   C2B41504   6.842  23.252   6.558
 3048POPC   C3B41505   6.755  23.290   6.988
 3048POPC   C4B41506   6.973  23.068   7.305
 3049POPC   NC341507  37.138  42.688   5.718
 3049POPC   PO441508  36.713  42.275   5.299
 3049POPC   GL141509  36.888  42.231   5.717
 3049POPC   GL241510  36.655  42.512   5.774
 3049POPC   C1A41511  37.026  42.107   6.148
 3049POPC   D2A41512  36.944  41.952   6.577
 3049POPC   C3A41513  37.096  42.255   6.951
 3049POPC   C4A41514  37.258  42.648   7.230
 3049POPC   C1B41515  36.512  42.188   6.062
 3049POPC   C2B41516  36.568  42.287   6.491
 3049POPC   C3B41517  36.566  42.105   6.896
 3049POPC   C4B41518  36.799  42.011   7.289
 3050POPC   NC341519   7.335  10.162   5.442
 3050POPC   PO441520   7.767  10.721   5.520
 3050POPC   GL141521   7.526  10.726   5.904
 3050POPC   GL241522   7.325  10.411   5.911
 3050POPC   C1A41523   7.508  10.846   6.329
 3050POPC   D2A41524   7.456  10.575   6.682
 3050POPC   C3A41525   7.733  10.467   6.996
 3050POPC   C4A41526   7.830  10.839   7.215
 3050POPC   C1B41527   7.104  10.269   6.318
 3050POPC   C2B41528   7.032  10.326   6.785
 3050POPC   C3B41529   7.288  10.211   7.148
 3050POPC   C4B41530   7.251  10.380   7.554
 3051POPC   NC341531   5.604  36.501   5.482
 3051POPC   PO441532   5.923  36.028   5.172
 3051POPC   GL141533   5.984  36.120   5.672
 3051POPC   GL241534   6.279  36.298   5.791
 3051POPC   C1A41535   5.767  36.261   6.117
 3051POPC   D2A41536   5.596  36.445   6.531
 3051POPC   C3A41537   5.710  36.285   6.919
 3051POPC   C4A41538   5.574  35.943   7.199
 3051POPC   C1B41539   6.236  36.458   6.237
 3051POPC   C2B41540   6.165  36.521   6.707
 3051POPC   C3B41541   6.176  36.360   7.160
 3051POPC   C4B41542   6.388  36.226   7.570
 3052POPC   NC341543  28.825   4.983   5.327
 3052POPC   PO441544  29.253   5.433   5.455
 3052POPC   GL141545  29.169   5.123   5.765
 3052POPC   GL241546  29.488   5.054   5.777
 3052POPC   C1A41547  28.955   4.973   6.180
 3052POPC   D2A41548  28.793   4.986   6.644
 3052POPC   C3A41549  28.882   5.303   6.997
 3052POPC   C4A41550  29.012   5.114   7.398
 3052POPC   C1B41551  29.346   5.312   6.180
 3052POPC   C2B41552  29.232   5.248   6.619
 3052POPC   C3B41553  29.222   4.899   6.967
 3052POPC   C4B41554  29.423   4.793   7.387
 3053POPC   NC341555   3.189   9.236   5.361
 3053POPC   PO441556   3.806   8.981   5.196
 3053POPC   GL141557   3.617   8.830   5.623
 3053POPC   GL241558   3.348   9.014   5.805
 3053POPC   C1A41559   3.718   8.800   6.097
 3053POPC   D2A41560   3.811   9.016   6.508
 3053POPC   C3A41561   3.778   8.814   6.920
 3053POPC   C4A41562   3.823   8.950   7.336
 3053POPC   C1B41563   3.210   9.082   6.240
 3053POPC   C2B41564   3.310   8.992   6.696
 3053POPC   C3B41565   3.395   9.131   7.117
 3053POPC   C4B41566   3.414   9.198   7.550
 3054POPC   NC341567   3.796  14.531   5.391
 3054POPC   PO441568   3.160  14.265   5.392
 3054POPC   GL141569   3.307  14.445   5.760
 3054POPC   GL241570   3.602  14.308   5.832
 3054POPC   C1A41571   3.436  14.648   6.155
 3054POPC   D2A41572   3.657  14.438   6.480
 3054POPC   C3A41573   3.516  14.465   6.899
 3054POPC   C4A41574   3.640  14.536   7.306
 3054POPC   C1B41575   3.343  14.124   6.173
 3054POPC   C2B41576   3.420  14.003   6.593
 3054POPC   C3B41577   3.241  14.050   6.975
 3054POPC   C4B41578   3.307  14.130   7.425
 3055POPC   NC341579   5.817   0.790   5.649
 3055POPC   PO441580   5.897   0.285   5.217
 3055POPC   GL141581   5.783   0.207   5.673
 3055POPC   GL241582   5.488   0.018   5.807
 3055POPC   C1A41583   5.789   0.329   6.137
 3055POPC   D2A41584   5.964   0.280   6.566
 3055POPC   C3A41585   5.804   0.424   6.970
 3055POPC   C4A41586   6.037   0.316   7.325
 3055POPC   C1B41587   5.575  44.879   6.270
 3055POPC   C2B41588   5.595  44.947   6.750
 3055POPC   C3B41589   5.643   0.007   7.218
 3055POPC   C4B41590   5.544   0.277   7.582
 3056POPC   NC341591  29.712   5.436   5.499
 3056POPC   PO441592  30.079   4.869   5.488
 3056POPC   GL141593  30.121   5.128   5.809
 3056POPC   GL241594  29.850   5.335   5.988
 3056POPC   C1A41595  30.184   5.050   6.228
 3056POPC   D2A41596  29.971   5.251   6.529
 3056POPC   C3A41597  30.066   4.965   6.858
 3056POPC   C4A41598  30.027   4.969   7.264
 3056POPC   C1B41599  29.686   4.941   6.214
 3056POPC   C2B41600  29.602   4.900   6.617
 3056POPC   C3B41601  29.637   5.210   6.957
 3056POPC   C4B41602  29.610   5.256   7.385
 3057POPC   NC341603  10.196  23.583   5.443
 3057POPC   PO441604  10.753  24.053   5.567
 3057POPC   GL141605  10.690  23.791   5.881
 3057POPC   GL241606  10.352  23.879   5.856
 3057POPC   C1A41607  10.575  23.602   6.283
 3057POPC   D2A41608  10.666  23.690   6.704
 3057POPC   C3A41609  10.370  23.539   7.041
 3057POPC   C4A41610  10.388  23.656   7.531
 3057POPC   C1B41611  10.195  23.970   6.242
 3057POPC   C2B41612  10.341  24.098   6.637
 3057POPC   C3B41613  10.241  24.075   7.085
 3057POPC   C4B41614   9.971  23.801   7.261
 3058POPC   NC341615   4.226  12.831   5.059
 3058POPC   PO441616   4.594  12.579   5.528
 3058POPC   GL141617   4.294  12.817   5.719
 3058POPC   GL241618   4.414  13.141   5.596
 3058POPC   C1A41619   4.077  12.783   6.125
 3058POPC   D2A41620   4.235  12.792   6.544
 3058POPC   C3A41621   4.068  12.751   6.943
 3058POPC   C4A41622   4.118  12.518   7.296
 3058POPC   C1B41623   4.404  13.171   6.082
 3058POPC   C2B41624   4.564  13.179   6.531
 3058POPC   C3B41625   4.374  13.173   6.927
 3058POPC   C4B41626   4.329  13.053   7.332
 3059POPC   NC341627  21.520  12.285   5.435
 3059POPC   PO441628  21.059  11.810   5.408
 3059POPC   GL141629  21.206  11.961   5.805
 3059POPC   GL241630  21.543  11.971   5.834
 3059POPC   C1A41631  21.217  12.045   6.249
 3059POPC   D2A41632  21.450  11.878   6.601
 3059POPC   C3A41633  21.206  11.969   6.977
 3059POPC   C4A41634  21.237  11.951   7.424
 3059POPC   C1B41635  21.730  12.140   6.218
 3059POPC   C2B41636  21.822  12.248   6.659
 3059POPC   C3B41637  21.663  12.174   7.095
 3059POPC   C4B41638  21.661  12.143   7.582
 3060POPC   NC341639  19.240  38.438   5.305
 3060POPC   PO441640  18.616  38.397   5.047
 3060POPC   GL141641  18.753  38.479   5.568
 3060POPC   GL241642  19.022  38.702   5.683
 3060POPC   C1A41643  18.841  38.452   6.099
 3060POPC   D2A41644  18.728  38.439   6.568
 3060POPC   C3A41645  18.992  38.531   6.931
 3060POPC   C4A41646  18.907  38.625   7.370
 3060POPC   C1B41647  19.276  38.772   6.082
 3060POPC   C2B41648  19.430  38.602   6.500
 3060POPC   C3B41649  19.457  38.263   6.815
 3060POPC   C4B41650  19.299  38.260   7.237
 3061POPC   NC341651  23.649   8.674   5.408
 3061POPC   PO441652  23.357   9.276   5.619
 3061POPC   GL141653  23.644   8.969   5.816
 3061POPC   GL241654  23.453   8.646   5.877
 3061POPC   C1A41655  23.887   8.831   6.196
 3061POPC   D2A41656  23.989   8.721   6.640
 3061POPC   C3A41657  23.866   9.033   6.971
 3061POPC   C4A41658  23.752   8.872   7.363
 3061POPC   C1B41659  23.363   8.919   6.225
 3061POPC   C2B41660  23.505   8.928   6.611
 3061POPC   C3B41661  23.374   8.890   6.996
 3061POPC   C4B41662  23.316   9.142   7.325
 3062POPC   NC341663  26.645  30.222   5.447
 3062POPC   PO441664  26.551  29.571   5.516
 3062POPC   GL141665  26.872  29.840   5.751
 3062POPC   GL241666  26.616  29.973   5.906
 3062POPC   C1A41667  27.035  30.079   6.165
 3062POPC   D2A41668  27.021  29.947   6.599
 3062POPC   C3A41669  26.973  30.174   6.993
 3062POPC   C4A41670  26.910  29.846   7.370
 3062POPC   C1B41671  26.556  30.268   6.209
 3062POPC   C2B41672  26.531  30.108   6.624
 3062POPC   C3B41673  26.576  29.857   6.998
 3062POPC   C4B41674  26.596  30.243   7.321
 3063POPC   NC341675   0.571  19.572   5.510
 3063POPC   PO441676   0.450  20.202   5.235
 3063POPC   GL141677   0.504  20.053   5.720
 3063POPC   GL241678   0.202  20.169   5.879
 3063POPC   C1A41679   0.396  19.811   6.178
 3063POPC   D2A41680   0.568  19.803   6.550
 3063POPC   C3A41681   0.426  19.674   6.937
 3063POPC   C4A41682   0.662  19.331   7.097
 3063POPC   C1B41683   0.008  20.181   6.262
 3063POPC   C2B41684   0.076  19.963   6.628
 3063POPC   C3B41685   0.139  20.086   7.034
 3063POPC   C4B41686   0.160  19.822   7.381
 3064POPC   NC341687  31.479  40.651   5.400
 3064POPC   PO441688  31.019  41.141   5.651
 3064POPC   GL141689  31.377  40.945   5.843
 3064POPC   GL241690  31.411  40.575   5.930
 3064POPC   C1A41691  31.448  40.949   6.279
 3064POPC   D2A41692  31.223  40.890   6.673
 3064POPC   C3A41693  31.322  41.054   7.077
 3064POPC   C4A41694  31.235  41.002   7.522
 3064POPC   C1B41695  31.579  40.274   6.244
 3064POPC   C2B41696  31.467  40.177   6.676
 3064POPC   C3B41697  31.412  40.504   6.977
 3064POPC   C4B41698  31.658  40.713   7.279
 3065POPC   NC341699  11.464  18.903   5.509
 3065POPC   PO441700  10.847  19.017   5.390
 3065POPC   GL141701  11.081  19.199   5.771
 3065POPC   GL241702  11.409  19.383   5.686
 3065POPC   C1A41703  11.247  19.002   6.181
 3065POPC   D2A41704  11.322  18.821   6.628
 3065POPC   C3A41705  11.099  18.999   7.007
 3065POPC   C4A41706  11.093  18.980   7.487
 3065POPC   C1B41707  11.437  19.474   6.107
 3065POPC   C2B41708  11.498  19.303   6.519
 3065POPC   C3B41709  11.398  19.412   6.924
 3065POPC   C4B41710  11.506  19.206   7.292
 3066POPC   NC341711  25.439   6.762   5.277
 3066POPC   PO441712  24.903   7.161   5.294
 3066POPC   GL141713  25.115   6.912   5.673
 3066POPC   GL241714  25.448   6.731   5.793
 3066POPC   C1A41715  25.066   6.874   6.125
 3066POPC   D2A41716  25.080   7.037   6.552
 3066POPC   C3A41717  25.181   6.700   6.858
 3066POPC   C4A41718  25.259   6.793   7.278
 3066POPC   C1B41719  25.504   6.583   6.236
 3066POPC   C2B41720  25.727   6.479   6.627
 3066POPC   C3B41721  25.688   6.610   7.044
 3066POPC   C4B41722  25.546   6.359   7.410
 3067POPC   NC341723  40.898  26.480   5.491
 3067POPC   PO441724  40.638  25.831   5.482
 3067POPC   GL141725  40.740  26.088   5.836
 3067POPC   GL241726  40.555  26.397   5.870
 3067POPC   C1A41727  40.968  26.073   6.238
 3067POPC   D2A41728  41.240  25.927   6.581
 3067POPC   C3A41729  41.041  26.067   6.957
 3067POPC   C4A41730  40.691  25.933   7.230
 3067POPC   C1B41731  40.444  26.178   6.261
 3067POPC   C2B41732  40.478  26.027   6.689
 3067POPC   C3B41733  40.516  26.339   6.993
 3067POPC   C4B41734  40.906  26.506   7.160
 3068POPC   NC341735  29.580   8.606   5.500
 3068POPC   PO441736  29.664   9.255   5.314
 3068POPC   GL141737  29.756   9.057   5.718
 3068POPC   GL241738  29.579   9.316   5.886
 3068POPC   C1A41739  29.876   8.861   6.133
 3068POPC   D2A41740  30.031   8.667   6.514
 3068POPC   C3A41741  29.831   8.733   6.898
 3068POPC   C4A41742  30.076   8.766   7.244
 3068POPC   C1B41743  30.014   9.367   6.084
 3068POPC   C2B41744  30.227   9.196   6.464
 3068POPC   C3B41745  30.126   9.175   6.904
 3068POPC   C4B41746  29.792   9.186   7.215
 3069POPC   NC341747  37.809  39.619   5.538
 3069POPC   PO441748  37.488  39.065   5.414
 3069POPC   GL141749  37.627  39.203   5.795
 3069POPC   GL241750  37.958  39.120   5.783
 3069POPC   C1A41751  37.423  39.293   6.166
 3069POPC   D2A41752  37.341  39.029   6.497
 3069POPC   C3A41753  37.440  39.309   6.815
 3069POPC   C4A41754  37.448  39.398   7.210
 3069POPC   C1B41755  37.888  39.075   6.256
 3069POPC   C2B41756  37.825  39.007   6.717
 3069POPC   C3B41757  37.894  39.095   7.158
 3069POPC   C4B41758  38.023  38.855   7.524
 3070POPC   NC341759   2.190  38.092   5.470
 3070POPC   PO441760   1.802  37.623   5.500
 3070POPC   GL141761   1.872  37.598   5.897
 3070POPC   GL241762   2.214  37.679   5.786
 3070POPC   C1A41763   1.779  37.803   6.303
 3070POPC   D2A41764   1.548  37.852   6.702
 3070POPC   C3A41765   1.741  37.688   7.100
 3070POPC   C4A41766   1.867  37.551   7.520
 3070POPC   C1B41767   2.278  37.533   6.204
 3070POPC   C2B41768   2.474  37.565   6.576
 3070POPC   C3B41769   2.344  37.690   6.951
 3070POPC   C4B41770   2.348  37.524   7.335
 3071POPC   NC341771   3.380  33.128   5.531
 3071POPC   PO441772   2.753  32.952   5.302
 3071POPC   GL141773   2.677  32.866   5.771
 3071POPC   GL241774   2.567  32.481   5.808
 3071POPC   C1A41775   2.895  33.066   6.186
 3071POPC   D2A41776   3.034  33.304   6.611
 3071POPC   C3A41777   2.900  33.158   7.066
 3071POPC   C4A41778   2.799  33.301   7.519
 3071POPC   C1B41779   2.570  32.640   6.238
 3071POPC   C2B41780   2.502  33.007   6.518
 3071POPC   C3B41781   2.480  32.883   6.941
 3071POPC   C4B41782   2.624  32.681   7.270
 3072POPC   NC341783  22.716  42.649   5.550
 3072POPC   PO441784  22.359  42.022   5.548
 3072POPC   GL141785  22.621  42.241   5.867
 3072POPC   GL241786  22.791  41.997   6.029
 3072POPC   C1A41787  22.782  42.480   6.237
 3072POPC   D2A41788  22.912  42.555   6.665
 3072POPC   C3A41789  22.786  42.540   7.089
 3072POPC   C4A41790  23.072  42.387   7.414
 3072POPC   C1B41791  22.463  42.087   6.345
 3072POPC   C2B41792  22.549  42.143   6.801
 3072POPC   C3B41793  22.851  42.010   7.111
 3072POPC   C4B41794  22.913  41.910   7.548
 3073POPC   NC341795  25.281  33.426   4.989
 3073POPC   PO441796  25.093  32.959   5.321
 3073POPC   GL141797  25.165  32.818   5.755
 3073POPC   GL241798  24.823  32.758   5.789
 3073POPC   C1A41799  25.275  33.065   6.121
 3073POPC   D2A41800  25.328  33.298   6.514
 3073POPC   C3A41801  25.511  33.059   6.870
 3073POPC   C4A41802  25.353  33.096   7.284
 3073POPC   C1B41803  24.865  32.760   6.214
 3073POPC   C2B41804  25.186  32.759   6.533
 3073POPC   C3B41805  25.067  32.806   6.946
 3073POPC   C4B41806  24.816  32.730   7.295
 3074POPC   NC341807   4.925  19.036   5.574
 3074POPC   PO441808   4.224  18.913   5.450
 3074POPC   GL141809   4.367  19.042   5.828
 3074POPC   GL241810   4.618  19.251   5.914
 3074POPC   C1A41811   4.237  19.020   6.234
 3074POPC   D2A41812   4.264  19.178   6.638
 3074POPC   C3A41813   3.959  19.082   6.938
 3074POPC   C4A41814   4.181  19.259   7.265
 3074POPC   C1B41815   4.704  19.203   6.371
 3074POPC   C2B41816   4.763  19.335   6.754
 3074POPC   C3B41817   4.697  19.347   7.204
 3074POPC   C4B41818   4.802  19.262   7.619
 3075POPC   NC341819  29.864  17.679   5.334
 3075POPC   PO441820  30.286  17.158   5.283
 3075POPC   GL141821  30.085  17.165   5.726
 3075POPC   GL241822  29.972  17.495   5.786
 3075POPC   C1A41823  29.713  17.196   6.108
 3075POPC   D2A41824  29.515  17.431   6.515
 3075POPC   C3A41825  29.705  17.548   6.950
 3075POPC   C4A41826  29.703  17.630   7.435
 3075POPC   C1B41827  30.183  17.367   6.169
 3075POPC   C2B41828  30.074  17.451   6.561
 3075POPC   C3B41829  30.111  17.251   6.931
 3075POPC   C4B41830  30.145  17.464   7.256
 3076POPC   NC341831  24.204  29.515   5.387
 3076POPC   PO441832  23.769  29.108   5.148
 3076POPC   GL141833  23.613  29.158   5.628
 3076POPC   GL241834  23.724  29.513   5.677
 3076POPC   C1A41835  23.495  29.105   6.117
 3076POPC   D2A41836  23.625  29.089   6.566
 3076POPC   C3A41837  23.418  29.025   6.979
 3076POPC   C4A41838  23.525  28.965   7.404
 3076POPC   C1B41839  23.665  29.576   6.144
 3076POPC   C2B41840  23.811  29.573   6.597
 3076POPC   C3B41841  23.687  29.445   7.040
 3076POPC   C4B41842  23.724  29.434   7.511
 3077POPC   NC341843  39.692   5.630   5.365
 3077POPC   PO441844  39.219   6.122   5.338
 3077POPC   GL141845  39.301   5.817   5.678
 3077POPC   GL241846  39.009   5.599   5.786
 3077POPC   C1A41847  39.450   5.797   6.093
 3077POPC   D2A41848  39.409   5.995   6.497
 3077POPC   C3A41849  39.321   5.839   6.895
 3077POPC   C4A41850  39.204   6.112   7.192
 3077POPC   C1B41851  38.954   5.845   6.180
 3077POPC   C2B41852  38.921   5.742   6.585
 3077POPC   C3B41853  38.808   5.830   6.961
 3077POPC   C4B41854  38.944   5.694   7.318
 3078POPC   NC341855  31.128  36.226   5.428
 3078POPC   PO441856  31.218  35.601   5.349
 3078POPC   GL141857  31.457  35.932   5.650
 3078POPC   GL241858  31.605  36.259   5.630
 3078POPC   C1A41859  31.650  35.987   6.081
 3078POPC   D2A41860  31.836  35.948   6.501
 3078POPC   C3A41861  31.577  35.856   6.874
 3078POPC   C4A41862  31.446  35.944   7.320
 3078POPC   C1B41863  31.285  36.358   6.019
 3078POPC   C2B41864  31.330  36.232   6.453
 3078POPC   C3B41865  31.257  36.252   6.894
 3078POPC   C4B41866  31.528  36.433   7.197
 3079POPC   NC341867   0.620  25.945   5.561
 3079POPC   PO441868   0.236  26.465   5.411
 3079POPC   GL141869   0.337  26.296   5.820
 3079POPC   GL241870   0.677  26.204   5.971
 3079POPC   C1A41871   0.267  26.245   6.255
 3079POPC   D2A41872   0.547  26.099   6.560
 3079POPC   C3A41873   0.347  26.164   6.948
 3079POPC   C4A41874   0.398  26.146   7.395
 3079POPC   C1B41875   0.783  25.816   6.172
 3079POPC   C2B41876   0.782  25.627   6.575
 3079POPC   C3B41877   0.755  25.829   6.964
 3079POPC   C4B41878   0.696  25.627   7.347
 3080POPC   NC341879  20.192  26.128   5.651
 3080POPC   PO441880  20.779  25.977   5.287
 3080POPC   GL141881  20.685  26.191   5.743
 3080POPC   GL241882  20.514  25.923   5.988
 3080POPC   C1A41883  20.627  26.361   6.212
 3080POPC   D2A41884  20.536  26.233   6.665
 3080POPC   C3A41885  20.578  25.985   7.058
 3080POPC   C4A41886  20.968  25.806   7.286
 3080POPC   C1B41887  20.192  26.042   6.333
 3080POPC   C2B41888  19.941  25.921   6.712
 3080POPC   C3B41889  20.076  25.859   7.139
 3080POPC   C4B41890  20.232  26.172   7.412
 3081POPC   NC341891  36.626  34.250   5.029
 3081POPC   PO441892  36.940  33.804   5.423
 3081POPC   GL141893  36.835  33.744   5.839
 3081POPC   GL241894  36.784  34.107   5.879
 3081POPC   C1A41895  36.930  33.804   6.284
 3081POPC   D2A41896  36.960  34.109   6.606
 3081POPC   C3A41897  37.181  34.018   6.960
 3081POPC   C4A41898  37.079  33.808   7.351
 3081POPC   C1B41899  36.596  34.259   6.269
 3081POPC   C2B41900  36.553  34.393   6.722
 3081POPC   C3B41901  36.700  34.119   7.099
 3081POPC   C4B41902  36.762  34.146   7.591
 3082POPC   NC341903  24.702  18.760   5.363
 3082POPC   PO441904  24.314  18.170   5.351
 3082POPC   GL141905  24.554  18.287   5.702
 3082POPC   GL241906  24.419  18.602   5.795
 3082POPC   C1A41907  24.471  18.204   6.149
 3082POPC   D2A41908  24.663  18.371   6.524
 3082POPC   C3A41909  24.527  18.293   6.917
 3082POPC   C4A41910  24.511  18.152   7.306
 3082POPC   C1B41911  24.787  18.625   6.094
 3082POPC   C2B41912  24.879  18.828   6.521
 3082POPC   C3B41913  25.006  18.676   6.925
 3082POPC   C4B41914  24.975  18.350   7.214
 3083POPC   NC341915  27.295  19.936   5.413
 3083POPC   PO441916  27.851  19.564   5.527
 3083POPC   GL141917  27.595  19.807   5.796
 3083POPC   GL241918  27.893  19.931   5.887
 3083POPC   C1A41919  27.543  20.030   6.205
 3083POPC   D2A41920  27.856  19.947   6.513
 3083POPC   C3A41921  27.710  19.995   6.922
 3083POPC   C4A41922  27.623  20.059   7.357
 3083POPC   C1B41923  27.802  19.544   6.176
 3083POPC   C2B41924  28.009  19.304   6.501
 3083POPC   C3B41925  27.969  19.416   6.922
 3083POPC   C4B41926  27.622  19.544   7.185
 3084POPC   NC341927  42.935  36.534   5.475
 3084POPC   PO441928  43.261  37.147   5.384
 3084POPC   GL141929  43.100  36.921   5.766
 3084POPC   GL241930  43.301  36.693   5.961
 3084POPC   C1A41931  42.985  37.062   6.193
 3084POPC   D2A41932  43.152  36.869   6.554
 3084POPC   C3A41933  42.985  36.991   6.916
 3084POPC   C4A41934  43.143  36.935   7.294
 3084POPC   C1B41935  42.933  36.547   6.205
 3084POPC   C2B41936  42.846  36.432   6.641
 3084POPC   C3B41937  42.911  36.498   7.094
 3084POPC   C4B41938  42.929  36.511   7.552
 3085POPC   NC341939   5.909  43.273   5.385
 3085POPC   PO441940   6.163  42.655   5.495
 3085POPC   GL141941   6.119  42.976   5.823
 3085POPC   GL241942   5.767  43.070   5.839
 3085POPC   C1A41943   6.064  43.047   6.286
 3085POPC   D2A41944   5.945  43.357   6.600
 3085POPC   C3A41945   5.899  43.280   7.009
 3085POPC   C4A41946   6.156  43.301   7.365
 3085POPC   C1B41947   5.573  42.897   6.214
 3085POPC   C2B41948   5.665  42.945   6.645
 3085POPC   C3B41949   5.870  42.757   7.001
 3085POPC   C4B41950   5.959  42.837   7.417
 3086POPC   NC341951  38.955   2.926   5.526
 3086POPC   PO441952  39.373   2.468   5.533
 3086POPC   GL141953  39.297   2.530   5.929
 3086POPC   GL241954  39.272   2.874   5.932
 3086POPC   C1A41955  39.263   2.513   6.376
 3086POPC   D2A41956  39.219   2.345   6.766
 3086POPC   C3A41957  39.379   2.575   7.128
 3086POPC   C4A41958  39.435   2.857   7.500
 3086POPC   C1B41959  39.434   3.024   6.331
 3086POPC   C2B41960  39.398   2.976   6.795
 3086POPC   C3B41961  39.089   3.029   7.148
 3086POPC   C4B41962  39.105   3.237   7.563
 3087POPC   NC341963  31.167  28.657   5.604
 3087POPC   PO441964  31.593  28.263   5.268
 3087POPC   GL141965  31.569  28.357   5.736
 3087POPC   GL241966  31.659  28.705   5.789
 3087POPC   C1A41967  31.410  28.182   6.161
 3087POPC   D2A41968  31.144  28.361   6.499
 3087POPC   C3A41969  31.432  28.273   6.851
 3087POPC   C4A41970  31.610  28.147   7.248
 3087POPC   C1B41971  31.497  28.674   6.198
 3087POPC   C2B41972  31.404  28.764   6.625
 3087POPC   C3B41973  31.189  28.682   6.996
 3087POPC   C4B41974  31.459  28.639   7.349
 3088POPC   NC341975  44.119  26.694   5.405
 3088POPC   PO441976  43.661  27.072   5.270
 3088POPC   GL141977  43.842  27.030   5.703
 3088POPC   GL241978  43.831  26.731   5.927
 3088POPC   C1A41979  43.911  27.183   6.125
 3088POPC   D2A41980  43.859  26.975   6.515
 3088POPC   C3A41981  44.108  27.062   6.861
 3088POPC   C4A41982  44.245  26.889   7.250
 3088POPC   C1B41983  43.534  26.585   6.281
 3088POPC   C2B41984  43.456  26.540   6.734
 3088POPC   C3B41985  43.678  26.787   7.030
 3088POPC   C4B41986  43.820  26.655   7.422
 3089POPC   NC341987   7.051  41.164   5.479
 3089POPC   PO441988   6.527  40.621   5.563
 3089POPC   GL141989   6.671  40.719   5.877
 3089POPC   GL241990   6.528  41.039   5.928
 3089POPC   C1A41991   6.519  40.524   6.236
 3089POPC   D2A41992   6.388  40.748   6.569
 3089POPC   C3A41993   6.490  40.576   6.940
 3089POPC   C4A41994   6.307  40.479   7.307
 3089POPC   C1B41995   6.793  40.962   6.297
 3089POPC   C2B41996   7.038  41.031   6.636
 3089POPC   C3B41997   6.876  41.153   6.974
 3089POPC   C4B41998   6.577  40.992   7.270
 3090POPC   NC341999  17.217  29.833   5.391
 3090POPC   PO442000  17.840  30.150   5.255
 3090POPC   GL142001  17.713  30.027   5.699
 3090POPC   GL242002  17.551  29.684   5.752
 3090POPC   C1A42003  17.750  29.947   6.167
 3090POPC   D2A42004  17.659  30.162   6.563
 3090POPC   C3A42005  17.838  30.093   6.969
 3090POPC   C4A42006  17.592  30.112   7.328
 3090POPC   C1B42007  17.277  29.596   6.110
 3090POPC   C2B42008  17.239  29.775   6.517
 3090POPC   C3B42009  17.449  29.779   6.922
 3090POPC   C4B42010  17.382  29.650   7.369
 3091POPC   NC342011  16.859  21.272   5.516
 3091POPC   PO442012  16.379  21.731   5.357
 3091POPC   GL142013  16.537  21.576   5.766
 3091POPC   GL242014  16.447  21.206   5.818
 3091POPC   C1A42015  16.864  21.679   6.112
 3091POPC   D2A42016  16.924  21.485   6.535
 3091POPC   C3A42017  16.861  21.681   6.947
 3091POPC   C4A42018  17.032  21.784   7.360
 3091POPC   C1B42019  16.758  21.185   6.150
 3091POPC   C2B42020  16.785  21.002   6.532
 3091POPC   C3B42021  16.749  21.159   6.913
 3091POPC   C4B42022  16.827  21.318   7.292
 3092POPC   NC342023   1.611  25.926   5.387
 3092POPC   PO442024   0.978  26.092   5.305
 3092POPC   GL142025   1.122  26.008   5.727
 3092POPC   GL242026   1.423  26.201   5.763
 3092POPC   C1A42027   1.293  25.867   6.142
 3092POPC   D2A42028   1.096  26.034   6.527
 3092POPC   C3A42029   1.278  25.954   6.915
 3092POPC   C4A42030   1.128  25.864   7.307
 3092POPC   C1B42031   1.639  26.263   6.152
 3092POPC   C2B42032   1.638  26.131   6.570
 3092POPC   C3B42033   1.766  26.144   6.991
 3092POPC   C4B42034   1.499  26.201   7.323
 3093POPC   NC342035  29.519  18.829   5.531
 3093POPC   PO442036  30.150  18.782   5.566
 3093POPC   GL142037  29.858  18.728   5.908
 3093POPC   GL242038  29.729  19.062   5.961
 3093POPC   C1A42039  29.843  18.764   6.359
 3093POPC   D2A42040  29.991  18.808   6.780
 3093POPC   C3A42041  29.774  18.821   7.171
 3093POPC   C4A42042  29.802  18.915   7.636
 3093POPC   C1B42043  29.636  19.235   6.393
 3093POPC   C2B42044  29.699  19.247   6.873
 3093POPC   C3B42045  29.581  19.273   7.332
 3093POPC   C4B42046  29.542  19.332   7.812
 3094POPC   NC342047  14.599  25.041   5.393
 3094POPC   PO442048  14.058  25.473   5.474
 3094POPC   GL142049  14.326  25.335   5.792
 3094POPC   GL242050  14.262  24.963   5.792
 3094POPC   C1A42051  14.218  25.360   6.246
 3094POPC   D2A42052  14.066  25.211   6.664
 3094POPC   C3A42053  14.291  25.463   6.977
 3094POPC   C4A42054  14.217  25.569   7.423
 3094POPC   C1B42055  14.396  24.883   6.214
 3094POPC   C2B42056  14.567  25.094   6.585
 3094POPC   C3B42057  14.465  24.974   7.015
 3094POPC   C4B42058  14.522  25.187   7.386
 3095POPC   NC342059  44.358  42.134   5.399
 3095POPC   PO442060  44.879  42.608   5.379
 3095POPC   GL142061  44.791  42.318   5.661
 3095POPC   GL242062   0.090  42.096   5.722
 3095POPC   C1A42063  44.541  42.339   6.056
 3095POPC   D2A42064  44.448  42.554   6.458
 3095POPC   C3A42065  44.523  42.274   6.802
 3095POPC   C4A42066  44.688  42.178   7.213
 3095POPC   C1B42067   0.059  42.283   6.095
 3095POPC   C2B42068  44.924  42.360   6.478
 3095POPC   C3B42069   0.039  42.193   6.834
 3095POPC   C4B42070   0.188  42.068   7.210
 3096POPC   NC342071  31.317   2.569   5.082
 3096POPC   PO442072  31.928   2.563   5.357
 3096POPC   GL142073  31.734   2.877   5.656
 3096POPC   GL242074  31.392   2.833   5.759
 3096POPC   C1A42075  31.750   2.839   6.122
 3096POPC   D2A42076  31.690   2.811   6.574
 3096POPC   C3A42077  31.893   2.915   6.983
 3096POPC   C4A42078  31.806   2.726   7.412
 3096POPC   C1B42079  31.266   3.063   6.142
 3096POPC   C2B42080  31.190   2.862   6.543
 3096POPC   C3B42081  31.362   2.848   6.995
 3096POPC   C4B42082  31.296   2.744   7.445
 3097POPC   NC342083  33.388  44.601   5.284
 3097POPC   PO442084  32.785  44.916   5.498
 3097POPC   GL142085  32.880  44.668   5.864
 3097POPC   GL242086  33.227  44.532   5.875
 3097POPC   C1A42087  32.980  44.868   6.262
 3097POPC   D2A42088  32.789  44.942   6.645
 3097POPC   C3A42089  32.998  44.689   6.941
 3097POPC   C4A42090  33.058  44.754   7.379
 3097POPC   C1B42091  33.190  44.395   6.280
 3097POPC   C2B42092  33.439  44.434   6.651
 3097POPC   C3B42093  33.367  44.323   7.068
 3097POPC   C4B42094  33.236  44.305   7.475
 3098POPC   NC342095  38.794  25.777   5.490
 3098POPC   PO442096  38.244  25.904   5.173
 3098POPC   GL142097  38.380  26.059   5.653
 3098POPC   GL242098  38.681  26.032   5.919
 3098POPC   C1A42099  38.279  26.307   6.039
 3098POPC   D2A42100  38.277  26.444   6.467
 3098POPC   C3A42101  38.314  26.231   6.831
 3098POPC   C4A42102  38.292  26.317   7.233
 3098POPC   C1B42103  38.576  26.020   6.360
 3098POPC   C2B42104  38.286  25.772   6.624
 3098POPC   C3B42105  38.368  25.758   7.054
 3098POPC   C4B42106  38.719  26.039   7.208
 3099POPC   NC342107  40.422  27.854   5.640
 3099POPC   PO442108  40.868  27.562   5.186
 3099POPC   GL142109  40.782  27.471   5.656
 3099POPC   GL242110  40.936  27.733   5.819
 3099POPC   C1A42111  40.723  27.374   6.128
 3099POPC   D2A42112  40.582  27.232   6.560
 3099POPC   C3A42113  40.661  27.467   6.972
 3099POPC   C4A42114  40.825  27.476   7.421
 3099POPC   C1B42115  40.990  27.866   6.242
 3099POPC   C2B42116  40.834  27.847   6.654
 3099POPC   C3B42117  40.856  27.953   7.080
 3099POPC   C4B42118  40.578  27.900   7.464
 3100POPC   NC342119  13.403  43.936   5.493
 3100POPC   PO442120  14.029  44.128   5.365
 3100POPC   GL142121  13.776  44.178   5.754
 3100POPC   GL242122  13.554  43.912   5.963
 3100POPC   C1A42123  13.811  44.285   6.181
 3100POPC   D2A42124  13.705  43.981   6.476
 3100POPC   C3A42125  13.537  44.024   6.878
 3100POPC   C4A42126  13.732  44.015   7.243
 3100POPC   C1B42127  13.343  43.672   6.294
 3100POPC   C2B42128  13.524  43.534   6.681
 3100POPC   C3B42129  13.703  43.465   7.070
 3100POPC   C4B42130  13.691  43.582   7.542
 3101POPC   NC342131  20.378  39.912   5.438
 3101POPC   PO442132  21.023  39.981   5.352
 3101POPC   GL142133  20.874  39.866   5.789
 3101POPC   GL242134  20.641  40.140   5.816
 3101POPC   C1A42135  20.702  39.817   6.230
 3101POPC   D2A42136  20.487  39.963   6.631
 3101POPC   C3A42137  20.675  39.845   7.030
 3101POPC   C4A42138  20.806  39.954   7.436
 3101POPC   C1B42139  20.373  40.224   6.194
 3101POPC   C2B42140  20.533  40.496   6.527
 3101POPC   C3B42141  20.435  40.384   6.952
 3101POPC   C4B42142  20.585  40.408   7.341
 3102POPC   NC342143  41.282   0.327   5.613
 3102POPC   PO442144  40.619   0.390   5.426
 3102POPC   GL142145  40.767   0.553   5.809
 3102POPC   GL242146  40.844   0.210   5.883
 3102POPC   C1A42147  40.875   0.541   6.269
 3102POPC   D2A42148  40.688   0.276   6.591
 3102POPC   C3A42149  40.612   0.546   6.925
 3102POPC   C4A42150  40.897   0.777   7.158
 3102POPC   C1B42151  41.134   0.091   6.221
 3102POPC   C2B42152  41.341   0.271   6.514
 3102POPC   C3B42153  41.134   0.428   6.825
 3102POPC   C4B42154  41.022   0.262   7.181
 3103POPC   NC342155   4.107   9.065   5.542
 3103POPC   PO442156   4.547   9.503   5.619
 3103POPC   GL142157   4.531   9.270   5.937
 3103POPC   GL242158   4.506   8.942   5.833
 3103POPC   C1A42159   4.242   9.177   6.247
 3103POPC   D2A42160   4.197   9.363   6.638
 3103POPC   C3A42161   4.147   9.174   7.010
 3103POPC   C4A42162   4.340   9.161   7.407
 3103POPC   C1B42163   4.639   8.843   6.224
 3103POPC   C2B42164   4.795   8.922   6.607
 3103POPC   C3B42165   4.589   8.915   6.996
 3103POPC   C4B42166   4.248   8.696   7.179
 3104POPC   NC342167  22.376  10.953   5.572
 3104POPC   PO442168  21.942  11.456   5.273
 3104POPC   GL142169  22.089  11.328   5.777
 3104POPC   GL242170  22.036  10.988   5.935
 3104POPC   C1A42171  22.094  11.320   6.313
 3104POPC   D2A42172  21.716  11.431   6.611
 3104POPC   C3A42173  21.812  11.310   7.025
 3104POPC   C4A42174  22.234  11.445   7.184
 3104POPC   C1B42175  22.488  11.057   6.168
 3104POPC   C2B42176  22.624  10.903   6.543
 3104POPC   C3B42177  22.582  11.024   6.977
 3104POPC   C4B42178  22.310  10.961   7.327
 3105POPC   NC342179   1.373  41.396   5.369
 3105POPC   PO442180   1.302  42.023   5.407
 3105POPC   GL142181   1.285  41.777   5.849
 3105POPC   GL242182   1.383  41.406   5.880
 3105POPC   C1A42183   1.240  41.897   6.331
 3105POPC   D2A42184   1.026  41.936   6.751
 3105POPC   C3A42185   1.247  41.647   7.049
 3105POPC   C4A42186   1.159  41.251   7.243
 3105POPC   C1B42187   1.650  41.590   6.208
 3105POPC   C2B42188   1.578  41.595   6.647
 3105POPC   C3B42189   1.641  41.325   7.014
 3105POPC   C4B42190   1.621  41.369   7.465
 3106POPC   NC342191  28.792   6.866   5.407
 3106POPC   PO442192  29.448   6.814   5.452
 3106POPC   GL142193  29.250   6.587   5.815
 3106POPC   GL242194  28.902   6.668   5.886
 3106POPC   C1A42195  29.264   6.436   6.258
 3106POPC   D2A42196  29.322   6.572   6.691
 3106POPC   C3A42197  29.021   6.410   7.008
 3106POPC   C4A42198  28.987   6.605   7.414
 3106POPC   C1B42199  29.143   6.945   6.179
 3106POPC   C2B42200  29.050   7.090   6.589
 3106POPC   C3B42201  28.973   6.923   6.956
 3106POPC   C4B42202  29.380   6.882   7.108
 3107POPC   NC342203  19.294  28.621   5.592
 3107POPC   PO442204  18.672  28.765   5.497
 3107POPC   GL142205  18.885  28.633   5.865
 3107POPC   GL242206  19.036  28.271   5.854
 3107POPC   C1A42207  19.035  28.646   6.274
 3107POPC   D2A42208  18.992  28.377   6.627
 3107POPC   C3A42209  19.082  28.528   7.053
 3107POPC   C4A42210  19.223  28.696   7.435
 3107POPC   C1B42211  19.291  28.148   6.216
 3107POPC   C2B42212  19.543  27.843   6.481
 3107POPC   C3B42213  19.483  27.831   6.959
 3107POPC   C4B42214  19.446  28.155   7.316
 3108POPC   NC342215  38.285  11.584   4.864
 3108POPC   PO442216  38.497  11.260   5.457
 3108POPC   GL142217  38.291  11.380   5.859
 3108POPC   GL242218  38.620  11.324   5.968
 3108POPC   C1A42219  38.328  11.572   6.295
 3108POPC   D2A42220  38.504  11.354   6.710
 3108POPC   C3A42221  38.394  11.304   7.199
 3108POPC   C4A42222  38.021  11.199   7.551
 3108POPC   C1B42223  38.830  10.946   6.113
 3108POPC   C2B42224  38.910  10.883   6.554
 3108POPC   C3B42225  38.728  10.975   6.953
 3108POPC   C4B42226  38.861  11.053   7.349
 3109POPC   NC342227  34.587  16.267   5.464
 3109POPC   PO442228  34.654  15.530   5.401
 3109POPC   GL142229  34.653  15.818   5.729
 3109POPC   GL242230  34.326  15.882   5.670
 3109POPC   C1A42231  34.819  15.947   6.141
 3109POPC   D2A42232  34.692  15.839   6.551
 3109POPC   C3A42233  34.912  15.952   6.891
 3109POPC   C4A42234  34.721  15.949   7.237
 3109POPC   C1B42235  34.305  16.023   6.113
 3109POPC   C2B42236  34.347  16.203   6.531
 3109POPC   C3B42237  34.273  16.013   6.944
 3109POPC   C4B42238  34.269  16.127   7.392
 3110POPC   NC342239   2.957   5.049   5.424
 3110POPC   PO442240   2.303   4.803   5.529
 3110POPC   GL142241   2.570   5.124   5.783
 3110POPC   GL242242   2.946   5.088   5.921
 3110POPC   C1A42243   2.599   5.229   6.240
 3110POPC   D2A42244   2.954   5.030   6.465
 3110POPC   C3A42245   2.856   4.873   6.864
 3110POPC   C4A42246   2.543   5.076   7.102
 3110POPC   C1B42247   3.013   5.502   6.109
 3110POPC   C2B42248   2.855   5.577   6.530
 3110POPC   C3B42249   3.008   5.383   6.903
 3110POPC   C4B42250   3.042   5.118   7.280
 3111POPC   NC342251  19.273  22.737   5.441
 3111POPC   PO442252  18.642  22.739   5.635
 3111POPC   GL142253  19.026  22.692   5.883
 3111POPC   GL242254  19.202  23.014   5.893
 3111POPC   C1A42255  19.282  22.524   6.211
 3111POPC   D2A42256  19.066  22.486   6.585
 3111POPC   C3A42257  19.094  22.802   6.863
 3111POPC   C4A42258  18.758  22.947   7.086
 3111POPC   C1B42259  19.092  23.000   6.344
 3111POPC   C2B42260  19.192  23.291   6.679
 3111POPC   C3B42261  19.182  23.273   7.129
 3111POPC   C4B42262  19.388  23.245   7.534
 3112POPC   NC342263  31.047   5.626   5.392
 3112POPC   PO442264  30.450   5.435   5.294
 3112POPC   GL142265  30.651   5.697   5.701
 3112POPC   GL242266  30.461   5.989   5.793
 3112POPC   C1A42267  30.859   5.582   6.139
 3112POPC   D2A42268  30.904   5.349   6.571
 3112POPC   C3A42269  30.753   5.591   6.939
 3112POPC   C4A42270  30.437   5.850   7.111
 3112POPC   C1B42271  30.620   6.038   6.195
 3112POPC   C2B42272  30.550   6.023   6.636
 3112POPC   C3B42273  30.579   6.303   7.000
 3112POPC   C4B42274  30.525   6.234   7.469
 3113POPC   NC342275  37.987  12.768   5.460
 3113POPC   PO442276  38.669  12.686   5.437
 3113POPC   GL142277  38.384  12.629   5.792
 3113POPC   GL242278  38.259  12.977   5.869
 3113POPC   C1A42279  38.379  12.673   6.251
 3113POPC   D2A42280  38.401  12.866   6.661
 3113POPC   C3A42281  38.672  12.717   6.974
 3113POPC   C4A42282  38.275  12.657   7.144
 3113POPC   C1B42283  38.303  13.216   6.299
 3113POPC   C2B42284  38.422  13.374   6.717
 3113POPC   C3B42285  38.515  13.168   7.144
 3113POPC   C4B42286  38.690  13.313   7.575
 3114POPC   NC342287  39.598  23.298   5.435
 3114POPC   PO442288  40.335  23.357   5.416
 3114POPC   GL142289  40.060  23.600   5.739
 3114POPC   GL242290  39.840  23.906   5.822
 3114POPC   C1A42291  40.229  23.811   6.117
 3114POPC   D2A42292  40.052  23.757   6.489
 3114POPC   C3A42293  40.159  23.846   6.883
 3114POPC   C4A42294  40.305  23.599   7.167
 3114POPC   C1B42295  39.694  24.057   6.254
 3114POPC   C2B42296  39.653  23.966   6.721
 3114POPC   C3B42297  39.770  24.068   7.144
 3114POPC   C4B42298  39.840  24.195   7.594
 3115POPC   NC342299  30.176  11.185   5.410
 3115POPC   PO442300  29.579  11.537   5.530
 3115POPC   GL142301  29.879  11.413   5.785
 3115POPC   GL242302  30.199  11.606   5.778
 3115POPC   C1A42303  29.807  11.511   6.197
 3115POPC   D2A42304  29.787  11.701   6.596
 3115POPC   C3A42305  29.810  11.412   6.954
 3115POPC   C4A42306  30.101  11.464   7.242
 3115POPC   C1B42307  30.265  11.302   6.120
 3115POPC   C2B42308  30.064  11.234   6.538
 3115POPC   C3B42309  30.047  10.959   6.883
 3115POPC   C4B42310  30.139  10.621   7.156
 3116POPC   NC342311  29.003  28.163   5.300
 3116POPC   PO442312  29.445  28.592   5.549
 3116POPC   GL142313  29.200  28.369   5.803
 3116POPC   GL242314  29.297  28.066   5.724
 3116POPC   C1A42315  29.227  28.292   6.243
 3116POPC   D2A42316  29.028  28.392   6.642
 3116POPC   C3A42317  29.396  28.345   6.874
 3116POPC   C4A42318  29.577  28.290   7.235
 3116POPC   C1B42319  28.909  27.977   5.971
 3116POPC   C2B42320  28.884  27.960   6.444
 3116POPC   C3B42321  29.051  27.957   6.906
 3116POPC   C4B42322  28.968  28.112   7.333
 3117POPC   NC342323  20.387  20.514   5.422
 3117POPC   PO442324  21.124  20.390   5.400
 3117POPC   GL142325  20.845  20.584   5.750
 3117POPC   GL242326  20.523  20.674   5.941
 3117POPC   C1A42327  20.915  20.585   6.223
 3117POPC   D2A42328  20.649  20.704   6.579
 3117POPC   C3A42329  20.654  20.401   6.922
 3117POPC   C4A42330  20.737  20.171   7.292
 3117POPC   C1B42331  20.236  20.905   6.250
 3117POPC   C2B42332  20.276  21.085   6.680
 3117POPC   C3B42333  20.545  20.937   7.033
 3117POPC   C4B42334  20.452  20.626   7.348
 3118POPC   NC342335  31.201  26.116   5.478
 3118POPC   PO442336  31.804  25.809   5.399
 3118POPC   GL142337  31.603  26.024   5.775
 3118POPC   GL242338  31.783  26.302   5.905
 3118POPC   C1A42339  31.309  26.221   6.107
 3118POPC   D2A42340  31.107  26.221   6.494
 3118POPC   C3A42341  31.423  26.335   6.778
 3118POPC   C4A42342  31.251  26.270   7.164
 3118POPC   C1B42343  31.783  26.037   6.273
 3118POPC   C2B42344  31.444  25.835   6.473
 3118POPC   C3B42345  31.305  25.838   6.878
 3118POPC   C4B42346  31.644  25.951   7.121
 3119POPC   NC342347  31.826  11.144   5.450
 3119POPC   PO442348  31.509  11.750   5.412
 3119POPC   GL142349  31.603  11.532   5.806
 3119POPC   GL242350  31.478  11.211   5.824
 3119POPC   C1A42351  31.445  11.498   6.254
 3119POPC   D2A42352  31.554  11.190   6.566
 3119POPC   C3A42353  31.431  11.241   7.010
 3119POPC   C4A42354  31.558  11.410   7.415
 3119POPC   C1B42355  31.582  10.910   6.118
 3119POPC   C2B42356  31.754  10.726   6.477
 3119POPC   C3B42357  31.752  10.813   6.876
 3119POPC   C4B42358  31.715  10.896   7.277
 3120POPC   NC342359   9.524  22.138   5.498
 3120POPC   PO442360   9.584  22.708   5.149
 3120POPC   GL142361   9.815  22.530   5.640
 3120POPC   GL242362  10.069  22.214   5.722
 3120POPC   C1A42363   9.744  22.259   6.091
 3120POPC   D2A42364   9.730  22.069   6.506
 3120POPC   C3A42365   9.471  22.212   6.830
 3120POPC   C4A42366   9.609  22.233   7.243
 3120POPC   C1B42367  10.158  21.983   6.149
 3120POPC   C2B42368  10.281  22.046   6.593
 3120POPC   C3B42369  10.006  22.056   6.963
 3120POPC   C4B42370  10.022  22.038   7.427
 3121POPC   NC342371  38.656  10.829   5.475
 3121POPC   PO442372  38.389  10.268   5.525
 3121POPC   GL142373  38.487  10.534   5.888
 3121POPC   GL242374  38.363  10.872   5.888
 3121POPC   C1A42375  38.512  10.596   6.323
 3121POPC   D2A42376  38.251  10.504   6.667
 3121POPC   C3A42377  38.549  10.511   6.994
 3121POPC   C4A42378  38.828  10.535   7.339
 3121POPC   C1B42379  38.356  11.061   6.318
 3121POPC   C2B42380  38.140  11.002   6.720
 3121POPC   C3B42381  38.186  10.856   7.142
 3121POPC   C4B42382  38.423  10.906   7.531
 3122POPC   NC342383   2.094   4.617   5.161
 3122POPC   PO442384   1.704   4.026   5.338
 3122POPC   GL142385   1.747   4.116   5.784
 3122POPC   GL242386   1.929   4.451   5.820
 3122POPC   C1A42387   1.849   4.115   6.242
 3122POPC   D2A42388   2.233   4.112   6.540
 3122POPC   C3A42389   2.103   4.156   6.978
 3122POPC   C4A42390   1.777   3.958   7.130
 3122POPC   C1B42391   2.156   4.524   6.231
 3122POPC   C2B42392   1.945   4.518   6.643
 3122POPC   C3B42393   1.764   4.514   7.098
 3122POPC   C4B42394   1.743   4.742   7.523
 3123POPC   NC342395  41.547  33.305   5.548
 3123POPC   PO442396  41.213  32.734   5.509
 3123POPC   GL142397  41.330  32.820   5.956
 3123POPC   GL242398  41.702  32.929   6.005
 3123POPC   C1A42399  41.420  32.813   6.404
 3123POPC   D2A42400  41.784  33.041   6.536
 3123POPC   C3A42401  41.844  33.138   6.950
 3123POPC   C4A42402  41.638  33.084   7.330
 3123POPC   C1B42403  41.472  33.289   6.193
 3123POPC   C2B42404  41.262  33.250   6.569
 3123POPC   C3B42405  41.304  33.208   6.968
 3123POPC   C4B42406  41.185  33.329   7.378
 3124POPC   NC342407  31.734  16.389   5.539
 3124POPC   PO442408  32.203  15.920   5.432
 3124POPC   GL142409  32.187  16.056   5.807
 3124POPC   GL242410  31.855  15.928   5.838
 3124POPC   C1A42411  32.296  15.930   6.202
 3124POPC   D2A42412  32.223  16.134   6.571
 3124POPC   C3A42413  32.387  15.923   6.927
 3124POPC   C4A42414  32.403  16.008   7.347
 3124POPC   C1B42415  31.847  16.207   6.190
 3124POPC   C2B42416  31.708  16.249   6.596
 3124POPC   C3B42417  31.881  16.034   6.959
 3124POPC   C4B42418  31.924  16.200   7.339
 3125POPC   NC342419   3.777  17.798   5.374
 3125POPC   PO442420   3.406  17.204   5.511
 3125POPC   GL142421   3.630  17.506   5.768
 3125POPC   GL242422   3.499  17.888   5.812
 3125POPC   C1A42423   3.760  17.614   6.163
 3125POPC   D2A42424   3.546  17.739   6.530
 3125POPC   C3A42425   3.682  17.661   6.937
 3125POPC   C4A42426   3.434  17.377   7.158
 3125POPC   C1B42427   3.254  17.609   6.113
 3125POPC   C2B42428   3.121  17.420   6.511
 3125POPC   C3B42429   3.119  17.678   6.888
 3125POPC   C4B42430   3.340  17.875   7.254
 3126POPC   NC342431  27.802   9.221   5.237
 3126POPC   PO442432  27.508   8.641   5.466
 3126POPC   GL142433  27.670   8.957   5.688
 3126POPC   GL242434  27.743   8.730   5.938
 3126POPC   C1A42435  27.543   9.207   6.057
 3126POPC   D2A42436  27.309   9.235   6.471
 3126POPC   C3A42437  27.569   9.141   6.851
 3126POPC   C4A42438  27.648   8.979   7.288
 3126POPC   C1B42439  27.459   8.746   6.274
 3126POPC   C2B42440  27.621   8.649   6.674
 3126POPC   C3B42441  27.399   8.570   7.030
 3126POPC   C4B42442  27.114   8.739   7.323
 3127POPC   NC342443  35.247   1.330   5.047
 3127POPC   PO442444  35.376   1.080   5.634
 3127POPC   GL142445  35.390   1.130   6.037
 3127POPC   GL242446  35.611   1.427   6.043
 3127POPC   C1A42447  35.433   0.871   6.410
 3127POPC   D2A42448  35.624   0.945   6.812
 3127POPC   C3A42449  35.305   1.136   7.089
 3127POPC   C4A42450  34.894   0.972   7.128
 3127POPC   C1B42451  35.726   1.295   6.409
 3127POPC   C2B42452  35.519   1.462   6.725
 3127POPC   C3B42453  35.743   1.397   7.050
 3127POPC   C4B42454  35.641   1.228   7.473
 3128POPC   NC342455  43.313  23.844   5.335
 3128POPC   PO442456  42.906  23.369   5.275
 3128POPC   GL142457  42.980  23.582   5.685
 3128POPC   GL242458  43.352  23.562   5.768
 3128POPC   C1A42459  43.036  23.768   6.100
 3128POPC   D2A42460  43.189  23.644   6.495
 3128POPC   C3A42461  43.326  23.983   6.744
 3128POPC   C4A42462  43.201  23.847   7.146
 3128POPC   C1B42463  43.503  23.261   6.083
 3128POPC   C2B42464  43.399  23.092   6.500
 3128POPC   C3B42465  43.304  23.277   6.894
 3128POPC   C4B42466  43.498  23.394   7.284
 3129POPC   NC342467   3.788  38.006   5.407
 3129POPC   PO442468   3.723  37.361   5.529
 3129POPC   GL142469   3.440  37.564   5.799
 3129POPC   GL242470   3.345  37.895   5.702
 3129POPC   C1A42471   3.476  37.585   6.254
 3129POPC   D2A42472   3.377  37.539   6.680
 3129POPC   C3A42473   3.744  37.521   6.890
 3129POPC   C4A42474   3.817  37.683   7.264
 3129POPC   C1B42475   3.179  37.957   6.108
 3129POPC   C2B42476   3.274  38.071   6.548
 3129POPC   C3B42477   3.428  37.962   6.972
 3129POPC   C4B42478   3.365  37.875   7.386
 3130POPC   NC342479  43.398  33.135   5.348
 3130POPC   PO442480  42.689  33.235   5.404
 3130POPC   GL142481  42.981  33.070   5.701
 3130POPC   GL242482  43.041  32.709   5.814
 3130POPC   C1A42483  43.219  33.142   6.071
 3130POPC   D2A42484  43.448  33.024   6.429
 3130POPC   C3A42485  43.289  33.190   6.820
 3130POPC   C4A42486  43.307  32.974   7.211
 3130POPC   C1B42487  43.082  32.678   6.287
 3130POPC   C2B42488  43.151  32.708   6.736
 3130POPC   C3B42489  42.883  32.705   7.121
 3130POPC   C4B42490  42.973  32.701   7.559
 3131POPC   NC342491  19.524  43.418   5.472
 3131POPC   PO442492  20.075  42.870   5.452
 3131POPC   GL142493  19.923  43.181   5.764
 3131POPC   GL242494  19.970  43.566   5.722
 3131POPC   C1A42495  19.820  43.064   6.198
 3131POPC   D2A42496  19.972  42.844   6.579
 3131POPC   C3A42497  20.083  43.069   6.964
 3131POPC   C4A42498  19.768  43.038   7.262
 3131POPC   C1B42499  20.064  43.513   6.176
 3131POPC   C2B42500  19.859  43.398   6.602
 3131POPC   C3B42501  19.825  43.524   7.049
 3131POPC   C4B42502  20.137  43.449   7.366
 3132POPC   NC342503  34.229  42.649   5.536
 3132POPC   PO442504  34.898  42.426   5.560
 3132POPC   GL142505  34.630  42.546   5.897
 3132POPC   GL242506  34.402  42.293   5.880
 3132POPC   C1A42507  34.481  42.472   6.340
 3132POPC   D2A42508  34.579  42.547   6.760
 3132POPC   C3A42509  34.643  42.198   7.053
 3132POPC   C4A42510  34.448  42.470   7.264
 3132POPC   C1B42511  34.119  42.094   6.189
 3132POPC   C2B42512  33.974  42.240   6.550
 3132POPC   C3B42513  34.092  42.257   6.954
 3132POPC   C4B42514  33.968  42.329   7.365
 3133POPC   NC342515   8.112  28.217   5.377
 3133POPC   PO442516   8.402  28.801   5.489
 3133POPC   GL142517   8.335  28.498   5.829
 3133POPC   GL242518   8.295  28.127   5.880
 3133POPC   C1A42519   8.210  28.538   6.255
 3133POPC   D2A42520   8.377  28.447   6.677
 3133POPC   C3A42521   8.163  28.589   7.047
 3133POPC   C4A42522   8.380  28.562   7.424
 3133POPC   C1B42523   8.420  28.062   6.329
 3133POPC   C2B42524   8.516  27.958   6.782
 3133POPC   C3B42525   8.400  28.109   7.193
 3133POPC   C4B42526   8.432  28.151   7.700
 3134POPC   NC342527  19.949  21.099   5.390
 3134POPC   PO442528  19.591  21.618   5.498
 3134POPC   GL142529  19.700  21.302   5.820
 3134POPC   GL242530  20.062  21.254   5.877
 3134POPC   C1A42531  19.759  21.234   6.266
 3134POPC   D2A42532  19.598  21.131   6.622
 3134POPC   C3A42533  19.819  21.368   6.902
 3134POPC   C4A42534  19.643  21.253   7.247
 3134POPC   C1B42535  20.223  21.462   6.279
 3134POPC   C2B42536  20.365  21.632   6.689
 3134POPC   C3B42537  20.314  21.424   7.105
 3134POPC   C4B42538  20.100  21.020   7.250
 3135POPC   NC342539  16.966   6.858   5.542
 3135POPC   PO442540  16.746   6.227   5.379
 3135POPC   GL142541  16.621   6.498   5.708
 3135POPC   GL242542  16.917   6.457   5.861
 3135POPC   C1A42543  16.586   6.767   6.122
 3135POPC   D2A42544  16.799   6.911   6.545
 3135POPC   C3A42545  16.611   6.744   6.907
 3135POPC   C4A42546  16.564   6.616   7.335
 3135POPC   C1B42547  17.054   6.562   6.258
 3135POPC   C2B42548  17.075   6.348   6.663
 3135POPC   C3B42549  17.038   6.499   7.064
 3135POPC   C4B42550  16.989   6.889   7.254
 3136POPC   NC342551  27.276   8.155   5.457
 3136POPC   PO442552  27.876   7.867   5.596
 3136POPC   GL142553  27.512   8.083   5.909
 3136POPC   GL242554  27.315   8.419   5.880
 3136POPC   C1A42555  27.666   8.281   6.265
 3136POPC   D2A42556  27.830   8.102   6.612
 3136POPC   C3A42557  27.791   8.262   7.001
 3136POPC   C4A42558  27.715   8.097   7.412
 3136POPC   C1B42559  27.154   8.259   6.246
 3136POPC   C2B42560  27.329   8.227   6.650
 3136POPC   C3B42561  27.326   8.058   7.051
 3136POPC   C4B42562  27.123   8.204   7.394
 3137POPC   NC342563  37.182  10.994   5.572
 3137POPC   PO442564  36.716  10.409   5.381
 3137POPC   GL142565  36.852  10.504   5.784
 3137POPC   GL242566  37.166  10.573   5.842
 3137POPC   C1A42567  36.755  10.573   6.202
 3137POPC   D2A42568  36.907  10.479   6.610
 3137POPC   C3A42569  36.763  10.676   6.978
 3137POPC   C4A42570  36.647  10.321   7.240
 3137POPC   C1B42571  37.250  10.680   6.252
 3137POPC   C2B42572  37.250  10.835   6.660
 3137POPC   C3B42573  37.281  10.573   7.011
 3137POPC   C4B42574  37.155  10.181   7.178
 3138POPC   NC342575  26.071  29.404   5.483
 3138POPC   PO442576  25.720  28.873   5.761
 3138POPC   GL142577  26.041  29.080   5.916
 3138POPC   GL242578  26.147  29.437   5.987
 3138POPC   C1A42579  26.096  29.073   6.355
 3138POPC   D2A42580  26.026  29.328   6.700
 3138POPC   C3A42581  26.106  29.093   7.090
 3138POPC   C4A42582  26.244  28.954   7.489
 3138POPC   C1B42583  25.729  29.400   6.203
 3138POPC   C2B42584  25.538  29.472   6.619
 3138POPC   C3B42585  25.662  29.407   7.051
 3138POPC   C4B42586  26.064  29.601   7.143
 3139POPC   NC342587  42.937   3.481   5.602
 3139POPC   PO442588  43.509   3.722   5.442
 3139POPC   GL142589  43.283   3.793   5.806
 3139POPC   GL242590  42.953   3.930   5.831
 3139POPC   C1A42591  43.335   3.669   6.209
 3139POPC   D2A42592  43.067   3.406   6.444
 3139POPC   C3A42593  43.184   3.289   6.858
 3139POPC   C4A42594  43.050   3.380   7.271
 3139POPC   C1B42595  42.890   3.910   6.283
 3139POPC   C2B42596  43.174   3.868   6.663
 3139POPC   C3B42597  43.335   3.751   7.075
 3139POPC   C4B42598  43.024   3.867   7.401
 3140POPC   NC342599  26.346  34.050   5.541
 3140POPC   PO442600  26.922  33.656   5.410
 3140POPC   GL142601  26.695  33.742   5.750
 3140POPC   GL242602  26.452  33.489   5.762
 3140POPC   C1A42603  26.774  34.009   6.113
 3140POPC   D2A42604  26.984  34.212   6.476
 3140POPC   C3A42605  26.910  34.028   6.870
 3140POPC   C4A42606  27.121  34.094   7.237
 3140POPC   C1B42607  26.684  33.487   6.176
 3140POPC   C2B42608  26.884  33.616   6.542
 3140POPC   C3B42609  26.750  33.529   6.951
 3140POPC   C4B42610  26.678  33.816   7.302
 3141POPC   NC342611  32.744  29.902   5.420
 3141POPC   PO442612  33.414  30.038   5.544
 3141POPC   GL142613  33.051  29.848   5.826
 3141POPC   GL242614  32.701  29.645   5.860
 3141POPC   C1A42615  32.884  30.117   6.128
 3141POPC   D2A42616  33.076  30.235   6.522
 3141POPC   C3A42617  32.925  30.089   6.923
 3141POPC   C4A42618  33.091  29.843   7.281
 3141POPC   C1B42619  32.831  29.654   6.310
 3141POPC   C2B42620  32.812  29.635   6.758
 3141POPC   C3B42621  32.661  29.601   7.201
 3141POPC   C4B42622  32.794  29.562   7.627
 3142POPC   NC342623  31.116  38.448   5.553
 3142POPC   PO442624  31.772  38.386   5.369
 3142POPC   GL142625  31.685  38.538   5.762
 3142POPC   GL242626  31.577  38.859   5.759
 3142POPC   C1A42627  31.783  38.486   6.195
 3142POPC   D2A42628  31.607  38.365   6.602
 3142POPC   C3A42629  31.765  38.350   7.019
 3142POPC   C4A42630  31.482  38.420   7.339
 3142POPC   C1B42631  31.339  38.731   6.119
 3142POPC   C2B42632  31.257  38.736   6.557
 3142POPC   C3B42633  31.159  38.769   6.989
 3142POPC   C4B42634  31.350  38.894   7.357
 3143POPC   NC342635   2.817  13.129   5.490
 3143POPC   PO442636   2.419  13.632   5.481
 3143POPC   GL142637   2.735  13.554   5.803
 3143POPC   GL242638   3.004  13.261   5.928
 3143POPC   C1A42639   2.864  13.712   6.182
 3143POPC   D2A42640   2.934  13.987   6.489
 3143POPC   C3A42641   2.772  13.891   6.852
 3143POPC   C4A42642   2.813  13.973   7.259
 3143POPC   C1B42643   2.623  13.248   6.199
 3143POPC   C2B42644   2.604  13.474   6.589
 3143POPC   C3B42645   2.869  13.410   6.944
 3143POPC   C4B42646   2.877  13.379   7.359
 3144POPC   NC342647  23.975  15.275   5.446
 3144POPC   PO442648  23.363  14.991   5.357
 3144POPC   GL142649  23.624  15.114   5.755
 3144POPC   GL242650  23.721  15.497   5.841
 3144POPC   C1A42651  23.903  15.139   6.143
 3144POPC   D2A42652  23.673  15.158   6.519
 3144POPC   C3A42653  23.854  15.105   6.895
 3144POPC   C4A42654  23.708  15.024   7.278
 3144POPC   C1B42655  23.722  15.620   6.299
 3144POPC   C2B42656  23.721  15.613   6.770
 3144POPC   C3B42657  23.573  15.510   7.180
 3144POPC   C4B42658  23.616  15.393   7.616
 3145POPC   NC342659  29.388  30.641   5.416
 3145POPC   PO442660  28.837  31.020   5.148
 3145POPC   GL142661  28.989  31.030   5.654
 3145POPC   GL242662  29.331  30.935   5.840
 3145POPC   C1A42663  28.942  30.914   6.160
 3145POPC   D2A42664  28.983  30.517   6.475
 3145POPC   C3A42665  29.010  30.572   6.940
 3145POPC   C4A42666  28.914  30.961   7.166
 3145POPC   C1B42667  29.356  30.543   6.100
 3145POPC   C2B42668  29.515  30.471   6.524
 3145POPC   C3B42669  29.602  30.506   6.973
 3145POPC   C4B42670  29.375  30.310   7.300
 3146POPC   NC342671   4.866  34.366   5.381
 3146POPC   PO442672   5.499  34.599   5.502
 3146POPC   GL142673   5.333  34.321   5.856
 3146POPC   GL242674   4.989  34.166   5.823
 3146POPC   C1A42675   5.319  34.472   6.286
 3146POPC   D2A42676   5.411  34.771   6.649
 3146POPC   C3A42677   5.201  34.664   7.037
 3146POPC   C4A42678   5.096  34.702   7.473
 3146POPC   C1B42679   4.810  34.295   6.226
 3146POPC   C2B42680   4.936  34.430   6.642
 3146POPC   C3B42681   4.795  34.258   7.042
 3146POPC   C4B42682   4.838  34.284   7.504
 3147POPC   NC342683   0.714  21.544   5.559
 3147POPC   PO442684   0.065  21.688   5.555
 3147POPC   GL142685   0.322  21.472   5.948
 3147POPC   GL242686   0.685  21.381   6.026
 3147POPC   C1A42687   0.286  21.167   6.264
 3147POPC   D2A42688   0.182  21.316   6.650
 3147POPC   C3A42689   0.555  21.382   6.877
 3147POPC   C4A42690   0.402  21.211   7.226
 3147POPC   C1B42691   0.560  21.599   6.388
 3147POPC   C2B42692   0.757  21.837   6.670
 3147POPC   C3B42693   0.954  21.710   7.026
 3147POPC   C4B42694   0.854  21.397   7.320
 3148POPC   NC342695   0.928   5.955   5.330
 3148POPC   PO442696   1.550   5.643   5.326
 3148POPC   GL142697   1.277   5.672   5.725
 3148POPC   GL242698   1.265   6.007   5.850
 3148POPC   C1A42699   1.224   5.626   6.200
 3148POPC   D2A42700   1.390   5.880   6.577
 3148POPC   C3A42701   1.289   5.838   6.983
 3148POPC   C4A42702   1.189   5.930   7.392
 3148POPC   C1B42703   1.027   6.074   6.253
 3148POPC   C2B42704   0.884   5.916   6.643
 3148POPC   C3B42705   0.809   6.095   7.035
 3148POPC   C4B42706   0.818   6.270   7.459
 3149POPC   NC342707  25.438  12.020   5.440
 3149POPC   PO442708  24.817  11.833   5.287
 3149POPC   GL142709  24.966  11.870   5.721
 3149POPC   GL242710  25.050  12.219   5.735
 3149POPC   C1A42711  25.207  11.862   6.131
 3149POPC   D2A42712  25.414  12.036   6.495
 3149POPC   C3A42713  25.386  11.914   6.918
 3149POPC   C4A42714  25.295  12.002   7.335
 3149POPC   C1B42715  25.405  12.319   6.013
 3149POPC   C2B42716  25.642  12.472   6.336
 3149POPC   C3B42717  25.553  12.481   6.742
 3149POPC   C4B42718  25.678  12.290   7.110
 3150POPC   NC342719  43.026  42.536   5.414
 3150POPC   PO442720  43.331  41.962   5.637
 3150POPC   GL142721  43.107  42.182   5.904
 3150POPC   GL242722  43.096  42.535   5.911
 3150POPC   C1A42723  42.989  42.236   6.320
 3150POPC   D2A42724  43.000  42.461   6.682
 3150POPC   C3A42725  43.017  42.191   7.007
 3150POPC   C4A42726  43.158  42.262   7.389
 3150POPC   C1B42727  43.224  42.733   6.291
 3150POPC   C2B42728  43.465  42.701   6.665
 3150POPC   C3B42729  43.315  42.642   7.077
 3150POPC   C4B42730  43.294  42.737   7.517
 3151POPC   NC342731  30.454  34.539   5.370
 3151POPC   PO442732  31.058  34.776   5.514
 3151POPC   GL142733  30.764  34.621   5.781
 3151POPC   GL242734  30.761  34.277   5.751
 3151POPC   C1A42735  30.719  34.797   6.178
 3151POPC   D2A42736  30.896  34.871   6.568
 3151POPC   C3A42737  30.606  34.744   6.902
 3151POPC   C4A42738  30.575  34.836   7.289
 3151POPC   C1B42739  30.570  34.292   6.147
 3151POPC   C2B42740  30.653  34.409   6.537
 3151POPC   C3B42741  30.690  34.236   6.943
 3151POPC   C4B42742  30.695  34.342   7.386
 3152POPC   NC342743  21.042   9.008   5.500
 3152POPC   PO442744  20.463   8.841   5.261
 3152POPC   GL142745  20.554   9.092   5.660
 3152POPC   GL242746  20.650   8.819   5.798
 3152POPC   C1A42747  20.628   9.243   6.108
 3152POPC   D2A42748  20.574   9.036   6.527
 3152POPC   C3A42749  20.778   9.140   6.917
 3152POPC   C4A42750  20.585   9.066   7.315
 3152POPC   C1B42751  20.601   8.637   6.183
 3152POPC   C2B42752  20.805   8.570   6.555
 3152POPC   C3B42753  20.669   8.637   6.960
 3152POPC   C4B42754  20.355   8.607   7.242
 3153POPC   NC342755  14.407  42.511   5.063
 3153POPC   PO442756  14.010  42.134   5.511
 3153POPC   GL142757  14.266  42.422   5.844
 3153POPC   GL242758  14.635  42.460   5.848
 3153POPC   C1A42759  14.330  42.491   6.284
 3153POPC   D2A42760  14.259  42.213   6.646
 3153POPC   C3A42761  14.137  42.395   7.052
 3153POPC   C4A42762  14.427  42.255   7.372
 3153POPC   C1B42763  14.855  42.325   6.263
 3153POPC   C2B42764  14.746  42.383   6.724
 3153POPC   C3B42765  14.934  42.275   7.150
 3153POPC   C4B42766  14.990  42.546   7.525
 3154POPC   NC342767   6.459  28.332   5.443
 3154POPC   PO442768   6.181  28.923   5.475
 3154POPC   GL142769   6.372  28.652   5.842
 3154POPC   GL242770   6.389  28.244   5.923
 3154POPC   C1A42771   6.525  28.602   6.264
 3154POPC   D2A42772   6.387  28.587   6.670
 3154POPC   C3A42773   6.667  28.619   6.954
 3154POPC   C4A42774   6.690  28.404   7.297
 3154POPC   C1B42775   6.744  28.137   6.154
 3154POPC   C2B42776   6.757  28.232   6.595
 3154POPC   C3B42777   6.567  28.056   6.960
 3154POPC   C4B42778   6.826  27.890   7.304
 3155POPC   NC342779  18.701   6.085   5.456
 3155POPC   PO442780  19.305   6.402   5.631
 3155POPC   GL142781  19.090   6.070   5.843
 3155POPC   GL242782  19.287   5.757   5.855
 3155POPC   C1A42783  19.035   5.997   6.276
 3155POPC   D2A42784  18.958   6.196   6.672
 3155POPC   C3A42785  19.111   5.927   7.006
 3155POPC   C4A42786  18.836   5.638   7.175
 3155POPC   C1B42787  19.263   5.542   6.269
 3155POPC   C2B42788  19.106   5.563   6.657
 3155POPC   C3B42789  19.231   5.368   7.023
 3155POPC   C4B42790  19.450   5.638   7.289
 3156POPC   NC342791   0.313   0.420   5.337
 3156POPC   PO442792   0.851   0.059   5.607
 3156POPC   GL142793   0.588   0.401   5.810
 3156POPC   GL242794   0.297   0.645   5.790
 3156POPC   C1A42795   0.560   0.585   6.235
 3156POPC   D2A42796   0.770   0.686   6.630
 3156POPC   C3A42797   0.623   0.484   6.971
 3156POPC   C4A42798   0.511   0.629   7.335
 3156POPC   C1B42799   0.158   0.294   6.082
 3156POPC   C2B42800   0.117   0.435   6.524
 3156POPC   C3B42801   0.130   0.565   6.961
 3156POPC   C4B42802   0.270   0.185   7.222
 3157POPC   NC342803  24.137  42.596   5.546
 3157POPC   PO442804  24.753  42.503   5.676
 3157POPC   GL142805  24.507  42.525   5.994
 3157POPC   GL242806  24.390  42.189   5.951
 3157POPC   C1A42807  24.482  42.525   6.432
 3157POPC   D2A42808  24.412  42.276   6.794
 3157POPC   C3A42809  24.423  42.539   7.163
 3157POPC   C4A42810  24.735  42.623   7.473
 3157POPC   C1B42811  24.726  42.110   6.259
 3157POPC   C2B42812  24.922  42.206   6.667
 3157POPC   C3B42813  24.816  42.183   7.114
 3157POPC   C4B42814  24.412  42.016   7.263
 3158POPC   NC342815   9.673  17.969   5.239
 3158POPC   PO442816   9.671  18.572   5.429
 3158POPC   GL142817   9.616  18.344   5.820
 3158POPC   GL242818   9.649  17.977   5.749
 3158POPC   C1A42819   9.636  18.199   6.253
 3158POPC   D2A42820   9.933  18.221   6.559
 3158POPC   C3A42821   9.843  18.158   7.000
 3158POPC   C4A42822   9.769  18.429   7.383
 3158POPC   C1B42823   9.314  17.877   6.005
 3158POPC   C2B42824   9.216  17.937   6.445
 3158POPC   C3B42825   9.348  18.102   6.863
 3158POPC   C4B42826   9.464  18.009   7.315
 3159POPC   NC342827   3.809  35.904   5.433
 3159POPC   PO442828   4.377  35.972   5.324
 3159POPC   GL142829   4.320  36.141   5.808
 3159POPC   GL242830   4.109  36.473   5.949
 3159POPC   C1A42831   4.414  36.023   6.237
 3159POPC   D2A42832   4.708  35.815   6.528
 3159POPC   C3A42833   4.571  35.923   6.927
 3159POPC   C4A42834   4.438  36.082   7.326
 3159POPC   C1B42835   3.938  36.255   6.301
 3159POPC   C2B42836   3.959  35.967   6.594
 3159POPC   C3B42837   4.043  36.043   7.001
 3159POPC   C4B42838   3.973  36.425   7.165
 3160POPC   NC342839  17.108  42.898   5.536
 3160POPC   PO442840  17.597  43.304   5.408
 3160POPC   GL142841  17.739  43.131   5.843
 3160POPC   GL242842  17.729  42.760   5.903
 3160POPC   C1A42843  17.707  43.145   6.290
 3160POPC   D2A42844  17.518  43.001   6.689
 3160POPC   C3A42845  17.635  42.987   7.153
 3160POPC   C4A42846  17.670  43.012   7.624
 3160POPC   C1B42847  17.324  42.842   6.158
 3160POPC   C2B42848  17.073  42.717   6.540
 3160POPC   C3B42849  17.152  42.787   6.977
 3160POPC   C4B42850  17.218  42.850   7.422
 3161POPC   NC342851  13.708  20.744   5.266
 3161POPC   PO442852  13.314  20.126   5.465
 3161POPC   GL142853  13.394  20.503   5.707
 3161POPC   GL242854  13.726  20.658   5.769
 3161POPC   C1A42855  13.403  20.525   6.158
 3161POPC   D2A42856  13.648  20.349   6.508
 3161POPC   C3A42857  13.688  20.619   6.874
 3161POPC   C4A42858  13.479  20.790   7.250
 3161POPC   C1B42859  13.891  20.706   6.195
 3161POPC   C2B42860  14.048  20.965   6.517
 3161POPC   C3B42861  14.157  20.812   6.877
 3161POPC   C4B42862  14.015  20.863   7.299
 3162POPC   NC342863  24.760  17.100   5.463
 3162POPC   PO442864  25.152  17.747   5.343
 3162POPC   GL142865  25.250  17.632   5.731
 3162POPC   GL242866  25.584  17.764   5.699
 3162POPC   C1A42867  25.096  17.583   6.125
 3162POPC   D2A42868  25.026  17.449   6.531
 3162POPC   C3A42869  25.198  17.513   6.949
 3162POPC   C4A42870  25.045  17.497   7.393
 3162POPC   C1B42871  25.517  17.958   6.101
 3162POPC   C2B42872  25.351  17.862   6.484
 3162POPC   C3B42873  25.365  18.007   6.895
 3162POPC   C4B42874  25.322  17.915   7.317
 3163POPC   NC342875  36.472  30.120   5.527
 3163POPC   PO442876  35.756  29.943   5.472
 3163POPC   GL142877  35.991  29.904   5.829
 3163POPC   GL242878  36.260  29.746   5.823
 3163POPC   C1A42879  35.961  30.089   6.219
 3163POPC   D2A42880  35.948  30.301   6.592
 3163POPC   C3A42881  35.938  30.098   6.965
 3163POPC   C4A42882  36.280  30.158   7.239
 3163POPC   C1B42883  36.374  29.805   6.223
 3163POPC   C2B42884  36.195  29.836   6.602
 3163POPC   C3B42885  36.291  29.711   6.972
 3163POPC   C4B42886  36.321  29.565   7.378
 3164POPC   NC342887  42.555  44.738   5.067
 3164POPC   PO442888  41.914  44.803   5.413
 3164POPC   GL142889  42.149  44.541   5.720
 3164POPC   GL242890  42.511  44.622   5.736
 3164POPC   C1A42891  42.191  44.652   6.183
 3164POPC   D2A42892  42.353   0.028   6.443
 3164POPC   C3A42893  42.204   0.083   6.890
 3164POPC   C4A42894  42.218  44.769   7.244
 3164POPC   C1B42895  42.700  44.660   6.159
 3164POPC   C2B42896  42.636  44.448   6.574
 3164POPC   C3B42897  42.432  44.295   6.970
 3164POPC   C4B42898  42.536  44.389   7.380
 3165POPC   NC342899  13.372  14.915   5.562
 3165POPC   PO442900  13.697  15.470   5.411
 3165POPC   GL142901  13.436  15.404   5.801
 3165POPC   GL242902  13.667  15.149   5.915
 3165POPC   C1A42903  13.369  15.348   6.277
 3165POPC   D2A42904  13.590  15.265   6.653
 3165POPC   C3A42905  13.424  14.908   6.831
 3165POPC   C4A42906  13.257  14.946   7.215
 3165POPC   C1B42907  13.610  14.875   6.277
 3165POPC   C2B42908  13.891  14.813   6.603
 3165POPC   C3B42909  13.905  14.984   6.997
 3165POPC   C4B42910  13.745  15.028   7.418
 3166POPC   NC342911  22.773  10.273   5.430
 3166POPC   PO442912  22.783  10.976   5.323
 3166POPC   GL142913  22.768  10.699   5.723
 3166POPC   GL242914  23.086  10.567   5.787
 3166POPC   C1A42915  22.707  10.537   6.152
 3166POPC   D2A42916  23.019  10.588   6.483
 3166POPC   C3A42917  22.854  10.594   6.869
 3166POPC   C4A42918  22.836  10.661   7.300
 3166POPC   C1B42919  23.163  10.250   6.121
 3166POPC   C2B42920  23.344  10.180   6.557
 3166POPC   C3B42921  23.187  10.252   6.995
 3166POPC   C4B42922  23.206  10.163   7.437
 3167POPC   NC342923   6.399  16.392   5.274
 3167POPC   PO442924   6.739  17.001   5.222
 3167POPC   GL142925   6.552  16.817   5.628
 3167POPC   GL242926   6.704  16.523   5.740
 3167POPC   C1A42927   6.456  16.789   6.114
 3167POPC   D2A42928   6.704  16.879   6.515
 3167POPC   C3A42929   6.594  16.750   6.948
 3167POPC   C4A42930   6.532  16.654   7.372
 3167POPC   C1B42931   6.772  16.383   6.189
 3167POPC   C2B42932   6.713  16.356   6.655
 3167POPC   C3B42933   6.780  16.275   7.134
 3167POPC   C4B42934   6.886  16.329   7.578
 3168POPC   NC342935  15.793  17.915   5.404
 3168POPC   PO442936  15.617  17.327   5.641
 3168POPC   GL142937  15.627  17.745   5.853
 3168POPC   GL242938  15.970  17.719   5.996
 3168POPC   C1A42939  15.602  17.926   6.266
 3168POPC   D2A42940  15.826  17.830   6.656
 3168POPC   C3A42941  15.676  17.749   7.096
 3168POPC   C4A42942  15.753  17.548   7.526
 3168POPC   C1B42943  15.750  17.436   6.330
 3168POPC   C2B42944  15.713  17.331   6.787
 3168POPC   C3B42945  16.023  17.349   7.147
 3168POPC   C4B42946  16.276  17.457   7.532
 3169POPC   NC342947  17.080  31.360   5.477
 3169POPC   PO442948  17.688  31.125   5.384
 3169POPC   GL142949  17.554  31.292   5.795
 3169POPC   GL242950  17.323  31.548   5.901
 3169POPC   C1A42951  17.734  31.434   6.195
 3169POPC   D2A42952  17.828  31.711   6.533
 3169POPC   C3A42953  17.744  31.587   6.986
 3169POPC   C4A42954  17.542  31.455   7.370
 3169POPC   C1B42955  17.227  31.371   6.259
 3169POPC   C2B42956  17.369  31.478   6.663
 3169POPC   C3B42957  17.145  31.403   7.061
 3169POPC   C4B42958  17.081  31.298   7.541
 3170POPC   NC342959  38.737  24.611   5.385
 3170POPC   PO442960  38.074  24.343   5.460
 3170POPC   GL142961  38.378  24.548   5.773
 3170POPC   GL242962  38.681  24.351   5.863
 3170POPC   C1A42963  38.590  24.769   6.161
 3170POPC   D2A42964  38.666  25.042   6.542
 3170POPC   C3A42965  38.562  24.846   6.935
 3170POPC   C4A42966  38.813  24.577   7.150
 3170POPC   C1B42967  38.318  24.262   6.178
 3170POPC   C2B42968  38.166  24.119   6.586
 3170POPC   C3B42969  38.021  24.257   6.984
 3170POPC   C4B42970  38.312  24.448   7.276
 3171POPC   NC342971  32.829  38.500   5.344
 3171POPC   PO442972  33.471  38.451   5.274
 3171POPC   GL142973  33.194  38.433   5.691
 3171POPC   GL242974  32.840  38.393   5.830
 3171POPC   C1A42975  33.215  38.452   6.151
 3171POPC   D2A42976  33.033  38.308   6.528
 3171POPC   C3A42977  33.256  38.407   6.926
 3171POPC   C4A42978  33.141  38.677   7.244
 3171POPC   C1B42979  32.618  38.200   6.170
 3171POPC   C2B42980  32.602  38.018   6.597
 3171POPC   C3B42981  32.755  38.237   6.968
 3171POPC   C4B42982  32.666  38.421   7.349
 3172POPC   NC342983  42.437  25.541   5.369
 3172POPC   PO442984  42.133  26.197   5.376
 3172POPC   GL142985  42.287  25.957   5.716
 3172POPC   GL242986  42.005  25.720   5.730
 3172POPC   C1A42987  42.396  26.106   6.146
 3172POPC   D2A42988  42.234  26.064   6.565
 3172POPC   C3A42989  42.511  25.995   6.922
 3172POPC   C4A42990  42.475  26.182   7.334
 3172POPC   C1B42991  41.899  25.956   6.098
 3172POPC   C2B42992  41.789  25.831   6.535
 3172POPC   C3B42993  41.990  25.798   6.957
 3172POPC   C4B42994  42.269  25.691   7.317
 3173POPC   NC342995  27.372  35.342   5.517
 3173POPC   PO442996  27.956  34.986   5.411
 3173POPC   GL142997  27.890  35.188   5.821
 3173POPC   GL242998  27.756  35.522   5.849
 3173POPC   C1A42999  27.749  35.194   6.248
 3173POPC   D2A43000  27.509  35.188   6.626
 3173POPC   C3A43001  27.807  35.279   6.990
 3173POPC   C4A43002  27.715  35.464   7.383
 3173POPC   C1B43003  27.408  35.603   6.157
 3173POPC   C2B43004  27.484  35.720   6.591
 3173POPC   C3B43005  27.364  35.525   7.000
 3173POPC   C4B43006  27.152  35.587   7.358
 3174POPC   NC343007  29.104  33.356   5.257
 3174POPC   PO443008  29.322  32.717   5.482
 3174POPC   GL143009  29.107  32.894   5.816
 3174POPC   GL243010  28.792  33.025   5.722
 3174POPC   C1A43011  29.186  33.002   6.238
 3174POPC   D2A43012  29.115  33.179   6.634
 3174POPC   C3A43013  29.222  32.903   6.960
 3174POPC   C4A43014  29.495  33.067   7.250
 3174POPC   C1B43015  28.799  33.314   6.090
 3174POPC   C2B43016  28.857  33.571   6.432
 3174POPC   C3B43017  28.838  33.563   6.888
 3174POPC   C4B43018  28.993  33.291   7.237
 3175POPC   NC343019  39.505  10.362   5.525
 3175POPC   PO443020  39.095  10.945   5.320
 3175POPC   GL143021  39.107  10.686   5.730
 3175POPC   GL243022  38.911  10.403   5.647
 3175POPC   C1A43023  39.260  10.672   6.204
 3175POPC   D2A43024  39.376  10.584   6.664
 3175POPC   C3A43025  39.196  10.770   7.037
 3175POPC   C4A43026  39.271  10.760   7.502
 3175POPC   C1B43027  38.909  10.297   6.076
 3175POPC   C2B43028  38.920  10.368   6.521
 3175POPC   C3B43029  38.976  10.208   6.945
 3175POPC   C4B43030  39.286  10.282   7.237
 3176POPC   NC343031  26.403   8.642   5.442
 3176POPC   PO443032  26.263   7.974   5.286
 3176POPC   GL143033  26.076   7.936   5.708
 3176POPC   GL243034  26.403   7.926   5.820
 3176POPC   C1A43035  25.778   8.015   6.066
 3176POPC   D2A43036  25.805   8.332   6.369
 3176POPC   C3A43037  25.776   8.251   6.805
 3176POPC   C4A43038  25.826   8.309   7.207
 3176POPC   C1B43039  26.257   8.292   6.095
 3176POPC   C2B43040  26.305   8.412   6.572
 3176POPC   C3B43041  26.335   8.255   7.010
 3176POPC   C4B43042  26.245   8.037   7.422
 3177POPC   NC343043  37.320   1.303   5.263
 3177POPC   PO443044  37.939   1.340   5.553
 3177POPC   GL143045  37.570   1.411   5.694
 3177POPC   GL243046  37.398   1.130   5.747
 3177POPC   C1A43047  37.538   1.517   6.085
 3177POPC   D2A43048  37.928   1.462   6.307
 3177POPC   C3A43049  37.917   1.606   6.727
 3177POPC   C4A43050  37.823   1.479   7.137
 3177POPC   C1B43051  37.623   1.003   6.137
 3177POPC   C2B43052  37.615   1.172   6.583
 3177POPC   C3B43053  37.738   0.996   6.993
 3177POPC   C4B43054  37.478   1.140   7.342
 3178POPC   NC343055  35.209  25.532   5.281
 3178POPC   PO443056  35.508  25.004   5.374
 3178POPC   GL143057  35.364  25.279   5.754
 3178POPC   GL243058  35.168  25.625   5.782
 3178POPC   C1A43059  35.480  25.332   6.201
 3178POPC   D2A43060  35.674  25.279   6.612
 3178POPC   C3A43061  35.526  25.399   7.004
 3178POPC   C4A43062  35.204  25.307   7.266
 3178POPC   C1B43063  35.034  25.546   6.220
 3178POPC   C2B43064  35.162  25.558   6.660
 3178POPC   C3B43065  34.878  25.610   7.013
 3178POPC   C4B43066  34.842  25.615   7.436
 3179POPC   NC343067  25.000  30.981   5.511
 3179POPC   PO443068  24.855  30.412   5.407
 3179POPC   GL143069  25.103  30.608   5.818
 3179POPC   GL243070  25.438  30.768   5.711
 3179POPC   C1A43071  25.347  30.653   6.228
 3179POPC   D2A43072  25.423  30.486   6.651
 3179POPC   C3A43073  25.283  30.618   7.070
 3179POPC   C4A43074  25.112  31.002   7.151
 3179POPC   C1B43075  25.339  31.119   6.032
 3179POPC   C2B43076  25.278  31.156   6.441
 3179POPC   C3B43077  25.486  30.988   6.768
 3179POPC   C4B43078  25.653  31.123   7.133
 3180POPC   NC343079   9.395  35.952   5.366
 3180POPC   PO443080   9.857  36.439   5.193
 3180POPC   GL143081   9.777  36.362   5.656
 3180POPC   GL243082   9.719  36.040   5.774
 3180POPC   C1A43083   9.681  36.416   6.132
 3180POPC   D2A43084   9.786  36.442   6.591
 3180POPC   C3A43085   9.565  36.224   6.917
 3180POPC   C4A43086   9.693  36.173   7.356
 3180POPC   C1B43087   9.867  35.959   6.224
 3180POPC   C2B43088   9.922  35.947   6.660
 3180POPC   C3B43089   9.818  35.796   7.051
 3180POPC   C4B43090   9.752  35.402   7.223
 3181POPC   NC343091   5.661  34.169   5.491
 3181POPC   PO443092   5.902  33.587   5.398
 3181POPC   GL143093   5.824  33.744   5.767
 3181POPC   GL243094   6.037  34.001   5.835
 3181POPC   C1A43095   5.681  33.887   6.181
 3181POPC   D2A43096   5.860  33.763   6.557
 3181POPC   C3A43097   5.736  33.899   6.964
 3181POPC   C4A43098   5.446  33.709   7.167
 3181POPC   C1B43099   6.189  33.628   6.119
 3181POPC   C2B43100   6.300  33.529   6.576
 3181POPC   C3B43101   6.237  33.820   6.924
 3181POPC   C4B43102   6.135  34.210   7.177
 3182POPC   NC343103  42.228  36.253   5.364
 3182POPC   PO443104  42.831  36.094   5.418
 3182POPC   GL143105  42.582  36.269   5.744
 3182POPC   GL243106  42.423  35.995   5.771
 3182POPC   C1A43107  42.457  36.317   6.185
 3182POPC   D2A43108  42.500  36.047   6.547
 3182POPC   C3A43109  42.469  36.234   6.939
 3182POPC   C4A43110  42.539  36.247   7.384
 3182POPC   C1B43111  42.080  35.978   6.062
 3182POPC   C2B43112  42.065  35.795   6.482
 3182POPC   C3B43113  42.034  35.919   6.882
 3182POPC   C4B43114  42.271  35.856   7.216
 3183POPC   NC343115  12.326  44.921   5.402
 3183POPC   PO443116  11.674  44.602   5.471
 3183POPC   GL143117  12.040  44.720   5.783
 3183POPC   GL243118  12.221  44.444   5.926
 3183POPC   C1A43119  12.234  44.839   6.226
 3183POPC   D2A43120  12.306  44.972   6.661
 3183POPC   C3A43121  12.292  44.627   6.960
 3183POPC   C4A43122  12.225  44.713   7.380
 3183POPC   C1B43123  11.819  44.516   6.190
 3183POPC   C2B43124  11.831  44.783   6.594
 3183POPC   C3B43125  11.798  44.758   7.074
 3183POPC   C4B43126  11.798  44.487   7.496
 3184POPC   NC343127  26.913  11.571   5.685
 3184POPC   PO443128  26.987  10.975   5.494
 3184POPC   GL143129  27.168  11.130   5.890
 3184POPC   GL243130  27.227  11.487   6.081
 3184POPC   C1A43131  26.985  11.077   6.288
 3184POPC   D2A43132  26.717  11.148   6.629
 3184POPC   C3A43133  26.807  11.367   7.015
 3184POPC   C4A43134  26.557  11.248   7.396
 3184POPC   C1B43135  26.929  11.622   6.426
 3184POPC   C2B43136  26.519  11.632   6.666
 3184POPC   C3B43137  26.398  11.665   7.112
 3184POPC   C4B43138  26.717  11.717   7.459
 3185POPC   NC343139  41.178  34.809   5.473
 3185POPC   PO443140  41.720  34.414   5.538
 3185POPC   GL143141  41.371  34.468   5.826
 3185POPC   GL243142  41.507  34.767   5.906
 3185POPC   C1A43143  41.177  34.542   6.226
 3185POPC   D2A43144  41.393  34.740   6.554
 3185POPC   C3A43145  41.396  34.560   6.969
 3185POPC   C4A43146  41.197  34.374   7.345
 3185POPC   C1B43147  41.707  34.453   6.224
 3185POPC   C2B43148  41.838  34.517   6.654
 3185POPC   C3B43149  41.929  34.668   7.060
 3185POPC   C4B43150  41.909  34.503   7.479
 3186POPC   NC343151   6.586  10.804   5.607
 3186POPC   PO443152   6.861  10.101   5.426
 3186POPC   GL143153   6.581  10.294   5.733
 3186POPC   GL243154   6.835  10.478   5.911
 3186POPC   C1A43155   6.421  10.457   6.162
 3186POPC   D2A43156   6.597  10.632   6.574
 3186POPC   C3A43157   6.447  10.412   6.952
 3186POPC   C4A43158   6.215  10.509   7.320
 3186POPC   C1B43159   7.002  10.763   6.248
 3186POPC   C2B43160   7.068  10.882   6.690
 3186POPC   C3B43161   6.816  10.773   7.055
 3186POPC   C4B43162   6.821  10.427   7.301
 3187POPC   NC343163  13.852  24.771   5.504
 3187POPC   PO443164  13.863  24.107   5.485
 3187POPC   GL143165  13.572  24.252   5.799
 3187POPC   GL243166  13.418  24.596   5.767
 3187POPC   C1A43167  13.684  24.379   6.208
 3187POPC   D2A43168  13.593  24.171   6.595
 3187POPC   C3A43169  13.859  24.287   6.936
 3187POPC   C4A43170  13.610  24.271   7.274
 3187POPC   C1B43171  13.342  24.767   6.190
 3187POPC   C2B43172  13.458  24.662   6.577
 3187POPC   C3B43173  13.495  24.657   6.977
 3187POPC   C4B43174  13.213  24.866   7.178
 3188POPC   NC343175  32.887  13.124   5.144
 3188POPC   PO443176  32.811  13.742   5.316
 3188POPC   GL143177  33.076  13.606   5.692
 3188POPC   GL243178  33.319  13.307   5.630
 3188POPC   C1A43179  33.088  13.657   6.170
 3188POPC   D2A43180  33.120  13.877   6.597
 3188POPC   C3A43181  32.990  13.733   7.011
 3188POPC   C4A43182  32.978  14.019   7.374
 3188POPC   C1B43183  33.465  13.271   6.087
 3188POPC   C2B43184  33.424  13.454   6.533
 3188POPC   C3B43185  33.451  13.425   7.008
 3188POPC   C4B43186  33.325  13.656   7.404
 3189POPC   NC343187   6.355   1.153   5.548
 3189POPC   PO443188   6.932   1.159   5.320
 3189POPC   GL143189   6.809   1.028   5.769
 3189POPC   GL243190   6.697   1.339   5.891
 3189POPC   C1A43191   6.760   0.994   6.249
 3189POPC   D2A43192   6.878   1.312   6.544
 3189POPC   C3A43193   6.934   1.127   6.938
 3189POPC   C4A43194   6.911   1.269   7.410
 3189POPC   C1B43195   6.439   1.378   6.264
 3189POPC   C2B43196   6.412   1.149   6.677
 3189POPC   C3B43197   6.518   1.388   7.071
 3189POPC   C4B43198   6.442   1.372   7.526
 3190POPC   NC343199  44.318  29.227   5.419
 3190POPC   PO443200  43.618  29.162   5.241
 3190POPC   GL143201  43.704  29.267   5.740
 3190POPC   GL243202  44.031  29.180   5.856
 3190POPC   C1A43203  43.645  29.105   6.180
 3190POPC   D2A43204  43.826  28.827   6.464
 3190POPC   C3A43205  43.895  29.080   6.822
 3190POPC   C4A43206  43.882  29.032   7.262
 3190POPC   C1B43207  44.161  29.194   6.316
 3190POPC   C2B43208  44.357  29.304   6.739
 3190POPC   C3B43209  44.327  29.290   7.214
 3190POPC   C4B43210  44.147  29.345   7.629
 3191POPC   NC343211  39.511  44.456   5.397
 3191POPC   PO443212  38.996  44.846   5.469
 3191POPC   GL143213  39.194  44.646   5.774
 3191POPC   GL243214  39.192  44.262   5.737
 3191POPC   C1A43215  39.149  44.838   6.163
 3191POPC   D2A43216  39.136  44.664   6.559
 3191POPC   C3A43217  39.030  44.933   6.862
 3191POPC   C4A43218  39.109  44.858   7.280
 3191POPC   C1B43219  39.050  44.320   6.164
 3191POPC   C2B43220  38.996  44.174   6.601
 3191POPC   C3B43221  39.067  44.385   7.018
 3191POPC   C4B43222  39.128  44.390   7.474
 3192POPC   NC343223   0.757  17.556   5.540
 3192POPC   PO443224   0.162  17.540   5.376
 3192POPC   GL143225   0.309  17.524   5.792
 3192POPC   GL243226   0.123  17.239   5.830
 3192POPC   C1A43227   0.523  17.728   6.188
 3192POPC   D2A43228   0.713  17.801   6.630
 3192POPC   C3A43229   0.438  17.605   6.966
 3192POPC   C4A43230   0.358  17.430   7.390
 3192POPC   C1B43231   0.339  17.250   6.230
 3192POPC   C2B43232   0.165  17.373   6.604
 3192POPC   C3B43233   0.156  17.181   6.993
 3192POPC   C4B43234   0.524  16.981   7.144
 3193POPC   NC343235   4.412   7.183   5.409
 3193POPC   PO443236   4.088   7.809   5.377
 3193POPC   GL143237   4.286   7.597   5.754
 3193POPC   GL243238   4.609   7.718   5.940
 3193POPC   C1A43239   4.160   7.661   6.197
 3193POPC   D2A43240   4.376   7.627   6.605
 3193POPC   C3A43241   4.207   7.370   6.938
 3193POPC   C4A43242   4.125   7.487   7.360
 3193POPC   C1B43243   4.607   7.350   6.221
 3193POPC   C2B43244   4.635   7.146   6.618
 3193POPC   C3B43245   4.651   7.052   7.039
 3193POPC   C4B43246   4.609   7.360   7.303
 3194POPC   NC343247  13.946  44.608   5.449
 3194POPC   PO443248  13.250  44.384   5.532
 3194POPC   GL143249  13.504  44.591   5.861
 3194POPC   GL243250  13.442  44.919   5.860
 3194POPC   C1A43251  13.620  44.746   6.310
 3194POPC   D2A43252  13.545  44.482   6.667
 3194POPC   C3A43253  13.779  44.499   7.075
 3194POPC   C4A43254  13.900  44.842   7.391
 3194POPC   C1B43255  13.117  44.719   6.170
 3194POPC   C2B43256  13.110  44.757   6.603
 3194POPC   C3B43257  13.275  44.760   7.015
 3194POPC   C4B43258  13.323  44.422   7.306
 3195POPC   NC343259  37.738  33.309   5.291
 3195POPC   PO443260  37.570  32.631   5.184
 3195POPC   GL143261  37.557  32.894   5.620
 3195POPC   GL243262  37.337  32.733   5.859
 3195POPC   C1A43263  37.813  32.979   6.052
 3195POPC   D2A43264  37.913  32.924   6.530
 3195POPC   C3A43265  37.872  33.278   6.860
 3195POPC   C4A43266  37.711  33.208   7.269
 3195POPC   C1B43267  37.338  33.029   6.225
 3195POPC   C2B43268  37.430  33.117   6.638
 3195POPC   C3B43269  37.614  32.848   6.936
 3195POPC   C4B43270  37.424  32.743   7.297
 3196POPC   NC343271   7.393  19.294   5.359
 3196POPC   PO443272   7.241  18.669   5.519
 3196POPC   GL143273   7.213  18.917   5.869
 3196POPC   GL243274   7.333  19.251   5.849
 3196POPC   C1A43275   7.444  18.963   6.267
 3196POPC   D2A43276   7.507  19.036   6.698
 3196POPC   C3A43277   7.808  18.872   6.991
 3196POPC   C4A43278   7.641  18.906   7.408
 3196POPC   C1B43279   7.046  19.277   6.186
 3196POPC   C2B43280   7.031  19.252   6.609
 3196POPC   C3B43281   7.240  19.382   6.976
 3196POPC   C4B43282   7.376  19.354   7.369
 3197POPC   NC343283   9.909  25.570   5.589
 3197POPC   PO443284   9.403  25.174   5.363
 3197POPC   GL143285   9.479  24.970   5.744
 3197POPC   GL243286   9.677  25.213   5.897
 3197POPC   C1A43287   9.384  24.918   6.176
 3197POPC   D2A43288   9.615  25.036   6.530
 3197POPC   C3A43289   9.451  25.037   6.942
 3197POPC   C4A43290   9.718  25.274   7.182
 3197POPC   C1B43291   9.914  25.378   6.267
 3197POPC   C2B43292  10.168  25.624   6.554
 3197POPC   C3B43293  10.064  25.606   6.968
 3197POPC   C4B43294  10.221  25.419   7.275
 3198POPC   NC343295  32.694  39.440   5.659
 3198POPC   PO443296  33.324  39.152   5.512
 3198POPC   GL143297  33.112  38.944   5.876
 3198POPC   GL243298  32.753  38.901   5.808
 3198POPC   C1A43299  33.018  39.157   6.298
 3198POPC   D2A43300  32.725  39.443   6.560
 3198POPC   C3A43301  32.726  39.346   7.015
 3198POPC   C4A43302  33.147  39.177   7.151
 3198POPC   C1B43303  32.785  38.709   6.246
 3198POPC   C2B43304  32.896  38.800   6.691
 3198POPC   C3B43305  32.681  38.839   7.066
 3198POPC   C4B43306  32.803  39.007   7.476
 3199POPC   NC343307  31.764  27.093   5.454
 3199POPC   PO443308  31.462  26.515   5.502
 3199POPC   GL143309  31.568  26.760   5.868
 3199POPC   GL243310  31.339  27.007   5.879
 3199POPC   C1A43311  31.581  26.641   6.334
 3199POPC   D2A43312  31.500  26.878   6.726
 3199POPC   C3A43313  31.545  26.701   7.146
 3199POPC   C4A43314  31.617  26.408   7.501
 3199POPC   C1B43315  31.421  27.144   6.261
 3199POPC   C2B43316  31.419  27.405   6.603
 3199POPC   C3B43317  31.373  27.309   6.976
 3199POPC   C4B43318  31.366  27.132   7.356
 3200POPC   NC343319  44.050  19.367   5.416
 3200POPC   PO443320  43.624  18.889   5.361
 3200POPC   GL143321  43.649  19.159   5.726
 3200POPC   GL243322  43.975  19.041   5.813
 3200POPC   C1A43323  43.573  19.043   6.169
 3200POPC   D2A43324  43.803  19.081   6.549
 3200POPC   C3A43325  43.670  18.921   6.925
 3200POPC   C4A43326  43.845  18.626   7.210
 3200POPC   C1B43327  44.205  19.133   6.183
 3200POPC   C2B43328  44.223  19.342   6.588
 3200POPC   C3B43329  44.140  19.150   6.984
 3200POPC   C4B43330  44.277  19.260   7.430
 3201POPC   NC343331   8.572  23.087   5.412
 3201POPC   PO443332   7.941  22.846   5.257
 3201POPC   GL143333   8.190  22.850   5.660
 3201POPC   GL243334   8.219  23.172   5.795
 3201POPC   C1A43335   8.092  22.720   6.072
 3201POPC   D2A43336   8.123  22.790   6.512
 3201POPC   C3A43337   8.025  22.482   6.804
 3201POPC   C4A43338   8.177  22.592   7.199
 3201POPC   C1B43339   8.270  23.205   6.228
 3201POPC   C2B43340   8.257  23.434   6.616
 3201POPC   C3B43341   8.219  23.332   7.056
 3201POPC   C4B43342   8.517  23.356   7.361
 3202POPC   NC343343  18.464  32.608   5.417
 3202POPC   PO443344  17.975  32.082   5.372
 3202POPC   GL143345  18.220  32.228   5.718
 3202POPC   GL243346  17.916  32.396   5.795
 3202POPC   C1A43347  18.487  32.246   6.105
 3202POPC   D2A43348  18.554  32.524   6.455
 3202POPC   C3A43349  18.499  32.288   6.850
 3202POPC   C4A43350  18.398  32.401   7.249
 3202POPC   C1B43351  17.986  32.201   6.200
 3202POPC   C2B43352  18.084  32.395   6.582
 3202POPC   C3B43353  17.936  32.420   7.028
 3202POPC   C4B43354  17.960  32.298   7.475
 3203POPC   NC343355  10.010  37.786   5.517
 3203POPC   PO443356   9.324  37.808   5.513
 3203POPC   GL143357   9.535  37.543   5.806
 3203POPC   GL243358   9.742  37.269   5.651
 3203POPC   C1A43359   9.720  37.730   6.189
 3203POPC   D2A43360   9.770  37.957   6.577
 3203POPC   C3A43361   9.721  37.737   6.953
 3203POPC   C4A43362   9.926  37.859   7.325
 3203POPC   C1B43363   9.964  37.302   6.064
 3203POPC   C2B43364   9.852  37.351   6.508
 3203POPC   C3B43365   9.983  37.250   6.911
 3203POPC   C4B43366   9.810  37.354   7.315
 3204POPC   NC343367  36.784  11.591   5.415
 3204POPC   PO443368  36.722  10.980   5.661
 3204POPC   GL143369  36.908  11.043   6.008
 3204POPC   GL243370  36.995  11.380   5.878
 3204POPC   C1A43371  36.826  11.026   6.433
 3204POPC   D2A43372  36.996  11.281   6.724
 3204POPC   C3A43373  36.783  11.370   7.071
 3204POPC   C4A43374  36.754  11.054   7.387
 3204POPC   C1B43375  36.991  11.530   6.282
 3204POPC   C2B43376  37.131  11.762   6.621
 3204POPC   C3B43377  37.226  11.620   7.050
 3204POPC   C4B43378  37.087  11.433   7.485
 3205POPC   NC343379   8.146  30.771   5.345
 3205POPC   PO443380   8.094  30.257   5.687
 3205POPC   GL143381   8.276  30.656   5.849
 3205POPC   GL243382   8.475  30.984   5.706
 3205POPC   C1A43383   8.193  30.635   6.285
 3205POPC   D2A43384   8.199  30.378   6.665
 3205POPC   C3A43385   7.962  30.494   7.035
 3205POPC   C4A43386   7.892  30.355   7.449
 3205POPC   C1B43387   8.571  30.980   6.171
 3205POPC   C2B43388   8.559  30.780   6.630
 3205POPC   C3B43389   8.364  30.837   7.057
 3205POPC   C4B43390   8.185  30.757   7.493
 3206POPC   NC343391  41.895  29.986   5.104
 3206POPC   PO443392  42.533  29.945   5.346
 3206POPC   GL143393  42.389  29.929   5.804
 3206POPC   GL243394  42.436  29.582   5.838
 3206POPC   C1A43395  42.067  30.053   6.207
 3206POPC   D2A43396  42.066  30.310   6.576
 3206POPC   C3A43397  42.040  30.044   6.942
 3206POPC   C4A43398  42.211  29.956   7.327
 3206POPC   C1B43399  42.428  29.702   6.252
 3206POPC   C2B43400  42.421  29.898   6.621
 3206POPC   C3B43401  42.494  29.713   6.985
 3206POPC   C4B43402  42.717  29.780   7.325
 3207POPC   NC343403  27.874  11.585   5.434
 3207POPC   PO443404  27.632  12.191   5.146
 3207POPC   GL143405  27.795  12.341   5.599
 3207POPC   GL243406  27.785  12.009   5.764
 3207POPC   C1A43407  27.751  12.426   6.080
 3207POPC   D2A43408  27.683  12.107   6.419
 3207POPC   C3A43409  27.743  12.085   6.876
 3207POPC   C4A43410  27.943  12.316   7.223
 3207POPC   C1B43411  27.786  11.713   6.114
 3207POPC   C2B43412  27.572  11.610   6.483
 3207POPC   C3B43413  27.584  11.591   6.935
 3207POPC   C4B43414  27.192  11.698   7.122
 3208POPC   NC343415  35.800  44.248   5.432
 3208POPC   PO443416  35.140  44.248   5.364
 3208POPC   GL143417  35.433  44.036   5.721
 3208POPC   GL243418  35.584  43.659   5.694
 3208POPC   C1A43419  35.364  44.143   6.172
 3208POPC   D2A43420  35.059  43.974   6.465
 3208POPC   C3A43421  35.149  44.078   6.896
 3208POPC   C4A43422  35.101  43.919   7.317
 3208POPC   C1B43423  35.406  43.628   6.129
 3208POPC   C2B43424  35.515  43.790   6.550
 3208POPC   C3B43425  35.428  43.637   6.972
 3208POPC   C4B43426  35.512  43.643   7.413
 3209POPC   NC343427  29.349  38.687   5.429
 3209POPC   PO443428  28.925  38.193   5.371
 3209POPC   GL143429  29.121  38.200   5.819
 3209POPC   GL243430  29.474  38.204   5.974
 3209POPC   C1A43431  29.026  38.310   6.254
 3209POPC   D2A43432  29.241  38.255   6.645
 3209POPC   C3A43433  28.983  38.388   6.982
 3209POPC   C4A43434  28.844  38.461   7.426
 3209POPC   C1B43435  29.461  38.579   6.286
 3209POPC   C2B43436  29.307  38.764   6.733
 3209POPC   C3B43437  29.285  38.701   7.236
 3209POPC   C4B43438  29.276  38.576   7.687
 3210POPC   NC343439  35.580   4.185   5.594
 3210POPC   PO443440  36.236   3.955   5.496
 3210POPC   GL143441  36.078   4.204   5.823
 3210POPC   GL243442  35.994   4.514   5.699
 3210POPC   C1A43443  36.153   4.194   6.247
 3210POPC   D2A43444  36.256   3.938   6.572
 3210POPC   C3A43445  36.122   4.193   6.858
 3210POPC   C4A43446  36.213   4.209   7.264
 3210POPC   C1B43447  35.925   4.632   6.126
 3210POPC   C2B43448  36.143   4.642   6.541
 3210POPC   C3B43449  36.172   4.679   7.001
 3210POPC   C4B43450  35.897   4.830   7.335
 3211POPC   NC343451  26.271  21.643   5.476
 3211POPC   PO443452  26.093  20.960   5.402
 3211POPC   GL143453  26.195  21.240   5.758
 3211POPC   GL243454  25.841  21.324   5.827
 3211POPC   C1A43455  26.314  21.501   6.125
 3211POPC   D2A43456  26.401  21.646   6.557
 3211POPC   C3A43457  26.173  21.395   6.826
 3211POPC   C4A43458  26.044  21.280   7.203
 3211POPC   C1B43459  25.825  21.625   6.134
 3211POPC   C2B43460  25.883  21.725   6.560
 3211POPC   C3B43461  25.716  21.613   6.957
 3211POPC   C4B43462  25.857  21.735   7.334
 3212POPC   NC343463  43.450  39.157   5.416
 3212POPC   PO443464  42.890  39.630   5.492
 3212POPC   GL143465  43.240  39.504   5.767
 3212POPC   GL243466  43.183  39.173   5.921
 3212POPC   C1A43467  43.411  39.529   6.228
 3212POPC   D2A43468  43.363  39.188   6.602
 3212POPC   C3A43469  43.263  39.328   7.051
 3212POPC   C4A43470  43.214  39.425   7.512
 3212POPC   C1B43471  42.802  38.922   6.114
 3212POPC   C2B43472  42.632  38.880   6.540
 3212POPC   C3B43473  42.878  38.927   6.932
 3212POPC   C4B43474  42.904  38.705   7.309
 3213POPC   NC343475   9.197  14.932   5.618
 3213POPC   PO443476   9.657  15.408   5.389
 3213POPC   GL143477   9.939  15.369   5.735
 3213POPC   GL243478   9.650  15.196   5.872
 3213POPC   C1A43479  10.078  15.325   6.177
 3213POPC   D2A43480   9.839  15.372   6.551
 3213POPC   C3A43481  10.010  15.534   6.922
 3213POPC   C4A43482   9.900  15.266   7.296
 3213POPC   C1B43483   9.635  14.978   6.241
 3213POPC   C2B43484   9.573  14.922   6.678
 3213POPC   C3B43485   9.485  15.011   7.113
 3213POPC   C4B43486   9.552  15.014   7.570
 3214POPC   NC343487  12.201  21.535   5.392
 3214POPC   PO443488  11.579  21.152   5.496
 3214POPC   GL143489  11.717  21.313   5.852
 3214POPC   GL243490  11.841  21.593   5.768
 3214POPC   C1A43491  11.926  21.311   6.232
 3214POPC   D2A43492  12.124  21.224   6.625
 3214POPC   C3A43493  12.388  21.482   6.883
 3214POPC   C4A43494  12.473  21.361   7.314
 3214POPC   C1B43495  11.602  21.708   6.149
 3214POPC   C2B43496  11.671  21.657   6.564
 3214POPC   C3B43497  11.835  21.489   6.947
 3214POPC   C4B43498  12.069  21.741   7.175
 3215POPC   NC343499  12.432  25.512   5.421
 3215POPC   PO443500  11.883  25.175   5.366
 3215POPC   GL143501  12.007  25.038   5.786
 3215POPC   GL243502  12.320  25.230   5.826
 3215POPC   C1A43503  12.116  25.033   6.232
 3215POPC   D2A43504  12.244  24.910   6.619
 3215POPC   C3A43505  12.130  25.226   6.919
 3215POPC   C4A43506  11.795  25.367   7.166
 3215POPC   C1B43507  12.430  25.521   6.162
 3215POPC   C2B43508  12.523  25.426   6.586
 3215POPC   C3B43509  12.534  25.576   6.979
 3215POPC   C4B43510  12.218  25.642   7.244
 3216POPC   NC343511  27.384   6.329   5.381
 3216POPC   PO443512  27.520   6.934   5.535
 3216POPC   GL143513  27.504   6.666   5.817
 3216POPC   GL243514  27.200   6.800   5.972
 3216POPC   C1A43515  27.756   6.727   6.193
 3216POPC   D2A43516  27.575   6.805   6.598
 3216POPC   C3A43517  27.743   6.610   6.969
 3216POPC   C4A43518  28.066   6.750   7.243
 3216POPC   C1B43519  27.341   6.443   6.243
 3216POPC   C2B43520  27.295   6.307   6.653
 3216POPC   C3B43521  27.226   6.628   6.961
 3216POPC   C4B43522  27.366   6.409   7.305
 3217POPC   NC343523  18.512   7.619   5.489
 3217POPC   PO443524  18.154   7.055   5.467
 3217POPC   GL143525  18.227   7.357   5.821
 3217POPC   GL243526  18.012   7.656   5.891
 3217POPC   C1A43527  18.373   7.493   6.226
 3217POPC   D2A43528  18.183   7.375   6.631
 3217POPC   C3A43529  18.352   7.486   7.014
 3217POPC   C4A43530  18.654   7.421   7.271
 3217POPC   C1B43531  17.837   7.503   6.268
 3217POPC   C2B43532  17.706   7.618   6.683
 3217POPC   C3B43533  17.919   7.727   7.041
 3217POPC   C4B43534  18.096   7.669   7.425
 3218POPC   NC343535  44.131  24.155   5.512
 3218POPC   PO443536  43.728  23.638   5.380
 3218POPC   GL143537  43.746  23.879   5.756
 3218POPC   GL243538  43.880  23.567   5.912
 3218POPC   C1A43539  43.558  23.877   6.177
 3218POPC   D2A43540  43.672  23.555   6.473
 3218POPC   C3A43541  43.686  23.662   6.901
 3218POPC   C4A43542  43.666  23.893   7.311
 3218POPC   C1B43543  44.145  23.638   6.263
 3218POPC   C2B43544  44.437  23.629   6.580
 3218POPC   C3B43545  44.201  23.745   6.914
 3218POPC   C4B43546  44.032  23.550   7.268
 3219POPC   NC343547  33.509  33.914   5.433
 3219POPC   PO443548  34.039  33.542   5.209
 3219POPC   GL143549  33.962  33.604   5.679
 3219POPC   GL243550  33.814  33.902   5.851
 3219POPC   C1A43551  34.020  33.528   6.144
 3219POPC   D2A43552  33.998  33.848   6.473
 3219POPC   C3A43553  33.716  33.777   6.833
 3219POPC   C4A43554  33.878  33.843   7.235
 3219POPC   C1B43555  33.592  34.062   6.230
 3219POPC   C2B43556  33.540  34.244   6.657
 3219POPC   C3B43557  33.532  34.211   7.125
 3219POPC   C4B43558  33.568  34.107   7.578
 3220POPC   NC343559  32.502  24.022   5.364
 3220POPC   PO443560  32.670  23.515   5.491
 3220POPC   GL143561  32.376  23.785   5.832
 3220POPC   GL243562  32.370  24.174   5.870
 3220POPC   C1A43563  32.043  23.894   6.203
 3220POPC   D2A43564  31.975  24.113   6.641
 3220POPC   C3A43565  31.959  23.875   7.031
 3220POPC   C4A43566  32.171  23.463   7.101
 3220POPC   C1B43567  32.500  24.043   6.330
 3220POPC   C2B43568  32.359  23.783   6.714
 3220POPC   C3B43569  32.448  23.887   7.183
 3220POPC   C4B43570  32.504  24.035   7.621
 3221POPC   NC343571  13.224  43.221   5.248
 3221POPC   PO443572  13.879  43.070   5.420
 3221POPC   GL143573  13.695  43.192   5.813
 3221POPC   GL243574  13.621  42.858   5.925
 3221POPC   C1A43575  13.779  43.364   6.250
 3221POPC   D2A43576  13.991  43.275   6.662
 3221POPC   C3A43577  13.919  42.987   7.004
 3221POPC   C4A43578  13.933  43.166   7.435
 3221POPC   C1B43579  13.322  43.132   6.167
 3221POPC   C2B43580  13.108  43.253   6.546
 3221POPC   C3B43581  13.190  43.292   6.988
 3221POPC   C4B43582  13.468  43.053   7.245
 3222POPC   NC343583  30.604  37.637   5.381
 3222POPC   PO443584  31.166  37.990   5.632
 3222POPC   GL143585  30.751  37.878   5.820
 3222POPC   GL243586  30.742  37.496   5.848
 3222POPC   C1A43587  30.564  37.791   6.229
 3222POPC   D2A43588  30.739  37.622   6.612
 3222POPC   C3A43589  30.450  37.760   6.921
 3222POPC   C4A43590  30.581  37.946   7.302
 3222POPC   C1B43591  30.552  37.251   6.177
 3222POPC   C2B43592  30.396  37.261   6.595
 3222POPC   C3B43593  30.584  37.250   7.002
 3222POPC   C4B43594  30.855  37.533   7.226
 3223POPC   NC343595  33.672  33.266   5.290
 3223POPC   PO443596  34.047  32.711   5.431
 3223POPC   GL143597  33.999  32.721   5.862
 3223POPC   GL243598  33.640  32.580   5.905
 3223POPC   C1A43599  34.223  32.860   6.251
 3223POPC   D2A43600  34.013  33.089   6.593
 3223POPC   C3A43601  33.861  32.953   7.000
 3223POPC   C4A43602  33.818  33.312   7.279
 3223POPC   C1B43603  33.698  32.733   6.356
 3223POPC   C2B43604  33.419  32.776   6.738
 3223POPC   C3B43605  33.398  32.729   7.191
 3223POPC   C4B43606  33.506  32.641   7.654
 3224POPC   NC343607  19.966  35.730   5.400
 3224POPC   PO443608  19.394  36.177   5.430
 3224POPC   GL143609  19.679  36.011   5.746
 3224POPC   GL243610  20.030  35.940   5.892
 3224POPC   C1A43611  19.569  36.028   6.173
 3224POPC   D2A43612  19.358  35.772   6.487
 3224POPC   C3A43613  19.600  35.884   6.868
 3224POPC   C4A43614  19.582  36.217   7.151
 3224POPC   C1B43615  20.163  35.969   6.319
 3224POPC   C2B43616  20.205  36.299   6.646
 3224POPC   C3B43617  20.097  36.294   7.081
 3224POPC   C4B43618  20.046  35.891   7.163
 3225POPC   NC343619   2.666  39.450   5.275
 3225POPC   PO443620   3.254  39.180   5.342
 3225POPC   GL143621   2.968  39.269   5.757
 3225POPC   GL243622   2.608  39.348   5.795
 3225POPC   C1A43623   2.858  39.121   6.215
 3225POPC   D2A43624   2.568  39.011   6.568
 3225POPC   C3A43625   2.779  39.008   6.958
 3225POPC   C4A43626   3.061  39.352   7.085
 3225POPC   C1B43627   2.475  39.474   6.225
 3225POPC   C2B43628   2.300  39.451   6.653
 3225POPC   C3B43629   2.439  39.374   7.037
 3225POPC   C4B43630   2.462  39.644   7.343
 3226POPC   NC343631   1.589  20.139   5.534
 3226POPC   PO443632   1.110  19.670   5.462
 3226POPC   GL143633   1.291  19.826   5.796
 3226POPC   GL243634   1.083  20.144   5.720
 3226POPC   C1A43635   1.511  19.783   6.179
 3226POPC   D2A43636   1.443  19.521   6.537
 3226POPC   C3A43637   1.429  19.717   6.886
 3226POPC   C4A43638   1.549  19.892   7.233
 3226POPC   C1B43639   0.896  19.927   6.092
 3226POPC   C2B43640   1.063  19.875   6.508
 3226POPC   C3B43641   0.925  19.769   6.932
 3226POPC   C4B43642   1.092  19.635   7.311
 3227POPC   NC343643   2.203  19.478   5.337
 3227POPC   PO443644   1.777  18.927   5.413
 3227POPC   GL143645   1.836  19.235   5.759
 3227POPC   GL243646   2.183  19.233   5.890
 3227POPC   C1A43647   1.808  19.365   6.206
 3227POPC   D2A43648   2.035  19.315   6.598
 3227POPC   C3A43649   1.888  19.153   7.002
 3227POPC   C4A43650   1.959  18.795   7.229
 3227POPC   C1B43651   2.421  19.419   6.270
 3227POPC   C2B43652   2.431  19.631   6.695
 3227POPC   C3B43653   2.435  19.533   7.138
 3227POPC   C4B43654   2.319  19.236   7.462
 3228POPC   NC343655  31.942   4.739   5.701
 3228POPC   PO443656  32.466   4.325   5.534
 3228POPC   GL143657  32.314   4.441   5.926
 3228POPC   GL243658  32.159   4.137   5.909
 3228POPC   C1A43659  32.214   4.662   6.333
 3228POPC   D2A43660  31.849   4.723   6.641
 3228POPC   C3A43661  31.968   4.640   7.067
 3228POPC   C4A43662  32.412   4.632   7.213
 3228POPC   C1B43663  31.981   4.222   6.269
 3228POPC   C2B43664  32.130   4.291   6.683
 3228POPC   C3B43665  32.239   4.187   7.073
 3228POPC   C4B43666  31.967   4.159   7.344
 3229POPC   NC343667  23.650  31.102   5.437
 3229POPC   PO443668  23.858  30.477   5.373
 3229POPC   GL143669  23.859  30.501   5.810
 3229POPC   GL243670  23.655  30.759   5.827
 3229POPC   C1A43671  23.744  30.532   6.265
 3229POPC   D2A43672  23.947  30.772   6.580
 3229POPC   C3A43673  23.797  30.742   6.987
 3229POPC   C4A43674  23.855  30.375   7.220
 3229POPC   C1B43675  23.788  31.039   6.184
 3229POPC   C2B43676  23.547  31.100   6.607
 3229POPC   C3B43677  23.313  30.733   6.831
 3229POPC   C4B43678  23.387  30.585   7.263
 3230POPC   NC343679  34.352  31.692   5.489
 3230POPC   PO443680  33.643  31.797   5.410
 3230POPC   GL143681  33.736  31.471   5.776
 3230POPC   GL243682  34.079  31.308   5.724
 3230POPC   C1A43683  33.573  31.551   6.222
 3230POPC   D2A43684  33.629  31.824   6.583
 3230POPC   C3A43685  33.545  31.665   6.963
 3230POPC   C4A43686  33.714  31.282   7.028
 3230POPC   C1B43687  33.986  31.248   6.176
 3230POPC   C2B43688  33.990  31.461   6.601
 3230POPC   C3B43689  34.144  31.528   7.026
 3230POPC   C4B43690  34.244  31.102   7.154
 3231POPC   NC343691  33.435   0.855   5.649
 3231POPC   PO443692  33.890   1.085   5.184
 3231POPC   GL143693  33.911   1.123   5.665
 3231POPC   GL243694  33.912   1.478   5.651
 3231POPC   C1A43695  33.784   1.038   6.154
 3231POPC   D2A43696  33.608   1.287   6.519
 3231POPC   C3A43697  33.817   1.225   6.909
 3231POPC   C4A43698  33.775   1.028   7.285
 3231POPC   C1B43699  33.848   1.530   6.083
 3231POPC   C2B43700  33.753   1.782   6.430
 3231POPC   C3B43701  33.765   1.739   6.833
 3231POPC   C4B43702  33.872   1.685   7.253
 3232POPC   NC343703   7.146  14.346   5.298
 3232POPC   PO443704   7.780  14.638   5.556
 3232POPC   GL143705   7.395  14.437   5.757
 3232POPC   GL243706   7.039  14.525   5.790
 3232POPC   C1A43707   7.464  14.356   6.185
 3232POPC   D2A43708   7.537  14.333   6.619
 3232POPC   C3A43709   7.525  14.538   7.037
 3232POPC   C4A43710   7.508  14.412   7.460
 3232POPC   C1B43711   7.044  14.113   6.020
 3232POPC   C2B43712   7.026  14.075   6.482
 3232POPC   C3B43713   7.147  14.216   6.907
 3232POPC   C4B43714   7.051  14.506   7.266
 3233POPC   NC343715  12.963  12.909   5.520
 3233POPC   PO443716  12.725  12.288   5.417
 3233POPC   GL143717  12.790  12.519   5.807
 3233POPC   GL243718  13.169  12.544   5.833
 3233POPC   C1A43719  12.845  12.758   6.201
 3233POPC   D2A43720  12.776  13.132   6.440
 3233POPC   C3A43721  12.839  12.975   6.835
 3233POPC   C4A43722  12.709  12.826   7.227
 3233POPC   C1B43723  13.334  12.618   6.236
 3233POPC   C2B43724  13.142  12.593   6.638
 3233POPC   C3B43725  13.173  12.676   7.087
 3233POPC   C4B43726  12.969  12.515   7.502
 3234POPC   NC343727   5.759  44.249   5.545
 3234POPC   PO443728   5.644  43.635   5.288
 3234POPC   GL143729   5.625  43.575   5.737
 3234POPC   GL243730   5.828  43.874   5.895
 3234POPC   C1A43731   5.719  43.463   6.168
 3234POPC   D2A43732   5.771  43.825   6.477
 3234POPC   C3A43733   5.805  43.822   6.917
 3234POPC   C4A43734   5.800  43.679   7.337
 3234POPC   C1B43735   6.127  44.027   6.204
 3234POPC   C2B43736   6.118  44.209   6.581
 3234POPC   C3B43737   5.913  44.355   6.921
 3234POPC   C4B43738   5.997  44.164   7.315
 3235POPC   NC343739  41.422  30.756   5.318
 3235POPC   PO443740  41.523  30.102   5.398
 3235POPC   GL143741  41.659  30.474   5.691
 3235POPC   GL243742  41.359  30.540   5.873
 3235POPC   C1A43743  41.776  30.803   6.029
 3235POPC   D2A43744  41.870  30.802   6.504
 3235POPC   C3A43745  41.548  30.823   6.843
 3235POPC   C4A43746  41.327  31.052   7.192
 3235POPC   C1B43747  41.596  30.389   6.272
 3235POPC   C2B43748  41.559  30.278   6.709
 3235POPC   C3B43749  41.703  30.401   7.107
 3235POPC   C4B43750  41.696  30.525   7.542
 3236POPC   NC343751  33.160  16.965   5.543
 3236POPC   PO443752  33.031  16.318   5.583
 3236POPC   GL143753  33.057  16.602   5.924
 3236POPC   GL243754  32.747  16.762   5.835
 3236POPC   C1A43755  32.994  16.565   6.379
 3236POPC   D2A43756  32.997  16.446   6.791
 3236POPC   C3A43757  33.228  16.643   7.135
 3236POPC   C4A43758  33.202  16.903   7.482
 3236POPC   C1B43759  32.658  16.923   6.251
 3236POPC   C2B43760  32.591  16.775   6.674
 3236POPC   C3B43761  32.813  16.887   7.036
 3236POPC   C4B43762  32.771  17.167   7.388
 3237POPC   NC343763  28.792  37.840   5.644
 3237POPC   PO443764  29.256  37.355   5.504
 3237POPC   GL143765  29.252  37.674   5.811
 3237POPC   GL243766  28.958  37.472   5.945
 3237POPC   C1A43767  29.176  37.832   6.241
 3237POPC   D2A43768  29.096  37.638   6.626
 3237POPC   C3A43769  29.201  37.902   7.016
 3237POPC   C4A43770  29.313  38.192   7.334
 3237POPC   C1B43771  29.337  37.345   6.190
 3237POPC   C2B43772  29.533  37.349   6.586
 3237POPC   C3B43773  29.305  37.384   6.993
 3237POPC   C4B43774  28.872  37.541   7.133
 3238POPC   NC343775  11.745  35.604   5.066
 3238POPC   PO443776  11.304  35.234   5.415
 3238POPC   GL143777  11.200  35.276   5.832
 3238POPC   GL243778  11.057  34.978   5.895
 3238POPC   C1A43779  11.091  35.348   6.269
 3238POPC   D2A43780  11.005  35.081   6.621
 3238POPC   C3A43781  11.188  35.237   7.018
 3238POPC   C4A43782  11.168  35.167   7.454
 3238POPC   C1B43783  11.423  34.963   6.216
 3238POPC   C2B43784  11.546  35.032   6.686
 3238POPC   C3B43785  11.597  34.951   7.160
 3238POPC   C4B43786  11.664  35.131   7.589
 3239POPC   NC343787   4.166  12.374   5.482
 3239POPC   PO443788   4.518  11.782   5.322
 3239POPC   GL143789   4.484  12.041   5.724
 3239POPC   GL243790   4.139  12.013   5.856
 3239POPC   C1A43791   4.427  12.304   6.131
 3239POPC   D2A43792   4.180  12.256   6.490
 3239POPC   C3A43793   4.324  12.286   6.886
 3239POPC   C4A43794   4.235  12.004   7.216
 3239POPC   C1B43795   3.937  11.827   6.220
 3239POPC   C2B43796   3.770  11.831   6.623
 3239POPC   C3B43797   3.832  11.765   7.037
 3239POPC   C4B43798   3.799  11.771   7.528
 3240POPC   NC343799  44.186  20.976   5.598
 3240POPC   PO443800  44.721  20.593   5.376
 3240POPC   GL143801  44.739  20.663   5.818
 3240POPC   GL243802  44.391  20.568   5.821
 3240POPC   C1A43803  44.653  20.584   6.281
 3240POPC   D2A43804  44.906  20.519   6.671
 3240POPC   C3A43805  44.853  20.913   6.909
 3240POPC   C4A43806  44.958  21.020   7.373
 3240POPC   C1B43807  44.117  20.495   6.142
 3240POPC   C2B43808  44.175  20.400   6.552
 3240POPC   C3B43809  44.432  20.571   6.876
 3240POPC   C4B43810  44.536  20.737   7.281
 3241POPC   NC343811   1.128   4.506   5.392
 3241POPC   PO443812   0.860   3.921   5.414
 3241POPC   GL143813   1.140   4.136   5.781
 3241POPC   GL243814   1.369   4.475   5.851
 3241POPC   C1A43815   1.137   4.242   6.245
 3241POPC   D2A43816   0.909   4.235   6.662
 3241POPC   C3A43817   1.009   4.112   7.101
 3241POPC   C4A43818   0.919   4.104   7.576
 3241POPC   C1B43819   1.568   4.668   6.273
 3241POPC   C2B43820   1.599   4.891   6.725
 3241POPC   C3B43821   1.394   4.845   7.164
 3241POPC   C4B43822   1.046   4.577   7.338
 3242POPC   NC343823  15.993  12.348   5.535
 3242POPC   PO443824  16.142  11.792   5.174
 3242POPC   GL143825  15.967  11.822   5.669
 3242POPC   GL243826  16.105  12.044   5.944
 3242POPC   C1A43827  15.702  11.818   6.119
 3242POPC   D2A43828  15.806  11.734   6.589
 3242POPC   C3A43829  15.652  11.895   6.993
 3242POPC   C4A43830  15.675  12.274   7.278
 3242POPC   C1B43831  16.063  12.123   6.389
 3242POPC   C2B43832  15.947  12.265   6.805
 3242POPC   C3B43833  16.166  12.284   7.171
 3242POPC   C4B43834  16.229  12.252   7.579
 3243POPC   NC343835   4.166  29.418   5.382
 3243POPC   PO443836   4.339  28.721   5.566
 3243POPC   GL143837   4.167  29.085   5.777
 3243POPC   GL243838   4.452  29.315   5.802
 3243POPC   C1A43839   4.021  29.234   6.172
 3243POPC   D2A43840   4.134  29.114   6.590
 3243POPC   C3A43841   4.147  29.366   6.945
 3243POPC   C4A43842   4.067  29.132   7.280
 3243POPC   C1B43843   4.505  29.083   6.182
 3243POPC   C2B43844   4.654  29.065   6.606
 3243POPC   C3B43845   4.474  28.946   6.994
 3243POPC   C4B43846   4.568  28.973   7.428
 3244POPC   NC343847   6.880   0.697   5.358
 3244POPC   PO443848   6.254   0.700   5.525
 3244POPC   GL143849   6.627   0.547   5.821
 3244POPC   GL243850   6.904   0.275   5.845
 3244POPC   C1A43851   6.603   0.466   6.277
 3244POPC   D2A43852   6.412   0.587   6.676
 3244POPC   C3A43853   6.534   0.464   7.066
 3244POPC   C4A43854   6.635   0.878   7.262
 3244POPC   C1B43855   7.050   0.180   6.313
 3244POPC   C2B43856   6.920   0.175   6.767
 3244POPC   C3B43857   6.992   0.099   7.240
 3244POPC   C4B43858   6.904   0.015   7.707
 3245POPC   NC343859  35.590  37.094   5.436
 3245POPC   PO443860  35.315  36.516   5.526
 3245POPC   GL143861  35.558  36.747   5.825
 3245POPC   GL243862  35.332  37.006   5.898
 3245POPC   C1A43863  35.789  37.007   6.150
 3245POPC   D2A43864  35.658  37.143   6.561
 3245POPC   C3A43865  35.450  36.872   6.826
 3245POPC   C4A43866  35.495  36.863   7.245
 3245POPC   C1B43867  35.298  36.833   6.321
 3245POPC   C2B43868  35.001  36.655   6.639
 3245POPC   C3B43869  35.140  36.464   7.021
 3245POPC   C4B43870  35.112  36.566   7.448
 3246POPC   NC343871  34.301  10.986   5.563
 3246POPC   PO443872  33.899  11.435   5.208
 3246POPC   GL143873  33.819  11.410   5.696
 3246POPC   GL243874  34.005  11.662   5.741
 3246POPC   C1A43875  33.757  11.172   6.160
 3246POPC   D2A43876  33.923  11.041   6.582
 3246POPC   C3A43877  33.767  10.936   6.971
 3246POPC   C4A43878  33.805  11.255   7.212
 3246POPC   C1B43879  34.198  11.428   6.062
 3246POPC   C2B43880  34.246  11.483   6.483
 3246POPC   C3B43881  34.024  11.578   6.827
 3246POPC   C4B43882  34.084  11.662   7.231
 3247POPC   NC343883   2.054  14.696   5.400
 3247POPC   PO443884   1.666  14.177   5.488
 3247POPC   GL143885   1.950  14.308   5.772
 3247POPC   GL243886   1.779  14.641   5.848
 3247POPC   C1A43887   2.054  14.170   6.182
 3247POPC   D2A43888   1.998  14.405   6.537
 3247POPC   C3A43889   1.957  14.224   6.936
 3247POPC   C4A43890   2.194  14.310   7.342
 3247POPC   C1B43891   2.186  14.680   6.098
 3247POPC   C2B43892   2.342  14.796   6.518
 3247POPC   C3B43893   2.188  14.674   6.925
 3247POPC   C4B43894   1.749  14.674   7.075
 3248POPC   NC343895  32.424  17.058   5.402
 3248POPC   PO443896  31.856  16.855   5.506
 3248POPC   GL143897  32.196  16.740   5.800
 3248POPC   GL243898  32.318  17.069   5.905
 3248POPC   C1A43899  32.260  16.569   6.232
 3248POPC   D2A43900  32.059  16.669   6.636
 3248POPC   C3A43901  32.190  16.447   6.970
 3248POPC   C4A43902  32.579  16.401   7.057
 3248POPC   C1B43903  31.955  16.996   6.200
 3248POPC   C2B43904  31.892  17.170   6.609
 3248POPC   C3B43905  32.257  17.147   6.879
 3248POPC   C4B43906  32.356  16.880   7.209
 3249POPC   NC343907  29.518   0.482   5.481
 3249POPC   PO443908  28.930   0.257   5.483
 3249POPC   GL143909  29.065   0.413   5.832
 3249POPC   GL243910  29.354   0.227   5.885
 3249POPC   C1A43911  28.972   0.296   6.251
 3249POPC   D2A43912  28.832   0.478   6.608
 3249POPC   C3A43913  28.956   0.275   6.958
 3249POPC   C4A43914  29.064   0.127   7.331
 3249POPC   C1B43915  29.490   0.295   6.264
 3249POPC   C2B43916  29.365   0.394   6.659
 3249POPC   C3B43917  29.488   0.351   7.075
 3249POPC   C4B43918  29.574   0.139   7.442
 3250POPC   NC343919   9.522   1.810   5.399
 3250POPC   PO443920  10.118   2.172   5.357
 3250POPC   GL143921   9.823   2.125   5.717
 3250POPC   GL243922   9.808   1.811   5.823
 3250POPC   C1A43923   9.778   2.175   6.185
 3250POPC   D2A43924   9.946   2.108   6.599
 3250POPC   C3A43925   9.678   2.024   6.915
 3250POPC   C4A43926   9.769   2.152   7.268
 3250POPC   C1B43927   9.622   1.644   6.167
 3250POPC   C2B43928   9.727   1.626   6.583
 3250POPC   C3B43929   9.742   1.520   7.004
 3250POPC   C4B43930   9.572   1.695   7.362
 3251POPC   NC343931  16.356  43.475   5.209
 3251POPC   PO443932  16.671  42.959   5.455
 3251POPC   GL143933  16.689  43.214   5.804
 3251POPC   GL243934  16.409  43.447   5.730
 3251POPC   C1A43935  16.717  43.084   6.264
 3251POPC   D2A43936  16.619  43.176   6.694
 3251POPC   C3A43937  16.663  42.930   7.056
 3251POPC   C4A43938  16.967  43.230   7.202
 3251POPC   C1B43939  16.254  43.214   6.074
 3251POPC   C2B43940  16.194  43.001   6.472
 3251POPC   C3B43941  16.163  43.114   6.927
 3251POPC   C4B43942  16.485  43.386   7.150
 3252POPC   NC343943  27.925  15.261   5.190
 3252POPC   PO443944  27.384  14.900   5.510
 3252POPC   GL143945  27.698  15.203   5.697
 3252POPC   GL243946  27.546  15.517   5.758
 3252POPC   C1A43947  27.929  15.327   6.119
 3252POPC   D2A43948  27.810  15.163   6.553
 3252POPC   C3A43949  27.768  15.022   7.002
 3252POPC   C4A43950  27.791  15.268   7.394
 3252POPC   C1B43951  27.422  15.252   6.178
 3252POPC   C2B43952  27.316  15.051   6.624
 3252POPC   C3B43953  27.266  15.203   7.083
 3252POPC   C4B43954  27.326  15.423   7.504
 3253POPC   NC343955  18.361  38.149   5.345
 3253POPC   PO443956  18.574  37.480   5.445
 3253POPC   GL143957  18.371  37.467   5.865
 3253POPC   GL243958  18.270  37.841   5.861
 3253POPC   C1A43959  18.452  37.623   6.310
 3253POPC   D2A43960  18.477  37.962   6.667
 3253POPC   C3A43961  18.407  37.795   7.053
 3253POPC   C4A43962  18.354  37.346   7.045
 3253POPC   C1B43963  18.002  37.856   6.246
 3253POPC   C2B43964  18.053  37.670   6.664
 3253POPC   C3B43965  17.926  37.624   7.078
 3253POPC   C4B43966  17.566  37.526   7.278
 3254POPC   NC343967  23.057  39.108   5.572
 3254POPC   PO443968  22.506  39.406   5.523
 3254POPC   GL143969  22.628  39.179   5.890
 3254POPC   GL243970  22.703  38.850   5.840
 3254POPC   C1A43971  22.742  39.191   6.356
 3254POPC   D2A43972  22.481  39.346   6.718
 3254POPC   C3A43973  22.635  39.535   7.105
 3254POPC   C4A43974  22.975  39.754   7.364
 3254POPC   C1B43975  23.030  38.787   6.174
 3254POPC   C2B43976  23.026  38.807   6.620
 3254POPC   C3B43977  22.997  39.059   7.018
 3254POPC   C4B43978  22.860  39.228   7.446
 3255POPC   NC343979   7.122  11.759   5.612
 3255POPC   PO443980   7.414  12.227   5.255
 3255POPC   GL143981   7.502  12.323   5.726
 3255POPC   GL243982   7.190  12.384   5.779
 3255POPC   C1A43983   7.564  12.314   6.156
 3255POPC   D2A43984   7.487  12.035   6.481
 3255POPC   C3A43985   7.572  12.288   6.819
 3255POPC   C4A43986   7.646  12.158   7.206
 3255POPC   C1B43987   7.079  12.159   6.151
 3255POPC   C2B43988   7.038  12.270   6.577
 3255POPC   C3B43989   7.114  12.113   6.985
 3255POPC   C4B43990   7.021  11.900   7.390
 3256POPC   NC343991  38.178  23.869   5.401
 3256POPC   PO443992  38.830  24.096   5.282
 3256POPC   GL143993  38.735  23.863   5.736
 3256POPC   GL243994  38.375  23.867   5.853
 3256POPC   C1A43995  38.710  23.855   6.218
 3256POPC   D2A43996  38.887  23.891   6.644
 3256POPC   C3A43997  38.659  24.127   6.957
 3256POPC   C4A43998  38.351  23.882   7.118
 3256POPC   C1B43999  38.221  23.640   6.213
 3256POPC   C2B44000  38.068  23.610   6.665
 3256POPC   C3B44001  38.255  23.389   7.019
 3256POPC   C4B44002  38.582  23.431   7.364
 3257POPC   NC344003  33.674  39.528   5.466
 3257POPC   PO444004  34.146  39.175   5.144
 3257POPC   GL144005  34.060  39.028   5.647
 3257POPC   GL244006  33.734  39.195   5.835
 3257POPC   C1A44007  34.008  38.914   6.121
 3257POPC   D2A44008  33.843  39.157   6.489
 3257POPC   C3A44009  34.044  39.086   6.888
 3257POPC   C4A44010  34.149  38.875   7.284
 3257POPC   C1B44011  33.499  39.415   6.205
 3257POPC   C2B44012  33.387  39.311   6.670
 3257POPC   C3B44013  33.616  39.355   7.100
 3257POPC   C4B44014  33.540  39.648   7.459
 3258POPC   NC344015   8.432  35.814   5.599
 3258POPC   PO444016   8.303  36.437   5.312
 3258POPC   GL144017   8.387  36.338   5.742
 3258POPC   GL244018   8.079  36.116   5.842
 3258POPC   C1A44019   8.387  36.342   6.198
 3258POPC   D2A44020   8.249  36.265   6.621
 3258POPC   C3A44021   8.455  36.004   6.931
 3258POPC   C4A44022   8.384  36.275   7.277
 3258POPC   C1B44023   8.050  35.935   6.270
 3258POPC   C2B44024   8.021  35.805   6.726
 3258POPC   C3B44025   7.997  35.941   7.181
 3258POPC   C4B44026   7.896  35.738   7.608
 3259POPC   NC344027  25.024  20.916   5.573
 3259POPC   PO444028  25.281  20.390   5.276
 3259POPC   GL144029  25.278  20.516   5.764
 3259POPC   GL244030  25.451  20.842   5.862
 3259POPC   C1A44031  25.113  20.708   6.198
 3259POPC   D2A44032  25.312  20.855   6.585
 3259POPC   C3A44033  25.093  20.872   6.994
 3259POPC   C4A44034  25.254  20.887   7.438
 3259POPC   C1B44035  25.634  20.608   6.207
 3259POPC   C2B44036  25.740  20.539   6.629
 3259POPC   C3B44037  25.498  20.549   6.981
 3259POPC   C4B44038  25.309  20.218   7.174
 3260POPC   NC344039  12.564  26.996   5.489
 3260POPC   PO444040  13.097  26.607   5.320
 3260POPC   GL144041  12.946  26.717   5.736
 3260POPC   GL244042  12.623  26.538   5.773
 3260POPC   C1A44043  13.031  26.827   6.178
 3260POPC   D2A44044  13.273  26.824   6.563
 3260POPC   C3A44045  13.062  26.964   6.923
 3260POPC   C4A44046  12.923  26.767   7.263
 3260POPC   C1B44047  12.528  26.827   6.109
 3260POPC   C2B44048  12.677  27.028   6.494
 3260POPC   C3B44049  12.560  27.101   6.890
 3260POPC   C4B44050  12.465  26.981   7.274
 3261POPC   NC344051   3.416  12.475   5.447
 3261POPC   PO444052   3.834  11.906   5.401
 3261POPC   GL144053   3.655  11.829   5.789
 3261POPC   GL244054   3.632  12.185   5.800
 3261POPC   C1A44055   3.417  11.934   6.187
 3261POPC   D2A44056   3.438  12.192   6.545
 3261POPC   C3A44057   3.334  11.998   6.945
 3261POPC   C4A44058   3.260  12.058   7.395
 3261POPC   C1B44059   3.839  12.336   6.126
 3261POPC   C2B44060   3.781  12.566   6.499
 3261POPC   C3B44061   3.808  12.316   6.880
 3261POPC   C4B44062   3.727  12.195   7.279
 3262POPC   NC344063   4.840  42.761   5.517
 3262POPC   PO444064   5.499  43.016   5.395
 3262POPC   GL144065   5.256  43.018   5.781
 3262POPC   GL244066   5.293  42.661   5.818
 3262POPC   C1A44067   5.193  43.252   6.193
 3262POPC   D2A44068   4.939  43.395   6.571
 3262POPC   C3A44069   5.034  43.266   7.008
 3262POPC   C4A44070   4.975  42.916   7.301
 3262POPC   C1B44071   5.068  42.730   6.216
 3262POPC   C2B44072   5.148  42.921   6.615
 3262POPC   C3B44073   5.343  42.754   6.998
 3262POPC   C4B44074   5.436  42.735   7.436
 3263POPC   NC344075  32.332   3.237   5.372
 3263POPC   PO444076  32.495   3.850   5.203
 3263POPC   GL144077  32.499   3.807   5.674
 3263POPC   GL244078  32.211   3.644   5.727
 3263POPC   C1A44079  32.487   3.575   6.125
 3263POPC   D2A44080  32.240   3.311   6.420
 3263POPC   C3A44081  32.308   3.291   6.863
 3263POPC   C4A44082  32.108   3.329   7.253
 3263POPC   C1B44083  32.003   3.713   6.119
 3263POPC   C2B44084  32.152   3.807   6.512
 3263POPC   C3B44085  32.107   3.744   6.911
 3263POPC   C4B44086  32.484   3.702   7.131
 3264POPC   NC344087  43.520  24.742   5.473
 3264POPC   PO444088  44.245  24.633   5.455
 3264POPC   GL144089  43.933  24.722   5.782
 3264POPC   GL244090  43.755  24.396   5.781
 3264POPC   C1A44091  43.640  24.713   6.152
 3264POPC   D2A44092  43.580  24.427   6.490
 3264POPC   C3A44093  43.650  24.703   6.822
 3264POPC   C4A44094  43.890  24.589   7.134
 3264POPC   C1B44095  43.979  24.221   6.152
 3264POPC   C2B44096  43.920  24.011   6.530
 3264POPC   C3B44097  43.837  24.149   6.892
 3264POPC   C4B44098  44.114  24.138   7.211
 3265POPC   NC344099   8.503   2.815   4.980
 3265POPC   PO444100   8.100   2.564   5.437
 3265POPC   GL144101   8.214   2.759   5.819
 3265POPC   GL244102   8.173   3.117   5.858
 3265POPC   C1A44103   8.061   2.809   6.240
 3265POPC   D2A44104   8.183   2.500   6.510
 3265POPC   C3A44105   8.139   2.539   6.931
 3265POPC   C4A44106   8.084   2.595   7.377
 3265POPC   C1B44107   8.408   3.184   6.286
 3265POPC   C2B44108   8.236   3.027   6.690
 3265POPC   C3B44109   8.293   3.032   7.144
 3265POPC   C4B44110   8.082   3.057   7.571
 3266POPC   NC344111  19.701  22.060   5.509
 3266POPC   PO444112  20.317  22.306   5.482
 3266POPC   GL144113  20.026  22.164   5.866
 3266POPC   GL244114  20.023  21.784   5.807
 3266POPC   C1A44115  19.775  22.229   6.291
 3266POPC   D2A44116  19.551  22.440   6.663
 3266POPC   C3A44117  19.778  22.482   7.037
 3266POPC   C4A44118  19.869  22.177   7.324
 3266POPC   C1B44119  19.743  21.742   6.126
 3266POPC   C2B44120  19.812  21.736   6.529
 3266POPC   C3B44121  19.671  21.966   6.872
 3266POPC   C4B44122  19.583  21.761   7.217
 3267POPC   NC344123  19.850  29.443   5.471
 3267POPC   PO444124  20.244  28.850   5.364
 3267POPC   GL144125  20.104  29.122   5.767
 3267POPC   GL244126  19.744  29.210   5.923
 3267POPC   C1A44127  20.162  29.379   6.171
 3267POPC   D2A44128  20.142  29.201   6.608
 3267POPC   C3A44129  20.024  29.429   6.991
 3267POPC   C4A44130  20.185  29.427   7.410
 3267POPC   C1B44131  19.672  29.342   6.366
 3267POPC   C2B44132  19.656  29.150   6.761
 3267POPC   C3B44133  19.380  29.043   7.089
 3267POPC   C4B44134  19.468  29.147   7.498
 3268POPC   NC344135  25.651  30.223   5.556
 3268POPC   PO444136  26.229  30.457   5.287
 3268POPC   GL144137  25.972  30.644   5.665
 3268POPC   GL244138  26.014  30.367   5.906
 3268POPC   C1A44139  25.814  30.834   6.089
 3268POPC   D2A44140  25.953  30.963   6.528
 3268POPC   C3A44141  26.012  30.749   6.933
 3268POPC   C4A44142  25.915  30.777   7.374
 3268POPC   C1B44143  25.811  30.374   6.301
 3268POPC   C2B44144  25.880  30.304   6.716
 3268POPC   C3B44145  25.729  30.378   7.132
 3268POPC   C4B44146  25.592  30.372   7.565
 3269POPC   NC344147   5.431  14.109   5.495
 3269POPC   PO444148   4.935  14.467   5.425
 3269POPC   GL144149   5.116  14.374   5.793
 3269POPC   GL244150   5.164  14.694   5.920
 3269POPC   C1A44151   4.983  14.133   6.149
 3269POPC   D2A44152   4.870  14.268   6.550
 3269POPC   C3A44153   4.919  14.059   6.939
 3269POPC   C4A44154   5.002  14.335   7.277
 3269POPC   C1B44155   5.394  14.444   6.230
 3269POPC   C2B44156   5.361  14.140   6.544
 3269POPC   C3B44157   5.428  14.193   6.955
 3269POPC   C4B44158   5.464  14.567   7.189
 3270POPC   NC344159  38.613  41.382   5.465
 3270POPC   PO444160  38.229  41.970   5.390
 3270POPC   GL144161  38.293  41.712   5.765
 3270POPC   GL244162  38.116  41.396   5.829
 3270POPC   C1A44163  38.530  41.533   6.137
 3270POPC   D2A44164  38.819  41.682   6.475
 3270POPC   C3A44165  38.698  41.530   6.874
 3270POPC   C4A44166  38.706  41.579   7.319
 3270POPC   C1B44167  38.023  41.693   6.185
 3270POPC   C2B44168  37.816  41.662   6.568
 3270POPC   C3B44169  37.980  41.740   6.966
 3270POPC   C4B44170  38.255  41.420   7.127
 3271POPC   NC344171   9.277  40.060   5.454
 3271POPC   PO444172   8.697  39.758   5.278
 3271POPC   GL144173   8.874  39.777   5.697
 3271POPC   GL244174   8.594  39.592   5.833
 3271POPC   C1A44175   9.120  39.907   6.106
 3271POPC   D2A44176   9.116  39.767   6.565
 3271POPC   C3A44177   9.187  39.777   7.006
 3271POPC   C4A44178   9.058  40.053   7.321
 3271POPC   C1B44179   8.606  39.963   6.107
 3271POPC   C2B44180   8.785  40.137   6.488
 3271POPC   C3B44181   8.718  40.011   6.914
 3271POPC   C4B44182   8.665  39.681   7.228
 3272POPC   NC344183  17.196  44.862   5.368
 3272POPC   PO444184  16.513  44.743   5.406
 3272POPC   GL144185  16.755  44.933   5.774
 3272POPC   GL244186  16.851  44.621   5.842
 3272POPC   C1A44187  16.736  44.898   6.271
 3272POPC   D2A44188  16.952  44.883   6.693
 3272POPC   C3A44189  16.664  44.844   7.029
 3272POPC   C4A44190  16.409  44.940   7.419
 3272POPC   C1B44191  17.016  44.478   6.198
 3272POPC   C2B44192  16.779  44.409   6.556
 3272POPC   C3B44193  17.023  44.416   6.900
 3272POPC   C4B44194  17.021  44.625   7.289
 3273POPC   NC344195  36.597  31.752   5.334
 3273POPC   PO444196  37.058  31.300   5.316
 3273POPC   GL144197  36.951  31.483   5.702
 3273POPC   GL244198  37.187  31.744   5.699
 3273POPC   C1A44199  36.875  31.291   6.131
 3273POPC   D2A44200  37.180  31.117   6.421
 3273POPC   C3A44201  37.062  31.171   6.855
 3273POPC   C4A44202  36.915  31.262   7.254
 3273POPC   C1B44203  37.245  31.646   6.157
 3273POPC   C2B44204  37.050  31.610   6.579
 3273POPC   C3B44205  36.733  31.632   6.929
 3273POPC   C4B44206  36.627  32.040   7.151
 3274POPC   NC344207  41.506  40.509   5.468
 3274POPC   PO444208  41.224  39.867   5.347
 3274POPC   GL144209  41.338  39.819   5.777
 3274POPC   GL244210  41.511  40.082   5.785
 3274POPC   C1A44211  41.558  39.735   6.165
 3274POPC   D2A44212  41.707  39.960   6.536
 3274POPC   C3A44213  41.585  39.762   6.925
 3274POPC   C4A44214  41.399  39.594   7.301
 3274POPC   C1B44215  41.393  40.235   6.171
 3274POPC   C2B44216  41.410  40.359   6.628
 3274POPC   C3B44217  41.700  40.318   6.980
 3274POPC   C4B44218  41.733  40.032   7.335
 3275POPC   NC344219  17.492  24.991   5.460
 3275POPC   PO444220  17.428  25.554   5.634
 3275POPC   GL144221  17.790  25.450   5.909
 3275POPC   GL244222  17.710  25.098   5.926
 3275POPC   C1A44223  17.794  25.336   6.369
 3275POPC   D2A44224  17.517  25.102   6.640
 3275POPC   C3A44225  17.382  25.310   7.000
 3275POPC   C4A44226  17.617  25.470   7.341
 3275POPC   C1B44227  17.314  25.003   6.155
 3275POPC   C2B44228  17.161  24.765   6.527
 3275POPC   C3B44229  17.282  24.778   6.969
 3275POPC   C4B44230  17.211  24.956   7.335
 3276POPC   NC344231  38.901  42.926   5.380
 3276POPC   PO444232  38.403  43.201   5.154
 3276POPC   GL144233  38.504  43.110   5.659
 3276POPC   GL244234  38.631  42.745   5.778
 3276POPC   C1A44235  38.472  43.084   6.127
 3276POPC   D2A44236  38.292  43.007   6.514
 3276POPC   C3A44237  38.396  43.189   6.914
 3276POPC   C4A44238  38.090  43.101   7.220
 3276POPC   C1B44239  38.842  42.722   6.197
 3276POPC   C2B44240  38.720  42.729   6.613
 3276POPC   C3B44241  38.922  42.831   6.991
 3276POPC   C4B44242  38.756  43.104   7.298
 3277POPC   NC344243   2.537   9.142   5.468
 3277POPC   PO444244   3.058   8.790   5.456
 3277POPC   GL144245   2.833   8.924   5.835
 3277POPC   GL244246   2.904   9.292   5.808
 3277POPC   C1A44247   2.574   8.766   6.213
 3277POPC   D2A44248   2.658   8.877   6.654
 3277POPC   C3A44249   2.418   8.920   7.050
 3277POPC   C4A44250   2.497   8.683   7.465
 3277POPC   C1B44251   2.695   9.271   6.222
 3277POPC   C2B44252   2.899   9.323   6.619
 3277POPC   C3B44253   2.891   9.155   7.025
 3277POPC   C4B44254   2.988   9.397   7.355
 3278POPC   NC344255   6.820   3.144   5.549
 3278POPC   PO444256   6.604   3.812   5.447
 3278POPC   GL144257   6.485   3.585   5.798
 3278POPC   GL244258   6.459   3.211   5.892
 3278POPC   C1A44259   6.701   3.671   6.164
 3278POPC   D2A44260   6.670   3.778   6.571
 3278POPC   C3A44261   6.710   3.520   6.932
 3278POPC   C4A44262   6.663   3.685   7.348
 3278POPC   C1B44263   6.741   3.163   6.279
 3278POPC   C2B44264   6.906   3.017   6.718
 3278POPC   C3B44265   7.031   3.169   7.153
 3278POPC   C4B44266   6.767   3.206   7.558
 3279POPC   NC344267  31.896  35.099   5.567
 3279POPC   PO444268  32.210  35.590   5.221
 3279POPC   GL144269  32.260  35.495   5.700
 3279POPC   GL244270  32.595  35.652   5.832
 3279POPC   C1A44271  32.092  35.356   6.150
 3279POPC   D2A44272  32.282  35.155   6.545
 3279POPC   C3A44273  32.150  35.292   6.972
 3279POPC   C4A44274  31.951  35.263   7.395
 3279POPC   C1B44275  32.600  35.446   6.220
 3279POPC   C2B44276  32.753  35.356   6.637
 3279POPC   C3B44277  32.628  35.431   7.068
 3279POPC   C4B44278  32.371  35.544   7.408
 3280POPC   NC344279  41.530  23.558   5.335
 3280POPC   PO444280  41.687  24.192   5.541
 3280POPC   GL144281  41.486  23.844   5.799
 3280POPC   GL244282  41.643  23.517   5.852
 3280POPC   C1A44283  41.333  23.772   6.224
 3280POPC   D2A44284  41.517  23.853   6.658
 3280POPC   C3A44285  41.305  23.871   7.063
 3280POPC   C4A44286  41.430  24.045   7.468
 3280POPC   C1B44287  41.650  23.250   6.213
 3280POPC   C2B44288  41.851  23.185   6.612
 3280POPC   C3B44289  41.772  23.392   7.009
 3280POPC   C4B44290  41.548  23.529   7.396
 3281POPC   NC344291  42.820  41.863   5.545
 3281POPC   PO444292  43.099  41.205   5.348
 3281POPC   GL144293  43.045  41.435   5.748
 3281POPC   GL244294  43.381  41.500   5.877
 3281POPC   C1A44295  43.051  41.315   6.215
 3281POPC   D2A44296  43.294  41.327   6.626
 3281POPC   C3A44297  43.051  41.298   7.036
 3281POPC   C4A44298  42.822  40.988   7.272
 3281POPC   C1B44299  43.303  41.784   6.255
 3281POPC   C2B44300  43.126  41.819   6.644
 3281POPC   C3B44301  43.286  41.767   7.032
 3281POPC   C4B44302  43.019  41.767   7.399
 3282POPC   NC344303  13.176  19.683   5.463
 3282POPC   PO444304  12.520  19.881   5.508
 3282POPC   GL144305  12.809  19.803   5.828
 3282POPC   GL244306  12.734  19.469   5.827
 3282POPC   C1A44307  12.935  19.847   6.267
 3282POPC   D2A44308  12.682  19.892   6.655
 3282POPC   C3A44309  12.934  19.857   7.004
 3282POPC   C4A44310  13.204  19.803   7.311
 3282POPC   C1B44311  12.483  19.627   6.208
 3282POPC   C2B44312  12.489  19.441   6.622
 3282POPC   C3B44313  12.542  19.489   7.032
 3282POPC   C4B44314  12.580  19.732   7.342
 3283POPC   NC344315  34.177  36.447   5.295
 3283POPC   PO444316  34.688  36.017   5.244
 3283POPC   GL144317  34.443  36.087   5.620
 3283POPC   GL244318  34.511  36.451   5.691
 3283POPC   C1A44319  34.520  36.050   6.090
 3283POPC   D2A44320  34.654  35.924   6.529
 3283POPC   C3A44321  34.727  36.186   6.883
 3283POPC   C4A44322  34.530  36.158   7.266
 3283POPC   C1B44323  34.420  36.590   6.104
 3283POPC   C2B44324  34.485  36.407   6.496
 3283POPC   C3B44325  34.246  36.370   6.881
 3283POPC   C4B44326  34.181  36.613   7.265
 3284POPC   NC344327  27.803   0.753   5.521
 3284POPC   PO444328  27.561   1.359   5.243
 3284POPC   GL144329  27.749   1.331   5.698
 3284POPC   GL244330  27.752   1.657   5.917
 3284POPC   C1A44331  27.745   1.181   6.152
 3284POPC   D2A44332  27.415   1.143   6.500
 3284POPC   C3A44333  27.512   1.124   6.954
 3284POPC   C4A44334  27.803   1.128   7.287
 3284POPC   C1B44335  27.672   1.680   6.344
 3284POPC   C2B44336  27.727   1.539   6.755
 3284POPC   C3B44337  27.604   1.605   7.174
 3284POPC   C4B44338  27.763   1.575   7.603
 3285POPC   NC344339  10.869  16.690   5.421
 3285POPC   PO444340  11.551  16.788   5.432
 3285POPC   GL144341  11.380  16.514   5.742
 3285POPC   GL244342  11.161  16.774   5.839
 3285POPC   C1A44343  11.372  16.326   6.190
 3285POPC   D2A44344  11.313  16.560   6.588
 3285POPC   C3A44345  11.410  16.337   6.986
 3285POPC   C4A44346  11.764  16.478   7.205
 3285POPC   C1B44347  10.949  16.599   6.185
 3285POPC   C2B44348  10.793  16.578   6.624
 3285POPC   C3B44349  11.019  16.665   7.002
 3285POPC   C4B44350  11.420  16.857   7.093
 3286POPC   NC344351   2.672  43.534   5.435
 3286POPC   PO444352   2.888  42.869   5.350
 3286POPC   GL144353   2.684  43.056   5.717
 3286POPC   GL244354   2.718  42.747   5.847
 3286POPC   C1A44355   2.688  43.161   6.188
 3286POPC   D2A44356   2.535  43.265   6.620
 3286POPC   C3A44357   2.719  43.168   7.051
 3286POPC   C4A44358   2.663  43.247   7.512
 3286POPC   C1B44359   2.926  42.712   6.229
 3286POPC   C2B44360   2.869  42.873   6.637
 3286POPC   C3B44361   2.848  42.664   7.030
 3286POPC   C4B44362   2.855  42.777   7.448
 3287POPC   NC344363  38.058   7.662   5.529
 3287POPC   PO444364  38.753   7.449   5.605
 3287POPC   GL144365  38.672   7.382   5.998
 3287POPC   GL244366  38.837   7.095   6.031
 3287POPC   C1A44367  38.674   7.537   6.417
 3287POPC   D2A44368  38.386   7.684   6.746
 3287POPC   C3A44369  38.538   7.718   7.164
 3287POPC   C4A44370  38.580   7.953   7.537
 3287POPC   C1B44371  38.486   7.060   6.348
 3287POPC   C2B44372  38.458   7.177   6.779
 3287POPC   C3B44373  38.194   7.324   7.113
 3287POPC   C4B44374  37.945   7.217   7.472
 3288POPC   NC344375  43.686  23.177   5.354
 3288POPC   PO444376  44.321  22.952   5.485
 3288POPC   GL144377  44.077  23.064   5.843
 3288POPC   GL244378  43.757  22.910   5.805
 3288POPC   C1A44379  43.956  23.148   6.279
 3288POPC   D2A44380  44.049  23.318   6.690
 3288POPC   C3A44381  43.823  23.167   6.986
 3288POPC   C4A44382  43.906  23.087   7.420
 3288POPC   C1B44383  43.650  22.739   6.205
 3288POPC   C2B44384  43.827  22.770   6.620
 3288POPC   C3B44385  43.625  22.707   6.999
 3288POPC   C4B44386  43.576  22.699   7.414
 3289POPC   NC344387  43.548  41.365   5.410
 3289POPC   PO444388  44.138  41.752   5.597
 3289POPC   GL144389  43.914  41.462   5.842
 3289POPC   GL244390  44.227  41.384   5.991
 3289POPC   C1A44391  43.710  41.466   6.253
 3289POPC   D2A44392  43.687  41.692   6.649
 3289POPC   C3A44393  43.668  41.407   6.991
 3289POPC   C4A44394  43.432  41.419   7.366
 3289POPC   C1B44395  44.145  41.707   6.333
 3289POPC   C2B44396  44.444  41.791   6.667
 3289POPC   C3B44397  44.338  41.822   7.076
 3289POPC   C4B44398  43.893  41.822   7.180
 3290POPC   NC344399  11.124  23.663   5.335
 3290POPC   PO444400  11.569  24.233   5.488
 3290POPC   GL144401  11.536  23.938   5.832
 3290POPC   GL244402  11.279  23.649   5.839
 3290POPC   C1A44403  11.575  23.755   6.245
 3290POPC   D2A44404  11.198  23.707   6.509
 3290POPC   C3A44405  11.356  23.553   6.873
 3290POPC   C4A44406  11.415  23.677   7.307
 3290POPC   C1B44407  11.055  23.362   6.153
 3290POPC   C2B44408  11.018  23.223   6.614
 3290POPC   C3B44409  10.906  23.404   7.048
 3290POPC   C4B44410  10.941  23.557   7.501
 3291POPC   NC344411  38.315   4.445   5.407
 3291POPC   PO444412  38.639   3.781   5.420
 3291POPC   GL144413  38.440   4.047   5.726
 3291POPC   GL244414  38.650   4.318   5.871
 3291POPC   C1A44415  38.343   4.057   6.162
 3291POPC   D2A44416  38.504   4.300   6.492
 3291POPC   C3A44417  38.417   4.156   6.900
 3291POPC   C4A44418  38.203   4.148   7.290
 3291POPC   C1B44419  38.904   4.449   6.235
 3291POPC   C2B44420  38.885   4.539   6.717
 3291POPC   C3B44421  38.684   4.523   7.148
 3291POPC   C4B44422  38.879   4.474   7.575
 3292POPC   NC344423  18.470  34.910   5.438
 3292POPC   PO444424  17.842  35.056   5.424
 3292POPC   GL144425  18.086  35.327   5.703
 3292POPC   GL244426  18.481  35.326   5.766
 3292POPC   C1A44427  18.127  35.498   6.098
 3292POPC   D2A44428  18.396  35.453   6.429
 3292POPC   C3A44429  18.321  35.363   6.872
 3292POPC   C4A44430  18.449  35.470   7.304
 3292POPC   C1B44431  18.286  35.040   6.091
 3292POPC   C2B44432  18.200  34.974   6.533
 3292POPC   C3B44433  18.138  34.743   6.904
 3292POPC   C4B44434  18.193  35.020   7.245
 3293POPC   NC344435  17.975   2.054   5.195
 3293POPC   PO444436  18.426   2.196   5.568
 3293POPC   GL144437  18.021   2.169   5.719
 3293POPC   GL244438  17.934   1.830   5.668
 3293POPC   C1A44439  18.012   2.211   6.165
 3293POPC   D2A44440  18.327   2.142   6.507
 3293POPC   C3A44441  18.296   2.188   6.977
 3293POPC   C4A44442  18.669   2.117   7.267
 3293POPC   C1B44443  18.140   1.724   6.059
 3293POPC   C2B44444  18.001   1.754   6.500
 3293POPC   C3B44445  17.867   1.826   6.932
 3293POPC   C4B44446  17.923   2.037   7.329
 3294POPC   NC344447  17.847  25.729   5.464
 3294POPC   PO444448  17.186  25.882   5.256
 3294POPC   GL144449  17.391  26.112   5.619
 3294POPC   GL244450  17.660  26.023   5.812
 3294POPC   C1A44451  17.255  26.281   6.031
 3294POPC   D2A44452  17.292  26.128   6.475
 3294POPC   C3A44453  17.597  26.303   6.791
 3294POPC   C4A44454  17.367  26.305   7.179
 3294POPC   C1B44455  17.728  26.119   6.211
 3294POPC   C2B44456  17.713  25.831   6.562
 3294POPC   C3B44457  17.500  25.817   6.953
 3294POPC   C4B44458  17.733  25.959   7.290
 3295POPC   NC344459   3.779  18.794   5.463
 3295POPC   PO444460   3.503  18.196   5.357
 3295POPC   GL144461   3.376  18.469   5.701
 3295POPC   GL244462   3.693  18.410   5.899
 3295POPC   C1A44463   3.279  18.563   6.161
 3295POPC   D2A44464   3.335  18.197   6.414
 3295POPC   C3A44465   3.405  18.136   6.821
 3295POPC   C4A44466   3.226  18.348   7.151
 3295POPC   C1B44467   3.818  18.122   6.256
 3295POPC   C2B44468   3.908  18.083   6.718
 3295POPC   C3B44469   3.771  18.296   7.139
 3295POPC   C4B44470   3.640  18.139   7.576
 3296POPC   NC344471   7.196  15.997   5.410
 3296POPC   PO444472   7.656  15.630   5.587
 3296POPC   GL144473   7.550  16.087   5.791
 3296POPC   GL244474   7.206  16.319   5.799
 3296POPC   C1A44475   7.534  16.306   6.198
 3296POPC   D2A44476   7.551  16.318   6.649
 3296POPC   C3A44477   7.611  15.939   6.830
 3296POPC   C4A44478   7.750  15.915   7.215
 3296POPC   C1B44479   7.108  16.007   6.114
 3296POPC   C2B44480   7.099  16.038   6.562
 3296POPC   C3B44481   7.115  15.894   6.983
 3296POPC   C4B44482   7.272  16.152   7.268
 3297POPC   NC344483  34.949  31.817   5.559
 3297POPC   PO444484  34.501  31.296   5.299
 3297POPC   GL144485  34.599  31.316   5.792
 3297POPC   GL244486  34.645  31.673   5.930
 3297POPC   C1A44487  34.471  31.354   6.255
 3297POPC   D2A44488  34.489  31.596   6.588
 3297POPC   C3A44489  34.613  31.411   6.910
 3297POPC   C4A44490  34.643  31.416   7.338
 3297POPC   C1B44491  34.928  31.696   6.335
 3297POPC   C2B44492  35.078  31.781   6.719
 3297POPC   C3B44493  34.930  31.764   7.098
 3297POPC   C4B44494  35.101  31.621   7.500
 3298POPC   NC344495  36.619  36.552   5.447
 3298POPC   PO444496  36.055  37.011   5.480
 3298POPC   GL144497  36.280  36.812   5.771
 3298POPC   GL244498  36.055  36.571   5.877
 3298POPC   C1A44499  36.326  36.927   6.181
 3298POPC   D2A44500  36.183  37.086   6.559
 3298POPC   C3A44501  36.341  36.843   6.895
 3298POPC   C4A44502  36.431  36.978   7.310
 3298POPC   C1B44503  35.769  36.504   6.224
 3298POPC   C2B44504  35.867  36.677   6.599
 3298POPC   C3B44505  35.780  36.523   6.990
 3298POPC   C4B44506  36.009  36.705   7.265
 3299POPC   NC344507  36.482  33.945   5.504
 3299POPC   PO444508  36.028  33.788   5.014
 3299POPC   GL144509  35.980  33.894   5.556
 3299POPC   GL244510  36.224  34.087   5.889
 3299POPC   C1A44511  35.902  33.742   6.005
 3299POPC   D2A44512  35.747  33.929   6.398
 3299POPC   C3A44513  35.975  33.881   6.780
 3299POPC   C4A44514  35.905  33.700   7.183
 3299POPC   C1B44515  36.408  33.774   6.186
 3299POPC   C2B44516  36.484  33.878   6.633
 3299POPC   C3B44517  36.409  33.712   7.040
 3299POPC   C4B44518  36.338  33.911   7.411
 3300POPC   NC344519  19.432   8.370   5.503
 3300POPC   PO444520  18.870   7.933   5.501
 3300POPC   GL144521  18.901   8.164   5.869
 3300POPC   GL244522  19.208   8.389   5.999
 3300POPC   C1A44523  18.964   8.037   6.270
 3300POPC   D2A44524  18.995   8.252   6.624
 3300POPC   C3A44525  18.756   8.070   6.879
 3300POPC   C4A44526  18.950   7.818   7.173
 3300POPC   C1B44527  18.802   8.531   6.221
 3300POPC   C2B44528  18.575   8.583   6.622
 3300POPC   C3B44529  18.752   8.575   7.027
 3300POPC   C4B44530  19.133   8.339   7.129
 3301POPC   NC344531  25.135  29.748   5.344
 3301POPC   PO444532  25.434  30.357   5.163
 3301POPC   GL144533  25.187  30.142   5.648
 3301POPC   GL244534  25.332  29.850   5.817
 3301POPC   C1A44535  25.126  30.194   6.132
 3301POPC   D2A44536  24.945  30.058   6.528
 3301POPC   C3A44537  25.099  30.174   6.873
 3301POPC   C4A44538  25.312  30.117   7.237
 3301POPC   C1B44539  25.199  29.683   6.226
 3301POPC   C2B44540  25.044  29.583   6.638
 3301POPC   C3B44541  25.178  29.667   7.052
 3301POPC   C4B44542  24.941  29.645   7.455
 3302POPC   NC344543   1.441  19.341   5.443
 3302POPC   PO444544   0.963  18.781   5.442
 3302POPC   GL144545   1.216  18.950   5.761
 3302POPC   GL244546   1.070  19.278   5.791
 3302POPC   C1A44547   1.376  19.011   6.182
 3302POPC   D2A44548   1.575  19.042   6.598
 3302POPC   C3A44549   1.435  18.866   6.978
 3302POPC   C4A44550   1.410  18.808   7.399
 3302POPC   C1B44551   1.078  19.455   6.180
 3302POPC   C2B44552   0.906  19.387   6.587
 3302POPC   C3B44553   1.148  19.283   6.934
 3302POPC   C4B44554   1.481  19.326   7.234
 3303POPC   NC344555  37.294  20.798   5.109
 3303POPC   PO444556  36.673  20.520   5.417
 3303POPC   GL144557  36.888  20.758   5.775
 3303POPC   GL244558  37.240  20.789   5.783
 3303POPC   C1A44559  36.922  20.687   6.213
 3303POPC   D2A44560  36.655  20.427   6.432
 3303POPC   C3A44561  36.642  20.488   6.871
 3303POPC   C4A44562  36.696  20.386   7.287
 3303POPC   C1B44563  37.418  20.582   6.187
 3303POPC   C2B44564  37.238  20.570   6.638
 3303POPC   C3B44565  37.150  20.579   7.114
 3303POPC   C4B44566  37.134  20.541   7.595
 3304POPC   NC344567  10.752  12.836   5.375
 3304POPC   PO444568  10.299  13.256   5.543
 3304POPC   GL144569  10.475  12.960   5.819
 3304POPC   GL244570  10.826  12.951   5.852
 3304POPC   C1A44571  10.520  12.851   6.241
 3304POPC   D2A44572  10.556  12.981   6.659
 3304POPC   C3A44573  10.409  12.592   6.861
 3304POPC   C4A44574  10.529  12.440   7.263
 3304POPC   C1B44575  10.908  13.179   6.223
 3304POPC   C2B44576  10.903  13.391   6.618
 3304POPC   C3B44577  10.926  13.181   7.013
 3304POPC   C4B44578  10.575  12.969   7.171
 3305POPC   NC344579  41.652  40.991   5.026
 3305POPC   PO444580  41.746  40.886   5.607
 3305POPC   GL144581  41.659  40.678   5.939
 3305POPC   GL244582  41.888  40.400   5.865
 3305POPC   C1A44583  41.382  40.732   6.290
 3305POPC   D2A44584  41.086  40.767   6.650
 3305POPC   C3A44585  41.277  40.647   7.043
 3305POPC   C4A44586  41.544  40.805   7.376
 3305POPC   C1B44587  41.849  40.418   6.322
 3305POPC   C2B44588  41.805  40.717   6.624
 3305POPC   C3B44589  42.036  40.752   6.986
 3305POPC   C4B44590  42.004  40.580   7.398
 3306POPC   NC344591   2.686   7.301   5.528
 3306POPC   PO444592   3.132   7.829   5.657
 3306POPC   GL144593   2.785   7.638   5.897
 3306POPC   GL244594   2.779   7.268   6.029
 3306POPC   C1A44595   2.724   7.685   6.306
 3306POPC   D2A44596   2.770   7.388   6.554
 3306POPC   C3A44597   2.583   7.482   6.883
 3306POPC   C4A44598   2.721   7.675   7.210
 3306POPC   C1B44599   2.688   6.957   6.328
 3306POPC   C2B44600   2.852   6.892   6.741
 3306POPC   C3B44601   2.732   7.050   7.153
 3306POPC   C4B44602   2.384   7.309   7.347
 3307POPC   NC344603  18.687  44.516   5.291
 3307POPC   PO444604  18.089  44.844   5.288
 3307POPC   GL144605  18.184  44.724   5.735
 3307POPC   GL244606  18.538  44.780   5.731
 3307POPC   C1A44607  18.341  44.588   6.162
 3307POPC   D2A44608  18.548  44.647   6.558
 3307POPC   C3A44609  18.362  44.607   6.948
 3307POPC   C4A44610  18.270  44.537   7.383
 3307POPC   C1B44611  18.584   0.165   6.005
 3307POPC   C2B44612  18.636   0.262   6.455
 3307POPC   C3B44613  18.547   0.075   6.843
 3307POPC   C4B44614  18.516  44.954   7.289
 3308POPC   NC344615  15.347  28.796   5.149
 3308POPC   PO444616  15.117  28.288   5.514
 3308POPC   GL144617  15.247  28.143   5.935
 3308POPC   GL244618  15.246  28.483   6.086
 3308POPC   C1A44619  15.267  28.090   6.388
 3308POPC   D2A44620  14.997  28.347   6.571
 3308POPC   C3A44621  15.186  28.308   6.929
 3308POPC   C4A44622  15.177  28.111   7.279
 3308POPC   C1B44623  14.883  28.724   6.217
 3308POPC   C2B44624  14.845  28.898   6.596
 3308POPC   C3B44625  14.860  28.710   7.001
 3308POPC   C4B44626  15.152  28.623   7.334
 3309POPC   NC344627  15.422   1.038   5.349
 3309POPC   PO444628  14.837   1.368   5.356
 3309POPC   GL144629  15.162   1.373   5.681
 3309POPC   GL244630  15.192   1.039   5.794
 3309POPC   C1A44631  15.310   1.388   6.135
 3309POPC   D2A44632  15.072   1.343   6.521
 3309POPC   C3A44633  15.261   1.290   6.912
 3309POPC   C4A44634  14.936   1.439   7.160
 3309POPC   C1B44635  14.976   0.971   6.196
 3309POPC   C2B44636  15.088   0.835   6.646
 3309POPC   C3B44637  14.984   0.904   7.110
 3309POPC   C4B44638  15.067   1.088   7.500
 3310POPC   NC344639  44.805  18.253   5.392
 3310POPC   PO444640  44.360  18.905   5.445
 3310POPC   GL144641  44.362  18.673   5.840
 3310POPC   GL244642  44.658  18.442   5.848
 3310POPC   C1A44643  44.454  18.666   6.271
 3310POPC   D2A44644  44.559  18.451   6.641
 3310POPC   C3A44645  44.487  18.595   7.018
 3310POPC   C4A44646  44.312  18.394   7.376
 3310POPC   C1B44647  44.852  18.290   6.246
 3310POPC   C2B44648   0.050  18.364   6.686
 3310POPC   C3B44649  44.931  18.365   7.163
 3310POPC   C4B44650  44.921  18.492   7.635
 3311POPC   NC344651  21.988  42.334   5.396
 3311POPC   PO444652  22.451  42.675   5.172
 3311POPC   GL144653  22.261  42.561   5.723
 3311POPC   GL244654  22.106  42.296   5.877
 3311POPC   C1A44655  22.289  42.593   6.221
 3311POPC   D2A44656  22.163  42.406   6.608
 3311POPC   C3A44657  22.271  42.512   7.046
 3311POPC   C4A44658  22.455  42.235   7.347
 3311POPC   C1B44659  21.942  42.164   6.211
 3311POPC   C2B44660  21.810  42.020   6.595
 3311POPC   C3B44661  22.006  42.058   6.982
 3311POPC   C4B44662  21.961  41.804   7.315
 3312POPC   NC344663  32.245  34.227   5.526
 3312POPC   PO444664  32.101  33.588   5.376
 3312POPC   GL144665  32.181  33.595   5.811
 3312POPC   GL244666  32.434  33.822   5.797
 3312POPC   C1A44667  32.062  33.887   6.168
 3312POPC   D2A44668  32.224  33.981   6.574
 3312POPC   C3A44669  32.000  33.830   6.918
 3312POPC   C4A44670  32.188  33.661   7.301
 3312POPC   C1B44671  32.581  33.932   6.195
 3312POPC   C2B44672  32.591  33.589   6.445
 3312POPC   C3B44673  32.474  33.607   6.863
 3312POPC   C4B44674  32.505  33.998   7.079
 3313POPC   NC344675   1.780   8.584   5.397
 3313POPC   PO444676   2.145   9.135   5.240
 3313POPC   GL144677   2.094   9.169   5.719
 3313POPC   GL244678   1.863   8.892   5.823
 3313POPC   C1A44679   2.177   9.116   6.192
 3313POPC   D2A44680   2.151   8.856   6.595
 3313POPC   C3A44681   1.903   9.035   6.930
 3313POPC   C4A44682   1.678   9.256   7.241
 3313POPC   C1B44683   1.818   8.705   6.233
 3313POPC   C2B44684   1.659   8.630   6.656
 3313POPC   C3B44685   1.765   8.564   7.078
 3313POPC   C4B44686   1.977   8.494   7.463
 3314POPC   NC344687   7.987  14.766   5.165
 3314POPC   PO444688   8.154  15.365   5.336
 3314POPC   GL144689   8.285  15.191   5.734
 3314POPC   GL244690   8.255  14.840   5.664
 3314POPC   C1A44691   8.375  15.295   6.154
 3314POPC   D2A44692   8.269  15.083   6.538
 3314POPC   C3A44693   8.516  14.959   6.853
 3314POPC   C4A44694   8.215  15.119   7.118
 3314POPC   C1B44695   8.175  14.823   6.114
 3314POPC   C2B44696   7.928  14.664   6.474
 3314POPC   C3B44697   7.841  14.890   6.870
 3314POPC   C4B44698   7.797  14.922   7.354
 3315POPC   NC344699  11.875   3.117   5.707
 3315POPC   PO444700  12.071   3.704   5.468
 3315POPC   GL144701  12.128   3.542   5.833
 3315POPC   GL244702  11.773   3.630   5.896
 3315POPC   C1A44703  12.112   3.430   6.255
 3315POPC   D2A44704  12.353   3.239   6.530
 3315POPC   C3A44705  12.179   3.361   6.861
 3315POPC   C4A44706  12.300   3.306   7.247
 3315POPC   C1B44707  11.666   3.673   6.325
 3315POPC   C2B44708  11.871   3.775   6.729
 3315POPC   C3B44709  11.884   3.635   7.172
 3315POPC   C4B44710  11.762   3.740   7.574
 3316POPC   NC344711  44.820  37.829   5.342
 3316POPC   PO444712  44.436  37.314   5.374
 3316POPC   GL144713  44.686  37.496   5.757
 3316POPC   GL244714  44.932  37.796   5.832
 3316POPC   C1A44715  44.515  37.713   6.136
 3316POPC   D2A44716  44.630  37.687   6.585
 3316POPC   C3A44717  44.449  37.425   6.930
 3316POPC   C4A44718  44.422  37.650   7.336
 3316POPC   C1B44719  45.000  37.560   6.214
 3316POPC   C2B44720   0.129  37.658   6.636
 3316POPC   C3B44721  44.927  37.601   7.067
 3316POPC   C4B44722  44.899  37.652   7.542
 3317POPC   NC344723  41.905   4.711   5.511
 3317POPC   PO444724  41.796   5.302   5.333
 3317POPC   GL144725  41.586   5.074   5.737
 3317POPC   GL244726  41.772   4.804   5.975
 3317POPC   C1A44727  41.388   5.040   6.174
 3317POPC   D2A44728  41.579   4.837   6.558
 3317POPC   C3A44729  41.497   5.065   6.924
 3317POPC   C4A44730  41.437   5.117   7.364
 3317POPC   C1B44731  41.890   5.134   6.270
 3317POPC   C2B44732  41.957   5.178   6.733
 3317POPC   C3B44733  41.917   5.186   7.202
 3317POPC   C4B44734  41.989   5.454   7.581
 3318POPC   NC344735  31.677  44.330   5.350
 3318POPC   PO444736  31.187  43.848   5.341
 3318POPC   GL144737  31.454  43.854   5.733
 3318POPC   GL244738  31.712  44.103   5.811
 3318POPC   C1A44739  31.408  43.769   6.164
 3318POPC   D2A44740  31.548  43.572   6.533
 3318POPC   C3A44741  31.386  43.786   6.893
 3318POPC   C4A44742  31.585  43.730   7.279
 3318POPC   C1B44743  31.633  44.270   6.239
 3318POPC   C2B44744  31.623  44.247   6.710
 3318POPC   C3B44745  31.860  44.168   7.086
 3318POPC   C4B44746  31.898  44.322   7.522
 3319POPC   NC344747  35.696  16.909   5.393
 3319POPC   PO444748  36.329  16.726   5.238
 3319POPC   GL144749  36.132  16.713   5.695
 3319POPC   GL244750  35.838  16.494   5.801
 3319POPC   C1A44751  36.260  16.677   6.162
 3319POPC   D2A44752  36.482  16.866   6.545
 3319POPC   C3A44753  36.378  16.777   6.988
 3319POPC   C4A44754  35.998  16.878   7.205
 3319POPC   C1B44755  35.748  16.619   6.266
 3319POPC   C2B44756  35.839  16.683   6.737
 3319POPC   C3B44757  35.626  16.528   7.135
 3319POPC   C4B44758  35.614  16.416   7.580
 3320POPC   NC344759  18.341  28.523   5.304
 3320POPC   PO444760  18.042  27.989   5.470
 3320POPC   GL144761  18.200  28.310   5.752
 3320POPC   GL244762  18.542  28.280   5.714
 3320POPC   C1A44763  18.076  28.452   6.161
 3320POPC   D2A44764  18.033  28.181   6.505
 3320POPC   C3A44765  17.939  28.263   6.922
 3320POPC   C4A44766  18.137  28.444   7.275
 3320POPC   C1B44767  18.602  28.335   6.169
 3320POPC   C2B44768  18.553  28.094   6.552
 3320POPC   C3B44769  18.532  28.254   6.972
 3320POPC   C4B44770  18.628  28.546   7.301
 3321POPC   NC344771  14.274  23.887   5.458
 3321POPC   PO444772  14.366  24.628   5.392
 3321POPC   GL144773  14.380  24.427   5.772
 3321POPC   GL244774  14.673  24.560   5.880
 3321POPC   C1A44775  14.165  24.203   6.072
 3321POPC   D2A44776  14.091  24.203   6.489
 3321POPC   C3A44777  14.392  24.171   6.816
 3321POPC   C4A44778  14.492  24.448   7.159
 3321POPC   C1B44779  14.581  24.416   6.312
 3321POPC   C2B44780  14.676  24.612   6.707
 3321POPC   C3B44781  14.926  24.703   7.090
 3321POPC   C4B44782  14.787  24.660   7.538
 3322POPC   NC344783  17.599  42.060   5.406
 3322POPC   PO444784  17.068  42.457   5.405
 3322POPC   GL144785  17.403  42.376   5.763
 3322POPC   GL244786  17.771  42.211   5.862
 3322POPC   C1A44787  17.450  42.358   6.218
 3322POPC   D2A44788  17.779  42.448   6.500
 3322POPC   C3A44789  17.595  42.516   6.907
 3322POPC   C4A44790  17.332  42.383   7.255
 3322POPC   C1B44791  18.076  42.107   6.189
 3322POPC   C2B44792  18.018  41.998   6.637
 3322POPC   C3B44793  17.866  42.099   7.068
 3322POPC   C4B44794  18.021  42.115   7.491
 3323POPC   NC344795  19.708  42.613   5.597
 3323POPC   PO444796  19.705  42.015   5.432
 3323POPC   GL144797  19.933  42.076   5.792
 3323POPC   GL244798  20.111  42.422   5.844
 3323POPC   C1A44799  19.797  42.008   6.210
 3323POPC   D2A44800  19.806  42.308   6.536
 3323POPC   C3A44801  19.772  42.129   6.934
 3323POPC   C4A44802  19.625  42.320   7.316
 3323POPC   C1B44803  20.279  42.553   6.277
 3323POPC   C2B44804  20.261  42.455   6.740
 3323POPC   C3B44805  19.988  42.576   7.057
 3323POPC   C4B44806  19.978  42.650   7.490
 3324POPC   NC344807   3.212  20.802   5.408
 3324POPC   PO444808   3.865  20.733   5.474
 3324POPC   GL144809   3.528  20.650   5.770
 3324POPC   GL244810   3.346  20.963   5.857
 3324POPC   C1A44811   3.428  20.376   6.096
 3324POPC   D2A44812   3.638  20.446   6.474
 3324POPC   C3A44813   3.385  20.411   6.797
 3324POPC   C4A44814   3.684  20.428   7.095
 3324POPC   C1B44815   3.483  20.888   6.250
 3324POPC   C2B44816   3.296  20.897   6.618
 3324POPC   C3B44817   3.447  20.897   6.995
 3324POPC   C4B44818   3.285  20.976   7.349
 3325POPC   NC344819  10.829  44.704   5.536
 3325POPC   PO444820  10.240  44.889   5.671
 3325POPC   GL144821  10.443  44.606   5.958
 3325POPC   GL244822  10.791  44.430   5.966
 3325POPC   C1A44823  10.637  44.769   6.313
 3325POPC   D2A44824  10.644   0.068   6.587
 3325POPC   C3A44825  10.727  44.910   6.951
 3325POPC   C4A44826  10.597  44.794   7.346
 3325POPC   C1B44827  10.774  44.283   6.421
 3325POPC   C2B44828  10.634  44.402   6.851
 3325POPC   C3B44829  10.567  44.261   7.290
 3325POPC   C4B44830  10.804  44.288   7.682
 3326POPC   NC344831  11.487  42.530   5.384
 3326POPC   PO444832  11.007  42.021   5.415
 3326POPC   GL144833  11.216  42.041   5.802
 3326POPC   GL244834  11.228  42.402   5.821
 3326POPC   C1A44835  11.274  42.136   6.265
 3326POPC   D2A44836  11.662  42.337   6.431
 3326POPC   C3A44837  11.713  42.304   6.867
 3326POPC   C4A44838  11.351  42.327   7.135
 3326POPC   C1B44839  11.269  42.637   6.220
 3326POPC   C2B44840  11.232  42.532   6.647
 3326POPC   C3B44841  11.016  42.707   6.973
 3326POPC   C4B44842  10.802  42.400   7.186
 3327POPC   NC344843  14.890  16.241   5.294
 3327POPC   PO444844  15.312  16.692   5.188
 3327POPC   GL144845  15.021  16.658   5.604
 3327POPC   GL244846  14.950  16.993   5.766
 3327POPC   C1A44847  14.888  16.566   6.088
 3327POPC   D2A44848  14.892  16.738   6.543
 3327POPC   C3A44849  14.925  16.517   6.965
 3327POPC   C4A44850  15.058  16.686   7.347
 3327POPC   C1B44851  15.001  17.118   6.217
 3327POPC   C2B44852  15.259  17.158   6.565
 3327POPC   C3B44853  15.310  16.948   6.952
 3327POPC   C4B44854  15.567  17.122   7.260
 3328POPC   NC344855  18.870  24.730   5.421
 3328POPC   PO444856  19.275  24.151   5.331
 3328POPC   GL144857  19.151  24.395   5.705
 3328POPC   GL244858  19.356  24.684   5.690
 3328POPC   C1A44859  18.982  24.495   6.136
 3328POPC   D2A44860  18.885  24.236   6.529
 3328POPC   C3A44861  18.995  24.413   6.948
 3328POPC   C4A44862  18.842  24.491   7.391
 3328POPC   C1B44863  19.460  24.761   6.138
 3328POPC   C2B44864  19.206  24.850   6.501
 3328POPC   C3B44865  18.983  24.910   6.874
 3328POPC   C4B44866  19.263  24.810   7.208
 3329POPC   NC344867  12.086  32.844   4.872
 3329POPC   PO444868  11.989  33.334   5.299
 3329POPC   GL144869  11.788  33.161   5.700
 3329POPC   GL244870  11.956  32.844   5.865
 3329POPC   C1A44871  11.736  33.238   6.161
 3329POPC   D2A44872  11.918  32.976   6.504
 3329POPC   C3A44873  11.977  33.037   6.945
 3329POPC   C4A44874  11.942  32.707   7.270
 3329POPC   C1B44875  12.326  32.881   6.191
 3329POPC   C2B44876  12.502  32.948   6.619
 3329POPC   C3B44877  12.405  32.771   7.037
 3329POPC   C4B44878  12.355  32.877   7.490
 3330POPC   NC344879  18.113  38.850   5.610
 3330POPC   PO444880  17.988  38.360   5.162
 3330POPC   GL144881  17.785  38.464   5.659
 3330POPC   GL244882  17.514  38.344   5.856
 3330POPC   C1A44883  17.870  38.551   6.174
 3330POPC   D2A44884  17.634  38.643   6.551
 3330POPC   C3A44885  17.645  38.501   6.968
 3330POPC   C4A44886  17.454  38.690   7.361
 3330POPC   C1B44887  17.542  38.181   6.300
 3330POPC   C2B44888  17.283  38.263   6.672
 3330POPC   C3B44889  17.184  38.201   7.112
 3330POPC   C4B44890  17.221  37.883   7.455
 3331POPC   NC344891   1.569  33.948   5.477
 3331POPC   PO444892   0.938  33.613   5.414
 3331POPC   GL144893   1.065  33.797   5.850
 3331POPC   GL244894   1.383  33.732   5.897
 3331POPC   C1A44895   1.017  33.800   6.308
 3331POPC   D2A44896   0.996  33.541   6.649
 3331POPC   C3A44897   1.030  33.767   7.034
 3331POPC   C4A44898   1.024  33.708   7.509
 3331POPC   C1B44899   1.723  33.789   6.172
 3331POPC   C2B44900   1.755  33.997   6.539
 3331POPC   C3B44901   1.639  33.794   6.901
 3331POPC   C4B44902   1.467  33.806   7.322
 3332POPC   NC344903  40.668   7.763   5.363
 3332POPC   PO444904  40.998   7.318   5.357
 3332POPC   GL144905  40.788   7.437   5.803
 3332POPC   GL244906  40.446   7.667   5.812
 3332POPC   C1A44907  40.948   7.370   6.277
 3332POPC   D2A44908  41.081   7.251   6.730
 3332POPC   C3A44909  40.805   7.283   7.135
 3332POPC   C4A44910  40.639   6.986   7.469
 3332POPC   C1B44911  40.483   7.569   6.250
 3332POPC   C2B44912  40.577   7.514   6.694
 3332POPC   C3B44913  40.304   7.314   6.982
 3332POPC   C4B44914  40.265   7.313   7.408
 3333POPC   NC344915  42.004  41.285   5.540
 3333POPC   PO444916  41.437  41.693   5.296
 3333POPC   GL144917  41.324  41.601   5.757
 3333POPC   GL244918  41.432  41.248   5.803
 3333POPC   C1A44919  41.394  41.598   6.242
 3333POPC   D2A44920  41.752  41.558   6.541
 3333POPC   C3A44921  41.664  41.683   6.926
 3333POPC   C4A44922  41.390  41.529   7.211
 3333POPC   C1B44923  41.646  41.159   6.215
 3333POPC   C2B44924  41.483  41.130   6.644
 3333POPC   C3B44925  41.715  41.154   7.012
 3333POPC   C4B44926  41.785  41.303   7.416
 3334POPC   NC344927  16.932  32.818   5.272
 3334POPC   PO444928  16.908  33.447   5.311
 3334POPC   GL144929  16.793  33.196   5.646
 3334POPC   GL244930  16.514  33.013   5.636
 3334POPC   C1A44931  16.684  33.282   6.088
 3334POPC   D2A44932  16.754  33.035   6.463
 3334POPC   C3A44933  16.702  33.154   6.911
 3334POPC   C4A44934  16.517  33.204   7.317
 3334POPC   C1B44935  16.693  32.774   5.987
 3334POPC   C2B44936  16.736  32.520   6.389
 3334POPC   C3B44937  16.786  32.629   6.828
 3334POPC   C4B44938  16.562  32.705   7.198
 3335POPC   NC344939  30.403   3.970   5.652
 3335POPC   PO444940  30.782   4.482   5.301
 3335POPC   GL144941  30.656   4.436   5.758
 3335POPC   GL244942  30.470   4.732   5.833
 3335POPC   C1A44943  30.744   4.195   6.178
 3335POPC   D2A44944  30.937   3.952   6.544
 3335POPC   C3A44945  30.878   4.120   6.965
 3335POPC   C4A44946  31.106   4.453   7.158
 3335POPC   C1B44947  30.500   4.641   6.257
 3335POPC   C2B44948  30.656   4.443   6.623
 3335POPC   C3B44949  30.552   4.547   7.023
 3335POPC   C4B44950  30.319   4.544   7.386
 3336POPC   NC344951  24.698  35.975   5.444
 3336POPC   PO444952  24.236  36.433   5.220
 3336POPC   GL144953  24.394  36.311   5.664
 3336POPC   GL244954  24.215  35.973   5.774
 3336POPC   C1A44955  24.495  36.184   6.122
 3336POPC   D2A44956  24.643  36.297   6.534
 3336POPC   C3A44957  24.535  36.097   6.898
 3336POPC   C4A44958  24.864  36.026   7.206
 3336POPC   C1B44959  24.169  35.786   6.208
 3336POPC   C2B44960  24.089  35.869   6.662
 3336POPC   C3B44961  24.154  35.794   7.097
 3336POPC   C4B44962  24.154  35.987   7.500
 3337POPC   NC344963   6.551   1.572   5.003
 3337POPC   PO444964   6.738   2.139   5.283
 3337POPC   GL144965   6.596   2.155   5.723
 3337POPC   GL244966   6.498   1.814   5.839
 3337POPC   C1A44967   6.771   2.132   6.164
 3337POPC   D2A44968   6.675   1.800   6.471
 3337POPC   C3A44969   6.730   1.958   6.892
 3337POPC   C4A44970   6.568   1.876   7.320
 3337POPC   C1B44971   6.265   2.088   6.110
 3337POPC   C2B44972   6.326   2.164   6.551
 3337POPC   C3B44973   6.217   2.025   6.952
 3337POPC   C4B44974   6.066   2.113   7.335
 3338POPC   NC344975  11.411  21.573   5.489
 3338POPC   PO444976  10.861  21.337   5.544
 3338POPC   GL144977  11.195  21.283   5.861
 3338POPC   GL244978  11.365  20.951   5.916
 3338POPC   C1A44979  11.215  21.264   6.289
 3338POPC   D2A44980  11.215  21.450   6.675
 3338POPC   C3A44981  11.028  21.423   7.047
 3338POPC   C4A44982  11.209  21.372   7.447
 3338POPC   C1B44983  11.599  20.906   6.256
 3338POPC   C2B44984  11.610  21.147   6.605
 3338POPC   C3B44985  11.470  21.130   7.007
 3338POPC   C4B44986  11.860  20.941   7.070
 3339POPC   NC344987  31.443   1.663   5.623
 3339POPC   PO444988  31.480   1.019   5.421
 3339POPC   GL144989  31.416   1.063   5.859
 3339POPC   GL244990  31.761   1.044   5.969
 3339POPC   C1A44991  31.360   1.006   6.310
 3339POPC   D2A44992  31.511   1.268   6.652
 3339POPC   C3A44993  31.482   1.211   7.078
 3339POPC   C4A44994  31.475   0.805   7.294
 3339POPC   C1B44995  31.724   1.444   6.216
 3339POPC   C2B44996  31.977   1.498   6.607
 3339POPC   C3B44997  31.966   1.322   6.994
 3339POPC   C4B44998  31.799   1.550   7.316
 3340POPC   NC344999  31.214  13.096   5.263
 3340POPC   PO445000  31.623  12.497   5.260
 3340POPC   GL145001  31.469  12.775   5.576
 3340POPC   GL245002  31.202  12.654   5.713
 3340POPC   C1A45003  31.545  12.949   6.003
 3340POPC   D2A45004  31.376  13.032   6.439
 3340POPC   C3A45005  31.540  12.795   6.780
 3340POPC   C4A45006  31.588  12.902   7.206
 3340POPC   C1B45007  31.108  12.717   6.155
 3340POPC   C2B45008  31.150  12.501   6.568
 3340POPC   C3B45009  31.072  12.672   6.975
 3340POPC   C4B45010  31.114  12.476   7.364
 3341POPC   NC345011  43.158  35.778   5.355
 3341POPC   PO445012  43.365  36.364   5.561
 3341POPC   GL145013  43.076  36.212   5.843
 3341POPC   GL245014  43.203  35.892   5.849
 3341POPC   C1A45015  42.881  36.023   6.210
 3341POPC   D2A45016  43.078  35.933   6.599
 3341POPC   C3A45017  42.907  35.993   6.997
 3341POPC   C4A45018  43.086  36.041   7.396
 3341POPC   C1B45019  43.402  36.155   6.207
 3341POPC   C2B45020  43.366  36.382   6.561
 3341POPC   C3B45021  43.333  36.263   6.952
 3341POPC   C4B45022  43.375  36.475   7.338
 3342POPC   NC345023  27.217  36.108   5.330
 3342POPC   PO445024  26.575  36.086   5.390
 3342POPC   GL145025  26.888  36.163   5.733
 3342POPC   GL245026  27.022  35.820   5.783
 3342POPC   C1A45027  27.105  36.101   6.178
 3342POPC   D2A45028  26.943  35.935   6.550
 3342POPC   C3A45029  27.022  36.217   6.865
 3342POPC   C4A45030  27.082  36.436   7.246
 3342POPC   C1B45031  26.640  35.903   6.086
 3342POPC   C2B45032  26.420  35.994   6.469
 3342POPC   C3B45033  26.397  35.991   6.922
 3342POPC   C4B45034  26.684  36.115   7.219
 3343POPC   NC345035  22.465  15.489   5.594
 3343POPC   PO445036  22.373  14.921   5.236
 3343POPC   GL145037  22.090  15.118   5.653
 3343POPC   GL245038  22.002  15.463   5.788
 3343POPC   C1A45039  22.069  15.018   6.109
 3343POPC   D2A45040  22.353  15.072   6.476
 3343POPC   C3A45041  22.180  15.100   6.881
 3343POPC   C4A45042  22.353  15.312   7.215
 3343POPC   C1B45043  22.203  15.512   6.220
 3343POPC   C2B45044  22.122  15.567   6.679
 3343POPC   C3B45045  21.879  15.504   7.077
 3343POPC   C4B45046  21.715  15.659   7.470
 3344POPC   NC345047   6.948  14.956   5.394
 3344POPC   PO445048   6.281  15.232   5.390
 3344POPC   GL145049   6.424  15.142   5.773
 3344POPC   GL245050   6.618  14.865   5.775
 3344POPC   C1A45051   6.504  15.305   6.182
 3344POPC   D2A45052   6.328  15.185   6.580
 3344POPC   C3A45053   6.490  15.401   6.941
 3344POPC   C4A45054   6.886  15.416   7.160
 3344POPC   C1B45055   6.887  14.916   6.119
 3344POPC   C2B45056   6.835  15.090   6.531
 3344POPC   C3B45057   6.678  14.943   6.924
 3344POPC   C4B45058   6.782  14.925   7.345
 3345POPC   NC345059  23.969  18.580   5.441
 3345POPC   PO445060  23.559  18.014   5.499
 3345POPC   GL145061  23.818  18.263   5.805
 3345POPC   GL245062  23.588  18.523   5.902
 3345POPC   C1A45063  24.043  18.515   6.152
 3345POPC   D2A45064  24.145  18.336   6.540
 3345POPC   C3A45065  24.068  18.528   6.935
 3345POPC   C4A45066  24.019  18.217   7.235
 3345POPC   C1B45067  23.623  18.267   6.304
 3345POPC   C2B45068  23.710  18.182   6.762
 3345POPC   C3B45069  23.499  18.096   7.119
 3345POPC   C4B45070  23.343  18.489   7.262
 3346POPC   NC345071  16.245  10.745   5.497
 3346POPC   PO445072  15.774  10.296   5.471
 3346POPC   GL145073  15.891  10.550   5.834
 3346POPC   GL245074  15.725  10.818   5.936
 3346POPC   C1A45075  16.203  10.653   6.157
 3346POPC   D2A45076  16.293  10.752   6.604
 3346POPC   C3A45077  16.046  10.569   6.948
 3346POPC   C4A45078  15.943  10.461   7.359
 3346POPC   C1B45079  15.783  10.840   6.382
 3346POPC   C2B45080  15.625  10.799   6.782
 3346POPC   C3B45081  15.664  10.855   7.208
 3346POPC   C4B45082  15.609  10.876   7.678
 3347POPC   NC345083  21.367  13.318   5.570
 3347POPC   PO445084  21.468  12.713   5.210
 3347POPC   GL145085  21.658  12.820   5.655
 3347POPC   GL245086  21.669  12.522   5.880
 3347POPC   C1A45087  21.620  13.046   6.099
 3347POPC   D2A45088  21.690  13.032   6.575
 3347POPC   C3A45089  21.467  12.967   6.986
 3347POPC   C4A45090  21.654  12.994   7.397
 3347POPC   C1B45091  21.558  12.589   6.334
 3347POPC   C2B45092  21.327  12.378   6.643
 3347POPC   C3B45093  21.204  12.475   7.025
 3347POPC   C4B45094  21.429  12.541   7.359
 3348POPC   NC345095  27.977  33.835   5.404
 3348POPC   PO445096  28.322  34.349   5.226
 3348POPC   GL145097  28.421  33.910   5.628
 3348POPC   GL245098  28.225  33.644   5.831
 3348POPC   C1A45099  28.558  33.880   6.116
 3348POPC   D2A45100  28.448  33.829   6.564
 3348POPC   C3A45101  28.488  34.048   6.959
 3348POPC   C4A45102  28.719  33.870   7.301
 3348POPC   C1B45103  28.290  33.420   6.251
 3348POPC   C2B45104  28.187  33.423   6.725
 3348POPC   C3B45105  28.359  33.498   7.163
 3348POPC   C4B45106  28.009  33.448   7.488
 3349POPC   NC345107  30.223  15.237   5.511
 3349POPC   PO445108  29.639  15.329   5.393
 3349POPC   GL145109  29.735  15.315   5.819
 3349POPC   GL245110  29.668  15.659   5.832
 3349POPC   C1A45111  29.990  15.114   6.157
 3349POPC   D2A45112  30.209  15.200   6.537
 3349POPC   C3A45113  30.009  15.073   6.909
 3349POPC   C4A45114  30.052  15.120   7.333
 3349POPC   C1B45115  29.586  15.581   6.264
 3349POPC   C2B45116  29.789  15.493   6.657
 3349POPC   C3B45117  29.591  15.454   7.060
 3349POPC   C4B45118  29.662  15.679   7.465
 3350POPC   NC345119  10.107  26.977   5.526
 3350POPC   PO445120   9.592  26.593   5.251
 3350POPC   GL145121   9.630  26.793   5.677
 3350POPC   GL245122   9.566  26.513   5.839
 3350POPC   C1A45123   9.707  26.886   6.165
 3350POPC   D2A45124   9.615  26.959   6.647
 3350POPC   C3A45125   9.870  26.906   7.083
 3350POPC   C4A45126  10.049  26.706   7.484
 3350POPC   C1B45127   9.699  26.377   6.206
 3350POPC   C2B45128   9.913  26.521   6.547
 3350POPC   C3B45129   9.732  26.462   6.925
 3350POPC   C4B45130   9.570  26.564   7.327
 3351POPC   NC345131   5.364  23.264   5.327
 3351POPC   PO445132   5.877  23.627   5.356
 3351POPC   GL145133   5.705  23.699   5.755
 3351POPC   GL245134   6.061  23.613   5.865
 3351POPC   C1A45135   5.744  23.772   6.205
 3351POPC   D2A45136   5.833  23.524   6.542
 3351POPC   C3A45137   5.696  23.764   6.842
 3351POPC   C4A45138   5.753  23.727   7.254
 3351POPC   C1B45139   6.254  23.411   6.247
 3351POPC   C2B45140   6.341  23.446   6.698
 3351POPC   C3B45141   6.182  23.343   7.093
 3351POPC   C4B45142   6.146  23.548   7.507
 3352POPC   NC345143   0.338   6.011   5.641
 3352POPC   PO445144   0.819   6.377   5.473
 3352POPC   GL145145   0.756   6.162   5.863
 3352POPC   GL245146   0.789   5.802   5.865
 3352POPC   C1A45147   0.511   6.012   6.278
 3352POPC   D2A45148   0.421   5.703   6.654
 3352POPC   C3A45149   0.288   5.935   7.037
 3352POPC   C4A45150   0.353   6.345   7.239
 3352POPC   C1B45151   0.731   5.563   6.246
 3352POPC   C2B45152   0.906   5.405   6.624
 3352POPC   C3B45153   0.874   5.554   7.060
 3352POPC   C4B45154   0.635   5.762   7.365
 3353POPC   NC345155  19.554   9.880   5.552
 3353POPC   PO445156  18.958   9.524   5.420
 3353POPC   GL145157  19.109   9.714   5.822
 3353POPC   GL245158  19.403   9.479   5.884
 3353POPC   C1A45159  19.137   9.928   6.269
 3353POPC   D2A45160  19.165   9.733   6.723
 3353POPC   C3A45161  18.990   9.772   7.162
 3353POPC   C4A45162  19.019   9.981   7.576
 3353POPC   C1B45163  19.103   9.415   6.265
 3353POPC   C2B45164  19.191   9.238   6.684
 3353POPC   C3B45165  19.381   9.405   7.081
 3353POPC   C4B45166  19.230   9.453   7.537
 3354POPC   NC345167  25.011  16.351   5.481
 3354POPC   PO445168  25.230  16.973   5.393
 3354POPC   GL145169  25.308  16.708   5.721
 3354POPC   GL245170  24.968  16.764   5.810
 3354POPC   C1A45171  25.293  16.576   6.160
 3354POPC   D2A45172  25.158  16.463   6.556
 3354POPC   C3A45173  25.358  16.633   6.896
 3354POPC   C4A45174  25.279  16.500   7.282
 3354POPC   C1B45175  25.208  17.076   6.056
 3354POPC   C2B45176  25.282  17.013   6.470
 3354POPC   C3B45177  25.045  17.033   6.834
 3354POPC   C4B45178  25.210  17.030   7.247
 3355POPC   NC345179  18.645  23.965   5.422
 3355POPC   PO445180  19.031  23.421   5.381
 3355POPC   GL145181  19.131  23.530   5.785
 3355POPC   GL245182  19.078  23.879   5.712
 3355POPC   C1A45183  18.988  23.489   6.203
 3355POPC   D2A45184  18.750  23.716   6.478
 3355POPC   C3A45185  18.879  23.662   6.890
 3355POPC   C4A45186  18.712  23.471   7.239
 3355POPC   C1B45187  19.091  23.984   6.115
 3355POPC   C2B45188  19.257  23.856   6.486
 3355POPC   C3B45189  19.292  23.980   6.885
 3355POPC   C4B45190  19.034  24.011   7.260
 3356POPC   NC345191   8.195  42.667   5.337
 3356POPC   PO445192   7.794  42.090   5.415
 3356POPC   GL145193   7.886  42.444   5.696
 3356POPC   GL245194   8.263  42.486   5.805
 3356POPC   C1A45195   7.889  42.514   6.139
 3356POPC   D2A45196   8.093  42.364   6.490
 3356POPC   C3A45197   7.972  42.465   6.897
 3356POPC   C4A45198   8.009  42.166   7.250
 3356POPC   C1B45199   8.473  42.227   6.133
 3356POPC   C2B45200   8.609  42.238   6.574
 3356POPC   C3B45201   8.463  42.243   6.992
 3356POPC   C4B45202   8.320  42.552   7.277
 3357POPC   NC345203   3.745  31.226   5.593
 3357POPC   PO445204   3.651  31.875   5.400
 3357POPC   GL145205   3.561  31.873   5.846
 3357POPC   GL245206   3.483  31.532   5.945
 3357POPC   C1A45207   3.771  31.834   6.252
 3357POPC   D2A45208   3.611  31.549   6.556
 3357POPC   C3A45209   3.372  31.652   6.901
 3357POPC   C4A45210   3.602  31.639   7.284
 3357POPC   C1B45211   3.271  31.316   6.273
 3357POPC   C2B45212   3.301  31.128   6.698
 3357POPC   C3B45213   3.429  31.198   7.101
 3357POPC   C4B45214   3.191  31.175   7.459
 3358POPC   NC345215  15.832  26.321   5.437
 3358POPC   PO445216  15.636  25.724   5.720
 3358POPC   GL145217  15.967  25.992   5.812
 3358POPC   GL245218  15.840  26.287   5.958
 3358POPC   C1A45219  16.143  25.919   6.176
 3358POPC   D2A45220  15.956  26.093   6.545
 3358POPC   C3A45221  16.006  25.857   6.900
 3358POPC   C4A45222  15.677  25.685   7.092
 3358POPC   C1B45223  16.187  26.435   6.183
 3358POPC   C2B45224  16.289  26.481   6.619
 3358POPC   C3B45225  16.118  26.332   7.017
 3358POPC   C4B45226  15.976  26.064   7.351
 3359POPC   NC345227  16.511  22.999   5.103
 3359POPC   PO445228  16.887  23.088   5.675
 3359POPC   GL145229  16.750  22.851   5.971
 3359POPC   GL245230  16.694  22.573   5.797
 3359POPC   C1A45231  16.808  22.912   6.379
 3359POPC   D2A45232  17.050  23.221   6.551
 3359POPC   C3A45233  16.851  23.293   6.950
 3359POPC   C4A45234  16.607  23.018   7.213
 3359POPC   C1B45235  16.497  22.489   6.202
 3359POPC   C2B45236  16.673  22.465   6.596
 3359POPC   C3B45237  16.767  22.611   6.983
 3359POPC   C4B45238  16.409  22.558   7.261
 3360POPC   NC345239  38.949  34.009   5.484
 3360POPC   PO445240  39.479  33.696   5.361
 3360POPC   GL145241  39.399  33.941   5.757
 3360POPC   GL245242  39.186  33.675   5.852
 3360POPC   C1A45243  39.308  33.999   6.220
 3360POPC   D2A45244  39.451  33.622   6.496
 3360POPC   C3A45245  39.331  33.611   6.941
 3360POPC   C4A45246  39.230  34.014   7.191
 3360POPC   C1B45247  38.960  33.597   6.247
 3360POPC   C2B45248  38.681  33.472   6.596
 3360POPC   C3B45249  38.735  33.324   7.038
 3360POPC   C4B45250  38.977  33.580   7.305
 3361POPC   NC345251   2.990  11.009   5.117
 3361POPC   PO445252   2.619  11.475   5.442
 3361POPC   GL145253   2.734  11.240   5.762
 3361POPC   GL245254   3.054  11.063   5.680
 3361POPC   C1A45255   2.546  11.236   6.166
 3361POPC   D2A45256   2.412  10.916   6.460
 3361POPC   C3A45257   2.407  11.107   6.879
 3361POPC   C4A45258   2.553  11.360   7.216
 3361POPC   C1B45259   3.083  11.210   6.126
 3361POPC   C2B45260   2.898  11.089   6.524
 3361POPC   C3B45261   2.979  11.152   6.973
 3361POPC   C4B45262   3.077  11.163   7.424
 3362POPC   NC345263  41.732  25.941   5.371
 3362POPC   PO445264  41.329  26.544   5.356
 3362POPC   GL145265  41.411  26.248   5.738
 3362POPC   GL245266  41.244  25.940   5.802
 3362POPC   C1A45267  41.489  26.211   6.218
 3362POPC   D2A45268  41.705  26.331   6.619
 3362POPC   C3A45269  41.564  26.101   6.974
 3362POPC   C4A45270  41.773  26.060   7.359
 3362POPC   C1B45271  41.452  25.697   6.127
 3362POPC   C2B45272  41.441  25.472   6.505
 3362POPC   C3B45273  41.500  25.596   6.931
 3362POPC   C4B45274  41.416  25.701   7.386
 3363POPC   NC345275  26.000  28.638   5.496
 3363POPC   PO445276  25.996  28.037   5.292
 3363POPC   GL145277  25.973  28.168   5.774
 3363POPC   GL245278  25.689  28.367   5.867
 3363POPC   C1A45279  26.084  28.451   6.187
 3363POPC   D2A45280  26.235  28.647   6.604
 3363POPC   C3A45281  26.301  28.404   6.990
 3363POPC   C4A45282  26.226  28.369   7.411
 3363POPC   C1B45283  25.674  28.157   6.282
 3363POPC   C2B45284  25.939  28.198   6.675
 3363POPC   C3B45285  25.808  28.242   7.127
 3363POPC   C4B45286  25.662  28.183   7.579
 3364POPC   NC345287  17.270  20.778   5.021
 3364POPC   PO445288  16.663  20.860   5.390
 3364POPC   GL145289  16.640  20.490   5.723
 3364POPC   GL245290  16.591  20.743   5.952
 3364POPC   C1A45291  16.752  20.344   6.183
 3364POPC   D2A45292  16.551  20.563   6.540
 3364POPC   C3A45293  16.689  20.543   6.959
 3364POPC   C4A45294  17.061  20.344   7.104
 3364POPC   C1B45295  16.313  20.952   6.261
 3364POPC   C2B45296  16.292  21.076   6.693
 3364POPC   C3B45297  16.353  20.916   7.115
 3364POPC   C4B45298  16.535  20.972   7.520
 3365POPC   NC345299   3.703   3.516   5.424
 3365POPC   PO445300   3.147   3.847   5.516
 3365POPC   GL145301   3.370   3.664   5.874
 3365POPC   GL245302   3.475   3.306   5.830
 3365POPC   C1A45303   3.432   3.814   6.313
 3365POPC   D2A45304   3.347   3.979   6.741
 3365POPC   C3A45305   3.509   3.698   7.061
 3365POPC   C4A45306   3.675   3.714   7.494
 3365POPC   C1B45307   3.314   3.281   6.243
 3365POPC   C2B45308   3.421   3.332   6.668
 3365POPC   C3B45309   3.405   3.202   7.075
 3365POPC   C4B45310   3.766   3.246   7.352
 3366POPC   NC345311  35.193  14.008   5.459
 3366POPC   PO445312  35.094  14.633   5.374
 3366POPC   GL145313  35.255  14.665   5.791
 3366POPC   GL245314  35.331  14.314   5.852
 3366POPC   C1A45315  35.345  14.665   6.248
 3366POPC   D2A45316  35.403  14.419   6.644
 3366POPC   C3A45317  35.502  14.561   7.075
 3366POPC   C4A45318  35.379  14.474   7.517
 3366POPC   C1B45319  35.116  14.185   6.250
 3366POPC   C2B45320  35.159  13.966   6.651
 3366POPC   C3B45321  35.253  14.101   7.074
 3366POPC   C4B45322  35.116  14.017   7.491
 3367POPC   NC345323   0.064  29.765   5.394
 3367POPC   PO445324   0.715  29.581   5.519
 3367POPC   GL145325   0.393  29.836   5.799
 3367POPC   GL245326   0.024  30.035   5.802
 3367POPC   C1A45327   0.341  29.790   6.242
 3367POPC   D2A45328   0.576  29.898   6.604
 3367POPC   C3A45329   0.395  29.949   6.973
 3367POPC   C4A45330   0.518  29.880   7.392
 3367POPC   C1B45331   0.122  30.249   6.158
 3367POPC   C2B45332   0.347  30.385   6.512
 3367POPC   C3B45333   0.159  30.416   6.909
 3367POPC   C4B45334   0.138  30.247   7.293
 3368POPC   NC345335   5.667  19.991   5.541
 3368POPC   PO445336   5.186  19.602   5.184
 3368POPC   GL145337   4.827  19.651   5.645
 3368POPC   GL245338   5.077  19.875   5.821
 3368POPC   C1A45339   4.831  19.644   6.176
 3368POPC   D2A45340   5.031  19.796   6.563
 3368POPC   C3A45341   4.952  19.754   6.995
 3368POPC   C4A45342   5.084  19.645   7.397
 3368POPC   C1B45343   4.960  20.149   6.187
 3368POPC   C2B45344   5.147  20.311   6.603
 3368POPC   C3B45345   5.227  20.216   7.076
 3368POPC   C4B45346   5.149  20.234   7.547
 3369POPC   NC345347  17.418   2.672   5.235
 3369POPC   PO445348  17.114   3.239   5.401
 3369POPC   GL145349  17.207   3.138   5.861
 3369POPC   GL245350  17.308   2.803   5.897
 3369POPC   C1A45351  17.273   3.124   6.304
 3369POPC   D2A45352  17.543   2.916   6.583
 3369POPC   C3A45353  17.442   3.018   6.970
 3369POPC   C4A45354  17.621   2.761   7.233
 3369POPC   C1B45355  17.281   2.572   6.298
 3369POPC   C2B45356  17.325   2.462   6.754
 3369POPC   C3B45357  17.122   2.607   7.112
 3369POPC   C4B45358  17.026   2.954   7.271
 3370POPC   NC345359  43.990  18.604   5.494
 3370POPC   PO445360  43.632  18.225   5.818
 3370POPC   GL145361  43.694  18.620   5.904
 3370POPC   GL245362  43.388  18.727   5.791
 3370POPC   C1A45363  43.941  18.693   6.261
 3370POPC   D2A45364  44.100  18.695   6.700
 3370POPC   C3A45365  44.087  18.280   6.921
 3370POPC   C4A45366  43.795  18.085   7.230
 3370POPC   C1B45367  43.310  18.577   6.233
 3370POPC   C2B45368  43.493  18.602   6.593
 3370POPC   C3B45369  43.433  18.432   6.992
 3370POPC   C4B45370  43.416  18.374   7.430
 3371POPC   NC345371   5.239  43.419   5.344
 3371POPC   PO445372   5.091  44.049   5.404
 3371POPC   GL145373   5.040  43.887   5.812
 3371POPC   GL245374   4.663  43.752   5.750
 3371POPC   C1A45375   5.310  43.771   6.203
 3371POPC   D2A45376   5.426  43.490   6.597
 3371POPC   C3A45377   5.261  43.736   6.925
 3371POPC   C4A45378   5.289  44.093   7.198
 3371POPC   C1B45379   4.769  43.695   6.193
 3371POPC   C2B45380   4.944  43.914   6.541
 3371POPC   C3B45381   4.837  44.057   6.913
 3371POPC   C4B45382   4.830  43.866   7.277
 3372POPC   NC345383  19.285  33.508   5.492
 3372POPC   PO445384  18.807  32.997   5.443
 3372POPC   GL145385  18.908  32.990   5.856
 3372POPC   GL245386  19.239  33.106   5.814
 3372POPC   C1A45387  18.961  32.854   6.263
 3372POPC   D2A45388  18.959  32.695   6.711
 3372POPC   C3A45389  18.795  32.994   7.038
 3372POPC   C4A45390  18.644  32.838   7.418
 3372POPC   C1B45391  19.376  33.165   6.211
 3372POPC   C2B45392  19.196  33.154   6.609
 3372POPC   C3B45393  19.298  32.975   6.980
 3372POPC   C4B45394  19.142  32.673   7.290
 3373POPC   NC345395  16.158  23.876   5.314
 3373POPC   PO445396  15.606  23.436   5.503
 3373POPC   GL145397  15.866  23.676   5.762
 3373POPC   GL245398  16.198  23.564   5.736
 3373POPC   C1A45399  15.943  23.887   6.159
 3373POPC   D2A45400  16.220  23.819   6.516
 3373POPC   C3A45401  16.006  23.758   6.890
 3373POPC   C4A45402  15.819  23.961   7.277
 3373POPC   C1B45403  16.178  23.434   6.170
 3373POPC   C2B45404  16.069  23.307   6.596
 3373POPC   C3B45405  16.271  23.323   6.971
 3373POPC   C4B45406  16.466  23.487   7.324
 3374POPC   NC345407  44.010  39.875   5.218
 3374POPC   PO445408  43.636  40.366   5.435
 3374POPC   GL145409  43.818  40.121   5.807
 3374POPC   GL245410  44.007  39.800   5.741
 3374POPC   C1A45411  43.770  40.003   6.263
 3374POPC   D2A45412  43.698  39.931   6.716
 3374POPC   C3A45413  43.963  40.085   7.073
 3374POPC   C4A45414  43.783  40.130   7.482
 3374POPC   C1B45415  44.014  39.555   6.145
 3374POPC   C2B45416  44.122  39.665   6.580
 3374POPC   C3B45417  43.964  39.575   7.006
 3374POPC   C4B45418  44.077  39.701   7.443
 3375POPC   NC345419  32.242  30.772   5.431
 3375POPC   PO445420  31.740  30.381   5.549
 3375POPC   GL145421  31.938  30.642   5.857
 3375POPC   GL245422  32.260  30.505   5.846
 3375POPC   C1A45423  32.126  30.799   6.262
 3375POPC   D2A45424  32.353  30.934   6.645
 3375POPC   C3A45425  32.110  30.838   7.018
 3375POPC   C4A45426  32.048  30.680   7.449
 3375POPC   C1B45427  32.522  30.466   6.181
 3375POPC   C2B45428  32.691  30.550   6.547
 3375POPC   C3B45429  32.650  30.505   6.947
 3375POPC   C4B45430  32.547  30.640   7.338
 3376POPC   NC345431  43.336  19.306   5.327
 3376POPC   PO445432  42.866  18.905   5.126
 3376POPC   GL145433  42.971  18.976   5.617
 3376POPC   GL245434  43.094  19.291   5.770
 3376POPC   C1A45435  43.029  18.961   6.115
 3376POPC   D2A45436  42.992  18.823   6.562
 3376POPC   C3A45437  43.158  18.865   6.973
 3376POPC   C4A45438  43.371  18.881   7.370
 3376POPC   C1B45439  43.237  19.421   6.202
 3376POPC   C2B45440  43.331  19.237   6.606
 3376POPC   C3B45441  43.400  19.360   7.025
 3376POPC   C4B45442  43.031  19.293   7.224
 3377POPC   NC345443  27.036  32.519   5.352
 3377POPC   PO445444  26.354  32.629   5.415
 3377POPC   GL145445  26.697  32.393   5.757
 3377POPC   GL245446  27.109  32.290   5.782
 3377POPC   C1A45447  26.835  32.103   6.157
 3377POPC   D2A45448  27.021  31.920   6.570
 3377POPC   C3A45449  26.741  32.009   6.932
 3377POPC   C4A45450  26.742  32.334   7.222
 3377POPC   C1B45451  27.022  32.596   6.105
 3377POPC   C2B45452  26.933  32.465   6.531
 3377POPC   C3B45453  27.140  32.342   6.895
 3377POPC   C4B45454  27.096  32.690   7.166
 3378POPC   NC345455  11.575  33.248   5.077
 3378POPC   PO445456  11.165  32.792   5.464
 3378POPC   GL145457  11.302  32.877   5.855
 3378POPC   GL245458  11.263  33.217   5.803
 3378POPC   C1A45459  11.518  32.757   6.239
 3378POPC   D2A45460  11.629  32.559   6.645
 3378POPC   C3A45461  11.527  32.814   6.995
 3378POPC   C4A45462  11.487  33.254   7.134
 3378POPC   C1B45463  11.224  33.187   6.253
 3378POPC   C2B45464  11.443  33.211   6.622
 3378POPC   C3B45465  11.086  33.363   6.799
 3378POPC   C4B45466  10.788  33.377   7.062
 3379POPC   NC345467  42.838  30.288   5.241
 3379POPC   PO445468  43.265  30.813   5.475
 3379POPC   GL145469  43.087  30.550   5.771
 3379POPC   GL245470  42.947  30.865   5.880
 3379POPC   C1A45471  43.158  30.378   6.204
 3379POPC   D2A45472  43.101  30.379   6.664
 3379POPC   C3A45473  43.261  30.705   6.905
 3379POPC   C4A45474  43.335  30.729   7.288
 3379POPC   C1B45475  42.772  30.701   6.240
 3379POPC   C2B45476  42.851  30.819   6.654
 3379POPC   C3B45477  42.789  30.701   7.108
 3379POPC   C4B45478  42.938  30.965   7.438
 3380POPC   NC345479  15.569  43.543   5.312
 3380POPC   PO445480  15.891  44.136   5.384
 3380POPC   GL145481  15.723  43.936   5.714
 3380POPC   GL245482  16.029  43.942   5.868
 3380POPC   C1A45483  15.610  44.030   6.163
 3380POPC   D2A45484  15.823  43.864   6.527
 3380POPC   C3A45485  15.866  44.091   6.888
 3380POPC   C4A45486  15.790  43.900   7.233
 3380POPC   C1B45487  16.278  43.746   6.131
 3380POPC   C2B45488  16.294  43.522   6.489
 3380POPC   C3B45489  16.184  43.673   6.849
 3380POPC   C4B45490  16.306  43.846   7.214
 3381POPC   NC345491   5.652  20.675   5.273
 3381POPC   PO445492   6.109  20.259   5.317
 3381POPC   GL145493   5.906  20.459   5.674
 3381POPC   GL245494   6.021  20.825   5.620
 3381POPC   C1A45495   5.866  20.304   6.126
 3381POPC   D2A45496   6.001  20.240   6.576
 3381POPC   C3A45497   5.680  20.417   6.840
 3381POPC   C4A45498   5.647  20.637   7.196
 3381POPC   C1B45499   6.223  20.827   6.036
 3381POPC   C2B45500   6.049  20.749   6.442
 3381POPC   C3B45501   6.096  20.724   6.878
 3381POPC   C4B45502   6.065  21.019   7.207
 3382POPC   NC345503  19.280  36.048   4.988
 3382POPC   PO445504  18.752  35.737   5.364
 3382POPC   GL145505  18.875  36.101   5.652
 3382POPC   GL245506  18.785  36.468   5.739
 3382POPC   C1A45507  19.018  36.069   6.090
 3382POPC   D2A45508  18.839  36.068   6.503
 3382POPC   C3A45509  19.097  36.006   6.860
 3382POPC   C4A45510  19.199  35.918   7.282
 3382POPC   C1B45511  18.927  36.575   6.196
 3382POPC   C2B45512  19.141  36.489   6.615
 3382POPC   C3B45513  19.124  36.473   7.083
 3382POPC   C4B45514  18.861  36.286   7.433
 3383POPC   NC345515  16.744  41.683   5.050
 3383POPC   PO445516  16.335  41.449   5.556
 3383POPC   GL145517  16.618  41.619   5.884
 3383POPC   GL245518  16.953  41.729   5.790
 3383POPC   C1A45519  16.798  41.364   6.251
 3383POPC   D2A45520  16.935  41.222   6.671
 3383POPC   C3A45521  16.645  41.359   7.001
 3383POPC   C4A45522  16.664  41.810   7.188
 3383POPC   C1B45523  17.098  41.779   6.252
 3383POPC   C2B45524  16.955  41.777   6.712
 3383POPC   C3B45525  17.106  41.521   7.063
 3383POPC   C4B45526  17.084  41.108   7.165
 3384POPC   NC345527  22.215  43.058   5.109
 3384POPC   PO445528  22.434  43.009   5.690
 3384POPC   GL145529  22.090  43.000   5.915
 3384POPC   GL245530  22.183  43.267   6.086
 3384POPC   C1A45531  21.807  42.674   6.069
 3384POPC   D2A45532  21.678  42.517   6.471
 3384POPC   C3A45533  21.892  42.762   6.817
 3384POPC   C4A45534  22.143  43.056   7.089
 3384POPC   C1B45535  22.143  43.031   6.447
 3384POPC   C2B45536  22.470  42.839   6.692
 3384POPC   C3B45537  22.654  43.055   7.042
 3384POPC   C4B45538  22.517  43.475   7.205
 3385POPC   NC345539  28.046  26.457   5.508
 3385POPC   PO445540  28.645  26.121   5.519
 3385POPC   GL145541  28.462  26.044   5.877
 3385POPC   GL245542  28.309  26.327   5.942
 3385POPC   C1A45543  28.702  26.018   6.238
 3385POPC   D2A45544  28.869  25.952   6.626
 3385POPC   C3A45545  28.565  25.834   6.921
 3385POPC   C4A45546  28.418  26.047   7.267
 3385POPC   C1B45547  28.235  26.202   6.390
 3385POPC   C2B45548  28.183  26.253   6.867
 3385POPC   C3B45549  28.144  26.465   7.293
 3385POPC   C4B45550  27.908  26.590   7.671
 3386POPC   NC345551  17.360  18.543   5.336
 3386POPC   PO445552  17.781  18.040   5.437
 3386POPC   GL145553  17.545  18.189   5.830
 3386POPC   GL245554  17.365  18.505   5.834
 3386POPC   C1A45555  17.251  18.118   6.178
 3386POPC   D2A45556  17.315  17.995   6.611
 3386POPC   C3A45557  17.578  18.283   6.842
 3386POPC   C4A45558  17.631  18.437   7.246
 3386POPC   C1B45559  17.170  18.644   6.181
 3386POPC   C2B45560  17.189  18.503   6.588
 3386POPC   C3B45561  17.282  18.692   6.965
 3386POPC   C4B45562  17.193  18.679   7.407
 3387POPC   NC345563  31.320  37.239   5.489
 3387POPC   PO445564  31.405  36.566   5.248
 3387POPC   GL145565  31.576  36.763   5.652
 3387POPC   GL245566  31.339  36.915   5.875
 3387POPC   C1A45567  31.694  36.639   6.096
 3387POPC   D2A45568  31.336  36.778   6.374
 3387POPC   C3A45569  31.358  36.752   6.813
 3387POPC   C4A45570  31.495  36.956   7.177
 3387POPC   C1B45571  31.059  37.168   6.119
 3387POPC   C2B45572  30.896  37.087   6.526
 3387POPC   C3B45573  31.079  37.178   6.907
 3387POPC   C4B45574  31.012  37.059   7.295
 3388POPC   NC345575   6.393  20.639   5.310
 3388POPC   PO445576   6.874  20.206   5.494
 3388POPC   GL145577   6.710  20.545   5.740
 3388POPC   GL245578   6.399  20.439   5.783
 3388POPC   C1A45579   6.739  20.699   6.181
 3388POPC   D2A45580   6.998  20.711   6.574
 3388POPC   C3A45581   6.825  20.537   6.937
 3388POPC   C4A45582   6.533  20.757   7.145
 3388POPC   C1B45583   6.372  20.338   6.196
 3388POPC   C2B45584   6.473  20.488   6.580
 3388POPC   C3B45585   6.373  20.302   6.953
 3388POPC   C4B45586   6.107  20.374   7.290
 3389POPC   NC345587  24.390   6.112   5.447
 3389POPC   PO445588  24.857   5.697   5.506
 3389POPC   GL145589  24.790   6.040   5.813
 3389POPC   GL245590  24.804   6.412   5.790
 3389POPC   C1A45591  24.685   5.997   6.259
 3389POPC   D2A45592  24.752   5.720   6.621
 3389POPC   C3A45593  24.629   5.806   7.046
 3389POPC   C4A45594  24.226   5.981   7.183
 3389POPC   C1B45595  25.044   6.359   6.201
 3389POPC   C2B45596  24.988   6.203   6.630
 3389POPC   C3B45597  24.686   6.298   6.939
 3389POPC   C4B45598  24.792   6.601   7.239
 3390POPC   NC345599   8.849  28.960   5.433
 3390POPC   PO445600   9.044  29.531   5.724
 3390POPC   GL145601   8.867  29.215   5.907
 3390POPC   GL245602   9.108  28.956   5.900
 3390POPC   C1A45603   8.893  29.139   6.349
 3390POPC   D2A45604   9.292  29.089   6.585
 3390POPC   C3A45605   9.253  29.087   6.986
 3390POPC   C4A45606   8.916  29.176   7.224
 3390POPC   C1B45607   9.165  28.694   6.288
 3390POPC   C2B45608   8.866  28.717   6.643
 3390POPC   C3B45609   8.645  28.793   7.027
 3390POPC   C4B45610   9.032  28.693   7.221
 3391POPC   NC345611  36.082  15.397   5.359
 3391POPC   PO445612  35.564  15.015   5.529
 3391POPC   GL145613  36.029  15.005   5.720
 3391POPC   GL245614  36.272  15.319   5.809
 3391POPC   C1A45615  36.126  15.015   6.177
 3391POPC   D2A45616  36.031  15.329   6.496
 3391POPC   C3A45617  35.934  15.091   6.854
 3391POPC   C4A45618  36.160  15.005   7.200
 3391POPC   C1B45619  36.568  15.301   6.142
 3391POPC   C2B45620  36.549  15.467   6.534
 3391POPC   C3B45621  36.355  15.413   6.899
 3391POPC   C4B45622  36.487  15.375   7.295
 3392POPC   NC345623  10.536  41.268   5.215
 3392POPC   PO445624  10.655  40.635   5.292
 3392POPC   GL145625  10.463  40.566   5.692
 3392POPC   GL245626  10.343  40.883   5.725
 3392POPC   C1A45627  10.523  40.588   6.142
 3392POPC   D2A45628  10.314  40.605   6.544
 3392POPC   C3A45629  10.632  40.654   6.836
 3392POPC   C4A45630  10.737  40.711   7.243
 3392POPC   C1B45631  10.239  41.016   6.155
 3392POPC   C2B45632  10.470  41.095   6.550
 3392POPC   C3B45633  10.547  41.154   6.996
 3392POPC   C4B45634  10.432  41.107   7.409
 3393POPC   NC345635  18.845  26.505   5.585
 3393POPC   PO445636  19.057  25.861   5.437
 3393POPC   GL145637  19.175  26.153   5.783
 3393POPC   GL245638  18.899  26.015   5.915
 3393POPC   C1A45639  19.191  26.356   6.215
 3393POPC   D2A45640  19.031  26.199   6.627
 3393POPC   C3A45641  19.200  26.219   7.060
 3393POPC   C4A45642  19.287  26.041   7.495
 3393POPC   C1B45643  18.680  26.167   6.245
 3393POPC   C2B45644  18.534  26.018   6.644
 3393POPC   C3B45645  18.796  25.893   6.964
 3393POPC   C4B45646  18.817  26.063   7.358
 3394POPC   NC345647  16.194  33.416   5.585
 3394POPC   PO445648  15.653  33.902   5.527
 3394POPC   GL145649  15.965  33.785   5.855
 3394POPC   GL245650  16.230  33.979   5.892
 3394POPC   C1A45651  16.092  33.540   6.256
 3394POPC   D2A45652  15.784  33.506   6.639
 3394POPC   C3A45653  15.733  33.781   7.018
 3394POPC   C4A45654  15.779  33.748   7.478
 3394POPC   C1B45655  16.078  34.024   6.329
 3394POPC   C2B45656  16.173  33.844   6.737
 3394POPC   C3B45657  16.148  34.052   7.145
 3394POPC   C4B45658  16.297  34.253   7.552
 3395POPC   NC345659  30.405  42.043   5.451
 3395POPC   PO445660  30.907  42.451   5.591
 3395POPC   GL145661  30.615  42.293   5.875
 3395POPC   GL245662  30.794  41.992   5.818
 3395POPC   C1A45663  30.525  42.044   6.262
 3395POPC   D2A45664  30.375  42.109   6.693
 3395POPC   C3A45665  30.513  42.502   6.900
 3395POPC   C4A45666  30.503  42.415   7.349
 3395POPC   C1B45667  31.022  41.873   6.196
 3395POPC   C2B45668  30.886  41.945   6.631
 3395POPC   C3B45669  30.764  42.073   7.070
 3395POPC   C4B45670  30.991  42.231   7.472
 3396POPC   NC345671   0.936  16.048   5.386
 3396POPC   PO445672   0.302  16.132   5.363
 3396POPC   GL145673   0.551  15.974   5.742
 3396POPC   GL245674   0.852  16.165   5.878
 3396POPC   C1A45675   0.507  15.982   6.222
 3396POPC   D2A45676   0.475  16.161   6.660
 3396POPC   C3A45677   0.405  15.865   7.011
 3396POPC   C4A45678   0.646  15.726   7.377
 3396POPC   C1B45679   1.019  15.985   6.283
 3396POPC   C2B45680   0.961  16.009   6.758
 3396POPC   C3B45681   0.762  16.200   7.142
 3396POPC   C4B45682   0.827  16.162   7.619
 3397POPC   NC345683   6.857   6.371   5.480
 3397POPC   PO445684   6.391   6.833   5.390
 3397POPC   GL145685   6.637   6.864   5.795
 3397POPC   GL245686   6.880   6.613   5.921
 3397POPC   C1A45687   6.585   6.905   6.258
 3397POPC   D2A45688   6.803   6.727   6.634
 3397POPC   C3A45689   6.567   6.749   7.023
 3397POPC   C4A45690   6.390   6.443   7.308
 3397POPC   C1B45691   7.085   6.902   6.221
 3397POPC   C2B45692   7.100   7.149   6.633
 3397POPC   C3B45693   7.098   6.993   7.061
 3397POPC   C4B45694   6.987   6.602   7.265
 3398POPC   NC345695  29.227  44.871   5.537
 3398POPC   PO445696  29.612  44.263   5.546
 3398POPC   GL145697  29.433  44.537   5.870
 3398POPC   GL245698  29.063  44.443   5.985
 3398POPC   C1A45699  29.311  44.815   6.206
 3398POPC   D2A45700  29.128  44.682   6.578
 3398POPC   C3A45701  29.314  44.904   6.891
 3398POPC   C4A45702  29.333  44.719   7.275
 3398POPC   C1B45703  28.798  44.805   6.180
 3398POPC   C2B45704  28.693  44.968   6.620
 3398POPC   C3B45705  28.843  44.763   7.035
 3398POPC   C4B45706  28.884  44.654   7.521
 3399POPC   NC345707  21.541  19.229   5.363
 3399POPC   PO445708  21.158  18.622   5.607
 3399POPC   GL145709  21.366  18.971   5.802
 3399POPC   GL245710  21.734  19.073   5.863
 3399POPC   C1A45711  21.309  19.104   6.221
 3399POPC   D2A45712  21.050  19.193   6.593
 3399POPC   C3A45713  20.977  18.844   6.895
 3399POPC   C4A45714  21.230  18.714   7.249
 3399POPC   C1B45715  21.744  19.382   6.232
 3399POPC   C2B45716  21.552  19.345   6.626
 3399POPC   C3B45717  21.402  19.135   6.980
 3399POPC   C4B45718  21.668  19.012   7.321
 3400POPC   NC345719  28.573   2.938   5.061
 3400POPC   PO445720  29.203   2.831   5.331
 3400POPC   GL145721  29.263   2.663   5.767
 3400POPC   GL245722  28.925   2.587   5.867
 3400POPC   C1A45723  29.272   2.792   6.202
 3400POPC   D2A45724  29.513   2.913   6.531
 3400POPC   C3A45725  29.227   2.814   6.863
 3400POPC   C4A45726  29.211   2.690   7.264
 3400POPC   C1B45727  28.761   2.898   6.172
 3400POPC   C2B45728  28.738   2.917   6.625
 3400POPC   C3B45729  28.753   2.934   7.087
 3400POPC   C4B45730  28.741   2.768   7.500
 3401POPC   NC345731   8.021   9.680   5.294
 3401POPC   PO445732   8.373  10.197   5.334
 3401POPC   GL145733   8.185   9.962   5.710
 3401POPC   GL245734   8.293   9.622   5.771
 3401POPC   C1A45735   7.931   9.776   6.084
 3401POPC   D2A45736   7.810   9.717   6.487
 3401POPC   C3A45737   8.122   9.711   6.788
 3401POPC   C4A45738   8.127   9.667   7.229
 3401POPC   C1B45739   8.407   9.780   6.243
 3401POPC   C2B45740   8.494  10.021   6.653
 3401POPC   C3B45741   8.583   9.793   7.051
 3401POPC   C4B45742   8.605   9.389   7.254
 3402POPC   NC345743   3.877   8.528   5.283
 3402POPC   PO445744   3.376   8.123   5.221
 3402POPC   GL145745   3.516   8.253   5.640
 3402POPC   GL245746   3.747   8.001   5.797
 3402POPC   C1A45747   3.468   8.330   6.113
 3402POPC   D2A45748   3.647   8.489   6.528
 3402POPC   C3A45749   3.695   8.291   6.945
 3402POPC   C4A45750   3.859   8.431   7.331
 3402POPC   C1B45751   3.577   7.833   6.202
 3402POPC   C2B45752   3.466   7.955   6.630
 3402POPC   C3B45753   3.369   7.810   7.052
 3402POPC   C4B45754   3.476   8.108   7.379
 3403POPC   NC345755   7.250  34.224   5.522
 3403POPC   PO445756   7.463  33.614   5.324
 3403POPC   GL145757   7.489  33.800   5.787
 3403POPC   GL245758   7.648  34.128   5.841
 3403POPC   C1A45759   7.264  33.681   6.234
 3403POPC   D2A45760   7.284  33.860   6.673
 3403POPC   C3A45761   7.250  33.720   7.130
 3403POPC   C4A45762   7.278  33.673   7.589
 3403POPC   C1B45763   7.668  33.988   6.256
 3403POPC   C2B45764   7.785  34.065   6.671
 3403POPC   C3B45765   7.757  33.834   7.052
 3403POPC   C4B45766   7.756  33.861   7.502
 3404POPC   NC345767   3.542  31.250   5.109
 3404POPC   PO445768   3.685  30.726   5.562
 3404POPC   GL145769   3.537  30.603   5.914
 3404POPC   GL245770   3.528  30.973   6.000
 3404POPC   C1A45771   3.708  30.575   6.316
 3404POPC   D2A45772   3.743  30.942   6.567
 3404POPC   C3A45773   3.709  30.799   6.975
 3404POPC   C4A45774   3.625  30.447   7.220
 3404POPC   C1B45775   3.259  30.781   6.316
 3404POPC   C2B45776   3.325  30.589   6.718
 3404POPC   C3B45777   3.216  30.746   7.127
 3404POPC   C4B45778   3.129  30.664   7.562
 3405POPC   NC345779   3.997  41.993   5.306
 3405POPC   PO445780   4.675  42.310   5.434
 3405POPC   GL145781   4.328  42.341   5.735
 3405POPC   GL245782   4.343  42.694   5.754
 3405POPC   C1A45783   4.099  42.403   6.157
 3405POPC   D2A45784   4.288  42.382   6.591
 3405POPC   C3A45785   4.089  42.249   6.974
 3405POPC   C4A45786   4.150  42.424   7.399
 3405POPC   C1B45787   4.554  42.632   6.160
 3405POPC   C2B45788   4.621  42.785   6.570
 3405POPC   C3B45789   4.573  42.665   6.999
 3405POPC   C4B45790   4.603  42.610   7.455
 3406POPC   NC345791  40.516  40.829   5.431
 3406POPC   PO445792  41.245  40.885   5.236
 3406POPC   GL145793  41.150  40.787   5.739
 3406POPC   GL245794  40.863  40.520   5.833
 3406POPC   C1A45795  40.918  40.886   6.167
 3406POPC   D2A45796  40.592  40.879   6.490
 3406POPC   C3A45797  40.690  40.970   6.918
 3406POPC   C4A45798  41.086  41.125   7.116
 3406POPC   C1B45799  40.920  40.375   6.300
 3406POPC   C2B45800  40.901  40.285   6.758
 3406POPC   C3B45801  40.763  40.517   7.122
 3406POPC   C4B45802  40.356  40.715   7.220
 3407POPC   NC345803  23.329  36.029   5.572
 3407POPC   PO445804  22.632  35.867   5.488
 3407POPC   GL145805  22.755  36.063   5.872
 3407POPC   GL245806  23.015  36.301   5.845
 3407POPC   C1A45807  22.827  36.143   6.307
 3407POPC   D2A45808  22.950  35.908   6.640
 3407POPC   C3A45809  22.775  36.122   7.008
 3407POPC   C4A45810  22.440  36.291   7.241
 3407POPC   C1B45811  23.286  36.313   6.220
 3407POPC   C2B45812  23.142  36.399   6.666
 3407POPC   C3B45813  23.246  36.296   7.113
 3407POPC   C4B45814  23.264  36.393   7.573
 3408POPC   NC345815  24.599  34.066   5.341
 3408POPC   PO445816  24.257  33.473   5.452
 3408POPC   GL145817  24.497  33.752   5.740
 3408POPC   GL245818  24.221  33.918   5.837
 3408POPC   C1A45819  24.584  33.892   6.191
 3408POPC   D2A45820  24.603  33.609   6.550
 3408POPC   C3A45821  24.631  33.729   6.984
 3408POPC   C4A45822  24.510  33.526   7.375
 3408POPC   C1B45823  24.231  33.535   6.143
 3408POPC   C2B45824  24.078  33.550   6.574
 3408POPC   C3B45825  24.129  33.625   7.021
 3408POPC   C4B45826  24.280  33.960   7.303
 3409POPC   NC345827  44.443   1.888   5.348
 3409POPC   PO445828  44.939   2.292   5.543
 3409POPC   GL145829  44.576   2.180   5.776
 3409POPC   GL245830  44.577   1.820   5.822
 3409POPC   C1A45831  44.458   2.217   6.206
 3409POPC   D2A45832  44.635   2.373   6.598
 3409POPC   C3A45833  44.567   2.136   6.925
 3409POPC   C4A45834  44.771   2.100   7.279
 3409POPC   C1B45835  44.840   1.848   6.175
 3409POPC   C2B45836  44.851   1.709   6.598
 3409POPC   C3B45837  44.740   1.670   7.018
 3409POPC   C4B45838  44.547   1.677   7.440
 3410POPC   NC345839  33.429   1.750   5.541
 3410POPC   PO445840  32.785   2.054   5.437
 3410POPC   GL145841  32.940   1.930   5.799
 3410POPC   GL245842  33.253   2.152   5.818
 3410POPC   C1A45843  32.644   1.872   6.131
 3410POPC   D2A45844  32.816   1.789   6.510
 3410POPC   C3A45845  32.696   1.844   6.919
 3410POPC   C4A45846  33.007   1.871   7.205
 3410POPC   C1B45847  33.264   1.848   6.225
 3410POPC   C2B45848  33.284   1.802   6.717
 3410POPC   C3B45849  33.394   1.541   7.112
 3410POPC   C4B45850  33.268   1.593   7.540
 3411POPC   NC345851  33.000  32.828   5.359
 3411POPC   PO445852  33.071  33.456   5.173
 3411POPC   GL145853  32.970  33.282   5.657
 3411POPC   GL245854  33.169  32.982   5.803
 3411POPC   C1A45855  32.822  33.190   6.134
 3411POPC   D2A45856  32.884  32.851   6.523
 3411POPC   C3A45857  32.967  32.947   6.964
 3411POPC   C4A45858  32.914  32.776   7.377
 3411POPC   C1B45859  33.280  32.988   6.227
 3411POPC   C2B45860  33.519  33.233   6.507
 3411POPC   C3B45861  33.443  33.299   6.931
 3411POPC   C4B45862  33.267  33.197   7.321
 3412POPC   NC345863  41.876  21.983   4.945
 3412POPC   PO445864  41.590  22.237   5.529
 3412POPC   GL145865  41.638  22.132   5.943
 3412POPC   GL245866  41.905  21.888   5.969
 3412POPC   C1A45867  41.300  21.961   6.186
 3412POPC   D2A45868  41.127  21.807   6.557
 3412POPC   C3A45869  41.264  22.017   6.911
 3412POPC   C4A45870  41.330  21.952   7.322
 3412POPC   C1B45871  41.738  21.717   6.274
 3412POPC   C2B45872  41.652  21.786   6.641
 3412POPC   C3B45873  41.874  21.783   6.968
 3412POPC   C4B45874  41.839  21.877   7.356
 3413POPC   NC345875   6.574  36.358   5.283
 3413POPC   PO445876   6.542  35.817   5.653
 3413POPC   GL145877   6.704  36.042   5.906
 3413POPC   GL245878   6.813  36.342   5.734
 3413POPC   C1A45879   6.531  36.028   6.282
 3413POPC   D2A45880   6.712  35.887   6.608
 3413POPC   C3A45881   6.468  36.037   6.891
 3413POPC   C4A45882   6.709  35.950   7.209
 3413POPC   C1B45883   6.855  36.450   6.171
 3413POPC   C2B45884   6.671  36.436   6.554
 3413POPC   C3B45885   6.855  36.357   6.899
 3413POPC   C4B45886   6.715  36.463   7.274
 3414POPC   NC345887   9.898  26.191   5.171
 3414POPC   PO445888   9.465  25.897   5.542
 3414POPC   GL145889   9.824  26.030   5.807
 3414POPC   GL245890   9.999  26.308   5.658
 3414POPC   C1A45891   9.847  25.906   6.254
 3414POPC   D2A45892   9.496  25.982   6.536
 3414POPC   C3A45893   9.561  25.824   6.938
 3414POPC   C4A45894   9.609  26.082   7.243
 3414POPC   C1B45895  10.176  26.319   6.082
 3414POPC   C2B45896  10.286  26.134   6.467
 3414POPC   C3B45897  10.058  26.085   6.840
 3414POPC   C4B45898  10.073  26.252   7.258
 3415POPC   NC345899   5.646  10.896   5.128
 3415POPC   PO445900   6.063  11.348   5.335
 3415POPC   GL145901   5.866  11.518   5.715
 3415POPC   GL245902   6.112  11.675   5.899
 3415POPC   C1A45903   5.784  11.421   6.184
 3415POPC   D2A45904   5.757  11.556   6.614
 3415POPC   C3A45905   5.804  11.224   6.894
 3415POPC   C4A45906   5.555  11.202   7.213
 3415POPC   C1B45907   6.299  11.480   6.210
 3415POPC   C2B45908   6.204  11.317   6.564
 3415POPC   C3B45909   6.260  11.453   6.962
 3415POPC   C4B45910   6.009  11.492   7.304
 3416POPC   NC345911  44.862  26.710   5.567
 3416POPC   PO445912  44.336  27.097   5.423
 3416POPC   GL145913  44.335  27.012   5.859
 3416POPC   GL245914  44.381  26.668   5.906
 3416POPC   C1A45915  44.355  27.025   6.323
 3416POPC   D2A45916  44.391  26.718   6.642
 3416POPC   C3A45917  44.656  26.900   6.940
 3416POPC   C4A45918  44.669  27.205   7.254
 3416POPC   C1B45919  44.712  26.645   6.238
 3416POPC   C2B45920  44.818  26.462   6.660
 3416POPC   C3B45921  44.598  26.418   7.070
 3416POPC   C4B45922  44.990  26.429   7.292
 3417POPC   NC345923  41.671  11.597   5.385
 3417POPC   PO445924  41.786  11.010   5.471
 3417POPC   GL145925  41.534  11.228   5.836
 3417POPC   GL245926  41.387  11.568   5.876
 3417POPC   C1A45927  41.510  11.246   6.288
 3417POPC   D2A45928  41.811  11.374   6.582
 3417POPC   C3A45929  41.682  11.247   6.974
 3417POPC   C4A45930  41.308  11.191   7.179
 3417POPC   C1B45931  41.363  11.726   6.319
 3417POPC   C2B45932  41.582  11.807   6.723
 3417POPC   C3B45933  41.512  11.690   7.146
 3417POPC   C4B45934  41.485  11.858   7.543
 3418POPC   NC345935  17.363   5.026   5.495
 3418POPC   PO445936  18.062   4.964   5.419
 3418POPC   GL145937  17.742   4.991   5.822
 3418POPC   GL245938  17.622   5.340   5.800
 3418POPC   C1A45939  17.534   5.034   6.289
 3418POPC   D2A45940  17.807   5.198   6.684
 3418POPC   C3A45941  17.746   4.985   7.085
 3418POPC   C4A45942  17.368   4.748   7.207
 3418POPC   C1B45943  17.736   5.489   6.196
 3418POPC   C2B45944  17.413   5.501   6.528
 3418POPC   C3B45945  17.334   5.217   6.876
 3418POPC   C4B45946  17.386   5.259   7.352
 3419POPC   NC345947  39.845  32.046   5.566
 3419POPC   PO445948  40.361  31.597   5.433
 3419POPC   GL145949  40.334  31.561   5.862
 3419POPC   GL245950  40.294  31.190   5.865
 3419POPC   C1A45951  40.207  31.769   6.253
 3419POPC   D2A45952  39.837  31.665   6.527
 3419POPC   C3A45953  39.984  31.433   6.911
 3419POPC   C4A45954  40.142  31.595   7.306
 3419POPC   C1B45955  39.926  31.303   6.155
 3419POPC   C2B45956  39.729  31.139   6.550
 3419POPC   C3B45957  39.553  31.137   6.959
 3419POPC   C4B45958  39.718  31.285   7.344
 3420POPC   NC345959   6.119   5.699   5.423
 3420POPC   PO445960   6.764   5.913   5.507
 3420POPC   GL145961   6.518   6.052   5.848
 3420POPC   GL245962   6.411   6.381   5.784
 3420POPC   C1A45963   6.352   5.856   6.248
 3420POPC   D2A45964   6.391   5.554   6.640
 3420POPC   C3A45965   6.469   5.740   7.067
 3420POPC   C4A45966   6.695   5.757   7.483
 3420POPC   C1B45967   6.577   6.369   6.262
 3420POPC   C2B45968   6.576   6.284   6.738
 3420POPC   C3B45969   6.760   6.156   7.120
 3420POPC   C4B45970   6.782   6.242   7.563
 3421POPC   NC345971  34.762   3.026   5.373
 3421POPC   PO445972  34.606   3.579   5.254
 3421POPC   GL145973  34.710   3.637   5.709
 3421POPC   GL245974  34.549   3.321   5.761
 3421POPC   C1A45975  34.724   3.760   6.206
 3421POPC   D2A45976  34.663   3.585   6.667
 3421POPC   C3A45977  34.694   3.894   7.039
 3421POPC   C4A45978  34.663   3.942   7.523
 3421POPC   C1B45979  34.564   3.265   6.224
 3421POPC   C2B45980  34.548   3.070   6.643
 3421POPC   C3B45981  34.617   3.239   7.067
 3421POPC   C4B45982  34.881   3.507   7.321
 3422POPC   NC345983   7.030   8.686   5.230
 3422POPC   PO445984   7.435   8.121   5.280
 3422POPC   GL145985   7.375   8.254   5.724
 3422POPC   GL245986   7.193   7.995   5.916
 3422POPC   C1A45987   7.434   8.355   6.181
 3422POPC   D2A45988   7.587   8.253   6.607
 3422POPC   C3A45989   7.384   8.328   7.015
 3422POPC   C4A45990   7.511   8.355   7.455
 3422POPC   C1B45991   7.301   7.895   6.377
 3422POPC   C2B45992   7.374   7.840   6.847
 3422POPC   C3B45993   7.459   7.856   7.292
 3422POPC   C4B45994   7.638   7.539   7.571
 3423POPC   NC345995  44.180  28.246   5.555
 3423POPC   PO445996  44.490  28.690   5.111
 3423POPC   GL145997  44.655  28.508   5.650
 3423POPC   GL245998  44.416  28.521   5.917
 3423POPC   C1A45999  44.802  28.413   6.182
 3423POPC   D2A46000  44.650  28.397   6.636
 3423POPC   C3A46001  44.885  28.138   6.943
 3423POPC   C4A46002  44.785  28.144   7.400
 3423POPC   C1B46003  44.477  28.792   6.263
 3423POPC   C2B46004  44.312  28.805   6.649
 3423POPC   C3B46005  44.536  28.886   6.982
 3423POPC   C4B46006  44.761  28.586   7.147
 3424POPC   NC346007  38.721  44.486   5.572
 3424POPC   PO446008  38.215  44.820   5.389
 3424POPC   GL146009  38.373  44.750   5.813
 3424POPC   GL246010  38.686  44.922   5.891
 3424POPC   C1A46011  38.223  44.867   6.220
 3424POPC   D2A46012  38.132  44.779   6.636
 3424POPC   C3A46013  38.273   0.102   6.911
 3424POPC   C4A46014  38.621  44.973   7.174
 3424POPC   C1B46015  38.673  44.639   6.285
 3424POPC   C2B46016  38.632  44.634   6.748
 3424POPC   C3B46017  38.557  44.472   7.161
 3424POPC   C4B46018  38.287  44.476   7.552
 3425POPC   NC346019  29.708  37.470   5.491
 3425POPC   PO446020  30.199  37.883   5.402
 3425POPC   GL146021  30.240  37.739   5.811
 3425POPC   GL246022  29.955  37.951   5.898
 3425POPC   C1A46023  30.117  37.514   6.201
 3425POPC   D2A46024  29.998  37.607   6.624
 3425POPC   C3A46025  30.070  37.359   6.981
 3425POPC   C4A46026  30.258  37.521   7.334
 3425POPC   C1B46027  29.681  37.785   6.225
 3425POPC   C2B46028  29.561  37.862   6.650
 3425POPC   C3B46029  29.698  37.735   7.067
 3425POPC   C4B46030  29.750  37.946   7.461
 3426POPC   NC346031   5.301  24.719   5.414
 3426POPC   PO446032   5.459  24.127   5.595
 3426POPC   GL146033   5.216  24.392   5.832
 3426POPC   GL246034   4.922  24.478   5.707
 3426POPC   C1A46035   5.150  24.639   6.190
 3426POPC   D2A46036   5.400  24.597   6.583
 3426POPC   C3A46037   5.233  24.669   6.990
 3426POPC   C4A46038   5.481  24.626   7.370
 3426POPC   C1B46039   4.813  24.251   6.131
 3426POPC   C2B46040   4.899  24.405   6.575
 3426POPC   C3B46041   4.794  24.346   7.008
 3426POPC   C4B46042   4.981  24.126   7.351
 3427POPC   NC346043  20.894  19.988   5.422
 3427POPC   PO446044  20.275  20.064   5.521
 3427POPC   GL146045  20.558  20.163   5.852
 3427POPC   GL246046  20.737  19.847   5.911
 3427POPC   C1A46047  20.635  20.150   6.319
 3427POPC   D2A46048  20.703  19.741   6.534
 3427POPC   C3A46049  20.826  19.774   6.978
 3427POPC   C4A46050  21.055  19.752   7.367
 3427POPC   C1B46051  20.337  19.783   6.132
 3427POPC   C2B46052  20.133  19.874   6.498
 3427POPC   C3B46053  20.309  19.748   6.902
 3427POPC   C4B46054  20.463  19.742   7.353
 3428POPC   NC346055  15.277  33.331   5.391
 3428POPC   PO446056  15.019  32.751   5.396
 3428POPC   GL146057  15.148  32.876   5.782
 3428POPC   GL246058  14.921  33.141   5.806
 3428POPC   C1A46059  15.152  32.873   6.245
 3428POPC   D2A46060  15.011  33.180   6.576
 3428POPC   C3A46061  15.202  33.214   7.000
 3428POPC   C4A46062  15.383  32.896   7.234
 3428POPC   C1B46063  14.687  32.778   6.031
 3428POPC   C2B46064  14.712  32.697   6.491
 3428POPC   C3B46065  14.891  32.806   6.909
 3428POPC   C4B46066  14.915  32.726   7.369
 3429POPC   NC346067  40.697  17.688   5.347
 3429POPC   PO446068  40.265  17.259   5.560
 3429POPC   GL146069  40.599  17.382   5.897
 3429POPC   GL246070  40.842  17.633   5.836
 3429POPC   C1A46071  40.802  17.525   6.344
 3429POPC   D2A46072  40.735  17.800   6.725
 3429POPC   C3A46073  40.596  17.588   7.098
 3429POPC   C4A46074  40.578  17.148   7.253
 3429POPC   C1B46075  41.100  17.271   5.996
 3429POPC   C2B46076  41.243  17.212   6.411
 3429POPC   C3B46077  41.079  17.131   6.825
 3429POPC   C4B46078  41.046  17.377   7.180
 3430POPC   NC346079  34.867  16.879   5.469
 3430POPC   PO446080  35.456  16.528   5.331
 3430POPC   GL146081  35.379  16.736   5.774
 3430POPC   GL246082  35.249  17.058   5.776
 3430POPC   C1A46083  35.210  16.602   6.217
 3430POPC   D2A46084  35.384  16.455   6.630
 3430POPC   C3A46085  35.140  16.415   7.013
 3430POPC   C4A46086  35.168  16.657   7.401
 3430POPC   C1B46087  35.463  17.056   6.193
 3430POPC   C2B46088  35.274  16.963   6.609
 3430POPC   C3B46089  35.368  16.977   7.047
 3430POPC   C4B46090  35.166  17.230   7.385
 3431POPC   NC346091  44.059  28.511   5.143
 3431POPC   PO446092  43.464  28.435   5.488
 3431POPC   GL146093  43.741  28.435   5.813
 3431POPC   GL246094  43.926  28.694   5.971
 3431POPC   C1A46095  43.674  28.326   6.223
 3431POPC   D2A46096  43.616  28.393   6.656
 3431POPC   C3A46097  43.758  28.126   6.962
 3431POPC   C4A46098  43.812  28.320   7.361
 3431POPC   C1B46099  44.138  28.434   6.309
 3431POPC   C2B46100  44.155  28.300   6.704
 3431POPC   C3B46101  44.213  28.503   7.103
 3431POPC   C4B46102  44.334  28.344   7.534
 3432POPC   NC346103  40.590  32.001   5.416
 3432POPC   PO446104  40.406  32.605   5.195
 3432POPC   GL146105  40.730  32.468   5.638
 3432POPC   GL246106  40.957  32.157   5.732
 3432POPC   C1A46107  40.766  32.481   6.108
 3432POPC   D2A46108  40.440  32.312   6.402
 3432POPC   C3A46109  40.519  32.226   6.846
 3432POPC   C4A46110  40.816  32.365   7.153
 3432POPC   C1B46111  40.694  31.963   6.079
 3432POPC   C2B46112  40.753  31.843   6.530
 3432POPC   C3B46113  40.874  31.878   6.968
 3432POPC   C4B46114  40.599  31.847   7.334
 3433POPC   NC346115  20.815   7.303   4.874
 3433POPC   PO446116  20.440   7.345   5.446
 3433POPC   GL146117  20.561   7.458   5.866
 3433POPC   GL246118  20.639   7.823   5.829
 3433POPC   C1A46119  20.474   7.242   6.280
 3433POPC   D2A46120  20.279   7.300   6.721
 3433POPC   C3A46121  20.483   7.228   7.146
 3433POPC   C4A46122  20.314   7.170   7.604
 3433POPC   C1B46123  20.764   7.700   6.258
 3433POPC   C2B46124  20.740   7.512   6.646
 3433POPC   C3B46125  20.749   7.704   7.040
 3433POPC   C4B46126  21.061   7.832   7.335
 3434POPC   NC346127  37.307  37.693   5.282
 3434POPC   PO446128  36.864  37.397   5.688
 3434POPC   GL146129  36.833  37.735   5.940
 3434POPC   GL246130  37.204  37.744   5.918
 3434POPC   C1A46131  36.839  37.795   6.385
 3434POPC   D2A46132  36.741  37.943   6.798
 3434POPC   C3A46133  36.743  37.610   7.080
 3434POPC   C4A46134  36.771  37.334   7.389
 3434POPC   C1B46135  37.268  38.047   6.256
 3434POPC   C2B46136  37.296  37.979   6.687
 3434POPC   C3B46137  37.177  37.863   7.088
 3434POPC   C4B46138  36.974  37.781   7.507
 3435POPC   NC346139  28.306   3.940   5.384
 3435POPC   PO446140  28.438   3.288   5.331
 3435POPC   GL146141  28.434   3.555   5.707
 3435POPC   GL246142  28.111   3.570   5.750
 3435POPC   C1A46143  28.329   3.783   6.151
 3435POPC   D2A46144  28.086   3.699   6.511
 3435POPC   C3A46145  28.298   3.708   6.920
 3435POPC   C4A46146  28.485   3.639   7.333
 3435POPC   C1B46147  28.250   3.257   6.090
 3435POPC   C2B46148  28.111   3.184   6.505
 3435POPC   C3B46149  28.298   3.043   6.851
 3435POPC   C4B46150  28.202   3.244   7.210
 3436POPC   NC346151  35.082   4.809   5.483
 3436POPC   PO446152  35.645   4.567   5.318
 3436POPC   GL146153  35.502   4.654   5.810
 3436POPC   GL246154  35.365   4.995   5.877
 3436POPC   C1A46155  35.480   4.762   6.303
 3436POPC   D2A46156  35.680   4.900   6.717
 3436POPC   C3A46157  35.426   4.900   7.105
 3436POPC   C4A46158  35.082   4.858   7.416
 3436POPC   C1B46159  35.191   5.178   6.283
 3436POPC   C2B46160  35.153   5.111   6.725
 3436POPC   C3B46161  35.229   5.374   7.074
 3436POPC   C4B46162  35.087   5.358   7.495
 3437POPC   NC346163  29.116   4.084   5.602
 3437POPC   PO446164  29.230   4.740   5.457
 3437POPC   GL146165  29.246   4.585   5.879
 3437POPC   GL246166  28.910   4.412   5.957
 3437POPC   C1A46167  29.247   4.587   6.336
 3437POPC   D2A46168  28.958   4.510   6.661
 3437POPC   C3A46169  29.117   4.370   7.019
 3437POPC   C4A46170  29.110   3.951   7.168
 3437POPC   C1B46171  28.951   4.123   6.330
 3437POPC   C2B46172  28.815   3.918   6.737
 3437POPC   C3B46173  28.626   4.094   7.116
 3437POPC   C4B46174  28.819   4.362   7.452
 3438POPC   NC346175  38.253  28.281   5.349
 3438POPC   PO446176  38.032  28.819   5.591
 3438POPC   GL146177  38.385  28.574   5.784
 3438POPC   GL246178  38.472  28.182   5.815
 3438POPC   C1A46179  38.276  28.469   6.206
 3438POPC   D2A46180  38.078  28.514   6.596
 3438POPC   C3A46181  38.314  28.500   6.950
 3438POPC   C4A46182  38.548  28.294   7.254
 3438POPC   C1B46183  38.683  28.179   6.268
 3438POPC   C2B46184  38.747  28.221   6.756
 3438POPC   C3B46185  38.988  28.048   7.148
 3438POPC   C4B46186  38.770  27.872   7.507
 3439POPC   NC346187   6.750  24.644   5.431
 3439POPC   PO446188   6.444  23.987   5.487
 3439POPC   GL146189   6.693  24.265   5.807
 3439POPC   GL246190   6.546  24.621   5.897
 3439POPC   C1A46191   6.701  24.213   6.249
 3439POPC   D2A46192   6.328  24.375   6.463
 3439POPC   C3A46193   6.298  24.398   6.883
 3439POPC   C4A46194   6.464  24.214   7.247
 3439POPC   C1B46195   6.680  24.720   6.313
 3439POPC   C2B46196   6.819  24.490   6.682
 3439POPC   C3B46197   6.825  24.525   7.113
 3439POPC   C4B46198   6.426  24.716   7.267
 3440POPC   NC346199   6.089   7.622   5.476
 3440POPC   PO446200   5.573   7.270   5.387
 3440POPC   GL146201   5.667   7.540   5.748
 3440POPC   GL246202   5.512   7.305   5.910
 3440POPC   C1A46203   5.935   7.626   6.136
 3440POPC   D2A46204   6.032   7.432   6.540
 3440POPC   C3A46205   5.958   7.580   6.939
 3440POPC   C4A46206   6.172   7.364   7.241
 3440POPC   C1B46207   5.662   7.202   6.289
 3440POPC   C2B46208   5.819   6.949   6.625
 3440POPC   C3B46209   5.819   7.051   7.039
 3440POPC   C4B46210   5.599   7.305   7.265
 3441POPC   NC346211  22.767  35.397   5.370
 3441POPC   PO446212  23.296  34.910   5.448
 3441POPC   GL146213  22.978  35.097   5.781
 3441POPC   GL246214  22.647  35.256   5.839
 3441POPC   C1A46215  22.928  35.099   6.253
 3441POPC   D2A46216  23.067  35.399   6.591
 3441POPC   C3A46217  23.034  35.212   7.008
 3441POPC   C4A46218  23.320  35.391   7.326
 3441POPC   C1B46219  22.708  35.557   6.197
 3441POPC   C2B46220  22.564  35.462   6.614
 3441POPC   C3B46221  22.730  35.611   7.003
 3441POPC   C4B46222  23.174  35.798   7.082
 3442POPC   NC346223  23.756  36.209   5.199
 3442POPC   PO446224  23.681  35.768   5.721
 3442POPC   GL146225  23.712  36.161   5.909
 3442POPC   GL246226  23.918  36.406   5.766
 3442POPC   C1A46227  23.735  36.090   6.336
 3442POPC   D2A46228  23.450  35.993   6.616
 3442POPC   C3A46229  23.664  36.090   6.911
 3442POPC   C4A46230  23.688  35.920   7.256
 3442POPC   C1B46231  24.005  36.500   6.220
 3442POPC   C2B46232  24.147  36.396   6.649
 3442POPC   C3B46233  24.067  36.340   7.080
 3442POPC   C4B46234  23.684  36.469   7.285
 3443POPC   NC346235  38.004  37.951   5.579
 3443POPC   PO446236  37.516  37.456   5.605
 3443POPC   GL146237  37.742  37.644   5.912
 3443POPC   GL246238  37.659  37.983   5.946
 3443POPC   C1A46239  37.833  37.643   6.344
 3443POPC   D2A46240  37.923  37.455   6.724
 3443POPC   C3A46241  37.522  37.492   6.913
 3443POPC   C4A46242  37.259  37.392   7.253
 3443POPC   C1B46243  37.919  38.131   6.239
 3443POPC   C2B46244  37.806  38.124   6.654
 3443POPC   C3B46245  37.857  37.899   6.985
 3443POPC   C4B46246  37.619  37.780   7.320
 3444POPC   NC346247  31.624   5.312   5.399
 3444POPC   PO446248  32.040   5.143   5.919
 3444POPC   GL146249  31.562   5.130   5.873
 3444POPC   GL246250  31.431   4.825   5.796
 3444POPC   C1A46251  31.218   5.163   6.176
 3444POPC   D2A46252  31.350   5.140   6.656
 3444POPC   C3A46253  31.590   5.294   7.057
 3444POPC   C4A46254  31.765   5.040   7.432
 3444POPC   C1B46255  31.488   4.734   6.258
 3444POPC   C2B46256  31.358   4.637   6.713
 3444POPC   C3B46257  31.458   4.809   7.084
 3444POPC   C4B46258  31.275   4.896   7.480
 3445POPC   NC346259  35.441  16.063   5.303
 3445POPC   PO446260  34.987  16.450   5.610
 3445POPC   GL146261  35.327  16.233   5.774
 3445POPC   GL246262  35.159  15.941   5.713
 3445POPC   C1A46263  35.490  16.160   6.172
 3445POPC   D2A46264  35.230  15.986   6.496
 3445POPC   C3A46265  35.445  15.994   6.885
 3445POPC   C4A46266  35.643  15.980   7.272
 3445POPC   C1B46267  35.262  15.719   6.058
 3445POPC   C2B46268  35.034  15.492   6.381
 3445POPC   C3B46269  35.039  15.465   6.822
 3445POPC   C4B46270  35.208  15.683   7.221
 3446POPC   NC346271  36.585   2.574   5.103
 3446POPC   PO446272  36.060   2.973   5.421
 3446POPC   GL146273  36.077   2.921   5.881
 3446POPC   GL246274  35.961   2.593   5.865
 3446POPC   C1A46275  36.168   2.739   6.314
 3446POPC   D2A46276  36.309   2.809   6.751
 3446POPC   C3A46277  36.165   2.699   7.156
 3446POPC   C4A46278  36.241   2.931   7.541
 3446POPC   C1B46279  35.875   2.272   6.146
 3446POPC   C2B46280  35.705   2.244   6.525
 3446POPC   C3B46281  35.776   2.544   6.841
 3446POPC   C4B46282  35.706   2.485   7.276
 3447POPC   NC346283  36.597  13.304   5.423
 3447POPC   PO446284  37.042  13.826   5.523
 3447POPC   GL146285  36.917  13.584   5.888
 3447POPC   GL246286  36.559  13.431   5.925
 3447POPC   C1A46287  37.122  13.637   6.291
 3447POPC   D2A46288  37.319  13.748   6.682
 3447POPC   C3A46289  37.112  13.488   6.934
 3447POPC   C4A46290  37.018  13.366   7.316
 3447POPC   C1B46291  36.594  13.706   6.274
 3447POPC   C2B46292  36.802  13.800   6.662
 3447POPC   C3B46293  36.701  13.790   7.080
 3447POPC   C4B46294  36.532  13.522   7.429
 3448POPC   NC346295  10.346  39.250   5.076
 3448POPC   PO446296  10.648  38.884   5.473
 3448POPC   GL146297  10.405  39.140   5.714
 3448POPC   GL246298  10.687  39.224   5.942
 3448POPC   C1A46299  10.210  39.267   6.079
 3448POPC   D2A46300  10.344  39.272   6.482
 3448POPC   C3A46301  10.344  39.185   6.913
 3448POPC   C4A46302  10.286  39.250   7.337
 3448POPC   C1B46303  10.829  39.350   6.346
 3448POPC   C2B46304  10.749  39.476   6.779
 3448POPC   C3B46305  10.794  39.256   7.192
 3448POPC   C4B46306  10.684  38.950   7.537
 3449POPC   NC346307  27.186   3.059   5.649
 3449POPC   PO446308  26.760   2.573   5.354
 3449POPC   GL146309  26.711   2.708   5.778
 3449POPC   GL246310  27.024   2.545   5.854
 3449POPC   C1A46311  26.454   2.669   6.175
 3449POPC   D2A46312  26.509   2.863   6.580
 3449POPC   C3A46313  26.529   2.807   6.993
 3449POPC   C4A46314  26.845   2.958   7.263
 3449POPC   C1B46315  26.956   2.742   6.274
 3449POPC   C2B46316  27.024   2.805   6.717
 3449POPC   C3B46317  27.288   3.080   6.945
 3449POPC   C4B46318  27.253   3.230   7.341
 3450POPC   NC346319  32.459  39.415   5.183
 3450POPC   PO446320  31.811  39.342   5.215
 3450POPC   GL146321  31.920  39.235   5.708
 3450POPC   GL246322  32.246  39.068   5.762
 3450POPC   C1A46323  32.038  39.432   6.139
 3450POPC   D2A46324  32.013  39.316   6.551
 3450POPC   C3A46325  32.265  39.538   6.817
 3450POPC   C4A46326  32.194  39.470   7.226
 3450POPC   C1B46327  32.447  39.112   6.186
 3450POPC   C2B46328  32.432  39.021   6.613
 3450POPC   C3B46329  32.203  39.031   6.974
 3450POPC   C4B46330  32.305  39.001   7.413
 3451POPC   NC346331  44.749  10.927   5.473
 3451POPC   PO446332  44.763  10.317   5.593
 3451POPC   GL146333  44.746  10.671   5.921
 3451POPC   GL246334   0.013  10.939   5.921
 3451POPC   C1A46335  44.516  10.641   6.311
 3451POPC   D2A46336  44.474  10.292   6.604
 3451POPC   C3A46337  44.508  10.412   7.032
 3451POPC   C4A46338  44.555  10.844   7.222
 3451POPC   C1B46339   0.002  10.790   6.359
 3451POPC   C2B46340  44.816  10.691   6.744
 3451POPC   C3B46341  44.995  10.588   7.150
 3451POPC   C4B46342   0.097  10.726   7.580
 3452POPC   NC346343  44.537  41.350   5.554
 3452POPC   PO446344  44.691  41.874   5.219
 3452POPC   GL146345  44.667  41.816   5.714
 3452POPC   GL246346  44.953  41.587   5.844
 3452POPC   C1A46347  44.628  41.719   6.188
 3452POPC   D2A46348  44.481  41.325   6.441
 3452POPC   C3A46349  44.436  41.313   6.893
 3452POPC   C4A46350  44.139  41.373   7.219
 3452POPC   C1B46351  44.954  41.308   6.225
 3452POPC   C2B46352  44.931  41.396   6.674
 3452POPC   C3B46353  44.848  41.729   6.992
 3452POPC   C4B46354  44.866  41.745   7.464
 3453POPC   NC346355  18.295  43.692   5.212
 3453POPC   PO446356  18.408  44.237   5.542
 3453POPC   GL146357  18.425  43.951   5.876
 3453POPC   GL246358  18.463  43.574   5.827
 3453POPC   C1A46359  18.401  44.092   6.301
 3453POPC   D2A46360  18.530  44.157   6.723
 3453POPC   C3A46361  18.196  44.140   7.045
 3453POPC   C4A46362  18.338  44.047   7.453
 3453POPC   C1B46363  18.160  43.647   6.194
 3453POPC   C2B46364  18.222  43.762   6.653
 3453POPC   C3B46365  18.476  43.742   7.042
 3453POPC   C4B46366  18.124  43.632   7.243
 3454POPC   NC346367   8.444  35.931   5.071
 3454POPC   PO446368   8.941  36.085   5.382
 3454POPC   GL146369   8.897  36.183   5.769
 3454POPC   GL246370   9.248  36.247   5.843
 3454POPC   C1A46371   8.782  36.016   6.136
 3454POPC   D2A46372   8.760  36.136   6.533
 3454POPC   C3A46373   9.050  36.103   6.839
 3454POPC   C4A46374   8.870  35.973   7.235
 3454POPC   C1B46375   9.263  36.147   6.288
 3454POPC   C2B46376   9.266  36.486   6.559
 3454POPC   C3B46377   9.193  36.580   6.963
 3454POPC   C4B46378   9.219  36.320   7.299
 3455POPC   NC346379  43.758   4.100   5.462
 3455POPC   PO446380  44.144   4.574   5.705
 3455POPC   GL146381  43.780   4.374   5.904
 3455POPC   GL246382  43.722   3.997   5.954
 3455POPC   C1A46383  43.750   4.360   6.326
 3455POPC   D2A46384  43.640   4.003   6.501
 3455POPC   C3A46385  43.728   4.045   6.938
 3455POPC   C4A46386  43.761   4.435   7.195
 3455POPC   C1B46387  44.092   3.991   6.203
 3455POPC   C2B46388  44.090   3.824   6.615
 3455POPC   C3B46389  44.303   3.800   6.987
 3455POPC   C4B46390  44.179   4.120   7.222
 3456POPC   NC346391  26.144   5.270   5.473
 3456POPC   PO446392  25.981   4.670   5.323
 3456POPC   GL146393  26.013   4.889   5.793
 3456POPC   GL246394  25.918   5.250   5.929
 3456POPC   C1A46395  26.210   4.989   6.231
 3456POPC   D2A46396  26.108   5.259   6.593
 3456POPC   C3A46397  26.162   5.097   7.038
 3456POPC   C4A46398  26.218   5.074   7.507
 3456POPC   C1B46399  25.688   5.458   6.293
 3456POPC   C2B46400  25.708   5.587   6.762
 3456POPC   C3B46401  25.688   5.347   7.185
 3456POPC   C4B46402  25.711   5.079   7.590
 3457POPC   NC346403  18.293  33.449   5.487
 3457POPC   PO446404  18.857  33.774   5.348
 3457POPC   GL146405  18.544  33.886   5.695
 3457POPC   GL246406  18.162  33.855   5.753
 3457POPC   C1A46407  18.567  33.789   6.138
 3457POPC   D2A46408  18.382  33.552   6.472
 3457POPC   C3A46409  18.383  33.762   6.895
 3457POPC   C4A46410  18.437  33.817   7.344
 3457POPC   C1B46411  18.003  33.728   6.159
 3457POPC   C2B46412  17.971  33.850   6.610
 3457POPC   C3B46413  17.877  33.661   7.029
 3457POPC   C4B46414  17.894  33.788   7.468
 3458POPC   NC346415  40.551  38.027   5.426
 3458POPC   PO446416  41.163  37.689   5.409
 3458POPC   GL146417  40.815  37.661   5.717
 3458POPC   GL246418  40.837  37.345   5.916
 3458POPC   C1A46419  40.677  37.745   6.165
 3458POPC   D2A46420  40.722  37.512   6.553
 3458POPC   C3A46421  40.694  37.831   6.848
 3458POPC   C4A46422  40.740  37.891   7.279
 3458POPC   C1B46423  41.153  37.410   6.254
 3458POPC   C2B46424  41.271  37.525   6.657
 3458POPC   C3B46425  41.020  37.407   6.994
 3458POPC   C4B46426  41.105  37.449   7.381
 3459POPC   NC346427   1.353  11.027   5.465
 3459POPC   PO446428   0.985  10.477   5.409
 3459POPC   GL146429   1.207  10.492   5.835
 3459POPC   GL246430   1.503  10.641   5.759
 3459POPC   C1A46431   1.526  10.418   6.209
 3459POPC   D2A46432   1.667  10.422   6.659
 3459POPC   C3A46433   1.300  10.478   6.900
 3459POPC   C4A46434   1.019  10.384   7.253
 3459POPC   C1B46435   1.491  10.928   6.105
 3459POPC   C2B46436   1.484  10.921   6.521
 3459POPC   C3B46437   1.476  10.969   6.938
 3459POPC   C4B46438   1.430  10.743   7.311
 3460POPC   NC346439   4.296  30.460   5.247
 3460POPC   PO446440   3.981  31.032   5.247
 3460POPC   GL146441   4.117  30.934   5.735
 3460POPC   GL246442   4.244  30.624   5.734
 3460POPC   C1A46443   4.082  30.873   6.175
 3460POPC   D2A46444   4.166  30.651   6.564
 3460POPC   C3A46445   4.192  30.881   6.969
 3460POPC   C4A46446   4.083  30.633   7.359
 3460POPC   C1B46447   4.512  30.606   6.110
 3460POPC   C2B46448   4.618  30.399   6.509
 3460POPC   C3B46449   4.431  30.411   6.936
 3460POPC   C4B46450   4.624  30.750   7.193
 3461POPC   NC346451  31.814  35.859   5.260
 3461POPC   PO446452  32.263  36.347   5.379
 3461POPC   GL146453  32.137  36.263   5.765
 3461POPC   GL246454  32.011  35.939   5.722
 3461POPC   C1A46455  32.286  36.375   6.169
 3461POPC   D2A46456  32.338  36.174   6.560
 3461POPC   C3A46457  32.330  36.404   6.919
 3461POPC   C4A46458  32.020  36.278   7.219
 3461POPC   C1B46459  32.210  35.854   6.122
 3461POPC   C2B46460  32.275  35.668   6.545
 3461POPC   C3B46461  32.114  35.813   6.927
 3461POPC   C4B46462  31.892  35.743   7.290
 3462POPC   NC346463  22.658   8.544   5.379
 3462POPC   PO446464  23.060   9.120   5.096
 3462POPC   GL146465  23.037   8.869   5.584
 3462POPC   GL246466  22.941   9.105   5.865
 3462POPC   C1A46467  22.965   8.659   6.060
 3462POPC   D2A46468  22.658   8.751   6.388
 3462POPC   C3A46469  22.756   8.652   6.819
 3462POPC   C4A46470  22.906   8.809   7.192
 3462POPC   C1B46471  22.951   9.213   6.296
 3462POPC   C2B46472  22.991   9.123   6.741
 3462POPC   C3B46473  22.872   9.303   7.147
 3462POPC   C4B46474  22.903   9.126   7.613
 3463POPC   NC346475  18.450  30.839   5.469
 3463POPC   PO446476  18.045  30.450   5.709
 3463POPC   GL146477  18.243  30.722   5.964
 3463POPC   GL246478  18.538  30.588   5.902
 3463POPC   C1A46479  18.298  30.791   6.396
 3463POPC   D2A46480  18.439  31.043   6.703
 3463POPC   C3A46481  18.420  30.863   7.071
 3463POPC   C4A46482  18.126  30.752   7.361
 3463POPC   C1B46483  18.741  30.568   6.276
 3463POPC   C2B46484  18.636  30.510   6.693
 3463POPC   C3B46485  18.766  30.443   7.110
 3463POPC   C4B46486  18.613  30.615   7.481
 3464POPC   NC346487  11.480  20.027   5.261
 3464POPC   PO446488  11.054  19.576   5.350
 3464POPC   GL146489  11.086  19.788   5.725
 3464POPC   GL246490  11.407  19.958   5.761
 3464POPC   C1A46491  11.114  19.895   6.156
 3464POPC   D2A46492  11.175  19.692   6.511
 3464POPC   C3A46493  11.225  19.914   6.863
 3464POPC   C4A46494  11.078  19.730   7.245
 3464POPC   C1B46495  11.622  19.943   6.207
 3464POPC   C2B46496  11.673  19.775   6.645
 3464POPC   C3B46497  11.649  19.804   7.134
 3464POPC   C4B46498  11.680  19.660   7.565
 3465POPC   NC346499  37.832  15.380   5.395
 3465POPC   PO446500  37.309  14.789   5.495
 3465POPC   GL146501  37.484  15.117   5.817
 3465POPC   GL246502  37.310  15.451   5.821
 3465POPC   C1A46503  37.699  15.256   6.240
 3465POPC   D2A46504  38.034  15.213   6.603
 3465POPC   C3A46505  37.807  15.144   6.943
 3465POPC   C4A46506  37.402  14.941   7.086
 3465POPC   C1B46507  37.207  15.491   6.273
 3465POPC   C2B46508  37.377  15.291   6.650
 3465POPC   C3B46509  37.429  15.453   7.064
 3465POPC   C4B46510  37.749  15.423   7.361
 3466POPC   NC346511   3.952   1.161   5.544
 3466POPC   PO446512   4.512   1.217   5.211
 3466POPC   GL146513   4.485   1.098   5.655
 3466POPC   GL246514   4.549   1.404   5.797
 3466POPC   C1A46515   4.274   1.079   6.092
 3466POPC   D2A46516   4.302   1.137   6.523
 3466POPC   C3A46517   4.164   1.039   6.936
 3466POPC   C4A46518   4.371   0.780   7.215
 3466POPC   C1B46519   4.480   1.592   6.200
 3466POPC   C2B46520   4.246   1.620   6.603
 3466POPC   C3B46521   4.274   1.544   7.063
 3466POPC   C4B46522   4.301   1.237   7.398
 3467POPC   NC346523  24.303  30.298   5.421
 3467POPC   PO446524  24.652  29.642   5.357
 3467POPC   GL146525  24.597  30.006   5.714
 3467POPC   GL246526  24.263  30.201   5.899
 3467POPC   C1A46527  24.616  29.997   6.170
 3467POPC   D2A46528  24.499  29.754   6.541
 3467POPC   C3A46529  24.689  29.830   6.939
 3467POPC   C4A46530  24.805  30.086   7.251
 3467POPC   C1B46531  24.238  30.369   6.310
 3467POPC   C2B46532  24.476  30.260   6.672
 3467POPC   C3B46533  24.325  30.179   7.093
 3467POPC   C4B46534  24.257  30.253   7.530
 3468POPC   NC346535  22.696  30.281   5.522
 3468POPC   PO446536  23.100  29.825   5.347
 3468POPC   GL146537  23.012  29.970   5.809
 3468POPC   GL246538  22.932  30.306   5.982
 3468POPC   C1A46539  22.837  29.901   6.259
 3468POPC   D2A46540  22.822  29.635   6.611
 3468POPC   C3A46541  22.768  29.809   7.000
 3468POPC   C4A46542  22.958  29.866   7.371
 3468POPC   C1B46543  23.240  30.454   6.311
 3468POPC   C2B46544  23.360  30.242   6.696
 3468POPC   C3B46545  23.032  30.272   7.008
 3468POPC   C4B46546  22.636  30.261   7.202
 3469POPC   NC346547   6.311  37.207   5.431
 3469POPC   PO446548   5.566  37.031   5.412
 3469POPC   GL146549   5.655  36.890   5.815
 3469POPC   GL246550   6.005  36.948   5.783
 3469POPC   C1A46551   5.804  36.783   6.223
 3469POPC   D2A46552   5.698  36.955   6.613
 3469POPC   C3A46553   5.862  36.823   7.015
 3469POPC   C4A46554   5.704  37.194   7.187
 3469POPC   C1B46555   6.142  37.168   6.185
 3469POPC   C2B46556   6.208  37.050   6.627
 3469POPC   C3B46557   6.179  37.250   7.019
 3469POPC   C4B46558   6.103  37.179   7.508
 3470POPC   NC346559  39.132   7.146   5.599
 3470POPC   PO446560  39.472   7.651   5.381
 3470POPC   GL146561  39.317   7.578   5.834
 3470POPC   GL246562  39.031   7.735   5.989
 3470POPC   C1A46563  39.273   7.324   6.236
 3470POPC   D2A46564  39.494   7.297   6.662
 3470POPC   C3A46565  39.268   7.265   7.058
 3470POPC   C4A46566  38.807   7.256   7.150
 3470POPC   C1B46567  39.134   7.762   6.442
 3470POPC   C2B46568  38.948   7.668   6.845
 3470POPC   C3B46569  39.042   7.689   7.277
 3470POPC   C4B46570  39.462   7.647   7.444
 3471POPC   NC346571  33.450  25.559   5.532
 3471POPC   PO446572  32.734  25.445   5.353
 3471POPC   GL146573  32.972  25.455   5.746
 3471POPC   GL246574  33.187  25.162   5.714
 3471POPC   C1A46575  33.227  25.457   6.142
 3471POPC   D2A46576  33.375  25.282   6.530
 3471POPC   C3A46577  33.149  25.421   6.919
 3471POPC   C4A46578  32.954  25.391   7.338
 3471POPC   C1B46579  32.971  25.017   6.097
 3471POPC   C2B46580  32.914  25.083   6.567
 3471POPC   C3B46581  32.907  24.991   7.031
 3471POPC   C4B46582  32.900  24.908   7.500
 3472POPC   NC346583   4.412  28.211   5.626
 3472POPC   PO446584   5.050  28.363   5.436
 3472POPC   GL146585   5.021  28.524   5.876
 3472POPC   GL246586   4.674  28.641   5.934
 3472POPC   C1A46587   5.052  28.327   6.287
 3472POPC   D2A46588   5.310  28.210   6.638
 3472POPC   C3A46589   5.211  28.434   6.974
 3472POPC   C4A46590   5.157  28.141   7.274
 3472POPC   C1B46591   4.640  28.613   6.349
 3472POPC   C2B46592   4.741  28.534   6.750
 3472POPC   C3B46593   4.722  28.519   7.174
 3472POPC   C4B46594   5.024  28.637   7.448
 3473POPC   NC346595   7.217  20.028   5.215
 3473POPC   PO446596   7.534  20.543   5.554
 3473POPC   GL146597   7.495  20.447   5.959
 3473POPC   GL246598   7.150  20.437   5.991
 3473POPC   C1A46599   7.484  20.653   6.359
 3473POPC   D2A46600   7.439  20.965   6.695
 3473POPC   C3A46601   7.500  20.703   7.037
 3473POPC   C4A46602   7.436  20.670   7.488
 3473POPC   C1B46603   7.104  20.240   6.393
 3473POPC   C2B46604   7.238  20.263   6.828
 3473POPC   C3B46605   7.140  20.326   7.274
 3473POPC   C4B46606   7.067  20.235   7.717
 3474POPC   NC346607   4.540  35.232   5.313
 3474POPC   PO446608   3.947  34.962   5.375
 3474POPC   GL146609   4.135  35.235   5.697
 3474POPC   GL246610   4.167  35.593   5.629
 3474POPC   C1A46611   4.356  35.212   6.110
 3474POPC   D2A46612   4.360  35.099   6.580
 3474POPC   C3A46613   4.576  35.401   6.866
 3474POPC   C4A46614   4.452  35.573   7.273
 3474POPC   C1B46615   4.054  35.708   6.052
 3474POPC   C2B46616   4.235  35.577   6.456
 3474POPC   C3B46617   4.103  35.556   6.881
 3474POPC   C4B46618   3.796  35.499   7.179
 3475POPC   NC346619  34.576  23.280   5.504
 3475POPC   PO446620  34.290  22.802   5.431
 3475POPC   GL146621  34.311  22.967   5.863
 3475POPC   GL246622  34.241  23.318   5.894
 3475POPC   C1A46623  34.442  22.973   6.321
 3475POPC   D2A46624  34.863  23.006   6.526
 3475POPC   C3A46625  34.851  23.066   6.988
 3475POPC   C4A46626  34.619  22.956   7.384
 3475POPC   C1B46627  34.524  23.457   6.200
 3475POPC   C2B46628  34.571  23.404   6.632
 3475POPC   C3B46629  34.410  23.334   7.040
 3475POPC   C4B46630  34.467  23.426   7.466
 3476POPC   NC346631   5.242   2.859   5.446
 3476POPC   PO446632   4.904   2.274   5.565
 3476POPC   GL146633   5.121   2.569   5.852
 3476POPC   GL246634   5.486   2.544   5.793
 3476POPC   C1A46635   5.095   2.940   6.162
 3476POPC   D2A46636   5.130   3.112   6.597
 3476POPC   C3A46637   5.021   2.743   6.838
 3476POPC   C4A46638   4.937   2.690   7.283
 3476POPC   C1B46639   5.602   2.779   6.155
 3476POPC   C2B46640   5.523   2.801   6.593
 3476POPC   C3B46641   5.469   2.874   7.031
 3476POPC   C4B46642   5.436   2.573   7.323
 3477POPC   NC346643   1.296  21.021   5.396
 3477POPC   PO446644   1.145  21.629   5.381
 3477POPC   GL146645   1.261  21.492   5.815
 3477POPC   GL246646   1.434  21.209   5.837
 3477POPC   C1A46647   1.387  21.436   6.277
 3477POPC   D2A46648   1.278  21.653   6.640
 3477POPC   C3A46649   1.470  21.505   7.027
 3477POPC   C4A46650   1.308  21.500   7.469
 3477POPC   C1B46651   1.081  21.073   6.084
 3477POPC   C2B46652   0.928  21.220   6.496
 3477POPC   C3B46653   1.091  21.178   6.921
 3477POPC   C4B46654   1.369  21.049   7.288
 3478POPC   NC346655  29.273   5.876   5.296
 3478POPC   PO446656  28.678   5.700   5.371
 3478POPC   GL146657  29.028   5.807   5.756
 3478POPC   GL246658  29.423   5.714   5.842
 3478POPC   C1A46659  29.107   5.813   6.226
 3478POPC   D2A46660  29.110   6.059   6.607
 3478POPC   C3A46661  29.041   5.798   6.966
 3478POPC   C4A46662  28.745   5.740   7.328
 3478POPC   C1B46663  29.635   5.702   6.280
 3478POPC   C2B46664  29.516   5.671   6.735
 3478POPC   C3B46665  29.487   5.704   7.189
 3478POPC   C4B46666  29.679   5.712   7.589
 3479POPC   NC346667  22.655  43.415   5.610
 3479POPC   PO446668  23.097  42.921   5.527
 3479POPC   GL146669  22.912  43.076   5.894
 3479POPC   GL246670  22.638  42.951   6.138
 3479POPC   C1A46671  23.124  43.161   6.250
 3479POPC   D2A46672  22.968  43.059   6.634
 3479POPC   C3A46673  23.164  42.916   6.989
 3479POPC   C4A46674  23.001  42.898   7.393
 3479POPC   C1B46675  22.651  43.334   6.321
 3479POPC   C2B46676  22.738  43.485   6.740
 3479POPC   C3B46677  23.040  43.416   7.089
 3479POPC   C4B46678  22.953  43.396   7.552
 3480POPC   NC346679   6.984  21.442   5.243
 3480POPC   PO446680   6.442  21.103   5.400
 3480POPC   GL146681   6.654  21.325   5.753
 3480POPC   GL246682   6.907  21.637   5.732
 3480POPC   C1A46683   6.605  21.216   6.218
 3480POPC   D2A46684   6.509  21.000   6.634
 3480POPC   C3A46685   6.511  21.267   7.033
 3480POPC   C4A46686   6.763  21.188   7.423
 3480POPC   C1B46687   6.563  21.732   6.046
 3480POPC   C2B46688   6.375  21.631   6.446
 3480POPC   C3B46689   6.470  21.808   6.847
 3480POPC   C4B46690   6.343  21.802   7.256
 3481POPC   NC346691  37.285  27.223   5.453
 3481POPC   PO446692  36.988  27.901   5.381
 3481POPC   GL146693  36.911  27.791   5.809
 3481POPC   GL246694  36.635  28.022   5.816
 3481POPC   C1A46695  37.101  27.597   6.219
 3481POPC   D2A46696  37.027  27.602   6.693
 3481POPC   C3A46697  37.174  27.309   7.056
 3481POPC   C4A46698  37.089  27.307   7.518
 3481POPC   C1B46699  36.702  27.935   6.265
 3481POPC   C2B46700  36.706  28.021   6.704
 3481POPC   C3B46701  36.855  27.898   7.117
 3481POPC   C4B46702  36.531  27.968   7.419
 3482POPC   NC346703  24.709   6.731   5.385
 3482POPC   PO446704  24.074   6.431   5.498
 3482POPC   GL146705  24.345   6.662   5.823
 3482POPC   GL246706  24.614   6.937   5.839
 3482POPC   C1A46707  24.585   6.591   6.210
 3482POPC   D2A46708  24.730   6.685   6.606
 3482POPC   C3A46709  24.397   6.727   6.899
 3482POPC   C4A46710  24.278   6.484   7.270
 3482POPC   C1B46711  24.633   7.115   6.260
 3482POPC   C2B46712  24.569   7.178   6.676
 3482POPC   C3B46713  24.794   7.064   7.036
 3482POPC   C4B46714  24.449   6.966   7.336
 3483POPC   NC346715  39.508  25.078   5.512
 3483POPC   PO446716  39.207  25.624   5.402
 3483POPC   GL146717  39.075  25.326   5.737
 3483POPC   GL246718  39.399  25.363   5.914
 3483POPC   C1A46719  39.034  25.099   6.161
 3483POPC   D2A46720  39.170  25.270   6.571
 3483POPC   C3A46721  38.992  25.129   6.977
 3483POPC   C4A46722  39.194  25.269   7.351
 3483POPC   C1B46723  39.609  25.053   6.164
 3483POPC   C2B46724  39.588  24.968   6.582
 3483POPC   C3B46725  39.505  25.147   6.966
 3483POPC   C4B46726  39.590  24.966   7.372
 3484POPC   NC346727  35.633  14.565   5.459
 3484POPC   PO446728  36.341  14.540   5.541
 3484POPC   GL146729  36.035  14.381   5.816
 3484POPC   GL246730  35.760  14.620   5.939
 3484POPC   C1A46731  36.148  14.481   6.237
 3484POPC   D2A46732  36.326  14.477   6.623
 3484POPC   C3A46733  36.054  14.559   6.980
 3484POPC   C4A46734  36.257  14.528   7.383
 3484POPC   C1B46735  35.685  14.257   6.211
 3484POPC   C2B46736  35.876  14.226   6.607
 3484POPC   C3B46737  35.771  14.102   6.996
 3484POPC   C4B46738  35.828  14.239   7.408
 3485POPC   NC346739   6.196  35.701   5.383
 3485POPC   PO446740   5.794  35.293   5.121
 3485POPC   GL146741   5.876  35.355   5.615
 3485POPC   GL246742   5.764  35.651   5.768
 3485POPC   C1A46743   6.001  35.299   6.095
 3485POPC   D2A46744   5.891  35.216   6.572
 3485POPC   C3A46745   6.033  35.351   6.996
 3485POPC   C4A46746   5.796  35.488   7.331
 3485POPC   C1B46747   6.057  35.829   6.110
 3485POPC   C2B46748   6.044  36.044   6.528
 3485POPC   C3B46749   6.000  35.861   6.945
 3485POPC   C4B46750   6.222  35.792   7.323
 3486POPC   NC346751  11.032  27.782   5.558
 3486POPC   PO446752  10.457  27.325   5.472
 3486POPC   GL146753  10.590  27.546   5.820
 3486POPC   GL246754  10.496  27.895   5.741
 3486POPC   C1A46755  10.627  27.400   6.256
 3486POPC   D2A46756  10.423  27.478   6.626
 3486POPC   C3A46757  10.658  27.545   6.992
 3486POPC   C4A46758  10.736  27.210   7.289
 3486POPC   C1B46759  10.532  27.916   6.217
 3486POPC   C2B46760  10.398  27.984   6.668
 3486POPC   C3B46761  10.148  27.752   6.988
 3486POPC   C4B46762  10.321  27.662   7.411
 3487POPC   NC346763  11.281  44.347   5.308
 3487POPC   PO446764  11.180  44.994   5.347
 3487POPC   GL146765  11.294  44.790   5.772
 3487POPC   GL246766  11.315  44.421   5.826
 3487POPC   C1A46767  11.466  44.883   6.194
 3487POPC   D2A46768  11.150  44.888   6.539
 3487POPC   C3A46769  11.259  44.898   6.961
 3487POPC   C4A46770  11.025   0.098   7.311
 3487POPC   C1B46771  11.241  44.449   6.271
 3487POPC   C2B46772  11.479  44.439   6.669
 3487POPC   C3B46773  11.434  44.406   7.115
 3487POPC   C4B46774  11.015  44.529   7.258
 3488POPC   NC346775  33.776  38.090   5.400
 3488POPC   PO446776  33.487  37.464   5.428
 3488POPC   GL146777  33.715  37.559   5.803
 3488POPC   GL246778  33.877  37.870   5.846
 3488POPC   C1A46779  33.929  37.498   6.182
 3488POPC   D2A46780  33.869  37.749   6.521
 3488POPC   C3A46781  33.760  37.591   6.861
 3488POPC   C4A46782  33.883  37.556   7.247
 3488POPC   C1B46783  34.172  37.973   6.182
 3488POPC   C2B46784  34.140  38.163   6.600
 3488POPC   C3B46785  34.102  38.001   7.033
 3488POPC   C4B46786  34.037  37.957   7.510
 3489POPC   NC346787   7.809   2.202   5.360
 3489POPC   PO446788   8.386   1.903   5.431
 3489POPC   GL146789   8.360   2.011   5.827
 3489POPC   GL246790   8.091   2.219   5.837
 3489POPC   C1A46791   8.426   2.133   6.241
 3489POPC   D2A46792   8.213   1.982   6.600
 3489POPC   C3A46793   8.406   1.956   6.941
 3489POPC   C4A46794   8.256   2.145   7.264
 3489POPC   C1B46795   7.961   1.884   6.176
 3489POPC   C2B46796   7.750   1.735   6.573
 3489POPC   C3B46797   7.890   1.859   7.007
 3489POPC   C4B46798   8.034   1.743   7.456
 3490POPC   NC346799   4.027  16.137   5.359
 3490POPC   PO446800   4.545  15.730   5.411
 3490POPC   GL146801   4.426  15.640   5.838
 3490POPC   GL246802   4.111  15.824   5.887
 3490POPC   C1A46803   4.502  15.765   6.260
 3490POPC   D2A46804   4.615  16.035   6.589
 3490POPC   C3A46805   4.319  16.050   6.944
 3490POPC   C4A46806   4.273  15.788   7.322
 3490POPC   C1B46807   4.175  16.178   6.172
 3490POPC   C2B46808   4.162  16.393   6.578
 3490POPC   C3B46809   3.969  16.481   6.978
 3490POPC   C4B46810   4.009  16.241   7.345
 3491POPC   NC346811  25.970  33.652   4.894
 3491POPC   PO446812  25.866  34.112   5.470
 3491POPC   GL146813  25.944  33.957   5.889
 3491POPC   GL246814  25.974  33.621   5.847
 3491POPC   C1A46815  26.280  33.837   6.193
 3491POPC   D2A46816  26.506  33.983   6.541
 3491POPC   C3A46817  26.365  33.876   6.915
 3491POPC   C4A46818  26.103  34.107   7.181
 3491POPC   C1B46819  25.827  33.610   6.280
 3491POPC   C2B46820  25.922  33.875   6.619
 3491POPC   C3B46821  25.913  33.665   7.005
 3491POPC   C4B46822  26.185  33.609   7.399
 3492POPC   NC346823  39.033   3.525   5.465
 3492POPC   PO446824  39.479   2.984   5.370
 3492POPC   GL146825  39.435   3.325   5.761
 3492POPC   GL246826  39.468   3.693   5.767
 3492POPC   C1A46827  39.278   3.534   6.194
 3492POPC   D2A46828  38.968   3.461   6.515
 3492POPC   C3A46829  39.147   3.504   6.909
 3492POPC   C4A46830  39.107   3.728   7.264
 3492POPC   C1B46831  39.737   3.772   6.176
 3492POPC   C2B46832  39.529   3.769   6.572
 3492POPC   C3B46833  39.470   3.970   6.940
 3492POPC   C4B46834  39.541   4.027   7.354
 3493POPC   NC346835  11.403  41.726   5.415
 3493POPC   PO446836  10.916  41.271   5.475
 3493POPC   GL146837  11.172  41.476   5.809
 3493POPC   GL246838  11.534  41.418   5.820
 3493POPC   C1A46839  11.277  41.331   6.246
 3493POPC   D2A46840  11.180  41.635   6.552
 3493POPC   C3A46841  11.109  41.575   6.964
 3493POPC   C4A46842  11.045  41.941   7.195
 3493POPC   C1B46843  11.541  41.762   6.080
 3493POPC   C2B46844  11.655  41.797   6.508
 3493POPC   C3B46845  11.565  41.811   6.939
 3493POPC   C4B46846  11.522  41.516   7.280
 3494POPC   NC346847  39.203  28.720   5.445
 3494POPC   PO446848  38.711  28.313   5.371
 3494POPC   GL146849  39.022  28.282   5.704
 3494POPC   GL246850  39.386  28.296   5.680
 3494POPC   C1A46851  39.159  28.305   6.143
 3494POPC   D2A46852  39.222  28.143   6.564
 3494POPC   C3A46853  39.192  28.457   6.902
 3494POPC   C4A46854  39.223  28.486   7.362
 3494POPC   C1B46855  39.622  28.471   6.022
 3494POPC   C2B46856  39.566  28.566   6.461
 3494POPC   C3B46857  39.686  28.568   6.896
 3494POPC   C4B46858  39.632  28.811   7.272
 3495POPC   NC346859  30.084  30.911   5.504
 3495POPC   PO446860  29.790  30.315   5.438
 3495POPC   GL146861  29.789  30.574   5.788
 3495POPC   GL246862  30.144  30.562   5.892
 3495POPC   C1A46863  29.790  30.808   6.181
 3495POPC   D2A46864  29.977  30.710   6.598
 3495POPC   C3A46865  30.113  31.031   6.884
 3495POPC   C4A46866  29.747  31.030   7.119
 3495POPC   C1B46867  29.978  30.324   6.264
 3495POPC   C2B46868  30.157  30.237   6.693
 3495POPC   C3B46869  30.125  30.520   7.069
 3495POPC   C4B46870  30.282  30.526   7.482
 3496POPC   NC346871   3.042  11.649   5.540
 3496POPC   PO446872   2.923  12.316   5.361
 3496POPC   GL146873   2.761  12.132   5.759
 3496POPC   GL246874   2.579  11.807   5.834
 3496POPC   C1A46875   2.760  12.271   6.185
 3496POPC   D2A46876   2.937  12.102   6.565
 3496POPC   C3A46877   2.862  12.297   6.959
 3496POPC   C4A46878   2.765  12.166   7.378
 3496POPC   C1B46879   2.837  11.688   6.193
 3496POPC   C2B46880   2.937  11.591   6.617
 3496POPC   C3B46881   2.751  11.780   6.970
 3496POPC   C4B46882   2.925  11.679   7.345
 3497POPC   NC346883  18.082   0.311   5.251
 3497POPC   PO446884  18.581   0.707   5.400
 3497POPC   GL146885  18.276   0.606   5.734
 3497POPC   GL246886  18.138   0.249   5.767
 3497POPC   C1A46887  18.252   0.567   6.183
 3497POPC   D2A46888  18.113   0.409   6.574
 3497POPC   C3A46889  18.364   0.536   6.889
 3497POPC   C4A46890  18.656   0.416   7.205
 3497POPC   C1B46891  18.121   0.049   6.182
 3497POPC   C2B46892  18.091  44.901   6.604
 3497POPC   C3B46893  18.055   0.016   7.036
 3497POPC   C4B46894  18.125   0.367   7.301
 3498POPC   NC346895   7.769  30.048   5.430
 3498POPC   PO446896   7.062  30.098   5.353
 3498POPC   GL146897   7.350  29.880   5.735
 3498POPC   GL246898   7.707  29.979   5.920
 3498POPC   C1A46899   7.330  29.868   6.225
 3498POPC   D2A46900   7.081  29.950   6.602
 3498POPC   C3A46901   7.327  29.858   6.951
 3498POPC   C4A46902   7.413  30.192   7.255
 3498POPC   C1B46903   7.921  30.032   6.327
 3498POPC   C2B46904   7.740  30.123   6.740
 3498POPC   C3B46905   7.819  29.936   7.133
 3498POPC   C4B46906   7.822  29.555   7.361
 3499POPC   NC346907  20.096   8.549   5.374
 3499POPC   PO446908  19.698   7.968   5.487
 3499POPC   GL146909  19.959   8.156   5.759
 3499POPC   GL246910  19.831   8.480   5.809
 3499POPC   C1A46911  19.892   8.037   6.169
 3499POPC   D2A46912  19.861   7.835   6.555
 3499POPC   C3A46913  19.919   8.065   6.940
 3499POPC   C4A46914  19.549   8.048   7.222
 3499POPC   C1B46915  20.070   8.502   6.178
 3499POPC   C2B46916  19.816   8.408   6.546
 3499POPC   C3B46917  19.601   8.488   6.938
 3499POPC   C4B46918  19.860   8.590   7.268
 3500POPC   NC346919  25.833   4.252   5.349
 3500POPC   PO446920  26.363   4.047   5.282
 3500POPC   GL146921  26.226   4.066   5.708
 3500POPC   GL246922  26.175   4.402   5.784
 3500POPC   C1A46923  26.179   4.070   6.175
 3500POPC   D2A46924  25.995   4.253   6.541
 3500POPC   C3A46925  26.194   4.175   6.935
 3500POPC   C4A46926  26.040   4.048   7.353
 3500POPC   C1B46927  26.432   4.530   6.149
 3500POPC   C2B46928  26.329   4.631   6.593
 3500POPC   C3B46929  26.515   4.680   6.991
 3500POPC   C4B46930  26.487   4.367   7.294
 3501POPC   NC346931  30.676  17.515   5.212
 3501POPC   PO446932  30.265  17.874   5.466
 3501POPC   GL146933  30.490  17.556   5.788
 3501POPC   GL246934  30.843  17.436   5.856
 3501POPC   C1A46935  30.613  17.595   6.273
 3501POPC   D2A46936  30.807  17.397   6.642
 3501POPC   C3A46937  30.554  17.530   6.972
 3501POPC   C4A46938  30.531  17.782   7.339
 3501POPC   C1B46939  31.097  17.470   6.238
 3501POPC   C2B46940  31.201  17.709   6.654
 3501POPC   C3B46941  31.044  17.617   7.101
 3501POPC   C4B46942  30.958  17.600   7.561
 3502POPC   NC346943  37.763   9.317   5.393
 3502POPC   PO446944  37.513   9.944   5.450
 3502POPC   GL146945  37.637   9.667   5.783
 3502POPC   GL246946  37.967   9.592   5.804
 3502POPC   C1A46947  37.587   9.570   6.233
 3502POPC   D2A46948  37.583   9.853   6.612
 3502POPC   C3A46949  37.578   9.658   7.029
 3502POPC   C4A46950  37.498   9.216   7.087
 3502POPC   C1B46951  37.982   9.880   6.200
 3502POPC   C2B46952  38.060  10.004   6.667
 3502POPC   C3B46953  38.038   9.854   7.109
 3502POPC   C4B46954  37.933   9.661   7.504
 3503POPC   NC346955  37.726   8.617   5.256
 3503POPC   PO446956  38.016   8.125   5.586
 3503POPC   GL146957  37.839   8.086   5.957
 3503POPC   GL246958  37.519   8.160   5.819
 3503POPC   C1A46959  37.869   8.187   6.419
 3503POPC   D2A46960  37.732   8.384   6.826
 3503POPC   C3A46961  37.924   8.313   7.247
 3503POPC   C4A46962  38.133   8.193   7.662
 3503POPC   C1B46963  37.433   7.961   6.247
 3503POPC   C2B46964  37.540   7.895   6.710
 3503POPC   C3B46965  37.508   8.029   7.141
 3503POPC   C4B46966  37.734   7.915   7.522
 3504POPC   NC346967   3.577   7.734   5.390
 3504POPC   PO446968   3.236   7.135   5.143
 3504POPC   GL146969   3.461   7.265   5.589
 3504POPC   GL246970   3.200   7.321   5.772
 3504POPC   C1A46971   3.635   7.280   6.077
 3504POPC   D2A46972   3.784   7.480   6.514
 3504POPC   C3A46973   3.630   7.359   6.928
 3504POPC   C4A46974   3.832   7.092   7.195
 3504POPC   C1B46975   3.189   7.502   6.199
 3504POPC   C2B46976   3.271   7.500   6.582
 3504POPC   C3B46977   3.094   7.373   6.938
 3504POPC   C4B46978   3.164   7.364   7.324
 3505POPC   NC346979  36.306  38.377   5.453
 3505POPC   PO446980  35.621  38.307   5.447
 3505POPC   GL146981  35.923  38.456   5.784
 3505POPC   GL246982  36.191  38.224   5.922
 3505POPC   C1A46983  35.971  38.624   6.197
 3505POPC   D2A46984  35.752  38.552   6.597
 3505POPC   C3A46985  36.039  38.461   6.925
 3505POPC   C4A46986  36.178  38.748   7.236
 3505POPC   C1B46987  36.399  38.047   6.283
 3505POPC   C2B46988  36.223  37.954   6.691
 3505POPC   C3B46989  36.325  37.897   7.113
 3505POPC   C4B46990  36.363  38.285   7.323
 3506POPC   NC346991   7.317   1.393   5.415
 3506POPC   PO446992   7.922   1.021   5.347
 3506POPC   GL146993   7.642   1.028   5.724
 3506POPC   GL246994   7.319   1.219   5.897
 3506POPC   C1A46995   7.569   0.855   6.131
 3506POPC   D2A46996   7.278   1.007   6.432
 3506POPC   C3A46997   7.408   0.943   6.821
 3506POPC   C4A46998   7.364   1.157   7.190
 3506POPC   C1B46999   7.361   1.484   6.287
 3506POPC   C2B47000   7.319   1.467   6.748
 3506POPC   C3B47001   7.054   1.613   7.090
 3506POPC   C4B47002   7.014   1.744   7.567
 3507POPC   NC347003  34.614  39.216   5.330
 3507POPC   PO447004  34.083  39.545   5.682
 3507POPC   GL147005  34.299  39.305   6.001
 3507POPC   GL247006  34.664  39.219   5.966
 3507POPC   C1A47007  34.355  39.164   6.445
 3507POPC   D2A47008  34.720  39.296   6.715
 3507POPC   C3A47009  34.654  39.300   7.155
 3507POPC   C4A47010  34.229  39.358   7.290
 3507POPC   C1B47011  34.771  38.906   6.330
 3507POPC   C2B47012  35.058  38.922   6.716
 3507POPC   C3B47013  35.116  39.088   7.159
 3507POPC   C4B47014  35.017  39.165   7.634
 3508POPC   NC347015  20.141   7.749   5.463
 3508POPC   PO447016  19.609   7.259   5.508
 3508POPC   GL147017  19.750   7.536   5.798
 3508POPC   GL247018  20.066   7.411   5.861
 3508POPC   C1A47019  19.745   7.424   6.250
 3508POPC   D2A47020  19.774   7.215   6.665
 3508POPC   C3A47021  19.715   7.561   6.962
 3508POPC   C4A47022  19.478   7.543   7.324
 3508POPC   C1B47023  20.234   7.671   6.223
 3508POPC   C2B47024  20.345   7.818   6.672
 3508POPC   C3B47025  20.231   7.688   7.123
 3508POPC   C4B47026  20.118   7.639   7.573
 3509POPC   NC347027  40.898  35.560   5.265
 3509POPC   PO447028  40.430  35.015   5.314
 3509POPC   GL147029  40.796  35.104   5.672
 3509POPC   GL247030  40.946  35.445   5.783
 3509POPC   C1A47031  40.959  35.006   6.122
 3509POPC   D2A47032  40.882  34.833   6.566
 3509POPC   C3A47033  40.889  35.126   6.910
 3509POPC   C4A47034  40.644  35.382   7.147
 3509POPC   C1B47035  41.122  35.582   6.208
 3509POPC   C2B47036  40.944  35.609   6.665
 3509POPC   C3B47037  41.108  35.605   7.108
 3509POPC   C4B47038  41.274  35.640   7.547
 3510POPC   NC347039  24.207  43.907   5.161
 3510POPC   PO447040  23.594  43.724   5.199
 3510POPC   GL147041  23.591  43.600   5.763
 3510POPC   GL247042  23.827  43.835   5.996
 3510POPC   C1A47043  23.407  43.633   6.188
 3510POPC   D2A47044  23.634  43.832   6.503
 3510POPC   C3A47045  23.578  43.724   6.930
 3510POPC   C4A47046  23.918  43.615   7.201
 3510POPC   C1B47047  24.116  43.957   6.353
 3510POPC   C2B47048  24.042  43.904   6.788
 3510POPC   C3B47049  23.860  44.117   7.145
 3510POPC   C4B47050  23.767  44.272   7.566
 3511POPC   NC347051  10.709  18.608   5.583
 3511POPC   PO447052  10.423  17.914   5.461
 3511POPC   GL147053  10.534  18.080   5.914
 3511POPC   GL247054  10.651  18.414   6.046
 3511POPC   C1A47055  10.431  18.080   6.383
 3511POPC   D2A47056  10.362  18.313   6.787
 3511POPC   C3A47057  10.658  18.369   7.078
 3511POPC   C4A47058  10.808  18.081   7.363
 3511POPC   C1B47059  10.199  18.486   6.144
 3511POPC   C2B47060  10.101  18.704   6.502
 3511POPC   C3B47061   9.997  18.642   6.935
 3511POPC   C4B47062  10.211  18.680   7.290
 3512POPC   NC347063   5.692  27.863   5.578
 3512POPC   PO447064   6.118  27.474   5.304
 3512POPC   GL147065   6.047  27.555   5.774
 3512POPC   GL247066   5.740  27.443   5.962
 3512POPC   C1A47067   5.963  27.872   6.146
 3512POPC   D2A47068   5.786  27.923   6.535
 3512POPC   C3A47069   6.076  27.811   6.863
 3512POPC   C4A47070   6.195  27.842   7.265
 3512POPC   C1B47071   5.633  27.400   6.396
 3512POPC   C2B47072   5.811  27.368   6.807
 3512POPC   C3B47073   5.794  27.533   7.225
 3512POPC   C4B47074   5.678  27.388   7.618
 3513POPC   NC347075  12.053  17.884   5.228
 3513POPC   PO447076  12.335  17.258   5.350
 3513POPC   GL147077  12.033  17.457   5.630
 3513POPC   GL247078  11.910  17.192   5.862
 3513POPC   C1A47079  11.966  17.687   6.006
 3513POPC   D2A47080  12.132  17.655   6.400
 3513POPC   C3A47081  11.877  17.596   6.737
 3513POPC   C4A47082  12.033  17.462   7.138
 3513POPC   C1B47083  11.992  17.128   6.326
 3513POPC   C2B47084  12.261  17.224   6.700
 3513POPC   C3B47085  12.378  17.084   7.102
 3513POPC   C4B47086  12.257  17.203   7.570
 3514POPC   NC347087   0.494  23.282   5.500
 3514POPC   PO447088   0.614  22.628   5.556
 3514POPC   GL147089   0.450  22.911   5.880
 3514POPC   GL247090   0.683  23.172   5.963
 3514POPC   C1A47091   0.420  22.889   6.334
 3514POPC   D2A47092   0.529  22.872   6.753
 3514POPC   C3A47093   0.294  22.781   7.129
 3514POPC   C4A47094   0.563  22.729   7.464
 3514POPC   C1B47095   0.333  23.357   6.137
 3514POPC   C2B47096   0.263  23.431   6.537
 3514POPC   C3B47097   0.217  23.248   6.896
 3514POPC   C4B47098   0.091  23.284   7.264
 3515POPC   NC347099   9.260  26.335   5.490
 3515POPC   PO447100   8.725  25.909   5.371
 3515POPC   GL147101   8.963  25.987   5.727
 3515POPC   GL247102   8.898  26.309   5.858
 3515POPC   C1A47103   9.110  25.919   6.144
 3515POPC   D2A47104   8.985  26.105   6.521
 3515POPC   C3A47105   8.998  25.838   6.850
 3515POPC   C4A47106   9.130  25.946   7.232
 3515POPC   C1B47107   9.200  26.418   6.167
 3515POPC   C2B47108   9.357  26.508   6.562
 3515POPC   C3B47109   9.258  26.305   6.911
 3515POPC   C4B47110   8.992  26.437   7.201
 3516POPC   NC347111  18.989  27.165   5.333
 3516POPC   PO447112  19.296  26.572   5.519
 3516POPC   GL147113  19.268  26.892   5.828
 3516POPC   GL247114  18.921  26.955   5.860
 3516POPC   C1A47115  19.215  26.895   6.292
 3516POPC   D2A47116  18.998  26.705   6.652
 3516POPC   C3A47117  18.948  26.983   6.976
 3516POPC   C4A47118  19.303  26.950   7.202
 3516POPC   C1B47119  18.753  26.682   6.200
 3516POPC   C2B47120  18.495  26.542   6.558
 3516POPC   C3B47121  18.659  26.405   6.966
 3516POPC   C4B47122  18.918  26.568   7.275
 3517POPC   NC347123  25.122   0.182   5.194
 3517POPC   PO447124  25.369   0.633   5.488
 3517POPC   GL147125  25.297   0.254   5.698
 3517POPC   GL247126  25.628   0.154   5.764
 3517POPC   C1A47127  25.122   0.189   6.122
 3517POPC   D2A47128  25.281   0.418   6.512
 3517POPC   C3A47129  25.246   0.322   6.944
 3517POPC   C4A47130  25.394   0.017   7.197
 3517POPC   C1B47131  25.591   0.471   6.108
 3517POPC   C2B47132  25.790   0.604   6.528
 3517POPC   C3B47133  25.714   0.564   6.990
 3517POPC   C4B47134  25.449   0.904   7.173
 3518POPC   NC347135  42.999  43.300   5.395
 3518POPC   PO447136  42.631  42.744   5.526
 3518POPC   GL147137  42.437  43.106   5.803
 3518POPC   GL247138  42.176  43.357   5.633
 3518POPC   C1A47139  42.370  43.144   6.285
 3518POPC   D2A47140  42.216  42.879   6.655
 3518POPC   C3A47141  42.417  42.930   7.086
 3518POPC   C4A47142  42.537  43.347   7.300
 3518POPC   C1B47143  42.013  43.444   6.050
 3518POPC   C2B47144  42.014  43.470   6.507
 3518POPC   C3B47145  42.188  43.335   6.886
 3518POPC   C4B47146  41.937  43.062   7.182
 3519POPC   NC347147   5.177  10.144   5.593
 3519POPC   PO447148   5.092   9.533   5.348
 3519POPC   GL147149   5.009   9.608   5.791
 3519POPC   GL247150   4.790   9.914   5.844
 3519POPC   C1A47151   5.197   9.728   6.182
 3519POPC   D2A47152   5.225  10.017   6.507
 3519POPC   C3A47153   5.103   9.770   6.832
 3519POPC   C4A47154   5.365   9.529   7.073
 3519POPC   C1B47155   4.790  10.137   6.231
 3519POPC   C2B47156   4.675  10.040   6.667
 3519POPC   C3B47157   4.794  10.111   7.102
 3519POPC   C4B47158   5.213   9.991   7.286
 3520POPC   NC347159  30.461   7.531   5.439
 3520POPC   PO447160  30.992   7.143   5.364
 3520POPC   GL147161  30.780   7.245   5.770
 3520POPC   GL247162  30.518   7.021   5.829
 3520POPC   C1A47163  30.568   7.492   6.128
 3520POPC   D2A47164  30.513   7.748   6.532
 3520POPC   C3A47165  30.779   7.633   6.901
 3520POPC   C4A47166  30.680   7.624   7.331
 3520POPC   C1B47167  30.688   7.005   6.228
 3520POPC   C2B47168  30.550   7.213   6.591
 3520POPC   C3B47169  30.622   7.149   7.005
 3520POPC   C4B47170  30.985   7.155   7.248
 3521POPC   NC347171  18.084  11.163   5.272
 3521POPC   PO447172  18.565  11.427   5.322
 3521POPC   GL147173  18.320  11.296   5.729
 3521POPC   GL247174  18.545  11.064   5.882
 3521POPC   C1A47175  18.100  11.391   6.154
 3521POPC   D2A47176  18.211  11.615   6.558
 3521POPC   C3A47177  18.235  11.460   6.986
 3521POPC   C4A47178  18.014  11.449   7.404
 3521POPC   C1B47179  18.554  11.188   6.344
 3521POPC   C2B47180  18.738  11.500   6.624
 3521POPC   C3B47181  18.765  11.653   7.050
 3521POPC   C4B47182  18.526  11.554   7.423
 3522POPC   NC347183  39.889  33.637   5.157
 3522POPC   PO447184  40.261  34.059   5.554
 3522POPC   GL147185  40.125  33.698   5.786
 3522POPC   GL247186  39.834  33.670   5.711
 3522POPC   C1A47187  40.179  33.540   6.168
 3522POPC   D2A47188  40.174  33.692   6.588
 3522POPC   C3A47189  40.285  33.578   6.996
 3522POPC   C4A47190  39.933  33.535   7.295
 3522POPC   C1B47191  39.765  33.828   6.127
 3522POPC   C2B47192  39.791  34.029   6.511
 3522POPC   C3B47193  39.733  33.929   6.947
 3522POPC   C4B47194  39.700  34.257   7.251
 3523POPC   NC347195   2.758   0.136   5.038
 3523POPC   PO447196   2.744   0.555   5.565
 3523POPC   GL147197   2.817   0.375   5.918
 3523POPC   GL247198   2.586   0.073   5.886
 3523POPC   C1A47199   2.729   0.586   6.281
 3523POPC   D2A47200   2.570   0.547   6.674
 3523POPC   C3A47201   2.844   0.623   6.990
 3523POPC   C4A47202   2.753   0.467   7.333
 3523POPC   C1B47203   2.730   0.050   6.322
 3523POPC   C2B47204   2.858   0.112   6.740
 3523POPC   C3B47205   3.122   0.165   7.101
 3523POPC   C4B47206   3.158   0.242   7.551
 3524POPC   NC347207   3.006  34.377   5.465
 3524POPC   PO447208   2.325  34.301   5.454
 3524POPC   GL147209   2.563  34.566   5.765
 3524POPC   GL247210   2.827  34.822   5.718
 3524POPC   C1A47211   2.786  34.450   6.151
 3524POPC   D2A47212   2.731  34.189   6.510
 3524POPC   C3A47213   2.714  34.369   6.928
 3524POPC   C4A47214   2.994  34.541   7.234
 3524POPC   C1B47215   2.665  34.932   6.132
 3524POPC   C2B47216   2.812  35.019   6.551
 3524POPC   C3B47217   2.777  34.895   6.933
 3524POPC   C4B47218   2.800  35.027   7.332
 3525POPC   NC347219   2.151  17.921   5.578
 3525POPC   PO447220   1.765  17.391   5.517
 3525POPC   GL147221   1.980  17.508   5.876
 3525POPC   GL247222   1.775  17.792   5.913
 3525POPC   C1A47223   2.184  17.386   6.267
 3525POPC   D2A47224   2.230  17.135   6.660
 3525POPC   C3A47225   2.303  17.356   7.067
 3525POPC   C4A47226   2.199  17.734   7.333
 3525POPC   C1B47227   1.932  17.833   6.311
 3525POPC   C2B47228   2.020  17.625   6.710
 3525POPC   C3B47229   1.802  17.511   7.104
 3525POPC   C4B47230   1.769  17.534   7.572
 3526POPC   NC347231  17.637  21.951   5.645
 3526POPC   PO447232  17.316  21.371   5.495
 3526POPC   GL147233  17.551  21.495   5.849
 3526POPC   GL247234  17.875  21.358   5.776
 3526POPC   C1A47235  17.366  21.484   6.241
 3526POPC   D2A47236  17.290  21.124   6.490
 3526POPC   C3A47237  17.245  21.287   6.902
 3526POPC   C4A47238  17.340  21.316   7.318
 3526POPC   C1B47239  17.817  21.230   6.226
 3526POPC   C2B47240  17.706  21.412   6.640
 3526POPC   C3B47241  17.802  21.291   7.056
 3526POPC   C4B47242  17.850  21.338   7.499
 3527POPC   NC347243   8.386  37.625   5.429
 3527POPC   PO447244   7.954  38.072   5.467
 3527POPC   GL147245   8.259  37.946   5.792
 3527POPC   GL247246   8.058  37.646   5.857
 3527POPC   C1A47247   8.365  37.799   6.237
 3527POPC   D2A47248   8.461  37.691   6.662
 3527POPC   C3A47249   8.292  37.737   7.057
 3527POPC   C4A47250   8.446  37.853   7.509
 3527POPC   C1B47251   7.915  38.015   6.148
 3527POPC   C2B47252   7.953  38.158   6.579
 3527POPC   C3B47253   7.829  37.973   6.968
 3527POPC   C4B47254   7.867  37.657   7.287
 3528POPC   NC347255  28.124  19.948   5.401
 3528POPC   PO447256  28.791  19.897   5.606
 3528POPC   GL147257  28.407  19.784   5.793
 3528POPC   GL247258  28.350  20.124   5.829
 3528POPC   C1A47259  28.259  19.788   6.212
 3528POPC   D2A47260  28.438  19.992   6.546
 3528POPC   C3A47261  28.246  19.870   6.888
 3528POPC   C4A47262  28.053  19.801   7.243
 3528POPC   C1B47263  28.605  20.286   6.154
 3528POPC   C2B47264  28.537  20.497   6.574
 3528POPC   C3B47265  28.536  20.366   7.010
 3528POPC   C4B47266  28.491  20.055   7.305
 3529POPC   NC347267  35.197  10.941   5.515
 3529POPC   PO447268  35.564  11.522   5.403
 3529POPC   GL147269  35.365  11.373   5.781
 3529POPC   GL247270  35.675  11.274   5.902
 3529POPC   C1A47271  35.164  11.393   6.235
 3529POPC   D2A47272  35.378  11.339   6.653
 3529POPC   C3A47273  35.162  11.193   7.054
 3529POPC   C4A47274  35.132  10.955   7.477
 3529POPC   C1B47275  35.598  11.654   6.171
 3529POPC   C2B47276  35.504  11.828   6.583
 3529POPC   C3B47277  35.371  11.683   7.030
 3529POPC   C4B47278  35.682  11.628   7.357
 3530POPC   NC347279  35.720  43.255   5.347
 3530POPC   PO447280  35.092  43.404   5.494
 3530POPC   GL147281  35.357  43.180   5.795
 3530POPC   GL247282  35.695  43.092   5.826
 3530POPC   C1A47283  35.338  43.089   6.229
 3530POPC   D2A47284  35.202  43.350   6.572
 3530POPC   C3A47285  35.343  43.126   6.960
 3530POPC   C4A47286  35.260  42.937   7.377
 3530POPC   C1B47287  35.858  42.944   6.221
 3530POPC   C2B47288  35.792  42.833   6.670
 3530POPC   C3B47289  35.609  42.688   7.055
 3530POPC   C4B47290  35.715  42.703   7.478
 3531POPC   NC347291  42.274  38.048   5.276
 3531POPC   PO447292  42.426  38.751   5.355
 3531POPC   GL147293  42.469  38.419   5.647
 3531POPC   GL247294  42.149  38.375   5.705
 3531POPC   C1A47295  42.551  38.408   6.113
 3531POPC   D2A47296  42.352  38.443   6.531
 3531POPC   C3A47297  42.572  38.494   6.927
 3531POPC   C4A47298  42.413  38.557   7.355
 3531POPC   C1B47299  42.051  38.241   6.138
 3531POPC   C2B47300  41.845  38.441   6.511
 3531POPC   C3B47301  41.955  38.337   6.915
 3531POPC   C4B47302  41.906  38.510   7.301
 3532POPC   NC347303  15.426  44.363   5.420
 3532POPC   PO447304  14.963  43.778   5.292
 3532POPC   GL147305  15.183  43.673   5.652
 3532POPC   GL247306  15.236  43.998   5.783
 3532POPC   C1A47307  15.356  43.590   6.062
 3532POPC   D2A47308  15.355  43.620   6.508
 3532POPC   C3A47309  15.392  43.842   6.885
 3532POPC   C4A47310  15.158  43.745   7.240
 3532POPC   C1B47311  15.068  43.984   6.208
 3532POPC   C2B47312  15.082  44.152   6.632
 3532POPC   C3B47313  14.909  44.151   7.017
 3532POPC   C4B47314  14.909  44.283   7.425
 3533POPC   NC347315   1.828  13.037   5.439
 3533POPC   PO447316   2.442  12.717   5.263
 3533POPC   GL147317   2.229  12.832   5.680
 3533POPC   GL247318   1.966  12.599   5.706
 3533POPC   C1A47319   1.970  12.941   6.098
 3533POPC   D2A47320   1.798  12.820   6.521
 3533POPC   C3A47321   1.966  12.935   6.937
 3533POPC   C4A47322   2.305  12.685   7.147
 3533POPC   C1B47323   1.752  12.455   6.084
 3533POPC   C2B47324   1.856  12.307   6.464
 3533POPC   C3B47325   2.021  12.440   6.810
 3533POPC   C4B47326   1.868  12.434   7.220
 3534POPC   NC347327  37.959   1.623   5.162
 3534POPC   PO447328  38.456   2.081   5.458
 3534POPC   GL147329  38.457   2.049   5.887
 3534POPC   GL247330  38.121   2.233   5.886
 3534POPC   C1A47331  38.514   1.929   6.342
 3534POPC   D2A47332  38.566   1.734   6.776
 3534POPC   C3A47333  38.242   1.810   7.077
 3534POPC   C4A47334  38.014   1.829   7.458
 3534POPC   C1B47335  38.424   2.437   6.191
 3534POPC   C2B47336  38.708   2.361   6.551
 3534POPC   C3B47337  38.470   2.270   6.929
 3534POPC   C4B47338  38.485   2.175   7.365
 3535POPC   NC347339   7.151  28.839   5.326
 3535POPC   PO447340   7.611  28.197   5.383
 3535POPC   GL147341   7.368  28.438   5.761
 3535POPC   GL247342   6.970  28.526   5.755
 3535POPC   C1A47343   7.562  28.612   6.194
 3535POPC   D2A47344   7.837  28.581   6.601
 3535POPC   C3A47345   7.821  28.227   6.906
 3535POPC   C4A47346   7.567  28.366   7.233
 3535POPC   C1B47347   7.036  28.556   6.211
 3535POPC   C2B47348   7.133  28.596   6.668
 3535POPC   C3B47349   7.099  28.292   7.016
 3535POPC   C4B47350   7.139  28.258   7.474
 3536POPC   NC347351  17.509  39.771   5.334
 3536POPC   PO447352  17.894  39.252   5.451
 3536POPC   GL147353  17.714  39.267   5.815
 3536POPC   GL247354  17.755  39.653   5.815
 3536POPC   C1A47355  17.718  39.044   6.235
 3536POPC   D2A47356  17.931  39.053   6.666
 3536POPC   C3A47357  17.660  39.048   7.040
 3536POPC   C4A47358  17.755  39.123   7.490
 3536POPC   C1B47359  17.482  39.524   6.161
 3536POPC   C2B47360  17.602  39.433   6.576
 3536POPC   C3B47361  17.426  39.539   6.969
 3536POPC   C4B47362  17.321  39.382   7.392
 3537POPC   NC347363  35.624  33.965   5.141
 3537POPC   PO447364  34.967  33.909   5.267
 3537POPC   GL147365  35.191  33.754   5.680
 3537POPC   GL247366  35.514  33.557   5.711
 3537POPC   C1A47367  35.341  33.892   6.087
 3537POPC   D2A47368  35.261  33.744   6.515
 3537POPC   C3A47369  35.466  33.890   6.868
 3537POPC   C4A47370  35.346  34.065   7.235
 3537POPC   C1B47371  35.552  33.441   6.187
 3537POPC   C2B47372  35.690  33.457   6.620
 3537POPC   C3B47373  35.517  33.364   7.013
 3537POPC   C4B47374  35.169  33.572   7.198
 3538POPC   NC347375  42.808  29.566   5.467
 3538POPC   PO447376  43.252  30.084   5.363
 3538POPC   GL147377  42.954  30.019   5.700
 3538POPC   GL247378  43.188  29.762   5.799
 3538POPC   C1A47379  42.911  29.938   6.166
 3538POPC   D2A47380  43.214  29.904   6.515
 3538POPC   C3A47381  42.971  29.948   6.895
 3538POPC   C4A47382  43.076  30.229   7.204
 3538POPC   C1B47383  43.358  29.550   6.173
 3538POPC   C2B47384  43.488  29.432   6.608
 3538POPC   C3B47385  43.438  29.694   6.970
 3538POPC   C4B47386  43.220  29.730   7.340
 3539POPC   NC347387   0.497  33.403   5.396
 3539POPC   PO447388   0.340  32.787   5.510
 3539POPC   GL147389   0.585  33.010   5.767
 3539POPC   GL247390   0.329  33.224   5.888
 3539POPC   C1A47391   0.770  32.997   6.187
 3539POPC   D2A47392   0.621  33.175   6.595
 3539POPC   C3A47393   0.518  32.945   6.970
 3539POPC   C4A47394   0.420  32.560   7.232
 3539POPC   C1B47395   0.240  32.885   6.187
 3539POPC   C2B47396   0.014  32.846   6.568
 3539POPC   C3B47397   0.029  33.065   6.947
 3539POPC   C4B47398   0.163  32.987   7.366
 3540POPC   NC347399  26.980  13.765   5.389
 3540POPC   PO447400  26.306  13.730   5.512
 3540POPC   GL147401  26.567  13.555   5.821
 3540POPC   GL247402  26.919  13.640   5.870
 3540POPC   C1A47403  26.589  13.721   6.225
 3540POPC   D2A47404  26.853  13.697   6.576
 3540POPC   C3A47405  26.821  13.398   6.901
 3540POPC   C4A47406  26.609  13.382   7.296
 3540POPC   C1B47407  27.099  13.945   6.174
 3540POPC   C2B47408  27.249  14.005   6.606
 3540POPC   C3B47409  27.127  13.868   7.015
 3540POPC   C4B47410  27.073  13.568   7.313
 3541POPC   NC347411  28.356  24.805   5.607
 3541POPC   PO447412  28.305  24.185   5.604
 3541POPC   GL147413  28.531  24.402   5.917
 3541POPC   GL247414  28.267  24.572   6.071
 3541POPC   C1A47415  28.710  24.559   6.305
 3541POPC   D2A47416  28.700  24.381   6.714
 3541POPC   C3A47417  28.416  24.462   7.068
 3541POPC   C4A47418  28.297  24.144   7.349
 3541POPC   C1B47419  28.343  24.193   6.360
 3541POPC   C2B47420  28.180  24.127   6.786
 3541POPC   C3B47421  27.839  24.134   7.110
 3541POPC   C4B47422  27.882  24.449   7.441
 3542POPC   NC347423  20.344  24.547   5.340
 3542POPC   PO447424  21.072  24.680   5.448
 3542POPC   GL147425  20.658  24.618   5.732
 3542POPC   GL247426  20.321  24.815   5.791
 3542POPC   C1A47427  20.446  24.324   6.042
 3542POPC   D2A47428  20.241  24.286   6.466
 3542POPC   C3A47429  20.459  24.236   6.878
 3542POPC   C4A47430  20.508  24.511   7.250
 3542POPC   C1B47431  20.432  24.791   6.251
 3542POPC   C2B47432  20.684  24.630   6.627
 3542POPC   C3B47433  20.941  24.432   7.004
 3542POPC   C4B47434  20.966  24.482   7.472
 3543POPC   NC347435  31.413  39.508   5.402
 3543POPC   PO447436  31.522  40.222   5.570
 3543POPC   GL147437  31.612  39.901   5.856
 3543POPC   GL247438  31.321  39.750   5.833
 3543POPC   C1A47439  31.684  39.775   6.281
 3543POPC   D2A47440  31.638  39.648   6.698
 3543POPC   C3A47441  31.796  39.884   6.999
 3543POPC   C4A47442  31.611  40.165   7.305
 3543POPC   C1B47443  31.159  39.704   6.234
 3543POPC   C2B47444  31.135  39.569   6.661
 3543POPC   C3B47445  31.139  39.748   7.091
 3543POPC   C4B47446  31.163  40.007   7.485
 3544POPC   NC347447  10.629  43.762   5.267
 3544POPC   PO447448  10.506  44.371   5.490
 3544POPC   GL147449  10.687  43.987   5.734
 3544POPC   GL247450  10.837  43.613   5.729
 3544POPC   C1A47451  10.555  43.875   6.160
 3544POPC   D2A47452  10.376  44.001   6.579
 3544POPC   C3A47453  10.181  43.730   6.892
 3544POPC   C4A47454  10.242  43.737   7.317
 3544POPC   C1B47455  10.921  43.505   6.185
 3544POPC   C2B47456  10.834  43.756   6.584
 3544POPC   C3B47457  10.694  43.845   7.021
 3544POPC   C4B47458  10.738  43.804   7.505
 3545POPC   NC347459  31.233  32.028   5.378
 3545POPC   PO447460  31.606  32.554   5.159
 3545POPC   GL147461  31.435  32.470   5.628
 3545POPC   GL247462  31.100  32.335   5.773
 3545POPC   C1A47463  31.473  32.481   6.097
 3545POPC   D2A47464  31.610  32.603   6.527
 3545POPC   C3A47465  31.653  32.313   6.859
 3545POPC   C4A47466  31.484  32.256   7.265
 3545POPC   C1B47467  31.215  32.013   6.069
 3545POPC   C2B47468  31.303  32.130   6.496
 3545POPC   C3B47469  31.117  32.119   6.907
 3545POPC   C4B47470  31.138  31.887   7.302
 3546POPC   NC347471   5.532   8.452   5.491
 3546POPC   PO447472   5.006   7.959   5.425
 3546POPC   GL147473   4.917   8.124   5.849
 3546POPC   GL247474   5.249   8.299   5.944
 3546POPC   C1A47475   5.013   7.950   6.275
 3546POPC   D2A47476   5.380   8.217   6.455
 3546POPC   C3A47477   5.307   8.262   6.870
 3546POPC   C4A47478   5.059   8.036   7.175
 3546POPC   C1B47479   4.941   8.442   6.275
 3546POPC   C2B47480   4.823   8.339   6.700
 3546POPC   C3B47481   4.677   8.380   7.123
 3546POPC   C4B47482   4.682   8.672   7.438
 3547POPC   NC347483  29.698  31.591   5.375
 3547POPC   PO447484  30.327  31.341   5.416
 3547POPC   GL147485  30.037  31.412   5.735
 3547POPC   GL247486  29.991  31.763   5.750
 3547POPC   C1A47487  29.919  31.333   6.164
 3547POPC   D2A47488  29.740  31.157   6.555
 3547POPC   C3A47489  29.733  31.477   6.824
 3547POPC   C4A47490  29.931  31.502   7.209
 3547POPC   C1B47491  29.719  31.849   6.110
 3547POPC   C2B47492  29.582  32.012   6.529
 3547POPC   C3B47493  29.698  31.969   6.977
 3547POPC   C4B47494  29.459  31.688   7.215
 3548POPC   NC347495  11.348  22.559   5.642
 3548POPC   PO447496  11.342  23.251   5.470
 3548POPC   GL147497  11.331  23.046   5.850
 3548POPC   GL247498  10.993  22.913   5.850
 3548POPC   C1A47499  11.353  22.917   6.276
 3548POPC   D2A47500  11.674  22.823   6.579
 3548POPC   C3A47501  11.620  23.110   6.896
 3548POPC   C4A47502  11.324  23.184   7.236
 3548POPC   C1B47503  10.920  22.602   6.162
 3548POPC   C2B47504  11.082  22.580   6.559
 3548POPC   C3B47505  11.202  22.802   6.889
 3548POPC   C4B47506  11.092  22.736   7.300
 3549POPC   NC347507  17.303  11.522   5.551
 3549POPC   PO447508  17.670  10.961   5.397
 3549POPC   GL147509  17.577  11.120   5.798
 3549POPC   GL247510  17.784  11.384   5.754
 3549POPC   C1A47511  17.682  11.030   6.236
 3549POPC   D2A47512  17.594  10.960   6.669
 3549POPC   C3A47513  17.238  11.247   6.778
 3549POPC   C4A47514  17.212  11.633   7.011
 3549POPC   C1B47515  17.557  11.513   6.155
 3549POPC   C2B47516  17.695  11.445   6.570
 3549POPC   C3B47517  17.686  11.420   7.007
 3549POPC   C4B47518  17.722  11.836   7.211
 3550POPC   NC347519  15.060   0.134   5.579
 3550POPC   PO447520  14.963  44.468   5.475
 3550POPC   GL147521  15.172  44.495   5.850
 3550POPC   GL247522  15.208  44.794   5.907
 3550POPC   C1A47523  15.256  44.459   6.280
 3550POPC   D2A47524  15.374  44.670   6.661
 3550POPC   C3A47525  15.205  44.584   7.090
 3550POPC   C4A47526  15.388  44.215   7.252
 3550POPC   C1B47527  15.190   0.017   6.256
 3550POPC   C2B47528  15.326   0.221   6.591
 3550POPC   C3B47529  15.467   0.045   6.971
 3550POPC   C4B47530  15.280   0.062   7.319
 3551POPC   NC347531   4.930  41.920   5.553
 3551POPC   PO447532   5.306  41.413   5.355
 3551POPC   GL147533   5.267  41.625   5.775
 3551POPC   GL247534   4.929  41.475   5.802
 3551POPC   C1A47535   5.282  41.765   6.230
 3551POPC   D2A47536   5.136  41.830   6.691
 3551POPC   C3A47537   5.424  41.721   7.045
 3551POPC   C4A47538   5.381  41.615   7.472
 3551POPC   C1B47539   4.939  41.374   6.232
 3551POPC   C2B47540   5.063  41.307   6.671
 3551POPC   C3B47541   4.955  41.483   7.067
 3551POPC   C4B47542   4.553  41.677   7.184
 3552POPC   NC347543  29.578  11.986   5.396
 3552POPC   PO447544  30.173  12.263   5.183
 3552POPC   GL147545  30.005  12.070   5.669
 3552POPC   GL247546  29.671  12.213   5.826
 3552POPC   C1A47547  29.960  11.999   6.167
 3552POPC   D2A47548  30.093  12.158   6.597
 3552POPC   C3A47549  30.149  11.954   7.036
 3552POPC   C4A47550  30.225  11.878   7.525
 3552POPC   C1B47551  29.552  12.333   6.211
 3552POPC   C2B47552  29.544  12.169   6.600
 3552POPC   C3B47553  29.730  12.264   6.942
 3552POPC   C4B47554  29.723  12.478   7.270
 3553POPC   NC347555  35.890  10.258   5.283
 3553POPC   PO447556  35.984   9.727   5.359
 3553POPC   GL147557  35.939   9.964   5.788
 3553POPC   GL247558  35.608   9.915   5.930
 3553POPC   C1A47559  36.017   9.986   6.275
 3553POPC   D2A47560  36.293  10.043   6.652
 3553POPC   C3A47561  36.274   9.982   7.137
 3553POPC   C4A47562  36.381  10.046   7.633
 3553POPC   C1B47563  35.693   9.601   6.273
 3553POPC   C2B47564  35.996   9.549   6.623
 3553POPC   C3B47565  35.929   9.603   7.080
 3553POPC   C4B47566  36.201   9.583   7.459
 3554POPC   NC347567  37.723  17.869   5.486
 3554POPC   PO447568  38.134  17.392   5.373
 3554POPC   GL147569  37.909  17.315   5.769
 3554POPC   GL247570  37.659  17.494   5.826
 3554POPC   C1A47571  37.916  17.098   6.183
 3554POPC   D2A47572  37.725  17.289   6.538
 3554POPC   C3A47573  37.837  17.121   6.927
 3554POPC   C4A47574  37.752  17.303   7.322
 3554POPC   C1B47575  37.506  17.618   6.185
 3554POPC   C2B47576  37.300  17.586   6.564
 3554POPC   C3B47577  37.526  17.551   6.934
 3554POPC   C4B47578  37.658  17.814   7.277
 3555POPC   NC347579  33.334  17.376   5.056
 3555POPC   PO447580  32.829  17.237   5.368
 3555POPC   GL147581  32.828  17.271   5.830
 3555POPC   GL247582  33.183  17.327   5.902
 3555POPC   C1A47583  32.832  17.408   6.286
 3555POPC   D2A47584  32.779  17.278   6.727
 3555POPC   C3A47585  32.882  17.595   7.066
 3555POPC   C4A47586  33.101  17.942   7.319
 3555POPC   C1B47587  33.183  17.019   6.235
 3555POPC   C2B47588  33.185  16.943   6.689
 3555POPC   C3B47589  33.219  17.205   7.072
 3555POPC   C4B47590  33.213  17.435   7.485
 3556POPC   NC347591  34.444  24.262   5.451
 3556POPC   PO447592  34.744  23.692   5.400
 3556POPC   GL147593  34.607  23.753   5.794
 3556POPC   GL247594  34.292  23.853   5.898
 3556POPC   C1A47595  34.753  23.965   6.151
 3556POPC   D2A47596  34.819  23.852   6.557
 3556POPC   C3A47597  34.825  24.097   6.926
 3556POPC   C4A47598  34.582  23.958   7.302
 3556POPC   C1B47599  34.300  23.864   6.389
 3556POPC   C2B47600  34.386  23.823   6.851
 3556POPC   C3B47601  34.118  23.717   7.233
 3556POPC   C4B47602  33.970  23.458   7.629
 3557POPC   NC347603   6.073  18.719   5.276
 3557POPC   PO447604   5.733  18.138   5.100
 3557POPC   GL147605   5.697  18.118   5.635
 3557POPC   GL247606   5.679  18.498   5.725
 3557POPC   C1A47607   5.916  18.165   6.084
 3557POPC   D2A47608   5.860  18.084   6.548
 3557POPC   C3A47609   6.145  18.203   6.885
 3557POPC   C4A47610   6.033  18.290   7.306
 3557POPC   C1B47611   5.565  18.530   6.183
 3557POPC   C2B47612   5.423  18.348   6.600
 3557POPC   C3B47613   5.634  18.362   6.983
 3557POPC   C4B47614   5.615  18.553   7.414
 3558POPC   NC347615  10.531  40.193   5.351
 3558POPC   PO447616  10.362  39.565   5.399
 3558POPC   GL147617  10.521  39.703   5.818
 3558POPC   GL247618  10.611  40.066   5.857
 3558POPC   C1A47619  10.551  39.759   6.260
 3558POPC   D2A47620  10.623  40.126   6.530
 3558POPC   C3A47621  10.744  39.976   6.936
 3558POPC   C4A47622  10.497  39.698   7.194
 3558POPC   C1B47623  10.252  40.163   6.146
 3558POPC   C2B47624  10.077  40.156   6.561
 3558POPC   C3B47625  10.295  40.235   6.936
 3558POPC   C4B47626  10.524  40.264   7.305
 3559POPC   NC347627  28.115   2.467   5.392
 3559POPC   PO447628  28.172   1.805   5.492
 3559POPC   GL147629  28.415   1.936   5.789
 3559POPC   GL247630  28.642   2.181   5.692
 3559POPC   C1A47631  28.272   1.958   6.179
 3559POPC   D2A47632  28.147   1.768   6.539
 3559POPC   C3A47633  28.289   1.969   6.920
 3559POPC   C4A47634  28.120   1.748   7.259
 3559POPC   C1B47635  28.792   1.959   6.126
 3559POPC   C2B47636  28.653   1.977   6.547
 3559POPC   C3B47637  28.824   1.968   6.957
 3559POPC   C4B47638  28.596   1.959   7.353
 3560POPC   NC347639  38.586  14.425   5.096
 3560POPC   PO447640  38.256  14.692   5.557
 3560POPC   GL147641  38.301  14.453   5.872
 3560POPC   GL247642  38.630  14.408   5.858
 3560POPC   C1A47643  38.210  14.511   6.284
 3560POPC   D2A47644  38.147  14.212   6.553
 3560POPC   C3A47645  38.132  14.250   6.988
 3560POPC   C4A47646  38.328  14.554   7.235
 3560POPC   C1B47647  38.719  14.600   6.225
 3560POPC   C2B47648  38.704  14.473   6.657
 3560POPC   C3B47649  38.803  14.598   7.072
 3560POPC   C4B47650  38.795  14.343   7.483
 3561POPC   NC347651   3.907   2.624   5.134
 3561POPC   PO447652   3.411   3.127   5.327
 3561POPC   GL147653   3.567   2.821   5.636
 3561POPC   GL247654   3.258   2.812   5.807
 3561POPC   C1A47655   3.851   2.687   5.992
 3561POPC   D2A47656   3.978   2.567   6.431
 3561POPC   C3A47657   3.785   2.789   6.776
 3561POPC   C4A47658   3.679   2.792   7.189
 3561POPC   C1B47659   3.325   2.590   6.166
 3561POPC   C2B47660   3.300   2.775   6.563
 3561POPC   C3B47661   3.278   2.594   6.964
 3561POPC   C4B47662   3.202   2.813   7.341
 3562POPC   NC347663  39.551  24.201   5.406
 3562POPC   PO447664  39.215  24.713   5.542
 3562POPC   GL147665  39.368  24.434   5.840
 3562POPC   GL247666  39.172  24.126   5.735
 3562POPC   C1A47667  39.336  24.615   6.258
 3562POPC   D2A47668  39.095  24.757   6.619
 3562POPC   C3A47669  39.298  24.682   7.004
 3562POPC   C4A47670  39.497  24.464   7.329
 3562POPC   C1B47671  39.137  24.134   6.191
 3562POPC   C2B47672  39.230  24.254   6.616
 3562POPC   C3B47673  39.223  24.158   7.039
 3562POPC   C4B47674  39.012  24.236   7.451
 3563POPC   NC347675  36.589  27.669   5.399
 3563POPC   PO447676  36.107  27.226   5.434
 3563POPC   GL147677  36.220  27.359   5.848
 3563POPC   GL247678  36.204  27.715   5.760
 3563POPC   C1A47679  35.946  27.385   6.239
 3563POPC   D2A47680  35.707  27.234   6.611
 3563POPC   C3A47681  35.960  27.386   6.958
 3563POPC   C4A47682  36.107  27.317   7.370
 3563POPC   C1B47683  36.193  27.859   6.165
 3563POPC   C2B47684  36.272  27.659   6.563
 3563POPC   C3B47685  36.353  27.725   6.994
 3563POPC   C4B47686  36.057  27.834   7.311
 3564POPC   NC347687  10.499  17.498   5.213
 3564POPC   PO447688  11.005  17.512   5.681
 3564POPC   GL147689  10.800  17.646   6.013
 3564POPC   GL247690  10.620  17.376   6.090
 3564POPC   C1A47691  10.752  17.648   6.477
 3564POPC   D2A47692  10.429  17.544   6.712
 3564POPC   C3A47693  10.557  17.386   7.081
 3564POPC   C4A47694  10.444  17.722   7.339
 3564POPC   C1B47695  10.217  17.268   6.305
 3564POPC   C2B47696   9.962  17.365   6.649
 3564POPC   C3B47697  10.053  17.351   7.053
 3564POPC   C4B47698  10.215  17.023   7.260
 3565POPC   NC347699  36.718  19.056   5.273
 3565POPC   PO447700  37.306  18.686   5.403
 3565POPC   GL147701  37.109  18.858   5.798
 3565POPC   GL247702  36.784  19.052   5.815
 3565POPC   C1A47703  37.092  18.950   6.253
 3565POPC   D2A47704  36.825  19.076   6.605
 3565POPC   C3A47705  36.854  18.929   7.006
 3565POPC   C4A47706  37.027  19.082   7.390
 3565POPC   C1B47707  36.743  19.391   6.183
 3565POPC   C2B47708  36.782  19.600   6.634
 3565POPC   C3B47709  36.767  19.459   7.088
 3565POPC   C4B47710  36.618  19.372   7.542
 3566POPC   NC347711  16.478  33.462   5.072
 3566POPC   PO447712  16.029  32.982   5.420
 3566POPC   GL147713  16.093  32.764   5.812
 3566POPC   GL247714  16.073  33.077   5.973
 3566POPC   C1A47715  16.264  32.684   6.239
 3566POPC   D2A47716  16.342  32.819   6.676
 3566POPC   C3A47717  15.989  32.925   6.927
 3566POPC   C4A47718  16.064  32.865   7.302
 3566POPC   C1B47719  15.990  33.076   6.419
 3566POPC   C2B47720  16.242  33.319   6.730
 3566POPC   C3B47721  16.102  33.438   7.111
 3566POPC   C4B47722  15.719  33.284   7.262
 3567POPC   NC347723  35.032  29.111   5.300
 3567POPC   PO447724  35.600  29.330   5.363
 3567POPC   GL147725  35.474  29.177   5.732
 3567POPC   GL247726  35.170  29.326   5.760
 3567POPC   C1A47727  35.609  29.163   6.164
 3567POPC   D2A47728  35.388  29.154   6.545
 3567POPC   C3A47729  35.458  29.277   6.972
 3567POPC   C4A47730  35.642  29.138   7.350
 3567POPC   C1B47731  35.115  29.005   6.085
 3567POPC   C2B47732  34.909  28.984   6.481
 3567POPC   C3B47733  35.066  28.965   6.895
 3567POPC   C4B47734  35.162  28.991   7.312
 3568POPC   NC347735  32.640  16.084   5.473
 3568POPC   PO447736  33.138  15.701   5.366
 3568POPC   GL147737  32.944  15.842   5.802
 3568POPC   GL247738  32.740  16.174   5.974
 3568POPC   C1A47739  32.803  15.747   6.227
 3568POPC   D2A47740  32.749  16.068   6.537
 3568POPC   C3A47741  32.913  15.892   6.906
 3568POPC   C4A47742  32.756  15.640   7.252
 3568POPC   C1B47743  33.163  16.125   6.195
 3568POPC   C2B47744  33.326  16.070   6.599
 3568POPC   C3B47745  33.328  16.167   7.038
 3568POPC   C4B47746  33.320  15.871   7.314
 3569POPC   NC347747  29.077   2.388   5.389
 3569POPC   PO447748  29.034   1.720   5.261
 3569POPC   GL147749  29.041   1.755   5.719
 3569POPC   GL247750  29.129   2.107   5.806
 3569POPC   C1A47751  29.248   1.720   6.150
 3569POPC   D2A47752  29.174   1.941   6.551
 3569POPC   C3A47753  29.338   1.761   6.945
 3569POPC   C4A47754  29.084   1.633   7.294
 3569POPC   C1B47755  29.337   2.286   6.150
 3569POPC   C2B47756  29.368   2.410   6.584
 3569POPC   C3B47757  29.292   2.259   6.993
 3569POPC   C4B47758  29.017   2.241   7.348
 3570POPC   NC347759  41.969  23.843   5.617
 3570POPC   PO447760  42.412  24.235   5.341
 3570POPC   GL147761  42.497  23.928   5.710
 3570POPC   GL247762  42.357  23.575   5.803
 3570POPC   C1A47763  42.545  23.876   6.171
 3570POPC   D2A47764  42.693  23.646   6.498
 3570POPC   C3A47765  42.737  23.712   6.932
 3570POPC   C4A47766  42.557  24.045   7.178
 3570POPC   C1B47767  42.086  23.583   6.214
 3570POPC   C2B47768  42.010  23.715   6.650
 3570POPC   C3B47769  42.233  23.673   7.043
 3570POPC   C4B47770  42.048  23.491   7.423
 3571POPC   NC347771  18.999  21.145   5.562
 3571POPC   PO447772  18.507  21.751   5.558
 3571POPC   GL147773  18.818  21.571   5.865
 3571POPC   GL247774  19.192  21.546   5.832
 3571POPC   C1A47775  18.851  21.240   6.204
 3571POPC   D2A47776  19.022  21.147   6.629
 3571POPC   C3A47777  18.724  21.244   6.986
 3571POPC   C4A47778  18.743  21.386   7.436
 3571POPC   C1B47779  19.310  21.493   6.275
 3571POPC   C2B47780  19.354  21.568   6.720
 3571POPC   C3B47781  19.174  21.478   7.099
 3571POPC   C4B47782  19.145  21.721   7.483
 3572POPC   NC347783  27.347   4.644   5.375
 3572POPC   PO447784  27.889   4.170   5.381
 3572POPC   GL147785  27.588   4.323   5.727
 3572POPC   GL247786  27.262   4.148   5.806
 3572POPC   C1A47787  27.462   4.567   6.120
 3572POPC   D2A47788  27.605   4.467   6.565
 3572POPC   C3A47789  27.447   4.596   6.985
 3572POPC   C4A47790  27.497   4.694   7.455
 3572POPC   C1B47791  27.277   4.125   6.276
 3572POPC   C2B47792  27.176   4.228   6.713
 3572POPC   C3B47793  27.252   4.152   7.172
 3572POPC   C4B47794  27.342   4.222   7.626
 3573POPC   NC347795  37.080  41.937   5.335
 3573POPC   PO447796  36.660  41.387   5.412
 3573POPC   GL147797  36.770  41.706   5.715
 3573POPC   GL247798  37.141  41.743   5.799
 3573POPC   C1A47799  36.737  41.671   6.159
 3573POPC   D2A47800  36.762  41.402   6.538
 3573POPC   C3A47801  36.768  41.625   6.917
 3573POPC   C4A47802  36.875  41.500   7.303
 3573POPC   C1B47803  37.181  41.396   6.090
 3573POPC   C2B47804  37.301  41.382   6.521
 3573POPC   C3B47805  37.144  41.237   6.910
 3573POPC   C4B47806  37.322  41.216   7.330
 3574POPC   NC347807  38.546   0.880   5.484
 3574POPC   PO447808  38.432   1.547   5.308
 3574POPC   GL147809  38.423   1.332   5.746
 3574POPC   GL247810  38.207   1.015   5.850
 3574POPC   C1A47811  38.446   1.430   6.198
 3574POPC   D2A47812  38.558   1.242   6.603
 3574POPC   C3A47813  38.285   1.281   6.961
 3574POPC   C4A47814  38.248   1.394   7.401
 3574POPC   C1B47815  38.551   0.931   6.154
 3574POPC   C2B47816  38.623   0.734   6.540
 3574POPC   C3B47817  38.701   0.873   6.967
 3574POPC   C4B47818  38.668   1.161   7.305
 3575POPC   NC347819  39.876  12.899   5.415
 3575POPC   PO447820  40.485  13.129   5.571
 3575POPC   GL147821  40.096  13.069   5.873
 3575POPC   GL247822  40.075  12.707   5.843
 3575POPC   C1A47823  39.839  13.294   6.253
 3575POPC   D2A47824  39.952  13.311   6.736
 3575POPC   C3A47825  40.104  12.889   6.883
 3575POPC   C4A47826  40.287  12.683   7.248
 3575POPC   C1B47827  40.044  12.484   6.204
 3575POPC   C2B47828  39.835  12.555   6.620
 3575POPC   C3B47829  39.951  12.366   7.003
 3575POPC   C4B47830  40.158  12.212   7.378
 3576POPC   NC347831   7.495  35.969   5.287
 3576POPC   PO447832   6.871  36.005   5.238
 3576POPC   GL147833   7.161  35.950   5.680
 3576POPC   GL247834   7.527  35.826   5.782
 3576POPC   C1A47835   7.132  35.884   6.144
 3576POPC   D2A47836   7.165  36.160   6.510
 3576POPC   C3A47837   7.172  35.957   6.918
 3576POPC   C4A47838   7.186  36.222   7.278
 3576POPC   C1B47839   7.591  36.144   6.131
 3576POPC   C2B47840   7.720  36.209   6.567
 3576POPC   C3B47841   7.619  36.255   6.993
 3576POPC   C4B47842   7.669  36.221   7.448
 3577POPC   NC347843  27.354  42.824   5.459
 3577POPC   PO447844  27.678  43.270   5.436
 3577POPC   GL147845  27.591  43.316   5.876
 3577POPC   GL247846  27.900  43.421   5.995
 3577POPC   C1A47847  27.513  43.192   6.333
 3577POPC   D2A47848  27.696  43.141   6.768
 3577POPC   C3A47849  27.445  43.162   7.167
 3577POPC   C4A47850  27.231  42.958   7.529
 3577POPC   C1B47851  27.887  43.550   6.419
 3577POPC   C2B47852  27.909  43.595   6.861
 3577POPC   C3B47853  27.930  43.333   7.231
 3577POPC   C4B47854  28.089  43.434   7.659
 3578POPC   NC347855  11.156  29.435   5.683
 3578POPC   PO447856  11.350  29.003   5.197
 3578POPC   GL147857  11.415  28.994   5.660
 3578POPC   GL247858  11.059  28.911   5.672
 3578POPC   C1A47859  11.575  29.169   6.102
 3578POPC   D2A47860  11.440  29.024   6.514
 3578POPC   C3A47861  11.554  29.230   6.875
 3578POPC   C4A47862  11.332  29.304   7.247
 3578POPC   C1B47863  11.139  28.880   6.103
 3578POPC   C2B47864  10.948  28.861   6.508
 3578POPC   C3B47865  11.046  29.049   6.880
 3578POPC   C4B47866  10.851  28.997   7.228
 3579POPC   NC347867  16.025   7.916   5.519
 3579POPC   PO447868  15.745   8.551   5.452
 3579POPC   GL147869  16.115   8.379   5.698
 3579POPC   GL247870  15.907   8.249   5.916
 3579POPC   C1A47871  16.347   8.135   6.094
 3579POPC   D2A47872  16.030   8.171   6.424
 3579POPC   C3A47873  16.141   8.233   6.848
 3579POPC   C4A47874  15.992   8.272   7.261
 3579POPC   C1B47875  15.571   8.405   6.153
 3579POPC   C2B47876  15.477   8.502   6.558
 3579POPC   C3B47877  15.719   8.517   6.878
 3579POPC   C4B47878  15.816   8.731   7.228
 3580POPC   NC347879  42.736  24.582   5.425
 3580POPC   PO447880  43.389  24.287   5.400
 3580POPC   GL147881  43.286  24.163   5.826
 3580POPC   GL247882  43.245  24.523   5.860
 3580POPC   C1A47883  43.134  24.228   6.293
 3580POPC   D2A47884  42.833  24.146   6.649
 3580POPC   C3A47885  42.987  24.297   7.067
 3580POPC   C4A47886  43.421  24.347   7.124
 3580POPC   C1B47887  42.938  24.694   6.123
 3580POPC   C2B47888  42.892  24.669   6.555
 3580POPC   C3B47889  43.042  24.789   6.943
 3580POPC   C4B47890  42.769  24.764   7.284
 3581POPC   NC347891  17.874  34.108   5.394
 3581POPC   PO447892  18.526  34.347   5.386
 3581POPC   GL147893  18.235  34.353   5.725
 3581POPC   GL247894  18.413  34.604   5.875
 3581POPC   C1A47895  18.264  34.200   6.171
 3581POPC   D2A47896  18.445  34.489   6.519
 3581POPC   C3A47897  18.445  34.288   6.918
 3581POPC   C4A47898  18.088  34.135   7.142
 3581POPC   C1B47899  18.706  34.796   6.179
 3581POPC   C2B47900  18.702  35.046   6.572
 3581POPC   C3B47901  18.634  34.838   6.972
 3581POPC   C4B47902  18.484  34.601   7.322
 3582POPC   NC347903  11.318  34.176   5.191
 3582POPC   PO447904  11.118  33.551   5.285
 3582POPC   GL147905  11.371  33.686   5.659
 3582POPC   GL247906  11.351  34.034   5.724
 3582POPC   C1A47907  11.352  33.646   6.103
 3582POPC   D2A47908  11.148  33.761   6.499
 3582POPC   C3A47909  11.387  33.742   6.917
 3582POPC   C4A47910  11.207  33.649   7.285
 3582POPC   C1B47911  11.325  34.143   6.189
 3582POPC   C2B47912  11.492  34.128   6.602
 3582POPC   C3B47913  11.321  34.240   7.005
 3582POPC   C4B47914  11.436  34.182   7.446
 3583POPC   NC347915  25.904  12.567   5.109
 3583POPC   PO447916  26.462  12.768   5.427
 3583POPC   GL147917  26.125  12.865   5.726
 3583POPC   GL247918  26.320  12.711   5.946
 3583POPC   C1A47919  25.876  12.894   6.135
 3583POPC   D2A47920  25.933  12.823   6.589
 3583POPC   C3A47921  25.854  13.177   6.839
 3583POPC   C4A47922  25.705  13.170   7.237
 3583POPC   C1B47923  26.371  12.879   6.317
 3583POPC   C2B47924  26.432  12.658   6.646
 3583POPC   C3B47925  26.302  12.672   7.029
 3583POPC   C4B47926  25.921  12.725   7.111
 3584POPC   NC347927  26.518  16.923   5.459
 3584POPC   PO447928  27.107  16.501   5.331
 3584POPC   GL147929  26.909  16.672   5.694
 3584POPC   GL247930  26.979  17.049   5.732
 3584POPC   C1A47931  26.875  16.473   6.101
 3584POPC   D2A47932  27.224  16.385   6.394
 3584POPC   C3A47933  27.097  16.439   6.833
 3584POPC   C4A47934  26.746  16.589   7.107
 3584POPC   C1B47935  26.892  17.163   6.190
 3584POPC   C2B47936  26.681  17.136   6.651
 3584POPC   C3B47937  26.670  17.096   7.139
 3584POPC   C4B47938  26.515  17.226   7.579
 3585POPC   NC347939  37.375  26.439   5.551
 3585POPC   PO447940  36.863  26.973   5.397
 3585POPC   GL147941  37.089  26.818   5.708
 3585POPC   GL247942  36.883  26.563   5.731
 3585POPC   C1A47943  37.244  26.815   6.129
 3585POPC   D2A47944  37.119  27.023   6.535
 3585POPC   C3A47945  36.965  26.825   6.924
 3585POPC   C4A47946  36.702  26.979   7.267
 3585POPC   C1B47947  36.743  26.654   6.171
 3585POPC   C2B47948  36.710  26.456   6.597
 3585POPC   C3B47949  36.698  26.232   6.992
 3585POPC   C4B47950  36.945  26.437   7.287
 3586POPC   NC347951  30.833  28.511   5.097
 3586POPC   PO447952  31.127  28.185   5.596
 3586POPC   GL147953  30.778  28.385   5.828
 3586POPC   GL247954  30.564  28.092   5.879
 3586POPC   C1A47955  30.624  28.432   6.269
 3586POPC   D2A47956  30.341  28.452   6.620
 3586POPC   C3A47957  30.386  28.181   6.986
 3586POPC   C4A47958  30.600  28.344   7.381
 3586POPC   C1B47959  30.897  28.022   6.193
 3586POPC   C2B47960  30.722  28.016   6.601
 3586POPC   C3B47961  30.897  28.217   6.940
 3586POPC   C4B47962  31.122  28.257   7.280
 3587POPC   NC347963  14.276  12.028   5.181
 3587POPC   PO447964  14.617  12.479   5.475
 3587POPC   GL147965  14.418  12.237   5.833
 3587POPC   GL247966  14.408  11.915   5.684
 3587POPC   C1A47967  14.478  12.213   6.295
 3587POPC   D2A47968  14.345  12.047   6.715
 3587POPC   C3A47969  14.196  12.313   7.023
 3587POPC   C4A47970  14.490  12.556   7.256
 3587POPC   C1B47971  14.308  11.741   6.070
 3587POPC   C2B47972  14.331  11.605   6.473
 3587POPC   C3B47973  14.518  11.593   6.882
 3587POPC   C4B47974  14.259  11.752   7.182
 3588POPC   NC347975   1.163  44.875   5.329
 3588POPC   PO447976   1.123  44.252   5.083
 3588POPC   GL147977   1.201  44.378   5.581
 3588POPC   GL247978   1.467  44.643   5.673
 3588POPC   C1A47979   1.185  44.389   6.088
 3588POPC   D2A47980   0.946  44.263   6.506
 3588POPC   C3A47981   1.012  44.373   6.950
 3588POPC   C4A47982   1.349  44.532   7.211
 3588POPC   C1B47983   1.394  44.865   6.073
 3588POPC   C2B47984   1.358  44.736   6.523
 3588POPC   C3B47985   1.122  44.879   6.895
 3588POPC   C4B47986   1.270   0.042   7.281
 3589POPC   NC347987  13.966  42.594   5.482
 3589POPC   PO447988  13.361  42.268   5.347
 3589POPC   GL147989  13.578  42.365   5.724
 3589POPC   GL247990  13.295  42.404   5.891
 3589POPC   C1A47991  13.819  42.425   6.127
 3589POPC   D2A47992  13.849  42.517   6.581
 3589POPC   C3A47993  13.748  42.144   6.824
 3589POPC   C4A47994  13.724  42.089   7.252
 3589POPC   C1B47995  13.360  42.620   6.291
 3589POPC   C2B47996  13.480  42.876   6.654
 3589POPC   C3B47997  13.547  42.602   7.018
 3589POPC   C4B47998  13.267  42.613   7.361
 3590POPC   NC347999  26.508  34.878   5.377
 3590POPC   PO448000  26.855  35.453   5.474
 3590POPC   GL148001  26.778  35.291   5.850
 3590POPC   GL248002  26.457  35.223   5.759
 3590POPC   C1A48003  26.854  35.465   6.244
 3590POPC   D2A48004  27.057  35.445   6.611
 3590POPC   C3A48005  26.825  35.476   6.987
 3590POPC   C4A48006  26.640  35.636   7.335
 3590POPC   C1B48007  26.279  35.019   6.083
 3590POPC   C2B48008  26.420  35.038   6.491
 3590POPC   C3B48009  26.531  35.031   6.914
 3590POPC   C4B48010  26.354  35.053   7.316
 3591POPC   NC348011  11.900  30.967   5.337
 3591POPC   PO448012  11.942  31.701   5.430
 3591POPC   GL148013  11.964  31.609   5.830
 3591POPC   GL248014  11.956  31.284   5.749
 3591POPC   C1A48015  12.172  31.631   6.233
 3591POPC   D2A48016  12.306  31.427   6.609
 3591POPC   C3A48017  12.230  31.665   6.947
 3591POPC   C4A48018  12.290  31.694   7.359
 3591POPC   C1B48019  11.982  31.148   6.166
 3591POPC   C2B48020  11.834  31.223   6.583
 3591POPC   C3B48021  11.969  31.223   7.018
 3591POPC   C4B48022  12.101  31.185   7.456
 3592POPC   NC348023  25.877  21.367   5.323
 3592POPC   PO448024  26.589  21.298   5.403
 3592POPC   GL148025  26.713  21.360   5.807
 3592POPC   GL248026  26.903  21.049   5.835
 3592POPC   C1A48027  26.788  21.399   6.243
 3592POPC   D2A48028  26.928  21.517   6.631
 3592POPC   C3A48029  26.679  21.448   6.947
 3592POPC   C4A48030  26.622  21.420   7.358
 3592POPC   C1B48031  27.162  21.066   6.222
 3592POPC   C2B48032  27.045  21.027   6.683
 3592POPC   C3B48033  26.954  21.065   7.151
 3592POPC   C4B48034  26.871  21.079   7.644
 3593POPC   NC348035   6.300  29.299   5.719
 3593POPC   PO448036   6.754  29.073   5.239
 3593POPC   GL148037   6.742  29.006   5.670
 3593POPC   GL248038   6.942  29.277   5.718
 3593POPC   C1A48039   6.746  29.054   6.139
 3593POPC   D2A48040   6.791  28.964   6.576
 3593POPC   C3A48041   6.578  29.153   6.942
 3593POPC   C4A48042   6.612  28.942   7.355
 3593POPC   C1B48043   7.110  29.436   6.074
 3593POPC   C2B48044   7.206  29.443   6.541
 3593POPC   C3B48045   7.102  29.211   6.917
 3593POPC   C4B48046   6.926  29.328   7.310
 3594POPC   NC348047  29.936  39.101   5.442
 3594POPC   PO448048  29.895  39.745   5.634
 3594POPC   GL148049  29.879  39.384   5.890
 3594POPC   GL248050  29.788  39.018   5.909
 3594POPC   C1A48051  29.879  39.357   6.329
 3594POPC   D2A48052  29.800  39.138   6.708
 3594POPC   C3A48053  29.828  39.325   7.145
 3594POPC   C4A48054  29.754  39.439   7.602
 3594POPC   C1B48055  29.914  38.832   6.293
 3594POPC   C2B48056  29.785  38.622   6.675
 3594POPC   C3B48057  29.737  38.810   7.078
 3594POPC   C4B48058  29.822  38.943   7.493
 3595POPC   NC348059  22.227  29.903   5.189
 3595POPC   PO448060  22.133  30.398   5.572
 3595POPC   GL148061  22.147  29.991   5.766
 3595POPC   GL248062  22.018  29.660   5.627
 3595POPC   C1A48063  22.319  29.942   6.194
 3595POPC   D2A48064  22.486  30.040   6.620
 3595POPC   C3A48065  22.265  29.909   6.982
 3595POPC   C4A48066  22.176  30.115   7.354
 3595POPC   C1B48067  21.943  29.603   6.091
 3595POPC   C2B48068  21.850  29.674   6.529
 3595POPC   C3B48069  21.935  29.517   6.924
 3595POPC   C4B48070  21.955  29.637   7.352
 3596POPC   NC348071   3.505  28.009   5.535
 3596POPC   PO448072   3.590  27.422   5.405
 3596POPC   GL148073   3.640  27.347   5.810
 3596POPC   GL248074   3.824  27.649   5.917
 3596POPC   C1A48075   3.411  27.439   6.176
 3596POPC   D2A48076   3.596  27.819   6.375
 3596POPC   C3A48077   3.599  27.739   6.811
 3596POPC   C4A48078   3.355  27.424   7.003
 3596POPC   C1B48079   3.880  27.300   6.242
 3596POPC   C2B48080   3.715  27.253   6.655
 3596POPC   C3B48081   3.888  27.369   7.063
 3596POPC   C4B48082   3.980  27.678   7.392
 3597POPC   NC348083  43.776  34.029   5.374
 3597POPC   PO448084  44.282  33.657   5.615
 3597POPC   GL148085  44.028  33.716   5.952
 3597POPC   GL248086  43.736  33.616   5.787
 3597POPC   C1A48087  43.771  33.874   6.316
 3597POPC   D2A48088  43.670  34.049   6.740
 3597POPC   C3A48089  43.909  33.810   7.026
 3597POPC   C4A48090  43.933  33.733   7.476
 3597POPC   C1B48091  43.752  33.364   6.186
 3597POPC   C2B48092  43.722  33.430   6.650
 3597POPC   C3B48093  43.681  33.359   7.106
 3597POPC   C4B48094  43.637  33.320   7.553
 3598POPC   NC348095  22.840  38.149   5.390
 3598POPC   PO448096  23.256  38.697   5.532
 3598POPC   GL148097  22.934  38.407   5.833
 3598POPC   GL248098  22.672  38.103   5.862
 3598POPC   C1A48099  22.639  38.477   6.254
 3598POPC   D2A48100  22.558  38.336   6.707
 3598POPC   C3A48101  22.851  38.546   7.010
 3598POPC   C4A48102  23.303  38.564   7.019
 3598POPC   C1B48103  22.946  38.089   6.221
 3598POPC   C2B48104  23.074  38.269   6.626
 3598POPC   C3B48105  22.984  38.051   7.009
 3598POPC   C4B48106  22.542  37.980   7.111
 3599POPC   NC348107  35.899  12.576   5.459
 3599POPC   PO448108  35.484  13.047   5.498
 3599POPC   GL148109  35.269  12.899   5.853
 3599POPC   GL248110  35.450  12.584   5.829
 3599POPC   C1A48111  35.333  13.064   6.266
 3599POPC   D2A48112  35.670  13.248   6.543
 3599POPC   C3A48113  35.567  13.177   6.988
 3599POPC   C4A48114  35.188  13.010   7.196
 3599POPC   C1B48115  35.718  12.766   6.152
 3599POPC   C2B48116  35.815  12.754   6.602
 3599POPC   C3B48117  35.601  12.668   6.963
 3599POPC   C4B48118  35.657  12.838   7.380
 3600POPC   NC348119  36.410  13.087   4.950
 3600POPC   PO448120  36.376  12.597   5.453
 3600POPC   GL148121  36.176  12.667   5.857
 3600POPC   GL248122  35.938  12.370   5.913
 3600POPC   C1A48123  36.158  13.031   6.142
 3600POPC   D2A48124  36.301  12.992   6.549
 3600POPC   C3A48125  36.089  13.106   6.908
 3600POPC   C4A48126  36.370  13.081   7.270
 3600POPC   C1B48127  36.111  12.480   6.305
 3600POPC   C2B48128  36.388  12.403   6.575
 3600POPC   C3B48129  36.416  12.671   6.923
 3600POPC   C4B48130  36.087  12.683   7.211
 3601POPC   NC348131  17.800   1.535   5.272
 3601POPC   PO448132  17.339   1.164   5.403
 3601POPC   GL148133  17.635   1.268   5.688
 3601POPC   GL248134  17.817   0.955   5.697
 3601POPC   C1A48135  17.519   1.338   6.101
 3601POPC   D2A48136  17.355   1.130   6.481
 3601POPC   C3A48137  17.566   1.187   6.894
 3601POPC   C4A48138  17.471   0.828   7.150
 3601POPC   C1B48139  17.700   0.860   6.150
 3601POPC   C2B48140  17.780   0.792   6.606
 3601POPC   C3B48141  17.984   0.868   7.021
 3601POPC   C4B48142  17.898   0.886   7.468
 3602POPC   NC348143   5.702  42.534   5.390
 3602POPC   PO448144   6.091  42.031   5.365
 3602POPC   GL148145   5.944  42.204   5.760
 3602POPC   GL248146   5.816  42.558   5.872
 3602POPC   C1A48147   6.127  42.299   6.162
 3602POPC   D2A48148   5.988  42.554   6.497
 3602POPC   C3A48149   5.893  42.280   6.827
 3602POPC   C4A48150   5.917  42.178   7.254
 3602POPC   C1B48151   5.584  42.371   6.179
 3602POPC   C2B48152   5.468  42.478   6.578
 3602POPC   C3B48153   5.402  42.224   6.931
 3602POPC   C4B48154   5.428  42.221   7.372
 3603POPC   NC348155  11.835   1.897   5.408
 3603POPC   PO448156  12.493   2.001   5.465
 3603POPC   GL148157  12.205   1.839   5.764
 3603POPC   GL248158  12.069   2.169   5.833
 3603POPC   C1A48159  12.081   1.774   6.184
 3603POPC   D2A48160  11.974   1.957   6.572
 3603POPC   C3A48161  12.040   1.709   6.958
 3603POPC   C4A48162  12.072   1.517   7.375
 3603POPC   C1B48163  12.458   2.164   6.093
 3603POPC   C2B48164  12.525   2.224   6.522
 3603POPC   C3B48165  12.234   2.299   6.837
 3603POPC   C4B48166  12.079   2.124   7.225
 3604POPC   NC348167  11.380  30.372   5.416
 3604POPC   PO448168  11.442  31.024   5.389
 3604POPC   GL148169  11.323  30.724   5.767
 3604POPC   GL248170  11.495  30.406   5.902
 3604POPC   C1A48171  11.283  30.759   6.213
 3604POPC   D2A48172  11.242  30.940   6.605
 3604POPC   C3A48173  11.454  31.129   6.911
 3604POPC   C4A48174  11.587  31.066   7.331
 3604POPC   C1B48175  11.255  30.251   6.246
 3604POPC   C2B48176  10.983  30.465   6.536
 3604POPC   C3B48177  11.033  30.651   6.943
 3604POPC   C4B48178  11.206  30.537   7.319
 3605POPC   NC348179   5.181   4.588   5.447
 3605POPC   PO448180   4.812   4.028   5.474
 3605POPC   GL148181   4.880   4.302   5.814
 3605POPC   GL248182   5.224   4.282   5.888
 3605POPC   C1A48183   4.856   4.211   6.259
 3605POPC   D2A48184   4.675   4.330   6.641
 3605POPC   C3A48185   4.915   4.148   6.887
 3605POPC   C4A48186   4.888   4.094   7.271
 3605POPC   C1B48187   5.310   4.473   6.286
 3605POPC   C2B48188   5.216   4.555   6.727
 3605POPC   C3B48189   5.262   4.445   7.162
 3605POPC   C4B48190   5.428   4.167   7.521
 3606POPC   NC348191  33.533  40.822   5.417
 3606POPC   PO448192  34.056  40.434   5.226
 3606POPC   GL148193  33.863  40.449   5.675
 3606POPC   GL248194  33.520  40.396   5.746
 3606POPC   C1A48195  33.852  40.454   6.161
 3606POPC   D2A48196  34.140  40.432   6.542
 3606POPC   C3A48197  34.110  40.687   6.926
 3606POPC   C4A48198  33.831  40.932   7.163
 3606POPC   C1B48199  33.320  40.449   6.157
 3606POPC   C2B48200  33.417  40.551   6.594
 3606POPC   C3B48201  33.616  40.493   6.997
 3606POPC   C4B48202  33.444  40.546   7.399
 3607POPC   NC348203  27.676  13.052   5.342
 3607POPC   PO448204  27.336  12.574   5.529
 3607POPC   GL148205  27.453  12.864   5.837
 3607POPC   GL248206  27.828  12.895   5.832
 3607POPC   C1A48207  27.275  12.862   6.269
 3607POPC   D2A48208  27.454  12.545   6.521
 3607POPC   C3A48209  27.733  12.597   6.850
 3607POPC   C4A48210  27.563  12.679   7.225
 3607POPC   C1B48211  27.702  13.123   6.219
 3607POPC   C2B48212  27.619  13.034   6.639
 3607POPC   C3B48213  27.813  13.092   7.032
 3607POPC   C4B48214  27.747  13.231   7.420
 3608POPC   NC348215  22.571  16.189   5.053
 3608POPC   PO448216  22.874  15.738   5.466
 3608POPC   GL148217  22.872  15.839   5.859
 3608POPC   GL248218  23.177  16.001   5.809
 3608POPC   C1A48219  22.721  15.917   6.267
 3608POPC   D2A48220  22.986  15.984   6.607
 3608POPC   C3A48221  22.796  15.962   6.985
 3608POPC   C4A48222  22.629  15.764   7.322
 3608POPC   C1B48223  23.241  15.773   6.196
 3608POPC   C2B48224  23.252  15.552   6.599
 3608POPC   C3B48225  23.034  15.509   6.994
 3608POPC   C4B48226  23.103  15.607   7.396
 3609POPC   NC348227  16.332  27.522   5.509
 3609POPC   PO448228  17.027  27.619   5.411
 3609POPC   GL148229  16.792  27.728   5.779
 3609POPC   GL248230  16.956  28.015   5.896
 3609POPC   C1A48231  16.781  27.620   6.226
 3609POPC   D2A48232  16.793  27.499   6.672
 3609POPC   C3A48233  16.545  27.562   7.037
 3609POPC   C4A48234  16.571  27.326   7.416
 3609POPC   C1B48235  17.205  27.914   6.234
 3609POPC   C2B48236  17.054  27.953   6.634
 3609POPC   C3B48237  17.033  27.789   7.024
 3609POPC   C4B48238  16.770  27.906   7.336
 3610POPC   NC348239  18.567  19.545   5.515
 3610POPC   PO448240  18.178  20.025   5.398
 3610POPC   GL148241  18.070  20.100   5.825
 3610POPC   GL248242  18.281  19.802   5.894
 3610POPC   C1A48243  18.065  20.027   6.289
 3610POPC   D2A48244  18.464  20.047   6.503
 3610POPC   C3A48245  18.461  19.871   6.885
 3610POPC   C4A48246  18.239  20.071   7.219
 3610POPC   C1B48247  18.365  19.588   6.296
 3610POPC   C2B48248  18.196  19.457   6.693
 3610POPC   C3B48249  18.377  19.413   7.101
 3610POPC   C4B48250  18.294  19.615   7.478
 3611POPC   NC348251   4.702   0.142   5.418
 3611POPC   PO448252   4.084   0.083   5.299
 3611POPC   GL148253   4.269   0.358   5.717
 3611POPC   GL248254   4.113   0.687   5.794
 3611POPC   C1A48255   4.411   0.583   6.183
 3611POPC   D2A48256   4.371   0.651   6.661
 3611POPC   C3A48257   4.484   0.340   6.991
 3611POPC   C4A48258   4.202   0.298   7.314
 3611POPC   C1B48259   3.887   0.564   6.192
 3611POPC   C2B48260   3.824   0.672   6.644
 3611POPC   C3B48261   3.891   0.637   7.087
 3611POPC   C4B48262   3.926   0.907   7.441
 3612POPC   NC348263  18.261  30.131   5.453
 3612POPC   PO448264  18.633  29.575   5.547
 3612POPC   GL148265  18.435  29.716   5.938
 3612POPC   GL248266  18.219  30.008   5.940
 3612POPC   C1A48267  18.352  29.759   6.397
 3612POPC   D2A48268  18.492  29.991   6.767
 3612POPC   C3A48269  18.294  29.831   7.127
 3612POPC   C4A48270  18.403  29.646   7.512
 3612POPC   C1B48271  18.318  30.273   6.270
 3612POPC   C2B48272  18.152  30.330   6.630
 3612POPC   C3B48273  18.262  30.370   7.049
 3612POPC   C4B48274  18.089  30.224   7.407
 3613POPC   NC348275  37.525  13.712   5.372
 3613POPC   PO448276  38.006  14.081   5.604
 3613POPC   GL148277  37.739  13.837   5.900
 3613POPC   GL248278  37.447  13.604   5.866
 3613POPC   C1A48279  37.678  13.729   6.319
 3613POPC   D2A48280  37.715  13.415   6.635
 3613POPC   C3A48281  37.650  13.582   7.077
 3613POPC   C4A48282  37.896  13.793   7.395
 3613POPC   C1B48283  37.455  13.272   6.194
 3613POPC   C2B48284  37.276  13.150   6.584
 3613POPC   C3B48285  37.462  13.129   6.986
 3613POPC   C4B48286  37.626  13.178   7.400
 3614POPC   NC348287  44.003  36.038   5.553
 3614POPC   PO448288  43.662  35.537   5.412
 3614POPC   GL148289  43.873  35.636   5.852
 3614POPC   GL248290  44.256  35.731   5.871
 3614POPC   C1A48291  43.897  35.947   6.213
 3614POPC   D2A48292  44.126  36.019   6.622
 3614POPC   C3A48293  43.825  36.124   6.915
 3614POPC   C4A48294  43.628  36.047   7.299
 3614POPC   C1B48295  44.369  36.124   6.174
 3614POPC   C2B48296  44.196  36.500   6.462
 3614POPC   C3B48297  44.163  36.517   6.929
 3614POPC   C4B48298  44.122  36.207   7.310
 3615POPC   NC348299  41.137  22.462   5.321
 3615POPC   PO448300  40.673  21.920   5.288
 3615POPC   GL148301  40.851  21.926   5.716
 3615POPC   GL248302  41.119  22.194   5.768
 3615POPC   C1A48303  40.782  21.888   6.170
 3615POPC   D2A48304  40.703  22.132   6.573
 3615POPC   C3A48305  40.620  21.971   7.004
 3615POPC   C4A48306  40.804  21.906   7.431
 3615POPC   C1B48307  40.839  22.386   6.065
 3615POPC   C2B48308  40.906  22.586   6.444
 3615POPC   C3B48309  41.113  22.508   6.825
 3615POPC   C4B48310  40.907  22.384   7.201
 3616POPC   NC348311  15.110  17.992   5.517
 3616POPC   PO448312  14.549  18.317   5.375
 3616POPC   GL148313  14.439  18.343   5.816
 3616POPC   GL248314  14.836  18.344   5.842
 3616POPC   C1A48315  14.144  18.321   6.209
 3616POPC   D2A48316  13.954  18.103   6.585
 3616POPC   C3A48317  14.066  18.363   6.914
 3616POPC   C4A48318  14.234  18.333   7.328
 3616POPC   C1B48319  14.674  18.379   6.258
 3616POPC   C2B48320  14.487  18.555   6.600
 3616POPC   C3B48321  14.609  18.480   6.989
 3616POPC   C4B48322  14.756  18.178   7.240
 3617POPC   NC348323  22.480  22.908   5.621
 3617POPC   PO448324  21.896  22.994   5.575
 3617POPC   GL148325  21.814  22.984   5.965
 3617POPC   GL248326  22.151  22.852   6.000
 3617POPC   C1A48327  21.859  22.898   6.391
 3617POPC   D2A48328  22.086  22.902   6.722
 3617POPC   C3A48329  21.822  22.840   7.045
 3617POPC   C4A48330  21.949  23.049   7.421
 3617POPC   C1B48331  22.206  23.228   6.249
 3617POPC   C2B48332  22.424  23.285   6.635
 3617POPC   C3B48333  22.566  23.358   7.062
 3617POPC   C4B48334  22.359  23.372   7.490
 3618POPC   NC348335   4.567  37.555   5.423
 3618POPC   PO448336   5.209  37.743   5.374
 3618POPC   GL148337   5.041  37.479   5.683
 3618POPC   GL248338   5.293  37.256   5.784
 3618POPC   C1A48339   4.984  37.449   6.151
 3618POPC   D2A48340   4.855  37.713   6.508
 3618POPC   C3A48341   5.097  37.736   6.862
 3618POPC   C4A48342   4.934  37.807   7.245
 3618POPC   C1B48343   5.419  37.156   6.194
 3618POPC   C2B48344   5.367  37.378   6.554
 3618POPC   C3B48345   5.271  37.242   6.922
 3618POPC   C4B48346   5.227  37.390   7.300
 3619POPC   NC348347  22.360  32.409   5.451
 3619POPC   PO448348  21.784  31.950   5.378
 3619POPC   GL148349  22.049  32.099   5.738
 3619POPC   GL248350  22.041  32.461   5.853
 3619POPC   C1A48351  22.262  31.994   6.147
 3619POPC   D2A48352  22.336  31.755   6.533
 3619POPC   C3A48353  22.335  31.948   6.930
 3619POPC   C4A48354  22.263  32.097   7.365
 3619POPC   C1B48355  22.432  32.478   6.141
 3619POPC   C2B48356  22.503  32.302   6.565
 3619POPC   C3B48357  22.527  32.446   7.012
 3619POPC   C4B48358  22.534  32.512   7.469
 3620POPC   NC348359   8.761   1.646   5.327
 3620POPC   PO448360   9.214   1.246   5.492
 3620POPC   GL148361   9.099   1.134   5.923
 3620POPC   GL248362   9.238   0.801   6.028
 3620POPC   C1A48363   8.977   1.306   6.335
 3620POPC   D2A48364   8.625   1.186   6.621
 3620POPC   C3A48365   8.782   1.282   7.046
 3620POPC   C4A48366   9.234   1.357   7.142
 3620POPC   C1B48367   8.898   0.810   6.307
 3620POPC   C2B48368   9.019   0.869   6.687
 3620POPC   C3B48369   9.201   0.831   7.032
 3620POPC   C4B48370   9.011   0.945   7.369
 3621POPC   NC348371  36.016  29.553   5.392
 3621POPC   PO448372  36.339  28.942   5.477
 3621POPC   GL148373  36.082  29.041   5.840
 3621POPC   GL248374  35.937  29.362   5.843
 3621POPC   C1A48375  36.233  29.192   6.231
 3621POPC   D2A48376  36.336  29.329   6.634
 3621POPC   C3A48377  36.147  29.184   7.025
 3621POPC   C4A48378  36.034  28.817   7.253
 3621POPC   C1B48379  35.896  29.577   6.241
 3621POPC   C2B48380  35.844  29.431   6.677
 3621POPC   C3B48381  35.836  29.582   7.121
 3621POPC   C4B48382  35.724  29.581   7.547
 3622POPC   NC348383  25.221  10.057   5.578
 3622POPC   PO448384  25.212  10.729   5.489
 3622POPC   GL148385  25.336  10.522   5.843
 3622POPC   GL248386  24.995  10.422   5.901
 3622POPC   C1A48387  25.512  10.714   6.220
 3622POPC   D2A48388  25.533  11.057   6.555
 3622POPC   C3A48389  25.561  10.888   6.992
 3622POPC   C4A48390  25.600  10.426   7.089
 3622POPC   C1B48391  25.022  10.662   6.278
 3622POPC   C2B48392  25.252  10.608   6.668
 3622POPC   C3B48393  25.096  10.468   7.057
 3622POPC   C4B48394  25.013  10.626   7.463
 3623POPC   NC348395  21.856  27.981   5.433
 3623POPC   PO448396  21.889  28.551   5.375
 3623POPC   GL148397  21.996  28.509   5.829
 3623POPC   GL248398  22.045  28.137   5.873
 3623POPC   C1A48399  22.092  28.705   6.279
 3623POPC   D2A48400  22.272  28.801   6.711
 3623POPC   C3A48401  22.154  28.593   7.108
 3623POPC   C4A48402  21.909  28.336   7.404
 3623POPC   C1B48403  22.193  28.207   6.270
 3623POPC   C2B48404  22.026  28.315   6.659
 3623POPC   C3B48405  21.984  28.055   7.011
 3623POPC   C4B48406  21.753  27.848   7.359
 3624POPC   NC348407  12.294  41.674   5.339
 3624POPC   PO448408  11.709  42.103   5.456
 3624POPC   GL148409  11.918  41.737   5.703
 3624POPC   GL248410  12.055  41.351   5.659
 3624POPC   C1A48411  11.973  41.531   6.132
 3624POPC   D2A48412  11.878  41.283   6.486
 3624POPC   C3A48413  11.861  41.372   6.910
 3624POPC   C4A48414  12.020  41.330   7.329
 3624POPC   C1B48415  12.338  41.212   6.064
 3624POPC   C2B48416  12.378  41.427   6.477
 3624POPC   C3B48417  12.380  41.404   6.938
 3624POPC   C4B48418  12.495  41.568   7.352
 3625POPC   NC348419  35.185  24.828   5.090
 3625POPC   PO448420  35.353  24.297   5.429
 3625POPC   GL148421  35.399  24.447   5.856
 3625POPC   GL248422  35.577  24.777   5.885
 3625POPC   C1A48423  35.432  24.359   6.298
 3625POPC   D2A48424  35.179  24.469   6.658
 3625POPC   C3A48425  35.286  24.378   7.071
 3625POPC   C4A48426  35.623  24.573   7.241
 3625POPC   C1B48427  35.302  24.847   6.241
 3625POPC   C2B48428  35.205  25.045   6.596
 3625POPC   C3B48429  35.325  24.902   6.981
 3625POPC   C4B48430  35.080  24.827   7.336
 3626POPC   NC348431  32.737  11.629   5.390
 3626POPC   PO448432  32.281  11.116   5.377
 3626POPC   GL148433  32.172  11.282   5.794
 3626POPC   GL248434  32.479  11.401   5.792
 3626POPC   C1A48435  31.949  11.372   6.188
 3626POPC   D2A48436  31.870  11.603   6.577
 3626POPC   C3A48437  31.929  11.310   6.902
 3626POPC   C4A48438  32.030  11.293   7.303
 3626POPC   C1B48439  32.482  11.233   6.212
 3626POPC   C2B48440  32.360  11.404   6.609
 3626POPC   C3B48441  32.456  11.343   7.038
 3626POPC   C4B48442  32.498  11.220   7.496
 3627POPC   NC348443   6.159  21.509   5.493
 3627POPC   PO448444   5.553  21.077   5.466
 3627POPC   GL148445   5.796  21.277   5.817
 3627POPC   GL248446   5.680  21.619   5.815
 3627POPC   C1A48447   6.067  21.278   6.211
 3627POPC   D2A48448   6.052  21.231   6.672
 3627POPC   C3A48449   5.686  21.017   6.819
 3627POPC   C4A48450   5.546  21.125   7.215
 3627POPC   C1B48451   5.874  21.754   6.240
 3627POPC   C2B48452   5.944  21.735   6.723
 3627POPC   C3B48453   5.921  21.529   7.167
 3627POPC   C4B48454   6.002  21.690   7.633
 3628POPC   NC348455  13.358  25.457   5.568
 3628POPC   PO448456  12.744  25.177   5.533
 3628POPC   GL148457  13.015  25.186   5.891
 3628POPC   GL248458  12.938  24.837   5.921
 3628POPC   C1A48459  12.955  25.446   6.295
 3628POPC   D2A48460  13.009  25.589   6.747
 3628POPC   C3A48461  12.961  25.296   7.073
 3628POPC   C4A48462  12.993  25.197   7.510
 3628POPC   C1B48463  12.650  25.033   6.225
 3628POPC   C2B48464  12.770  24.977   6.645
 3628POPC   C3B48465  12.567  24.970   7.011
 3628POPC   C4B48466  12.448  25.171   7.317
 3629POPC   NC348467  18.951   3.244   5.303
 3629POPC   PO448468  18.992   2.637   5.421
 3629POPC   GL148469  18.894   2.982   5.779
 3629POPC   GL248470  18.560   2.977   5.915
 3629POPC   C1A48471  18.892   2.959   6.285
 3629POPC   D2A48472  19.183   3.058   6.652
 3629POPC   C3A48473  19.114   2.867   7.070
 3629POPC   C4A48474  19.075   2.466   7.273
 3629POPC   C1B48475  18.473   2.632   6.232
 3629POPC   C2B48476  18.568   2.559   6.697
 3629POPC   C3B48477  18.577   2.610   7.152
 3629POPC   C4B48478  18.741   2.911   7.415
 3630POPC   NC348479  24.178  37.945   4.987
 3630POPC   PO448480  23.561  37.971   5.320
 3630POPC   GL148481  23.793  37.739   5.665
 3630POPC   GL248482  23.718  37.419   5.784
 3630POPC   C1A48483  23.780  37.777   6.126
 3630POPC   D2A48484  23.657  37.624   6.513
 3630POPC   C3A48485  23.831  37.700   6.918
 3630POPC   C4A48486  23.943  37.694   7.332
 3630POPC   C1B48487  23.508  37.262   6.199
 3630POPC   C2B48488  23.601  37.149   6.675
 3630POPC   C3B48489  23.651  37.240   7.134
 3630POPC   C4B48490  23.697  37.345   7.610
 3631POPC   NC348491   5.615  11.041   5.654
 3631POPC   PO448492   6.072  10.687   5.282
 3631POPC   GL148493   5.890  10.578   5.716
 3631POPC   GL248494   5.642  10.299   5.777
 3631POPC   C1A48495   5.899  10.484   6.184
 3631POPC   D2A48496   6.135  10.381   6.561
 3631POPC   C3A48497   5.893  10.460   6.894
 3631POPC   C4A48498   5.782  10.762   7.174
 3631POPC   C1B48499   5.618  10.053   6.139
 3631POPC   C2B48500   5.772  10.046   6.538
 3631POPC   C3B48501   5.589  10.021   6.930
 3631POPC   C4B48502   5.602  10.295   7.305
 3632POPC   NC348503  34.915   0.497   5.186
 3632POPC   PO448504  34.260   0.534   5.467
 3632POPC   GL148505  34.484   0.449   5.855
 3632POPC   GL248506  34.802   0.345   5.755
 3632POPC   C1A48507  34.346   0.279   6.293
 3632POPC   D2A48508  34.338   0.285   6.729
 3632POPC   C3A48509  34.523   0.634   6.885
 3632POPC   C4A48510  34.385   0.887   7.195
 3632POPC   C1B48511  34.859   0.378   6.187
 3632POPC   C2B48512  34.894   0.373   6.593
 3632POPC   C3B48513  34.813   0.209   6.970
 3632POPC   C4B48514  34.812   0.487   7.298
 3633POPC   NC348515  35.022  30.898   5.621
 3633POPC   PO448516  35.580  30.924   5.400
 3633POPC   GL148517  35.520  30.824   5.825
 3633POPC   GL248518  35.306  30.575   5.907
 3633POPC   C1A48519  35.388  30.949   6.253
 3633POPC   D2A48520  35.438  31.168   6.645
 3633POPC   C3A48521  35.312  30.857   6.943
 3633POPC   C4A48522  35.446  30.829   7.359
 3633POPC   C1B48523  35.212  30.476   6.340
 3633POPC   C2B48524  35.434  30.347   6.712
 3633POPC   C3B48525  35.308  30.383   7.135
 3633POPC   C4B48526  35.367  30.388   7.578
 3634POPC   NC348527  10.197  38.668   5.513
 3634POPC   PO448528   9.507  38.551   5.547
 3634POPC   GL148529   9.705  38.347   5.820
 3634POPC   GL248530   9.725  38.665   6.007
 3634POPC   C1A48531   9.584  38.232   6.206
 3634POPC   D2A48532   9.779  38.468   6.557
 3634POPC   C3A48533   9.656  38.286   6.966
 3634POPC   C4A48534   9.516  38.524   7.303
 3634POPC   C1B48535  10.100  38.771   6.202
 3634POPC   C2B48536  10.237  38.759   6.643
 3634POPC   C3B48537  10.181  38.397   6.913
 3634POPC   C4B48538  10.005  38.354   7.345
 3635POPC   NC348539  29.466   7.622   5.424
 3635POPC   PO448540  28.839   7.699   5.385
 3635POPC   GL148541  28.893   7.594   5.824
 3635POPC   GL248542  28.851   7.206   5.801
 3635POPC   C1A48543  29.241   7.465   6.133
 3635POPC   D2A48544  29.514   7.301   6.493
 3635POPC   C3A48545  29.370   7.398   6.923
 3635POPC   C4A48546  29.460   7.705   7.273
 3635POPC   C1B48547  28.756   7.287   6.217
 3635POPC   C2B48548  28.928   7.577   6.525
 3635POPC   C3B48549  28.866   7.447   6.952
 3635POPC   C4B48550  28.950   7.606   7.327
 3636POPC   NC348551  39.982  17.271   5.178
 3636POPC   PO448552  39.567  16.687   5.129
 3636POPC   GL148553  39.896  16.799   5.588
 3636POPC   GL248554  39.739  16.663   5.895
 3636POPC   C1A48555  40.075  16.952   6.105
 3636POPC   D2A48556  40.116  16.723   6.520
 3636POPC   C3A48557  40.169  16.882   6.970
 3636POPC   C4A48558  40.315  16.713   7.390
 3636POPC   C1B48559  39.630  16.846   6.331
 3636POPC   C2B48560  39.682  16.827   6.784
 3636POPC   C3B48561  39.697  16.879   7.196
 3636POPC   C4B48562  39.847  16.776   7.581
 3637POPC   NC348563  28.754   5.386   5.692
 3637POPC   PO448564  28.342   4.993   5.269
 3637POPC   GL148565  28.453   4.927   5.749
 3637POPC   GL248566  28.131   4.992   5.880
 3637POPC   C1A48567  28.430   4.913   6.271
 3637POPC   D2A48568  28.325   5.169   6.669
 3637POPC   C3A48569  28.473   5.039   7.110
 3637POPC   C4A48570  28.568   5.314   7.520
 3637POPC   C1B48571  27.953   5.228   6.291
 3637POPC   C2B48572  27.856   5.409   6.687
 3637POPC   C3B48573  28.000   5.212   7.066
 3637POPC   C4B48574  28.131   5.067   7.490
 3638POPC   NC348575  20.947  22.606   5.323
 3638POPC   PO448576  20.509  23.123   5.278
 3638POPC   GL148577  20.744  22.981   5.694
 3638POPC   GL248578  20.494  22.809   5.889
 3638POPC   C1A48579  20.863  22.939   6.215
 3638POPC   D2A48580  20.962  22.785   6.648
 3638POPC   C3A48581  20.718  22.944   7.034
 3638POPC   C4A48582  20.727  23.075   7.503
 3638POPC   C1B48583  20.380  22.934   6.347
 3638POPC   C2B48584  20.487  22.624   6.663
 3638POPC   C3B48585  20.325  22.453   7.056
 3638POPC   C4B48586  20.460  22.661   7.398
 3639POPC   NC348587  39.715   8.053   5.451
 3639POPC   PO448588  40.354   8.070   5.472
 3639POPC   GL148589  40.059   8.090   5.829
 3639POPC   GL248590  39.867   7.792   5.892
 3639POPC   C1A48591  39.759   8.251   6.165
 3639POPC   D2A48592  39.944   8.343   6.584
 3639POPC   C3A48593  39.809   8.212   6.988
 3639POPC   C4A48594  39.674   8.492   7.327
 3639POPC   C1B48595  40.083   7.887   6.317
 3639POPC   C2B48596  40.214   7.917   6.768
 3639POPC   C3B48597  40.284   8.171   7.179
 3639POPC   C4B48598  40.190   8.294   7.620
 3640POPC   NC348599  18.138  39.652   5.442
 3640POPC   PO448600  18.507  39.070   5.399
 3640POPC   GL148601  18.492  39.365   5.742
 3640POPC   GL248602  18.213  39.302   5.852
 3640POPC   C1A48603  18.546  39.370   6.230
 3640POPC   D2A48604  18.516  39.167   6.665
 3640POPC   C3A48605  18.471  39.412   7.046
 3640POPC   C4A48606  18.232  39.435   7.448
 3640POPC   C1B48607  18.028  39.429   6.210
 3640POPC   C2B48608  18.133  39.523   6.606
 3640POPC   C3B48609  17.952  39.470   7.004
 3640POPC   C4B48610  17.754  39.648   7.345
 3641POPC   NC348611  12.498  11.734   5.479
 3641POPC   PO448612  13.229  11.749   5.478
 3641POPC   GL148613  13.022  12.051   5.794
 3641POPC   GL248614  12.696  12.010   5.872
 3641POPC   C1A48615  12.977  12.259   6.220
 3641POPC   D2A48616  13.052  12.090   6.626
 3641POPC   C3A48617  12.863  12.303   6.958
 3641POPC   C4A48618  12.811  12.066   7.260
 3641POPC   C1B48619  12.599  11.931   6.309
 3641POPC   C2B48620  12.612  11.871   6.764
 3641POPC   C3B48621  12.443  11.726   7.159
 3641POPC   C4B48622  12.561  11.745   7.589
 3642POPC   NC348623   2.109  10.538   5.158
 3642POPC   PO448624   1.854  10.949   5.560
 3642POPC   GL148625   2.019  10.649   5.856
 3642POPC   GL248626   2.307  10.458   5.696
 3642POPC   C1A48627   1.962  10.672   6.307
 3642POPC   D2A48628   1.967  10.866   6.727
 3642POPC   C3A48629   1.880  10.642   7.091
 3642POPC   C4A48630   1.683  10.278   7.218
 3642POPC   C1B48631   2.408  10.427   6.152
 3642POPC   C2B48632   2.308  10.414   6.616
 3642POPC   C3B48633   2.333  10.405   7.085
 3642POPC   C4B48634   2.248  10.638   7.483
 3643POPC   NC348635  30.288  24.334   5.509
 3643POPC   PO448636  29.706  24.775   5.464
 3643POPC   GL148637  30.005  24.737   5.802
 3643POPC   GL248638  29.983  24.403   5.944
 3643POPC   C1A48639  29.879  24.897   6.187
 3643POPC   D2A48640  29.629  24.748   6.538
 3643POPC   C3A48641  29.789  24.639   6.929
 3643POPC   C4A48642  29.880  24.929   7.256
 3643POPC   C1B48643  30.109  24.479   6.380
 3643POPC   C2B48644  30.072  24.230   6.727
 3643POPC   C3B48645  30.265  24.158   7.083
 3643POPC   C4B48646  29.972  24.307   7.302
 3644POPC   NC348647   8.718  36.688   5.370
 3644POPC   PO448648   9.281  37.025   5.420
 3644POPC   GL148649   8.944  37.007   5.736
 3644POPC   GL248650   8.972  36.688   5.810
 3644POPC   C1A48651   8.868  37.043   6.176
 3644POPC   D2A48652   9.084  36.966   6.560
 3644POPC   C3A48653   8.859  36.944   6.898
 3644POPC   C4A48654   8.867  37.111   7.239
 3644POPC   C1B48655   8.890  36.524   6.192
 3644POPC   C2B48656   8.658  36.642   6.536
 3644POPC   C3B48657   8.685  36.468   6.926
 3644POPC   C4B48658   8.792  36.569   7.333
 3645POPC   NC348659  39.729  30.336   5.389
 3645POPC   PO448660  40.332  30.757   5.351
 3645POPC   GL148661  40.053  30.700   5.760
 3645POPC   GL248662  39.668  30.625   5.813
 3645POPC   C1A48663  39.938  30.783   6.214
 3645POPC   D2A48664  40.083  30.654   6.611
 3645POPC   C3A48665  40.001  30.875   6.994
 3645POPC   C4A48666  40.279  31.066   7.271
 3645POPC   C1B48667  39.590  30.405   6.200
 3645POPC   C2B48668  39.808  30.219   6.567
 3645POPC   C3B48669  39.977  30.342   7.000
 3645POPC   C4B48670  39.806  30.339   7.405
 3646POPC   NC348671   7.004  17.597   5.250
 3646POPC   PO448672   6.352  17.540   5.320
 3646POPC   GL148673   6.624  17.564   5.698
 3646POPC   GL248674   6.835  17.265   5.681
 3646POPC   C1A48675   6.541  17.747   6.151
 3646POPC   D2A48676   6.531  17.950   6.590
 3646POPC   C3A48677   6.569  17.671   6.993
 3646POPC   C4A48678   6.987  17.622   7.191
 3646POPC   C1B48679   6.632  17.254   6.109
 3646POPC   C2B48680   6.693  17.418   6.538
 3646POPC   C3B48681   6.863  17.205   6.907
 3646POPC   C4B48682   6.665  17.137   7.304
 3647POPC   NC348683   2.022  40.725   5.392
 3647POPC   PO448684   2.579  40.512   5.548
 3647POPC   GL148685   2.266  40.609   5.839
 3647POPC   GL248686   1.896  40.529   5.848
 3647POPC   C1A48687   2.159  40.832   6.200
 3647POPC   D2A48688   2.270  40.851   6.612
 3647POPC   C3A48689   1.906  40.854   6.867
 3647POPC   C4A48690   1.930  40.983   7.281
 3647POPC   C1B48691   2.065  40.300   6.195
 3647POPC   C2B48692   2.290  40.330   6.568
 3647POPC   C3B48693   2.155  40.426   6.967
 3647POPC   C4B48694   1.728  40.493   7.192
 3648POPC   NC348695   9.288  18.785   5.600
 3648POPC   PO448696   8.797  18.973   5.156
 3648POPC   GL148697   8.853  19.078   5.629
 3648POPC   GL248698   9.058  19.350   5.826
 3648POPC   C1A48699   8.853  18.996   6.106
 3648POPC   D2A48700   8.851  19.257   6.482
 3648POPC   C3A48701   8.820  19.029   6.883
 3648POPC   C4A48702   8.641  18.987   7.276
 3648POPC   C1B48703   9.321  19.196   6.221
 3648POPC   C2B48704   9.288  19.102   6.703
 3648POPC   C3B48705   9.215  19.174   7.162
 3648POPC   C4B48706   9.390  19.376   7.509
 3649POPC   NC348707  37.841  35.874   5.294
 3649POPC   PO448708  37.872  36.549   5.385
 3649POPC   GL148709  37.718  36.178   5.679
 3649POPC   GL248710  37.999  35.935   5.789
 3649POPC   C1A48711  37.595  35.948   6.093
 3649POPC   D2A48712  37.342  36.088   6.440
 3649POPC   C3A48713  37.442  36.044   6.883
 3649POPC   C4A48714  37.365  36.358   7.192
 3649POPC   C1B48715  37.955  36.304   6.112
 3649POPC   C2B48716  38.048  36.424   6.568
 3649POPC   C3B48717  37.925  36.294   7.001
 3649POPC   C4B48718  37.819  36.434   7.416
 3650POPC   NC348719  18.186  20.471   5.280
 3650POPC   PO448720  18.704  20.771   5.592
 3650POPC   GL148721  18.372  20.536   5.795
 3650POPC   GL248722  18.005  20.611   5.733
 3650POPC   C1A48723  18.458  20.474   6.229
 3650POPC   D2A48724  18.545  20.721   6.584
 3650POPC   C3A48725  18.489  20.413   6.880
 3650POPC   C4A48726  18.481  20.530   7.267
 3650POPC   C1B48727  17.948  20.503   6.157
 3650POPC   C2B48728  18.070  20.452   6.589
 3650POPC   C3B48729  18.021  20.551   7.021
 3650POPC   C4B48730  17.815  20.363   7.359
 3651POPC   NC348731   1.561  11.607   5.176
 3651POPC   PO448732   1.048  11.469   5.522
 3651POPC   GL148733   1.165  11.296   5.882
 3651POPC   GL248734   1.009  10.977   5.864
 3651POPC   C1A48735   1.095  11.270   6.307
 3651POPC   D2A48736   1.317  11.432   6.633
 3651POPC   C3A48737   1.107  11.357   6.980
 3651POPC   C4A48738   1.309  11.251   7.334
 3651POPC   C1B48739   1.030  10.765   6.275
 3651POPC   C2B48740   0.997  10.928   6.707
 3651POPC   C3B48741   0.978  10.884   7.154
 3651POPC   C4B48742   1.021  10.943   7.619
 3652POPC   NC348743  33.404  11.135   5.616
 3652POPC   PO448744  33.347  10.602   5.174
 3652POPC   GL148745  33.227  10.654   5.641
 3652POPC   GL248746  32.901  10.796   5.803
 3652POPC   C1A48747  33.266  10.667   6.123
 3652POPC   D2A48748  33.132  10.509   6.544
 3652POPC   C3A48749  33.193  10.713   6.962
 3652POPC   C4A48750  33.022  10.707   7.398
 3652POPC   C1B48751  32.696  10.768   6.244
 3652POPC   C2B48752  32.699  10.744   6.730
 3652POPC   C3B48753  32.799  10.388   7.047
 3652POPC   C4B48754  32.712  10.336   7.515
 3653POPC   NC348755  32.653  10.846   5.360
 3653POPC   PO448756  32.606  10.177   5.265
 3653POPC   GL148757  32.333  10.447   5.575
 3653POPC   GL248758  32.372  10.789   5.776
 3653POPC   C1A48759  32.204  10.367   6.023
 3653POPC   D2A48760  32.353  10.435   6.455
 3653POPC   C3A48761  32.070  10.424   6.786
 3653POPC   C4A48762  32.005  10.477   7.223
 3653POPC   C1B48763  32.121  10.869   6.141
 3653POPC   C2B48764  32.201  10.928   6.583
 3653POPC   C3B48765  32.228  10.893   7.015
 3653POPC   C4B48766  32.538  10.767   7.244
 3654POPC   NC348767   2.840  40.887   5.619
 3654POPC   PO448768   3.349  40.449   5.583
 3654POPC   GL148769   2.992  40.527   5.917
 3654POPC   GL248770   2.940  40.877   6.106
 3654POPC   C1A48771   2.727  40.465   6.295
 3654POPC   D2A48772   2.967  40.722   6.595
 3654POPC   C3A48773   2.731  41.022   6.801
 3654POPC   C4A48774   2.421  40.857   7.095
 3654POPC   C1B48775   3.288  41.133   6.266
 3654POPC   C2B48776   3.287  41.288   6.671
 3654POPC   C3B48777   3.093  41.264   7.106
 3654POPC   C4B48778   2.912  41.057   7.517
 3655POPC   NC348779  37.549  28.957   5.132
 3655POPC   PO448780  37.825  28.428   5.273
 3655POPC   GL148781  37.929  28.345   5.754
 3655POPC   GL248782  37.604  28.487   5.810
 3655POPC   C1A48783  37.818  28.237   6.193
 3655POPC   D2A48784  37.582  28.416   6.535
 3655POPC   C3A48785  37.768  28.287   6.936
 3655POPC   C4A48786  37.996  28.323   7.332
 3655POPC   C1B48787  37.299  28.629   6.135
 3655POPC   C2B48788  37.245  28.820   6.548
 3655POPC   C3B48789  37.391  28.663   6.959
 3655POPC   C4B48790  37.249  28.610   7.380
 3656POPC   NC348791   2.068   0.005   5.589
 3656POPC   PO448792   2.196   0.614   5.321
 3656POPC   GL148793   1.956   0.543   5.665
 3656POPC   GL248794   2.275   0.500   5.836
 3656POPC   C1A48795   1.797   0.539   6.091
 3656POPC   D2A48796   1.919   0.552   6.536
 3656POPC   C3A48797   1.785   0.384   6.930
 3656POPC   C4A48798   1.802   0.559   7.274
 3656POPC   C1B48799   2.288   0.339   6.250
 3656POPC   C2B48800   2.324   0.105   6.641
 3656POPC   C3B48801   2.137   0.011   7.014
 3656POPC   C4B48802   2.254   0.338   7.298
 3657POPC   NC348803  19.640   1.583   5.328
 3657POPC   PO448804  20.085   1.074   5.340
 3657POPC   GL148805  19.840   1.077   5.736
 3657POPC   GL248806  19.768   1.408   5.810
 3657POPC   C1A48807  19.788   0.908   6.189
 3657POPC   D2A48808  19.632   0.977   6.644
 3657POPC   C3A48809  19.878   0.976   7.046
 3657POPC   C4A48810  20.057   0.908   7.490
 3657POPC   C1B48811  19.522   1.355   6.203
 3657POPC   C2B48812  19.424   1.472   6.626
 3657POPC   C3B48813  19.591   1.429   7.044
 3657POPC   C4B48814  19.997   1.425   7.283
 3658POPC   NC348815   4.920  12.909   5.356
 3658POPC   PO448816   5.432  12.856   5.703
 3658POPC   GL148817   5.043  12.630   5.815
 3658POPC   GL248818   4.816  12.938   5.861
 3658POPC   C1A48819   5.031  12.465   6.257
 3658POPC   D2A48820   5.074  12.879   6.505
 3658POPC   C3A48821   5.001  12.941   6.949
 3658POPC   C4A48822   5.129  13.230   7.254
 3658POPC   C1B48823   4.632  12.755   6.227
 3658POPC   C2B48824   4.681  12.598   6.659
 3658POPC   C3B48825   4.575  12.696   7.078
 3658POPC   C4B48826   4.798  12.768   7.482
 3659POPC   NC348827  41.046   4.790   5.483
 3659POPC   PO448828  40.959   5.477   5.430
 3659POPC   GL148829  40.821   5.184   5.805
 3659POPC   GL248830  40.637   4.865   5.848
 3659POPC   C1A48831  40.737   5.168   6.284
 3659POPC   D2A48832  40.466   5.286   6.658
 3659POPC   C3A48833  40.671   5.163   7.047
 3659POPC   C4A48834  40.957   5.332   7.371
 3659POPC   C1B48835  40.980   4.743   6.165
 3659POPC   C2B48836  41.071   4.761   6.637
 3659POPC   C3B48837  41.077   4.869   7.112
 3659POPC   C4B48838  40.799   4.846   7.485
 3660POPC   NC348839  41.168  18.555   5.510
 3660POPC   PO448840  41.714  18.111   5.578
 3660POPC   GL148841  41.499  18.353   5.860
 3660POPC   GL248842  41.181  18.187   5.911
 3660POPC   C1A48843  41.567  18.418   6.274
 3660POPC   D2A48844  41.308  18.205   6.542
 3660POPC   C3A48845  41.529  18.133   6.894
 3660POPC   C4A48846  41.792  18.355   7.130
 3660POPC   C1B48847  41.065  18.564   6.186
 3660POPC   C2B48848  41.057  18.768   6.588
 3660POPC   C3B48849  41.270  18.582   6.931
 3660POPC   C4B48850  41.363  18.438   7.362
 3661POPC   NC348851  14.770  44.066   5.612
 3661POPC   PO448852  14.415  44.614   5.311
 3661POPC   GL148853  14.524  44.547   5.760
 3661POPC   GL248854  14.691  44.854   5.813
 3661POPC   C1A48855  14.346  44.396   6.199
 3661POPC   D2A48856  14.054  44.521   6.568
 3661POPC   C3A48857  14.234  44.702   6.951
 3661POPC   C4A48858  14.619  44.571   7.146
 3661POPC   C1B48859  14.785  44.686   6.237
 3661POPC   C2B48860  14.880  44.711   6.709
 3661POPC   C3B48861  14.841   0.015   7.090
 3661POPC   C4B48862  14.821   0.160   7.584
 3662POPC   NC348863  18.869  36.604   5.219
 3662POPC   PO448864  19.309  37.047   5.540
 3662POPC   GL148865  19.067  36.937   5.866
 3662POPC   GL248866  18.696  37.024   5.793
 3662POPC   C1A48867  19.271  36.965   6.288
 3662POPC   D2A48868  19.367  37.227   6.646
 3662POPC   C3A48869  19.303  36.996   7.055
 3662POPC   C4A48870  19.125  36.828   7.442
 3662POPC   C1B48871  18.771  37.090   6.250
 3662POPC   C2B48872  18.918  36.960   6.682
 3662POPC   C3B48873  18.764  37.009   7.115
 3662POPC   C4B48874  18.587  36.701   7.386
 3663POPC   NC348875   1.744  44.070   5.444
 3663POPC   PO448876   2.264  43.722   5.302
 3663POPC   GL148877   2.065  43.950   5.782
 3663POPC   GL248878   2.286  44.198   5.816
 3663POPC   C1A48879   1.936  43.750   6.240
 3663POPC   D2A48880   2.131  43.619   6.658
 3663POPC   C3A48881   1.966  43.730   7.077
 3663POPC   C4A48882   1.974  43.659   7.548
 3663POPC   C1B48883   2.097  44.230   6.216
 3663POPC   C2B48884   2.276  44.242   6.619
 3663POPC   C3B48885   2.336  44.096   7.021
 3663POPC   C4B48886   2.091  44.125   7.377
 3664POPC   NC348887  37.353   2.950   5.374
 3664POPC   PO448888  37.745   2.371   5.405
 3664POPC   GL148889  37.734   2.721   5.713
 3664POPC   GL248890  37.417   2.703   5.836
 3664POPC   C1A48891  37.796   2.950   6.143
 3664POPC   D2A48892  37.939   2.707   6.512
 3664POPC   C3A48893  38.014   2.866   6.932
 3664POPC   C4A48894  37.869   2.871   7.356
 3664POPC   C1B48895  37.509   2.533   6.248
 3664POPC   C2B48896  37.450   2.711   6.655
 3664POPC   C3B48897  37.568   2.583   7.070
 3664POPC   C4B48898  37.480   2.611   7.532
 3665POPC   NC348899  17.917  10.517   5.402
 3665POPC   PO448900  18.517  10.430   5.375
 3665POPC   GL148901  18.303  10.597   5.773
 3665POPC   GL248902  18.036  10.864   5.763
 3665POPC   C1A48903  18.264  10.390   6.184
 3665POPC   D2A48904  18.349  10.215   6.574
 3665POPC   C3A48905  18.144  10.292   6.978
 3665POPC   C4A48906  18.272  10.573   7.276
 3665POPC   C1B48907  18.170  10.891   6.186
 3665POPC   C2B48908  18.098  11.099   6.579
 3665POPC   C3B48909  18.258  10.952   6.937
 3665POPC   C4B48910  18.349  11.078   7.330
 3666POPC   NC348911  37.541  11.873   5.466
 3666POPC   PO448912  37.143  12.401   5.478
 3666POPC   GL148913  37.551  12.319   5.787
 3666POPC   GL248914  37.752  12.013   5.904
 3666POPC   C1A48915  37.894  12.447   6.136
 3666POPC   D2A48916  38.070  12.445   6.593
 3666POPC   C3A48917  37.768  12.291   6.883
 3666POPC   C4A48918  37.587  12.317   7.297
 3666POPC   C1B48919  37.750  11.774   6.303
 3666POPC   C2B48920  37.632  11.809   6.748
 3666POPC   C3B48921  37.703  11.834   7.163
 3666POPC   C4B48922  37.398  11.849   7.464
 3667POPC   NC348923  30.585  40.996   5.689
 3667POPC   PO448924  30.723  41.643   5.391
 3667POPC   GL148925  30.653  41.505   5.787
 3667POPC   GL248926  30.369  41.714   5.881
 3667POPC   C1A48927  30.704  41.478   6.237
 3667POPC   D2A48928  30.545  41.582   6.644
 3667POPC   C3A48929  30.830  41.550   6.976
 3667POPC   C4A48930  30.980  41.691   7.357
 3667POPC   C1B48931  30.174  41.570   6.283
 3667POPC   C2B48932  30.051  41.632   6.739
 3667POPC   C3B48933  30.327  41.762   7.090
 3667POPC   C4B48934  30.469  41.494   7.411
 3668POPC   NC348935   8.422  18.120   5.569
 3668POPC   PO448936   7.994  18.657   5.346
 3668POPC   GL148937   8.041  18.428   5.789
 3668POPC   GL248938   8.360  18.396   5.979
 3668POPC   C1A48939   7.977  18.154   6.182
 3668POPC   D2A48940   8.287  18.212   6.535
 3668POPC   C3A48941   8.086  18.210   6.940
 3668POPC   C4A48942   8.167  17.952   7.272
 3668POPC   C1B48943   8.575  18.607   6.296
 3668POPC   C2B48944   8.584  18.609   6.715
 3668POPC   C3B48945   8.358  18.627   7.044
 3668POPC   C4B48946   8.533  18.458   7.387
 3669POPC   NC348947  16.321  24.862   5.348
 3669POPC   PO448948  17.051  24.850   5.436
 3669POPC   GL148949  16.692  24.727   5.706
 3669POPC   GL248950  16.715  24.384   5.729
 3669POPC   C1A48951  16.510  24.689   6.134
 3669POPC   D2A48952  16.660  24.837   6.518
 3669POPC   C3A48953  16.591  24.575   6.867
 3669POPC   C4A48954  16.717  24.757   7.253
 3669POPC   C1B48955  17.003  24.512   6.084
 3669POPC   C2B48956  17.037  24.278   6.457
 3669POPC   C3B48957  17.047  24.338   6.881
 3669POPC   C4B48958  16.781  24.239   7.228
 3670POPC   NC348959  14.995   1.815   5.403
 3670POPC   PO448960  15.597   2.292   5.450
 3670POPC   GL148961  15.573   2.134   5.837
 3670POPC   GL248962  15.475   1.785   5.777
 3670POPC   C1A48963  15.351   2.155   6.238
 3670POPC   D2A48964  15.282   2.298   6.650
 3670POPC   C3A48965  15.221   2.023   6.978
 3670POPC   C4A48966  15.353   2.056   7.418
 3670POPC   C1B48967  15.667   1.752   6.193
 3670POPC   C2B48968  15.453   1.692   6.601
 3670POPC   C3B48969  15.585   1.676   7.036
 3670POPC   C4B48970  15.357   1.520   7.409
 3671POPC   NC348971  26.604  33.343   5.273
 3671POPC   PO448972  27.206  33.001   5.368
 3671POPC   GL148973  26.896  32.908   5.693
 3671POPC   GL248974  26.916  33.252   5.765
 3671POPC   C1A48975  26.669  32.972   6.139
 3671POPC   D2A48976  26.776  33.103   6.605
 3671POPC   C3A48977  26.630  32.887   7.019
 3671POPC   C4A48978  26.719  32.787   7.496
 3671POPC   C1B48979  27.173  33.311   6.149
 3671POPC   C2B48980  27.277  33.283   6.594
 3671POPC   C3B48981  27.143  33.184   7.021
 3671POPC   C4B48982  27.050  33.460   7.353
 3672POPC   NC348983  30.855  41.231   5.234
 3672POPC   PO448984  31.037  40.645   5.240
 3672POPC   GL148985  30.936  40.648   5.755
 3672POPC   GL248986  30.662  40.420   5.948
 3672POPC   C1A48987  30.982  40.713   6.221
 3672POPC   D2A48988  30.829  40.569   6.659
 3672POPC   C3A48989  30.702  40.958   6.899
 3672POPC   C4A48990  30.813  41.148   7.303
 3672POPC   C1B48991  30.457  40.643   6.291
 3672POPC   C2B48992  30.308  40.646   6.730
 3672POPC   C3B48993  30.493  40.517   7.121
 3672POPC   C4B48994  30.360  40.582   7.536
 3673POPC   NC348995   7.722  11.951   5.491
 3673POPC   PO448996   8.350  11.978   5.358
 3673POPC   GL148997   8.157  12.214   5.738
 3673POPC   GL248998   7.941  12.016   5.962
 3673POPC   C1A48999   8.176  12.421   6.175
 3673POPC   D2A49000   8.242  12.141   6.512
 3673POPC   C3A49001   8.078  12.162   6.913
 3673POPC   C4A49002   8.347  12.079   7.241
 3673POPC   C1B49003   7.936  11.738   6.343
 3673POPC   C2B49004   7.809  11.756   6.777
 3673POPC   C3B49005   7.963  11.736   7.203
 3673POPC   C4B49006   7.958  12.010   7.584
 3674POPC   NC349007  39.012  37.327   5.454
 3674POPC   PO449008  39.153  38.009   5.386
 3674POPC   GL149009  39.098  37.749   5.743
 3674POPC   GL249010  38.792  37.921   5.827
 3674POPC   C1A49011  39.213  37.580   6.169
 3674POPC   D2A49012  39.163  37.463   6.651
 3674POPC   C3A49013  39.433  37.516   7.029
 3674POPC   C4A49014  39.540  37.824   7.306
 3674POPC   C1B49015  38.756  37.845   6.261
 3674POPC   C2B49016  38.758  37.797   6.706
 3674POPC   C3B49017  39.017  37.831   7.050
 3674POPC   C4B49018  39.087  37.700   7.461
 3675POPC   NC349019  15.038   8.508   5.069
 3675POPC   PO449020  15.235   9.052   5.336
 3675POPC   GL149021  15.231   9.237   5.753
 3675POPC   GL249022  15.131   8.941   5.933
 3675POPC   C1A49023  15.450   9.269   6.162
 3675POPC   D2A49024  15.366   9.006   6.524
 3675POPC   C3A49025  15.120   9.097   6.878
 3675POPC   C4A49026  15.241   8.981   7.302
 3675POPC   C1B49027  15.074   8.626   6.255
 3675POPC   C2B49028  14.861   8.600   6.665
 3675POPC   C3B49029  14.850   8.726   7.124
 3675POPC   C4B49030  14.925   8.666   7.608
 3676POPC   NC349031  32.237  43.504   5.421
 3676POPC   PO449032  32.121  44.170   5.440
 3676POPC   GL149033  32.189  43.863   5.793
 3676POPC   GL249034  31.918  43.595   5.819
 3676POPC   C1A49035  32.387  43.704   6.200
 3676POPC   D2A49036  32.489  43.821   6.637
 3676POPC   C3A49037  32.368  44.024   7.019
 3676POPC   C4A49038  32.563  44.032   7.418
 3676POPC   C1B49039  31.899  43.820   6.218
 3676POPC   C2B49040  31.966  43.867   6.646
 3676POPC   C3B49041  32.002  43.682   7.013
 3676POPC   C4B49042  32.061  43.849   7.444
 3677POPC   NC349043  25.407  17.374   5.281
 3677POPC   PO449044  25.982  17.189   5.365
 3677POPC   GL149045  25.928  17.382   5.771
 3677POPC   GL249046  25.593  17.231   5.761
 3677POPC   C1A49047  26.062  17.254   6.213
 3677POPC   D2A49048  26.213  17.398   6.649
 3677POPC   C3A49049  26.161  17.204   7.052
 3677POPC   C4A49050  26.018  17.282   7.472
 3677POPC   C1B49051  25.582  17.434   6.200
 3677POPC   C2B49052  25.723  17.552   6.647
 3677POPC   C3B49053  25.681  17.457   7.100
 3677POPC   C4B49054  25.507  17.366   7.533
 3678POPC   NC349055  13.438  33.190   5.441
 3678POPC   PO449056  13.421  32.521   5.390
 3678POPC   GL149057  13.394  32.689   5.846
 3678POPC   GL249058  13.729  32.813   5.864
 3678POPC   C1A49059  13.477  32.943   6.283
 3678POPC   D2A49060  13.755  33.036   6.658
 3678POPC   C3A49061  13.589  33.124   7.097
 3678POPC   C4A49062  13.297  33.040   7.472
 3678POPC   C1B49063  13.823  32.550   6.218
 3678POPC   C2B49064  13.612  32.531   6.612
 3678POPC   C3B49065  13.789  32.656   7.012
 3678POPC   C4B49066  13.669  32.715   7.424
 3679POPC   NC349067  18.925  10.650   5.439
 3679POPC   PO449068  19.470  10.339   5.662
 3679POPC   GL149069  19.254  10.629   5.871
 3679POPC   GL249070  18.942  10.403   5.897
 3679POPC   C1A49071  19.195  10.622   6.306
 3679POPC   D2A49072  18.891  10.354   6.525
 3679POPC   C3A49073  19.119  10.222   6.875
 3679POPC   C4A49074  19.101  10.421   7.256
 3679POPC   C1B49075  18.692  10.678   6.162
 3679POPC   C2B49076  18.485  10.703   6.554
 3679POPC   C3B49077  18.670  10.598   6.958
 3679POPC   C4B49078  18.763  10.803   7.358
 3680POPC   NC349079  40.828   0.009   5.216
 3680POPC   PO449080  40.554  44.413   5.409
 3680POPC   GL149081  40.645  44.767   5.662
 3680POPC   GL249082  40.401  44.918   5.903
 3680POPC   C1A49083  40.856  44.723   6.035
 3680POPC   D2A49084  40.761  44.779   6.448
 3680POPC   C3A49085  41.036  44.914   6.776
 3680POPC   C4A49086  41.206  44.793   7.160
 3680POPC   C1B49087  40.406  44.495   6.135
 3680POPC   C2B49088  40.419  44.409   6.598
 3680POPC   C3B49089  40.550  44.745   6.908
 3680POPC   C4B49090  40.543   0.091   7.162
 3681POPC   NC349091   4.257  39.706   5.340
 3681POPC   PO449092   4.256  40.382   5.317
 3681POPC   GL149093   4.369  40.123   5.669
 3681POPC   GL249094   4.213  39.858   5.834
 3681POPC   C1A49095   4.407  40.237   6.111
 3681POPC   D2A49096   4.550  39.980   6.421
 3681POPC   C3A49097   4.504  40.093   6.846
 3681POPC   C4A49098   4.647  40.310   7.203
 3681POPC   C1B49099   4.035  39.890   6.239
 3681POPC   C2B49100   4.151  39.720   6.639
 3681POPC   C3B49101   4.364  39.606   7.008
 3681POPC   C4B49102   4.312  39.922   7.327
 3682POPC   NC349103   4.006  32.151   5.315
 3682POPC   PO449104   3.441  32.596   5.432
 3682POPC   GL149105   3.634  32.377   5.769
 3682POPC   GL249106   3.936  32.470   5.700
 3682POPC   C1A49107   3.563  32.295   6.209
 3682POPC   D2A49108   3.479  32.086   6.611
 3682POPC   C3A49109   3.744  32.012   6.963
 3682POPC   C4A49110   3.809  32.213   7.366
 3682POPC   C1B49111   4.069  32.313   6.117
 3682POPC   C2B49112   3.992  32.217   6.548
 3682POPC   C3B49113   4.108  32.369   6.959
 3682POPC   C4B49114   3.970  32.694   7.234
 3683POPC   NC349115  31.029  33.750   5.151
 3683POPC   PO449116  30.367  34.034   5.248
 3683POPC   GL149117  30.535  33.832   5.617
 3683POPC   GL249118  30.908  33.792   5.633
 3683POPC   C1A49119  30.658  33.800   6.071
 3683POPC   D2A49120  30.709  33.907   6.494
 3683POPC   C3A49121  30.605  33.616   6.813
 3683POPC   C4A49122  30.691  33.804   7.205
 3683POPC   C1B49123  31.137  33.636   6.021
 3683POPC   C2B49124  31.102  33.587   6.462
 3683POPC   C3B49125  31.084  33.772   6.859
 3683POPC   C4B49126  31.171  33.672   7.285
 3684POPC   NC349127   0.758  30.024   5.329
 3684POPC   PO449128   1.383  29.808   5.358
 3684POPC   GL149129   1.104  29.881   5.742
 3684POPC   GL249130   0.902  30.223   5.776
 3684POPC   C1A49131   1.250  29.869   6.196
 3684POPC   D2A49132   1.325  30.088   6.603
 3684POPC   C3A49133   1.321  29.891   7.008
 3684POPC   C4A49134   1.041  29.744   7.306
 3684POPC   C1B49135   0.805  30.138   6.211
 3684POPC   C2B49136   0.865  30.337   6.620
 3684POPC   C3B49137   0.863  30.144   7.042
 3684POPC   C4B49138   0.923  30.200   7.520
 3685POPC   NC349139  44.587   0.990   5.159
 3685POPC   PO449140  44.812   1.584   5.332
 3685POPC   GL149141  44.620   1.314   5.684
 3685POPC   GL249142  44.544   0.934   5.669
 3685POPC   C1A49143  44.525   1.421   6.131
 3685POPC   D2A49144  44.389   1.293   6.530
 3685POPC   C3A49145  44.745   1.207   6.788
 3685POPC   C4A49146  44.612   1.222   7.202
 3685POPC   C1B49147  44.390   0.931   6.120
 3685POPC   C2B49148  44.528   0.772   6.559
 3685POPC   C3B49149  44.604   0.729   7.005
 3685POPC   C4B49150  44.728   0.817   7.467
 3686POPC   NC349151  43.786  41.992   5.768
 3686POPC   PO449152  44.107  42.573   5.482
 3686POPC   GL149153  43.959  42.470   5.878
 3686POPC   GL249154  43.595  42.519   5.812
 3686POPC   C1A49155  44.021  42.286   6.326
 3686POPC   D2A49156  44.009  42.109   6.763
 3686POPC   C3A49157  44.172  42.294   7.177
 3686POPC   C4A49158  44.117  42.595   7.529
 3686POPC   C1B49159  43.495  42.314   6.233
 3686POPC   C2B49160  43.475  42.183   6.650
 3686POPC   C3B49161  43.575  42.201   7.068
 3686POPC   C4B49162  43.655  42.389   7.462
 3687POPC   NC349163  11.518  25.259   5.103
 3687POPC   PO449164  11.013  25.561   5.416
 3687POPC   GL149165  11.124  25.218   5.676
 3687POPC   GL249166  11.490  25.184   5.719
 3687POPC   C1A49167  11.035  25.109   6.098
 3687POPC   D2A49168  11.214  25.104   6.522
 3687POPC   C3A49169  10.956  25.005   6.874
 3687POPC   C4A49170  11.020  25.129   7.278
 3687POPC   C1B49171  11.597  25.117   6.166
 3687POPC   C2B49172  11.729  25.077   6.618
 3687POPC   C3B49173  11.464  25.005   6.993
 3687POPC   C4B49174  11.478  25.082   7.448
 3688POPC   NC349175  26.669  44.857   5.482
 3688POPC   PO449176  27.294  44.800   5.190
 3688POPC   GL149177  27.076  44.593   5.678
 3688POPC   GL249178  26.739  44.423   5.803
 3688POPC   C1A49179  26.860  44.762   6.135
 3688POPC   D2A49180  26.795  44.701   6.572
 3688POPC   C3A49181  26.809   0.058   6.842
 3688POPC   C4A49182  26.857  44.900   7.275
 3688POPC   C1B49183  26.454  44.468   6.238
 3688POPC   C2B49184  26.379  44.471   6.726
 3688POPC   C3B49185  26.614  44.471   7.148
 3688POPC   C4B49186  26.652  44.235   7.556
 3689POPC   NC349187   0.597  27.202   5.491
 3689POPC   PO449188   0.360  27.743   5.268
 3689POPC   GL149189   0.489  27.716   5.697
 3689POPC   GL249190   0.860  27.684   5.731
 3689POPC   C1A49191   0.366  27.480   6.098
 3689POPC   D2A49192   0.079  27.566   6.470
 3689POPC   C3A49193   0.217  27.521   6.889
 3689POPC   C4A49194   0.307  27.767   7.233
 3689POPC   C1B49195   0.703  27.864   6.139
 3689POPC   C2B49196   0.587  27.671   6.531
 3689POPC   C3B49197   0.719  27.642   6.930
 3689POPC   C4B49198   0.772  27.478   7.308
 3690POPC   NC349199   3.259  22.478   5.442
 3690POPC   PO449200   3.735  22.864   5.164
 3690POPC   GL149201   3.620  22.799   5.665
 3690POPC   GL249202   3.271  22.807   5.829
 3690POPC   C1A49203   3.737  22.686   6.127
 3690POPC   D2A49204   3.902  22.761   6.548
 3690POPC   C3A49205   3.693  22.718   6.930
 3690POPC   C4A49206   3.915  22.871   7.261
 3690POPC   C1B49207   3.359  23.027   6.215
 3690POPC   C2B49208   3.466  23.071   6.647
 3690POPC   C3B49209   3.551  23.189   7.078
 3690POPC   C4B49210   3.256  23.183   7.370
 3691POPC   NC349211  36.428   0.846   5.427
 3691POPC   PO449212  37.041   0.924   5.410
 3691POPC   GL149213  36.900   0.927   5.859
 3691POPC   GL249214  36.505   0.970   5.910
 3691POPC   C1A49215  37.129   1.151   6.228
 3691POPC   D2A49216  37.015   1.425   6.587
 3691POPC   C3A49217  37.119   1.294   7.019
 3691POPC   C4A49218  37.057   1.409   7.485
 3691POPC   C1B49219  36.623   1.138   6.314
 3691POPC   C2B49220  36.637   1.119   6.763
 3691POPC   C3B49221  36.636   1.273   7.171
 3691POPC   C4B49222  36.695   1.028   7.549
 3692POPC   NC349223  31.266   4.656   5.342
 3692POPC   PO449224  31.728   4.318   5.642
 3692POPC   GL149225  31.304   4.328   5.873
 3692POPC   GL249226  31.145   3.990   5.919
 3692POPC   C1A49227  31.234   4.308   6.334
 3692POPC   D2A49228  31.616   4.240   6.604
 3692POPC   C3A49229  31.591   4.297   7.040
 3692POPC   C4A49230  31.573   4.464   7.458
 3692POPC   C1B49231  31.550   3.946   6.158
 3692POPC   C2B49232  31.638   3.751   6.537
 3692POPC   C3B49233  31.353   3.885   6.864
 3692POPC   C4B49234  31.252   3.992   7.314
 3693POPC   NC349235   4.427  13.778   5.310
 3693POPC   PO449236   3.860  13.674   5.530
 3693POPC   GL149237   4.095  13.510   5.826
 3693POPC   GL249238   3.947  13.188   5.809
 3693POPC   C1A49239   4.280  13.630   6.229
 3693POPC   D2A49240   4.199  13.554   6.625
 3693POPC   C3A49241   4.359  13.719   7.024
 3693POPC   C4A49242   4.508  14.057   7.276
 3693POPC   C1B49243   3.909  13.263   6.245
 3693POPC   C2B49244   3.886  13.141   6.683
 3693POPC   C3B49245   3.927  13.437   7.027
 3693POPC   C4B49246   4.020  13.442   7.456
 3694POPC   NC349247   1.955  26.779   5.402
 3694POPC   PO449248   2.366  27.226   5.520
 3694POPC   GL149249   2.033  27.026   5.828
 3694POPC   GL249250   1.636  26.969   5.750
 3694POPC   C1A49251   2.079  26.694   6.145
 3694POPC   D2A49252   2.214  26.832   6.561
 3694POPC   C3A49253   2.229  26.657   6.976
 3694POPC   C4A49254   2.153  26.961   7.276
 3694POPC   C1B49255   1.564  26.768   6.133
 3694POPC   C2B49256   1.732  26.665   6.531
 3694POPC   C3B49257   1.769  26.859   6.912
 3694POPC   C4B49258   1.778  26.609   7.257
 3695POPC   NC349259   1.064   6.758   5.447
 3695POPC   PO449260   1.666   6.623   5.413
 3695POPC   GL149261   1.524   6.445   5.842
 3695POPC   GL249262   1.161   6.512   5.943
 3695POPC   C1A49263   1.477   6.296   6.297
 3695POPC   D2A49264   1.164   6.353   6.657
 3695POPC   C3A49265   1.227   6.389   7.091
 3695POPC   C4A49266   1.307   6.440   7.528
 3695POPC   C1B49267   1.280   6.765   6.353
 3695POPC   C2B49268   1.231   6.874   6.827
 3695POPC   C3B49269   1.131   6.879   7.296
 3695POPC   C4B49270   1.006   7.185   7.629
 3696POPC   NC349271  20.101  25.220   5.505
 3696POPC   PO449272  19.805  25.755   5.246
 3696POPC   GL149273  19.669  25.348   5.704
 3696POPC   GL249274  19.753  24.991   5.794
 3696POPC   C1A49275  19.569  25.308   6.154
 3696POPC   D2A49276  19.668  25.522   6.518
 3696POPC   C3A49277  19.879  25.428   6.917
 3696POPC   C4A49278  19.713  25.241   7.283
 3696POPC   C1B49279  20.005  25.052   6.155
 3696POPC   C2B49280  19.993  25.062   6.588
 3696POPC   C3B49281  19.739  24.899   6.926
 3696POPC   C4B49282  19.750  24.704   7.356
 3697POPC   NC349283  39.091  17.219   5.535
 3697POPC   PO449284  39.602  17.647   5.400
 3697POPC   GL149285  39.373  17.579   5.794
 3697POPC   GL249286  39.131  17.873   5.772
 3697POPC   C1A49287  39.186  17.554   6.244
 3697POPC   D2A49288  39.309  17.605   6.703
 3697POPC   C3A49289  39.099  17.387   7.047
 3697POPC   C4A49290  39.113  17.414   7.506
 3697POPC   C1B49291  39.470  17.978   6.086
 3697POPC   C2B49292  39.653  17.923   6.486
 3697POPC   C3B49293  39.720  17.845   6.934
 3697POPC   C4B49294  39.374  17.794   7.251
 3698POPC   NC349295  16.183  28.598   5.503
 3698POPC   PO449296  16.070  27.909   5.408
 3698POPC   GL149297  16.017  28.212   5.803
 3698POPC   GL249298  15.714  28.374   5.869
 3698POPC   C1A49299  16.186  28.496   6.168
 3698POPC   D2A49300  16.191  28.789   6.568
 3698POPC   C3A49301  16.268  28.569   6.992
 3698POPC   C4A49302  16.028  28.503   7.395
 3698POPC   C1B49303  15.698  28.366   6.322
 3698POPC   C2B49304  15.662  28.160   6.739
 3698POPC   C3B49305  15.685  28.163   7.198
 3698POPC   C4B49306  15.563  28.417   7.582
 3699POPC   NC349307  12.206  28.105   5.345
 3699POPC   PO449308  11.775  28.575   5.443
 3699POPC   GL149309  11.978  28.356   5.809
 3699POPC   GL249310  12.272  28.077   5.865
 3699POPC   C1A49311  11.934  28.252   6.240
 3699POPC   D2A49312  11.978  28.086   6.624
 3699POPC   C3A49313  11.862  28.298   6.995
 3699POPC   C4A49314  12.236  28.444   7.136
 3699POPC   C1B49315  12.430  28.129   6.315
 3699POPC   C2B49316  12.508  28.164   6.760
 3699POPC   C3B49317  12.557  28.061   7.181
 3699POPC   C4B49318  12.274  28.135   7.529
 3700POPC   NC349319   5.935  24.068   5.493
 3700POPC   PO449320   5.873  24.665   5.321
 3700POPC   GL149321   6.050  24.553   5.723
 3700POPC   GL249322   5.722  24.520   5.839
 3700POPC   C1A49323   6.113  24.742   6.162
 3700POPC   D2A49324   5.875  24.886   6.543
 3700POPC   C3A49325   5.812  24.687   6.964
 3700POPC   C4A49326   5.933  24.334   7.242
 3700POPC   C1B49327   5.871  24.286   6.204
 3700POPC   C2B49328   5.810  24.282   6.659
 3700POPC   C3B49329   5.494  24.220   6.990
 3700POPC   C4B49330   5.489  24.110   7.427
 3701POPC   NC349331  37.769  18.643   5.322
 3701POPC   PO449332  37.571  18.087   5.123
 3701POPC   GL149333  37.592  18.301   5.655
 3701POPC   GL249334  37.295  18.367   5.795
 3701POPC   C1A49335  37.746  18.104   6.110
 3701POPC   D2A49336  37.782  17.858   6.550
 3701POPC   C3A49337  37.932  18.125   6.892
 3701POPC   C4A49338  37.901  18.610   6.963
 3701POPC   C1B49339  37.244  18.058   6.093
 3701POPC   C2B49340  37.318  18.167   6.499
 3701POPC   C3B49341  37.399  18.063   6.906
 3701POPC   C4B49342  37.581  18.317   7.231
 3702POPC   NC349343  34.557  18.524   5.493
 3702POPC   PO449344  34.944  18.083   5.457
 3702POPC   GL149345  34.591  18.116   5.832
 3702POPC   GL249346  34.421  18.397   5.973
 3702POPC   C1A49347  34.326  17.941   6.190
 3702POPC   D2A49348  34.162  18.042   6.649
 3702POPC   C3A49349  34.464  18.185   6.980
 3702POPC   C4A49350  34.587  18.117   7.428
 3702POPC   C1B49351  34.544  18.344   6.416
 3702POPC   C2B49352  34.897  18.292   6.719
 3702POPC   C3B49353  34.960  18.348   7.183
 3702POPC   C4B49354  34.773  18.604   7.538
 3703POPC   NC349355  20.665  28.229   5.329
 3703POPC   PO449356  20.962  28.835   5.530
 3703POPC   GL149357  20.695  28.501   5.797
 3703POPC   GL249358  20.745  28.088   5.808
 3703POPC   C1A49359  20.372  28.457   6.176
 3703POPC   D2A49360  20.154  28.453   6.600
 3703POPC   C3A49361  20.357  28.264   6.946
 3703POPC   C4A49362  20.613  28.489   7.185
 3703POPC   C1B49363  20.826  28.239   6.216
 3703POPC   C2B49364  20.732  28.381   6.612
 3703POPC   C3B49365  20.844  28.106   6.929
 3703POPC   C4B49366  20.785  28.022   7.322
 3704POPC   NC349367  21.321  29.560   5.435
 3704POPC   PO449368  21.567  29.015   5.156
 3704POPC   GL149369  21.421  29.094   5.633
 3704POPC   GL249370  21.558  29.408   5.831
 3704POPC   C1A49371  21.293  29.021   6.096
 3704POPC   D2A49372  21.071  28.991   6.535
 3704POPC   C3A49373  21.333  28.894   6.926
 3704POPC   C4A49374  21.258  28.978   7.381
 3704POPC   C1B49375  21.441  29.496   6.264
 3704POPC   C2B49376  21.487  29.308   6.682
 3704POPC   C3B49377  21.518  29.344   7.152
 3704POPC   C4B49378  21.752  29.198   7.531
 3705POPC   NC349379   4.082  34.561   5.158
 3705POPC   PO449380   3.406  34.595   5.353
 3705POPC   GL149381   3.613  34.672   5.735
 3705POPC   GL249382   3.272  34.599   5.881
 3705POPC   C1A49383   3.653  34.723   6.208
 3705POPC   D2A49384   3.467  34.427   6.515
 3705POPC   C3A49385   3.466  34.529   6.958
 3705POPC   C4A49386   3.508  34.477   7.393
 3705POPC   C1B49387   3.168  34.879   6.221
 3705POPC   C2B49388   3.320  34.924   6.652
 3705POPC   C3B49389   3.256  34.964   7.111
 3705POPC   C4B49390   3.222  34.849   7.569
 3706POPC   NC349391  26.097  13.301   5.459
 3706POPC   PO449392  25.676  13.812   5.151
 3706POPC   GL149393  25.819  13.724   5.624
 3706POPC   GL249394  25.782  13.391   5.849
 3706POPC   C1A49395  25.964  13.793   6.087
 3706POPC   D2A49396  25.891  13.522   6.450
 3706POPC   C3A49397  26.099  13.652   6.822
 3706POPC   C4A49398  26.108  13.625   7.262
 3706POPC   C1B49399  26.202  13.314   6.093
 3706POPC   C2B49400  26.409  13.351   6.501
 3706POPC   C3B49401  26.369  13.145   6.843
 3706POPC   C4B49402  26.198  13.127   7.223
 3707POPC   NC349403  27.980  35.465   5.398
 3707POPC   PO449404  28.538  35.074   5.256
 3707POPC   GL149405  28.388  35.131   5.696
 3707POPC   GL249406  28.336  35.494   5.773
 3707POPC   C1A49407  28.310  35.166   6.156
 3707POPC   D2A49408  28.485  35.333   6.553
 3707POPC   C3A49409  28.294  35.098   6.896
 3707POPC   C4A49410  28.233  35.184   7.332
 3707POPC   C1B49411  28.167  35.661   6.180
 3707POPC   C2B49412  28.005  35.537   6.592
 3707POPC   C3B49413  28.231  35.591   6.998
 3707POPC   C4B49414  28.158  35.675   7.435
 3708POPC   NC349415   7.018  13.548   5.347
 3708POPC   PO449416   6.337  13.635   5.489
 3708POPC   GL149417   6.494  13.518   5.856
 3708POPC   GL249418   6.817  13.607   5.811
 3708POPC   C1A49419   6.447  13.384   6.271
 3708POPC   D2A49420   6.650  13.542   6.607
 3708POPC   C3A49421   6.469  13.578   7.029
 3708POPC   C4A49422   6.530  13.707   7.465
 3708POPC   C1B49423   7.002  13.579   6.206
 3708POPC   C2B49424   7.159  13.604   6.589
 3708POPC   C3B49425   6.952  13.750   6.944
 3708POPC   C4B49426   6.915  13.440   7.221
 3709POPC   NC349427  40.180  38.711   5.428
 3709POPC   PO449428  39.727  38.288   5.544
 3709POPC   GL149429  39.899  38.557   5.867
 3709POPC   GL249430  40.140  38.808   5.920
 3709POPC   C1A49431  40.030  38.462   6.277
 3709POPC   D2A49432  39.854  38.160   6.525
 3709POPC   C3A49433  39.787  38.424   6.834
 3709POPC   C4A49434  40.053  38.631   7.127
 3709POPC   C1B49435  40.458  38.793   6.245
 3709POPC   C2B49436  40.335  38.762   6.685
 3709POPC   C3B49437  40.380  38.997   7.071
 3709POPC   C4B49438  40.239  38.952   7.497
 3710POPC   NC349439  42.007  24.465   5.308
 3710POPC   PO449440  42.441  24.858   5.650
 3710POPC   GL149441  42.451  24.446   5.825
 3710POPC   GL249442  42.128  24.305   5.792
 3710POPC   C1A49443  42.552  24.381   6.235
 3710POPC   D2A49444  42.374  24.622   6.540
 3710POPC   C3A49445  42.529  24.480   6.916
 3710POPC   C4A49446  42.335  24.500   7.306
 3710POPC   C1B49447  42.107  24.115   6.203
 3710POPC   C2B49448  42.324  24.103   6.613
 3710POPC   C3B49449  42.101  24.172   6.990
 3710POPC   C4B49450  41.816  23.902   7.184
 3711POPC   NC349451  42.542  35.324   5.464
 3711POPC   PO449452  43.186  35.356   5.144
 3711POPC   GL149453  43.101  35.358   5.653
 3711POPC   GL249454  43.406  35.414   5.839
 3711POPC   C1A49455  43.035  35.294   6.146
 3711POPC   D2A49456  43.220  35.410   6.574
 3711POPC   C3A49457  42.945  35.291   6.904
 3711POPC   C4A49458  42.899  35.546   7.252
 3711POPC   C1B49459  43.475  35.654   6.203
 3711POPC   C2B49460  43.571  35.803   6.612
 3711POPC   C3B49461  43.360  35.711   7.007
 3711POPC   C4B49462  43.464  35.582   7.432
 3712POPC   NC349463  38.219  33.792   5.447
 3712POPC   PO449464  38.857  33.453   5.531
 3712POPC   GL149465  38.587  33.665   5.788
 3712POPC   GL249466  38.726  33.948   5.930
 3712POPC   C1A49467  38.402  33.624   6.193
 3712POPC   D2A49468  38.096  33.557   6.502
 3712POPC   C3A49469  38.288  33.581   6.902
 3712POPC   C4A49470  38.479  33.721   7.275
 3712POPC   C1B49471  38.314  34.101   6.074
 3712POPC   C2B49472  38.279  34.040   6.507
 3712POPC   C3B49473  38.354  34.098   6.929
 3712POPC   C4B49474  38.095  34.133   7.244
 3713POPC   NC349475  16.499  22.167   5.252
 3713POPC   PO449476  17.176  22.302   5.158
 3713POPC   GL149477  17.035  22.200   5.640
 3713POPC   GL249478  16.692  22.058   5.720
 3713POPC   C1A49479  16.940  22.217   6.133
 3713POPC   D2A49480  16.801  21.990   6.531
 3713POPC   C3A49481  17.009  22.161   6.934
 3713POPC   C4A49482  16.806  22.238   7.333
 3713POPC   C1B49483  16.458  21.988   6.134
 3713POPC   C2B49484  16.279  22.101   6.533
 3713POPC   C3B49485  16.462  22.111   6.950
 3713POPC   C4B49486  16.444  21.890   7.346
 3714POPC   NC349487   4.841   9.177   5.516
 3714POPC   PO449488   5.375   8.886   5.446
 3714POPC   GL149489   5.241   9.092   5.815
 3714POPC   GL249490   5.011   8.807   5.875
 3714POPC   C1A49491   4.992   9.240   6.189
 3714POPC   D2A49492   5.203   9.268   6.589
 3714POPC   C3A49493   5.022   9.193   6.981
 3714POPC   C4A49494   4.863   9.136   7.404
 3714POPC   C1B49495   5.267   8.813   6.248
 3714POPC   C2B49496   5.272   8.745   6.656
 3714POPC   C3B49497   5.059   8.699   7.017
 3714POPC   C4B49498   5.169   8.502   7.343
 3715POPC   NC349499   2.534  37.155   5.419
 3715POPC   PO449500   3.009  36.676   5.489
 3715POPC   GL149501   2.893  36.921   5.827
 3715POPC   GL249502   2.558  36.822   5.850
 3715POPC   C1A49503   2.870  36.767   6.271
 3715POPC   D2A49504   2.594  36.636   6.620
 3715POPC   C3A49505   2.832  36.775   6.978
 3715POPC   C4A49506   3.084  36.867   7.295
 3715POPC   C1B49507   2.331  36.888   6.226
 3715POPC   C2B49508   2.294  37.066   6.634
 3715POPC   C3B49509   2.335  36.837   7.051
 3715POPC   C4B49510   2.584  36.932   7.454
 3716POPC   NC349511  27.701   1.776   5.443
 3716POPC   PO449512  27.643   2.497   5.304
 3716POPC   GL149513  27.733   2.229   5.677
 3716POPC   GL249514  27.403   2.176   5.796
 3716POPC   C1A49515  27.792   2.145   6.120
 3716POPC   D2A49516  27.991   2.248   6.492
 3716POPC   C3A49517  27.792   2.041   6.838
 3716POPC   C4A49518  27.743   2.102   7.253
 3716POPC   C1B49519  27.294   2.029   6.238
 3716POPC   C2B49520  27.326   1.891   6.677
 3716POPC   C3B49521  27.233   1.999   7.107
 3716POPC   C4B49522  27.339   1.865   7.538
 3717POPC   NC349523  15.252   4.181   5.200
 3717POPC   PO449524  14.913   3.702   5.353
 3717POPC   GL149525  15.169   3.955   5.712
 3717POPC   GL249526  15.340   4.289   5.709
 3717POPC   C1A49527  15.117   4.041   6.175
 3717POPC   D2A49528  15.355   3.992   6.549
 3717POPC   C3A49529  15.143   4.022   6.924
 3717POPC   C4A49530  15.276   4.176   7.308
 3717POPC   C1B49531  15.260   4.538   6.085
 3717POPC   C2B49532  15.219   4.469   6.526
 3717POPC   C3B49533  15.088   4.569   6.916
 3717POPC   C4B49534  14.902   4.961   7.092
 3718POPC   NC349535  35.917  34.854   5.388
 3718POPC   PO449536  36.515  34.445   5.437
 3718POPC   GL149537  36.214  34.603   5.775
 3718POPC   GL249538  35.892  34.408   5.690
 3718POPC   C1A49539  36.233  34.605   6.262
 3718POPC   D2A49540  36.159  34.868   6.649
 3718POPC   C3A49541  36.097  34.679   7.029
 3718POPC   C4A49542  36.188  34.246   7.073
 3718POPC   C1B49543  35.748  34.434   6.164
 3718POPC   C2B49544  35.875  34.391   6.622
 3718POPC   C3B49545  35.682  34.383   7.040
 3718POPC   C4B49546  35.716  34.600   7.466
 3719POPC   NC349547  35.596  41.511   5.397
 3719POPC   PO449548  35.074  41.805   5.454
 3719POPC   GL149549  35.006  41.710   5.859
 3719POPC   GL249550  35.334  41.553   5.879
 3719POPC   C1A49551  35.115  41.840   6.271
 3719POPC   D2A49552  35.417  41.768   6.593
 3719POPC   C3A49553  35.316  41.397   6.782
 3719POPC   C4A49554  35.223  41.433   7.190
 3719POPC   C1B49555  35.673  41.683   6.150
 3719POPC   C2B49556  35.936  41.489   6.472
 3719POPC   C3B49557  35.825  41.396   6.891
 3719POPC   C4B49558  35.661  41.754   7.113
 3720POPC   NC349559   2.012  43.478   5.618
 3720POPC   PO449560   1.912  42.808   5.505
 3720POPC   GL149561   2.042  43.037   5.853
 3720POPC   GL249562   2.246  42.814   5.971
 3720POPC   C1A49563   2.140  43.230   6.270
 3720POPC   D2A49564   2.077  43.073   6.667
 3720POPC   C3A49565   2.183  43.266   7.040
 3720POPC   C4A49566   1.780  43.293   7.246
 3720POPC   C1B49567   2.417  42.766   6.382
 3720POPC   C2B49568   2.364  42.674   6.802
 3720POPC   C3B49569   2.040  42.786   7.103
 3720POPC   C4B49570   2.393  42.859   7.303
 3721POPC   NC349571   7.903  13.793   4.951
 3721POPC   PO449572   8.385  13.532   5.387
 3721POPC   GL149573   8.255  13.725   5.780
 3721POPC   GL249574   8.581  13.869   5.847
 3721POPC   C1A49575   7.947  13.652   6.162
 3721POPC   D2A49576   7.971  13.454   6.584
 3721POPC   C3A49577   7.973  13.658   6.972
 3721POPC   C4A49578   8.256  13.969   7.166
 3721POPC   C1B49579   8.440  13.772   6.260
 3721POPC   C2B49580   8.355  13.829   6.663
 3721POPC   C3B49581   8.456  13.527   6.964
 3721POPC   C4B49582   8.640  13.630   7.322
 3722POPC   NC349583  24.263  16.233   5.468
 3722POPC   PO449584  24.847  15.894   5.419
 3722POPC   GL149585  24.623  15.846   5.809
 3722POPC   GL249586  24.798  15.527   5.874
 3722POPC   C1A49587  24.438  16.121   6.136
 3722POPC   D2A49588  24.281  16.416   6.477
 3722POPC   C3A49589  24.371  16.289   6.916
 3722POPC   C4A49590  24.407  15.934   7.208
 3722POPC   C1B49591  24.745  15.709   6.316
 3722POPC   C2B49592  24.571  15.722   6.767
 3722POPC   C3B49593  24.596  15.449   7.164
 3722POPC   C4B49594  24.851  15.551   7.509
 3723POPC   NC349595  29.202  15.454   5.448
 3723POPC   PO449596  28.955  14.860   5.612
 3723POPC   GL149597  29.294  15.038   5.828
 3723POPC   GL249598  29.217  15.371   5.947
 3723POPC   C1A49599  29.478  15.060   6.245
 3723POPC   D2A49600  29.349  15.239   6.621
 3723POPC   C3A49601  29.146  14.942   6.871
 3723POPC   C4A49602  29.064  14.904   7.292
 3723POPC   C1B49603  28.931  15.152   6.233
 3723POPC   C2B49604  28.822  15.273   6.653
 3723POPC   C3B49605  29.067  15.432   7.022
 3723POPC   C4B49606  29.182  15.450   7.491
 3724POPC   NC349607   8.358  38.365   5.438
 3724POPC   PO449608   7.811  38.769   5.403
 3724POPC   GL149609   8.055  38.613   5.763
 3724POPC   GL249610   8.384  38.738   5.793
 3724POPC   C1A49611   7.914  38.544   6.195
 3724POPC   D2A49612   7.857  38.820   6.527
 3724POPC   C3A49613   7.908  38.586   6.887
 3724POPC   C4A49614   8.100  38.728   7.237
 3724POPC   C1B49615   8.372  38.350   6.089
 3724POPC   C2B49616   8.452  38.273   6.504
 3724POPC   C3B49617   8.411  38.488   6.880
 3724POPC   C4B49618   8.220  38.220   7.183
 3725POPC   NC349619  37.186  18.194   5.340
 3725POPC   PO449620  36.674  18.589   5.273
 3725POPC   GL149621  36.780  18.464   5.710
 3725POPC   GL249622  36.864  18.089   5.751
 3725POPC   C1A49623  36.937  18.465   6.152
 3725POPC   D2A49624  36.907  18.545   6.604
 3725POPC   C3A49625  37.174  18.522   6.980
 3725POPC   C4A49626  37.015  18.540   7.405
 3725POPC   C1B49627  36.737  17.968   6.186
 3725POPC   C2B49628  36.895  17.891   6.610
 3725POPC   C3B49629  36.866  18.134   6.963
 3725POPC   C4B49630  36.731  18.091   7.353
 3726POPC   NC349631  42.766   4.224   5.429
 3726POPC   PO449632  43.381   4.196   5.181
 3726POPC   GL149633  43.299   4.281   5.676
 3726POPC   GL249634  42.967   4.431   5.866
 3726POPC   C1A49635  43.299   4.191   6.163
 3726POPC   D2A49636  43.321   4.380   6.628
 3726POPC   C3A49637  43.153   4.247   7.054
 3726POPC   C4A49638  43.065   4.375   7.509
 3726POPC   C1B49639  42.877   4.431   6.352
 3726POPC   C2B49640  42.871   4.614   6.799
 3726POPC   C3B49641  42.753   4.716   7.249
 3726POPC   C4B49642  42.628   4.576   7.679
 3727POPC   NC349643  12.609  27.720   5.206
 3727POPC   PO449644  12.950  27.241   5.567
 3727POPC   GL149645  12.636  27.538   5.739
 3727POPC   GL249646  12.759  27.883   5.746
 3727POPC   C1A49647  12.585  27.653   6.186
 3727POPC   D2A49648  12.814  27.648   6.601
 3727POPC   C3A49649  12.635  27.584   7.027
 3727POPC   C4A49650  12.844  27.341   7.324
 3727POPC   C1B49651  12.997  27.970   6.172
 3727POPC   C2B49652  13.173  28.009   6.618
 3727POPC   C3B49653  13.039  27.940   7.064
 3727POPC   C4B49654  13.084  27.890   7.540
 3728POPC   NC349655  30.325  29.281   5.485
 3728POPC   PO449656  30.854  28.927   5.375
 3728POPC   GL149657  30.769  28.953   5.820
 3728POPC   GL249658  30.399  28.849   5.854
 3728POPC   C1A49659  30.870  29.204   6.213
 3728POPC   D2A49660  30.633  29.291   6.596
 3728POPC   C3A49661  30.808  29.415   6.967
 3728POPC   C4A49662  30.608  29.355   7.321
 3728POPC   C1B49663  30.451  28.897   6.311
 3728POPC   C2B49664  30.787  28.792   6.631
 3728POPC   C3B49665  30.744  28.903   7.072
 3728POPC   C4B49666  30.498  28.859   7.432
 3729POPC   NC349667   9.150  11.282   5.502
 3729POPC   PO449668   8.867  11.842   5.677
 3729POPC   GL149669   8.709  11.576   5.956
 3729POPC   GL249670   8.528  11.891   6.092
 3729POPC   C1A49671   8.863  11.276   6.267
 3729POPC   D2A49672   9.038  11.372   6.676
 3729POPC   C3A49673   8.996  11.133   7.052
 3729POPC   C4A49674   9.372  11.227   7.246
 3729POPC   C1B49675   8.890  11.773   6.379
 3729POPC   C2B49676   8.909  11.857   6.820
 3729POPC   C3B49677   9.033  11.627   7.147
 3729POPC   C4B49678   8.886  11.429   7.515
 3730POPC   NC349679  15.092  18.506   5.020
 3730POPC   PO449680  15.493  18.251   5.516
 3730POPC   GL149681  15.360  18.238   5.912
 3730POPC   GL249682  15.335  18.602   5.846
 3730POPC   C1A49683  15.111  18.081   6.301
 3730POPC   D2A49684  14.930  18.038   6.752
 3730POPC   C3A49685  15.203  17.963   7.122
 3730POPC   C4A49686  15.433  17.942   7.518
 3730POPC   C1B49687  15.116  18.612   6.213
 3730POPC   C2B49688  15.076  18.518   6.643
 3730POPC   C3B49689  15.143  18.497   7.102
 3730POPC   C4B49690  15.462  18.622   7.426
 3731POPC   NC349691  28.380  17.048   5.372
 3731POPC   PO449692  28.224  17.666   5.331
 3731POPC   GL149693  28.284  17.441   5.736
 3731POPC   GL249694  27.989  17.300   5.837
 3731POPC   C1A49695  28.437  17.457   6.186
 3731POPC   D2A49696  28.566  17.643   6.597
 3731POPC   C3A49697  28.384  17.425   6.992
 3731POPC   C4A49698  28.452  17.587   7.440
 3731POPC   C1B49699  27.958  17.238   6.247
 3731POPC   C2B49700  28.076  17.143   6.672
 3731POPC   C3B49701  28.011  17.056   7.093
 3731POPC   C4B49702  27.974  17.390   7.410
 3732POPC   NC349703   7.549  11.130   5.571
 3732POPC   PO449704   7.514  11.731   5.849
 3732POPC   GL149705   7.470  11.341   6.056
 3732POPC   GL249706   7.183  11.137   5.951
 3732POPC   C1A49707   7.506  11.329   6.508
 3732POPC   D2A49708   7.568  11.053   6.836
 3732POPC   C3A49709   7.641  11.343   7.144
 3732POPC   C4A49710   7.394  11.704   7.054
 3732POPC   C1B49711   7.020  11.292   6.354
 3732POPC   C2B49712   7.074  11.393   6.802
 3732POPC   C3B49713   7.177  11.138   7.163
 3732POPC   C4B49714   7.322  10.720   7.176
 3733POPC   NC349715  13.411  15.852   5.416
 3733POPC   PO449716  13.808  16.285   5.607
 3733POPC   GL149717  13.705  16.045   5.907
 3733POPC   GL249718  13.845  15.743   5.821
 3733POPC   C1A49719  13.641  16.157   6.336
 3733POPC   D2A49720  13.598  16.363   6.743
 3733POPC   C3A49721  13.499  16.027   7.022
 3733POPC   C4A49722  13.339  15.601   7.044
 3733POPC   C1B49723  13.775  15.665   6.257
 3733POPC   C2B49724  13.843  15.708   6.702
 3733POPC   C3B49725  13.839  15.521   7.116
 3733POPC   C4B49726  13.756  15.829   7.431
 3734POPC   NC349727  12.659  23.859   5.420
 3734POPC   PO449728  13.224  23.340   5.430
 3734POPC   GL149729  12.991  23.589   5.727
 3734POPC   GL249730  12.694  23.351   5.662
 3734POPC   C1A49731  12.799  23.884   6.064
 3734POPC   D2A49732  12.573  24.033   6.461
 3734POPC   C3A49733  12.756  24.027   6.891
 3734POPC   C4A49734  12.813  23.855   7.316
 3734POPC   C1B49735  12.762  23.305   6.085
 3734POPC   C2B49736  12.787  23.566   6.455
 3734POPC   C3B49737  12.787  23.511   6.900
 3734POPC   C4B49738  12.633  23.368   7.295
 3735POPC   NC349739   6.472  32.070   5.413
 3735POPC   PO449740   6.837  32.608   5.205
 3735POPC   GL149741   6.711  32.443   5.671
 3735POPC   GL249742   6.339  32.379   5.780
 3735POPC   C1A49743   6.841  32.389   6.122
 3735POPC   D2A49744   6.825  32.083   6.490
 3735POPC   C3A49745   6.850  32.245   6.913
 3735POPC   C4A49746   7.040  32.655   7.115
 3735POPC   C1B49747   6.423  32.085   6.096
 3735POPC   C2B49748   6.335  32.210   6.486
 3735POPC   C3B49749   6.329  32.224   6.903
 3735POPC   C4B49750   6.466  32.065   7.288
 3736POPC   NC349751  31.951  36.780   5.302
 3736POPC   PO449752  32.589  37.077   5.252
 3736POPC   GL149753  32.462  36.859   5.668
 3736POPC   GL249754  32.103  36.809   5.785
 3736POPC   C1A49755  32.460  36.869   6.146
 3736POPC   D2A49756  32.277  36.800   6.550
 3736POPC   C3A49757  32.416  36.945   6.961
 3736POPC   C4A49758  32.298  36.707   7.341
 3736POPC   C1B49759  31.956  37.071   6.151
 3736POPC   C2B49760  31.779  36.973   6.571
 3736POPC   C3B49761  31.911  36.754   6.948
 3736POPC   C4B49762  31.997  37.083   7.212
 3737POPC   NC349763   4.601  40.577   5.560
 3737POPC   PO449764   4.099  40.918   5.271
 3737POPC   GL149765   4.186  40.895   5.692
 3737POPC   GL249766   4.144  40.558   5.793
 3737POPC   C1A49767   4.326  40.924   6.124
 3737POPC   D2A49768   4.207  40.902   6.546
 3737POPC   C3A49769   4.444  40.656   6.823
 3737POPC   C4A49770   4.398  40.763   7.226
 3737POPC   C1B49771   3.996  40.548   6.219
 3737POPC   C2B49772   4.071  40.344   6.628
 3737POPC   C3B49773   4.123  40.340   7.098
 3737POPC   C4B49774   4.141  40.447   7.541
 3738POPC   NC349775  28.619  29.726   5.466
 3738POPC   PO449776  28.270  30.251   5.338
 3738POPC   GL149777  28.154  30.064   5.741
 3738POPC   GL249778  28.174  29.678   5.777
 3738POPC   C1A49779  28.294  29.966   6.166
 3738POPC   D2A49780  28.437  29.785   6.527
 3738POPC   C3A49781  28.419  29.974   6.905
 3738POPC   C4A49782  28.147  29.879   7.241
 3738POPC   C1B49783  28.433  29.450   6.129
 3738POPC   C2B49784  28.589  29.316   6.551
 3738POPC   C3B49785  28.425  29.448   6.968
 3738POPC   C4B49786  28.610  29.671   7.311
 3739POPC   NC349787  15.264  20.501   5.156
 3739POPC   PO449788  15.190  19.792   5.392
 3739POPC   GL149789  15.075  19.881   5.810
 3739POPC   GL249790  15.383  19.953   6.027
 3739POPC   C1A49791  15.004  19.628   6.176
 3739POPC   D2A49792  15.249  19.721   6.565
 3739POPC   C3A49793  14.951  19.666   6.888
 3739POPC   C4A49794  14.862  19.782   7.296
 3739POPC   C1B49795  15.065  20.130   6.273
 3739POPC   C2B49796  15.097  20.332   6.640
 3739POPC   C3B49797  15.158  20.136   7.001
 3739POPC   C4B49798  15.289  20.099   7.439
 3740POPC   NC349799  40.790  23.408   5.375
 3740POPC   PO449800  40.787  22.798   5.328
 3740POPC   GL149801  40.747  23.002   5.717
 3740POPC   GL249802  41.030  22.783   5.818
 3740POPC   C1A49803  40.605  22.872   6.119
 3740POPC   D2A49804  40.565  22.996   6.528
 3740POPC   C3A49805  40.599  22.726   6.875
 3740POPC   C4A49806  40.569  22.791   7.309
 3740POPC   C1B49807  41.142  22.985   6.216
 3740POPC   C2B49808  41.059  23.008   6.674
 3740POPC   C3B49809  41.038  22.947   7.117
 3740POPC   C4B49810  41.144  23.385   7.153
 3741POPC   NC349811  20.420  31.682   5.457
 3741POPC   PO449812  20.808  31.311   5.056
 3741POPC   GL149813  20.768  31.312   5.571
 3741POPC   GL249814  20.910  31.628   5.691
 3741POPC   C1A49815  20.591  31.425   6.056
 3741POPC   D2A49816  20.711  31.271   6.503
 3741POPC   C3A49817  20.603  31.399   6.916
 3741POPC   C4A49818  20.494  31.380   7.338
 3741POPC   C1B49819  20.914  31.841   6.095
 3741POPC   C2B49820  20.725  31.817   6.506
 3741POPC   C3B49821  20.913  31.797   6.897
 3741POPC   C4B49822  20.969  31.606   7.321
 3742POPC   NC349823  14.417  28.608   5.465
 3742POPC   PO449824  14.382  28.056   5.139
 3742POPC   GL149825  14.533  28.171   5.678
 3742POPC   GL249826  14.177  28.326   5.817
 3742POPC   C1A49827  14.519  28.380   6.159
 3742POPC   D2A49828  14.514  28.522   6.603
 3742POPC   C3A49829  14.667  28.222   6.944
 3742POPC   C4A49830  14.703  28.359   7.376
 3742POPC   C1B49831  14.027  28.147   6.228
 3742POPC   C2B49832  14.215  28.124   6.626
 3742POPC   C3B49833  14.208  28.402   7.013
 3742POPC   C4B49834  14.265  28.085   7.341
 3743POPC   NC349835   2.909  35.768   5.342
 3743POPC   PO449836   2.576  35.150   5.408
 3743POPC   GL149837   2.749  35.363   5.783
 3743POPC   GL249838   3.090  35.542   5.817
 3743POPC   C1A49839   2.836  35.401   6.220
 3743POPC   D2A49840   2.675  35.528   6.601
 3743POPC   C3A49841   2.843  35.410   6.991
 3743POPC   C4A49842   2.687  35.508   7.418
 3743POPC   C1B49843   3.067  35.846   6.245
 3743POPC   C2B49844   3.042  35.858   6.736
 3743POPC   C3B49845   3.090  35.851   7.192
 3743POPC   C4B49846   2.894  35.936   7.591
 3744POPC   NC349847   9.290  22.988   5.386
 3744POPC   PO449848   8.632  22.629   5.445
 3744POPC   GL149849   8.914  22.858   5.767
 3744POPC   GL249850   8.732  23.136   5.896
 3744POPC   C1A49851   9.145  22.830   6.214
 3744POPC   D2A49852   9.029  22.677   6.670
 3744POPC   C3A49853   9.064  22.942   7.075
 3744POPC   C4A49854   9.290  22.813   7.485
 3744POPC   C1B49855   8.622  22.830   6.222
 3744POPC   C2B49856   8.581  23.013   6.631
 3744POPC   C3B49857   8.547  22.939   7.056
 3744POPC   C4B49858   8.691  22.591   7.247
 3745POPC   NC349859  43.527  30.421   5.507
 3745POPC   PO449860  43.987  30.789   5.476
 3745POPC   GL149861  43.835  30.691   5.839
 3745POPC   GL249862  43.943  30.355   5.810
 3745POPC   C1A49863  44.066  30.651   6.219
 3745POPC   D2A49864  44.263  30.523   6.574
 3745POPC   C3A49865  44.002  30.679   6.910
 3745POPC   C4A49866  43.851  30.680   7.337
 3745POPC   C1B49867  43.666  30.324   6.179
 3745POPC   C2B49868  43.611  30.508   6.596
 3745POPC   C3B49869  43.578  30.345   7.049
 3745POPC   C4B49870  43.506  30.356   7.559
 3746POPC   NC349871  12.753  24.706   5.472
 3746POPC   PO449872  13.051  24.113   5.405
 3746POPC   GL149873  13.016  24.288   5.786
 3746POPC   GL249874  12.701  24.360   5.879
 3746POPC   C1A49875  13.179  24.264   6.192
 3746POPC   D2A49876  13.049  24.351   6.586
 3746POPC   C3A49877  13.224  24.226   6.965
 3746POPC   C4A49878  13.124  24.362   7.388
 3746POPC   C1B49879  12.683  24.526   6.264
 3746POPC   C2B49880  12.571  24.498   6.676
 3746POPC   C3B49881  12.845  24.563   7.010
 3746POPC   C4B49882  12.787  24.738   7.447
 3747POPC   NC349883  25.628  33.691   5.498
 3747POPC   PO449884  25.036  33.907   5.324
 3747POPC   GL149885  25.157  33.841   5.809
 3747POPC   GL249886  25.437  33.620   5.956
 3747POPC   C1A49887  25.063  33.786   6.294
 3747POPC   D2A49888  24.866  34.072   6.637
 3747POPC   C3A49889  25.054  34.006   7.061
 3747POPC   C4A49890  25.344  33.611   7.146
 3747POPC   C1B49891  25.519  34.003   6.222
 3747POPC   C2B49892  25.401  33.951   6.670
 3747POPC   C3B49893  25.580  34.052   7.070
 3747POPC   C4B49894  25.733  33.834   7.443
 3748POPC   NC349895   5.319   2.092   5.625
 3748POPC   PO449896   4.950   1.563   5.438
 3748POPC   GL149897   4.888   1.786   5.830
 3748POPC   GL249898   4.871   2.115   6.037
 3748POPC   C1A49899   5.003   1.668   6.234
 3748POPC   D2A49900   5.107   1.900   6.576
 3748POPC   C3A49901   4.862   1.834   6.922
 3748POPC   C4A49902   5.125   1.789   7.268
 3748POPC   C1B49903   5.260   2.314   6.254
 3748POPC   C2B49904   5.438   2.297   6.646
 3748POPC   C3B49905   5.184   2.259   6.995
 3748POPC   C4B49906   4.745   2.330   7.010
 3749POPC   NC349907  20.505  44.924   5.382
 3749POPC   PO449908  20.715  44.281   5.321
 3749POPC   GL149909  20.612  44.506   5.737
 3749POPC   GL249910  20.739  44.846   5.848
 3749POPC   C1A49911  20.516  44.564   6.198
 3749POPC   D2A49912  20.409  44.701   6.620
 3749POPC   C3A49913  20.529  44.680   7.062
 3749POPC   C4A49914  20.451  44.598   7.524
 3749POPC   C1B49915  20.511   0.074   6.214
 3749POPC   C2B49916  20.290   0.188   6.613
 3749POPC   C3B49917  20.480   0.189   7.002
 3749POPC   C4B49918  20.385   0.072   7.396
 3750POPC   NC349919  15.729   4.540   5.468
 3750POPC   PO449920  15.961   5.120   5.563
 3750POPC   GL149921  16.175   4.975   5.931
 3750POPC   GL249922  16.128   4.604   5.851
 3750POPC   C1A49923  16.052   5.043   6.390
 3750POPC   D2A49924  15.768   5.274   6.734
 3750POPC   C3A49925  15.921   5.126   7.158
 3750POPC   C4A49926  16.264   4.799   7.184
 3750POPC   C1B49927  15.760   4.679   6.099
 3750POPC   C2B49928  15.604   4.804   6.464
 3750POPC   C3B49929  15.746   4.768   6.858
 3750POPC   C4B49930  15.483   4.748   7.206
 3751POPC   NC349931  43.241  39.979   5.469
 3751POPC   PO449932  42.677  40.174   5.227
 3751POPC   GL149933  42.787  40.153   5.701
 3751POPC   GL249934  43.055  39.955   5.925
 3751POPC   C1A49935  42.802  40.302   6.151
 3751POPC   D2A49936  42.975  40.339   6.574
 3751POPC   C3A49937  42.805  40.181   6.997
 3751POPC   C4A49938  42.949  39.791   7.226
 3751POPC   C1B49939  43.329  40.300   6.138
 3751POPC   C2B49940  43.473  40.386   6.577
 3751POPC   C3B49941  43.335  40.203   6.994
 3751POPC   C4B49942  43.298  40.088   7.441
 3752POPC   NC349943  28.971  25.800   5.625
 3752POPC   PO449944  29.306  26.332   5.520
 3752POPC   GL149945  29.373  26.092   5.874
 3752POPC   GL249946  29.490  25.747   5.815
 3752POPC   C1A49947  29.223  26.138   6.282
 3752POPC   D2A49948  29.163  26.380   6.635
 3752POPC   C3A49949  29.224  26.137   6.980
 3752POPC   C4A49950  28.885  26.207   7.232
 3752POPC   C1B49951  29.355  25.645   6.240
 3752POPC   C2B49952  29.070  25.478   6.565
 3752POPC   C3B49953  29.034  25.642   6.991
 3752POPC   C4B49954  29.151  25.813   7.389
 3753POPC   NC349955   2.122  18.631   5.264
 3753POPC   PO449956   1.741  18.152   5.464
 3753POPC   GL149957   1.934  18.405   5.767
 3753POPC   GL249958   1.692  18.665   5.907
 3753POPC   C1A49959   2.203  18.291   6.143
 3753POPC   D2A49960   2.267  18.115   6.593
 3753POPC   C3A49961   2.198  18.400   6.965
 3753POPC   C4A49962   2.190  18.357   7.423
 3753POPC   C1B49963   1.727  18.354   6.273
 3753POPC   C2B49964   1.717  18.129   6.666
 3753POPC   C3B49965   1.897  17.998   7.029
 3753POPC   C4B49966   1.793  18.042   7.455
 3754POPC   NC349967  31.881   0.942   5.170
 3754POPC   PO449968  32.470   1.272   5.314
 3754POPC   GL149969  32.246   1.215   5.705
 3754POPC   GL249970  32.570   1.234   5.827
 3754POPC   C1A49971  32.206   1.269   6.184
 3754POPC   D2A49972  32.325   1.081   6.607
 3754POPC   C3A49973  32.462   1.372   6.937
 3754POPC   C4A49974  32.362   1.394   7.394
 3754POPC   C1B49975  32.616   0.957   6.178
 3754POPC   C2B49976  32.786   0.809   6.523
 3754POPC   C3B49977  32.765   0.967   6.911
 3754POPC   C4B49978  32.437   0.915   7.224
 3755POPC   NC349979   8.753   7.680   5.384
 3755POPC   PO449980   9.023   7.189   5.409
 3755POPC   GL149981   9.039   7.290   5.874
 3755POPC   GL249982   9.388   7.322   6.007
 3755POPC   C1A49983   8.784   7.447   6.251
 3755POPC   D2A49984   8.614   7.631   6.670
 3755POPC   C3A49985   8.742   7.404   7.057
 3755POPC   C4A49986   9.077   7.218   7.331
 3755POPC   C1B49987   9.258   7.553   6.411
 3755POPC   C2B49988   9.235   7.489   6.893
 3755POPC   C3B49989   9.551   7.371   7.229
 3755POPC   C4B49990   9.574   6.977   7.473
 3756POPC   NC349991  23.303   7.817   5.413
 3756POPC   PO449992  23.751   8.248   5.230
 3756POPC   GL149993  23.819   8.250   5.670
 3756POPC   GL249994  23.492   8.144   5.770
 3756POPC   C1A49995  23.871   8.325   6.109
 3756POPC   D2A49996  23.629   8.324   6.497
 3756POPC   C3A49997  23.803   8.160   6.874
 3756POPC   C4A49998  24.012   8.398   7.234
 3756POPC   C1B49999  23.523   7.936   6.157
 3756POPC   C2B50000  23.393   7.862   6.581
 3756POPC   C3B50001  23.329   7.882   7.015
 3756POPC   C4B50002  23.561   8.141   7.307
 3757POPC   NC350003  15.582  22.974   5.477
 3757POPC   PO450004  14.919  22.721   5.376
 3757POPC   GL150005  14.983  22.903   5.816
 3757POPC   GL250006  15.357  22.935   5.953
 3757POPC   C1A50007  14.977  22.773   6.260
 3757POPC   D2A50008  15.112  22.869   6.665
 3757POPC   C3A50009  14.851  22.766   6.991
 3757POPC   C4A50010  14.947  22.604   7.375
 3757POPC   C1B50011  15.235  23.235   6.322
 3757POPC   C2B50012  15.251  23.355   6.768
 3757POPC   C3B50013  15.272  23.061   7.119
 3757POPC   C4B50014  15.561  22.722   7.146
 3758POPC   NC350015  22.274  19.739   5.145
 3758POPC   PO450016  21.946  20.254   5.483
 3758POPC   GL150017  22.048  19.994   5.833
 3758POPC   GL250018  22.245  19.702   5.688
 3758POPC   C1A50019  22.163  20.128   6.256
 3758POPC   D2A50020  22.384  20.150   6.628
 3758POPC   C3A50021  22.070  20.203   6.934
 3758POPC   C4A50022  22.011  20.005   7.326
 3758POPC   C1B50023  22.356  19.664   6.142
 3758POPC   C2B50024  22.153  19.556   6.566
 3758POPC   C3B50025  22.192  19.609   7.021
 3758POPC   C4B50026  22.579  19.507   7.257
 3759POPC   NC350027  28.672  27.236   5.478
 3759POPC   PO450028  28.437  27.811   5.480
 3759POPC   GL150029  28.445  27.642   5.902
 3759POPC   GL250030  28.343  27.309   5.914
 3759POPC   C1A50031  28.528  27.612   6.385
 3759POPC   D2A50032  28.623  27.709   6.831
 3759POPC   C3A50033  28.332  27.786   7.185
 3759POPC   C4A50034  28.058  27.461   7.470
 3759POPC   C1B50035  28.598  27.134   6.260
 3759POPC   C2B50036  28.528  27.023   6.689
 3759POPC   C3B50037  28.359  27.299   7.012
 3759POPC   C4B50038  28.531  27.372   7.407
 3760POPC   NC350039  31.354  43.421   5.392
 3760POPC   PO450040  31.663  42.980   5.714
 3760POPC   GL150041  31.628  43.238   6.046
 3760POPC   GL250042  31.317  43.356   5.908
 3760POPC   C1A50043  31.688  43.056   6.458
 3760POPC   D2A50044  31.473  42.700   6.701
 3760POPC   C3A50045  31.484  42.905   7.081
 3760POPC   C4A50046  31.705  43.281   7.008
 3760POPC   C1B50047  31.191  43.151   6.301
 3760POPC   C2B50048  31.250  43.205   6.746
 3760POPC   C3B50049  31.223  43.369   7.163
 3760POPC   C4B50050  31.007  43.191   7.531
 3761POPC   NC350051   3.377  10.713   5.434
 3761POPC   PO450052   3.919  10.304   5.371
 3761POPC   GL150053   3.806  10.543   5.769
 3761POPC   GL250054   3.580  10.854   5.888
 3761POPC   C1A50055   3.733  10.483   6.218
 3761POPC   D2A50056   3.726  10.723   6.597
 3761POPC   C3A50057   3.738  10.428   6.916
 3761POPC   C4A50058   3.594  10.351   7.312
 3761POPC   C1B50059   3.282  10.745   6.242
 3761POPC   C2B50060   3.214  10.737   6.691
 3761POPC   C3B50061   3.268  10.699   7.104
 3761POPC   C4B50062   3.484  11.052   7.151
 3762POPC   NC350063  24.359  21.647   5.416
 3762POPC   PO450064  24.582  20.972   5.477
 3762POPC   GL150065  24.556  21.091   5.879
 3762POPC   GL250066  24.270  21.294   5.856
 3762POPC   C1A50067  24.435  21.013   6.312
 3762POPC   D2A50068  24.185  21.061   6.683
 3762POPC   C3A50069  24.524  21.088   6.977
 3762POPC   C4A50070  24.829  21.232   7.267
 3762POPC   C1B50071  24.451  21.508   6.213
 3762POPC   C2B50072  24.473  21.503   6.654
 3762POPC   C3B50073  24.238  21.540   7.034
 3762POPC   C4B50074  24.240  21.715   7.466
 3763POPC   NC350075  35.533   1.516   5.565
 3763POPC   PO450076  35.124   2.020   5.403
 3763POPC   GL150077  35.247   1.868   5.800
 3763POPC   GL250078  35.117   1.533   5.852
 3763POPC   C1A50079  35.453   1.922   6.175
 3763POPC   D2A50080  35.329   1.919   6.602
 3763POPC   C3A50081  35.516   2.085   6.988
 3763POPC   C4A50082  35.311   2.161   7.396
 3763POPC   C1B50083  35.163   1.506   6.299
 3763POPC   C2B50084  34.906   1.613   6.647
 3763POPC   C3B50085  35.121   1.721   7.030
 3763POPC   C4B50086  35.469   1.694   7.331
 3764POPC   NC350087   7.643   6.600   5.367
 3764POPC   PO450088   7.083   6.785   5.448
 3764POPC   GL150089   7.368   6.813   5.795
 3764POPC   GL250090   7.390   6.494   5.836
 3764POPC   C1A50091   7.561   6.730   6.246
 3764POPC   D2A50092   7.330   6.688   6.653
 3764POPC   C3A50093   7.495   6.634   7.068
 3764POPC   C4A50094   7.409   6.803   7.457
 3764POPC   C1B50095   7.187   6.372   6.256
 3764POPC   C2B50096   7.096   6.239   6.681
 3764POPC   C3B50097   7.268   6.176   7.093
 3764POPC   C4B50098   7.331   6.297   7.530
 3765POPC   NC350099  44.023  22.580   5.506
 3765POPC   PO450100  43.856  21.940   5.390
 3765POPC   GL150101  43.853  21.976   5.818
 3765POPC   GL250102  43.863  22.346   5.928
 3765POPC   C1A50103  43.800  21.872   6.229
 3765POPC   D2A50104  43.844  22.122   6.604
 3765POPC   C3A50105  43.964  21.896   6.994
 3765POPC   C4A50106  43.713  21.802   7.407
 3765POPC   C1B50107  44.144  22.621   6.197
 3765POPC   C2B50108  44.262  22.478   6.615
 3765POPC   C3B50109  44.051  22.411   6.976
 3765POPC   C4B50110  43.799  22.281   7.257
 3766POPC   NC350111  39.433   0.184   5.494
 3766POPC   PO450112  38.875   0.571   5.356
 3766POPC   GL150113  39.079   0.521   5.753
 3766POPC   GL250114  38.922   0.830   5.824
 3766POPC   C1A50115  39.391   0.420   6.128
 3766POPC   D2A50116  39.404   0.128   6.507
 3766POPC   C3A50117  39.403   0.259   6.956
 3766POPC   C4A50118  39.047   0.358   7.246
 3766POPC   C1B50119  39.046   0.775   6.225
 3766POPC   C2B50120  39.132   0.562   6.586
 3766POPC   C3B50121  39.213   0.734   6.957
 3766POPC   C4B50122  39.071   0.880   7.332
 3767POPC   NC350123  36.030  31.006   5.390
 3767POPC   PO450124  36.135  31.682   5.358
 3767POPC   GL150125  36.123  31.412   5.736
 3767POPC   GL250126  35.808  31.255   5.763
 3767POPC   C1A50127  36.339  31.255   6.132
 3767POPC   D2A50128  36.496  31.255   6.569
 3767POPC   C3A50129  36.245  31.534   6.832
 3767POPC   C4A50130  36.246  31.720   7.226
 3767POPC   C1B50131  35.894  31.010   6.130
 3767POPC   C2B50132  35.959  31.217   6.519
 3767POPC   C3B50133  36.088  31.051   6.903
 3767POPC   C4B50134  35.886  31.054   7.286
 3768POPC   NC350135  11.432  34.763   5.501
 3768POPC   PO450136  10.923  34.309   5.407
 3768POPC   GL150137  11.129  34.476   5.808
 3768POPC   GL250138  11.494  34.519   5.926
 3768POPC   C1A50139  11.051  34.611   6.235
 3768POPC   D2A50140  11.328  34.597   6.559
 3768POPC   C3A50141  11.194  34.729   6.937
 3768POPC   C4A50142  11.199  34.650   7.346
 3768POPC   C1B50143  11.775  34.408   6.272
 3768POPC   C2B50144  11.821  34.543   6.705
 3768POPC   C3B50145  11.770  34.446   7.144
 3768POPC   C4B50146  11.693  34.610   7.555
 3769POPC   NC350147  21.347  38.692   5.506
 3769POPC   PO450148  21.702  38.131   5.537
 3769POPC   GL150149  21.557  38.330   5.872
 3769POPC   GL250150  21.210  38.287   5.814
 3769POPC   C1A50151  21.606  38.323   6.296
 3769POPC   D2A50152  21.562  38.078   6.648
 3769POPC   C3A50153  21.365  38.343   6.937
 3769POPC   C4A50154  21.692  38.487   7.217
 3769POPC   C1B50155  21.100  38.429   6.252
 3769POPC   C2B50156  20.842  38.464   6.631
 3769POPC   C3B50157  20.901  38.638   7.026
 3769POPC   C4B50158  21.230  38.681   7.303
 3770POPC   NC350159   1.152  39.572   5.341
 3770POPC   PO450160   1.033  40.189   5.346
 3770POPC   GL150161   1.230  40.006   5.694
 3770POPC   GL250162   0.976  39.728   5.792
 3770POPC   C1A50163   1.473  40.255   6.026
 3770POPC   D2A50164   1.543  40.517   6.420
 3770POPC   C3A50165   1.286  40.376   6.783
 3770POPC   C4A50166   1.335  40.164   7.173
 3770POPC   C1B50167   1.305  39.720   6.119
 3770POPC   C2B50168   1.493  39.853   6.522
 3770POPC   C3B50169   1.452  39.704   6.953
 3770POPC   C4B50170   1.109  39.658   7.202
 3771POPC   NC350171  36.015  22.404   5.386
 3771POPC   PO450172  36.245  22.973   5.497
 3771POPC   GL150173  36.383  22.921   5.908
 3771POPC   GL250174  36.379  23.290   5.978
 3771POPC   C1A50175  36.354  22.915   6.347
 3771POPC   D2A50176  36.441  23.201   6.670
 3771POPC   C3A50177  36.319  23.031   7.086
 3771POPC   C4A50178  36.124  23.003   7.485
 3771POPC   C1B50179  36.040  23.312   6.326
 3771POPC   C2B50180  35.945  23.080   6.727
 3771POPC   C3B50181  35.833  22.824   7.100
 3771POPC   C4B50182  35.612  22.915   7.519
 3772POPC   NC350183  17.462  21.950   5.096
 3772POPC   PO450184  17.524  22.392   5.607
 3772POPC   GL150185  17.459  22.342   5.994
 3772POPC   GL250186  17.807  22.242   6.044
 3772POPC   C1A50187  17.399  22.017   6.278
 3772POPC   D2A50188  17.270  21.826   6.628
 3772POPC   C3A50189  17.425  21.751   6.997
 3772POPC   C4A50190  17.496  22.014   7.307
 3772POPC   C1B50191  17.763  22.596   6.322
 3772POPC   C2B50192  17.417  22.551   6.588
 3772POPC   C3B50193  17.532  22.301   6.907
 3772POPC   C4B50194  17.903  22.305   7.192
 3773POPC   NC350195  42.633  32.708   5.490
 3773POPC   PO450196  41.954  32.958   5.565
 3773POPC   GL150197  42.240  32.939   5.906
 3773POPC   GL250198  42.471  33.206   5.863
 3773POPC   C1A50199  42.258  33.126   6.330
 3773POPC   D2A50200  42.340  33.315   6.738
 3773POPC   C3A50201  42.344  32.976   7.044
 3773POPC   C4A50202  42.005  32.714   7.206
 3773POPC   C1B50203  42.710  32.980   6.139
 3773POPC   C2B50204  42.864  33.097   6.537
 3773POPC   C3B50205  42.800  33.204   6.967
 3773POPC   C4B50206  42.727  33.115   7.402
 3774POPC   NC350207  11.427  26.512   5.087
 3774POPC   PO450208  11.515  27.060   5.315
 3774POPC   GL150209  11.332  26.921   5.736
 3774POPC   GL250210  11.072  26.685   5.871
 3774POPC   C1A50211  11.428  26.962   6.190
 3774POPC   D2A50212  11.726  26.898   6.533
 3774POPC   C3A50213  11.660  27.128   6.890
 3774POPC   C4A50214  11.591  26.893   7.223
 3774POPC   C1B50215  11.257  26.480   6.228
 3774POPC   C2B50216  11.354  26.555   6.668
 3774POPC   C3B50217  11.155  26.797   6.985
 3774POPC   C4B50218  10.894  26.623   7.264
 3775POPC   NC350219  27.228   1.248   5.551
 3775POPC   PO450220  26.785   1.429   5.046
 3775POPC   GL150221  26.697   1.304   5.551
 3775POPC   GL250222  26.800   0.964   5.696
 3775POPC   C1A50223  26.729   1.300   6.056
 3775POPC   D2A50224  26.580   1.287   6.490
 3775POPC   C3A50225  26.618   1.262   6.928
 3775POPC   C4A50226  27.017   1.271   7.127
 3775POPC   C1B50227  27.028   0.862   6.120
 3775POPC   C2B50228  26.937   0.918   6.572
 3775POPC   C3B50229  27.125   0.795   6.957
 3775POPC   C4B50230  27.142   0.821   7.423
 3776POPC   NC350231  38.729  40.714   5.399
 3776POPC   PO450232  38.182  41.114   5.399
 3776POPC   GL150233  38.312  40.868   5.741
 3776POPC   GL250234  38.583  41.050   5.874
 3776POPC   C1A50235  38.426  40.597   6.114
 3776POPC   D2A50236  38.639  40.631   6.524
 3776POPC   C3A50237  38.475  40.508   6.957
 3776POPC   C4A50238  38.661  40.574   7.369
 3776POPC   C1B50239  38.245  41.109   6.211
 3776POPC   C2B50240  38.271  41.284   6.620
 3776POPC   C3B50241  38.530  41.032   6.913
 3776POPC   C4B50242  38.601  41.077   7.345
 3777POPC   NC350243  21.306  39.667   5.528
 3777POPC   PO450244  21.120  39.049   5.701
 3777POPC   GL150245  21.479  39.264   5.846
 3777POPC   GL250246  21.262  39.512   6.015
 3777POPC   C1A50247  21.580  39.174   6.273
 3777POPC   D2A50248  21.246  39.271   6.571
 3777POPC   C3A50249  21.258  39.041   6.947
 3777POPC   C4A50250  21.644  39.000   7.193
 3777POPC   C1B50251  21.644  39.674   6.224
 3777POPC   C2B50252  21.688  39.753   6.649
 3777POPC   C3B50253  21.577  39.462   6.956
 3777POPC   C4B50254  21.597  39.492   7.386
 3778POPC   NC350255  20.981  19.043   5.434
 3778POPC   PO450256  20.320  19.085   5.319
 3778POPC   GL150257  20.553  19.011   5.726
 3778POPC   GL250258  20.676  19.343   5.783
 3778POPC   C1A50259  20.792  18.983   6.157
 3778POPC   D2A50260  20.562  19.007   6.578
 3778POPC   C3A50261  20.626  19.322   6.854
 3778POPC   C4A50262  20.856  19.289   7.222
 3778POPC   C1B50263  20.368  19.254   6.120
 3778POPC   C2B50264  20.247  19.388   6.493
 3778POPC   C3B50265  20.094  19.257   6.864
 3778POPC   C4B50266  20.318  19.240   7.249
 3779POPC   NC350267   6.446  20.021   5.518
 3779POPC   PO450268   7.050  19.648   5.461
 3779POPC   GL150269   6.737  19.743   5.812
 3779POPC   GL250270   6.769  20.084   5.979
 3779POPC   C1A50271   6.412  19.815   6.177
 3779POPC   D2A50272   6.553  19.984   6.560
 3779POPC   C3A50273   6.370  19.794   6.897
 3779POPC   C4A50274   6.388  19.942   7.301
 3779POPC   C1B50275   6.935  19.760   6.280
 3779POPC   C2B50276   7.050  19.795   6.688
 3779POPC   C3B50277   6.836  19.999   7.019
 3779POPC   C4B50278   6.876  19.861   7.427
 3780POPC   NC350279  42.180  34.393   5.420
 3780POPC   PO450280  42.239  35.062   5.173
 3780POPC   GL150281  42.315  34.851   5.580
 3780POPC   GL250282  42.004  34.786   5.737
 3780POPC   C1A50283  42.377  34.643   6.052
 3780POPC   D2A50284  42.269  34.333   6.415
 3780POPC   C3A50285  42.358  34.402   6.869
 3780POPC   C4A50286  42.750  34.416   7.120
 3780POPC   C1B50287  41.957  34.907   6.190
 3780POPC   C2B50288  42.233  34.822   6.549
 3780POPC   C3B50289  42.602  34.879   6.785
 3780POPC   C4B50290  42.438  34.834   7.192
 3781POPC   NC350291  41.701   2.576   5.518
 3781POPC   PO450292  41.138   2.866   5.411
 3781POPC   GL150293  41.352   2.846   5.776
 3781POPC   GL250294  41.642   3.045   5.744
 3781POPC   C1A50295  41.504   2.613   6.147
 3781POPC   D2A50296  41.827   2.610   6.457
 3781POPC   C3A50297  41.619   2.598   6.863
 3781POPC   C4A50298  41.532   2.632   7.301
 3781POPC   C1B50299  41.775   3.048   6.173
 3781POPC   C2B50300  41.562   3.041   6.592
 3781POPC   C3B50301  41.659   3.091   7.052
 3781POPC   C4B50302  41.702   3.131   7.523
 3782POPC   NC350303  25.331   2.702   5.396
 3782POPC   PO450304  24.928   3.240   5.499
 3782POPC   GL150305  25.059   2.934   5.841
 3782POPC   GL250306  25.402   2.797   5.899
 3782POPC   C1A50307  25.175   3.026   6.289
 3782POPC   D2A50308  25.426   2.800   6.599
 3782POPC   C3A50309  25.288   2.814   7.025
 3782POPC   C4A50310  25.586   2.873   7.347
 3782POPC   C1B50311  25.167   2.523   6.227
 3782POPC   C2B50312  25.150   2.373   6.685
 3782POPC   C3B50313  25.331   2.332   7.124
 3782POPC   C4B50314  25.316   2.068   7.480
 3783POPC   NC350315  17.650  35.483   5.439
 3783POPC   PO450316  17.161  35.132   5.561
 3783POPC   GL150317  17.560  35.184   5.844
 3783POPC   GL250318  17.652  35.528   5.942
 3783POPC   C1A50319  17.781  35.083   6.221
 3783POPC   D2A50320  17.710  34.851   6.627
 3783POPC   C3A50321  17.780  35.158   6.982
 3783POPC   C4A50322  17.618  35.191   7.430
 3783POPC   C1B50323  17.737  35.605   6.389
 3783POPC   C2B50324  17.888  35.660   6.806
 3783POPC   C3B50325  17.607  35.772   7.156
 3783POPC   C4B50326  17.552  35.846   7.621
 3784POPC   NC350327  25.225  15.589   5.450
 3784POPC   PO450328  25.547  16.295   5.478
 3784POPC   GL150329  25.376  16.197   5.830
 3784POPC   GL250330  25.160  15.920   5.834
 3784POPC   C1A50331  25.447  16.077   6.236
 3784POPC   D2A50332  25.199  15.924   6.570
 3784POPC   C3A50333  25.385  16.107   6.916
 3784POPC   C4A50334  25.334  15.989   7.312
 3784POPC   C1B50335  24.943  16.183   6.147
 3784POPC   C2B50336  24.737  16.172   6.560
 3784POPC   C3B50337  24.866  16.126   6.991
 3784POPC   C4B50338  24.855  16.051   7.438
 3785POPC   NC350339  23.869  10.354   5.416
 3785POPC   PO450340  23.679  10.972   5.286
 3785POPC   GL150341  23.506  10.870   5.721
 3785POPC   GL250342  23.823  10.781   5.821
 3785POPC   C1A50343  23.436  10.716   6.187
 3785POPC   D2A50344  23.472  10.733   6.669
 3785POPC   C3A50345  23.667  10.392   6.922
 3785POPC   C4A50346  23.694  10.348   7.350
 3785POPC   C1B50347  23.841  11.025   6.193
 3785POPC   C2B50348  23.928  10.992   6.611
 3785POPC   C3B50349  23.873  10.844   7.003
 3785POPC   C4B50350  24.054  10.771   7.369
 3786POPC   NC350351   4.485  26.482   5.423
 3786POPC   PO450352   4.001  26.934   5.525
 3786POPC   GL150353   4.280  26.716   5.845
 3786POPC   GL250354   4.635  26.794   5.827
 3786POPC   C1A50355   4.269  26.591   6.287
 3786POPC   D2A50356   3.924  26.798   6.487
 3786POPC   C3A50357   4.030  26.900   6.914
 3786POPC   C4A50358   4.248  26.798   7.263
 3786POPC   C1B50359   4.813  27.108   6.124
 3786POPC   C2B50360   4.716  26.993   6.567
 3786POPC   C3B50361   4.663  26.801   6.965
 3786POPC   C4B50362   4.711  27.012   7.348
 3787POPC   NC350363  13.477  18.115   5.533
 3787POPC   PO450364  14.001  18.628   5.520
 3787POPC   GL150365  13.811  18.348   5.819
 3787POPC   GL250366  13.451  18.471   5.867
 3787POPC   C1A50367  13.636  18.110   6.191
 3787POPC   D2A50368  13.428  17.939   6.577
 3787POPC   C3A50369  13.502  18.180   6.924
 3787POPC   C4A50370  13.734  18.198   7.300
 3787POPC   C1B50371  13.199  18.568   6.179
 3787POPC   C2B50372  13.204  18.409   6.561
 3787POPC   C3B50373  13.063  18.480   6.957
 3787POPC   C4B50374  13.312  18.501   7.306
 3788POPC   NC350375  32.658  28.950   5.711
 3788POPC   PO450376  32.974  29.478   5.449
 3788POPC   GL150377  33.094  29.308   5.887
 3788POPC   GL250378  32.816  29.185   6.125
 3788POPC   C1A50379  33.245  29.351   6.339
 3788POPC   D2A50380  33.005  29.166   6.679
 3788POPC   C3A50381  33.109  29.366   7.066
 3788POPC   C4A50382  33.519  29.575   7.094
 3788POPC   C1B50383  33.153  28.871   6.221
 3788POPC   C2B50384  33.260  28.699   6.627
 3788POPC   C3B50385  33.283  28.903   7.030
 3788POPC   C4B50386  33.186  28.946   7.478
 3789POPC   NC350387  10.685  43.123   5.449
 3789POPC   PO450388  10.410  42.580   4.982
 3789POPC   GL150389  10.477  42.637   5.494
 3789POPC   GL250390  10.820  42.684   5.665
 3789POPC   C1A50391  10.371  42.753   5.959
 3789POPC   D2A50392  10.360  42.842   6.430
 3789POPC   C3A50393  10.320  43.167   6.801
 3789POPC   C4A50394  10.166  43.176   7.235
 3789POPC   C1B50395  10.874  42.947   6.062
 3789POPC   C2B50396  10.917  42.976   6.523
 3789POPC   C3B50397  10.832  43.300   6.840
 3789POPC   C4B50398  10.634  43.387   7.233
 3790POPC   NC350399   6.631  42.727   5.558
 3790POPC   PO450400   6.614  43.481   5.477
 3790POPC   GL150401   6.615  43.178   5.837
 3790POPC   GL250402   6.943  43.100   5.953
 3790POPC   C1A50403   6.544  42.844   6.189
 3790POPC   D2A50404   6.414  42.807   6.626
 3790POPC   C3A50405   6.394  43.217   6.850
 3790POPC   C4A50406   6.634  43.312   7.207
 3790POPC   C1B50407   7.013  43.469   6.195
 3790POPC   C2B50408   7.170  43.448   6.628
 3790POPC   C3B50409   7.110  43.122   6.916
 3790POPC   C4B50410   6.934  42.888   7.231
 3791POPC   NC350411  33.262  13.938   5.336
 3791POPC   PO450412  33.768  13.459   5.381
 3791POPC   GL150413  33.832  13.521   5.802
 3791POPC   GL250414  33.551  13.716   5.857
 3791POPC   C1A50415  33.898  13.544   6.252
 3791POPC   D2A50416  33.903  13.401   6.681
 3791POPC   C3A50417  33.957  13.685   7.008
 3791POPC   C4A50418  33.827  13.647   7.394
 3791POPC   C1B50419  33.529  13.903   6.248
 3791POPC   C2B50420  33.701  13.883   6.614
 3791POPC   C3B50421  33.485  13.932   6.959
 3791POPC   C4B50422  33.504  14.132   7.291
 3792POPC   NC350423   5.393  33.456   5.414
 3792POPC   PO450424   4.781  33.198   5.662
 3792POPC   GL150425   5.191  33.084   5.825
 3792POPC   GL250426   5.331  32.758   5.801
 3792POPC   C1A50427   5.096  32.921   6.252
 3792POPC   D2A50428   4.966  33.184   6.591
 3792POPC   C3A50429   5.090  33.058   6.964
 3792POPC   C4A50430   4.819  32.957   7.280
 3792POPC   C1B50431   5.598  32.897   6.157
 3792POPC   C2B50432   5.488  32.869   6.609
 3792POPC   C3B50433   5.526  32.803   7.048
 3792POPC   C4B50434   5.289  32.876   7.445
 3793POPC   NC350435  41.435  31.642   5.405
 3793POPC   PO450436  41.274  31.041   5.635
 3793POPC   GL150437  41.537  31.353   5.826
 3793POPC   GL250438  41.884  31.467   5.715
 3793POPC   C1A50439  41.463  31.458   6.234
 3793POPC   D2A50440  41.763  31.403   6.524
 3793POPC   C3A50441  41.613  31.353   6.891
 3793POPC   C4A50442  41.455  31.666   7.127
 3793POPC   C1B50443  41.882  31.720   6.119
 3793POPC   C2B50444  41.723  31.953   6.464
 3793POPC   C3B50445  41.853  31.815   6.860
 3793POPC   C4B50446  41.961  31.831   7.313
 3794POPC   NC350447   1.856  39.681   5.332
 3794POPC   PO450448   1.744  40.326   5.345
 3794POPC   GL150449   1.841  40.050   5.683
 3794POPC   GL250450   2.203  40.087   5.731
 3794POPC   C1A50451   1.810  39.873   6.091
 3794POPC   D2A50452   2.019  39.877   6.517
 3794POPC   C3A50453   1.817  40.059   6.885
 3794POPC   C4A50454   1.987  40.064   7.316
 3794POPC   C1B50455   2.512  40.002   6.084
 3794POPC   C2B50456   2.554  39.893   6.524
 3794POPC   C3B50457   2.339  39.941   6.931
 3794POPC   C4B50458   2.468  40.162   7.324
 3795POPC   NC350459  34.280  25.195   5.131
 3795POPC   PO450460  34.933  25.168   5.348
 3795POPC   GL150461  34.842  25.222   5.775
 3795POPC   GL250462  34.657  25.528   5.850
 3795POPC   C1A50463  34.819  25.089   6.192
 3795POPC   D2A50464  34.724  25.306   6.593
 3795POPC   C3A50465  34.840  25.115   6.970
 3795POPC   C4A50466  34.648  25.131   7.379
 3795POPC   C1B50467  34.433  25.551   6.235
 3795POPC   C2B50468  34.286  25.631   6.665
 3795POPC   C3B50469  34.374  25.472   7.083
 3795POPC   C4B50470  34.257  25.437   7.531
 3796POPC   NC350471  39.523  42.752   5.473
 3796POPC   PO450472  39.247  43.311   5.539
 3796POPC   GL150473  38.997  43.140   5.851
 3796POPC   GL250474  39.140  42.808   5.811
 3796POPC   C1A50475  38.968  43.223   6.281
 3796POPC   D2A50476  38.855  43.220   6.688
 3796POPC   C3A50477  39.190  43.281   7.007
 3796POPC   C4A50478  39.165  43.421   7.396
 3796POPC   C1B50479  39.341  42.877   6.193
 3796POPC   C2B50480  39.363  43.018   6.615
 3796POPC   C3B50481  39.434  42.828   7.052
 3796POPC   C4B50482  39.231  42.925   7.457
 3797POPC   NC350483   4.459   2.291   5.448
 3797POPC   PO450484   4.383   2.907   5.233
 3797POPC   GL150485   4.310   2.754   5.705
 3797POPC   GL250486   4.603   2.562   5.862
 3797POPC   C1A50487   4.343   2.846   6.186
 3797POPC   D2A50488   4.647   2.992   6.527
 3797POPC   C3A50489   4.561   2.913   6.983
 3797POPC   C4A50490   4.157   2.934   7.153
 3797POPC   C1B50491   4.767   2.540   6.303
 3797POPC   C2B50492   4.450   2.516   6.642
 3797POPC   C3B50493   4.243   2.461   7.041
 3797POPC   C4B50494   4.463   2.582   7.437
 3798POPC   NC350495  31.548  37.967   5.365
 3798POPC   PO450496  31.792  37.221   5.503
 3798POPC   GL150497  31.605  37.611   5.725
 3798POPC   GL250498  31.681  38.012   5.833
 3798POPC   C1A50499  31.423  37.552   6.122
 3798POPC   D2A50500  31.264  37.460   6.522
 3798POPC   C3A50501  31.547  37.384   6.874
 3798POPC   C4A50502  31.367  37.438   7.276
 3798POPC   C1B50503  31.564  38.030   6.218
 3798POPC   C2B50504  31.675  37.798   6.546
 3798POPC   C3B50505  31.772  37.859   6.938
 3798POPC   C4B50506  31.541  37.923   7.310
 3799POPC   NC350507   2.143  21.713   5.349
 3799POPC   PO450508   1.694  21.258   5.413
 3799POPC   GL150509   1.949  21.409   5.754
 3799POPC   GL250510   1.799  21.629   5.968
 3799POPC   C1A50511   2.145  21.226   6.121
 3799POPC   D2A50512   1.939  21.340   6.523
 3799POPC   C3A50513   2.092  21.241   6.935
 3799POPC   C4A50514   1.840  21.285   7.339
 3799POPC   C1B50515   2.175  21.710   6.264
 3799POPC   C2B50516   2.214  21.767   6.739
 3799POPC   C3B50517   2.166  21.697   7.208
 3799POPC   C4B50518   2.215  21.650   7.690
 3800POPC   NC350519   6.315  23.532   5.434
 3800POPC   PO450520   6.886  23.454   5.707
 3800POPC   GL150521   6.726  23.500   6.076
 3800POPC   GL250522   6.558  23.778   5.945
 3800POPC   C1A50523   6.680  23.736   6.451
 3800POPC   D2A50524   6.633  24.021   6.765
 3800POPC   C3A50525   6.943  24.021   7.082
 3800POPC   C4A50526   6.901  24.062   7.511
 3800POPC   C1B50527   6.258  23.935   6.201
 3800POPC   C2B50528   6.144  23.917   6.606
 3800POPC   C3B50529   6.179  23.867   7.021
 3800POPC   C4B50530   6.540  23.707   7.178
 3801POPC   NC350531  35.241  38.782   5.467
 3801POPC   PO450532  34.892  38.168   5.623
 3801POPC   GL150533  35.201  38.433   5.869
 3801POPC   GL250534  35.479  38.697   5.927
 3801POPC   C1A50535  35.165  38.559   6.323
 3801POPC   D2A50536  35.147  38.423   6.770
 3801POPC   C3A50537  35.418  38.673   7.011
 3801POPC   C4A50538  35.710  38.589   7.328
 3801POPC   C1B50539  35.592  38.291   6.162
 3801POPC   C2B50540  35.671  38.041   6.542
 3801POPC   C3B50541  35.600  38.181   6.956
 3801POPC   C4B50542  35.887  38.099   7.252
 3802POPC   NC350543  22.462  37.291   5.527
 3802POPC   PO450544  22.006  37.660   5.211
 3802POPC   GL150545  22.052  37.654   5.673
 3802POPC   GL250546  21.943  37.322   5.736
 3802POPC   C1A50547  22.241  37.555   6.106
 3802POPC   D2A50548  22.372  37.347   6.516
 3802POPC   C3A50549  22.274  37.557   6.911
 3802POPC   C4A50550  22.452  37.469   7.306
 3802POPC   C1B50551  21.769  37.318   6.168
 3802POPC   C2B50552  21.909  37.582   6.512
 3802POPC   C3B50553  21.790  37.690   6.902
 3802POPC   C4B50554  21.747  37.467   7.264
 3803POPC   NC350555  20.445  30.957   5.332
 3803POPC   PO450556  20.934  30.528   5.407
 3803POPC   GL150557  20.783  30.783   5.711
 3803POPC   GL250558  20.594  30.502   5.851
 3803POPC   C1A50559  20.689  30.885   6.162
 3803POPC   D2A50560  20.754  30.635   6.549
 3803POPC   C3A50561  20.677  30.859   6.957
 3803POPC   C4A50562  20.926  31.099   7.255
 3803POPC   C1B50563  20.659  30.245   6.206
 3803POPC   C2B50564  20.563  30.123   6.623
 3803POPC   C3B50565  20.629  30.258   7.038
 3803POPC   C4B50566  20.382  30.541   7.274
 3804POPC   NC350567  17.211  10.816   5.615
 3804POPC   PO450568  17.508  10.334   5.319
 3804POPC   GL150569  17.512  10.285   5.770
 3804POPC   GL250570  17.871  10.204   5.824
 3804POPC   C1A50571  17.542  10.115   6.202
 3804POPC   D2A50572  17.531  10.390   6.558
 3804POPC   C3A50573  17.579  10.262   6.934
 3804POPC   C4A50574  17.208  10.312   7.160
 3804POPC   C1B50575  17.795  10.546   6.141
 3804POPC   C2B50576  17.974  10.608   6.602
 3804POPC   C3B50577  17.815  10.709   7.065
 3804POPC   C4B50578  17.829  10.624   7.538
 3805POPC   NC350579  12.556   5.058   5.454
 3805POPC   PO450580  13.164   4.918   5.401
 3805POPC   GL150581  13.090   5.055   5.824
 3805POPC   GL250582  12.831   4.842   5.811
 3805POPC   C1A50583  12.913   5.085   6.282
 3805POPC   D2A50584  13.142   5.090   6.686
 3805POPC   C3A50585  12.922   5.252   7.046
 3805POPC   C4A50586  12.710   5.192   7.442
 3805POPC   C1B50587  13.010   4.621   6.117
 3805POPC   C2B50588  12.867   4.553   6.542
 3805POPC   C3B50589  12.928   4.721   6.968
 3805POPC   C4B50590  12.636   4.684   7.306
 3806POPC   NC350591  26.371  12.347   5.589
 3806POPC   PO450592  25.840  12.097   5.228
 3806POPC   GL150593  25.885  12.080   5.697
 3806POPC   GL250594  25.909  12.408   5.874
 3806POPC   C1A50595  25.798  11.979   6.155
 3806POPC   D2A50596  26.054  11.845   6.531
 3806POPC   C3A50597  25.925  11.854   6.979
 3806POPC   C4A50598  25.818  11.938   7.424
 3806POPC   C1B50599  26.141  12.378   6.296
 3806POPC   C2B50600  26.044  12.319   6.743
 3806POPC   C3B50601  26.307  12.182   7.104
 3806POPC   C4B50602  26.564  12.436   7.399
 3807POPC   NC350603  34.489  32.581   5.544
 3807POPC   PO450604  35.006  32.195   5.309
 3807POPC   GL150605  34.839  32.276   5.764
 3807POPC   GL250606  34.941  32.091   6.016
 3807POPC   C1A50607  34.625  32.499   6.167
 3807POPC   D2A50608  34.592  32.576   6.623
 3807POPC   C3A50609  34.258  32.447   6.921
 3807POPC   C4A50610  34.310  32.534   7.376
 3807POPC   C1B50611  34.559  32.027   6.311
 3807POPC   C2B50612  34.596  32.061   6.762
 3807POPC   C3B50613  34.587  32.142   7.178
 3807POPC   C4B50614  34.914  32.091   7.462
 3808POPC   NC350615   8.598  40.812   5.356
 3808POPC   PO450616   9.183  40.522   5.437
 3808POPC   GL150617   8.975  40.902   5.686
 3808POPC   GL250618   9.184  41.058   5.951
 3808POPC   C1A50619   8.699  40.983   6.084
 3808POPC   D2A50620   8.857  41.131   6.501
 3808POPC   C3A50621   9.040  40.855   6.838
 3808POPC   C4A50622   8.935  40.901   7.253
 3808POPC   C1B50623   9.049  40.607   6.101
 3808POPC   C2B50624   9.243  40.324   6.402
 3808POPC   C3B50625   9.175  40.285   6.844
 3808POPC   C4B50626   9.313  40.516   7.211
 3809POPC   NC350627  30.543   8.582   5.458
 3809POPC   PO450628  30.464   7.964   5.581
 3809POPC   GL150629  30.479   8.303   5.887
 3809POPC   GL250630  30.811   8.482   5.876
 3809POPC   C1A50631  30.589   8.231   6.301
 3809POPC   D2A50632  30.434   8.337   6.668
 3809POPC   C3A50633  30.527   8.055   6.984
 3809POPC   C4A50634  30.515   8.112   7.406
 3809POPC   C1B50635  31.082   8.327   6.207
 3809POPC   C2B50636  30.981   8.379   6.646
 3809POPC   C3B50637  31.113   8.155   7.020
 3809POPC   C4B50638  31.154   7.818   7.333
 3810POPC   NC350639  16.702   2.206   5.451
 3810POPC   PO450640  16.601   1.582   5.447
 3810POPC   GL150641  16.734   1.768   5.821
 3810POPC   GL250642  16.595   2.087   5.927
 3810POPC   C1A50643  16.692   1.714   6.264
 3810POPC   D2A50644  16.922   1.809   6.622
 3810POPC   C3A50645  16.711   1.691   6.966
 3810POPC   C4A50646  16.661   1.862   7.377
 3810POPC   C1B50647  16.806   2.241   6.281
 3810POPC   C2B50648  16.828   2.366   6.689
 3810POPC   C3B50649  16.981   2.130   7.043
 3810POPC   C4B50650  17.014   2.231   7.469
 3811POPC   NC350651  44.532  36.558   5.072
 3811POPC   PO450652  44.473  36.013   5.474
 3811POPC   GL150653  44.733  36.107   5.833
 3811POPC   GL250654  44.802  35.757   5.825
 3811POPC   C1A50655  44.871  36.332   6.218
 3811POPC   D2A50656  44.629  36.250   6.610
 3811POPC   C3A50657  44.553  36.215   7.044
 3811POPC   C4A50658  44.350  35.821   7.047
 3811POPC   C1B50659  44.953  35.833   6.254
 3811POPC   C2B50660   0.121  36.094   6.596
 3811POPC   C3B50661  44.986  35.978   7.002
 3811POPC   C4B50662   0.162  35.870   7.389
 3812POPC   NC350663   8.868   4.028   5.323
 3812POPC   PO450664   8.850   4.694   5.413
 3812POPC   GL150665   9.042   4.425   5.781
 3812POPC   GL250666   9.055   4.051   5.789
 3812POPC   C1A50667   9.041   4.344   6.245
 3812POPC   D2A50668   8.891   4.542   6.615
 3812POPC   C3A50669   9.084   4.382   6.939
 3812POPC   C4A50670   8.891   4.476   7.315
 3812POPC   C1B50671   8.676   4.043   6.054
 3812POPC   C2B50672   8.615   4.138   6.497
 3812POPC   C3B50673   8.605   4.165   6.943
 3812POPC   C4B50674   8.908   3.965   7.197
 3813POPC   NC350675  12.864  18.155   5.196
 3813POPC   PO450676  13.278  18.622   5.406
 3813POPC   GL150677  12.944  18.471   5.720
 3813POPC   GL250678  12.972  18.127   5.718
 3813POPC   C1A50679  12.730  18.307   6.136
 3813POPC   D2A50680  12.705  18.462   6.568
 3813POPC   C3A50681  12.644  18.166   6.960
 3813POPC   C4A50682  12.793  18.347   7.380
 3813POPC   C1B50683  13.137  18.019   6.129
 3813POPC   C2B50684  12.923  17.994   6.530
 3813POPC   C3B50685  13.002  17.798   6.910
 3813POPC   C4B50686  13.141  17.978   7.286
 3814POPC   NC350687  19.137  37.533   5.477
 3814POPC   PO450688  19.241  38.184   5.689
 3814POPC   GL150689  19.142  37.811   5.922
 3814POPC   GL250690  18.790  37.766   5.916
 3814POPC   C1A50691  19.084  37.488   6.240
 3814POPC   D2A50692  18.822  37.474   6.615
 3814POPC   C3A50693  19.017  37.434   6.976
 3814POPC   C4A50694  19.193  37.402   7.382
 3814POPC   C1B50695  18.888  37.961   6.353
 3814POPC   C2B50696  18.967  38.030   6.820
 3814POPC   C3B50697  18.922  37.873   7.243
 3814POPC   C4B50698  18.689  37.516   7.372
 3815POPC   NC350699  15.681  42.769   5.426
 3815POPC   PO450700  15.921  43.307   5.129
 3815POPC   GL150701  15.981  43.153   5.605
 3815POPC   GL250702  15.883  43.449   5.737
 3815POPC   C1A50703  15.800  42.997   6.096
 3815POPC   D2A50704  15.729  42.822   6.557
 3815POPC   C3A50705  15.643  42.988   6.965
 3815POPC   C4A50706  15.812  42.969   7.366
 3815POPC   C1B50707  15.838  43.510   6.163
 3815POPC   C2B50708  15.800  43.336   6.555
 3815POPC   C3B50709  15.732  43.476   6.940
 3815POPC   C4B50710  16.000  43.451   7.288
 3816POPC   NC350711   6.266  15.666   5.570
 3816POPC   PO450712   6.753  16.113   5.403
 3816POPC   GL150713   6.499  16.069   5.788
 3816POPC   GL250714   6.155  16.208   5.731
 3816POPC   C1A50715   6.569  15.891   6.204
 3816POPC   D2A50716   6.743  15.641   6.530
 3816POPC   C3A50717   6.627  15.877   6.865
 3816POPC   C4A50718   6.524  15.792   7.269
 3816POPC   C1B50719   6.256  16.313   6.182
 3816POPC   C2B50720   6.260  16.133   6.615
 3816POPC   C3B50721   6.270  16.239   7.076
 3816POPC   C4B50722   6.396  16.209   7.516
 3817POPC   NC350723  43.652  31.127   5.536
 3817POPC   PO450724  43.073  31.547   5.422
 3817POPC   GL150725  43.039  31.434   5.862
 3817POPC   GL250726  43.406  31.382   5.948
 3817POPC   C1A50727  43.084  31.593   6.314
 3817POPC   D2A50728  43.299  31.474   6.714
 3817POPC   C3A50729  43.083  31.185   6.988
 3817POPC   C4A50730  42.791  31.414   7.264
 3817POPC   C1B50731  43.600  31.657   6.289
 3817POPC   C2B50732  43.501  31.951   6.654
 3817POPC   C3B50733  43.465  31.898   7.101
 3817POPC   C4B50734  43.313  31.509   7.299
 3818POPC   NC350735   6.600  30.194   5.260
 3818POPC   PO450736   6.596  29.558   5.501
 3818POPC   GL150737   6.814  29.809   5.770
 3818POPC   GL250738   6.636  30.084   5.779
 3818POPC   C1A50739   6.796  29.789   6.208
 3818POPC   D2A50740   6.699  29.489   6.550
 3818POPC   C3A50741   6.823  29.669   6.954
 3818POPC   C4A50742   6.891  30.092   7.141
 3818POPC   C1B50743   6.449  30.145   6.208
 3818POPC   C2B50744   6.497  29.964   6.594
 3818POPC   C3B50745   6.336  29.822   6.958
 3818POPC   C4B50746   6.362  30.042   7.368
 3819POPC   NC350747  22.617  17.013   5.384
 3819POPC   PO450748  23.048  16.480   5.267
 3819POPC   GL150749  23.145  16.507   5.719
 3819POPC   GL250750  22.951  16.792   5.777
 3819POPC   C1A50751  22.978  16.338   6.152
 3819POPC   D2A50752  22.743  16.419   6.576
 3819POPC   C3A50753  22.942  16.452   6.982
 3819POPC   C4A50754  22.916  16.645   7.392
 3819POPC   C1B50755  22.769  16.799   6.212
 3819POPC   C2B50756  22.997  16.908   6.597
 3819POPC   C3B50757  23.233  16.869   6.975
 3819POPC   C4B50758  23.322  16.956   7.391
 3820POPC   NC350759  11.228   1.295   5.123
 3820POPC   PO450760  11.676   1.453   5.641
 3820POPC   GL150761  11.330   1.191   5.847
 3820POPC   GL250762  10.931   1.222   5.784
 3820POPC   C1A50763  11.127   1.351   6.230
 3820POPC   D2A50764  11.077   1.235   6.617
 3820POPC   C3A50765  11.209   1.429   6.972
 3820POPC   C4A50766  11.508   1.257   7.253
 3820POPC   C1B50767  10.750   0.956   6.163
 3820POPC   C2B50768  10.791   0.831   6.627
 3820POPC   C3B50769  10.715   1.107   6.964
 3820POPC   C4B50770  10.920   1.177   7.317
 3821POPC   NC350771   4.927  22.876   5.574
 3821POPC   PO450772   5.393  22.390   5.627
 3821POPC   GL150773   5.278  22.726   5.934
 3821POPC   GL250774   5.236  23.076   5.887
 3821POPC   C1A50775   5.152  22.851   6.371
 3821POPC   D2A50776   4.886  22.792   6.746
 3821POPC   C3A50777   5.224  22.776   7.006
 3821POPC   C4A50778   5.404  22.902   7.368
 3821POPC   C1B50779   4.948  23.278   6.177
 3821POPC   C2B50780   4.839  23.280   6.606
 3821POPC   C3B50781   5.020  23.248   7.058
 3821POPC   C4B50782   4.971  23.198   7.556
 3822POPC   NC350783   8.323  24.774   5.472
 3822POPC   PO450784   7.997  24.099   5.467
 3822POPC   GL150785   8.163  24.398   5.780
 3822POPC   GL250786   7.970  24.659   5.853
 3822POPC   C1A50787   8.175  24.402   6.249
 3822POPC   D2A50788   8.068  24.671   6.610
 3822POPC   C3A50789   8.336  24.533   6.951
 3822POPC   C4A50790   8.368  24.199   7.217
 3822POPC   C1B50791   7.686  24.547   6.204
 3822POPC   C2B50792   7.671  24.284   6.566
 3822POPC   C3B50793   7.880  24.255   6.972
 3822POPC   C4B50794   7.990  24.486   7.341
 3823POPC   NC350795  13.656  41.907   5.329
 3823POPC   PO450796  13.178  41.360   5.355
 3823POPC   GL150797  13.494  41.550   5.672
 3823POPC   GL250798  13.402  41.881   5.756
 3823POPC   C1A50799  13.752  41.644   6.069
 3823POPC   D2A50800  13.863  41.391   6.455
 3823POPC   C3A50801  13.810  41.578   6.856
 3823POPC   C4A50802  13.820  41.578   7.276
 3823POPC   C1B50803  13.300  41.951   6.159
 3823POPC   C2B50804  13.463  41.807   6.548
 3823POPC   C3B50805  13.349  41.815   6.984
 3823POPC   C4B50806  13.205  42.108   7.303
 3824POPC   NC350807   1.601  21.743   5.486
 3824POPC   PO450808   2.123  22.183   5.257
 3824POPC   GL150809   1.969  22.071   5.716
 3824POPC   GL250810   1.693  22.194   5.873
 3824POPC   C1A50811   2.077  22.189   6.188
 3824POPC   D2A50812   1.979  22.328   6.618
 3824POPC   C3A50813   2.095  22.182   7.022
 3824POPC   C4A50814   1.962  22.079   7.466
 3824POPC   C1B50815   1.612  22.411   6.263
 3824POPC   C2B50816   1.515  22.528   6.670
 3824POPC   C3B50817   1.790  22.664   6.966
 3824POPC   C4B50818   1.644  22.416   7.243
 3825POPC   NC350819  19.296   9.146   5.433
 3825POPC   PO450820  19.020   8.559   5.559
 3825POPC   GL150821  19.156   8.879   5.832
 3825POPC   GL250822  18.966   9.200   5.818
 3825POPC   C1A50823  19.171   8.914   6.251
 3825POPC   D2A50824  19.062   8.741   6.631
 3825POPC   C3A50825  19.213   8.852   7.019
 3825POPC   C4A50826  19.054   8.772   7.407
 3825POPC   C1B50827  18.670   8.983   6.025
 3825POPC   C2B50828  18.687   9.065   6.430
 3825POPC   C3B50829  18.724   9.058   6.844
 3825POPC   C4B50830  18.908   9.258   7.186
 3826POPC   NC350831   6.148  14.043   5.553
 3826POPC   PO450832   5.685  14.466   5.633
 3826POPC   GL150833   6.012  14.400   5.894
 3826POPC   GL250834   6.142  14.702   5.866
 3826POPC   C1A50835   6.155  14.310   6.298
 3826POPC   D2A50836   5.976  14.147   6.679
 3826POPC   C3A50837   5.913  14.295   7.076
 3826POPC   C4A50838   5.722  14.223   7.476
 3826POPC   C1B50839   6.359  14.808   6.227
 3826POPC   C2B50840   6.313  14.666   6.643
 3826POPC   C3B50841   6.037  14.761   6.976
 3826POPC   C4B50842   6.004  14.651   7.462
 3827POPC   NC350843   1.420  32.344   5.261
 3827POPC   PO450844   0.879  31.997   5.466
 3827POPC   GL150845   1.287  32.006   5.637
 3827POPC   GL250846   1.248  32.336   5.731
 3827POPC   C1A50847   1.301  31.986   6.095
 3827POPC   D2A50848   1.281  32.233   6.468
 3827POPC   C3A50849   1.204  32.037   6.890
 3827POPC   C4A50850   1.153  32.279   7.265
 3827POPC   C1B50851   1.059  32.491   6.061
 3827POPC   C2B50852   0.845  32.546   6.437
 3827POPC   C3B50853   1.051  32.540   6.813
 3827POPC   C4B50854   0.908  32.706   7.165
 3828POPC   NC350855   6.051  17.889   5.336
 3828POPC   PO450856   5.774  17.184   5.415
 3828POPC   GL150857   5.796  17.516   5.751
 3828POPC   GL250858   6.125  17.663   5.811
 3828POPC   C1A50859   5.607  17.484   6.166
 3828POPC   D2A50860   5.763  17.338   6.560
 3828POPC   C3A50861   5.746  16.993   6.839
 3828POPC   C4A50862   5.751  17.256   7.181
 3828POPC   C1B50863   6.053  17.706   6.268
 3828POPC   C2B50864   6.137  17.646   6.706
 3828POPC   C3B50865   5.993  17.765   7.117
 3828POPC   C4B50866   6.189  17.854   7.517
 3829POPC   NC350867  36.772  12.303   5.202
 3829POPC   PO450868  37.168  11.746   5.199
 3829POPC   GL150869  37.094  11.894   5.694
 3829POPC   GL250870  36.816  11.874   5.949
 3829POPC   C1A50871  37.287  11.937   6.129
 3829POPC   D2A50872  37.406  12.202   6.503
 3829POPC   C3A50873  37.261  12.134   6.948
 3829POPC   C4A50874  37.088  12.250   7.354
 3829POPC   C1B50875  36.880  12.204   6.296
 3829POPC   C2B50876  36.790  12.130   6.706
 3829POPC   C3B50877  36.668  12.111   7.115
 3829POPC   C4B50878  36.675  11.777   7.371
 3830POPC   NC350879  21.207  34.570   5.418
 3830POPC   PO450880  21.896  34.342   5.416
 3830POPC   GL150881  21.607  34.454   5.743
 3830POPC   GL250882  21.622  34.831   5.795
 3830POPC   C1A50883  21.288  34.444   6.089
 3830POPC   D2A50884  21.116  34.403   6.525
 3830POPC   C3A50885  21.194  34.347   6.982
 3830POPC   C4A50886  21.628  34.366   7.184
 3830POPC   C1B50887  21.389  34.937   6.205
 3830POPC   C2B50888  21.239  34.933   6.616
 3830POPC   C3B50889  21.461  34.764   6.930
 3830POPC   C4B50890  21.533  34.846   7.354
 3831POPC   NC350891  11.765  39.180   5.386
 3831POPC   PO450892  11.837  39.821   5.126
 3831POPC   GL150893  11.848  39.688   5.619
 3831POPC   GL250894  12.016  39.881   5.907
 3831POPC   C1A50895  11.809  39.445   6.070
 3831POPC   D2A50896  11.721  39.444   6.570
 3831POPC   C3A50897  11.878  39.249   6.970
 3831POPC   C4A50898  11.950  39.496   7.337
 3831POPC   C1B50899  12.067  39.813   6.381
 3831POPC   C2B50900  12.095  39.702   6.844
 3831POPC   C3B50901  12.395  39.476   7.126
 3831POPC   C4B50902  12.423  39.461   7.593
 3832POPC   NC350903   7.826  39.198   5.586
 3832POPC   PO450904   7.188  39.159   5.407
 3832POPC   GL150905   7.364  39.322   5.789
 3832POPC   GL250906   7.609  39.614   5.796
 3832POPC   C1A50907   7.213  39.287   6.198
 3832POPC   D2A50908   7.155  39.410   6.627
 3832POPC   C3A50909   7.175  39.234   7.071
 3832POPC   C4A50910   7.310  39.263   7.522
 3832POPC   C1B50911   7.481  39.712   6.243
 3832POPC   C2B50912   7.522  39.769   6.706
 3832POPC   C3B50913   7.531  39.603   7.156
 3832POPC   C4B50914   7.378  39.764   7.582
 3833POPC   NC350915   4.069  37.093   5.357
 3833POPC   PO450916   4.240  37.865   5.340
 3833POPC   GL150917   4.149  37.583   5.731
 3833POPC   GL250918   4.441  37.357   5.869
 3833POPC   C1A50919   4.080  37.679   6.200
 3833POPC   D2A50920   4.358  37.908   6.507
 3833POPC   C3A50921   4.493  37.865   6.951
 3833POPC   C4A50922   4.276  37.878   7.387
 3833POPC   C1B50923   4.492  37.397   6.329
 3833POPC   C2B50924   4.220  37.439   6.694
 3833POPC   C3B50925   4.290  37.433   7.127
 3833POPC   C4B50926   4.714  37.345   7.286
 3834POPC   NC350927   2.527  44.143   5.370
 3834POPC   PO450928   2.412  43.622   5.803
 3834POPC   GL150929   2.812  43.812   5.843
 3834POPC   GL250930   2.809  44.150   5.810
 3834POPC   C1A50931   2.892  43.879   6.263
 3834POPC   D2A50932   2.574  43.850   6.537
 3834POPC   C3A50933   2.614  43.665   6.921
 3834POPC   C4A50934   2.423  43.634   7.305
 3834POPC   C1B50935   3.130  44.303   6.108
 3834POPC   C2B50936   3.162  44.233   6.558
 3834POPC   C3B50937   2.832  44.170   6.865
 3834POPC   C4B50938   2.792  43.999   7.261
 3835POPC   NC350939  42.698  39.122   5.474
 3835POPC   PO450940  42.081  39.390   5.401
 3835POPC   GL150941  42.251  39.228   5.775
 3835POPC   GL250942  42.328  38.881   5.823
 3835POPC   C1A50943  42.344  39.207   6.212
 3835POPC   D2A50944  42.251  39.386   6.579
 3835POPC   C3A50945  42.459  39.241   6.890
 3835POPC   C4A50946  42.300  39.336   7.249
 3835POPC   C1B50947  42.073  38.765   6.159
 3835POPC   C2B50948  42.091  38.901   6.587
 3835POPC   C3B50949  42.170  38.840   7.008
 3835POPC   C4B50950  42.092  38.950   7.446
 3836POPC   NC350951  12.057   4.781   5.226
 3836POPC   PO450952  12.279   5.386   5.331
 3836POPC   GL150953  12.078   5.067   5.683
 3836POPC   GL250954  12.224   4.736   5.745
 3836POPC   C1A50955  12.012   4.909   6.177
 3836POPC   D2A50956  11.991   5.030   6.655
 3836POPC   C3A50957  12.001   4.862   7.095
 3836POPC   C4A50958  11.769   4.986   7.476
 3836POPC   C1B50959  12.475   4.676   6.126
 3836POPC   C2B50960  12.468   4.864   6.517
 3836POPC   C3B50961  12.479   4.987   6.932
 3836POPC   C4B50962  12.284   5.296   7.179
 3837POPC   NC350963   0.629  40.210   5.565
 3837POPC   PO450964   0.096  39.813   5.436
 3837POPC   GL150965   0.416  39.765   5.747
 3837POPC   GL250966   0.253  40.051   5.910
 3837POPC   C1A50967   0.644  39.835   6.152
 3837POPC   D2A50968   0.467  39.882   6.550
 3837POPC   C3A50969   0.674  39.793   6.924
 3837POPC   C4A50970   0.336  39.684   7.203
 3837POPC   C1B50971   0.422  40.346   6.224
 3837POPC   C2B50972   0.611  40.368   6.657
 3837POPC   C3B50973   0.478  40.232   7.088
 3837POPC   C4B50974   0.674  40.249   7.484
 3838POPC   NC350975  31.864  12.118   5.394
 3838POPC   PO450976  32.534  12.079   5.290
 3838POPC   GL150977  32.334  12.100   5.736
 3838POPC   GL250978  32.092  11.812   5.781
 3838POPC   C1A50979  32.231  12.229   6.208
 3838POPC   D2A50980  32.452  12.428   6.570
 3838POPC   C3A50981  32.342  12.258   6.952
 3838POPC   C4A50982  31.930  12.181   7.073
 3838POPC   C1B50983  32.338  11.733   6.168
 3838POPC   C2B50984  32.312  11.902   6.587
 3838POPC   C3B50985  32.172  11.755   6.995
 3838POPC   C4B50986  32.366  11.696   7.394
 3839POPC   NC350987  42.213  31.795   5.429
 3839POPC   PO450988  42.731  32.243   5.469
 3839POPC   GL150989  42.490  32.309   5.842
 3839POPC   GL250990  42.252  32.025   5.878
 3839POPC   C1A50991  42.570  32.481   6.248
 3839POPC   D2A50992  42.633  32.638   6.665
 3839POPC   C3A50993  42.616  32.290   6.972
 3839POPC   C4A50994  42.281  32.269   7.245
 3839POPC   C1B50995  42.206  32.099   6.309
 3839POPC   C2B50996  42.146  32.221   6.743
 3839POPC   C3B50997  41.808  32.264   7.089
 3839POPC   C4B50998  41.894  32.314   7.567
 3840POPC   NC350999  14.467  44.168   5.213
 3840POPC   PO451000  14.577  43.623   5.664
 3840POPC   GL151001  14.527  43.908   6.022
 3840POPC   GL251002  14.289  44.092   5.800
 3840POPC   C1A51003  14.629  43.917   6.473
 3840POPC   D2A51004  14.898  43.679   6.777
 3840POPC   C3A51005  14.652  43.721   7.147
 3840POPC   C4A51006  14.414  44.073   7.213
 3840POPC   C1B51007  14.035  43.814   6.053
 3840POPC   C2B51008  14.145  43.702   6.443
 3840POPC   C3B51009  14.040  43.814   6.857
 3840POPC   C4B51010  14.112  43.666   7.256
 3841POPC   NC351011  31.582  25.356   5.351
 3841POPC   PO451012  30.952  25.678   5.457
 3841POPC   GL151013  31.255  25.495   5.724
 3841POPC   GL251014  31.196  25.731   5.982
 3841POPC   C1A51015  31.393  25.154   6.029
 3841POPC   D2A51016  31.590  24.890   6.352
 3841POPC   C3A51017  31.609  24.959   6.819
 3841POPC   C4A51018  31.632  24.933   7.267
 3841POPC   C1B51019  31.645  25.589   6.061
 3841POPC   C2B51020  31.680  25.379   6.457
 3841POPC   C3B51021  31.666  25.469   6.893
 3841POPC   C4B51022  31.426  25.494   7.272
 3842POPC   NC351023   2.205  31.963   5.465
 3842POPC   PO451024   1.856  32.518   5.289
 3842POPC   GL151025   1.759  32.296   5.663
 3842POPC   GL251026   2.063  32.304   5.822
 3842POPC   C1A51027   1.616  32.413   6.096
 3842POPC   D2A51028   1.786  32.307   6.510
 3842POPC   C3A51029   1.555  32.391   6.898
 3842POPC   C4A51030   1.787  32.323   7.261
 3842POPC   C1B51031   2.225  32.219   6.224
 3842POPC   C2B51032   2.337  32.147   6.637
 3842POPC   C3B51033   2.272  32.321   7.027
 3842POPC   C4B51034   2.256  32.283   7.456
 3843POPC   NC351035  22.729  16.240   5.565
 3843POPC   PO451036  22.232  15.906   5.333
 3843POPC   GL151037  22.073  15.991   5.778
 3843POPC   GL251038  22.389  15.979   5.871
 3843POPC   C1A51039  22.092  16.012   6.284
 3843POPC   D2A51040  22.399  15.997   6.657
 3843POPC   C3A51041  22.205  15.913   7.088
 3843POPC   C4A51042  22.000  16.119   7.463
 3843POPC   C1B51043  22.452  16.342   6.157
 3843POPC   C2B51044  22.247  16.476   6.519
 3843POPC   C3B51045  22.272  16.417   6.930
 3843POPC   C4B51046  22.519  16.298   7.255
 3844POPC   NC351047  31.340   3.291   5.490
 3844POPC   PO451048  31.941   3.497   5.337
 3844POPC   GL151049  31.759   3.387   5.792
 3844POPC   GL251050  31.425   3.533   5.913
 3844POPC   C1A51051  31.715   3.317   6.259
 3844POPC   D2A51052  31.458   3.279   6.611
 3844POPC   C3A51053  31.716   3.404   6.914
 3844POPC   C4A51054  31.709   3.709   7.229
 3844POPC   C1B51055  31.184   3.584   6.279
 3844POPC   C2B51056  30.909   3.310   6.488
 3844POPC   C3B51057  31.022   3.197   6.880
 3844POPC   C4B51058  31.233   3.482   7.116
 3845POPC   NC351059  24.707  35.057   5.427
 3845POPC   PO451060  23.982  34.968   5.440
 3845POPC   GL151061  24.302  35.068   5.761
 3845POPC   GL251062  24.426  35.427   5.720
 3845POPC   C1A51063  24.352  35.214   6.207
 3845POPC   D2A51064  24.514  35.221   6.640
 3845POPC   C3A51065  24.327  35.293   7.047
 3845POPC   C4A51066  24.254  35.210   7.493
 3845POPC   C1B51067  24.659  35.597   6.082
 3845POPC   C2B51068  24.598  35.726   6.521
 3845POPC   C3B51069  24.715  35.614   6.942
 3845POPC   C4B51070  24.562  35.616   7.361
 3846POPC   NC351071   9.617  40.634   5.353
 3846POPC   PO451072   9.533  41.237   5.529
 3846POPC   GL151073   9.667  40.870   5.832
 3846POPC   GL251074   9.929  40.574   5.757
 3846POPC   C1A51075   9.487  40.795   6.256
 3846POPC   D2A51076   9.399  41.093   6.584
 3846POPC   C3A51077   9.562  40.888   6.933
 3846POPC   C4A51078   9.693  40.825   7.360
 3846POPC   C1B51079   9.922  40.543   6.209
 3846POPC   C2B51080   9.687  40.471   6.615
 3846POPC   C3B51081   9.869  40.498   7.002
 3846POPC   C4B51082  10.187  40.670   7.261
 3847POPC   NC351083  20.397   9.862   5.416
 3847POPC   PO451084  19.808   9.442   5.513
 3847POPC   GL151085  19.997   9.688   5.800
 3847POPC   GL251086  20.189   9.407   5.872
 3847POPC   C1A51087  19.886   9.853   6.219
 3847POPC   D2A51088  19.591   9.967   6.565
 3847POPC   C3A51089  19.777   9.950   6.976
 3847POPC   C4A51090  20.181   9.902   7.176
 3847POPC   C1B51091  19.829   9.343   6.182
 3847POPC   C2B51092  19.718   9.407   6.639
 3847POPC   C3B51093  19.907   9.458   7.066
 3847POPC   C4B51094  19.739   9.485   7.453
 3848POPC   NC351095  25.871  27.647   5.470
 3848POPC   PO451096  26.123  27.243   5.796
 3848POPC   GL151097  26.075  27.671   5.928
 3848POPC   GL251098  25.715  27.734   5.970
 3848POPC   C1A51099  26.121  27.937   6.254
 3848POPC   D2A51100  25.964  27.706   6.578
 3848POPC   C3A51101  25.953  27.763   7.016
 3848POPC   C4A51102  26.071  27.896   7.436
 3848POPC   C1B51103  25.613  27.425   6.343
 3848POPC   C2B51104  25.708  27.333   6.805
 3848POPC   C3B51105  25.805  27.275   7.242
 3848POPC   C4B51106  25.616  27.272   7.685
 3849POPC   NC351107  27.908  19.130   5.363
 3849POPC   PO451108  27.274  18.853   5.181
 3849POPC   GL151109  27.388  19.090   5.578
 3849POPC   GL251110  27.267  19.422   5.714
 3849POPC   C1A51111  27.593  19.049   5.997
 3849POPC   D2A51112  27.679  18.747   6.358
 3849POPC   C3A51113  27.648  18.963   6.765
 3849POPC   C4A51114  27.838  18.973   7.166
 3849POPC   C1B51115  27.266  19.610   6.178
 3849POPC   C2B51116  27.369  19.552   6.662
 3849POPC   C3B51117  27.145  19.423   7.079
 3849POPC   C4B51118  27.339  19.022   7.244
 3850POPC   NC351119   6.898   2.536   5.118
 3850POPC   PO451120   6.397   2.918   5.442
 3850POPC   GL151121   6.464   2.657   5.779
 3850POPC   GL251122   6.813   2.620   5.671
 3850POPC   C1A51123   6.339   2.572   6.232
 3850POPC   D2A51124   6.391   2.884   6.555
 3850POPC   C3A51125   6.438   2.834   6.998
 3850POPC   C4A51126   6.437   2.429   7.195
 3850POPC   C1B51127   6.817   2.675   6.135
 3850POPC   C2B51128   6.766   2.482   6.550
 3850POPC   C3B51129   6.889   2.456   6.975
 3850POPC   C4B51130   6.833   2.738   7.314
 3851POPC   NC351131   2.803  21.653   5.445
 3851POPC   PO451132   2.217  21.242   5.364
 3851POPC   GL151133   2.502  21.326   5.724
 3851POPC   GL251134   2.847  21.171   5.774
 3851POPC   C1A51135   2.623  21.485   6.138
 3851POPC   D2A51136   2.459  21.360   6.550
 3851POPC   C3A51137   2.583  21.463   6.992
 3851POPC   C4A51138   2.366  21.260   7.377
 3851POPC   C1B51139   3.072  21.229   6.190
 3851POPC   C2B51140   2.989  21.477   6.554
 3851POPC   C3B51141   3.084  21.290   6.943
 3851POPC   C4B51142   3.085  21.445   7.361
 3852POPC   NC351143  26.072  14.050   5.271
 3852POPC   PO451144  26.041  14.701   5.428
 3852POPC   GL151145  26.159  14.514   5.772
 3852POPC   GL251146  26.063  14.178   5.770
 3852POPC   C1A51147  26.024  14.591   6.162
 3852POPC   D2A51148  26.005  14.289   6.525
 3852POPC   C3A51149  26.031  14.511   6.927
 3852POPC   C4A51150  25.954  14.692   7.323
 3852POPC   C1B51151  26.342  14.168   6.141
 3852POPC   C2B51152  26.452  14.050   6.590
 3852POPC   C3B51153  26.414  14.028   7.031
 3852POPC   C4B51154  26.086  14.142   7.295
 3853POPC   NC351155   5.462  26.994   5.514
 3853POPC   PO451156   4.938  26.612   5.433
 3853POPC   GL151157   5.154  26.674   5.817
 3853POPC   GL251158   5.523  26.652   5.906
 3853POPC   C1A51159   4.965  26.634   6.221
 3853POPC   D2A51160   4.924  26.488   6.615
 3853POPC   C3A51161   5.149  26.771   6.816
 3853POPC   C4A51162   5.148  26.798   7.222
 3853POPC   C1B51163   5.326  27.004   6.190
 3853POPC   C2B51164   5.123  27.293   6.513
 3853POPC   C3B51165   5.019  27.258   6.958
 3853POPC   C4B51166   5.439  27.182   7.106
 3854POPC   NC351167  15.542  25.365   5.468
 3854POPC   PO451168  15.050  24.976   5.360
 3854POPC   GL151169  15.103  25.197   5.789
 3854POPC   GL251170  14.773  25.082   5.895
 3854POPC   C1A51171  15.362  25.235   6.219
 3854POPC   D2A51172  15.555  25.467   6.610
 3854POPC   C3A51173  15.399  25.273   6.983
 3854POPC   C4A51174  15.305  25.509   7.395
 3854POPC   C1B51175  14.943  24.854   6.245
 3854POPC   C2B51176  15.082  24.985   6.659
 3854POPC   C3B51177  14.903  25.226   7.017
 3854POPC   C4B51178  15.018  25.105   7.437
 3855POPC   NC351179  27.072  22.276   5.455
 3855POPC   PO451180  26.446  22.049   5.367
 3855POPC   GL151181  26.592  21.874   5.797
 3855POPC   GL251182  26.941  21.867   5.795
 3855POPC   C1A51183  26.703  21.907   6.249
 3855POPC   D2A51184  27.030  21.999   6.578
 3855POPC   C3A51185  26.855  21.944   6.992
 3855POPC   C4A51186  26.718  21.918   7.428
 3855POPC   C1B51187  27.075  22.194   6.083
 3855POPC   C2B51188  26.936  22.465   6.402
 3855POPC   C3B51189  26.937  22.463   6.838
 3855POPC   C4B51190  26.972  22.391   7.252
 3856POPC   NC351191  31.427  16.981   5.407
 3856POPC   PO451192  31.320  16.332   5.318
 3856POPC   GL151193  31.304  16.605   5.743
 3856POPC   GL251194  31.097  16.923   5.798
 3856POPC   C1A51195  31.572  16.635   6.134
 3856POPC   D2A51196  31.571  16.771   6.567
 3856POPC   C3A51197  31.565  16.582   6.959
 3856POPC   C4A51198  31.864  16.709   7.254
 3856POPC   C1B51199  31.072  16.743   6.199
 3856POPC   C2B51200  31.096  16.632   6.602
 3856POPC   C3B51201  31.096  16.850   6.944
 3856POPC   C4B51202  31.172  16.782   7.348
 3857POPC   NC351203  40.274   4.817   5.365
 3857POPC   PO451204  40.119   5.391   5.352
 3857POPC   GL151205  40.241   5.197   5.761
 3857POPC   GL251206  39.980   4.951   5.802
 3857POPC   C1A51207  40.261   5.003   6.216
 3857POPC   D2A51208  40.042   5.011   6.622
 3857POPC   C3A51209  40.201   4.979   7.046
 3857POPC   C4A51210  40.196   4.955   7.504
 3857POPC   C1B51211  39.736   4.882   6.200
 3857POPC   C2B51212  39.551   5.051   6.599
 3857POPC   C3B51213  39.690   5.111   7.019
 3857POPC   C4B51214  39.732   4.792   7.317
 3858POPC   NC351215   5.490  13.322   5.612
 3858POPC   PO451216   4.849  13.608   5.397
 3858POPC   GL151217   4.956  13.738   5.806
 3858POPC   GL251218   4.628  13.550   5.846
 3858POPC   C1A51219   5.263  13.708   6.202
 3858POPC   D2A51220   5.199  13.465   6.605
 3858POPC   C3A51221   5.266  13.673   7.012
 3858POPC   C4A51222   5.285  13.932   7.367
 3858POPC   C1B51223   4.790  13.515   6.230
 3858POPC   C2B51224   4.712  13.707   6.590
 3858POPC   C3B51225   4.793  13.470   6.932
 3858POPC   C4B51226   4.833  13.664   7.292
 3859POPC   NC351227   0.827  29.127   5.500
 3859POPC   PO451228   0.373  28.666   5.306
 3859POPC   GL151229   0.413  28.886   5.731
 3859POPC   GL251230   0.754  28.755   5.849
 3859POPC   C1A51231   0.288  29.280   5.995
 3859POPC   D2A51232   0.156  29.285   6.444
 3859POPC   C3A51233   0.296  29.456   6.854
 3859POPC   C4A51234   0.648  29.419   7.174
 3859POPC   C1B51235   0.627  28.963   6.218
 3859POPC   C2B51236   0.424  28.874   6.603
 3859POPC   C3B51237   0.599  28.864   7.028
 3859POPC   C4B51238   0.667  28.541   7.362
 3860POPC   NC351239  29.189  18.472   5.115
 3860POPC   PO451240  29.245  19.147   5.346
 3860POPC   GL151241  29.010  18.949   5.666
 3860POPC   GL251242  29.231  19.102   5.871
 3860POPC   C1A51243  28.798  19.015   6.092
 3860POPC   D2A51244  28.953  18.968   6.519
 3860POPC   C3A51245  28.791  18.790   6.871
 3860POPC   C4A51246  28.826  18.999   7.252
 3860POPC   C1B51247  29.335  18.798   6.211
 3860POPC   C2B51248  29.445  18.853   6.662
 3860POPC   C3B51249  29.279  18.971   7.037
 3860POPC   C4B51250  29.327  18.809   7.439
 3861POPC   NC351251  18.615  23.136   5.397
 3861POPC   PO451252  18.231  23.729   5.378
 3861POPC   GL151253  18.319  23.811   5.794
 3861POPC   GL251254  18.637  23.682   5.868
 3861POPC   C1A51255  18.270  23.669   6.223
 3861POPC   D2A51256  18.128  23.460   6.582
 3861POPC   C3A51257  18.287  23.697   6.943
 3861POPC   C4A51258  18.242  23.583   7.372
 3861POPC   C1B51259  18.582  24.075   6.129
 3861POPC   C2B51260  18.407  24.078   6.542
 3861POPC   C3B51261  18.595  24.105   6.940
 3861POPC   C4B51262  18.508  24.018   7.352
 3862POPC   NC351263  41.370  34.060   5.522
 3862POPC   PO451264  41.835  33.630   5.400
 3862POPC   GL151265  41.743  33.668   5.844
 3862POPC   GL251266  41.947  33.370   5.899
 3862POPC   C1A51267  41.495  33.875   6.205
 3862POPC   D2A51268  41.373  34.210   6.556
 3862POPC   C3A51269  41.381  34.045   6.978
 3862POPC   C4A51270  41.514  33.659   7.155
 3862POPC   C1B51271  41.918  33.518   6.309
 3862POPC   C2B51272  41.683  33.551   6.657
 3862POPC   C3B51273  41.974  33.635   6.956
 3862POPC   C4B51274  41.942  33.481   7.344
 3863POPC   NC351275  19.798  27.743   5.438
 3863POPC   PO451276  20.045  27.196   5.744
 3863POPC   GL151277  19.908  27.607   5.916
 3863POPC   GL251278  19.570  27.823   5.889
 3863POPC   C1A51279  20.094  27.850   6.221
 3863POPC   D2A51280  20.045  27.948   6.633
 3863POPC   C3A51281  19.962  27.632   6.923
 3863POPC   C4A51282  19.837  27.714   7.339
 3863POPC   C1B51283  19.496  27.450   6.140
 3863POPC   C2B51284  19.702  27.363   6.519
 3863POPC   C3B51285  19.541  27.318   6.926
 3863POPC   C4B51286  19.459  27.394   7.364
 3864POPC   NC351287  40.392   0.887   5.412
 3864POPC   PO451288  40.952   1.331   5.485
 3864POPC   GL151289  40.778   1.099   5.812
 3864POPC   GL251290  40.429   1.214   5.804
 3864POPC   C1A51291  40.923   1.058   6.243
 3864POPC   D2A51292  40.995   0.888   6.661
 3864POPC   C3A51293  40.910   1.243   6.934
 3864POPC   C4A51294  40.851   1.479   7.331
 3864POPC   C1B51295  40.419   0.932   6.175
 3864POPC   C2B51296  40.515   1.017   6.621
 3864POPC   C3B51297  40.406   1.238   7.032
 3864POPC   C4B51298  40.308   1.290   7.463
 3865POPC   NC351299  35.987  35.703   5.421
 3865POPC   PO451300  36.274  35.129   5.481
 3865POPC   GL151301  36.060  35.118   5.819
 3865POPC   GL251302  36.082  35.459   5.876
 3865POPC   C1A51303  35.918  34.982   6.222
 3865POPC   D2A51304  35.768  35.219   6.543
 3865POPC   C3A51305  35.878  35.186   6.937
 3865POPC   C4A51306  35.871  35.045   7.330
 3865POPC   C1B51307  36.329  35.265   6.215
 3865POPC   C2B51308  36.270  35.373   6.636
 3865POPC   C3B51309  36.352  35.305   7.047
 3865POPC   C4B51310  36.234  35.335   7.469
 3866POPC   NC351311   9.850  39.550   5.457
 3866POPC   PO451312   9.751  40.204   5.384
 3866POPC   GL151313   9.699  39.977   5.778
 3866POPC   GL251314  10.032  39.856   5.826
 3866POPC   C1A51315   9.677  40.074   6.234
 3866POPC   D2A51316   9.611  39.911   6.668
 3866POPC   C3A51317   9.587  40.081   7.098
 3866POPC   C4A51318   9.528  39.925   7.523
 3866POPC   C1B51319  10.047  39.707   6.273
 3866POPC   C2B51320  10.282  39.723   6.696
 3866POPC   C3B51321  10.018  39.800   7.016
 3866POPC   C4B51322   9.989  39.689   7.420
 3867POPC   NC351323  22.257  11.774   5.360
 3867POPC   PO451324  21.985  12.358   5.436
 3867POPC   GL151325  22.073  12.165   5.831
 3867POPC   GL251326  22.037  11.833   5.802
 3867POPC   C1A51327  22.241  12.274   6.251
 3867POPC   D2A51328  22.497  12.396   6.618
 3867POPC   C3A51329  22.238  12.314   6.971
 3867POPC   C4A51330  22.157  12.122   7.336
 3867POPC   C1B51331  21.806  11.657   6.113
 3867POPC   C2B51332  22.015  11.809   6.476
 3867POPC   C3B51333  21.999  11.824   6.911
 3867POPC   C4B51334  21.795  11.735   7.300
 3868POPC   NC351335  13.227  19.083   5.499
 3868POPC   PO451336  12.521  19.254   5.359
 3868POPC   GL151337  12.752  18.967   5.727
 3868POPC   GL251338  13.074  19.046   5.963
 3868POPC   C1A51339  12.721  18.804   6.178
 3868POPC   D2A51340  12.997  18.888   6.565
 3868POPC   C3A51341  12.835  19.067   6.951
 3868POPC   C4A51342  12.919  18.850   7.348
 3868POPC   C1B51343  12.862  19.294   6.284
 3868POPC   C2B51344  13.023  19.497   6.638
 3868POPC   C3B51345  13.233  19.402   6.993
 3868POPC   C4B51346  13.038  19.336   7.385
 3869POPC   NC351347  37.237  12.784   5.234
 3869POPC   PO451348  37.755  13.157   5.315
 3869POPC   GL151349  37.691  13.100   5.760
 3869POPC   GL251350  37.903  13.340   5.952
 3869POPC   C1A51351  37.452  12.788   6.006
 3869POPC   D2A51352  37.252  12.675   6.393
 3869POPC   C3A51353  37.419  12.652   6.833
 3869POPC   C4A51354  37.771  12.756   7.148
 3869POPC   C1B51355  37.876  12.961   6.233
 3869POPC   C2B51356  37.864  12.919   6.671
 3869POPC   C3B51357  38.010  13.197   7.004
 3869POPC   C4B51358  38.112  13.286   7.425
 3870POPC   NC351359  12.089  27.165   5.026
 3870POPC   PO451360  12.197  27.666   5.464
 3870POPC   GL151361  12.114  27.562   5.856
 3870POPC   GL251362  12.228  27.216   5.815
 3870POPC   C1A51363  12.079  27.744   6.259
 3870POPC   D2A51364  12.305  27.699   6.648
 3870POPC   C3A51365  12.121  27.848   7.048
 3870POPC   C4A51366  12.097  27.658   7.440
 3870POPC   C1B51367  12.278  27.257   6.252
 3870POPC   C2B51368  12.128  27.225   6.634
 3870POPC   C3B51369  12.129  27.338   7.032
 3870POPC   C4B51370  11.999  27.146   7.372
 3871POPC   NC351371  44.971  27.648   5.519
 3871POPC   PO451372  44.299  27.799   5.523
 3871POPC   GL151373  44.527  27.715   5.864
 3871POPC   GL251374  44.553  28.042   5.905
 3871POPC   C1A51375  44.603  27.518   6.277
 3871POPC   D2A51376  44.663  27.368   6.723
 3871POPC   C3A51377  44.768  27.664   7.071
 3871POPC   C4A51378  44.888  27.607   7.480
 3871POPC   C1B51379  44.443  28.027   6.306
 3871POPC   C2B51380  44.493  27.882   6.692
 3871POPC   C3B51381  44.398  28.031   7.094
 3871POPC   C4B51382  44.420  27.814   7.487
 3872POPC   NC351383  42.609  41.026   5.313
 3872POPC   PO451384  42.402  41.604   5.542
 3872POPC   GL151385  42.395  41.318   5.871
 3872POPC   GL251386  42.676  41.067   5.877
 3872POPC   C1A51387  42.142  41.472   6.220
 3872POPC   D2A51388  42.277  41.621   6.641
 3872POPC   C3A51389  42.120  41.515   7.052
 3872POPC   C4A51390  42.219  41.797   7.365
 3872POPC   C1B51391  42.564  41.198   6.336
 3872POPC   C2B51392  42.767  41.451   6.632
 3872POPC   C3B51393  42.696  41.686   6.997
 3872POPC   C4B51394  42.579  41.437   7.332
 3873POPC   NC351395   1.015  13.142   5.542
 3873POPC   PO451396   1.512  12.711   5.526
 3873POPC   GL151397   1.373  12.841   5.911
 3873POPC   GL251398   1.036  12.748   5.887
 3873POPC   C1A51399   1.359  12.672   6.337
 3873POPC   D2A51400   1.472  12.477   6.750
 3873POPC   C3A51401   1.502  12.787   7.065
 3873POPC   C4A51402   1.578  12.754   7.513
 3873POPC   C1B51403   0.905  12.887   6.297
 3873POPC   C2B51404   1.031  12.768   6.729
 3873POPC   C3B51405   1.002  12.695   7.161
 3873POPC   C4B51406   0.758  12.933   7.439
 3874POPC   NC351407  29.578  23.517   5.502
 3874POPC   PO451408  30.138  23.874   5.507
 3874POPC   GL151409  30.098  23.891   5.916
 3874POPC   GL251410  29.815  23.664   5.932
 3874POPC   C1A51411  29.921  23.991   6.298
 3874POPC   D2A51412  29.789  23.719   6.611
 3874POPC   C3A51413  29.948  23.784   6.981
 3874POPC   C4A51414  29.965  23.815   7.412
 3874POPC   C1B51415  30.055  23.478   6.259
 3874POPC   C2B51416  30.141  23.368   6.723
 3874POPC   C3B51417  30.162  23.385   7.214
 3874POPC   C4B51418  30.240  23.469   7.681
 3875POPC   NC351419  26.694   7.793   5.359
 3875POPC   PO451420  26.918   8.434   5.520
 3875POPC   GL151421  26.806   8.228   5.872
 3875POPC   GL251422  26.971   7.933   5.851
 3875POPC   C1A51423  26.671   8.077   6.287
 3875POPC   D2A51424  26.859   8.043   6.679
 3875POPC   C3A51425  26.898   8.389   6.962
 3875POPC   C4A51426  26.658   8.512   7.317
 3875POPC   C1B51427  27.142   7.753   6.223
 3875POPC   C2B51428  27.280   7.717   6.637
 3875POPC   C3B51429  27.020   7.659   6.974
 3875POPC   C4B51430  26.709   7.928   7.186
 3876POPC   NC351431  13.449  17.358   5.345
 3876POPC   PO451432  13.825  17.808   5.583
 3876POPC   GL151433  13.508  17.684   5.888
 3876POPC   GL251434  13.422  17.329   5.854
 3876POPC   C1A51435  13.594  17.538   6.325
 3876POPC   D2A51436  13.834  17.619   6.725
 3876POPC   C3A51437  13.593  17.718   7.091
 3876POPC   C4A51438  13.506  17.695   7.524
 3876POPC   C1B51439  13.873  17.261   6.017
 3876POPC   C2B51440  13.964  17.179   6.469
 3876POPC   C3B51441  13.897  17.157   6.940
 3876POPC   C4B51442  13.658  17.257   7.301
 3877POPC   NC351443   6.572  27.466   5.322
 3877POPC   PO451444   6.871  28.104   5.454
 3877POPC   GL151445   6.693  27.812   5.699
 3877POPC   GL251446   6.906  27.513   5.791
 3877POPC   C1A51447   6.443  27.733   6.036
 3877POPC   D2A51448   6.395  27.879   6.460
 3877POPC   C3A51449   6.650  27.601   6.737
 3877POPC   C4A51450   6.539  27.476   7.151
 3877POPC   C1B51451   6.774  27.388   6.234
 3877POPC   C2B51452   6.738  27.090   6.591
 3877POPC   C3B51453   6.884  27.114   7.013
 3877POPC   C4B51454   7.015  27.411   7.357
 3878POPC   NC351455   7.266  20.882   5.732
 3878POPC   PO451456   7.374  21.520   5.489
 3878POPC   GL151457   7.608  21.423   5.850
 3878POPC   GL251458   7.867  21.208   5.726
 3878POPC   C1A51459   7.482  21.314   6.277
 3878POPC   D2A51460   7.130  21.437   6.549
 3878POPC   C3A51461   7.147  21.355   6.984
 3878POPC   C4A51462   7.073  20.930   7.136
 3878POPC   C1B51463   7.993  21.208   6.176
 3878POPC   C2B51464   7.870  21.254   6.620
 3878POPC   C3B51465   7.833  21.088   7.033
 3878POPC   C4B51466   7.503  21.172   7.312
 3879POPC   NC351467  24.710  17.918   5.325
 3879POPC   PO451468  24.316  17.361   5.512
 3879POPC   GL151469  24.648  17.441   5.825
 3879POPC   GL251470  24.712  17.784   5.836
 3879POPC   C1A51471  24.735  17.200   6.192
 3879POPC   D2A51472  24.564  17.167   6.576
 3879POPC   C3A51473  24.669  17.444   6.888
 3879POPC   C4A51474  24.713  17.145   7.214
 3879POPC   C1B51475  24.600  17.694   6.287
 3879POPC   C2B51476  24.367  17.870   6.635
 3879POPC   C3B51477  24.266  17.787   7.060
 3879POPC   C4B51478  24.554  17.604   7.377
 3880POPC   NC351479  18.202   0.956   5.324
 3880POPC   PO451480  18.243   1.641   5.281
 3880POPC   GL151481  18.168   1.358   5.646
 3880POPC   GL251482  18.462   1.122   5.724
 3880POPC   C1A51483  18.039   1.226   6.063
 3880POPC   D2A51484  17.863   1.267   6.467
 3880POPC   C3A51485  18.077   1.352   6.845
 3880POPC   C4A51486  17.929   1.420   7.266
 3880POPC   C1B51487  18.497   1.039   6.153
 3880POPC   C2B51488  18.279   0.950   6.540
 3880POPC   C3B51489  18.478   1.016   6.915
 3880POPC   C4B51490  18.426   1.265   7.232
 3881POPC   NC351491  39.480  41.864   5.595
 3881POPC   PO451492  39.075  41.339   5.440
 3881POPC   GL151493  39.157  41.533   5.857
 3881POPC   GL251494  39.501  41.501   5.968
 3881POPC   C1A51495  39.203  41.861   6.189
 3881POPC   D2A51496  39.290  42.027   6.592
 3881POPC   C3A51497  39.149  41.780   6.916
 3881POPC   C4A51498  39.229  41.595   7.288
 3881POPC   C1B51499  39.521  41.480   6.413
 3881POPC   C2B51500  39.336  41.292   6.782
 3881POPC   C3B51501  39.020  41.182   7.077
 3881POPC   C4B51502  39.054  41.216   7.544
 3882POPC   NC351503  32.583  42.898   5.404
 3882POPC   PO451504  31.935  43.188   5.270
 3882POPC   GL151505  32.155  43.078   5.719
 3882POPC   GL251506  32.495  43.029   5.869
 3882POPC   C1A51507  32.140  43.225   6.180
 3882POPC   D2A51508  32.179  43.390   6.600
 3882POPC   C3A51509  32.233  43.220   7.015
 3882POPC   C4A51510  32.417  43.545   7.251
 3882POPC   C1B51511  32.541  42.773   6.223
 3882POPC   C2B51512  32.455  42.930   6.633
 3882POPC   C3B51513  32.456  42.741   7.052
 3882POPC   C4B51514  32.673  42.623   7.442
 3883POPC   NC351515   8.406  25.512   5.431
 3883POPC   PO451516   7.891  24.957   5.441
 3883POPC   GL151517   8.117  25.214   5.728
 3883POPC   GL251518   8.337  25.015   5.927
 3883POPC   C1A51519   8.179  25.449   6.144
 3883POPC   D2A51520   8.120  25.218   6.559
 3883POPC   C3A51521   8.144  25.444   6.911
 3883POPC   C4A51522   8.319  25.451   7.290
 3883POPC   C1B51523   7.891  25.027   6.155
 3883POPC   C2B51524   7.602  25.098   6.482
 3883POPC   C3B51525   7.732  25.044   6.910
 3883POPC   C4B51526   8.151  24.963   7.134
 3884POPC   NC351527  39.001   6.466   5.127
 3884POPC   PO451528  39.473   6.859   5.412
 3884POPC   GL151529  39.372   6.508   5.710
 3884POPC   GL251530  39.068   6.637   5.748
 3884POPC   C1A51531  39.188   6.307   6.123
 3884POPC   D2A51532  39.164   6.465   6.565
 3884POPC   C3A51533  39.463   6.377   6.859
 3884POPC   C4A51534  39.618   6.413   7.268
 3884POPC   C1B51535  39.238   6.814   6.163
 3884POPC   C2B51536  39.081   6.978   6.588
 3884POPC   C3B51537  39.095   6.769   7.012
 3884POPC   C4B51538  38.948   6.855   7.434
 3885POPC   NC351539  38.301   3.447   5.465
 3885POPC   PO451540  38.864   3.285   5.803
 3885POPC   GL151541  38.655   3.621   5.917
 3885POPC   GL251542  38.935   3.875   5.840
 3885POPC   C1A51543  38.276   3.538   6.186
 3885POPC   D2A51544  38.134   3.232   6.516
 3885POPC   C3A51545  38.198   3.354   6.935
 3885POPC   C4A51546  38.255   3.193   7.352
 3885POPC   C1B51547  38.835   3.934   6.270
 3885POPC   C2B51548  38.554   3.780   6.565
 3885POPC   C3B51549  38.610   3.654   6.973
 3885POPC   C4B51550  38.720   3.378   7.259
 3886POPC   NC351551  32.981  14.507   5.408
 3886POPC   PO451552  33.495  14.172   5.656
 3886POPC   GL151553  33.164  14.098   5.869
 3886POPC   GL251554  32.831  14.126   5.733
 3886POPC   C1A51555  33.139  14.249   6.257
 3886POPC   D2A51556  32.972  14.474   6.586
 3886POPC   C3A51557  33.089  14.302   6.959
 3886POPC   C4A51558  33.177  14.493   7.343
 3886POPC   C1B51559  32.658  14.314   6.140
 3886POPC   C2B51560  32.457  14.432   6.548
 3886POPC   C3B51561  32.539  14.602   6.923
 3886POPC   C4B51562  32.680  14.491   7.299
 3887POPC   NC351563  14.197  16.034   5.543
 3887POPC   PO451564  14.818  15.803   5.411
 3887POPC   GL151565  14.589  15.844   5.805
 3887POPC   GL251566  14.508  16.173   5.924
 3887POPC   C1A51567  14.613  15.793   6.265
 3887POPC   D2A51568  14.367  15.789   6.660
 3887POPC   C3A51569  14.556  16.026   7.020
 3887POPC   C4A51570  14.775  15.876   7.408
 3887POPC   C1B51571  14.157  16.043   6.211
 3887POPC   C2B51572  14.059  16.188   6.631
 3887POPC   C3B51573  14.035  16.044   7.059
 3887POPC   C4B51574  14.205  16.088   7.502
 3888POPC   NC351575   5.387  40.776   5.456
 3888POPC   PO451576   4.761  41.008   5.632
 3888POPC   GL151577   5.107  40.901   5.895
 3888POPC   GL251578   5.391  41.134   5.803
 3888POPC   C1A51579   5.142  40.602   6.278
 3888POPC   D2A51580   4.912  40.423   6.677
 3888POPC   C3A51581   4.924  40.719   7.067
 3888POPC   C4A51582   4.826  40.758   7.522
 3888POPC   C1B51583   5.581  40.887   6.118
 3888POPC   C2B51584   5.443  40.981   6.522
 3888POPC   C3B51585   5.444  40.839   6.926
 3888POPC   C4B51586   5.382  40.686   7.316
 3889POPC   NC351587  24.284  20.244   5.605
 3889POPC   PO451588  23.740  19.786   5.372
 3889POPC   GL151589  23.679  19.972   5.769
 3889POPC   GL251590  23.621  19.612   5.853
 3889POPC   C1A51591  23.496  20.002   6.192
 3889POPC   D2A51592  23.408  19.828   6.587
 3889POPC   C3A51593  23.555  20.009   6.935
 3889POPC   C4A51594  23.754  19.957   7.295
 3889POPC   C1B51595  23.517  19.452   6.252
 3889POPC   C2B51596  23.570  19.319   6.691
 3889POPC   C3B51597  23.621  19.445   7.128
 3889POPC   C4B51598  23.759  19.551   7.588
 3890POPC   NC351599  44.113   3.166   5.434
 3890POPC   PO451600  43.687   2.771   5.187
 3890POPC   GL151601  43.668   2.912   5.702
 3890POPC   GL251602  43.970   3.055   5.903
 3890POPC   C1A51603  43.692   2.706   6.177
 3890POPC   D2A51604  43.583   2.601   6.664
 3890POPC   C3A51605  43.847   2.574   7.068
 3890POPC   C4A51606  43.952   2.502   7.525
 3890POPC   C1B51607  44.027   3.096   6.310
 3890POPC   C2B51608  44.045   2.891   6.684
 3890POPC   C3B51609  44.131   3.012   7.076
 3890POPC   C4B51610  44.052   2.987   7.472
 3891POPC   NC351611  25.069  42.818   5.692
 3891POPC   PO451612  25.086  43.438   5.553
 3891POPC   GL151613  25.110  43.293   5.941
 3891POPC   GL251614  25.447  43.191   5.856
 3891POPC   C1A51615  24.985  43.454   6.342
 3891POPC   D2A51616  24.860  43.486   6.783
 3891POPC   C3A51617  25.144  43.259   7.089
 3891POPC   C4A51618  25.339  43.389   7.484
 3891POPC   C1B51619  25.479  43.258   6.310
 3891POPC   C2B51620  25.500  43.147   6.744
 3891POPC   C3B51621  25.627  43.077   7.177
 3891POPC   C4B51622  25.477  42.926   7.608
 3892POPC   NC351623  22.702  12.647   5.561
 3892POPC   PO451624  22.772  13.233   5.181
 3892POPC   GL151625  22.893  13.170   5.690
 3892POPC   GL251626  23.119  12.867   5.780
 3892POPC   C1A51627  22.966  13.208   6.141
 3892POPC   D2A51628  23.130  12.999   6.521
 3892POPC   C3A51629  22.871  12.914   6.890
 3892POPC   C4A51630  23.013  12.929   7.327
 3892POPC   C1B51631  22.912  12.673   6.175
 3892POPC   C2B51632  23.035  12.470   6.576
 3892POPC   C3B51633  23.031  12.447   7.025
 3892POPC   C4B51634  22.682  12.290   7.230
 3893POPC   NC351635   3.194  32.868   5.126
 3893POPC   PO451636   3.786  33.239   5.330
 3893POPC   GL151637   3.816  33.196   5.777
 3893POPC   GL251638   3.696  32.885   5.855
 3893POPC   C1A51639   3.723  33.279   6.196
 3893POPC   D2A51640   3.695  33.143   6.609
 3893POPC   C3A51641   3.367  32.976   6.838
 3893POPC   C4A51642   3.486  32.977   7.236
 3893POPC   C1B51643   3.496  32.805   6.257
 3893POPC   C2B51644   3.644  32.588   6.632
 3893POPC   C3B51645   3.524  32.487   7.040
 3893POPC   C4B51646   3.132  32.570   7.240
 3894POPC   NC351647  28.046   3.111   5.484
 3894POPC   PO451648  28.608   2.705   5.466
 3894POPC   GL151649  28.337   2.747   5.825
 3894POPC   GL251650  28.176   2.413   5.908
 3894POPC   C1A51651  28.283   2.768   6.291
 3894POPC   D2A51652  28.395   2.508   6.649
 3894POPC   C3A51653  28.065   2.470   6.959
 3894POPC   C4A51654  28.137   2.747   7.265
 3894POPC   C1B51655  28.553   2.387   6.148
 3894POPC   C2B51656  28.889   2.438   6.421
 3894POPC   C3B51657  28.859   2.470   6.866
 3894POPC   C4B51658  28.542   2.430   7.171
 3895POPC   NC351659  17.557   2.409   5.690
 3895POPC   PO451660  17.519   1.908   5.220
 3895POPC   GL151661  17.424   1.892   5.689
 3895POPC   GL251662  17.148   2.072   5.899
 3895POPC   C1A51663  17.637   1.834   6.111
 3895POPC   D2A51664  17.497   1.630   6.535
 3895POPC   C3A51665  17.355   1.801   6.930
 3895POPC   C4A51666  17.504   1.765   7.366
 3895POPC   C1B51667  17.277   2.072   6.358
 3895POPC   C2B51668  17.682   2.162   6.546
 3895POPC   C3B51669  17.786   2.339   6.932
 3895POPC   C4B51670  17.476   2.269   7.256
 3896POPC   NC351671   1.054  22.456   5.570
 3896POPC   PO451672   1.571  22.910   5.486
 3896POPC   GL151673   1.195  22.937   5.782
 3896POPC   GL251674   1.366  22.690   5.929
 3896POPC   C1A51675   0.946  22.816   6.198
 3896POPC   D2A51676   1.043  22.736   6.651
 3896POPC   C3A51677   0.928  22.964   7.041
 3896POPC   C4A51678   0.976  23.011   7.503
 3896POPC   C1B51679   1.436  22.910   6.330
 3896POPC   C2B51680   1.429  23.042   6.778
 3896POPC   C3B51681   1.382  22.856   7.208
 3896POPC   C4B51682   1.370  22.767   7.679
 3897POPC   NC351683  10.661  25.227   5.333
 3897POPC   PO451684  10.135  25.169   5.692
 3897POPC   GL151685  10.586  25.104   5.820
 3897POPC   GL251686  10.677  25.459   5.828
 3897POPC   C1A51687  10.601  24.877   6.225
 3897POPC   D2A51688  10.197  24.959   6.476
 3897POPC   C3A51689  10.209  25.091   6.888
 3897POPC   C4A51690  10.528  25.036   7.187
 3897POPC   C1B51691  10.449  25.343   6.235
 3897POPC   C2B51692  10.606  25.290   6.629
 3897POPC   C3B51693  10.737  25.469   7.015
 3897POPC   C4B51694  10.686  25.455   7.453
 3898POPC   NC351695   7.650   3.618   5.557
 3898POPC   PO451696   7.479   4.237   5.444
 3898POPC   GL151697   7.339   4.280   5.827
 3898POPC   GL251698   7.176   4.565   5.736
 3898POPC   C1A51699   7.547   4.380   6.200
 3898POPC   D2A51700   7.534   4.529   6.631
 3898POPC   C3A51701   7.652   4.280   6.976
 3898POPC   C4A51702   7.337   4.118   7.215
 3898POPC   C1B51703   7.109   4.664   6.160
 3898POPC   C2B51704   6.992   4.592   6.556
 3898POPC   C3B51705   7.101   4.485   6.959
 3898POPC   C4B51706   6.890   4.664   7.299
 3899POPC   NC351707  23.027  36.893   5.230
 3899POPC   PO451708  23.488  36.459   5.481
 3899POPC   GL151709  23.123  36.777   5.705
 3899POPC   GL251710  23.152  37.173   5.656
 3899POPC   C1A51711  22.937  36.709   6.140
 3899POPC   D2A51712  22.695  36.920   6.473
 3899POPC   C3A51713  22.883  36.799   6.869
 3899POPC   C4A51714  22.862  36.580   7.248
 3899POPC   C1B51715  23.011  37.208   6.099
 3899POPC   C2B51716  23.105  37.255   6.557
 3899POPC   C3B51717  23.138  37.205   7.016
 3899POPC   C4B51718  22.798  37.085   7.310
 3900POPC   NC351719  22.331  17.949   5.589
 3900POPC   PO451720  22.017  17.408   5.175
 3900POPC   GL151721  22.072  17.452   5.696
 3900POPC   GL251722  21.879  17.645   5.893
 3900POPC   C1A51723  22.385  17.536   6.085
 3900POPC   D2A51724  22.586  17.770   6.463
 3900POPC   C3A51725  22.403  17.697   6.886
 3900POPC   C4A51726  22.361  17.325   7.143
 3900POPC   C1B51727  22.010  17.749   6.333
 3900POPC   C2B51728  21.916  17.771   6.740
 3900POPC   C3B51729  21.903  17.579   7.121
 3900POPC   C4B51730  21.838  17.502   7.557
 3901POPC   NC351731  12.016  44.258   5.505
 3901POPC   PO451732  11.980  43.554   5.389
 3901POPC   GL151733  12.021  43.812   5.806
 3901POPC   GL251734  11.740  44.065   5.897
 3901POPC   C1A51735  12.247  44.021   6.180
 3901POPC   D2A51736  12.168  44.361   6.513
 3901POPC   C3A51737  11.928  44.247   6.900
 3901POPC   C4A51738  12.154  44.151   7.285
 3901POPC   C1B51739  11.762  44.024   6.349
 3901POPC   C2B51740  11.719  43.763   6.696
 3901POPC   C3B51741  11.817  43.737   7.110
 3901POPC   C4B51742  11.670  44.011   7.395
 3902POPC   NC351743  17.554  32.373   5.407
 3902POPC   PO451744  17.362  31.735   5.445
 3902POPC   GL151745  17.570  31.992   5.769
 3902POPC   GL251746  17.415  32.329   5.896
 3902POPC   C1A51747  17.510  31.959   6.219
 3902POPC   D2A51748  17.633  32.185   6.591
 3902POPC   C3A51749  17.498  32.047   6.960
 3902POPC   C4A51750  17.605  31.950   7.349
 3902POPC   C1B51751  17.638  32.545   6.213
 3902POPC   C2B51752  17.683  32.701   6.609
 3902POPC   C3B51753  17.474  32.576   6.940
 3902POPC   C4B51754  17.514  32.471   7.342
 3903POPC   NC351755  40.294  41.648   5.385
 3903POPC   PO451756  39.615  41.628   5.221
 3903POPC   GL151757  39.876  41.496   5.634
 3903POPC   GL251758  39.954  41.813   5.812
 3903POPC   C1A51759  39.992  41.419   6.136
 3903POPC   D2A51760  40.249  41.322   6.572
 3903POPC   C3A51761  40.142  41.495   6.985
 3903POPC   C4A51762  39.957  41.374   7.414
 3903POPC   C1B51763  39.724  41.975   6.206
 3903POPC   C2B51764  39.770  41.867   6.646
 3903POPC   C3B51765  39.664  41.653   7.016
 3903POPC   C4B51766  39.933  41.877   7.300
 3904POPC   NC351767  18.507   2.668   5.512
 3904POPC   PO451768  17.840   2.553   5.354
 3904POPC   GL151769  17.982   2.707   5.770
 3904POPC   GL251770  18.077   3.052   5.739
 3904POPC   C1A51771  17.810   2.702   6.200
 3904POPC   D2A51772  18.050   2.568   6.536
 3904POPC   C3A51773  18.120   2.748   6.893
 3904POPC   C4A51774  18.084   2.565   7.282
 3904POPC   C1B51775  18.164   3.055   6.210
 3904POPC   C2B51776  18.466   3.042   6.554
 3904POPC   C3B51777  18.631   3.077   6.947
 3904POPC   C4B51778  18.286   3.064   7.246
 3905POPC   NC351779  37.013  19.923   5.149
 3905POPC   PO451780  37.150  19.520   5.610
 3905POPC   GL151781  36.961  19.860   5.869
 3905POPC   GL251782  36.988  20.241   5.781
 3905POPC   C1A51783  36.660  19.944   6.233
 3905POPC   D2A51784  36.426  20.020   6.642
 3905POPC   C3A51785  36.673  19.972   7.001
 3905POPC   C4A51786  36.616  19.880   7.413
 3905POPC   C1B51787  37.100  20.200   6.229
 3905POPC   C2B51788  37.009  20.081   6.640
 3905POPC   C3B51789  37.161  19.844   7.011
 3905POPC   C4B51790  37.090  20.088   7.377
 3906POPC   NC351791  25.506  43.612   5.488
 3906POPC   PO451792  25.419  44.248   5.478
 3906POPC   GL151793  25.065  44.129   5.770
 3906POPC   GL251794  25.193  43.809   5.871
 3906POPC   C1A51795  24.960  44.033   6.251
 3906POPC   D2A51796  25.012  44.028   6.714
 3906POPC   C3A51797  25.329  44.058   7.012
 3906POPC   C4A51798  25.120  43.742   7.206
 3906POPC   C1B51799  25.396  43.761   6.274
 3906POPC   C2B51800  25.335  43.626   6.704
 3906POPC   C3B51801  25.584  43.600   7.076
 3906POPC   C4B51802  25.540  43.864   7.483
 3907POPC   NC351803  16.914  36.510   5.442
 3907POPC   PO451804  16.923  37.053   5.408
 3907POPC   GL151805  16.902  37.132   5.867
 3907POPC   GL251806  17.209  37.312   5.907
 3907POPC   C1A51807  16.772  36.971   6.308
 3907POPC   D2A51808  17.013  36.698   6.618
 3907POPC   C3A51809  17.148  36.778   7.042
 3907POPC   C4A51810  16.969  36.764   7.455
 3907POPC   C1B51811  17.058  37.391   6.339
 3907POPC   C2B51812  16.956  37.199   6.757
 3907POPC   C3B51813  16.670  37.032   7.120
 3907POPC   C4B51814  16.361  36.980   7.507
 3908POPC   NC351815  17.722  30.595   5.416
 3908POPC   PO451816  17.107  30.310   5.382
 3908POPC   GL151817  17.243  30.576   5.767
 3908POPC   GL251818  17.580  30.487   5.914
 3908POPC   C1A51819  17.300  30.820   6.190
 3908POPC   D2A51820  17.425  30.715   6.623
 3908POPC   C3A51821  17.530  31.050   6.906
 3908POPC   C4A51822  17.318  30.960   7.251
 3908POPC   C1B51823  17.823  30.598   6.319
 3908POPC   C2B51824  17.924  30.740   6.778
 3908POPC   C3B51825  17.694  30.591   7.135
 3908POPC   C4B51826  17.705  30.541   7.575
 3909POPC   NC351827  15.761  18.643   5.482
 3909POPC   PO451828  16.199  18.171   5.502
 3909POPC   GL151829  15.907  18.210   5.843
 3909POPC   GL251830  15.847  18.528   5.972
 3909POPC   C1A51831  16.042  18.173   6.279
 3909POPC   D2A51832  15.941  18.342   6.677
 3909POPC   C3A51833  16.090  18.091   6.996
 3909POPC   C4A51834  16.089  17.909   7.369
 3909POPC   C1B51835  15.567  18.417   6.330
 3909POPC   C2B51836  15.449  18.181   6.704
 3909POPC   C3B51837  15.613  18.266   7.083
 3909POPC   C4B51838  15.945  18.556   7.165
 3910POPC   NC351839  37.744  11.045   5.124
 3910POPC   PO451840  37.418  11.427   5.599
 3910POPC   GL151841  37.732  11.195   5.843
 3910POPC   GL251842  37.591  10.874   5.917
 3910POPC   C1A51843  37.894  11.251   6.274
 3910POPC   D2A51844  38.006  11.489   6.667
 3910POPC   C3A51845  37.920  11.365   7.071
 3910POPC   C4A51846  37.567  11.367   7.347
 3910POPC   C1B51847  37.366  11.164   6.206
 3910POPC   C2B51848  37.467  11.383   6.524
 3910POPC   C3B51849  37.499  11.209   6.872
 3910POPC   C4B51850  37.188  11.052   7.133
 3911POPC   NC351851  16.771   3.026   5.649
 3911POPC   PO451852  17.113   2.436   5.539
 3911POPC   GL151853  16.852   2.546   5.876
 3911POPC   GL251854  16.512   2.614   5.811
 3911POPC   C1A51855  16.805   2.788   6.265
 3911POPC   D2A51856  17.006   2.853   6.652
 3911POPC   C3A51857  16.680   2.844   6.934
 3911POPC   C4A51858  16.519   3.001   7.318
 3911POPC   C1B51859  16.364   2.471   6.185
 3911POPC   C2B51860  16.269   2.279   6.580
 3911POPC   C3B51861  16.458   2.161   6.971
 3911POPC   C4B51862  16.616   2.450   7.248
 3912POPC   NC351863  26.782  31.399   5.425
 3912POPC   PO451864  26.855  32.065   5.396
 3912POPC   GL151865  26.866  31.763   5.777
 3912POPC   GL251866  26.566  31.518   5.870
 3912POPC   C1A51867  26.998  31.570   6.182
 3912POPC   D2A51868  26.998  31.315   6.598
 3912POPC   C3A51869  26.933  31.534   6.995
 3912POPC   C4A51870  26.516  31.570   7.163
 3912POPC   C1B51871  26.644  31.182   6.180
 3912POPC   C2B51872  26.582  30.981   6.593
 3912POPC   C3B51873  26.718  31.063   7.017
 3912POPC   C4B51874  26.641  31.144   7.438
 3913POPC   NC351875  11.805  16.342   5.466
 3913POPC   PO451876  12.291  15.788   5.487
 3913POPC   GL151877  12.200  15.742   5.897
 3913POPC   GL251878  12.495  15.549   5.933
 3913POPC   C1A51879  12.029  15.929   6.293
 3913POPC   D2A51880  12.042  16.207   6.661
 3913POPC   C3A51881  11.991  16.015   7.045
 3913POPC   C4A51882  11.662  15.914   7.271
 3913POPC   C1B51883  12.517  15.756   6.337
 3913POPC   C2B51884  12.285  15.695   6.733
 3913POPC   C3B51885  12.481  15.538   7.115
 3913POPC   C4B51886  12.599  15.593   7.559
 3914POPC   NC351887  34.716   2.161   5.213
 3914POPC   PO451888  34.184   1.707   5.265
 3914POPC   GL151889  34.392   1.683   5.712
 3914POPC   GL251890  34.730   1.863   5.753
 3914POPC   C1A51891  34.507   1.662   6.177
 3914POPC   D2A51892  34.394   1.889   6.549
 3914POPC   C3A51893  34.580   1.902   6.929
 3914POPC   C4A51894  34.367   1.840   7.296
 3914POPC   C1B51895  34.921   1.949   6.201
 3914POPC   C2B51896  34.884   2.149   6.595
 3914POPC   C3B51897  34.954   2.217   7.030
 3914POPC   C4B51898  34.845   1.946   7.396
 3915POPC   NC351899   9.856  41.599   5.459
 3915POPC   PO451900   9.297  41.866   5.550
 3915POPC   GL151901   9.564  41.618   5.881
 3915POPC   GL251902   9.871  41.361   5.890
 3915POPC   C1A51903   9.831  41.743   6.221
 3915POPC   D2A51904   9.624  41.668   6.580
 3915POPC   C3A51905   9.690  41.402   6.884
 3915POPC   C4A51906   9.720  41.646   7.242
 3915POPC   C1B51907   9.745  41.229   6.241
 3915POPC   C2B51908   9.901  40.940   6.540
 3915POPC   C3B51909  10.071  41.003   6.905
 3915POPC   C4B51910   9.976  41.222   7.268
 3916POPC   NC351911   6.657  32.911   4.906
 3916POPC   PO451912   6.553  33.371   5.405
 3916POPC   GL151913   6.671  33.159   5.803
 3916POPC   GL251914   6.476  32.876   5.827
 3916POPC   C1A51915   6.733  33.058   6.260
 3916POPC   D2A51916   6.748  33.280   6.657
 3916POPC   C3A51917   6.733  33.072   7.049
 3916POPC   C4A51918   6.645  32.986   7.490
 3916POPC   C1B51919   6.416  32.648   6.236
 3916POPC   C2B51920   6.647  32.627   6.646
 3916POPC   C3B51921   6.541  32.623   7.102
 3916POPC   C4B51922   6.233  32.547   7.346
 3917POPC   NC351923   4.742  17.645   5.606
 3917POPC   PO451924   4.201  17.577   5.291
 3917POPC   GL151925   4.244  17.451   5.738
 3917POPC   GL251926   4.376  17.720   5.974
 3917POPC   C1A51927   4.139  17.268   6.156
 3917POPC   D2A51928   4.037  17.492   6.560
 3917POPC   C3A51929   4.010  17.264   6.913
 3917POPC   C4A51930   3.912  17.349   7.321
 3917POPC   C1B51931   4.590  17.475   6.304
 3917POPC   C2B51932   4.503  17.372   6.735
 3917POPC   C3B51933   4.325  17.632   7.035
 3917POPC   C4B51934   4.373  17.515   7.446
 3918POPC   NC351935  37.023  26.597   5.185
 3918POPC   PO451936  37.132  26.013   5.470
 3918POPC   GL151937  37.113  26.112   5.861
 3918POPC   GL251938  36.750  26.100   5.862
 3918POPC   C1A51939  37.028  26.228   6.265
 3918POPC   D2A51940  36.922  25.978   6.597
 3918POPC   C3A51941  37.134  25.972   6.992
 3918POPC   C4A51942  37.078  25.993   7.443
 3918POPC   C1B51943  36.682  25.798   6.166
 3918POPC   C2B51944  36.631  25.567   6.537
 3918POPC   C3B51945  36.685  25.689   6.953
 3918POPC   C4B51946  36.637  25.779   7.374
 3919POPC   NC351947   1.892   6.197   5.438
 3919POPC   PO451948   2.416   6.574   5.255
 3919POPC   GL151949   2.268   6.525   5.705
 3919POPC   GL251950   1.966   6.701   5.830
 3919POPC   C1A51951   2.327   6.573   6.156
 3919POPC   D2A51952   2.201   6.899   6.446
 3919POPC   C3A51953   2.058   6.848   6.849
 3919POPC   C4A51954   2.089   6.558   7.160
 3919POPC   C1B51955   1.797   6.671   6.260
 3919POPC   C2B51956   1.635   6.582   6.708
 3919POPC   C3B51957   1.607   6.738   7.149
 3919POPC   C4B51958   1.770   6.659   7.582
 3920POPC   NC351959   1.800  22.555   5.283
 3920POPC   PO451960   2.270  22.938   5.540
 3920POPC   GL151961   1.987  22.977   5.855
 3920POPC   GL251962   1.872  22.664   5.863
 3920POPC   C1A51963   1.854  23.177   6.250
 3920POPC   D2A51964   1.949  23.054   6.679
 3920POPC   C3A51965   1.797  23.205   7.102
 3920POPC   C4A51966   1.818  22.929   7.454
 3920POPC   C1B51967   2.084  22.704   6.274
 3920POPC   C2B51968   2.358  22.710   6.625
 3920POPC   C3B51969   2.296  22.817   7.039
 3920POPC   C4B51970   2.131  22.560   7.352
 3921POPC   NC351971   0.643  26.640   5.257
 3921POPC   PO451972   0.154  27.087   5.576
 3921POPC   GL151973   0.343  26.812   5.866
 3921POPC   GL251974   0.653  26.975   5.950
 3921POPC   C1A51975   0.224  26.790   6.324
 3921POPC   D2A51976   0.088  27.063   6.676
 3921POPC   C3A51977   0.147  26.870   7.078
 3921POPC   C4A51978   0.507  26.602   7.148
 3921POPC   C1B51979   0.693  26.630   6.221
 3921POPC   C2B51980   0.753  26.567   6.646
 3921POPC   C3B51981   0.944  26.814   6.938
 3921POPC   C4B51982   0.813  26.954   7.355
 3922POPC   NC351983  42.849  33.663   5.288
 3922POPC   PO451984  43.500  33.611   5.299
 3922POPC   GL151985  43.228  33.528   5.682
 3922POPC   GL251986  42.891  33.688   5.794
 3922POPC   C1A51987  43.314  33.645   6.120
 3922POPC   D2A51988  43.216  33.886   6.483
 3922POPC   C3A51989  43.339  33.697   6.874
 3922POPC   C4A51990  43.468  33.775   7.290
 3922POPC   C1B51991  42.809  33.490   6.195
 3922POPC   C2B51992  42.779  33.630   6.650
 3922POPC   C3B51993  42.890  33.739   7.085
 3922POPC   C4B51994  43.113  33.436   7.294
 3923POPC   NC351995   2.054   6.856   5.347
 3923POPC   PO451996   2.249   7.456   5.376
 3923POPC   GL151997   2.144   7.260   5.780
 3923POPC   GL251998   2.361   7.018   5.906
 3923POPC   C1A51999   1.872   7.178   6.159
 3923POPC   D2A52000   1.661   7.073   6.568
 3923POPC   C3A52001   1.723   7.242   6.985
 3923POPC   C4A52002   1.945   7.080   7.305
 3923POPC   C1B52003   2.340   7.344   6.260
 3923POPC   C2B52004   2.131   7.349   6.673
 3923POPC   C3B52005   2.112   7.620   7.039
 3923POPC   C4B52006   2.231   7.937   7.351
 3924POPC   NC352007  40.970  38.931   5.352
 3924POPC   PO452008  40.598  39.437   5.240
 3924POPC   GL152009  40.738  39.255   5.695
 3924POPC   GL252010  40.599  38.922   5.739
 3924POPC   C1A52011  40.763  39.288   6.194
 3924POPC   D2A52012  40.714  39.106   6.639
 3924POPC   C3A52013  40.757  39.337   7.030
 3924POPC   C4A52014  40.694  39.154   7.474
 3924POPC   C1B52015  40.956  38.842   6.006
 3924POPC   C2B52016  41.109  38.921   6.396
 3924POPC   C3B52017  41.140  38.823   6.833
 3924POPC   C4B52018  40.832  38.778   7.126
 3925POPC   NC352019  18.012   4.560   5.691
 3925POPC   PO452020  18.431   4.172   5.313
 3925POPC   GL152021  18.418   4.200   5.793
 3925POPC   GL252022  18.107   4.053   5.840
 3925POPC   C1A52023  18.323   4.417   6.243
 3925POPC   D2A52024  18.182   4.312   6.664
 3925POPC   C3A52025  18.327   4.499   7.066
 3925POPC   C4A52026  18.053   4.668   7.367
 3925POPC   C1B52027  18.365   3.905   6.198
 3925POPC   C2B52028  18.496   3.906   6.620
 3925POPC   C3B52029  18.322   3.987   7.031
 3925POPC   C4B52030  18.522   4.136   7.375
 3926POPC   NC352031  10.176  30.643   5.448
 3926POPC   PO452032   9.585  30.791   5.328
 3926POPC   GL152033   9.485  30.700   5.766
 3926POPC   GL252034   9.838  30.799   5.890
 3926POPC   C1A52035   9.379  30.661   6.210
 3926POPC   D2A52036   9.786  30.683   6.415
 3926POPC   C3A52037   9.962  30.737   6.807
 3926POPC   C4A52038   9.790  30.722   7.209
 3926POPC   C1B52039  10.122  31.026   6.233
 3926POPC   C2B52040  10.259  31.131   6.704
 3926POPC   C3B52041  10.126  31.093   7.156
 3926POPC   C4B52042   9.842  31.097   7.549
 3927POPC   NC352043  33.770   1.528   5.130
 3927POPC   PO452044  33.575   2.158   5.369
 3927POPC   GL152045  33.932   1.999   5.661
 3927POPC   GL252046  33.706   1.948   5.890
 3927POPC   C1A52047  34.117   1.995   6.133
 3927POPC   D2A52048  34.001   2.241   6.534
 3927POPC   C3A52049  34.093   2.090   6.952
 3927POPC   C4A52050  33.979   2.162   7.395
 3927POPC   C1B52051  33.624   2.210   6.191
 3927POPC   C2B52052  33.438   2.254   6.536
 3927POPC   C3B52053  33.602   2.238   6.909
 3927POPC   C4B52054  33.490   2.013   7.217
 3928POPC   NC352055  31.465  18.582   5.155
 3928POPC   PO452056  31.625  18.091   5.381
 3928POPC   GL152057  31.488  18.019   5.829
 3928POPC   GL252058  31.181  17.834   5.787
 3928POPC   C1A52059  31.591  18.107   6.287
 3928POPC   D2A52060  31.504  18.123   6.737
 3928POPC   C3A52061  31.701  18.109   7.155
 3928POPC   C4A52062  31.821  17.810   7.507
 3928POPC   C1B52063  31.100  17.975   6.215
 3928POPC   C2B52064  31.014  18.189   6.621
 3928POPC   C3B52065  31.129  18.126   7.077
 3928POPC   C4B52066  31.324  17.917   7.433
 3929POPC   NC352067   7.027  29.625   5.348
 3929POPC   PO452068   7.493  29.168   5.293
 3929POPC   GL152069   7.474  29.253   5.746
 3929POPC   GL252070   7.290  28.943   5.849
 3929POPC   C1A52071   7.607  29.397   6.185
 3929POPC   D2A52072   7.685  29.621   6.582
 3929POPC   C3A52073   7.582  29.379   6.956
 3929POPC   C4A52074   7.452  29.173   7.367
 3929POPC   C1B52075   7.246  29.005   6.284
 3929POPC   C2B52076   7.499  29.000   6.606
 3929POPC   C3B52077   7.474  28.819   7.000
 3929POPC   C4B52078   7.079  28.780   7.226
 3930POPC   NC352079   4.762  44.299   5.606
 3930POPC   PO452080   5.043  44.770   5.154
 3930POPC   GL152081   5.135  44.691   5.613
 3930POPC   GL252082   5.298  44.391   5.786
 3930POPC   C1A52083   5.087  44.808   6.080
 3930POPC   D2A52084   5.122  44.982   6.527
 3930POPC   C3A52085   4.916  44.933   6.937
 3930POPC   C4A52086   5.173  44.864   7.323
 3930POPC   C1B52087   5.096  44.305   6.228
 3930POPC   C2B52088   4.957  44.480   6.670
 3930POPC   C3B52089   4.901  44.469   7.182
 3930POPC   C4B52090   4.722  44.271   7.570
 3931POPC   NC352091  40.593  31.186   5.341
 3931POPC   PO452092  40.990  31.782   5.301
 3931POPC   GL152093  40.825  31.604   5.693
 3931POPC   GL252094  41.119  31.661   5.854
 3931POPC   C1A52095  40.740  31.456   6.165
 3931POPC   D2A52096  40.675  31.234   6.611
 3931POPC   C3A52097  40.559  31.442   7.030
 3931POPC   C4A52098  40.577  31.378   7.535
 3931POPC   C1B52099  41.187  31.888   6.234
 3931POPC   C2B52100  41.282  31.741   6.646
 3931POPC   C3B52101  41.087  31.411   6.884
 3931POPC   C4B52102  41.003  31.511   7.297
 3932POPC   NC352103  39.546  19.902   5.529
 3932POPC   PO452104  38.946  19.913   5.286
 3932POPC   GL152105  38.939  19.749   5.807
 3932POPC   GL252106  39.275  19.664   5.876
 3932POPC   C1A52107  39.016  19.877   6.261
 3932POPC   D2A52108  39.317  19.809   6.580
 3932POPC   C3A52109  39.174  19.959   6.960
 3932POPC   C4A52110  38.996  19.873   7.359
 3932POPC   C1B52111  39.554  19.485   6.176
 3932POPC   C2B52112  39.420  19.311   6.574
 3932POPC   C3B52113  39.584  19.536   6.944
 3932POPC   C4B52114  39.484  19.743   7.304
 3933POPC   NC352115  23.767  40.492   5.561
 3933POPC   PO452116  23.347  40.849   5.328
 3933POPC   GL152117  23.275  40.867   5.796
 3933POPC   GL252118  23.325  40.536   5.882
 3933POPC   C1A52119  23.360  40.933   6.283
 3933POPC   D2A52120  23.719  40.848   6.601
 3933POPC   C3A52121  23.736  40.980   7.058
 3933POPC   C4A52122  23.960  40.998   7.468
 3933POPC   C1B52123  23.523  40.444   6.289
 3933POPC   C2B52124  23.729  40.317   6.670
 3933POPC   C3B52125  23.924  40.519   6.993
 3933POPC   C4B52126  23.701  40.573   7.355
 3934POPC   NC352127   4.763  32.039   5.659
 3934POPC   PO452128   4.349  32.489   5.312
 3934POPC   GL152129   4.426  32.399   5.718
 3934POPC   GL252130   4.265  32.042   5.745
 3934POPC   C1A52131   4.550  32.533   6.134
 3934POPC   D2A52132   4.497  32.327   6.537
 3934POPC   C3A52133   4.599  32.546   6.905
 3934POPC   C4A52134   4.465  32.539   7.322
 3934POPC   C1B52135   4.312  31.806   6.158
 3934POPC   C2B52136   4.285  31.797   6.608
 3934POPC   C3B52137   4.461  31.971   6.966
 3934POPC   C4B52138   4.252  31.997   7.353
 3935POPC   NC352139  41.955  18.503   5.646
 3935POPC   PO452140  42.588  18.593   5.562
 3935POPC   GL152141  42.415  18.353   5.880
 3935POPC   GL252142  42.650  18.065   5.860
 3935POPC   C1A52143  42.144  18.361   6.273
 3935POPC   D2A52144  42.039  18.224   6.690
 3935POPC   C3A52145  42.265  18.407   7.029
 3935POPC   C4A52146  42.273  18.670   7.351
 3935POPC   C1B52147  42.607  18.145   6.323
 3935POPC   C2B52148  42.560  18.087   6.761
 3935POPC   C3B52149  42.560  18.038   7.194
 3935POPC   C4B52150  42.571  18.303   7.517
 3936POPC   NC352151  13.912  11.564   5.506
 3936POPC   PO452152  13.564  10.992   5.541
 3936POPC   GL152153  13.669  11.287   5.852
 3936POPC   GL252154  13.445  11.548   5.907
 3936POPC   C1A52155  13.858  11.519   6.211
 3936POPC   D2A52156  13.940  11.281   6.595
 3936POPC   C3A52157  13.795  11.423   6.995
 3936POPC   C4A52158  13.854  11.298   7.391
 3936POPC   C1B52159  13.438  11.245   6.303
 3936POPC   C2B52160  13.391  11.200   6.775
 3936POPC   C3B52161  13.366  11.263   7.252
 3936POPC   C4B52162  13.117  11.075   7.597
 3937POPC   NC352163   6.701  37.859   5.478
 3937POPC   PO452164   6.893  37.226   5.312
 3937POPC   GL152165   6.845  37.361   5.727
 3937POPC   GL252166   7.102  37.616   5.704
 3937POPC   C1A52167   6.664  37.342   6.166
 3937POPC   D2A52168   6.410  37.525   6.526
 3937POPC   C3A52169   6.561  37.660   6.952
 3937POPC   C4A52170   6.535  37.423   7.334
 3937POPC   C1B52171   7.062  37.676   6.162
 3937POPC   C2B52172   6.965  37.558   6.602
 3937POPC   C3B52173   6.967  37.349   7.014
 3937POPC   C4B52174   7.007  37.483   7.485
 3938POPC   NC352175  15.870   5.563   5.506
 3938POPC   PO452176  15.831   6.163   5.661
 3938POPC   GL152177  15.834   5.892   5.955
 3938POPC   GL252178  16.176   5.900   5.961
 3938POPC   C1A52179  15.849   5.838   6.414
 3938POPC   D2A52180  16.068   6.009   6.773
 3938POPC   C3A52181  15.805   5.996   7.089
 3938POPC   C4A52182  15.684   5.641   7.257
 3938POPC   C1B52183  16.137   5.502   6.147
 3938POPC   C2B52184  16.217   5.491   6.580
 3938POPC   C3B52185  16.139   5.557   7.011
 3938POPC   C4B52186  16.258   5.882   7.284
 3939POPC   NC352187   7.917  16.383   5.556
 3939POPC   PO452188   8.273  16.892   5.508
 3939POPC   GL152189   8.270  16.612   5.846
 3939POPC   GL252190   7.966  16.557   6.030
 3939POPC   C1A52191   8.462  16.543   6.237
 3939POPC   D2A52192   8.470  16.777   6.620
 3939POPC   C3A52193   8.469  16.522   7.004
 3939POPC   C4A52194   8.299  16.640   7.420
 3939POPC   C1B52195   8.127  16.941   6.233
 3939POPC   C2B52196   7.999  17.055   6.639
 3939POPC   C3B52197   8.078  16.890   7.026
 3939POPC   C4B52198   7.817  17.009   7.359
 3940POPC   NC352199  14.540   2.578   5.382
 3940POPC   PO452200  13.871   2.763   5.402
 3940POPC   GL152201  14.129   2.588   5.735
 3940POPC   GL252202  14.502   2.730   5.878
 3940POPC   C1A52203  14.118   2.625   6.182
 3940POPC   D2A52204  14.473   2.697   6.445
 3940POPC   C3A52205  14.411   2.639   6.847
 3940POPC   C4A52206  14.080   2.554   7.065
 3940POPC   C1B52207  14.738   3.038   6.186
 3940POPC   C2B52208  14.667   3.197   6.595
 3940POPC   C3B52209  14.787   2.995   6.942
 3940POPC   C4B52210  14.790   3.148   7.316
 3941POPC   NC352211  41.135  20.896   5.450
 3941POPC   PO452212  40.696  20.450   5.211
 3941POPC   GL152213  40.801  20.526   5.669
 3941POPC   GL252214  41.097  20.450   5.803
 3941POPC   C1A52215  40.694  20.500   6.168
 3941POPC   D2A52216  40.377  20.546   6.541
 3941POPC   C3A52217  40.495  20.476   6.961
 3941POPC   C4A52218  40.719  20.698   7.245
 3941POPC   C1B52219  41.164  20.693   6.140
 3941POPC   C2B52220  41.069  20.761   6.590
 3941POPC   C3B52221  41.100  20.494   6.966
 3941POPC   C4B52222  41.263  20.466   7.388
 3942POPC   NC352223  24.080  20.057   5.182
 3942POPC   PO452224  24.693  19.842   5.493
 3942POPC   GL152225  24.481  19.817   5.844
 3942POPC   GL252226  24.149  19.747   5.716
 3942POPC   C1A52227  24.454  20.015   6.261
 3942POPC   D2A52228  24.404  19.758   6.625
 3942POPC   C3A52229  24.440  19.940   7.040
 3942POPC   C4A52230  24.488  20.229   7.372
 3942POPC   C1B52231  24.008  19.792   6.130
 3942POPC   C2B52232  23.903  19.657   6.514
 3942POPC   C3B52233  23.998  19.696   6.924
 3942POPC   C4B52234  24.162  19.574   7.310
 3943POPC   NC352235  14.502   4.700   5.258
 3943POPC   PO452236  14.768   5.386   5.326
 3943POPC   GL152237  14.609   5.142   5.750
 3943POPC   GL252238  14.531   4.758   5.783
 3943POPC   C1A52239  14.557   5.026   6.210
 3943POPC   D2A52240  14.274   5.081   6.559
 3943POPC   C3A52241  14.415   5.077   6.945
 3943POPC   C4A52242  14.531   5.305   7.278
 3943POPC   C1B52243  14.181   4.693   6.104
 3943POPC   C2B52244  14.217   4.573   6.529
 3943POPC   C3B52245  14.043   4.582   6.921
 3943POPC   C4B52246  14.184   4.778   7.300
 3944POPC   NC352247  34.548  41.018   5.316
 3944POPC   PO452248  34.525  40.440   5.626
 3944POPC   GL152249  34.671  40.765   5.860
 3944POPC   GL252250  34.482  41.047   5.814
 3944POPC   C1A52251  34.868  40.811   6.257
 3944POPC   D2A52252  34.880  40.536   6.632
 3944POPC   C3A52253  34.654  40.695   6.970
 3944POPC   C4A52254  34.763  40.744   7.391
 3944POPC   C1B52255  34.289  41.060   6.200
 3944POPC   C2B52256  34.411  40.931   6.582
 3944POPC   C3B52257  34.403  41.121   6.982
 3944POPC   C4B52258  34.284  40.995   7.419
 3945POPC   NC352259  38.910  11.445   5.563
 3945POPC   PO452260  39.534  11.505   5.275
 3945POPC   GL152261  39.544  11.399   5.740
 3945POPC   GL252262  39.246  11.177   5.840
 3945POPC   C1A52263  39.535  11.367   6.197
 3945POPC   D2A52264  39.351  11.185   6.574
 3945POPC   C3A52265  39.366  11.486   6.939
 3945POPC   C4A52266  39.331  11.224   7.279
 3945POPC   C1B52267  39.039  11.400   6.221
 3945POPC   C2B52268  38.965  11.535   6.635
 3945POPC   C3B52269  38.864  11.479   7.071
 3945POPC   C4B52270  39.058  11.650   7.445
 3946POPC   NC352271  41.852  22.612   5.385
 3946POPC   PO452272  41.948  23.364   5.459
 3946POPC   GL152273  41.849  22.986   5.795
 3946POPC   GL252274  41.545  22.715   5.791
 3946POPC   C1A52275  41.804  22.751   6.232
 3946POPC   D2A52276  41.541  22.758   6.612
 3946POPC   C3A52277  41.758  22.836   7.004
 3946POPC   C4A52278  41.514  23.027   7.293
 3946POPC   C1B52279  41.351  22.498   6.167
 3946POPC   C2B52280  41.548  22.262   6.517
 3946POPC   C3B52281  41.699  22.306   6.957
 3946POPC   C4B52282  41.411  22.505   7.273
 3947POPC   NC352283  16.013  41.139   5.461
 3947POPC   PO452284  15.662  40.676   5.492
 3947POPC   GL152285  15.895  40.824   5.855
 3947POPC   GL252286  15.650  41.099   5.843
 3947POPC   C1A52287  16.114  40.786   6.273
 3947POPC   D2A52288  15.967  40.571   6.619
 3947POPC   C3A52289  15.910  40.735   7.031
 3947POPC   C4A52290  16.196  40.878   7.357
 3947POPC   C1B52291  15.894  41.221   6.220
 3947POPC   C2B52292  16.002  41.122   6.674
 3947POPC   C3B52293  15.897  41.233   7.115
 3947POPC   C4B52294  15.723  41.058   7.500
 3948POPC   NC352295  43.779  42.914   5.382
 3948POPC   PO452296  44.291  43.345   5.432
 3948POPC   GL152297  44.143  43.114   5.829
 3948POPC   GL252298  43.811  43.003   5.875
 3948POPC   C1A52299  44.010  43.191   6.313
 3948POPC   D2A52300  43.725  43.368   6.660
 3948POPC   C3A52301  43.849  43.323   7.064
 3948POPC   C4A52302  44.187  43.053   7.120
 3948POPC   C1B52303  43.774  42.746   6.245
 3948POPC   C2B52304  43.992  42.729   6.621
 3948POPC   C3B52305  43.858  42.634   7.000
 3948POPC   C4B52306  43.736  42.873   7.293
 3949POPC   NC352307  38.642   0.153   5.365
 3949POPC   PO452308  38.158   0.599   5.473
 3949POPC   GL152309  38.490   0.458   5.752
 3949POPC   GL252310  38.240   0.233   5.864
 3949POPC   C1A52311  38.706   0.388   6.131
 3949POPC   D2A52312  38.640   0.119   6.496
 3949POPC   C3A52313  38.725   0.357   6.857
 3949POPC   C4A52314  38.513   0.465   7.236
 3949POPC   C1B52315  38.190   0.574   6.167
 3949POPC   C2B52316  37.982   0.787   6.513
 3949POPC   C3B52317  38.197   0.739   6.902
 3949POPC   C4B52318  38.258   0.886   7.306
 3950POPC   NC352319   1.441  17.791   5.528
 3950POPC   PO452320   1.106  17.242   5.519
 3950POPC   GL152321   1.369  17.380   5.848
 3950POPC   GL252322   1.149  17.645   5.939
 3950POPC   C1A52323   1.584  17.424   6.244
 3950POPC   D2A52324   1.517  17.625   6.652
 3950POPC   C3A52325   1.325  17.398   7.002
 3950POPC   C4A52326   1.278  17.472   7.450
 3950POPC   C1B52327   0.877  17.366   6.220
 3950POPC   C2B52328   0.724  17.289   6.686
 3950POPC   C3B52329   0.840  17.379   7.170
 3950POPC   C4B52330   0.956  17.087   7.513
 3951POPC   NC352331  20.229  33.214   5.343
 3951POPC   PO452332  19.536  33.011   5.368
 3951POPC   GL152333  19.714  32.892   5.736
 3951POPC   GL252334  19.745  33.261   5.851
 3951POPC   C1A52335  19.843  32.846   6.165
 3951POPC   D2A52336  19.782  33.085   6.510
 3951POPC   C3A52337  19.790  32.865   6.858
 3951POPC   C4A52338  19.684  32.800   7.243
 3951POPC   C1B52339  20.106  33.294   6.145
 3951POPC   C2B52340  20.293  33.149   6.521
 3951POPC   C3B52341  20.083  33.305   6.861
 3951POPC   C4B52342  20.031  33.178   7.245
 3952POPC   NC352343  18.586   8.423   5.506
 3952POPC   PO452344  18.067   7.928   5.478
 3952POPC   GL152345  18.381   8.031   5.805
 3952POPC   GL252346  18.207   8.335   5.837
 3952POPC   C1A52347  18.446   8.097   6.285
 3952POPC   D2A52348  18.246   7.914   6.688
 3952POPC   C3A52349  18.344   8.026   7.146
 3952POPC   C4A52350  18.722   8.228   7.409
 3952POPC   C1B52351  18.286   8.607   6.164
 3952POPC   C2B52352  18.089   8.461   6.542
 3952POPC   C3B52353  18.147   8.621   6.956
 3952POPC   C4B52354  18.325   8.510   7.308
 3953POPC   NC352355  10.118  42.060   5.210
 3953POPC   PO452356   9.605  42.395   5.257
 3953POPC   GL152357   9.676  42.403   5.719
 3953POPC   GL252358   9.792  42.056   5.739
 3953POPC   C1A52359   9.961  42.361   6.136
 3953POPC   D2A52360  10.124  42.420   6.604
 3953POPC   C3A52361   9.909  42.584   7.005
 3953POPC   C4A52362   9.928  42.582   7.480
 3953POPC   C1B52363   9.510  42.116   6.123
 3953POPC   C2B52364   9.687  42.167   6.541
 3953POPC   C3B52365   9.848  42.060   6.953
 3953POPC   C4B52366   9.464  42.165   7.182
 3954POPC   NC352367  37.546   4.490   5.640
 3954POPC   PO452368  38.010   4.086   5.354
 3954POPC   GL152369  37.980   4.259   5.783
 3954POPC   GL252370  38.177   4.513   5.936
 3954POPC   C1A52371  37.851   4.151   6.193
 3954POPC   D2A52372  38.018   4.333   6.589
 3954POPC   C3A52373  37.883   4.090   6.896
 3954POPC   C4A52374  37.555   4.052   7.191
 3954POPC   C1B52375  37.824   4.643   6.235
 3954POPC   C2B52376  37.537   4.469   6.579
 3954POPC   C3B52377  37.670   4.531   7.033
 3954POPC   C4B52378  37.427   4.624   7.419
 3955POPC   NC352379  38.066  27.160   5.491
 3955POPC   PO452380  37.446  26.823   5.290
 3955POPC   GL152381  37.633  26.855   5.749
 3955POPC   GL252382  37.983  26.740   5.789
 3955POPC   C1A52383  37.735  27.026   6.210
 3955POPC   D2A52384  37.599  27.172   6.650
 3955POPC   C3A52385  37.563  26.905   7.043
 3955POPC   C4A52386  37.631  27.064   7.521
 3955POPC   C1B52387  37.851  26.536   6.182
 3955POPC   C2B52388  37.859  26.690   6.629
 3955POPC   C3B52389  37.865  26.492   7.029
 3955POPC   C4B52390  37.818  26.603   7.484
 3956POPC   NC352391  11.342   0.306   5.030
 3956POPC   PO452392  11.496   0.614   5.589
 3956POPC   GL152393  11.232   0.439   5.861
 3956POPC   GL252394  11.034   0.725   5.807
 3956POPC   C1A52395  11.308   0.343   6.290
 3956POPC   D2A52396  11.551   0.245   6.648
 3956POPC   C3A52397  11.395   0.388   7.052
 3956POPC   C4A52398  11.455   0.312   7.488
 3956POPC   C1B52399  11.235   0.838   6.199
 3956POPC   C2B52400  11.318   0.764   6.606
 3956POPC   C3B52401  11.220   0.900   6.997
 3956POPC   C4B52402  11.229   0.761   7.423
 3957POPC   NC352403  33.679  38.866   5.374
 3957POPC   PO452404  33.972  38.366   5.706
 3957POPC   GL152405  33.646  38.334   5.919
 3957POPC   GL252406  33.596  38.693   5.847
 3957POPC   C1A52407  33.675  38.366   6.361
 3957POPC   D2A52408  33.902  38.663   6.572
 3957POPC   C3A52409  33.971  38.537   6.953
 3957POPC   C4A52410  33.760  38.315   7.270
 3957POPC   C1B52411  33.499  38.891   6.198
 3957POPC   C2B52412  33.377  38.769   6.551
 3957POPC   C3B52413  33.543  38.870   6.905
 3957POPC   C4B52414  33.650  38.829   7.283
 3958POPC   NC352415  13.367   1.346   5.450
 3958POPC   PO452416  13.552   0.727   5.515
 3958POPC   GL152417  13.732   0.982   5.824
 3958POPC   GL252418  13.770   1.321   5.806
 3958POPC   C1A52419  13.701   1.075   6.261
 3958POPC   D2A52420  13.654   1.344   6.600
 3958POPC   C3A52421  13.317   1.260   6.827
 3958POPC   C4A52422  13.372   1.009   7.127
 3958POPC   C1B52423  13.984   1.501   6.217
 3958POPC   C2B52424  13.935   1.762   6.616
 3958POPC   C3B52425  13.880   1.646   7.085
 3958POPC   C4B52426  14.003   1.784   7.516
 3959POPC   NC352427  18.763  21.906   5.216
 3959POPC   PO452428  19.058  22.447   5.154
 3959POPC   GL152429  19.072  22.262   5.588
 3959POPC   GL252430  18.725  22.217   5.719
 3959POPC   C1A52431  19.198  22.045   5.994
 3959POPC   D2A52432  19.344  22.006   6.440
 3959POPC   C3A52433  19.160  22.050   6.866
 3959POPC   C4A52434  19.321  22.215   7.244
 3959POPC   C1B52435  18.788  22.291   6.188
 3959POPC   C2B52436  18.696  22.156   6.637
 3959POPC   C3B52437  18.769  22.406   7.019
 3959POPC   C4B52438  19.001  22.594   7.383
 3960POPC   NC352439   8.718  12.246   5.457
 3960POPC   PO452440   9.231  11.899   5.171
 3960POPC   GL152441   9.212  12.204   5.645
 3960POPC   GL252442   9.105  12.554   5.733
 3960POPC   C1A52443   9.246  12.254   6.165
 3960POPC   D2A52444   9.428  12.282   6.643
 3960POPC   C3A52445   9.271  12.145   7.100
 3960POPC   C4A52446   9.157  11.932   7.517
 3960POPC   C1B52447   8.779  12.412   6.076
 3960POPC   C2B52448   8.752  12.231   6.492
 3960POPC   C3B52449   8.835  12.372   6.918
 3960POPC   C4B52450   8.807  12.262   7.357
 3961POPC   NC352451  25.895  32.725   5.351
 3961POPC   PO452452  25.953  33.428   5.312
 3961POPC   GL152453  26.033  33.121   5.697
 3961POPC   GL252454  25.775  33.170   5.974
 3961POPC   C1A52455  26.129  32.812   6.075
 3961POPC   D2A52456  26.296  32.906   6.524
 3961POPC   C3A52457  26.075  32.825   6.929
 3961POPC   C4A52458  26.238  32.881   7.371
 3961POPC   C1B52459  26.208  33.300   6.174
 3961POPC   C2B52460  26.363  33.455   6.581
 3961POPC   C3B52461  26.278  33.295   6.996
 3961POPC   C4B52462  25.868  33.218   7.227
 3962POPC   NC352463  10.431  30.058   5.397
 3962POPC   PO452464  10.764  29.485   5.409
 3962POPC   GL152465  10.593  29.736   5.787
 3962POPC   GL252466  10.332  30.019   5.892
 3962POPC   C1A52467  10.472  29.646   6.216
 3962POPC   D2A52468  10.604  29.591   6.628
 3962POPC   C3A52469  10.611  29.915   6.940
 3962POPC   C4A52470  10.645  29.888   7.357
 3962POPC   C1B52471  10.102  29.994   6.296
 3962POPC   C2B52472  10.131  29.905   6.766
 3962POPC   C3B52473  10.143  29.893   7.253
 3962POPC   C4B52474  10.311  30.214   7.556
 3963POPC   NC352475  20.958  27.796   5.034
 3963POPC   PO452476  21.004  27.279   5.489
 3963POPC   GL152477  21.187  27.502   5.945
 3963POPC   GL252478  21.201  27.845   5.886
 3963POPC   C1A52479  21.429  27.523   6.352
 3963POPC   D2A52480  21.587  27.771   6.735
 3963POPC   C3A52481  21.486  27.508   7.096
 3963POPC   C4A52482  21.504  27.350   7.521
 3963POPC   C1B52483  21.273  28.000   6.290
 3963POPC   C2B52484  21.081  27.773   6.645
 3963POPC   C3B52485  20.992  27.615   7.063
 3963POPC   C4B52486  21.150  27.721   7.518
 3964POPC   NC352487  28.931  10.394   5.396
 3964POPC   PO452488  29.070   9.685   5.312
 3964POPC   GL152489  29.109   9.968   5.680
 3964POPC   GL252490  29.198   9.695   5.858
 3964POPC   C1A52491  29.178  10.055   6.183
 3964POPC   D2A52492  29.272   9.860   6.568
 3964POPC   C3A52493  29.003  10.012   6.899
 3964POPC   C4A52494  28.971   9.880   7.306
 3964POPC   C1B52495  29.168   9.433   6.195
 3964POPC   C2B52496  28.938   9.437   6.562
 3964POPC   C3B52497  29.105   9.521   6.947
 3964POPC   C4B52498  29.288   9.410   7.316
 3965POPC   NC352499   0.555  43.008   5.509
 3965POPC   PO452500   0.461  42.402   5.174
 3965POPC   GL152501   0.495  42.406   5.608
 3965POPC   GL252502   0.254  42.603   5.734
 3965POPC   C1A52503   0.603  42.292   6.039
 3965POPC   D2A52504   0.419  42.230   6.465
 3965POPC   C3A52505   0.585  42.302   6.869
 3965POPC   C4A52506   0.694  42.011   7.151
 3965POPC   C1B52507   0.331  42.706   6.195
 3965POPC   C2B52508   0.297  42.737   6.661
 3965POPC   C3B52509   0.216  42.586   7.095
 3965POPC   C4B52510   0.473  42.414   7.433
 3966POPC   NC352511   9.292   4.820   5.462
 3966POPC   PO452512   8.893   5.252   5.728
 3966POPC   GL152513   9.056   4.917   5.917
 3966POPC   GL252514   9.417   4.999   5.919
 3966POPC   C1A52515   9.092   4.965   6.346
 3966POPC   D2A52516   9.342   5.226   6.586
 3966POPC   C3A52517   9.222   5.292   7.010
 3966POPC   C4A52518   8.850   5.268   7.288
 3966POPC   C1B52519   9.427   4.642   6.178
 3966POPC   C2B52520   9.388   4.632   6.589
 3966POPC   C3B52521   9.397   4.811   6.979
 3966POPC   C4B52522   9.209   4.884   7.337
 3967POPC   NC352523  43.571   3.816   5.002
 3967POPC   PO452524  44.139   3.655   5.310
 3967POPC   GL152525  43.969   3.575   5.769
 3967POPC   GL252526  43.645   3.424   5.802
 3967POPC   C1A52527  43.830   3.559   6.246
 3967POPC   D2A52528  43.609   3.537   6.657
 3967POPC   C3A52529  43.880   3.512   6.989
 3967POPC   C4A52530  43.836   3.753   7.358
 3967POPC   C1B52531  43.483   3.182   6.113
 3967POPC   C2B52532  43.537   3.071   6.520
 3967POPC   C3B52533  43.628   3.046   6.961
 3967POPC   C4B52534  43.563   3.297   7.321
 3968POPC   NC352535  36.236   3.442   5.456
 3968POPC   PO452536  35.650   3.811   5.347
 3968POPC   GL152537  35.840   3.750   5.787
 3968POPC   GL252538  36.063   3.463   5.922
 3968POPC   C1A52539  35.868   3.771   6.266
 3968POPC   D2A52540  35.939   3.544   6.676
 3968POPC   C3A52541  36.149   3.725   7.056
 3968POPC   C4A52542  35.964   3.808   7.477
 3968POPC   C1B52543  36.375   3.525   6.262
 3968POPC   C2B52544  36.386   3.312   6.668
 3968POPC   C3B52545  36.183   3.212   7.048
 3968POPC   C4B52546  36.388   3.394   7.369
 3969POPC   NC352547  26.989  21.542   5.385
 3969POPC   PO452548  27.583  21.145   5.397
 3969POPC   GL152549  27.541  21.446   5.735
 3969POPC   GL252550  27.228  21.449   5.827
 3969POPC   C1A52551  27.622  21.326   6.167
 3969POPC   D2A52552  27.567  21.047   6.535
 3969POPC   C3A52553  27.816  21.172   6.866
 3969POPC   C4A52554  27.768  21.390   7.224
 3969POPC   C1B52555  27.213  21.662   6.196
 3969POPC   C2B52556  27.433  21.585   6.576
 3969POPC   C3B52557  27.339  21.359   6.934
 3969POPC   C4B52558  27.109  21.569   7.215
 3970POPC   NC352559  36.021  40.330   5.464
 3970POPC   PO452560  35.991  39.695   5.405
 3970POPC   GL152561  36.156  39.914   5.792
 3970POPC   GL252562  36.390  40.194   5.766
 3970POPC   C1A52563  36.091  39.850   6.269
 3970POPC   D2A52564  36.372  39.842   6.659
 3970POPC   C3A52565  36.152  39.787   7.052
 3970POPC   C4A52566  36.165  39.862   7.511
 3970POPC   C1B52567  36.190  40.370   6.119
 3970POPC   C2B52568  36.178  40.317   6.547
 3970POPC   C3B52569  35.982  40.240   6.926
 3970POPC   C4B52570  36.117  40.359   7.343
 3971POPC   NC352571  17.905  36.395   5.384
 3971POPC   PO452572  17.757  37.009   5.441
 3971POPC   GL152573  17.586  36.946   5.825
 3971POPC   GL252574  17.272  36.800   5.728
 3971POPC   C1A52575  17.755  36.805   6.264
 3971POPC   D2A52576  17.537  36.661   6.673
 3971POPC   C3A52577  17.685  36.728   7.092
 3971POPC   C4A52578  17.476  36.974   7.452
 3971POPC   C1B52579  17.256  36.898   6.198
 3971POPC   C2B52580  17.466  37.146   6.518
 3971POPC   C3B52581  17.453  37.173   6.944
 3971POPC   C4B52582  17.129  37.252   7.227
 3972POPC   NC352583   4.604   3.280   5.410
 3972POPC   PO452584   4.130   3.663   5.537
 3972POPC   GL152585   4.289   3.430   5.856
 3972POPC   GL252586   4.009   3.195   5.878
 3972POPC   C1A52587   4.339   3.361   6.307
 3972POPC   D2A52588   4.307   3.310   6.765
 3972POPC   C3A52589   4.654   3.457   7.039
 3972POPC   C4A52590   4.647   3.652   7.456
 3972POPC   C1B52591   3.863   3.560   6.163
 3972POPC   C2B52592   3.840   3.690   6.629
 3972POPC   C3B52593   4.010   3.600   7.059
 3972POPC   C4B52594   4.252   3.375   7.346
 3973POPC   NC352595  21.048  16.652   5.079
 3973POPC   PO452596  21.515  16.964   5.356
 3973POPC   GL152597  21.644  16.729   5.727
 3973POPC   GL252598  21.333  16.563   5.819
 3973POPC   C1A52599  21.540  16.864   6.170
 3973POPC   D2A52600  21.403  16.834   6.629
 3973POPC   C3A52601  21.635  16.621   6.980
 3973POPC   C4A52602  21.553  16.588   7.432
 3973POPC   C1B52603  21.315  16.421   6.275
 3973POPC   C2B52604  21.326  16.300   6.725
 3973POPC   C3B52605  21.239  16.285   7.174
 3973POPC   C4B52606  21.470  16.100   7.544
 3974POPC   NC352607  44.907  40.313   5.289
 3974POPC   PO452608  44.260  40.256   5.312
 3974POPC   GL152609  44.427  40.120   5.700
 3974POPC   GL252610  44.793  40.239   5.773
 3974POPC   C1A52611  44.277  40.073   6.127
 3974POPC   D2A52612  44.374  40.340   6.478
 3974POPC   C3A52613  44.616  40.149   6.807
 3974POPC   C4A52614  44.475  39.941   7.175
 3974POPC   C1B52615  44.855  40.233   6.232
 3974POPC   C2B52616   0.109  40.264   6.614
 3974POPC   C3B52617   0.013  40.429   6.989
 3974POPC   C4B52618  44.989  40.056   7.206
 3975POPC   NC352619  14.235  31.874   5.389
 3975POPC   PO452620  14.421  32.541   5.413
 3975POPC   GL152621  14.237  32.400   5.803
 3975POPC   GL252622  14.426  32.094   5.855
 3975POPC   C1A52623  14.327  32.405   6.260
 3975POPC   D2A52624  14.495  32.258   6.661
 3975POPC   C3A52625  14.547  32.458   7.053
 3975POPC   C4A52626  14.479  32.471   7.504
 3975POPC   C1B52627  14.633  31.975   6.257
 3975POPC   C2B52628  14.571  31.739   6.630
 3975POPC   C3B52629  14.344  31.873   6.974
 3975POPC   C4B52630  14.428  31.961   7.386
 3976POPC   NC352631   1.872   0.959   5.320
 3976POPC   PO452632   2.380   1.370   5.499
 3976POPC   GL152633   2.028   1.339   5.828
 3976POPC   GL252634   1.800   1.044   5.835
 3976POPC   C1A52635   1.842   1.462   6.261
 3976POPC   D2A52636   1.706   1.759   6.618
 3976POPC   C3A52637   1.793   1.509   7.022
 3976POPC   C4A52638   1.754   1.060   7.120
 3976POPC   C1B52639   2.147   0.923   6.128
 3976POPC   C2B52640   2.275   0.946   6.561
 3976POPC   C3B52641   2.173   0.738   6.962
 3976POPC   C4B52642   2.164   0.897   7.391
 3977POPC   NC352643  31.153  16.184   4.902
 3977POPC   PO452644  31.217  15.751   5.437
 3977POPC   GL152645  31.373  15.735   5.806
 3977POPC   GL252646  31.367  16.104   5.819
 3977POPC   C1A52647  31.511  15.805   6.209
 3977POPC   D2A52648  31.661  15.737   6.582
 3977POPC   C3A52649  31.399  15.904   6.901
 3977POPC   C4A52650  31.517  15.830   7.302
 3977POPC   C1B52651  31.257  16.241   6.251
 3977POPC   C2B52652  31.017  16.137   6.645
 3977POPC   C3B52653  31.102  16.327   7.062
 3977POPC   C4B52654  31.436  16.345   7.398
 3978POPC   NC352655  19.621  40.877   5.490
 3978POPC   PO452656  20.154  40.439   5.541
 3978POPC   GL152657  19.991  40.710   5.863
 3978POPC   GL252658  20.054  41.062   5.858
 3978POPC   C1A52659  19.915  40.617   6.290
 3978POPC   D2A52660  20.056  40.360   6.611
 3978POPC   C3A52661  19.927  40.534   6.982
 3978POPC   C4A52662  19.695  40.523   7.415
 3978POPC   C1B52663  19.857  41.131   6.289
 3978POPC   C2B52664  19.797  41.143   6.762
 3978POPC   C3B52665  19.759  40.955   7.171
 3978POPC   C4B52666  19.875  41.008   7.630
 3979POPC   NC352667  29.231  16.312   5.550
 3979POPC   PO452668  28.787  16.846   5.450
 3979POPC   GL152669  28.963  16.659   5.844
 3979POPC   GL252670  28.960  16.329   5.973
 3979POPC   C1A52671  29.202  16.706   6.261
 3979POPC   D2A52672  29.301  16.955   6.636
 3979POPC   C3A52673  29.189  16.809   7.053
 3979POPC   C4A52674  29.188  16.872   7.511
 3979POPC   C1B52675  28.716  16.572   6.263
 3979POPC   C2B52676  28.844  16.660   6.660
 3979POPC   C3B52677  28.770  16.452   7.023
 3979POPC   C4B52678  28.751  16.671   7.374
 3980POPC   NC352679  25.056  31.940   5.459
 3980POPC   PO452680  25.316  31.300   5.421
 3980POPC   GL152681  25.067  31.477   5.706
 3980POPC   GL252682  25.327  31.662   5.824
 3980POPC   C1A52683  24.950  31.464   6.135
 3980POPC   D2A52684  24.972  31.565   6.546
 3980POPC   C3A52685  25.225  31.436   6.886
 3980POPC   C4A52686  24.933  31.471   7.216
 3980POPC   C1B52687  25.285  31.858   6.174
 3980POPC   C2B52688  25.436  31.819   6.559
 3980POPC   C3B52689  25.489  31.876   6.950
 3980POPC   C4B52690  25.283  32.008   7.317
 3981POPC   NC352691   1.161  34.860   5.439
 3981POPC   PO452692   1.209  34.243   5.588
 3981POPC   GL152693   1.071  34.540   5.868
 3981POPC   GL252694   1.406  34.613   5.960
 3981POPC   C1A52695   1.036  34.606   6.317
 3981POPC   D2A52696   1.218  34.628   6.720
 3981POPC   C3A52697   0.972  34.422   7.015
 3981POPC   C4A52698   1.046  34.175   7.324
 3981POPC   C1B52699   1.298  34.195   6.222
 3981POPC   C2B52700   1.256  34.092   6.663
 3981POPC   C3B52701   1.475  34.264   7.003
 3981POPC   C4B52702   1.522  34.325   7.418
 3982POPC   NC352703  15.587  19.976   5.567
 3982POPC   PO452704  16.265  20.016   5.489
 3982POPC   GL152705  16.091  19.978   5.886
 3982POPC   GL252706  15.860  20.240   5.891
 3982POPC   C1A52707  16.061  19.726   6.270
 3982POPC   D2A52708  16.212  19.642   6.687
 3982POPC   C3A52709  15.858  19.502   6.927
 3982POPC   C4A52710  15.757  19.494   7.366
 3982POPC   C1B52711  15.781  20.170   6.316
 3982POPC   C2B52712  15.767  19.985   6.745
 3982POPC   C3B52713  15.908  19.946   7.186
 3982POPC   C4B52714  15.814  20.132   7.593
 3983POPC   NC352715  15.507  21.462   5.285
 3983POPC   PO452716  14.970  21.106   5.463
 3983POPC   GL152717  15.035  21.315   5.825
 3983POPC   GL252718  15.373  21.469   5.816
 3983POPC   C1A52719  15.162  21.198   6.233
 3983POPC   D2A52720  15.455  21.359   6.559
 3983POPC   C3A52721  15.370  21.178   6.941
 3983POPC   C4A52722  14.976  21.068   7.075
 3983POPC   C1B52723  15.242  21.699   6.215
 3983POPC   C2B52724  15.248  21.859   6.654
 3983POPC   C3B52725  15.186  21.676   7.062
 3983POPC   C4B52726  14.955  21.724   7.462
 3984POPC   NC352727  12.287  12.436   5.299
 3984POPC   PO452728  12.034  11.875   5.396
 3984POPC   GL152729  12.006  12.171   5.700
 3984POPC   GL252730  12.298  12.301   5.781
 3984POPC   C1A52731  11.919  12.218   6.156
 3984POPC   D2A52732  12.065  12.201   6.610
 3984POPC   C3A52733  11.886  11.950   6.979
 3984POPC   C4A52734  11.956  11.675   7.353
 3984POPC   C1B52735  12.397  12.471   6.172
 3984POPC   C2B52736  12.547  12.377   6.582
 3984POPC   C3B52737  12.360  12.231   7.029
 3984POPC   C4B52738  12.093  12.165   7.401
 3985POPC   NC352739   9.131  41.439   5.618
 3985POPC   PO452740   8.507  41.255   5.515
 3985POPC   GL152741   8.680  41.529   5.897
 3985POPC   GL252742   8.886  41.852   5.870
 3985POPC   C1A52743   8.685  41.753   6.344
 3985POPC   D2A52744   8.696  41.746   6.826
 3985POPC   C3A52745   8.888  41.347   7.011
 3985POPC   C4A52746   9.309  41.233   7.178
 3985POPC   C1B52747   9.183  41.694   6.220
 3985POPC   C2B52748   9.142  41.549   6.632
 3985POPC   C3B52749   9.250  41.718   7.042
 3985POPC   C4B52750   9.319  41.743   7.515
 3986POPC   NC352751  31.946  12.817   5.425
 3986POPC   PO452752  32.576  12.791   5.182
 3986POPC   GL152753  32.412  12.657   5.646
 3986POPC   GL252754  32.153  12.859   5.899
 3986POPC   C1A52755  32.558  12.634   6.112
 3986POPC   D2A52756  32.577  12.941   6.482
 3986POPC   C3A52757  32.569  12.861   6.938
 3986POPC   C4A52758  32.482  12.608   7.295
 3986POPC   C1B52759  32.030  12.690   6.342
 3986POPC   C2B52760  32.062  12.680   6.819
 3986POPC   C3B52761  32.095  12.952   7.189
 3986POPC   C4B52762  31.984  12.965   7.663
 3987POPC   NC352763  30.174  29.248   4.969
 3987POPC   PO452764  29.677  29.468   5.497
 3987POPC   GL152765  29.638  29.252   5.868
 3987POPC   GL252766  29.794  28.930   5.854
 3987POPC   C1A52767  29.485  29.253   6.286
 3987POPC   D2A52768  29.602  29.115   6.710
 3987POPC   C3A52769  29.871  29.318   6.999
 3987POPC   C4A52770  29.655  29.328   7.363
 3987POPC   C1B52771  29.928  28.975   6.313
 3987POPC   C2B52772  30.097  28.904   6.760
 3987POPC   C3B52773  30.026  28.867   7.244
 3987POPC   C4B52774  30.109  28.795   7.735
 3988POPC   NC352775  31.974  40.125   5.547
 3988POPC   PO452776  32.261  39.549   5.574
 3988POPC   GL152777  32.378  39.798   5.896
 3988POPC   GL252778  32.417  40.153   5.840
 3988POPC   C1A52779  32.557  39.867   6.286
 3988POPC   D2A52780  32.508  40.167   6.600
 3988POPC   C3A52781  32.320  40.031   6.982
 3988POPC   C4A52782  32.551  39.817   7.265
 3988POPC   C1B52783  32.124  40.180   6.187
 3988POPC   C2B52784  31.972  40.124   6.582
 3988POPC   C3B52785  31.926  40.367   6.948
 3988POPC   C4B52786  32.064  40.413   7.354
 3989POPC   NC352787  36.044  23.391   5.543
 3989POPC   PO452788  36.314  23.970   5.484
 3989POPC   GL152789  36.251  23.781   5.862
 3989POPC   GL252790  35.956  23.671   5.958
 3989POPC   C1A52791  36.362  23.698   6.298
 3989POPC   D2A52792  36.137  23.735   6.686
 3989POPC   C3A52793  36.372  23.562   7.030
 3989POPC   C4A52794  36.304  23.504   7.452
 3989POPC   C1B52795  35.780  23.813   6.302
 3989POPC   C2B52796  35.792  24.134   6.572
 3989POPC   C3B52797  35.750  24.132   6.970
 3989POPC   C4B52798  35.918  23.769   7.183
 3990POPC   NC352799  36.773  20.957   5.321
 3990POPC   PO452800  36.597  21.514   5.498
 3990POPC   GL152801  36.861  21.285   5.770
 3990POPC   GL252802  37.166  21.469   5.853
 3990POPC   C1A52803  36.856  21.201   6.223
 3990POPC   D2A52804  37.028  21.165   6.637
 3990POPC   C3A52805  36.852  20.999   6.985
 3990POPC   C4A52806  36.596  21.284   7.259
 3990POPC   C1B52807  37.110  21.664   6.286
 3990POPC   C2B52808  37.084  21.692   6.761
 3990POPC   C3B52809  37.100  21.416   7.148
 3990POPC   C4B52810  37.182  21.489   7.641
 3991POPC   NC352811  18.218  24.788   5.307
 3991POPC   PO452812  18.210  25.420   5.350
 3991POPC   GL152813  18.211  25.139   5.728
 3991POPC   GL252814  18.099  24.795   5.818
 3991POPC   C1A52815  18.574  25.037   5.981
 3991POPC   D2A52816  18.730  25.027   6.404
 3991POPC   C3A52817  18.437  25.123   6.725
 3991POPC   C4A52818  18.366  25.236   7.155
 3991POPC   C1B52819  18.138  24.956   6.257
 3991POPC   C2B52820  17.974  24.920   6.681
 3991POPC   C3B52821  17.858  25.069   7.102
 3991POPC   C4B52822  17.978  25.139   7.540
 3992POPC   NC352823  30.629  17.079   5.566
 3992POPC   PO452824  30.448  16.386   5.369
 3992POPC   GL152825  30.617  16.374   5.788
 3992POPC   GL252826  30.648  16.706   5.923
 3992POPC   C1A52827  30.753  16.297   6.207
 3992POPC   D2A52828  30.616  16.613   6.450
 3992POPC   C3A52829  30.650  16.505   6.851
 3992POPC   C4A52830  30.689  16.653   7.238
 3992POPC   C1B52831  30.652  17.074   6.207
 3992POPC   C2B52832  30.420  17.079   6.568
 3992POPC   C3B52833  30.614  17.028   6.923
 3992POPC   C4B52834  30.834  17.173   7.270
 3993POPC   NC352835  35.920  26.137   5.307
 3993POPC   PO452836  36.601  26.363   5.326
 3993POPC   GL152837  36.284  26.106   5.676
 3993POPC   GL252838  35.950  26.252   5.807
 3993POPC   C1A52839  36.196  25.925   6.123
 3993POPC   D2A52840  36.379  26.027   6.566
 3993POPC   C3A52841  36.195  25.902   6.968
 3993POPC   C4A52842  36.214  26.080   7.400
 3993POPC   C1B52843  35.795  26.225   6.241
 3993POPC   C2B52844  35.865  26.205   6.687
 3993POPC   C3B52845  35.763  26.223   7.152
 3993POPC   C4B52846  35.752  26.302   7.607
 3994POPC   NC352847  42.127   3.778   5.761
 3994POPC   PO452848  42.320   4.430   5.433
 3994POPC   GL152849  42.391   4.214   5.801
 3994POPC   GL252850  42.037   4.278   5.895
 3994POPC   C1A52851  42.422   4.197   6.246
 3994POPC   D2A52852  42.395   4.548   6.551
 3994POPC   C3A52853  42.404   4.468   6.975
 3994POPC   C4A52854  42.623   4.207   7.268
 3994POPC   C1B52855  41.942   4.456   6.324
 3994POPC   C2B52856  41.906   4.485   6.786
 3994POPC   C3B52857  41.990   4.280   7.187
 3994POPC   C4B52858  41.893   3.955   7.433
 3995POPC   NC352859   9.183   0.800   5.529
 3995POPC   PO452860   8.711   0.383   5.444
 3995POPC   GL152861   8.953   0.428   5.807
 3995POPC   GL252862   8.753   0.725   5.841
 3995POPC   C1A52863   9.143   0.338   6.223
 3995POPC   D2A52864   9.404   0.471   6.582
 3995POPC   C3A52865   9.250   0.312   6.971
 3995POPC   C4A52866   9.118   0.448   7.376
 3995POPC   C1B52867   8.614   0.402   6.185
 3995POPC   C2B52868   8.819   0.396   6.601
 3995POPC   C3B52869   8.768   0.519   6.988
 3995POPC   C4B52870   8.656   0.254   7.300
 3996POPC   NC352871  15.087  26.248   5.353
 3996POPC   PO452872  15.652  25.950   5.223
 3996POPC   GL152873  15.430  26.163   5.685
 3996POPC   GL252874  15.149  25.916   5.758
 3996POPC   C1A52875  15.330  26.195   6.156
 3996POPC   D2A52876  15.426  25.974   6.581
 3996POPC   C3A52877  15.581  26.184   6.986
 3996POPC   C4A52878  15.476  26.010   7.411
 3996POPC   C1B52879  15.068  25.674   6.144
 3996POPC   C2B52880  15.054  25.512   6.574
 3996POPC   C3B52881  15.096  25.713   6.971
 3996POPC   C4B52882  14.690  25.701   7.167
 3997POPC   NC352883   9.543  28.777   5.708
 3997POPC   PO452884   9.290  29.183   5.288
 3997POPC   GL152885   9.478  29.284   5.717
 3997POPC   GL252886   9.818  29.356   5.695
 3997POPC   C1A52887   9.535  29.265   6.173
 3997POPC   D2A52888   9.817  29.019   6.462
 3997POPC   C3A52889   9.802  29.002   6.925
 3997POPC   C4A52890   9.631  29.243   7.271
 3997POPC   C1B52891  10.025  29.427   6.101
 3997POPC   C2B52892  10.071  29.460   6.549
 3997POPC   C3B52893  10.055  29.444   7.005
 3997POPC   C4B52894  10.082  29.387   7.452
 3998POPC   NC352895  33.460  42.428   5.501
 3998POPC   PO452896  34.126  42.117   5.508
 3998POPC   GL152897  33.831  42.279   5.824
 3998POPC   GL252898  33.508  42.082   5.882
 3998POPC   C1A52899  33.638  42.482   6.205
 3998POPC   D2A52900  33.582  42.735   6.591
 3998POPC   C3A52901  33.722  42.635   7.014
 3998POPC   C4A52902  33.534  42.570   7.453
 3998POPC   C1B52903  33.584  41.977   6.320
 3998POPC   C2B52904  33.490  42.243   6.692
 3998POPC   C3B52905  33.522  42.190   7.123
 3998POPC   C4B52906  33.528  42.078   7.552
 3999POPC   NC352907  14.670   0.000   5.270
 3999POPC   PO452908  15.183   0.576   5.410
 3999POPC   GL152909  14.989   0.586   5.836
 3999POPC   GL252910  15.274   0.428   5.927
 3999POPC   C1A52911  14.875   0.458   6.266
 3999POPC   D2A52912  14.815   0.388   6.713
 3999POPC   C3A52913  15.180   0.462   7.019
 3999POPC   C4A52914  15.156   0.552   7.480
 3999POPC   C1B52915  15.426   0.741   6.167
 3999POPC   C2B52916  15.690   0.660   6.481
 3999POPC   C3B52917  15.622   0.882   6.852
 3999POPC   C4B52918  15.488   0.909   7.254
 4000POPC   NC352919  19.824  12.042   5.051
 4000POPC   PO452920  19.444  11.642   5.440
 4000POPC   GL152921  19.658  11.954   5.692
 4000POPC   GL252922  19.761  11.689   5.857
 4000POPC   C1A52923  19.783  12.057   6.177
 4000POPC   D2A52924  19.843  11.756   6.556
 4000POPC   C3A52925  19.723  11.901   6.977
 4000POPC   C4A52926  19.930  12.090   7.362
 4000POPC   C1B52927  20.209  11.764   6.076
 4000POPC   C2B52928  20.378  11.730   6.514
 4000POPC   C3B52929  20.238  11.818   6.953
 4000POPC   C4B52930  20.344  11.778   7.388
 4001POPC   NC352931   5.876  15.364   5.193
 4001POPC   PO452932   5.764  14.720   5.170
 4001POPC   GL152933   5.810  15.013   5.611
 4001POPC   GL252934   5.635  14.888   5.900
 4001POPC   C1A52935   6.004  15.169   6.064
 4001POPC   D2A52936   5.797  15.202   6.501
 4001POPC   C3A52937   5.986  15.293   6.932
 4001POPC   C4A52938   6.280  15.070   7.266
 4001POPC   C1B52939   5.835  14.715   6.279
 4001POPC   C2B52940   5.672  14.598   6.663
 4001POPC   C3B52941   5.544  14.971   6.899
 4001POPC   C4B52942   5.748  15.046   7.289
 4002POPC   NC352943  26.341   1.358   5.103
 4002POPC   PO452944  26.043   0.979   5.428
 4002POPC   GL152945  26.248   1.119   5.832
 4002POPC   GL252946  26.109   1.443   5.884
 4002POPC   C1A52947  26.127   1.161   6.313
 4002POPC   D2A52948  26.119   1.232   6.776
 4002POPC   C3A52949  26.180   0.895   7.077
 4002POPC   C4A52950  26.314   0.904   7.523
 4002POPC   C1B52951  26.316   1.639   6.245
 4002POPC   C2B52952  26.345   1.694   6.705
 4002POPC   C3B52953  26.088   1.673   7.106
 4002POPC   C4B52954  25.804   1.842   7.462
 4003POPC   NC352955  25.509  18.268   5.506
 4003POPC   PO452956  25.127  18.717   5.154
 4003POPC   GL152957  25.078  18.530   5.636
 4003POPC   GL252958  25.059  18.143   5.720
 4003POPC   C1A52959  25.271  18.453   6.082
 4003POPC   D2A52960  25.190  18.375   6.528
 4003POPC   C3A52961  25.482  18.508   6.827
 4003POPC   C4A52962  25.494  18.379   7.248
 4003POPC   C1B52963  24.961  18.067   6.190
 4003POPC   C2B52964  24.883  17.932   6.652
 4003POPC   C3B52965  24.866  17.876   7.089
 4003POPC   C4B52966  24.889  17.947   7.583
 4004POPC   NC352967  42.443  23.356   5.339
 4004POPC   PO452968  42.570  22.663   5.361
 4004POPC   GL152969  42.385  22.945   5.649
 4004POPC   GL252970  42.666  23.151   5.765
 4004POPC   C1A52971  42.282  22.837   6.068
 4004POPC   D2A52972  42.408  22.850   6.500
 4004POPC   C3A52973  42.174  22.593   6.795
 4004POPC   C4A52974  42.286  22.689   7.207
 4004POPC   C1B52975  42.499  23.280   6.199
 4004POPC   C2B52976  42.345  23.324   6.654
 4004POPC   C3B52977  42.291  23.182   7.082
 4004POPC   C4B52978  42.534  23.409   7.446
 4005POPC   NC352979   0.705  32.455   5.469
 4005POPC   PO452980   0.191  32.147   5.342
 4005POPC   GL152981   0.273  32.308   5.794
 4005POPC   GL252982   0.554  32.527   5.947
 4005POPC   C1A52983   0.234  32.293   6.266
 4005POPC   D2A52984   0.317  32.409   6.707
 4005POPC   C3A52985   0.116  32.182   7.060
 4005POPC   C4A52986   0.129  32.250   7.544
 4005POPC   C1B52987   0.734  32.127   6.125
 4005POPC   C2B52988   0.817  32.043   6.562
 4005POPC   C3B52989   0.714  32.203   6.981
 4005POPC   C4B52990   0.524  32.033   7.326
 4006POPC   NC352991  37.991  41.552   5.361
 4006POPC   PO452992  37.343  41.502   5.377
 4006POPC   GL152993  37.562  41.381   5.717
 4006POPC   GL252994  37.674  41.665   5.782
 4006POPC   C1A52995  37.691  41.325   6.165
 4006POPC   D2A52996  37.773  41.134   6.557
 4006POPC   C3A52997  37.648  41.338   6.937
 4006POPC   C4A52998  37.777  41.478   7.331
 4006POPC   C1B52999  37.507  41.835   6.178
 4006POPC   C2B53000  37.440  42.009   6.597
 4006POPC   C3B53001  37.282  41.744   6.929
 4006POPC   C4B53002  37.324  41.717   7.362
 4007POPC   NC353003   8.941  19.508   5.340
 4007POPC   PO453004   9.164  20.183   5.402
 4007POPC   GL153005   9.055  19.870   5.702
 4007POPC   GL253006   8.732  19.760   5.785
 4007POPC   C1A53007   9.172  19.740   6.136
 4007POPC   D2A53008   9.026  19.863   6.544
 4007POPC   C3A53009   8.992  19.574   6.900
 4007POPC   C4A53010   9.159  19.791   7.300
 4007POPC   C1B53011   8.618  19.991   6.195
 4007POPC   C2B53012   8.525  19.946   6.653
 4007POPC   C3B53013   8.682  19.925   7.079
 4007POPC   C4B53014   8.724  19.959   7.550
 4008POPC   NC353015  34.319  11.637   5.329
 4008POPC   PO453016  34.751  11.046   5.483
 4008POPC   GL153017  34.659  11.354   5.779
 4008POPC   GL253018  34.922  11.617   5.845
 4008POPC   C1A53019  34.638  11.190   6.205
 4008POPC   D2A53020  34.418  10.998   6.546
 4008POPC   C3A53021  34.349  11.200   6.945
 4008POPC   C4A53022  34.675  11.019   7.201
 4008POPC   C1B53023  34.701  11.671   6.290
 4008POPC   C2B53024  34.740  11.411   6.686
 4008POPC   C3B53025  34.787  11.524   7.140
 4008POPC   C4B53026  34.888  11.755   7.529
 4009POPC   NC353027  33.346  35.456   5.399
 4009POPC   PO453028  34.037  35.179   5.425
 4009POPC   GL153029  33.768  35.373   5.703
 4009POPC   GL253030  33.482  35.132   5.762
 4009POPC   C1A53031  33.666  35.420   6.145
 4009POPC   D2A53032  33.517  35.319   6.549
 4009POPC   C3A53033  33.852  35.194   6.802
 4009POPC   C4A53034  34.089  35.400   7.113
 4009POPC   C1B53035  33.267  35.072   6.170
 4009POPC   C2B53036  33.129  35.012   6.586
 4009POPC   C3B53037  33.370  35.056   6.965
 4009POPC   C4B53038  33.569  35.378   7.198
 4010POPC   NC353039  14.888  10.240   5.474
 4010POPC   PO453040  14.216  10.329   5.592
 4010POPC   GL153041  14.532  10.320   5.886
 4010POPC   GL253042  14.734  10.605   5.826
 4010POPC   C1A53043  14.517  10.413   6.311
 4010POPC   D2A53044  14.229  10.716   6.478
 4010POPC   C3A53045  14.142  10.648   6.911
 4010POPC   C4A53046  14.207  10.250   7.154
 4010POPC   C1B53047  14.701  10.883   6.195
 4010POPC   C2B53048  14.765  10.734   6.625
 4010POPC   C3B53049  14.685  10.448   6.941
 4010POPC   C4B53050  14.504  10.685   7.236
 4011POPC   NC353051   6.013   3.203   5.415
 4011POPC   PO453052   5.794   3.866   5.469
 4011POPC   GL153053   5.995   3.778   5.833
 4011POPC   GL253054   5.966   3.422   5.873
 4011POPC   C1A53055   5.782   3.793   6.213
 4011POPC   D2A53056   5.616   3.602   6.568
 4011POPC   C3A53057   5.802   3.706   6.957
 4011POPC   C4A53058   5.680   3.743   7.384
 4011POPC   C1B53059   6.211   3.513   6.218
 4011POPC   C2B53060   6.360   3.387   6.552
 4011POPC   C3B53061   6.202   3.405   6.907
 4011POPC   C4B53062   6.356   3.304   7.264
 4012POPC   NC353063  18.606  25.692   5.340
 4012POPC   PO453064  18.124  26.125   5.504
 4012POPC   GL153065  18.379  25.954   5.812
 4012POPC   GL253066  18.388  25.616   5.798
 4012POPC   C1A53067  18.218  25.961   6.227
 4012POPC   D2A53068  18.074  26.224   6.560
 4012POPC   C3A53069  18.052  26.042   6.903
 4012POPC   C4A53070  18.348  25.997   7.193
 4012POPC   C1B53071  18.283  25.446   6.189
 4012POPC   C2B53072  18.183  25.599   6.606
 4012POPC   C3B53073  17.973  25.551   6.981
 4012POPC   C4B53074  18.110  25.611   7.406
 4013POPC   NC353075  20.586  32.204   5.183
 4013POPC   PO453076  20.313  32.750   5.337
 4013POPC   GL153077  20.435  32.464   5.781
 4013POPC   GL253078  20.484  32.136   5.693
 4013POPC   C1A53079  20.771  32.430   6.135
 4013POPC   D2A53080  20.909  32.305   6.578
 4013POPC   C3A53081  20.639  32.448   6.906
 4013POPC   C4A53082  20.598  32.556   7.337
 4013POPC   C1B53083  20.441  32.043   6.119
 4013POPC   C2B53084  20.330  32.156   6.554
 4013POPC   C3B53085  20.416  31.986   6.989
 4013POPC   C4B53086  20.782  32.098   7.271
 4014POPC   NC353087  23.956  17.755   5.448
 4014POPC   PO453088  23.432  17.281   5.294
 4014POPC   GL153089  23.536  17.483   5.704
 4014POPC   GL253090  23.870  17.368   5.826
 4014POPC   C1A53091  23.552  17.718   6.123
 4014POPC   D2A53092  23.865  17.803   6.469
 4014POPC   C3A53093  23.713  17.655   6.895
 4014POPC   C4A53094  23.344  17.390   7.047
 4014POPC   C1B53095  24.161  17.409   6.209
 4014POPC   C2B53096  24.130  17.405   6.677
 4014POPC   C3B53097  24.236  17.287   7.093
 4014POPC   C4B53098  24.126  17.408   7.545
 4015POPC   NC353099   3.485  35.050   5.359
 4015POPC   PO453100   3.384  35.730   5.457
 4015POPC   GL153101   3.635  35.424   5.733
 4015POPC   GL253102   3.418  35.132   5.851
 4015POPC   C1A53103   3.836  35.245   6.134
 4015POPC   D2A53104   3.729  35.375   6.578
 4015POPC   C3A53105   3.755  35.048   6.908
 4015POPC   C4A53106   3.698  35.010   7.355
 4015POPC   C1B53107   3.356  35.389   6.208
 4015POPC   C2B53108   3.193  35.407   6.590
 4015POPC   C3B53109   3.344  35.440   6.984
 4015POPC   C4B53110   3.192  35.387   7.412
 4016POPC   NC353111   9.080  31.952   5.402
 4016POPC   PO453112   8.986  31.208   5.457
 4016POPC   GL153113   8.921  31.377   5.900
 4016POPC   GL253114   9.116  31.665   5.831
 4016POPC   C1A53115   8.798  31.656   6.244
 4016POPC   D2A53116   8.968  31.811   6.579
 4016POPC   C3A53117   8.858  31.499   6.846
 4016POPC   C4A53118   8.792  31.562   7.245
 4016POPC   C1B53119   9.310  31.551   6.234
 4016POPC   C2B53120   9.345  31.472   6.662
 4016POPC   C3B53121   9.296  31.507   7.107
 4016POPC   C4B53122   9.251  31.411   7.529
 4017POPC   NC353123   3.535  13.286   5.519
 4017POPC   PO453124   3.848  12.694   5.332
 4017POPC   GL153125   3.670  12.725   5.805
 4017POPC   GL253126   3.478  13.008   5.945
 4017POPC   C1A53127   3.372  12.541   6.162
 4017POPC   D2A53128   3.196  12.626   6.615
 4017POPC   C3A53129   3.521  12.783   6.866
 4017POPC   C4A53130   3.645  12.704   7.233
 4017POPC   C1B53131   3.483  13.003   6.372
 4017POPC   C2B53132   3.230  13.157   6.677
 4017POPC   C3B53133   3.238  13.105   7.135
 4017POPC   C4B53134   3.581  13.225   7.309
 4018POPC   NC353135   6.492  41.975   5.645
 4018POPC   PO453136   6.944  41.611   5.331
 4018POPC   GL153137   6.710  41.518   5.741
 4018POPC   GL253138   6.908  41.403   5.967
 4018POPC   C1A53139   6.453  41.506   6.165
 4018POPC   D2A53140   6.476  41.252   6.580
 4018POPC   C3A53141   6.442  41.447   6.992
 4018POPC   C4A53142   6.364  41.838   7.130
 4018POPC   C1B53143   6.913  41.469   6.401
 4018POPC   C2B53144   6.767  41.761   6.676
 4018POPC   C3B53145   6.910  41.674   7.058
 4018POPC   C4B53146   6.873  41.426   7.397
 4019POPC   NC353147  30.909   0.905   5.404
 4019POPC   PO453148  30.578   1.452   5.424
 4019POPC   GL153149  30.482   1.361   5.842
 4019POPC   GL253150  30.568   1.000   5.837
 4019POPC   C1A53151  30.576   1.551   6.256
 4019POPC   D2A53152  30.611   1.602   6.708
 4019POPC   C3A53153  30.635   1.274   7.017
 4019POPC   C4A53154  30.710   1.436   7.428
 4019POPC   C1B53155  30.904   1.177   6.103
 4019POPC   C2B53156  30.945   1.185   6.561
 4019POPC   C3B53157  31.064   0.947   6.938
 4019POPC   C4B53158  31.075   1.110   7.349
 4020POPC   NC353159  11.800  29.019   5.328
 4020POPC   PO453160  12.297  29.382   5.321
 4020POPC   GL153161  12.013  29.295   5.715
 4020POPC   GL253162  11.921  28.914   5.819
 4020POPC   C1A53163  12.093  29.245   6.170
 4020POPC   D2A53164  11.958  29.053   6.546
 4020POPC   C3A53165  12.075  29.298   6.926
 4020POPC   C4A53166  11.832  29.436   7.259
 4020POPC   C1B53167  12.155  28.712   6.182
 4020POPC   C2B53168  12.129  28.575   6.628
 4020POPC   C3B53169  11.955  28.816   6.995
 4020POPC   C4B53170  12.398  28.954   7.124
 4021POPC   NC353171  28.842  29.055   5.283
 4021POPC   PO453172  28.280  29.429   5.354
 4021POPC   GL153173  28.250  29.151   5.740
 4021POPC   GL253174  28.602  29.158   5.748
 4021POPC   C1A53175  28.089  29.046   6.196
 4021POPC   D2A53176  28.276  28.934   6.637
 4021POPC   C3A53177  28.093  29.043   7.051
 4021POPC   C4A53178  28.100  29.363   7.407
 4021POPC   C1B53179  28.592  28.934   6.167
 4021POPC   C2B53180  28.770  28.828   6.584
 4021POPC   C3B53181  28.731  29.031   7.026
 4021POPC   C4B53182  28.876  28.968   7.492
 4022POPC   NC353183  24.196   8.254   5.299
 4022POPC   PO453184  24.665   7.827   5.335
 4022POPC   GL153185  24.429   8.001   5.691
 4022POPC   GL253186  24.578   8.349   5.691
 4022POPC   C1A53187  24.414   8.152   6.133
 4022POPC   D2A53188  24.191   8.260   6.511
 4022POPC   C3A53189  24.306   8.119   6.903
 4022POPC   C4A53190  24.164   7.879   7.260
 4022POPC   C1B53191  24.835   8.464   6.078
 4022POPC   C2B53192  24.876   8.556   6.529
 4022POPC   C3B53193  24.909   8.452   6.976
 4022POPC   C4B53194  24.557   8.424   7.242
 4023POPC   NC353195  11.791   2.939   5.160
 4023POPC   PO453196  12.312   2.980   5.557
 4023POPC   GL153197  12.284   3.015   6.001
 4023POPC   GL253198  12.368   2.664   6.031
 4023POPC   C1A53199  11.982   2.923   6.354
 4023POPC   D2A53200  11.708   2.950   6.719
 4023POPC   C3A53201  11.903   3.001   7.110
 4023POPC   C4A53202  11.832   2.765   7.513
 4023POPC   C1B53203  12.070   2.414   6.309
 4023POPC   C2B53204  11.758   2.433   6.633
 4023POPC   C3B53205  11.820   2.514   7.048
 4023POPC   C4B53206  12.243   2.647   7.211
 4024POPC   NC353207   9.586  12.161   5.308
 4024POPC   PO453208  10.168  11.834   5.514
 4024POPC   GL153209   9.995  12.076   5.891
 4024POPC   GL253210   9.689  12.251   5.812
 4024POPC   C1A53211   9.841  12.273   6.310
 4024POPC   D2A53212   9.904  12.535   6.708
 4024POPC   C3A53213  10.019  12.274   7.104
 4024POPC   C4A53214  10.024  11.824   7.286
 4024POPC   C1B53215   9.562  11.883   6.065
 4024POPC   C2B53216   9.745  11.788   6.477
 4024POPC   C3B53217   9.695  11.896   6.901
 4024POPC   C4B53218   9.523  11.705   7.268
 4025POPC   NC353219   0.104  23.981   5.426
 4025POPC   PO453220   0.692  23.693   5.423
 4025POPC   GL153221   0.372  23.707   5.769
 4025POPC   GL253222   0.648  23.822   5.926
 4025POPC   C1A53223   0.242  23.852   6.211
 4025POPC   D2A53224   0.461  23.894   6.636
 4025POPC   C3A53225   0.374  23.725   7.060
 4025POPC   C4A53226   0.715  23.773   7.360
 4025POPC   C1B53227   0.749  23.601   6.266
 4025POPC   C2B53228   0.776  23.244   6.487
 4025POPC   C3B53229   0.707  23.384   6.879
 4025POPC   C4B53230   0.583  23.263   7.297
 4026POPC   NC353231  18.853  40.243   5.546
 4026POPC   PO453232  19.281  39.695   5.493
 4026POPC   GL153233  19.150  39.927   5.841
 4026POPC   GL253234  18.853  39.723   5.810
 4026POPC   C1A53235  19.153  40.185   6.229
 4026POPC   D2A53236  19.053  40.002   6.646
 4026POPC   C3A53237  19.173  40.167   7.015
 4026POPC   C4A53238  19.283  39.858   7.281
 4026POPC   C1B53239  18.829  39.786   6.245
 4026POPC   C2B53240  18.624  39.727   6.648
 4026POPC   C3B53241  18.737  39.847   7.112
 4026POPC   C4B53242  18.819  39.524   7.431
 4027POPC   NC353243  43.331  20.062   5.416
 4027POPC   PO453244  42.880  19.530   5.371
 4027POPC   GL153245  42.964  19.801   5.700
 4027POPC   GL253246  43.318  19.743   5.798
 4027POPC   C1A53247  42.929  19.832   6.152
 4027POPC   D2A53248  42.721  19.839   6.550
 4027POPC   C3A53249  42.940  19.685   6.902
 4027POPC   C4A53250  42.974  19.957   7.219
 4027POPC   C1B53251  43.458  19.889   6.172
 4027POPC   C2B53252  43.282  19.818   6.558
 4027POPC   C3B53253  43.423  19.911   6.978
 4027POPC   C4B53254  43.414  19.810   7.442
 4028POPC   NC353255  21.500  20.201   5.592
 4028POPC   PO453256  21.164  19.608   5.441
 4028POPC   GL153257  21.240  19.809   5.811
 4028POPC   GL253258  21.408  19.499   5.884
 4028POPC   C1A53259  21.136  20.098   6.179
 4028POPC   D2A53260  21.328  20.244   6.588
 4028POPC   C3A53261  21.211  20.134   7.070
 4028POPC   C4A53262  21.168  20.198   7.574
 4028POPC   C1B53263  21.176  19.594   6.279
 4028POPC   C2B53264  21.246  19.751   6.691
 4028POPC   C3B53265  21.569  19.753   7.018
 4028POPC   C4B53266  21.478  19.474   7.335
 4029POPC   NC353267  14.581  41.554   5.470
 4029POPC   PO453268  14.536  42.099   5.191
 4029POPC   GL153269  14.442  41.971   5.714
 4029POPC   GL253270  14.433  41.606   5.929
 4029POPC   C1A53271  14.467  42.015   6.193
 4029POPC   D2A53272  14.764  41.884   6.538
 4029POPC   C3A53273  14.602  41.928   6.948
 4029POPC   C4A53274  14.170  41.890   7.069
 4029POPC   C1B53275  14.399  41.522   6.365
 4029POPC   C2B53276  14.550  41.443   6.766
 4029POPC   C3B53277  14.264  41.380   7.090
 4029POPC   C4B53278  13.875  41.104   7.117
 4030POPC   NC353279   6.141   2.421   5.422
 4030POPC   PO453280   5.692   2.872   5.421
 4030POPC   GL153281   5.969   2.801   5.759
 4030POPC   GL253282   5.980   2.460   5.883
 4030POPC   C1A53283   6.082   2.990   6.137
 4030POPC   D2A53284   5.897   3.164   6.481
 4030POPC   C3A53285   5.957   2.936   6.841
 4030POPC   C4A53286   5.878   3.118   7.192
 4030POPC   C1B53287   5.816   2.325   6.226
 4030POPC   C2B53288   5.933   2.492   6.578
 4030POPC   C3B53289   5.815   2.398   6.968
 4030POPC   C4B53290   5.954   2.603   7.272
 4031POPC   NC353291  13.037  44.815   5.550
 4031POPC   PO453292  12.449  44.436   5.435
 4031POPC   GL153293  12.729  44.474   5.779
 4031POPC   GL253294  12.639  44.799   5.907
 4031POPC   C1A53295  12.743  44.356   6.212
 4031POPC   D2A53296  12.636  44.582   6.569
 4031POPC   C3A53297  12.825  44.467   6.954
 4031POPC   C4A53298  12.626  44.427   7.339
 4031POPC   C1B53299  12.729   0.033   6.305
 4031POPC   C2B53300  12.780   0.144   6.732
 4031POPC   C3B53301  12.682  44.926   7.113
 4031POPC   C4B53302  12.983  44.802   7.426
 4032POPC   NC353303  39.279   4.722   5.293
 4032POPC   PO453304  39.241   5.388   5.367
 4032POPC   GL153305  39.112   5.055   5.661
 4032POPC   GL253306  39.449   4.977   5.745
 4032POPC   C1A53307  38.994   4.927   6.086
 4032POPC   D2A53308  39.034   5.030   6.527
 4032POPC   C3A53309  38.790   5.000   6.912
 4032POPC   C4A53310  38.927   5.191   7.285
 4032POPC   C1B53311  39.337   5.290   6.078
 4032POPC   C2B53312  39.324   5.477   6.474
 4032POPC   C3B53313  39.223   5.346   6.900
 4032POPC   C4B53314  39.399   5.427   7.318
 4033POPC   NC353315  43.220  28.023   5.382
 4033POPC   PO453316  43.456  27.463   5.725
 4033POPC   GL153317  43.155  27.780   5.834
 4033POPC   GL253318  43.332  28.090   5.884
 4033POPC   C1A53319  42.936  27.735   6.208
 4033POPC   D2A53320  43.141  27.483   6.509
 4033POPC   C3A53321  42.928  27.272   6.830
 4033POPC   C4A53322  43.012  27.314   7.276
 4033POPC   C1B53323  43.221  28.157   6.320
 4033POPC   C2B53324  43.358  27.938   6.662
 4033POPC   C3B53325  43.219  27.705   6.982
 4033POPC   C4B53326  43.490  27.624   7.289
 4034POPC   NC353327  27.237  15.318   5.297
 4034POPC   PO453328  26.579  15.076   5.264
 4034POPC   GL153329  26.727  15.326   5.651
 4034POPC   GL253330  27.085  15.276   5.772
 4034POPC   C1A53331  26.774  15.457   6.118
 4034POPC   D2A53332  26.897  15.344   6.544
 4034POPC   C3A53333  26.661  15.420   6.930
 4034POPC   C4A53334  26.837  15.408   7.330
 4034POPC   C1B53335  26.994  14.983   6.119
 4034POPC   C2B53336  26.869  14.821   6.482
 4034POPC   C3B53337  26.881  14.926   6.882
 4034POPC   C4B53338  26.932  14.754   7.254
 4035POPC   NC353339  38.708  20.145   5.602
 4035POPC   PO453340  38.387  20.721   5.508
 4035POPC   GL153341  38.570  20.743   5.882
 4035POPC   GL253342  38.398  20.426   5.945
 4035POPC   C1A53343  38.453  20.811   6.297
 4035POPC   D2A53344  38.345  20.506   6.591
 4035POPC   C3A53345  38.465  20.614   6.984
 4035POPC   C4A53346  38.249  20.824   7.319
 4035POPC   C1B53347  38.720  20.356   6.228
 4035POPC   C2B53348  38.717  20.166   6.584
 4035POPC   C3B53349  38.699  20.160   6.999
 4035POPC   C4B53350  38.957  20.417   7.173
 4036POPC   NC353351   0.341   4.040   5.426
 4036POPC   PO453352   0.688   4.615   5.457
 4036POPC   GL153353   0.538   4.471   5.841
 4036POPC   GL253354   0.615   4.099   5.875
 4036POPC   C1A53355   0.647   4.444   6.271
 4036POPC   D2A53356   0.402   4.349   6.628
 4036POPC   C3A53357   0.574   4.385   7.032
 4036POPC   C4A53358   0.565   4.760   7.232
 4036POPC   C1B53359   0.233   4.157   6.143
 4036POPC   C2B53360   0.072   3.955   6.536
 4036POPC   C3B53361   0.167   4.050   7.008
 4036POPC   C4B53362   0.465   3.898   7.324
 4037POPC   NC353363   6.982   4.102   5.460
 4037POPC   PO453364   6.437   4.534   5.424
 4037POPC   GL153365   6.678   4.449   5.774
 4037POPC   GL253366   6.628   4.115   5.858
 4037POPC   C1A53367   6.605   4.514   6.207
 4037POPC   D2A53368   6.575   4.265   6.552
 4037POPC   C3A53369   6.580   4.452   6.925
 4037POPC   C4A53370   6.389   4.345   7.300
 4037POPC   C1B53371   6.969   4.155   6.167
 4037POPC   C2B53372   7.081   4.093   6.592
 4037POPC   C3B53373   6.866   4.025   6.972
 4037POPC   C4B53374   6.853   4.158   7.376
 4038POPC   NC353375  19.739  39.258   5.417
 4038POPC   PO453376  20.016  38.665   5.607
 4038POPC   GL153377  19.790  38.979   5.838
 4038POPC   GL253378  19.973  39.355   5.866
 4038POPC   C1A53379  19.613  39.161   6.176
 4038POPC   D2A53380  19.785  39.449   6.478
 4038POPC   C3A53381  19.967  39.361   6.875
 4038POPC   C4A53382  19.942  39.010   7.163
 4038POPC   C1B53383  19.671  39.656   6.032
 4038POPC   C2B53384  19.457  39.808   6.411
 4038POPC   C3B53385  19.518  39.666   6.865
 4038POPC   C4B53386  19.722  39.560   7.285
 4039POPC   NC353387  34.062  34.734   5.283
 4039POPC   PO453388  33.474  34.360   5.314
 4039POPC   GL153389  33.579  34.371   5.754
 4039POPC   GL253390  33.740  34.695   5.703
 4039POPC   C1A53391  33.954  34.373   6.060
 4039POPC   D2A53392  33.994  34.486   6.500
 4039POPC   C3A53393  34.016  34.213   6.865
 4039POPC   C4A53394  34.017  34.355   7.269
 4039POPC   C1B53395  33.732  34.852   6.133
 4039POPC   C2B53396  33.580  34.788   6.558
 4039POPC   C3B53397  33.709  34.660   6.946
 4039POPC   C4B53398  33.838  34.931   7.258
 4040POPC   NC353399   2.221  38.780   5.098
 4040POPC   PO453400   1.853  38.388   5.339
 4040POPC   GL153401   1.905  38.409   5.774
 4040POPC   GL253402   1.823  38.098   5.874
 4040POPC   C1A53403   1.953  38.472   6.223
 4040POPC   D2A53404   1.788  38.522   6.626
 4040POPC   C3A53405   2.056  38.572   6.963
 4040POPC   C4A53406   1.805  38.378   7.243
 4040POPC   C1B53407   2.188  38.039   6.115
 4040POPC   C2B53408   2.235  38.016   6.528
 4040POPC   C3B53409   2.000  38.068   6.887
 4040POPC   C4B53410   2.128  37.992   7.331
 4041POPC   NC353411  44.731  33.757   5.495
 4041POPC   PO453412  44.233  34.205   5.310
 4041POPC   GL153413  44.425  34.070   5.834
 4041POPC   GL253414  44.818  33.964   5.951
 4041POPC   C1A53415  44.423  33.850   6.249
 4041POPC   D2A53416  44.734  33.751   6.532
 4041POPC   C3A53417  44.600  33.910   6.920
 4041POPC   C4A53418  44.368  33.691   7.219
 4041POPC   C1B53419   0.135  33.675   6.171
 4041POPC   C2B53420   0.149  33.440   6.578
 4041POPC   C3B53421   0.068  33.677   6.978
 4041POPC   C4B53422  44.841  33.758   7.381
 4042POPC   NC353423  20.626  37.997   5.529
 4042POPC   PO453424  20.899  38.602   5.417
 4042POPC   GL153425  20.811  38.595   5.869
 4042POPC   GL253426  20.474  38.476   5.839
 4042POPC   C1A53427  20.626  38.742   6.257
 4042POPC   D2A53428  20.334  38.509   6.488
 4042POPC   C3A53429  20.393  38.468   6.932
 4042POPC   C4A53430  20.552  38.492   7.357
 4042POPC   C1B53431  20.635  38.201   6.188
 4042POPC   C2B53432  20.546  38.018   6.603
 4042POPC   C3B53433  20.740  38.104   7.001
 4042POPC   C4B53434  21.001  38.198   7.316
 4043POPC   NC353435  41.036  28.642   5.589
 4043POPC   PO453436  40.921  29.344   5.437
 4043POPC   GL153437  40.864  29.216   5.847
 4043POPC   GL253438  40.495  29.211   5.866
 4043POPC   C1A53439  40.805  29.020   6.264
 4043POPC   D2A53440  40.625  28.966   6.683
 4043POPC   C3A53441  40.910  29.173   6.976
 4043POPC   C4A53442  41.129  29.116   7.348
 4043POPC   C1B53443  40.340  29.222   6.314
 4043POPC   C2B53444  40.276  29.377   6.743
 4043POPC   C3B53445  40.434  29.226   7.112
 4043POPC   C4B53446  40.614  29.310   7.515
 4044POPC   NC353447   5.252  30.510   5.537
 4044POPC   PO453448   4.702  30.730   5.166
 4044POPC   GL153449   4.765  30.728   5.640
 4044POPC   GL253450   4.771  30.368   5.744
 4044POPC   C1A53451   4.967  30.822   6.080
 4044POPC   D2A53452   4.890  31.004   6.510
 4044POPC   C3A53453   5.090  30.903   6.937
 4044POPC   C4A53454   5.395  30.559   7.111
 4044POPC   C1B53455   5.025  30.321   6.149
 4044POPC   C2B53456   5.129  30.542   6.550
 4044POPC   C3B53457   4.934  30.426   6.951
 4044POPC   C4B53458   4.990  30.296   7.392
 4045POPC   NC353459   7.793  35.060   5.594
 4045POPC   PO453460   7.363  35.463   5.278
 4045POPC   GL153461   7.320  35.349   5.712
 4045POPC   GL253462   7.271  34.999   5.748
 4045POPC   C1A53463   7.472  35.446   6.152
 4045POPC   D2A53464   7.510  35.751   6.530
 4045POPC   C3A53465   7.599  35.662   7.002
 4045POPC   C4A53466   7.493  35.505   7.429
 4045POPC   C1B53467   7.312  34.910   6.227
 4045POPC   C2B53468   7.262  34.946   6.692
 4045POPC   C3B53469   7.291  35.243   7.039
 4045POPC   C4B53470   6.987  35.501   7.304
 4046POPC   NC353471  32.841  33.750   5.429
 4046POPC   PO453472  33.463  33.499   5.627
 4046POPC   GL153473  33.259  33.872   5.868
 4046POPC   GL253474  32.945  33.738   5.918
 4046POPC   C1A53475  33.087  34.050   6.290
 4046POPC   D2A53476  32.962  33.850   6.678
 4046POPC   C3A53477  33.028  34.098   7.023
 4046POPC   C4A53478  33.112  34.265   7.436
 4046POPC   C1B53479  33.163  33.542   6.265
 4046POPC   C2B53480  33.016  33.335   6.624
 4046POPC   C3B53481  32.926  33.453   7.045
 4046POPC   C4B53482  32.756  33.295   7.459
 4047POPC   NC353483  14.222  18.000   5.449
 4047POPC   PO453484  14.630  17.360   5.486
 4047POPC   GL153485  14.395  17.585   5.751
 4047POPC   GL253486  14.634  17.881   5.709
 4047POPC   C1A53487  14.340  17.423   6.181
 4047POPC   D2A53488  14.351  17.545   6.610
 4047POPC   C3A53489  14.354  17.364   7.014
 4047POPC   C4A53490  14.070  17.584   7.302
 4047POPC   C1B53491  14.467  17.920   6.138
 4047POPC   C2B53492  14.450  18.046   6.576
 4047POPC   C3B53493  14.398  17.908   6.989
 4047POPC   C4B53494  14.768  17.673   7.118
 4048POPC   NC353495  35.415  32.606   5.412
 4048POPC   PO453496  35.360  31.958   5.727
 4048POPC   GL153497  35.372  32.389   5.872
 4048POPC   GL253498  35.117  32.680   5.815
 4048POPC   C1A53499  35.585  32.436   6.258
 4048POPC   D2A53500  35.500  32.172   6.583
 4048POPC   C3A53501  35.565  32.231   6.989
 4048POPC   C4A53502  35.419  31.897   7.216
 4048POPC   C1B53503  35.108  32.618   6.245
 4048POPC   C2B53504  34.997  32.266   6.503
 4048POPC   C3B53505  35.047  32.250   6.950
 4048POPC   C4B53506  35.184  32.511   7.285
 4049POPC   NC353507  23.646  34.700   5.658
 4049POPC   PO453508  23.737  34.256   5.174
 4049POPC   GL153509  23.882  34.255   5.664
 4049POPC   GL253510  24.132  34.531   5.725
 4049POPC   C1A53511  23.761  34.364   6.157
 4049POPC   D2A53512  23.722  34.675   6.494
 4049POPC   C3A53513  23.703  34.536   6.907
 4049POPC   C4A53514  23.520  34.433   7.291
 4049POPC   C1B53515  24.075  34.775   6.119
 4049POPC   C2B53516  24.200  34.824   6.533
 4049POPC   C3B53517  23.996  34.944   6.912
 4049POPC   C4B53518  23.855  34.837   7.316
 4050POPC   NC353519  42.713  20.708   5.542
 4050POPC   PO453520  42.133  20.686   5.093
 4050POPC   GL153521  42.137  20.784   5.600
 4050POPC   GL253522  42.324  20.547   5.834
 4050POPC   C1A53523  42.032  20.802   6.114
 4050POPC   D2A53524  42.091  20.586   6.515
 4050POPC   C3A53525  42.029  20.748   6.950
 4050POPC   C4A53526  42.295  20.641   7.296
 4050POPC   C1B53527  42.572  20.388   6.194
 4050POPC   C2B53528  42.637  20.530   6.630
 4050POPC   C3B53529  42.602  20.305   7.014
 4050POPC   C4B53530  42.671  20.320   7.434
 4051POPC   NC353531  32.314  37.346   5.529
 4051POPC   PO453532  31.950  37.812   5.222
 4051POPC   GL153533  32.092  37.780   5.674
 4051POPC   GL253534  32.402  37.748   5.889
 4051POPC   C1A53535  31.945  37.647   6.116
 4051POPC   D2A53536  32.174  37.712   6.548
 4051POPC   C3A53537  32.059  37.446   6.868
 4051POPC   C4A53538  31.917  37.564   7.317
 4051POPC   C1B53539  32.354  37.377   6.237
 4051POPC   C2B53540  32.595  37.277   6.579
 4051POPC   C3B53541  32.560  37.580   6.886
 4051POPC   C4B53542  32.415  37.398   7.229
 4052POPC   NC353543  35.952  17.596   5.606
 4052POPC   PO453544  36.437  17.177   5.606
 4052POPC   GL153545  36.209  17.313   5.953
 4052POPC   GL253546  36.305  17.668   6.001
 4052POPC   C1A53547  36.210  17.302   6.388
 4052POPC   D2A53548  36.103  17.155   6.779
 4052POPC   C3A53549  36.328  17.294   7.133
 4052POPC   C4A53550  36.299  17.662   7.392
 4052POPC   C1B53551  36.184  17.825   6.407
 4052POPC   C2B53552  35.990  17.695   6.823
 4052POPC   C3B53553  35.844  17.843   7.248
 4052POPC   C4B53554  35.907  17.858   7.720
 4053POPC   NC353555   4.363  36.443   5.394
 4053POPC   PO453556   4.569  37.101   5.377
 4053POPC   GL153557   4.379  36.853   5.722
 4053POPC   GL253558   4.587  36.605   5.920
 4053POPC   C1A53559   4.276  36.970   6.160
 4053POPC   D2A53560   4.429  36.938   6.624
 4053POPC   C3A53561   4.246  36.910   7.046
 4053POPC   C4A53562   4.338  37.070   7.489
 4053POPC   C1B53563   4.392  36.522   6.336
 4053POPC   C2B53564   4.362  36.323   6.688
 4053POPC   C3B53565   4.575  36.474   7.029
 4053POPC   C4B53566   4.384  36.568   7.402
 4054POPC   NC353567  20.066  37.450   5.563
 4054POPC   PO453568  19.488  37.866   5.321
 4054POPC   GL153569  19.594  37.666   5.728
 4054POPC   GL253570  19.651  37.943   5.935
 4054POPC   C1A53571  19.595  37.518   6.191
 4054POPC   D2A53572  19.831  37.765   6.501
 4054POPC   C3A53573  19.923  37.644   6.911
 4054POPC   C4A53574  19.726  37.519   7.301
 4054POPC   C1B53575  19.419  38.034   6.314
 4054POPC   C2B53576  19.324  37.740   6.625
 4054POPC   C3B53577  19.382  37.779   7.053
 4054POPC   C4B53578  19.392  37.851   7.530
 4055POPC   NC353579  15.428  31.654   5.453
 4055POPC   PO453580  14.693  31.705   5.324
 4055POPC   GL153581  14.999  31.500   5.696
 4055POPC   GL253582  15.346  31.278   5.779
 4055POPC   C1A53583  15.169  31.634   6.137
 4055POPC   D2A53584  15.081  31.745   6.584
 4055POPC   C3A53585  15.224  31.549   6.969
 4055POPC   C4A53586  15.070  31.223   7.245
 4055POPC   C1B53587  15.576  31.331   6.173
 4055POPC   C2B53588  15.448  31.235   6.598
 4055POPC   C3B53589  15.595  31.188   7.037
 4055POPC   C4B53590  15.777  31.461   7.327
 4056POPC   NC353591  30.401   5.903   5.283
 4056POPC   PO453592  29.703   5.940   5.459
 4056POPC   GL153593  29.939   5.831   5.820
 4056POPC   GL253594  30.148   5.618   5.668
 4056POPC   C1A53595  30.122   5.919   6.233
 4056POPC   D2A53596  30.017   5.774   6.628
 4056POPC   C3A53597  30.001   6.056   6.931
 4056POPC   C4A53598  29.843   6.119   7.310
 4056POPC   C1B53599  30.351   5.507   6.053
 4056POPC   C2B53600  30.438   5.514   6.483
 4056POPC   C3B53601  30.276   5.424   6.891
 4056POPC   C4B53602  29.973   5.576   7.159
 4057POPC   NC353603  22.191  34.748   5.383
 4057POPC   PO453604  22.467  34.282   5.744
 4057POPC   GL153605  22.134  34.614   5.887
 4057POPC   GL253606  22.221  34.953   5.838
 4057POPC   C1A53607  21.783  34.562   6.197
 4057POPC   D2A53608  21.676  34.398   6.599
 4057POPC   C3A53609  22.000  34.561   6.866
 4057POPC   C4A53610  22.028  34.683   7.283
 4057POPC   C1B53611  22.383  34.958   6.265
 4057POPC   C2B53612  22.297  34.998   6.711
 4057POPC   C3B53613  22.490  35.059   7.134
 4057POPC   C4B53614  22.421  34.877   7.562
 4058POPC   NC353615  38.447  13.976   5.660
 4058POPC   PO453616  38.629  13.341   5.763
 4058POPC   GL153617  38.549  13.635   6.065
 4058POPC   GL253618  38.829  13.858   5.983
 4058POPC   C1A53619  38.194  13.725   6.362
 4058POPC   D2A53620  38.024  13.779   6.800
 4058POPC   C3A53621  38.313  13.665   7.122
 4058POPC   C4A53622  38.751  13.603   7.055
 4058POPC   C1B53623  38.586  14.090   6.300
 4058POPC   C2B53624  38.526  13.923   6.709
 4058POPC   C3B53625  38.610  14.101   7.072
 4058POPC   C4B53626  38.365  14.080   7.420
 4059POPC   NC353627  32.432   1.716   5.481
 4059POPC   PO453628  31.826   1.919   5.686
 4059POPC   GL153629  32.136   2.025   5.926
 4059POPC   GL253630  32.394   2.163   5.740
 4059POPC   C1A53631  32.140   1.895   6.330
 4059POPC   D2A53632  32.002   2.016   6.754
 4059POPC   C3A53633  32.192   1.779   7.077
 4059POPC   C4A53634  32.185   1.841   7.551
 4059POPC   C1B53635  32.468   2.368   6.135
 4059POPC   C2B53636  32.483   2.200   6.531
 4059POPC   C3B53637  32.565   2.332   6.931
 4059POPC   C4B53638  32.469   2.140   7.275
 4060POPC   NC353639   4.348  18.544   5.215
 4060POPC   PO453640   4.928  18.719   5.218
 4060POPC   GL153641   4.639  18.586   5.658
 4060POPC   GL253642   4.258  18.538   5.806
 4060POPC   C1A53643   4.615  18.285   6.079
 4060POPC   D2A53644   4.488  18.185   6.540
 4060POPC   C3A53645   4.717  18.380   6.906
 4060POPC   C4A53646   4.639  18.424   7.370
 4060POPC   C1B53647   4.165  18.509   6.289
 4060POPC   C2B53648   4.172  18.519   6.790
 4060POPC   C3B53649   4.276  18.157   7.087
 4060POPC   C4B53650   3.995  17.866   7.339
 4061POPC   NC353651  10.226  15.781   5.465
 4061POPC   PO453652  10.715  16.253   5.427
 4061POPC   GL153653  10.488  16.105   5.779
 4061POPC   GL253654  10.661  15.768   5.798
 4061POPC   C1A53655  10.332  15.963   6.187
 4061POPC   D2A53656  10.548  15.889   6.586
 4061POPC   C3A53657  10.360  15.911   6.999
 4061POPC   C4A53658  10.492  16.181   7.342
 4061POPC   C1B53659  10.604  15.529   6.193
 4061POPC   C2B53660  10.490  15.383   6.621
 4061POPC   C3B53661  10.779  15.557   6.917
 4061POPC   C4B53662  10.773  15.772   7.277
 4062POPC   NC353663  21.300  24.289   5.477
 4062POPC   PO453664  21.290  23.705   5.500
 4062POPC   GL153665  21.437  23.678   5.935
 4062POPC   GL253666  21.753  23.507   5.945
 4062POPC   C1A53667  21.355  23.775   6.396
 4062POPC   D2A53668  21.004  23.748   6.698
 4062POPC   C3A53669  21.048  23.903   7.164
 4062POPC   C4A53670  20.981  23.975   7.621
 4062POPC   C1B53671  21.600  23.329   6.313
 4062POPC   C2B53672  21.649  23.209   6.740
 4062POPC   C3B53673  21.557  23.278   7.173
 4062POPC   C4B53674  21.747  23.533   7.510
 4063POPC   NC353675   7.925  29.197   5.446
 4063POPC   PO453676   8.393  29.623   5.237
 4063POPC   GL153677   8.387  29.320   5.674
 4063POPC   GL253678   8.067  29.322   5.934
 4063POPC   C1A53679   8.436  29.031   6.091
 4063POPC   D2A53680   8.418  28.934   6.522
 4063POPC   C3A53681   8.594  29.244   6.784
 4063POPC   C4A53682   8.500  29.428   7.173
 4063POPC   C1B53683   7.937  29.009   6.288
 4063POPC   C2B53684   7.978  29.051   6.763
 4063POPC   C3B53685   7.913  29.035   7.187
 4063POPC   C4B53686   7.893  28.712   7.510
 4064POPC   NC353687  23.359  16.837   5.145
 4064POPC   PO453688  23.857  16.477   5.420
 4064POPC   GL153689  23.703  16.618   5.817
 4064POPC   GL253690  23.478  16.936   5.752
 4064POPC   C1A53691  23.803  16.598   6.281
 4064POPC   D2A53692  23.608  16.829   6.619
 4064POPC   C3A53693  23.751  16.814   7.053
 4064POPC   C4A53694  23.774  17.192   7.233
 4064POPC   C1B53695  23.305  16.740   6.163
 4064POPC   C2B53696  23.255  16.475   6.546
 4064POPC   C3B53697  23.474  16.410   6.901
 4064POPC   C4B53698  23.407  16.460   7.299
 4065POPC   NC353699  12.247  19.515   5.624
 4065POPC   PO453700  11.950  19.980   5.163
 4065POPC   GL153701  11.957  19.991   5.639
 4065POPC   GL253702  11.822  19.694   5.810
 4065POPC   C1A53703  12.116  20.014   6.106
 4065POPC   D2A53704  12.173  19.851   6.538
 4065POPC   C3A53705  12.244  19.993   6.965
 4065POPC   C4A53706  12.096  19.883   7.391
 4065POPC   C1B53707  11.947  19.529   6.201
 4065POPC   C2B53708  12.003  19.342   6.554
 4065POPC   C3B53709  12.033  19.522   6.908
 4065POPC   C4B53710  11.990  19.387   7.249
 4066POPC   NC353711  43.959  40.596   5.145
 4066POPC   PO453712  44.355  40.921   5.588
 4066POPC   GL153713  44.707  40.745   5.789
 4066POPC   GL253714  44.468  40.543   5.991
 4066POPC   C1A53715  44.972  40.733   6.167
 4066POPC   D2A53716  44.781  40.634   6.573
 4066POPC   C3A53717  44.789  40.923   6.888
 4066POPC   C4A53718  44.890  41.261   7.161
 4066POPC   C1B53719  44.458  40.860   6.246
 4066POPC   C2B53720  44.311  40.835   6.637
 4066POPC   C3B53721  44.375  40.612   7.012
 4066POPC   C4B53722  44.436  40.947   7.292
 4067POPC   NC353723  44.544  23.382   5.509
 4067POPC   PO453724  44.611  24.038   5.471
 4067POPC   GL153725  44.804  23.749   5.796
 4067POPC   GL253726  44.474  23.687   5.900
 4067POPC   C1A53727  44.831  23.578   6.240
 4067POPC   D2A53728  44.924  23.818   6.625
 4067POPC   C3A53729  44.826  23.609   6.992
 4067POPC   C4A53730  44.461  23.327   7.070
 4067POPC   C1B53731  44.561  24.023   6.203
 4067POPC   C2B53732  44.434  24.135   6.620
 4067POPC   C3B53733  44.587  24.048   7.015
 4067POPC   C4B53734  44.486  23.744   7.351
 4068POPC   NC353735  38.421   7.094   5.646
 4068POPC   PO453736  38.626   6.480   5.392
 4068POPC   GL153737  38.314   6.576   5.705
 4068POPC   GL253738  38.592   6.663   5.882
 4068POPC   C1A53739  38.213   6.654   6.177
 4068POPC   D2A53740  38.262   6.414   6.542
 4068POPC   C3A53741  38.171   6.525   6.960
 4068POPC   C4A53742  38.300   6.267   7.277
 4068POPC   C1B53743  38.778   6.654   6.285
 4068POPC   C2B53744  38.657   6.710   6.704
 4068POPC   C3B53745  38.549   6.796   7.136
 4068POPC   C4B53746  38.456   7.070   7.472
 4069POPC   NC353747   3.196  19.584   5.073
 4069POPC   PO453748   3.695  19.169   5.225
 4069POPC   GL153749   3.569  19.233   5.707
 4069POPC   GL253750   3.557  18.921   5.882
 4069POPC   C1A53751   3.394  19.258   6.196
 4069POPC   D2A53752   3.520  19.113   6.609
 4069POPC   C3A53753   3.451  19.372   6.970
 4069POPC   C4A53754   3.651  19.270   7.348
 4069POPC   C1B53755   3.763  18.825   6.233
 4069POPC   C2B53756   3.693  18.544   6.550
 4069POPC   C3B53757   3.333  18.643   6.753
 4069POPC   C4B53758   3.385  18.879   7.129
 4070POPC   NC353759  35.123  15.120   5.405
 4070POPC   PO453760  35.378  15.651   5.117
 4070POPC   GL153761  35.424  15.505   5.611
 4070POPC   GL253762  35.758  15.469   5.743
 4070POPC   C1A53763  35.404  15.244   6.086
 4070POPC   D2A53764  35.544  15.074   6.501
 4070POPC   C3A53765  35.226  14.958   6.821
 4070POPC   C4A53766  35.190  14.935   7.279
 4070POPC   C1B53767  35.765  15.635   6.162
 4070POPC   C2B53768  35.532  15.583   6.547
 4070POPC   C3B53769  35.519  15.375   6.960
 4070POPC   C4B53770  35.541  15.284   7.428
 4071POPC   NC353771  34.381  35.059   5.714
 4071POPC   PO453772  34.469  34.459   5.339
 4071POPC   GL153773  34.601  34.578   5.761
 4071POPC   GL253774  34.893  34.781   5.841
 4071POPC   C1A53775  34.621  34.496   6.208
 4071POPC   D2A53776  34.719  34.563   6.670
 4071POPC   C3A53777  34.497  34.397   7.051
 4071POPC   C4A53778  34.442  34.355   7.557
 4071POPC   C1B53779  34.933  34.889   6.310
 4071POPC   C2B53780  35.046  34.964   6.750
 4071POPC   C3B53781  34.841  34.811   7.126
 4071POPC   C4B53782  34.772  34.745   7.557
 4072POPC   NC353783  29.514  33.161   5.610
 4072POPC   PO453784  30.193  33.056   5.363
 4072POPC   GL153785  30.012  33.117   5.744
 4072POPC   GL253786  29.836  32.766   5.677
 4072POPC   C1A53787  30.142  33.214   6.199
 4072POPC   D2A53788  30.257  33.273   6.656
 4072POPC   C3A53789  29.997  33.128   6.987
 4072POPC   C4A53790  29.753  32.809   6.887
 4072POPC   C1B53791  30.128  32.708   6.010
 4072POPC   C2B53792  30.079  32.765   6.445
 4072POPC   C3B53793  30.269  32.711   6.818
 4072POPC   C4B53794  30.244  32.717   7.240
 4073POPC   NC353795  27.622  32.808   5.325
 4073POPC   PO453796  27.878  33.388   5.525
 4073POPC   GL153797  27.645  33.205   5.875
 4073POPC   GL253798  27.434  32.889   5.825
 4073POPC   C1A53799  27.770  33.262   6.302
 4073POPC   D2A53800  27.760  33.092   6.710
 4073POPC   C3A53801  27.640  33.330   7.105
 4073POPC   C4A53802  27.493  33.295   7.552
 4073POPC   C1B53803  27.417  32.885   6.289
 4073POPC   C2B53804  27.327  32.796   6.728
 4073POPC   C3B53805  27.614  32.801   7.100
 4073POPC   C4B53806  28.006  32.557   7.201
 4074POPC   NC353807  43.185   0.125   5.432
 4074POPC   PO453808  42.841  44.504   5.356
 4074POPC   GL153809  43.128  44.681   5.728
 4074POPC   GL253810  43.420  44.438   5.831
 4074POPC   C1A53811  43.288  44.971   6.097
 4074POPC   D2A53812  43.527  44.869   6.493
 4074POPC   C3A53813  43.369  44.983   6.895
 4074POPC   C4A53814  43.525  44.883   7.293
 4074POPC   C1B53815  43.188  44.506   6.244
 4074POPC   C2B53816  43.006  44.817   6.545
 4074POPC   C3B53817  42.987  44.626   6.948
 4074POPC   C4B53818  43.343  44.405   7.150
 4075POPC   NC353819   8.216  10.632   5.391
 4075POPC   PO453820   8.697  11.125   5.513
 4075POPC   GL153821   8.348  10.875   5.818
 4075POPC   GL253822   8.338  10.462   5.843
 4075POPC   C1A53823   8.017  10.714   6.148
 4075POPC   D2A53824   7.936  10.765   6.612
 4075POPC   C3A53825   8.235  10.669   6.960
 4075POPC   C4A53826   8.228  10.570   7.416
 4075POPC   C1B53827   8.157  10.222   6.198
 4075POPC   C2B53828   8.000  10.206   6.629
 4075POPC   C3B53829   8.152  10.162   7.043
 4075POPC   C4B53830   8.564  10.284   7.163
 4076POPC   NC353831   9.168  38.243   5.511
 4076POPC   PO453832   8.928  38.863   5.458
 4076POPC   GL153833   9.049  38.650   5.825
 4076POPC   GL253834   8.779  38.405   5.794
 4076POPC   C1A53835   9.238  38.618   6.247
 4076POPC   D2A53836   9.270  38.299   6.607
 4076POPC   C3A53837   9.094  38.426   7.018
 4076POPC   C4A53838   9.042  38.759   7.351
 4076POPC   C1B53839   8.882  38.246   6.197
 4076POPC   C2B53840   8.870  37.984   6.571
 4076POPC   C3B53841   8.690  38.072   6.981
 4076POPC   C4B53842   8.674  38.404   7.311
 4077POPC   NC353843  13.136  26.191   5.105
 4077POPC   PO453844  12.487  25.882   4.999
 4077POPC   GL153845  12.597  26.032   5.509
 4077POPC   GL253846  12.956  26.176   5.624
 4077POPC   C1A53847  12.588  26.010   6.005
 4077POPC   D2A53848  12.849  25.942   6.413
 4077POPC   C3A53849  12.748  26.062   6.862
 4077POPC   C4A53850  12.587  25.982   7.300
 4077POPC   C1B53851  13.007  26.311   6.091
 4077POPC   C2B53852  13.245  26.294   6.496
 4077POPC   C3B53853  13.134  26.413   6.919
 4077POPC   C4B53854  13.023  26.222   7.308
 4078POPC   NC353855  42.460  39.790   5.366
 4078POPC   PO453856  41.863  40.121   5.427
 4078POPC   GL153857  41.999  39.852   5.742
 4078POPC   GL253858  42.288  40.036   5.800
 4078POPC   C1A53859  42.084  39.696   6.168
 4078POPC   D2A53860  42.201  39.884   6.561
 4078POPC   C3A53861  42.453  39.773   6.913
 4078POPC   C4A53862  42.095  39.772   7.119
 4078POPC   C1B53863  42.301  40.226   6.189
 4078POPC   C2B53864  42.476  40.289   6.591
 4078POPC   C3B53865  42.221  40.256   6.944
 4078POPC   C4B53866  42.315  40.178   7.350
 4079POPC   NC353867   2.325  25.021   5.514
 4079POPC   PO453868   1.779  25.500   5.401
 4079POPC   GL153869   1.942  25.285   5.750
 4079POPC   GL253870   2.247  25.452   5.810
 4079POPC   C1A53871   1.983  25.260   6.222
 4079POPC   D2A53872   1.807  25.410   6.608
 4079POPC   C3A53873   1.980  25.184   6.926
 4079POPC   C4A53874   1.788  25.044   7.257
 4079POPC   C1B53875   2.486  25.279   6.162
 4079POPC   C2B53876   2.345  25.348   6.600
 4079POPC   C3B53877   2.507  25.456   7.008
 4079POPC   C4B53878   2.226  25.344   7.349
 4080POPC   NC353879  32.392   2.533   5.351
 4080POPC   PO453880  32.631   3.045   5.673
 4080POPC   GL153881  32.233   2.903   5.826
 4080POPC   GL253882  32.093   2.556   5.845
 4080POPC   C1A53883  32.245   2.819   6.267
 4080POPC   D2A53884  32.564   2.703   6.555
 4080POPC   C3A53885  32.432   2.818   6.952
 4080POPC   C4A53886  32.584   2.920   7.322
 4080POPC   C1B53887  31.963   2.387   6.267
 4080POPC   C2B53888  32.093   2.516   6.672
 4080POPC   C3B53889  32.105   2.461   7.093
 4080POPC   C4B53890  32.287   2.566   7.485
 4081POPC   NC353891   6.145   8.375   5.166
 4081POPC   PO453892   5.754   7.962   5.414
 4081POPC   GL153893   5.746   8.101   5.823
 4081POPC   GL253894   5.950   8.391   5.807
 4081POPC   C1A53895   5.872   8.129   6.260
 4081POPC   D2A53896   6.063   8.009   6.629
 4081POPC   C3A53897   5.795   8.068   6.954
 4081POPC   C4A53898   5.566   8.158   7.285
 4081POPC   C1B53899   5.712   8.598   6.124
 4081POPC   C2B53900   5.777   8.671   6.553
 4081POPC   C3B53901   6.059   8.492   6.852
 4081POPC   C4B53902   5.991   8.457   7.263
 4082POPC   NC353903  38.262  17.018   5.618
 4082POPC   PO453904  38.674  16.568   5.203
 4082POPC   GL153905  38.683  16.714   5.615
 4082POPC   GL253906  38.368  16.534   5.715
 4082POPC   C1A53907  38.668  16.793   6.064
 4082POPC   D2A53908  38.450  16.931   6.454
 4082POPC   C3A53909  38.736  17.005   6.791
 4082POPC   C4A53910  38.734  17.054   7.221
 4082POPC   C1B53911  38.239  16.550   6.173
 4082POPC   C2B53912  38.338  16.448   6.636
 4082POPC   C3B53913  38.335  16.708   7.044
 4082POPC   C4B53914  38.444  16.679   7.506
 4083POPC   NC353915  10.300  29.389   5.480
 4083POPC   PO453916   9.978  28.793   5.488
 4083POPC   GL153917  10.455  28.861   5.688
 4083POPC   GL253918  10.643  29.208   5.819
 4083POPC   C1A53919  10.610  28.831   6.124
 4083POPC   D2A53920  10.426  29.118   6.427
 4083POPC   C3A53921  10.507  29.143   6.869
 4083POPC   C4A53922  10.318  28.971   7.249
 4083POPC   C1B53923  10.865  29.299   6.243
 4083POPC   C2B53924  11.127  29.456   6.597
 4083POPC   C3B53925  10.947  29.548   7.027
 4083POPC   C4B53926  10.575  29.404   7.308
 4084POPC   NC353927   6.595  22.410   5.322
 4084POPC   PO453928   6.827  21.864   5.253
 4084POPC   GL153929   6.531  21.979   5.590
 4084POPC   GL253930   6.815  22.163   5.720
 4084POPC   C1A53931   6.386  22.214   5.989
 4084POPC   D2A53932   6.394  22.156   6.453
 4084POPC   C3A53933   6.391  22.453   6.808
 4084POPC   C4A53934   6.295  22.337   7.255
 4084POPC   C1B53935   6.880  22.160   6.163
 4084POPC   C2B53936   6.861  22.384   6.555
 4084POPC   C3B53937   6.796  22.228   6.991
 4084POPC   C4B53938   6.868  21.852   7.201
 4085POPC   NC353939  34.550  17.845   5.415
 4085POPC   PO453940  34.471  17.203   5.509
 4085POPC   GL153941  34.551  17.533   5.828
 4085POPC   GL253942  34.890  17.689   5.797
 4085POPC   C1A53943  34.629  17.472   6.268
 4085POPC   D2A53944  34.785  17.215   6.615
 4085POPC   C3A53945  34.691  17.342   7.080
 4085POPC   C4A53946  34.431  17.646   7.329
 4085POPC   C1B53947  34.853  17.926   6.204
 4085POPC   C2B53948  34.643  17.862   6.608
 4085POPC   C3B53949  34.845  17.840   7.006
 4085POPC   C4B53950  34.951  17.742   7.404
 4086POPC   NC353951  38.515  38.936   5.589
 4086POPC   PO453952  38.222  38.367   5.451
 4086POPC   GL153953  38.371  38.236   5.832
 4086POPC   GL253954  38.598  38.521   5.868
 4086POPC   C1A53955  38.409  38.273   6.266
 4086POPC   D2A53956  38.432  38.592   6.559
 4086POPC   C3A53957  38.309  38.331   6.877
 4086POPC   C4A53958  38.336  38.543   7.259
 4086POPC   C1B53959  38.900  38.443   6.212
 4086POPC   C2B53960  38.810  38.275   6.608
 4086POPC   C3B53961  38.797  38.383   7.025
 4086POPC   C4B53962  38.823  38.648   7.387
 4087POPC   NC353963  36.947   0.454   5.333
 4087POPC   PO453964  36.532   0.076   5.619
 4087POPC   GL153965  36.612   0.478   5.766
 4087POPC   GL253966  36.922   0.363   5.851
 4087POPC   C1A53967  36.678   0.604   6.222
 4087POPC   D2A53968  36.914   0.348   6.542
 4087POPC   C3A53969  36.805   0.398   6.984
 4087POPC   C4A53970  36.937   0.613   7.349
 4087POPC   C1B53971  37.232   0.144   6.120
 4087POPC   C2B53972  37.421   0.215   6.533
 4087POPC   C3B53973  37.291   0.217   6.969
 4087POPC   C4B53974  37.101   0.110   7.382
 4088POPC   NC353975  30.611  32.926   5.533
 4088POPC   PO453976  31.128  33.358   5.388
 4088POPC   GL153977  30.788  33.312   5.820
 4088POPC   GL253978  30.663  32.946   6.024
 4088POPC   C1A53979  30.659  33.345   6.312
 4088POPC   D2A53980  30.664  32.963   6.607
 4088POPC   C3A53981  30.541  33.103   7.039
 4088POPC   C4A53982  30.311  33.456   7.220
 4088POPC   C1B53983  30.983  32.650   6.217
 4088POPC   C2B53984  31.103  32.582   6.652
 4088POPC   C3B53985  31.123  32.780   7.051
 4088POPC   C4B53986  30.806  32.853   7.390
 4089POPC   NC353987  44.910  28.781   5.306
 4089POPC   PO453988  44.213  28.749   5.544
 4089POPC   GL153989  44.534  29.017   5.827
 4089POPC   GL253990  44.876  29.030   5.752
 4089POPC   C1A53991  44.681  29.264   6.247
 4089POPC   D2A53992  44.775  29.552   6.635
 4089POPC   C3A53993  44.796  29.411   7.074
 4089POPC   C4A53994  44.771  29.074   7.406
 4089POPC   C1B53995   0.003  28.874   6.142
 4089POPC   C2B53996  44.892  28.845   6.575
 4089POPC   C3B53997   0.054  28.990   6.956
 4089POPC   C4B53998   0.194  28.804   7.333
 4090POPC   NC353999  42.533  28.483   5.304
 4090POPC   PO454000  41.909  28.664   5.356
 4090POPC   GL154001  42.180  28.441   5.681
 4090POPC   GL254002  42.545  28.583   5.813
 4090POPC   C1A54003  42.192  28.423   6.129
 4090POPC   D2A54004  42.016  28.372   6.524
 4090POPC   C3A54005  42.269  28.312   6.855
 4090POPC   C4A54006  42.254  28.541   7.226
 4090POPC   C1B54007  42.603  28.684   6.307
 4090POPC   C2B54008  42.623  28.656   6.795
 4090POPC   C3B54009  42.750  28.462   7.156
 4090POPC   C4B54010  42.833  28.043   7.098
 4091POPC   NC354011  13.883  10.639   5.519
 4091POPC   PO454012  13.751  10.108   5.112
 4091POPC   GL154013  13.698  10.207   5.675
 4091POPC   GL254014  13.510  10.536   5.839
 4091POPC   C1A54015  13.883  10.372   6.148
 4091POPC   D2A54016  13.999  10.271   6.597
 4091POPC   C3A54017  13.717  10.373   6.960
 4091POPC   C4A54018  13.755  10.458   7.406
 4091POPC   C1B54019  13.510  10.726   6.257
 4091POPC   C2B54020  13.742  10.812   6.637
 4091POPC   C3B54021  13.695  10.890   7.073
 4091POPC   C4B54022  13.300  10.741   7.237
 4092POPC   NC354023  12.609   1.532   5.602
 4092POPC   PO454024  13.015   1.053   5.279
 4092POPC   GL154025  12.939   1.070   5.763
 4092POPC   GL254026  13.263   1.139   5.924
 4092POPC   C1A54027  12.697   0.995   6.193
 4092POPC   D2A54028  12.593   0.965   6.654
 4092POPC   C3A54029  12.840   1.075   7.019
 4092POPC   C4A54030  13.016   1.265   7.369
 4092POPC   C1B54031  13.162   1.146   6.346
 4092POPC   C2B54032  12.883   1.399   6.582
 4092POPC   C3B54033  12.944   1.569   6.971
 4092POPC   C4B54034  13.001   1.882   7.245
 4093POPC   NC354035  23.244  20.572   5.556
 4093POPC   PO454036  23.863  20.398   5.443
 4093POPC   GL154037  23.808  20.709   5.741
 4093POPC   GL254038  23.552  20.565   5.975
 4093POPC   C1A54039  23.989  20.832   6.132
 4093POPC   D2A54040  23.830  20.664   6.518
 4093POPC   C3A54041  23.896  20.721   6.942
 4093POPC   C4A54042  23.554  20.518   7.125
 4093POPC   C1B54043  23.894  20.319   6.131
 4093POPC   C2B54044  23.917  20.151   6.524
 4093POPC   C3B54045  24.029  20.217   6.920
 4093POPC   C4B54046  24.021  20.385   7.308
 4094POPC   NC354047  27.356  33.454   5.506
 4094POPC   PO454048  27.585  34.122   5.393
 4094POPC   GL154049  27.641  33.880   5.785
 4094POPC   GL254050  27.939  34.049   5.874
 4094POPC   C1A54051  27.529  33.721   6.212
 4094POPC   D2A54052  27.650  33.622   6.653
 4094POPC   C3A54053  27.301  33.679   6.946
 4094POPC   C4A54054  27.465  33.755   7.370
 4094POPC   C1B54055  28.026  33.861   6.267
 4094POPC   C2B54056  27.993  34.000   6.691
 4094POPC   C3B54057  27.944  33.781   7.080
 4094POPC   C4B54058  27.895  34.001   7.466
 4095POPC   NC354059   1.543  43.093   5.375
 4095POPC   PO454060   0.918  42.738   5.583
 4095POPC   GL154061   1.171  42.889   5.960
 4095POPC   GL254062   1.500  42.989   5.869
 4095POPC   C1A54063   1.319  42.969   6.405
 4095POPC   D2A54064   1.105  43.264   6.713
 4095POPC   C3A54065   1.118  43.387   7.154
 4095POPC   C4A54066   1.026  43.617   7.578
 4095POPC   C1B54067   1.641  43.311   6.142
 4095POPC   C2B54068   1.666  43.372   6.579
 4095POPC   C3B54069   1.591  43.028   6.857
 4095POPC   C4B54070   1.318  42.876   7.180
 4096POPC   NC354071  17.050   4.329   5.552
 4096POPC   PO454072  16.558   4.707   5.321
 4096POPC   GL154073  16.605   4.474   5.738
 4096POPC   GL254074  16.644   4.099   5.797
 4096POPC   C1A54075  16.739   4.440   6.185
 4096POPC   D2A54076  16.508   4.465   6.573
 4096POPC   C3A54077  16.736   4.466   6.951
 4096POPC   C4A54078  16.680   4.360   7.356
 4096POPC   C1B54079  16.879   3.941   6.170
 4096POPC   C2B54080  16.858   4.047   6.623
 4096POPC   C3B54081  16.741   3.929   7.067
 4096POPC   C4B54082  16.935   3.936   7.491
 4097POPC   NC354083  21.655  33.115   5.380
 4097POPC   PO454084  21.203  32.662   5.367
 4097POPC   GL154085  21.439  32.726   5.740
 4097POPC   GL254086  21.129  32.790   5.929
 4097POPC   C1A54087  21.660  32.726   6.152
 4097POPC   D2A54088  21.723  33.026   6.517
 4097POPC   C3A54089  21.448  32.960   6.899
 4097POPC   C4A54090  21.426  32.829   7.346
 4097POPC   C1B54091  21.232  32.919   6.373
 4097POPC   C2B54092  21.162  33.302   6.631
 4097POPC   C3B54093  21.053  33.282   7.065
 4097POPC   C4B54094  20.940  32.884   7.193
 4098POPC   NC354095   6.234  38.272   5.360
 4098POPC   PO454096   5.591  38.586   5.378
 4098POPC   GL154097   5.775  38.269   5.670
 4098POPC   GL254098   5.887  38.546   5.825
 4098POPC   C1A54099   5.690  38.184   6.135
 4098POPC   D2A54100   5.541  38.482   6.473
 4098POPC   C3A54101   5.718  38.482   6.914
 4098POPC   C4A54102   5.845  38.129   7.169
 4098POPC   C1B54103   6.019  38.605   6.239
 4098POPC   C2B54104   5.931  38.845   6.585
 4098POPC   C3B54105   6.169  38.766   6.934
 4098POPC   C4B54106   6.068  38.770   7.342
 4099POPC   NC354107  41.126  20.198   5.341
 4099POPC   PO454108  40.587  19.844   5.510
 4099POPC   GL154109  40.596  19.874   5.934
 4099POPC   GL254110  40.459  20.186   5.862
 4099POPC   C1A54111  40.906  19.841   6.299
 4099POPC   D2A54112  41.271  19.951   6.595
 4099POPC   C3A54113  41.113  19.928   7.026
 4099POPC   C4A54114  40.897  19.545   7.194
 4099POPC   C1B54115  40.284  20.115   6.263
 4099POPC   C2B54116  40.503  20.049   6.641
 4099POPC   C3B54117  40.576  19.938   7.052
 4099POPC   C4B54118  40.780  20.199   7.319
 4100POPC   NC354119  10.138   3.461   5.469
 4100POPC   PO454120  10.807   3.452   5.406
 4100POPC   GL154121  10.789   3.642   5.787
 4100POPC   GL254122  10.434   3.721   5.799
 4100POPC   C1A54123  10.651   3.519   6.198
 4100POPC   D2A54124  10.478   3.393   6.567
 4100POPC   C3A54125  10.699   3.293   6.914
 4100POPC   C4A54126  10.576   3.300   7.315
 4100POPC   C1B54127  10.347   3.934   6.237
 4100POPC   C2B54128  10.377   3.882   6.709
 4100POPC   C3B54129  10.581   3.773   7.122
 4100POPC   C4B54130  10.530   3.843   7.604
 4101POPC   NC354131   2.142  33.911   5.273
 4101POPC   PO454132   1.742  33.499   5.581
 4101POPC   GL154133   2.129  33.690   5.761
 4101POPC   GL254134   2.066  34.021   5.804
 4101POPC   C1A54135   2.241  33.720   6.211
 4101POPC   D2A54136   2.022  33.576   6.575
 4101POPC   C3A54137   2.114  33.634   7.038
 4101POPC   C4A54138   1.901  33.570   7.476
 4101POPC   C1B54139   2.252  34.219   6.222
 4101POPC   C2B54140   2.281  34.029   6.650
 4101POPC   C3B54141   2.272  34.146   7.073
 4101POPC   C4B54142   1.902  34.044   7.245
 4102POPC   NC354143   3.108  16.530   5.383
 4102POPC   PO454144   2.620  16.931   5.554
 4102POPC   GL154145   2.874  16.879   5.912
 4102POPC   GL254146   2.956  16.539   5.868
 4102POPC   C1A54147   3.080  16.765   6.303
 4102POPC   D2A54148   2.896  16.473   6.606
 4102POPC   C3A54149   2.876  16.633   7.031
 4102POPC   C4A54150   2.570  16.903   7.205
 4102POPC   C1B54151   2.610  16.464   6.155
 4102POPC   C2B54152   2.387  16.323   6.530
 4102POPC   C3B54153   2.376  16.479   6.928
 4102POPC   C4B54154   2.471  16.359   7.331
 4103POPC   NC354155   0.557  18.769   5.184
 4103POPC   PO454156   0.203  19.378   5.188
 4103POPC   GL154157   0.254  19.148   5.614
 4103POPC   GL254158   0.606  19.070   5.718
 4103POPC   C1A54159   0.232  19.188   6.098
 4103POPC   D2A54160   0.336  19.347   6.531
 4103POPC   C3A54161   0.140  19.267   6.959
 4103POPC   C4A54162   0.249  19.344   7.410
 4103POPC   C1B54163   0.718  19.069   6.206
 4103POPC   C2B54164   0.644  18.952   6.692
 4103POPC   C3B54165   0.895  18.861   7.099
 4103POPC   C4B54166   1.047  19.143   7.447
 4104POPC   NC354167   3.303   5.873   5.144
 4104POPC   PO454168   3.742   5.519   5.465
 4104POPC   GL154169   3.517   5.820   5.694
 4104POPC   GL254170   3.587   5.582   5.974
 4104POPC   C1A54171   3.380   6.040   6.074
 4104POPC   D2A54172   3.293   5.820   6.450
 4104POPC   C3A54173   3.363   5.935   6.910
 4104POPC   C4A54174   3.248   5.645   7.276
 4104POPC   C1B54175   3.866   5.914   6.095
 4104POPC   C2B54176   3.754   6.011   6.507
 4104POPC   C3B54177   3.920   5.871   6.881
 4104POPC   C4B54178   3.748   5.920   7.268
 4105POPC   NC354179  33.225  44.979   5.642
 4105POPC   PO454180  33.038   0.646   5.470
 4105POPC   GL154181  33.140   0.449   5.842
 4105POPC   GL254182  32.858   0.229   5.915
 4105POPC   C1A54183  33.299   0.287   6.230
 4105POPC   D2A54184  33.054   0.362   6.578
 4105POPC   C3A54185  33.236   0.324   7.001
 4105POPC   C4A54186  33.433   0.629   7.279
 4105POPC   C1B54187  32.559   0.416   6.192
 4105POPC   C2B54188  32.482   0.417   6.625
 4105POPC   C3B54189  32.747   0.472   6.967
 4105POPC   C4B54190  32.802   0.112   7.161
 4106POPC   NC354191  39.831  11.823   5.478
 4106POPC   PO454192  39.846  12.441   5.441
 4106POPC   GL154193  39.823  12.182   5.869
 4106POPC   GL254194  40.134  11.935   5.874
 4106POPC   C1A54195  39.660  12.187   6.344
 4106POPC   D2A54196  39.766  11.933   6.725
 4106POPC   C3A54197  39.754  11.819   7.173
 4106POPC   C4A54198  39.879  11.897   7.622
 4106POPC   C1B54199  40.358  11.661   6.182
 4106POPC   C2B54200  40.259  11.615   6.635
 4106POPC   C3B54201  40.245  11.949   6.936
 4106POPC   C4B54202  40.569  12.260   7.086
 4107POPC   NC354203  13.904  13.938   5.421
 4107POPC   PO454204  13.677  14.639   5.364
 4107POPC   GL154205  13.614  14.551   5.821
 4107POPC   GL254206  13.572  14.195   5.778
 4107POPC   C1A54207  13.724  14.374   6.241
 4107POPC   D2A54208  13.543  14.436   6.623
 4107POPC   C3A54209  13.729  14.516   7.004
 4107POPC   C4A54210  13.541  14.567   7.372
 4107POPC   C1B54211  13.854  13.923   6.048
 4107POPC   C2B54212  13.793  13.905   6.443
 4107POPC   C3B54213  13.795  14.048   6.829
 4107POPC   C4B54214  13.536  14.075   7.200
 4108POPC   NC354215   1.801  29.893   5.199
 4108POPC   PO454216   2.416  30.122   5.217
 4108POPC   GL154217   2.235  29.989   5.619
 4108POPC   GL254218   1.924  29.774   5.692
 4108POPC   C1A54219   2.334  29.858   6.049
 4108POPC   D2A54220   2.371  29.698   6.485
 4108POPC   C3A54221   2.198  29.850   6.850
 4108POPC   C4A54222   2.256  29.751   7.267
 4108POPC   C1B54223   1.768  29.581   6.106
 4108POPC   C2B54224   1.553  29.532   6.525
 4108POPC   C3B54225   1.745  29.560   6.940
 4108POPC   C4B54226   1.798  29.960   7.168
 4109POPC   NC354227  26.698  25.137   5.343
 4109POPC   PO454228  27.207  25.359   5.331
 4109POPC   GL154229  27.052  25.235   5.764
 4109POPC   GL254230  26.731  25.023   5.866
 4109POPC   C1A54231  26.949  25.331   6.215
 4109POPC   D2A54232  26.967  25.137   6.635
 4109POPC   C3A54233  26.858  25.389   6.982
 4109POPC   C4A54234  26.924  25.462   7.382
 4109POPC   C1B54235  26.565  24.998   6.343
 4109POPC   C2B54236  26.487  25.058   6.836
 4109POPC   C3B54237  26.440  25.255   7.279
 4109POPC   C4B54238  26.507  25.416   7.714
 4110POPC   NC354239  42.258  27.529   5.421
 4110POPC   PO454240  42.917  27.628   5.372
 4110POPC   GL154241  42.663  27.521   5.788
 4110POPC   GL254242  42.342  27.730   5.884
 4110POPC   C1A54243  42.500  27.375   6.224
 4110POPC   D2A54244  42.245  27.494   6.613
 4110POPC   C3A54245  42.521  27.688   6.899
 4110POPC   C4A54246  42.615  27.614   7.317
 4110POPC   C1B54247  42.081  27.936   6.215
 4110POPC   C2B54248  41.871  27.885   6.628
 4110POPC   C3B54249  42.055  27.887   7.010
 4110POPC   C4B54250  42.360  28.049   7.291
 4111POPC   NC354251  10.692  26.214   5.492
 4111POPC   PO454252  10.169  25.840   5.313
 4111POPC   GL154253  10.373  25.959   5.779
 4111POPC   GL254254  10.231  25.720   5.979
 4111POPC   C1A54255  10.679  26.277   6.127
 4111POPC   D2A54256  10.818  26.338   6.592
 4111POPC   C3A54257  10.497  26.360   6.960
 4111POPC   C4A54258  10.506  26.383   7.462
 4111POPC   C1B54259  10.619  25.799   6.221
 4111POPC   C2B54260  10.678  25.830   6.646
 4111POPC   C3B54261  10.786  25.968   7.044
 4111POPC   C4B54262  10.449  25.886   7.310
 4112POPC   NC354263   0.047  16.386   5.079
 4112POPC   PO454264  44.631  16.873   5.345
 4112POPC   GL154265  44.723  16.917   5.787
 4112POPC   GL254266  44.411  16.994   5.909
 4112POPC   C1A54267  44.847  17.058   6.234
 4112POPC   D2A54268  44.740  17.045   6.709
 4112POPC   C3A54269  44.837  16.782   7.089
 4112POPC   C4A54270  44.706  16.681   7.534
 4112POPC   C1B54271  44.488  16.682   6.254
 4112POPC   C2B54272  44.501  16.581   6.717
 4112POPC   C3B54273  44.346  16.610   7.159
 4112POPC   C4B54274  44.218  16.495   7.596
 4113POPC   NC354275  16.607  42.515   5.335
 4113POPC   PO454276  16.354  41.908   5.152
 4113POPC   GL154277  16.571  42.085   5.618
 4113POPC   GL254278  16.491  42.443   5.811
 4113POPC   C1A54279  16.711  42.085   6.089
 4113POPC   D2A54280  16.614  42.142   6.537
 4113POPC   C3A54281  16.918  42.292   6.879
 4113POPC   C4A54282  16.855  42.515   7.281
 4113POPC   C1B54283  16.336  42.522   6.243
 4113POPC   C2B54284  16.524  42.633   6.648
 4113POPC   C3B54285  16.418  42.464   7.043
 4113POPC   C4B54286  16.262  42.663   7.388
 4114POPC   NC354287   9.105  24.785   5.442
 4114POPC   PO454288   8.568  24.391   5.431
 4114POPC   GL154289   8.712  24.626   5.796
 4114POPC   GL254290   9.050  24.485   5.845
 4114POPC   C1A54291   8.596  24.715   6.232
 4114POPC   D2A54292   8.746  24.622   6.635
 4114POPC   C3A54293   8.803  24.744   7.047
 4114POPC   C4A54294   8.842  24.322   7.136
 4114POPC   C1B54295   9.077  24.539   6.261
 4114POPC   C2B54296   9.282  24.645   6.645
 4114POPC   C3B54297   9.312  24.540   7.085
 4114POPC   C4B54298   9.183  24.416   7.502
 4115POPC   NC354299  38.056  29.845   5.387
 4115POPC   PO454300  38.558  30.260   5.298
 4115POPC   GL154301  38.579  29.951   5.680
 4115POPC   GL254302  38.271  29.920   5.851
 4115POPC   C1A54303  38.660  29.954   6.169
 4115POPC   D2A54304  38.343  29.953   6.533
 4115POPC   C3A54305  38.453  29.956   6.980
 4115POPC   C4A54306  38.806  29.830   7.220
 4115POPC   C1B54307  38.127  29.661   6.161
 4115POPC   C2B54308  38.110  29.478   6.555
 4115POPC   C3B54309  38.021  29.622   6.966
 4115POPC   C4B54310  38.118  29.709   7.416
 4116POPC   NC354311  17.263   0.761   5.607
 4116POPC   PO454312  17.819   0.737   5.221
 4116POPC   GL154313  17.680   0.456   5.666
 4116POPC   GL254314  17.345   0.313   5.845
 4116POPC   C1A54315  17.721   0.357   6.167
 4116POPC   D2A54316  17.629   0.165   6.582
 4116POPC   C3A54317  17.725   0.408   6.947
 4116POPC   C4A54318  17.626   0.384   7.377
 4116POPC   C1B54319  17.251   0.607   6.219
 4116POPC   C2B54320  17.303   0.624   6.666
 4116POPC   C3B54321  17.196   0.335   6.982
 4116POPC   C4B54322  17.132   0.504   7.372
 4117POPC   NC354323  28.430  20.918   5.332
 4117POPC   PO454324  28.361  20.358   5.338
 4117POPC   GL154325  28.528  20.589   5.717
 4117POPC   GL254326  28.209  20.619   5.846
 4117POPC   C1A54327  28.544  20.797   6.157
 4117POPC   D2A54328  28.597  21.013   6.537
 4117POPC   C3A54329  28.624  20.871   6.938
 4117POPC   C4A54330  28.615  20.905   7.369
 4117POPC   C1B54331  28.116  20.358   6.264
 4117POPC   C2B54332  28.082  20.346   6.739
 4117POPC   C3B54333  28.018  20.311   7.177
 4117POPC   C4B54334  28.079  20.125   7.620
 4118POPC   NC354335  29.678   6.432   5.571
 4118POPC   PO454336  30.269   6.764   5.456
 4118POPC   GL154337  30.037   6.708   5.825
 4118POPC   GL254338  30.055   6.332   5.905
 4118POPC   C1A54339  29.838   6.672   6.231
 4118POPC   D2A54340  30.028   6.432   6.578
 4118POPC   C3A54341  29.799   6.537   6.959
 4118POPC   C4A54342  29.862   6.671   7.402
 4118POPC   C1B54343  29.702   6.186   6.155
 4118POPC   C2B54344  29.615   6.142   6.571
 4118POPC   C3B54345  29.460   6.152   6.971
 4118POPC   C4B54346  29.441   6.435   7.310
 4119POPC   NC354347  32.350  13.731   5.383
 4119POPC   PO454348  31.893  14.126   5.419
 4119POPC   GL154349  32.067  13.812   5.810
 4119POPC   GL254350  31.876  13.521   5.973
 4119POPC   C1A54351  32.316  13.608   6.210
 4119POPC   D2A54352  32.244  13.574   6.688
 4119POPC   C3A54353  32.498  13.449   7.077
 4119POPC   C4A54354  32.493  13.131   7.432
 4119POPC   C1B54355  31.831  13.822   6.353
 4119POPC   C2B54356  32.073  14.056   6.720
 4119POPC   C3B54357  32.109  13.842   7.127
 4119POPC   C4B54358  32.052  13.909   7.583
 4120POPC   NC354359  36.670  34.925   5.568
 4120POPC   PO454360  37.281  34.587   5.287
 4120POPC   GL154361  37.032  34.563   5.716
 4120POPC   GL254362  37.047  34.845   5.936
 4120POPC   C1A54363  37.078  34.408   6.174
 4120POPC   D2A54364  37.051  34.681   6.547
 4120POPC   C3A54365  37.035  34.515   6.948
 4120POPC   C4A54366  36.793  34.559   7.302
 4120POPC   C1B54367  36.698  34.830   6.201
 4120POPC   C2B54368  36.641  35.011   6.571
 4120POPC   C3B54369  36.596  34.859   6.953
 4120POPC   C4B54370  36.421  34.889   7.365
 4121POPC   NC354371   5.262  21.943   5.542
 4121POPC   PO454372   5.970  21.974   5.531
 4121POPC   GL154373   5.738  22.118   5.900
 4121POPC   GL254374   5.397  22.025   6.020
 4121POPC   C1A54375   5.935  22.285   6.228
 4121POPC   D2A54376   5.962  22.510   6.559
 4121POPC   C3A54377   5.933  22.231   6.909
 4121POPC   C4A54378   5.850  22.049   7.321
 4121POPC   C1B54379   5.435  22.387   6.288
 4121POPC   C2B54380   5.473  22.425   6.700
 4121POPC   C3B54381   5.485  22.344   7.135
 4121POPC   C4B54382   5.501  22.434   7.578
 4122POPC   NC354383   7.418  37.847   5.312
 4122POPC   PO454384   7.559  37.162   5.332
 4122POPC   GL154385   7.581  37.429   5.745
 4122POPC   GL254386   7.577  37.843   5.784
 4122POPC   C1A54387   7.595  37.546   6.193
 4122POPC   D2A54388   7.889  37.643   6.517
 4122POPC   C3A54389   7.667  37.503   6.851
 4122POPC   C4A54390   7.411  37.482   7.199
 4122POPC   C1B54391   7.413  38.045   6.195
 4122POPC   C2B54392   7.393  37.912   6.655
 4122POPC   C3B54393   7.106  37.892   7.045
 4122POPC   C4B54394   6.980  37.985   7.504
 4123POPC   NC354395  41.358   3.282   5.357
 4123POPC   PO454396  41.757   3.856   5.481
 4123POPC   GL154397  41.655   3.563   5.811
 4123POPC   GL254398  41.325   3.471   5.836
 4123POPC   C1A54399  41.614   3.524   6.270
 4123POPC   D2A54400  41.751   3.508   6.695
 4123POPC   C3A54401  41.395   3.516   6.931
 4123POPC   C4A54402  41.562   3.581   7.324
 4123POPC   C1B54403  41.266   3.145   6.160
 4123POPC   C2B54404  41.046   3.145   6.541
 4123POPC   C3B54405  41.165   3.015   6.948
 4123POPC   C4B54406  41.142   3.254   7.291
 4124POPC   NC354407  14.941   9.431   5.376
 4124POPC   PO454408  15.293   9.981   5.502
 4124POPC   GL154409  15.058   9.790   5.773
 4124POPC   GL254410  14.980  10.085   5.948
 4124POPC   C1A54411  15.046   9.584   6.183
 4124POPC   D2A54412  15.248   9.556   6.611
 4124POPC   C3A54413  15.050   9.590   7.038
 4124POPC   C4A54414  14.829   9.282   7.287
 4124POPC   C1B54415  15.129  10.049   6.362
 4124POPC   C2B54416  14.978  10.035   6.790
 4124POPC   C3B54417  15.112  10.125   7.223
 4124POPC   C4B54418  15.395   9.967   7.594
 4125POPC   NC354419  30.805  40.301   5.426
 4125POPC   PO454420  30.949  39.674   5.463
 4125POPC   GL154421  30.820  39.927   5.797
 4125POPC   GL254422  31.086  40.176   5.842
 4125POPC   C1A54423  30.673  39.905   6.210
 4125POPC   D2A54424  30.607  39.657   6.578
 4125POPC   C3A54425  30.560  39.904   6.971
 4125POPC   C4A54426  30.299  40.077   7.336
 4125POPC   C1B54427  31.075  40.217   6.278
 4125POPC   C2B54428  30.960  40.049   6.669
 4125POPC   C3B54429  30.961  40.242   7.069
 4125POPC   C4B54430  30.982  40.666   7.205
 4126POPC   NC354431  43.473  21.608   5.505
 4126POPC   PO454432  42.960  21.127   5.443
 4126POPC   GL154433  43.055  21.411   5.783
 4126POPC   GL254434  43.361  21.201   5.882
 4126POPC   C1A54435  42.908  21.419   6.246
 4126POPC   D2A54436  43.098  21.394   6.687
 4126POPC   C3A54437  42.898  21.338   7.090
 4126POPC   C4A54438  42.796  21.566   7.436
 4126POPC   C1B54439  43.396  21.565   6.156
 4126POPC   C2B54440  43.400  21.817   6.540
 4126POPC   C3B54441  43.504  21.686   6.939
 4126POPC   C4B54442  43.383  21.418   7.263
 4127POPC   NC354443  14.897  15.346   5.345
 4127POPC   PO454444  15.525  15.268   5.361
 4127POPC   GL154445  15.267  15.125   5.756
 4127POPC   GL254446  15.454  14.861   5.946
 4127POPC   C1A54447  15.056  15.107   6.225
 4127POPC   D2A54448  15.010  15.011   6.730
 4127POPC   C3A54449  15.237  15.228   7.116
 4127POPC   C4A54450  15.092  15.472   7.502
 4127POPC   C1B54451  15.529  14.972   6.395
 4127POPC   C2B54452  15.646  15.013   6.838
 4127POPC   C3B54453  15.789  15.289   7.174
 4127POPC   C4B54454  15.609  15.589   7.485
 4128POPC   NC354455  17.986  44.370   5.393
 4128POPC   PO454456  17.233  44.419   5.482
 4128POPC   GL154457  17.337  44.779   5.838
 4128POPC   GL254458  17.694  44.925   5.867
 4128POPC   C1A54459  17.266  44.973   6.241
 4128POPC   D2A54460  17.409  44.684   6.549
 4128POPC   C3A54461  17.407  44.757   6.976
 4128POPC   C4A54462  17.431  44.329   7.189
 4128POPC   C1B54463  17.827  44.617   6.213
 4128POPC   C2B54464  18.072  44.402   6.573
 4128POPC   C3B54465  17.866  44.510   6.980
 4128POPC   C4B54466  17.748  44.741   7.355
 4129POPC   NC354467  21.039  25.130   5.388
 4129POPC   PO454468  20.472  25.014   5.317
 4129POPC   GL154469  20.598  25.233   5.688
 4129POPC   GL254470  20.847  25.065   5.879
 4129POPC   C1A54471  20.433  25.332   6.102
 4129POPC   D2A54472  20.161  25.522   6.405
 4129POPC   C3A54473  20.357  25.612   6.791
 4129POPC   C4A54474  20.674  25.439   7.059
 4129POPC   C1B54475  20.830  25.120   6.333
 4129POPC   C2B54476  20.494  25.147   6.623
 4129POPC   C3B54477  20.518  24.947   6.998
 4129POPC   C4B54478  20.940  24.937   7.165
 4130POPC   NC354479  32.209  38.183   5.296
 4130POPC   PO454480  32.471  38.813   5.325
 4130POPC   GL154481  32.357  38.564   5.731
 4130POPC   GL254482  32.138  38.286   5.792
 4130POPC   C1A54483  32.281  38.613   6.211
 4130POPC   D2A54484  32.475  38.517   6.634
 4130POPC   C3A54485  32.246  38.531   7.050
 4130POPC   C4A54486  31.950  38.622   7.425
 4130POPC   C1B54487  32.115  38.110   6.207
 4130POPC   C2B54488  32.087  38.194   6.643
 4130POPC   C3B54489  32.264  38.005   7.026
 4130POPC   C4B54490  32.221  38.176   7.445
 4131POPC   NC354491  36.277  41.747   5.410
 4131POPC   PO454492  35.845  41.294   5.073
 4131POPC   GL154493  36.023  41.366   5.622
 4131POPC   GL254494  36.343  41.317   5.780
 4131POPC   C1A54495  36.174  41.699   6.047
 4131POPC   D2A54496  36.367  41.816   6.475
 4131POPC   C3A54497  36.235  41.691   6.892
 4131POPC   C4A54498  36.101  41.537   7.316
 4131POPC   C1B54499  36.362  41.256   6.235
 4131POPC   C2B54500  36.283  41.171   6.689
 4131POPC   C3B54501  36.465  41.264   7.088
 4131POPC   C4B54502  36.482  41.199   7.521
 4132POPC   NC354503  38.900  13.100   5.492
 4132POPC   PO454504  39.525  13.193   5.345
 4132POPC   GL154505  39.322  13.105   5.786
 4132POPC   GL254506  39.110  13.368   5.943
 4132POPC   C1A54507  38.984  12.843   6.058
 4132POPC   D2A54508  38.877  12.783   6.486
 4132POPC   C3A54509  39.082  12.999   6.812
 4132POPC   C4A54510  39.030  13.192   7.203
 4132POPC   C1B54511  39.298  13.129   6.320
 4132POPC   C2B54512  39.567  13.000   6.651
 4132POPC   C3B54513  39.519  13.230   7.046
 4132POPC   C4B54514  39.425  13.256   7.522
 4133POPC   NC354515   5.005  31.658   5.248
 4133POPC   PO454516   5.536  31.286   5.361
 4133POPC   GL154517   5.197  31.467   5.677
 4133POPC   GL254518   4.940  31.228   5.758
 4133POPC   C1A54519   4.992  31.625   6.104
 4133POPC   D2A54520   5.135  31.532   6.524
 4133POPC   C3A54521   4.912  31.571   6.939
 4133POPC   C4A54522   5.141  31.742   7.277
 4133POPC   C1B54523   5.286  31.212   6.121
 4133POPC   C2B54524   5.390  31.098   6.553
 4133POPC   C3B54525   5.364  31.325   6.928
 4133POPC   C4B54526   5.298  31.238   7.337
 4134POPC   NC354527  20.878  36.126   5.290
 4134POPC   PO454528  20.227  36.130   5.456
 4134POPC   GL154529  20.532  36.091   5.814
 4134POPC   GL254530  20.890  35.953   5.837
 4134POPC   C1A54531  20.530  36.296   6.225
 4134POPC   D2A54532  20.680  36.533   6.576
 4134POPC   C3A54533  20.610  36.288   6.941
 4134POPC   C4A54534  20.610  36.358   7.338
 4134POPC   C1B54535  20.673  35.802   6.198
 4134POPC   C2B54536  20.611  35.912   6.586
 4134POPC   C3B54537  20.757  35.784   6.962
 4134POPC   C4B54538  20.555  35.848   7.311
 4135POPC   NC354539  26.776   3.877   5.244
 4135POPC   PO454540  27.175   3.476   5.468
 4135POPC   GL154541  26.886   3.611   5.788
 4135POPC   GL254542  26.725   3.266   5.774
 4135POPC   C1A54543  26.854   3.618   6.270
 4135POPC   D2A54544  26.987   3.303   6.585
 4135POPC   C3A54545  26.910   3.452   7.013
 4135POPC   C4A54546  26.789   3.415   7.454
 4135POPC   C1B54547  26.640   3.168   6.202
 4135POPC   C2B54548  26.486   3.373   6.626
 4135POPC   C3B54549  26.433   3.316   7.096
 4135POPC   C4B54550  26.290   3.543   7.496
 4136POPC   NC354551  35.599  13.474   5.382
 4136POPC   PO454552  35.653  14.096   5.467
 4136POPC   GL154553  35.515  13.787   5.798
 4136POPC   GL254554  35.340  13.438   5.820
 4136POPC   C1A54555  35.454  13.785   6.223
 4136POPC   D2A54556  35.700  13.761   6.552
 4136POPC   C3A54557  35.498  13.667   6.926
 4136POPC   C4A54558  35.563  13.783   7.353
 4136POPC   C1B54559  35.053  13.481   6.139
 4136POPC   C2B54560  35.172  13.453   6.554
 4136POPC   C3B54561  34.967  13.382   6.912
 4136POPC   C4B54562  35.122  13.538   7.280
 4137POPC   NC354563  21.725  30.316   5.759
 4137POPC   PO454564  21.430  30.583   5.207
 4137POPC   GL154565  21.362  30.706   5.654
 4137POPC   GL254566  21.620  30.850   5.834
 4137POPC   C1A54567  21.180  30.816   6.065
 4137POPC   D2A54568  21.150  30.983   6.520
 4137POPC   C3A54569  21.158  30.670   6.875
 4137POPC   C4A54570  21.583  30.473   7.033
 4137POPC   C1B54571  21.585  31.179   6.164
 4137POPC   C2B54572  21.626  31.281   6.595
 4137POPC   C3B54573  21.538  30.982   6.899
 4137POPC   C4B54574  21.374  30.867   7.292
 4138POPC   NC354575   6.151  33.235   5.206
 4138POPC   PO454576   5.514  32.972   5.352
 4138POPC   GL154577   5.735  33.203   5.715
 4138POPC   GL254578   6.128  33.283   5.740
 4138POPC   C1A54579   5.752  33.384   6.129
 4138POPC   D2A54580   5.849  33.227   6.537
 4138POPC   C3A54581   5.890  33.395   6.945
 4138POPC   C4A54582   5.632  33.245   7.288
 4138POPC   C1B54583   6.207  33.125   6.174
 4138POPC   C2B54584   6.307  33.005   6.602
 4138POPC   C3B54585   6.096  32.904   6.970
 4138POPC   C4B54586   6.155  33.045   7.364
 4139POPC   NC354587  28.822  37.007   5.513
 4139POPC   PO454588  28.232  36.602   5.483
 4139POPC   GL154589  28.393  36.834   5.800
 4139POPC   GL254590  28.693  36.646   5.862
 4139POPC   C1A54591  28.351  36.846   6.244
 4139POPC   D2A54592  28.088  36.973   6.584
 4139POPC   C3A54593  28.270  36.945   6.966
 4139POPC   C4A54594  28.095  36.753   7.314
 4139POPC   C1B54595  28.769  36.531   6.289
 4139POPC   C2B54596  28.569  36.424   6.692
 4139POPC   C3B54597  28.536  36.526   7.138
 4139POPC   C4B54598  28.565  36.813   7.508
 4140POPC   NC354599  29.387  36.935   5.384
 4140POPC   PO454600  29.582  36.393   5.554
 4140POPC   GL154601  29.465  36.778   5.861
 4140POPC   GL254602  29.155  36.953   5.882
 4140POPC   C1A54603  29.408  36.854   6.320
 4140POPC   D2A54604  29.102  36.873   6.621
 4140POPC   C3A54605  29.243  36.873   7.018
 4140POPC   C4A54606  29.002  36.662   7.299
 4140POPC   C1B54607  28.838  37.067   6.217
 4140POPC   C2B54608  28.724  37.227   6.652
 4140POPC   C3B54609  28.770  37.055   7.076
 4140POPC   C4B54610  29.096  37.163   7.410
 4141POPC   NC354611  42.578  37.467   5.529
 4141POPC   PO454612  42.063  37.631   5.174
 4141POPC   GL154613  42.074  37.808   5.667
 4141POPC   GL254614  42.380  37.929   5.794
 4141POPC   C1A54615  42.121  37.714   6.151
 4141POPC   D2A54616  42.273  37.916   6.548
 4141POPC   C3A54617  42.107  37.813   6.975
 4141POPC   C4A54618  42.195  38.078   7.332
 4141POPC   C1B54619  42.631  37.843   6.158
 4141POPC   C2B54620  42.713  37.623   6.568
 4141POPC   C3B54621  42.613  37.742   6.989
 4141POPC   C4B54622  42.505  37.669   7.427
 4142POPC   NC354623  26.599  10.729   5.416
 4142POPC   PO454624  26.655  10.041   5.361
 4142POPC   GL154625  26.736  10.323   5.783
 4142POPC   GL254626  27.054  10.562   5.840
 4142POPC   C1A54627  26.762  10.457   6.261
 4142POPC   D2A54628  26.955  10.287   6.654
 4142POPC   C3A54629  27.042  10.386   7.105
 4142POPC   C4A54630  26.789  10.369   7.483
 4142POPC   C1B54631  27.241  10.627   6.290
 4142POPC   C2B54632  27.110  10.773   6.730
 4142POPC   C3B54633  26.902  10.882   7.134
 4142POPC   C4B54634  26.932  10.838   7.588
 4143POPC   NC354635  37.690  22.403   5.447
 4143POPC   PO454636  37.389  21.925   5.240
 4143POPC   GL154637  37.467  21.981   5.688
 4143POPC   GL254638  37.309  22.328   5.768
 4143POPC   C1A54639  37.604  22.003   6.117
 4143POPC   D2A54640  37.527  21.880   6.525
 4143POPC   C3A54641  37.844  21.974   6.831
 4143POPC   C4A54642  37.968  21.787   7.190
 4143POPC   C1B54643  37.534  22.519   6.147
 4143POPC   C2B54644  37.681  22.384   6.543
 4143POPC   C3B54645  37.766  22.481   6.956
 4143POPC   C4B54646  37.716  22.204   7.318
 4144POPC   NC354647  33.028  30.840   5.390
 4144POPC   PO454648  32.479  30.344   5.373
 4144POPC   GL154649  32.769  30.515   5.729
 4144POPC   GL254650  32.659  30.856   5.786
 4144POPC   C1A54651  33.034  30.636   6.136
 4144POPC   D2A54652  33.311  30.699   6.534
 4144POPC   C3A54653  33.142  30.579   6.930
 4144POPC   C4A54654  33.066  30.353   7.345
 4144POPC   C1B54655  32.655  30.967   6.224
 4144POPC   C2B54656  32.898  30.996   6.597
 4144POPC   C3B54657  32.763  30.990   7.014
 4144POPC   C4B54658  32.995  30.849   7.353
 4145POPC   NC354659  40.102  28.668   5.234
 4145POPC   PO454660  39.936  29.277   5.278
 4145POPC   GL154661  40.014  29.271   5.688
 4145POPC   GL254662  40.060  28.899   5.696
 4145POPC   C1A54663  39.985  29.487   6.078
 4145POPC   D2A54664  39.842  29.355   6.485
 4145POPC   C3A54665  39.776  29.495   6.914
 4145POPC   C4A54666  39.894  29.333   7.309
 4145POPC   C1B54667  39.936  28.960   6.115
 4145POPC   C2B54668  40.006  28.874   6.540
 4145POPC   C3B54669  39.980  29.006   6.946
 4145POPC   C4B54670  40.174  28.890   7.364
 4146POPC   NC354671  41.939  30.044   5.601
 4146POPC   PO454672  41.608  29.601   5.180
 4146POPC   GL154673  41.487  29.734   5.747
 4146POPC   GL254674  41.543  30.030   5.918
 4146POPC   C1A54675  41.534  29.616   6.219
 4146POPC   D2A54676  41.748  29.806   6.571
 4146POPC   C3A54677  41.609  29.734   7.007
 4146POPC   C4A54678  41.719  29.973   7.381
 4146POPC   C1B54679  41.235  30.011   6.252
 4146POPC   C2B54680  41.224  29.880   6.695
 4146POPC   C3B54681  41.242  30.087   7.108
 4146POPC   C4B54682  40.925  30.083   7.414
 4147POPC   NC354683   1.691  37.176   5.572
 4147POPC   PO454684   2.252  36.764   5.442
 4147POPC   GL154685   2.017  36.830   5.795
 4147POPC   GL254686   2.156  37.165   5.821
 4147POPC   C1A54687   1.855  36.672   6.190
 4147POPC   D2A54688   2.037  36.639   6.605
 4147POPC   C3A54689   1.800  36.570   6.968
 4147POPC   C4A54690   1.919  36.788   7.326
 4147POPC   C1B54691   1.902  37.202   6.220
 4147POPC   C2B54692   1.957  37.446   6.629
 4147POPC   C3B54693   2.019  37.260   7.035
 4147POPC   C4B54694   1.632  37.188   7.222
 4148POPC   NC354695  27.295  30.874   5.552
 4148POPC   PO454696  27.916  30.697   5.362
 4148POPC   GL154697  27.737  30.724   5.737
 4148POPC   GL254698  27.549  30.428   5.710
 4148POPC   C1A54699  27.692  30.876   6.162
 4148POPC   D2A54700  27.733  30.635   6.540
 4148POPC   C3A54701  27.909  30.875   6.877
 4148POPC   C4A54702  27.990  30.772   7.288
 4148POPC   C1B54703  27.445  30.408   6.141
 4148POPC   C2B54704  27.462  30.196   6.535
 4148POPC   C3B54705  27.446  30.391   6.922
 4148POPC   C4B54706  27.465  30.698   7.227
 4149POPC   NC354707  10.648  19.411   5.554
 4149POPC   PO454708  10.158  19.911   5.641
 4149POPC   GL154709  10.579  19.834   5.861
 4149POPC   GL254710  10.732  20.173   5.717
 4149POPC   C1A54711  10.786  19.500   6.190
 4149POPC   D2A54712  10.836  19.317   6.644
 4149POPC   C3A54713  10.626  19.590   6.981
 4149POPC   C4A54714  10.459  19.838   7.362
 4149POPC   C1B54715  10.785  20.266   6.156
 4149POPC   C2B54716  10.828  20.091   6.574
 4149POPC   C3B54717  10.789  20.107   7.039
 4149POPC   C4B54718  10.830  20.192   7.503
 4150POPC   NC354719  41.606  43.774   5.627
 4150POPC   PO454720  41.743  43.172   5.359
 4150POPC   GL154721  41.583  43.278   5.808
 4150POPC   GL254722  41.283  43.477   5.889
 4150POPC   C1A54723  41.637  43.145   6.262
 4150POPC   D2A54724  41.740  43.055   6.709
 4150POPC   C3A54725  41.447  43.027   7.079
 4150POPC   C4A54726  41.489  43.017   7.542
 4150POPC   C1B54727  41.144  43.290   6.253
 4150POPC   C2B54728  41.185  43.119   6.647
 4150POPC   C3B54729  41.138  43.420   7.025
 4150POPC   C4B54730  41.113  43.363   7.493
 4151POPC   NC354731  20.854  33.659   5.630
 4151POPC   PO454732  20.311  33.743   5.223
 4151POPC   GL154733  20.330  33.855   5.684
 4151POPC   GL254734  20.615  34.059   5.801
 4151POPC   C1A54735  20.310  33.785   6.132
 4151POPC   D2A54736  20.554  33.592   6.464
 4151POPC   C3A54737  20.394  33.712   6.858
 4151POPC   C4A54738  20.507  33.647   7.267
 4151POPC   C1B54739  20.854  34.100   6.174
 4151POPC   C2B54740  20.752  34.055   6.593
 4151POPC   C3B54741  20.877  33.930   6.992
 4151POPC   C4B54742  20.795  34.130   7.384
 4152POPC   NC354743  10.802  39.424   5.500
 4152POPC   PO454744  11.356  39.010   5.459
 4152POPC   GL154745  11.207  39.274   5.837
 4152POPC   GL254746  11.051  39.612   5.893
 4152POPC   C1A54747  11.324  39.365   6.277
 4152POPC   D2A54748  11.194  39.211   6.715
 4152POPC   C3A54749  11.349  39.214   7.154
 4152POPC   C4A54750  11.196  38.937   7.507
 4152POPC   C1B54751  11.054  39.816   6.286
 4152POPC   C2B54752  11.203  39.717   6.690
 4152POPC   C3B54753  11.098  39.667   7.142
 4152POPC   C4B54754  11.110  39.445   7.565
 4153POPC   NC354755  38.777  27.860   5.438
 4153POPC   PO454756  38.140  27.840   5.413
 4153POPC   GL154757  38.378  27.546   5.710
 4153POPC   GL254758  38.736  27.408   5.721
 4153POPC   C1A54759  38.369  27.336   6.124
 4153POPC   D2A54760  38.377  27.539   6.524
 4153POPC   C3A54761  38.349  27.310   6.909
 4153POPC   C4A54762  38.215  27.451   7.282
 4153POPC   C1B54763  38.711  27.699   6.095
 4153POPC   C2B54764  38.856  27.754   6.522
 4153POPC   C3B54765  38.661  27.731   6.917
 4153POPC   C4B54766  38.733  27.459   7.232
 4154POPC   NC354767  42.243   0.106   5.458
 4154POPC   PO454768  42.720   0.494   5.428
 4154POPC   GL154769  42.488   0.633   5.779
 4154POPC   GL254770  42.114   0.645   5.727
 4154POPC   C1A54771  42.349   0.519   6.187
 4154POPC   D2A54772  42.213   0.554   6.598
 4154POPC   C3A54773  42.459   0.577   6.965
 4154POPC   C4A54774  42.508   0.248   7.281
 4154POPC   C1B54775  41.977   0.910   6.087
 4154POPC   C2B54776  41.964   0.993   6.541
 4154POPC   C3B54777  41.917   0.801   6.955
 4154POPC   C4B54778  42.058   0.517   7.270
 4155POPC   NC354779   1.122  10.070   5.289
 4155POPC   PO454780   1.532   9.658   5.285
 4155POPC   GL154781   1.649   9.694   5.711
 4155POPC   GL254782   1.683   9.397   5.926
 4155POPC   C1A54783   1.537   9.870   6.119
 4155POPC   D2A54784   1.319  10.050   6.490
 4155POPC   C3A54785   1.465   9.970   6.888
 4155POPC   C4A54786   1.298   9.960   7.287
 4155POPC   C1B54787   1.806   9.448   6.370
 4155POPC   C2B54788   1.671   9.517   6.807
 4155POPC   C3B54789   1.269   9.486   7.089
 4155POPC   C4B54790   1.158   9.154   7.407
 4156POPC   NC354791   3.999   5.632   5.090
 4156POPC   PO454792   4.584   6.032   5.292
 4156POPC   GL154793   4.397   5.771   5.618
 4156POPC   GL254794   4.563   5.485   5.818
 4156POPC   C1A54795   4.399   5.968   6.019
 4156POPC   D2A54796   4.256   5.967   6.434
 4156POPC   C3A54797   4.414   5.695   6.742
 4156POPC   C4A54798   4.422   5.766   7.171
 4156POPC   C1B54799   4.177   5.498   6.050
 4156POPC   C2B54800   3.956   5.534   6.438
 4156POPC   C3B54801   4.009   5.362   6.850
 4156POPC   C4B54802   4.000   5.487   7.256
 4157POPC   NC354803  21.840   6.209   5.747
 4157POPC   PO454804  21.671   5.626   5.677
 4157POPC   GL154805  21.523   5.803   6.042
 4157POPC   GL254806  21.716   6.055   6.238
 4157POPC   C1A54807  21.369   5.745   6.451
 4157POPC   D2A54808  21.446   6.027   6.784
 4157POPC   C3A54809  21.331   5.862   7.191
 4157POPC   C4A54810  21.519   5.946   7.564
 4157POPC   C1B54811  21.277   6.211   6.269
 4157POPC   C2B54812  20.982   6.302   6.605
 4157POPC   C3B54813  21.086   6.299   7.041
 4157POPC   C4B54814  21.514   6.348   7.246
 4158POPC   NC354815   1.127   1.836   5.397
 4158POPC   PO454816   1.595   1.582   5.647
 4158POPC   GL154817   1.347   1.896   5.875
 4158POPC   GL254818   0.951   1.948   5.866
 4158POPC   C1A54819   1.268   1.798   6.304
 4158POPC   D2A54820   1.089   1.877   6.692
 4158POPC   C3A54821   1.324   1.670   6.954
 4158POPC   C4A54822   1.456   1.712   7.387
 4158POPC   C1B54823   1.048   2.248   6.191
 4158POPC   C2B54824   1.010   2.507   6.541
 4158POPC   C3B54825   0.991   2.353   6.950
 4158POPC   C4B54826   1.068   2.016   7.208
 4159POPC   NC354827  34.356  25.152   5.648
 4159POPC   PO454828  33.669  25.104   5.458
 4159POPC   GL154829  33.707  25.258   5.862
 4159POPC   GL254830  34.020  25.122   6.050
 4159POPC   C1A54831  33.737  25.486   6.223
 4159POPC   D2A54832  33.917  25.310   6.547
 4159POPC   C3A54833  33.713  25.459   6.868
 4159POPC   C4A54834  33.796  25.409   7.249
 4159POPC   C1B54835  34.337  25.043   6.382
 4159POPC   C2B54836  34.374  24.980   6.845
 4159POPC   C3B54837  34.134  25.038   7.235
 4159POPC   C4B54838  33.821  24.866   7.527
 4160POPC   NC354839  23.760  32.736   5.339
 4160POPC   PO454840  23.496  33.299   5.331
 4160POPC   GL154841  23.789  33.160   5.697
 4160POPC   GL254842  23.806  32.811   5.831
 4160POPC   C1A54843  23.852  33.176   6.181
 4160POPC   D2A54844  23.606  33.132   6.572
 4160POPC   C3A54845  23.836  33.214   6.932
 4160POPC   C4A54846  23.708  33.300   7.326
 4160POPC   C1B54847  23.484  32.727   6.152
 4160POPC   C2B54848  23.531  32.608   6.593
 4160POPC   C3B54849  23.899  32.715   6.849
 4160POPC   C4B54850  23.885  32.823   7.279
 4161POPC   NC354851   3.583  14.019   5.405
 4161POPC   PO454852   3.102  13.491   5.424
 4161POPC   GL154853   3.225  13.706   5.800
 4161POPC   GL254854   3.525  13.788   5.860
 4161POPC   C1A54855   3.354  13.520   6.236
 4161POPC   D2A54856   3.648  13.559   6.569
 4161POPC   C3A54857   3.428  13.555   6.917
 4161POPC   C4A54858   3.272  13.653   7.269
 4161POPC   C1B54859   3.818  13.857   6.181
 4161POPC   C2B54860   3.939  14.005   6.587
 4161POPC   C3B54861   3.754  13.944   7.008
 4161POPC   C4B54862   4.015  13.928   7.359
 4162POPC   NC354863  30.107  12.708   4.935
 4162POPC   PO454864  29.944  12.553   5.563
 4162POPC   GL154865  29.835  12.725   5.965
 4162POPC   GL254866  29.577  13.059   5.890
 4162POPC   C1A54867  30.175  12.606   6.262
 4162POPC   D2A54868  30.276  12.830   6.615
 4162POPC   C3A54869  29.970  12.752   6.902
 4162POPC   C4A54870  30.196  12.826   7.242
 4162POPC   C1B54871  29.612  13.061   6.325
 4162POPC   C2B54872  29.912  13.216   6.632
 4162POPC   C3B54873  30.006  13.268   7.054
 4162POPC   C4B54874  29.724  12.992   7.306
 4163POPC   NC354875  30.035  35.300   5.271
 4163POPC   PO454876  29.394  35.517   5.436
 4163POPC   GL154877  29.701  35.537   5.781
 4163POPC   GL254878  30.089  35.606   5.714
 4163POPC   C1A54879  29.665  35.254   6.173
 4163POPC   D2A54880  29.488  35.051   6.560
 4163POPC   C3A54881  29.683  35.172   6.941
 4163POPC   C4A54882  29.651  35.559   7.133
 4163POPC   C1B54883  30.005  35.632   6.189
 4163POPC   C2B54884  29.956  35.557   6.661
 4163POPC   C3B54885  30.135  35.627   7.088
 4163POPC   C4B54886  30.240  35.528   7.540
 4164POPC   NC354887   1.514  28.404   5.407
 4164POPC   PO454888   1.052  27.871   5.269
 4164POPC   GL154889   1.176  28.104   5.665
 4164POPC   GL254890   1.195  28.428   5.836
 4164POPC   C1A54891   1.188  28.017   6.132
 4164POPC   D2A54892   0.992  27.981   6.552
 4164POPC   C3A54893   1.055  28.199   6.926
 4164POPC   C4A54894   1.319  28.065   7.235
 4164POPC   C1B54895   1.413  28.439   6.247
 4164POPC   C2B54896   1.478  28.239   6.641
 4164POPC   C3B54897   1.560  28.467   7.023
 4164POPC   C4B54898   1.515  28.550   7.441
 4165POPC   NC354899  29.739   3.591   5.456
 4165POPC   PO454900  30.392   3.598   5.379
 4165POPC   GL154901  30.125   3.577   5.817
 4165POPC   GL254902  29.763   3.727   5.951
 4165POPC   C1A54903  30.098   3.552   6.283
 4165POPC   D2A54904  29.681   3.525   6.501
 4165POPC   C3A54905  29.744   3.668   6.910
 4165POPC   C4A54906  29.847   3.440   7.288
 4165POPC   C1B54907  29.479   3.959   6.261
 4165POPC   C2B54908  29.336   3.987   6.698
 4165POPC   C3B54909  29.572   4.123   7.066
 4165POPC   C4B54910  29.835   3.951   7.346
 4166POPC   NC354911  37.137  14.259   5.395
 4166POPC   PO454912  36.531  14.370   5.074
 4166POPC   GL154913  36.662  14.174   5.568
 4166POPC   GL254914  36.844  14.440   5.760
 4166POPC   C1A54915  36.561  14.186   6.071
 4166POPC   D2A54916  36.813  14.266   6.450
 4166POPC   C3A54917  36.724  14.339   6.901
 4166POPC   C4A54918  36.739  14.366   7.346
 4166POPC   C1B54919  37.100  14.555   6.093
 4166POPC   C2B54920  37.178  14.630   6.511
 4166POPC   C3B54921  37.224  14.317   6.814
 4166POPC   C4B54922  37.268  14.397   7.220
 4167POPC   NC354923   5.493  16.815   5.264
 4167POPC   PO454924   4.920  17.234   5.442
 4167POPC   GL154925   5.072  16.828   5.665
 4167POPC   GL254926   4.793  16.579   5.685
 4167POPC   C1A54927   5.107  16.650   6.118
 4167POPC   D2A54928   5.070  16.573   6.603
 4167POPC   C3A54929   5.351  16.623   6.950
 4167POPC   C4A54930   5.486  16.850   7.332
 4167POPC   C1B54931   4.674  16.905   6.028
 4167POPC   C2B54932   4.752  16.998   6.485
 4167POPC   C3B54933   4.847  16.937   6.938
 4167POPC   C4B54934   4.943  16.602   7.268
 4168POPC   NC354935  27.816   8.322   5.602
 4168POPC   PO454936  28.455   8.293   5.433
 4168POPC   GL154937  28.411   8.151   5.823
 4168POPC   GL254938  28.749   8.242   5.853
 4168POPC   C1A54939  28.177   8.199   6.202
 4168POPC   D2A54940  28.149   8.491   6.554
 4168POPC   C3A54941  28.290   8.239   6.904
 4168POPC   C4A54942  28.196   8.072   7.307
 4168POPC   C1B54943  28.694   8.084   6.247
 4168POPC   C2B54944  28.692   8.009   6.652
 4168POPC   C3B54945  28.800   8.240   6.967
 4168POPC   C4B54946  28.719   8.042   7.297
 4169POPC   NC354947  13.541   0.546   5.089
 4169POPC   PO454948  13.844   0.098   5.527
 4169POPC   GL154949  13.648   0.388   5.892
 4169POPC   GL254950  13.920   0.612   6.104
 4169POPC   C1A54951  13.413   0.659   6.183
 4169POPC   D2A54952  13.411   0.793   6.622
 4169POPC   C3A54953  13.601   0.580   6.969
 4169POPC   C4A54954  13.636   0.670   7.424
 4169POPC   C1B54955  13.831   0.254   6.328
 4169POPC   C2B54956  13.982   0.030   6.613
 4169POPC   C3B54957  13.745  44.975   6.920
 4169POPC   C4B54958  13.544   0.161   7.249
 4170POPC   NC354959  19.577   3.722   5.373
 4170POPC   PO454960  19.744   2.985   5.482
 4170POPC   GL154961  19.730   3.389   5.762
 4170POPC   GL254962  20.015   3.590   5.893
 4170POPC   C1A54963  19.636   3.497   6.230
 4170POPC   D2A54964  19.379   3.566   6.630
 4170POPC   C3A54965  19.588   3.626   7.046
 4170POPC   C4A54966  19.654   3.522   7.484
 4170POPC   C1B54967  20.094   3.655   6.367
 4170POPC   C2B54968  19.896   3.376   6.693
 4170POPC   C3B54969  19.941   3.269   7.131
 4170POPC   C4B54970  20.142   3.641   7.318
 4171POPC   NC354971  38.331  31.596   5.397
 4171POPC   PO454972  38.788  31.059   5.549
 4171POPC   GL154973  38.470  31.240   5.791
 4171POPC   GL254974  38.452  31.604   5.877
 4171POPC   C1A54975  38.299  31.270   6.196
 4171POPC   D2A54976  38.518  31.486   6.502
 4171POPC   C3A54977  38.264  31.483   6.852
 4171POPC   C4A54978  38.344  31.240   7.184
 4171POPC   C1B54979  38.732  31.841   6.121
 4171POPC   C2B54980  38.978  31.744   6.472
 4171POPC   C3B54981  38.851  31.608   6.886
 4171POPC   C4B54982  38.554  31.731   7.189
 4172POPC   NC354983   3.044   0.190   5.469
 4172POPC   PO454984   2.448  44.854   5.227
 4172POPC   GL154985   2.639  44.613   5.618
 4172POPC   GL254986   3.035  44.560   5.598
 4172POPC   C1A54987   2.611  44.506   6.096
 4172POPC   D2A54988   2.708  44.526   6.525
 4172POPC   C3A54989   2.492  44.642   6.891
 4172POPC   C4A54990   2.614  44.971   7.178
 4172POPC   C1B54991   3.019  44.786   5.982
 4172POPC   C2B54992   3.141  44.735   6.398
 4172POPC   C3B54993   3.118  44.678   6.861
 4172POPC   C4B54994   3.153  44.383   7.208
 4173POPC   NC354995  21.204   9.440   5.152
 4173POPC   PO454996  21.666   9.920   5.395
 4173POPC   GL154997  21.487   9.685   5.796
 4173POPC   GL254998  21.346   9.918   5.977
 4173POPC   C1A54999  21.397   9.471   6.255
 4173POPC   D2A55000  21.254   9.637   6.686
 4173POPC   C3A55001  21.392   9.484   7.114
 4173POPC   C4A55002  21.463   9.532   7.559
 4173POPC   C1B55003  21.549  10.204   6.246
 4173POPC   C2B55004  21.504  10.096   6.655
 4173POPC   C3B55005  21.479  10.012   7.065
 4173POPC   C4B55006  21.791   9.779   7.233
 4174POPC   NC355007  24.666  22.592   5.311
 4174POPC   PO455008  24.798  21.938   5.410
 4174POPC   GL155009  24.587  21.843   5.843
 4174POPC   GL255010  24.206  21.815   5.875
 4174POPC   C1A55011  24.494  22.037   6.271
 4174POPC   D2A55012  24.415  22.374   6.588
 4174POPC   C3A55013  24.627  22.210   6.947
 4174POPC   C4A55014  24.674  21.762   7.112
 4174POPC   C1B55015  24.038  21.804   6.307
 4174POPC   C2B55016  24.191  21.935   6.713
 4174POPC   C3B55017  24.175  22.074   7.132
 4174POPC   C4B55018  24.074  22.237   7.551
 4175POPC   NC355019  44.993  36.028   5.417
 4175POPC   PO455020   0.669  36.197   5.450
 4175POPC   GL155021   0.340  36.322   5.751
 4175POPC   GL255022   0.242  36.028   5.880
 4175POPC   C1A55023   0.400  36.346   6.228
 4175POPC   D2A55024   0.632  36.311   6.625
 4175POPC   C3A55025   0.378  36.324   6.981
 4175POPC   C4A55026  44.962  36.506   6.924
 4175POPC   C1B55027   0.453  35.819   6.257
 4175POPC   C2B55028   0.262  35.615   6.644
 4175POPC   C3B55029   0.454  35.803   6.970
 4175POPC   C4B55030   0.647  35.729   7.339
 4176POPC   NC355031  15.117   3.277   5.280
 4176POPC   PO455032  14.571   3.151   5.602
 4176POPC   GL155033  14.853   3.430   5.847
 4176POPC   GL255034  15.213   3.453   5.760
 4176POPC   C1A55035  14.988   3.494   6.265
 4176POPC   D2A55036  14.904   3.652   6.661
 4176POPC   C3A55037  15.095   3.455   7.007
 4176POPC   C4A55038  15.433   3.693   7.208
 4176POPC   C1B55039  15.452   3.638   6.126
 4176POPC   C2B55040  15.407   3.507   6.587
 4176POPC   C3B55041  15.544   3.211   6.892
 4176POPC   C4B55042  15.636   3.253   7.316
 4177POPC   NC355043  24.132  20.960   5.400
 4177POPC   PO455044  24.455  20.361   5.181
 4177POPC   GL155045  24.741  20.472   5.580
 4177POPC   GL255046  24.863  20.200   5.795
 4177POPC   C1A55047  24.625  20.571   6.068
 4177POPC   D2A55048  24.310  20.508   6.437
 4177POPC   C3A55049  24.401  20.577   6.895
 4177POPC   C4A55050  24.377  20.737   7.317
 4177POPC   C1B55051  25.056  20.191   6.204
 4177POPC   C2B55052  25.041  20.403   6.620
 4177POPC   C3B55053  24.849  20.345   7.006
 4177POPC   C4B55054  24.858  20.592   7.356
 4178POPC   NC355055   7.159  30.616   5.382
 4178POPC   PO455056   7.822  30.443   5.190
 4178POPC   GL155057   7.629  30.491   5.669
 4178POPC   GL255058   7.394  30.757   5.836
 4178POPC   C1A55059   7.649  30.448   6.155
 4178POPC   D2A55060   7.742  30.623   6.568
 4178POPC   C3A55061   7.461  30.569   6.908
 4178POPC   C4A55062   7.559  30.759   7.279
 4178POPC   C1B55063   7.462  30.948   6.267
 4178POPC   C2B55064   7.194  30.925   6.654
 4178POPC   C3B55065   7.107  31.004   7.094
 4178POPC   C4B55066   7.062  31.404   7.264
 4179POPC   NC355067  29.584  29.931   5.592
 4179POPC   PO455068  30.126  29.632   5.254
 4179POPC   GL155069  30.049  29.709   5.745
 4179POPC   GL255070  30.038  30.055   5.843
 4179POPC   C1A55071  29.787  29.712   6.186
 4179POPC   D2A55072  29.705  29.998   6.581
 4179POPC   C3A55073  29.818  29.960   7.032
 4179POPC   C4A55074  29.911  29.750   7.460
 4179POPC   C1B55075  30.266  29.897   6.235
 4179POPC   C2B55076  30.468  29.787   6.641
 4179POPC   C3B55077  30.284  29.690   7.050
 4179POPC   C4B55078  30.267  30.064   7.284
 4180POPC   NC355079   9.129  25.592   5.393
 4180POPC   PO455080   8.674  25.099   5.501
 4180POPC   GL155081   8.979  25.123   5.816
 4180POPC   GL255082   9.005  25.476   5.876
 4180POPC   C1A55083   8.927  25.118   6.263
 4180POPC   D2A55084   9.001  25.072   6.694
 4180POPC   C3A55085   8.732  25.293   6.990
 4180POPC   C4A55086   8.772  25.291   7.430
 4180POPC   C1B55087   9.338  25.449   6.200
 4180POPC   C2B55088   9.323  25.467   6.657
 4180POPC   C3B55089   9.218  25.454   7.122
 4180POPC   C4B55090   9.477  25.643   7.451
 4181POPC   NC355091  33.761  14.685   5.274
 4181POPC   PO455092  33.761  15.363   5.146
 4181POPC   GL155093  33.744  15.158   5.578
 4181POPC   GL255094  34.013  14.986   5.720
 4181POPC   C1A55095  33.700  15.179   6.055
 4181POPC   D2A55096  33.971  15.234   6.430
 4181POPC   C3A55097  33.672  15.202   6.781
 4181POPC   C4A55098  33.626  15.391   7.180
 4181POPC   C1B55099  34.022  14.788   6.150
 4181POPC   C2B55100  33.880  14.754   6.579
 4181POPC   C3B55101  34.064  14.905   6.964
 4181POPC   C4B55102  33.799  14.910   7.302
 4182POPC   NC355103  43.254  40.758   5.325
 4182POPC   PO455104  42.697  40.644   5.551
 4182POPC   GL155105  43.037  40.671   5.833
 4182POPC   GL255106  43.242  40.972   5.803
 4182POPC   C1A55107  43.050  40.766   6.272
 4182POPC   D2A55108  42.908  40.945   6.653
 4182POPC   C3A55109  43.061  40.667   6.939
 4182POPC   C4A55110  43.106  40.539   7.330
 4182POPC   C1B55111  43.471  41.024   6.200
 4182POPC   C2B55112  43.588  40.891   6.633
 4182POPC   C3B55113  43.442  40.963   7.069
 4182POPC   C4B55114  43.313  40.958   7.501
 4183POPC   NC355115  30.889  39.291   5.208
 4183POPC   PO455116  30.357  38.871   5.406
 4183POPC   GL155117  30.622  39.230   5.661
 4183POPC   GL255118  30.393  39.509   5.741
 4183POPC   C1A55119  30.755  39.371   6.126
 4183POPC   D2A55120  30.797  39.185   6.583
 4183POPC   C3A55121  30.771  39.394   6.983
 4183POPC   C4A55122  30.969  39.185   7.253
 4183POPC   C1B55123  30.299  39.146   6.050
 4183POPC   C2B55124  30.312  39.131   6.479
 4183POPC   C3B55125  30.287  39.252   6.902
 4183POPC   C4B55126  30.265  39.048   7.292
 4184POPC   NC355127  30.633   3.907   5.144
 4184POPC   PO455128  30.992   3.583   5.609
 4184POPC   GL155129  30.842   3.393   5.944
 4184POPC   GL255130  30.547   3.278   5.777
 4184POPC   C1A55131  30.604   3.665   6.240
 4184POPC   D2A55132  30.451   3.858   6.633
 4184POPC   C3A55133  30.727   3.626   6.919
 4184POPC   C4A55134  30.617   3.230   7.148
 4184POPC   C1B55135  30.476   3.159   6.218
 4184POPC   C2B55136  30.399   3.288   6.644
 4184POPC   C3B55137  30.236   3.528   6.985
 4184POPC   C4B55138  30.336   3.509   7.449
 4185POPC   NC355139  41.740   0.102   5.084
 4185POPC   PO455140  41.624   0.673   5.476
 4185POPC   GL155141  41.583   0.650   5.889
 4185POPC   GL255142  41.227   0.759   5.900
 4185POPC   C1A55143  41.769   0.474   6.295
 4185POPC   D2A55144  41.785   0.353   6.757
 4185POPC   C3A55145  41.554   0.353   7.118
 4185POPC   C4A55146  41.805   0.066   7.269
 4185POPC   C1B55147  41.346   0.785   6.301
 4185POPC   C2B55148  41.509   0.754   6.645
 4185POPC   C3B55149  41.390   0.820   7.015
 4185POPC   C4B55150  41.617   0.828   7.365
 4186POPC   NC355151  15.557   6.350   5.348
 4186POPC   PO455152  14.917   6.375   5.314
 4186POPC   GL155153  15.133   6.496   5.716
 4186POPC   GL255154  15.349   6.241   5.845
 4186POPC   C1A55155  15.219   6.636   6.174
 4186POPC   D2A55156  14.912   6.661   6.534
 4186POPC   C3A55157  15.081   6.699   6.946
 4186POPC   C4A55158  15.390   6.911   7.196
 4186POPC   C1B55159  15.573   6.241   6.248
 4186POPC   C2B55160  15.676   6.326   6.676
 4186POPC   C3B55161  15.485   6.386   7.070
 4186POPC   C4B55162  15.197   6.462   7.395
 4187POPC   NC355163  35.024  42.926   5.474
 4187POPC   PO455164  34.409  43.045   5.289
 4187POPC   GL155165  34.532  43.035   5.757
 4187POPC   GL255166  34.851  43.144   5.910
 4187POPC   C1A55167  34.413  43.180   6.197
 4187POPC   D2A55168  34.466  43.095   6.636
 4187POPC   C3A55169  34.330  43.428   6.917
 4187POPC   C4A55170  34.508  43.442   7.331
 4187POPC   C1B55171  34.826  42.878   6.292
 4187POPC   C2B55172  34.950  42.905   6.713
 4187POPC   C3B55173  34.788  42.916   7.140
 4187POPC   C4B55174  34.860  42.658   7.524
 4188POPC   NC355175  20.069  19.462   5.216
 4188POPC   PO455176  19.581  19.019   5.348
 4188POPC   GL155177  19.694  19.233   5.702
 4188POPC   GL255178  20.022  19.085   5.778
 4188POPC   C1A55179  19.542  19.163   6.138
 4188POPC   D2A55180  19.646  18.958   6.527
 4188POPC   C3A55181  19.584  19.163   6.882
 4188POPC   C4A55182  19.766  19.145   7.255
 4188POPC   C1B55183  20.008  18.850   6.181
 4188POPC   C2B55184  20.064  18.676   6.638
 4188POPC   C3B55185  20.100  18.778   7.098
 4188POPC   C4B55186  20.090  18.913   7.562
 4189POPC   NC355187  38.002  43.133   5.362
 4189POPC   PO455188  37.366  43.010   5.484
 4189POPC   GL155189  37.606  43.220   5.809
 4189POPC   GL255190  37.748  43.489   5.626
 4189POPC   C1A55191  37.785  43.143   6.261
 4189POPC   D2A55192  37.815  42.838   6.632
 4189POPC   C3A55193  37.573  42.987   6.986
 4189POPC   C4A55194  37.610  43.036   7.428
 4189POPC   C1B55195  38.048  43.500   5.974
 4189POPC   C2B55196  38.151  43.491   6.407
 4189POPC   C3B55197  37.911  43.342   6.769
 4189POPC   C4B55198  37.793  43.510   7.166
 4190POPC   NC355199   2.785  22.398   5.209
 4190POPC   PO455200   2.450  21.956   5.596
 4190POPC   GL155201   2.777  22.052   5.857
 4190POPC   GL255202   2.871  22.409   5.807
 4190POPC   C1A55203   2.831  21.929   6.304
 4190POPC   D2A55204   2.973  22.147   6.685
 4190POPC   C3A55205   2.844  21.923   7.020
 4190POPC   C4A55206   3.054  21.973   7.371
 4190POPC   C1B55207   2.568  22.359   6.197
 4190POPC   C2B55208   2.476  22.211   6.603
 4190POPC   C3B55209   2.583  22.382   7.009
 4190POPC   C4B55210   2.480  22.154   7.374
 4191POPC   NC355211  39.507  18.099   5.302
 4191POPC   PO455212  38.855  18.312   5.367
 4191POPC   GL155213  39.002  18.405   5.749
 4191POPC   GL255214  39.333  18.357   5.692
 4191POPC   C1A55215  39.026  18.223   6.151
 4191POPC   D2A55216  38.965  18.364   6.571
 4191POPC   C3A55217  39.195  18.089   6.802
 4191POPC   C4A55218  39.075  18.191   7.167
 4191POPC   C1B55219  39.523  18.480   6.024
 4191POPC   C2B55220  39.450  18.412   6.429
 4191POPC   C3B55221  39.467  18.511   6.857
 4191POPC   C4B55222  39.581  18.286   7.179
 4192POPC   NC355223  42.435  19.671   5.404
 4192POPC   PO455224  42.421  20.351   5.390
 4192POPC   GL155225  42.377  20.055   5.737
 4192POPC   GL255226  42.011  19.975   5.735
 4192POPC   C1A55227  42.406  19.795   6.125
 4192POPC   D2A55228  42.323  19.515   6.487
 4192POPC   C3A55229  42.270  19.709   6.901
 4192POPC   C4A55230  42.555  19.680   7.239
 4192POPC   C1B55231  42.078  20.191   6.150
 4192POPC   C2B55232  42.264  20.106   6.545
 4192POPC   C3B55233  42.112  20.239   6.930
 4192POPC   C4B55234  42.214  20.077   7.309
 4193POPC   NC355235  35.141  24.835   5.614
 4193POPC   PO455236  34.449  24.724   5.443
 4193POPC   GL155237  34.689  24.611   5.779
 4193POPC   GL255238  34.906  24.271   5.758
 4193POPC   C1A55239  34.461  24.564   6.181
 4193POPC   D2A55240  34.541  24.287   6.550
 4193POPC   C3A55241  34.368  24.342   6.983
 4193POPC   C4A55242  34.433  24.652   7.330
 4193POPC   C1B55243  34.948  24.462   6.195
 4193POPC   C2B55244  34.774  24.746   6.558
 4193POPC   C3B55245  34.802  24.611   6.981
 4193POPC   C4B55246  34.876  24.371   7.384
 4194POPC   NC355247  17.453  20.990   5.720
 4194POPC   PO455248  17.710  20.543   5.288
 4194POPC   GL155249  17.513  20.430   5.725
 4194POPC   GL255250  17.150  20.524   5.765
 4194POPC   C1A55251  17.453  20.476   6.183
 4194POPC   D2A55252  17.607  20.713   6.557
 4194POPC   C3A55253  17.524  20.536   6.975
 4194POPC   C4A55254  17.604  20.851   7.286
 4194POPC   C1B55255  17.044  20.753   6.163
 4194POPC   C2B55256  17.080  20.550   6.555
 4194POPC   C3B55257  17.126  20.802   6.861
 4194POPC   C4B55258  17.032  20.865   7.241
 4195POPC   NC355259  36.578   4.249   5.569
 4195POPC   PO455260  37.227   4.090   5.503
 4195POPC   GL155261  37.002   4.026   5.855
 4195POPC   GL255262  36.722   3.783   5.799
 4195POPC   C1A55263  37.067   4.252   6.245
 4195POPC   D2A55264  37.051   4.115   6.655
 4195POPC   C3A55265  37.178   4.385   6.960
 4195POPC   C4A55266  37.084   4.229   7.316
 4195POPC   C1B55267  36.620   4.006   6.200
 4195POPC   C2B55268  36.584   4.330   6.541
 4195POPC   C3B55269  36.643   4.294   6.991
 4195POPC   C4B55270  36.660   3.890   7.188
 4196POPC   NC355271  19.528  26.120   5.405
 4196POPC   PO455272  19.988  25.721   5.774
 4196POPC   GL155273  19.618  25.900   5.923
 4196POPC   GL255274  19.309  25.672   5.879
 4196POPC   C1A55275  19.674  26.151   6.314
 4196POPC   D2A55276  19.551  26.360   6.704
 4196POPC   C3A55277  19.698  26.186   7.125
 4196POPC   C4A55278  19.772  26.046   7.558
 4196POPC   C1B55279  19.260  25.838   6.313
 4196POPC   C2B55280  19.404  25.855   6.776
 4196POPC   C3B55281  19.550  25.713   7.200
 4196POPC   C4B55282  19.471  25.581   7.659
 4197POPC   NC355283  15.211  23.790   5.513
 4197POPC   PO455284  14.630  23.494   5.298
 4197POPC   GL155285  14.820  23.445   5.766
 4197POPC   GL255286  15.184  23.391   5.823
 4197POPC   C1A55287  14.950  23.673   6.176
 4197POPC   D2A55288  15.173  23.857   6.514
 4197POPC   C3A55289  14.977  23.767   6.910
 4197POPC   C4A55290  14.749  23.802   7.262
 4197POPC   C1B55291  15.483  23.621   6.117
 4197POPC   C2B55292  15.653  23.604   6.527
 4197POPC   C3B55293  15.502  23.784   6.912
 4197POPC   C4B55294  15.381  23.566   7.258
 4198POPC   NC355295  35.178  44.729   5.365
 4198POPC   PO455296  35.780  44.699   5.642
 4198POPC   GL155297  35.498  44.627   5.946
 4198POPC   GL255298  35.206  44.507   5.819
 4198POPC   C1A55299  35.529  44.601   6.370
 4198POPC   D2A55300  35.574  44.308   6.675
 4198POPC   C3A55301  35.430  44.523   7.018
 4198POPC   C4A55302  35.185  44.761   7.267
 4198POPC   C1B55303  34.917  44.476   6.136
 4198POPC   C2B55304  35.050  44.479   6.528
 4198POPC   C3B55305  34.917  44.553   6.900
 4198POPC   C4B55306  34.852  44.346   7.255
 4199POPC   NC355307  17.038  33.908   5.372
 4199POPC   PO455308  16.373  33.798   5.373
 4199POPC   GL155309  16.630  33.684   5.749
 4199POPC   GL255310  17.012  33.622   5.800
 4199POPC   C1A55311  16.557  33.777   6.209
 4199POPC   D2A55312  16.655  33.539   6.566
 4199POPC   C3A55313  16.574  33.658   7.013
 4199POPC   C4A55314  16.650  34.034   7.255
 4199POPC   C1B55315  17.065  33.760   6.227
 4199POPC   C2B55316  17.017  33.882   6.676
 4199POPC   C3B55317  17.078  33.791   7.123
 4199POPC   C4B55318  17.095  33.998   7.539
 4200POPC   NC355319  16.385  26.768   5.246
 4200POPC   PO455320  17.016  26.867   5.274
 4200POPC   GL155321  17.076  26.656   5.718
 4200POPC   GL255322  16.759  26.505   5.872
 4200POPC   C1A55323  17.079  26.778   6.193
 4200POPC   D2A55324  16.997  27.051   6.584
 4200POPC   C3A55325  16.844  26.994   7.052
 4200POPC   C4A55326  17.051  26.897   7.470
 4200POPC   C1B55327  16.558  26.794   6.223
 4200POPC   C2B55328  16.486  26.971   6.658
 4200POPC   C3B55329  16.407  26.748   7.056
 4200POPC   C4B55330  16.703  26.455   7.279
 4201POPC   NC355331  32.664  29.181   5.241
 4201POPC   PO455332  32.078  29.055   5.313
 4201POPC   GL155333  32.190  29.169   5.712
 4201POPC   GL255334  32.163  28.810   5.810
 4201POPC   C1A55335  32.310  29.374   6.110
 4201POPC   D2A55336  32.370  29.538   6.531
 4201POPC   C3A55337  32.487  29.244   6.860
 4201POPC   C4A55338  32.178  29.138   7.159
 4201POPC   C1B55339  31.915  28.983   6.157
 4201POPC   C2B55340  31.802  29.072   6.596
 4201POPC   C3B55341  31.805  28.798   6.973
 4201POPC   C4B55342  32.159  28.624   7.198
 4202POPC   NC355343  10.029  44.479   5.597
 4202POPC   PO455344   9.563  44.935   5.426
 4202POPC   GL155345   9.549  44.654   5.791
 4202POPC   GL255346   9.823  44.813   5.924
 4202POPC   C1A55347   9.590  44.533   6.252
 4202POPC   D2A55348   9.461  44.490   6.647
 4202POPC   C3A55349   9.767  44.588   6.969
 4202POPC   C4A55350   9.886  44.658   7.385
 4202POPC   C1B55351  10.063  44.805   6.314
 4202POPC   C2B55352  10.253  44.743   6.717
 4202POPC   C3B55353  10.186  44.930   7.101
 4202POPC   C4B55354  10.200  44.992   7.590
 4203POPC   NC355355  28.543   9.648   5.267
 4203POPC   PO455356  28.210  10.163   5.443
 4203POPC   GL155357  28.294   9.780   5.765
 4203POPC   GL255358  28.589   9.523   5.767
 4203POPC   C1A55359  28.357   9.647   6.244
 4203POPC   D2A55360  28.105   9.872   6.567
 4203POPC   C3A55361  27.995   9.881   7.025
 4203POPC   C4A55362  28.189   9.597   7.347
 4203POPC   C1B55363  28.733   9.895   6.015
 4203POPC   C2B55364  28.710   9.938   6.476
 4203POPC   C3B55365  28.526   9.641   6.804
 4203POPC   C4B55366  28.668   9.465   7.222
 4204POPC   NC355367   3.008   8.260   5.484
 4204POPC   PO455368   2.279   8.301   5.435
 4204POPC   GL155369   2.472   8.287   5.869
 4204POPC   GL255370   2.811   8.147   5.940
 4204POPC   C1A55371   2.517   8.240   6.339
 4204POPC   D2A55372   2.771   8.361   6.688
 4204POPC   C3A55373   2.854   8.609   7.066
 4204POPC   C4A55374   3.321   8.622   7.132
 4204POPC   C1B55375   3.065   8.043   6.316
 4204POPC   C2B55376   2.951   7.869   6.735
 4204POPC   C3B55377   2.970   8.112   7.101
 4204POPC   C4B55378   2.665   8.192   7.379
 4205POPC   NC355379  21.687  20.548   5.183
 4205POPC   PO455380  21.544  21.158   5.484
 4205POPC   GL155381  21.668  20.741   5.691
 4205POPC   GL255382  21.345  20.675   5.771
 4205POPC   C1A55383  21.686  20.528   6.140
 4205POPC   D2A55384  21.612  20.687   6.574
 4205POPC   C3A55385  21.599  20.448   6.978
 4205POPC   C4A55386  21.570  20.429   7.416
 4205POPC   C1B55387  21.314  20.899   6.165
 4205POPC   C2B55388  21.133  20.924   6.562
 4205POPC   C3B55389  21.117  20.616   6.847
 4205POPC   C4B55390  21.061  20.582   7.263
 4206POPC   NC355391  28.387  14.019   5.203
 4206POPC   PO455392  28.230  13.522   5.662
 4206POPC   GL155393  28.321  13.629   6.045
 4206POPC   GL255394  28.152  13.971   6.054
 4206POPC   C1A55395  28.576  13.467   6.357
 4206POPC   D2A55396  28.649  13.765   6.636
 4206POPC   C3A55397  28.549  13.658   7.053
 4206POPC   C4A55398  28.598  13.599   7.503
 4206POPC   C1B55399  28.387  14.147   6.351
 4206POPC   C2B55400  28.235  14.025   6.721
 4206POPC   C3B55401  28.085  14.124   7.065
 4206POPC   C4B55402  28.450  14.084   7.330
 4207POPC   NC355403  31.114  35.245   5.625
 4207POPC   PO455404  30.504  35.397   5.297
 4207POPC   GL155405  30.640  35.452   5.743
 4207POPC   GL255406  30.943  35.707   5.807
 4207POPC   C1A55407  30.453  35.260   6.138
 4207POPC   D2A55408  30.389  35.048   6.554
 4207POPC   C3A55409  30.466  35.248   6.979
 4207POPC   C4A55410  30.728  35.477   7.318
 4207POPC   C1B55411  30.922  35.515   6.248
 4207POPC   C2B55412  30.907  35.378   6.702
 4207POPC   C3B55413  30.954  35.095   7.057
 4207POPC   C4B55414  31.055  35.139   7.534
 4208POPC   NC355415   4.835  12.293   5.263
 4208POPC   PO455416   5.452  12.136   5.268
 4208POPC   GL155417   5.195  12.149   5.640
 4208POPC   GL255418   4.974  11.856   5.719
 4208POPC   C1A55419   5.335  12.058   6.070
 4208POPC   D2A55420   5.327  11.792   6.453
 4208POPC   C3A55421   5.222  12.002   6.867
 4208POPC   C4A55422   5.008  12.403   7.041
 4208POPC   C1B55423   4.831  11.987   6.129
 4208POPC   C2B55424   4.691  12.102   6.546
 4208POPC   C3B55425   4.704  11.967   6.987
 4208POPC   C4B55426   4.987  11.974   7.332
 4209POPC   NC355427  11.458  25.709   5.529
 4209POPC   PO455428  11.197  26.397   5.472
 4209POPC   GL155429  11.310  26.127   5.827
 4209POPC   GL255430  11.055  25.848   5.868
 4209POPC   C1A55431  11.432  26.005   6.277
 4209POPC   D2A55432  11.182  25.930   6.690
 4209POPC   C3A55433  11.264  26.197   7.053
 4209POPC   C4A55434  11.672  26.402   7.077
 4209POPC   C1B55435  11.295  25.541   6.140
 4209POPC   C2B55436  11.503  25.536   6.554
 4209POPC   C3B55437  11.312  25.488   6.971
 4209POPC   C4B55438  11.139  25.709   7.311
 4210POPC   NC355439  10.517  22.022   5.491
 4210POPC   PO455440  10.305  22.620   5.500
 4210POPC   GL155441  10.552  22.430   5.835
 4210POPC   GL255442  10.607  22.075   5.980
 4210POPC   C1A55443  10.411  22.475   6.251
 4210POPC   D2A55444  10.595  22.641   6.631
 4210POPC   C3A55445  10.385  22.488   7.007
 4210POPC   C4A55446  10.466  22.076   7.172
 4210POPC   C1B55447  10.787  22.159   6.390
 4210POPC   C2B55448  10.821  22.218   6.829
 4210POPC   C3B55449  10.949  21.916   7.112
 4210POPC   C4B55450  10.886  21.742   7.525
 4211POPC   NC355451  31.891  26.305   5.409
 4211POPC   PO455452  32.521  26.053   5.383
 4211POPC   GL155453  32.240  26.093   5.718
 4211POPC   GL255454  32.071  25.802   5.839
 4211POPC   C1A55455  32.226  26.263   6.127
 4211POPC   D2A55456  32.219  26.122   6.559
 4211POPC   C3A55457  32.002  26.255   6.909
 4211POPC   C4A55458  32.040  26.168   7.356
 4211POPC   C1B55459  32.256  25.748   6.223
 4211POPC   C2B55460  32.085  25.640   6.637
 4211POPC   C3B55461  32.114  25.741   7.077
 4211POPC   C4B55462  31.871  25.713   7.515
 4212POPC   NC355463  16.216  31.586   5.304
 4212POPC   PO455464  15.763  31.175   5.461
 4212POPC   GL155465  15.930  31.451   5.793
 4212POPC   GL255466  15.863  31.784   5.699
 4212POPC   C1A55467  16.063  31.518   6.244
 4212POPC   D2A55468  15.940  31.388   6.671
 4212POPC   C3A55469  16.168  31.579   7.007
 4212POPC   C4A55470  16.263  31.561   7.444
 4212POPC   C1B55471  15.696  31.847   6.110
 4212POPC   C2B55472  15.797  31.888   6.549
 4212POPC   C3B55473  15.705  31.800   6.953
 4212POPC   C4B55474  15.850  31.973   7.346
 4213POPC   NC355475   6.216  40.276   5.530
 4213POPC   PO455476   6.341  39.641   5.631
 4213POPC   GL155477   6.032  39.826   5.881
 4213POPC   GL255478   5.708  39.826   5.729
 4213POPC   C1A55479   5.950  40.118   6.226
 4213POPC   D2A55480   6.156  40.292   6.582
 4213POPC   C3A55481   6.063  40.130   6.989
 4213POPC   C4A55482   6.132  40.017   7.411
 4213POPC   C1B55483   5.591  39.749   6.175
 4213POPC   C2B55484   5.762  39.774   6.631
 4213POPC   C3B55485   5.629  39.851   7.067
 4213POPC   C4B55486   5.657  40.226   7.333
 4214POPC   NC355487  39.367  14.236   5.364
 4214POPC   PO455488  38.794  14.180   5.422
 4214POPC   GL155489  39.105  14.239   5.800
 4214POPC   GL255490  39.431  14.413   5.886
 4214POPC   C1A55491  39.078  14.250   6.255
 4214POPC   D2A55492  39.011  14.012   6.624
 4214POPC   C3A55493  39.102  14.197   7.001
 4214POPC   C4A55494  39.238  14.486   7.313
 4214POPC   C1B55495  39.578  14.177   6.279
 4214POPC   C2B55496  39.516  14.020   6.710
 4214POPC   C3B55497  39.581  14.147   7.142
 4214POPC   C4B55498  39.284  13.999   7.458
 4215POPC   NC355499   4.207  33.600   5.225
 4215POPC   PO455500   4.496  34.153   5.583
 4215POPC   GL155501   4.300  33.873   5.827
 4215POPC   GL255502   4.630  33.854   6.008
 4215POPC   C1A55503   4.198  33.897   6.268
 4215POPC   D2A55504   4.443  34.095   6.599
 4215POPC   C3A55505   4.198  34.151   6.973
 4215POPC   C4A55506   3.965  33.807   7.174
 4215POPC   C1B55507   4.752  33.551   6.279
 4215POPC   C2B55508   4.539  33.484   6.654
 4215POPC   C3B55509   4.447  33.549   7.084
 4215POPC   C4B55510   4.666  33.454   7.466
 4216POPC   NC355511   1.748  23.335   5.583
 4216POPC   PO455512   2.019  23.844   5.200
 4216POPC   GL155513   2.058  23.732   5.667
 4216POPC   GL255514   2.232  23.423   5.713
 4216POPC   C1A55515   2.002  23.708   6.152
 4216POPC   D2A55516   1.727  23.593   6.528
 4216POPC   C3A55517   1.875  23.744   6.916
 4216POPC   C4A55518   2.037  24.068   7.187
 4216POPC   C1B55519   2.316  23.310   6.113
 4216POPC   C2B55520   2.229  23.459   6.542
 4216POPC   C3B55521   2.273  23.351   6.964
 4216POPC   C4B55522   2.139  23.574   7.316
 4217POPC   NC355523  37.455  35.076   5.172
 4217POPC   PO455524  37.015  35.287   5.644
 4217POPC   GL155525  36.800  35.314   5.983
 4217POPC   GL255526  36.588  35.644   5.937
 4217POPC   C1A55527  37.074  35.197   6.343
 4217POPC   D2A55528  37.402  35.077   6.643
 4217POPC   C3A55529  37.104  35.031   6.963
 4217POPC   C4A55530  36.825  35.237   7.220
 4217POPC   C1B55531  36.682  35.568   6.389
 4217POPC   C2B55532  36.794  35.451   6.761
 4217POPC   C3B55533  36.674  35.697   7.087
 4217POPC   C4B55534  36.609  35.646   7.473
 4218POPC   NC355535  12.525  15.388   5.424
 4218POPC   PO455536  12.941  14.799   5.459
 4218POPC   GL155537  12.923  15.113   5.795
 4218POPC   GL255538  13.171  14.967   6.008
 4218POPC   C1A55539  12.848  15.324   6.215
 4218POPC   D2A55540  12.622  15.310   6.616
 4218POPC   C3A55541  12.926  15.308   6.933
 4218POPC   C4A55542  12.994  15.353   7.334
 4218POPC   C1B55543  12.836  14.802   6.213
 4218POPC   C2B55544  12.962  14.920   6.602
 4218POPC   C3B55545  12.824  14.807   7.002
 4218POPC   C4B55546  12.592  15.055   7.265
 4219POPC   NC355547  26.883  29.250   5.402
 4219POPC   PO455548  26.252  29.001   5.362
 4219POPC   GL155549  26.525  29.130   5.786
 4219POPC   GL255550  26.820  29.348   5.887
 4219POPC   C1A55551  26.592  29.153   6.287
 4219POPC   D2A55552  26.526  29.258   6.761
 4219POPC   C3A55553  26.619  28.977   7.132
 4219POPC   C4A55554  26.759  29.066   7.574
 4219POPC   C1B55555  26.885  29.588   6.246
 4219POPC   C2B55556  27.011  29.437   6.653
 4219POPC   C3B55557  26.923  29.390   7.100
 4219POPC   C4B55558  27.188  29.322   7.443
 4220POPC   NC355559  25.181  13.933   5.396
 4220POPC   PO455560  25.155  14.578   5.528
 4220POPC   GL155561  25.211  14.261   5.790
 4220POPC   GL255562  25.551  14.187   5.660
 4220POPC   C1A55563  25.177  14.365   6.199
 4220POPC   D2A55564  25.203  14.644   6.560
 4220POPC   C3A55565  25.211  14.410   6.945
 4220POPC   C4A55566  25.163  14.690   7.291
 4220POPC   C1B55567  25.659  14.243   6.103
 4220POPC   C2B55568  25.506  14.200   6.542
 4220POPC   C3B55569  25.689  14.112   6.919
 4220POPC   C4B55570  25.611  14.348   7.265
 4221POPC   NC355571  30.130  33.599   5.258
 4221POPC   PO455572  29.486  33.574   5.395
 4221POPC   GL155573  29.726  33.641   5.738
 4221POPC   GL255574  29.961  33.902   5.639
 4221POPC   C1A55575  29.742  33.717   6.185
 4221POPC   D2A55576  29.780  33.430   6.534
 4221POPC   C3A55577  29.929  33.635   6.888
 4221POPC   C4A55578  29.707  33.827   7.212
 4221POPC   C1B55579  30.189  33.664   5.958
 4221POPC   C2B55580  30.232  33.718   6.415
 4221POPC   C3B55581  30.267  34.011   6.768
 4221POPC   C4B55582  30.207  33.951   7.212
 4222POPC   NC355583   9.568  28.721   5.195
 4222POPC   PO455584   9.879  28.101   5.442
 4222POPC   GL155585   9.784  28.320   5.823
 4222POPC   GL255586  10.057  28.559   5.936
 4222POPC   C1A55587   9.673  28.488   6.245
 4222POPC   D2A55588   9.797  28.541   6.640
 4222POPC   C3A55589   9.451  28.611   6.885
 4222POPC   C4A55590   9.519  28.750   7.293
 4222POPC   C1B55591  10.082  28.181   6.226
 4222POPC   C2B55592   9.894  28.045   6.627
 4222POPC   C3B55593   9.762  28.190   7.018
 4222POPC   C4B55594   9.800  28.368   7.448
 4223POPC   NC355595  36.470  40.952   5.391
 4223POPC   PO455596  35.897  40.762   5.576
 4223POPC   GL155597  36.057  40.918   5.935
 4223POPC   GL255598  36.379  40.819   5.902
 4223POPC   C1A55599  35.919  40.968   6.346
 4223POPC   D2A55600  35.799  40.669   6.640
 4223POPC   C3A55601  36.047  40.752   6.949
 4223POPC   C4A55602  36.036  41.055   7.240
 4223POPC   C1B55603  36.457  40.767   6.357
 4223POPC   C2B55604  36.675  40.448   6.585
 4223POPC   C3B55605  36.478  40.428   6.972
 4223POPC   C4B55606  36.446  40.752   7.251
 4224POPC   NC355607   2.464  30.542   5.438
 4224POPC   PO455608   1.758  30.731   5.278
 4224POPC   GL155609   2.014  30.724   5.740
 4224POPC   GL255610   2.112  31.053   5.842
 4224POPC   C1A55611   2.047  30.779   6.275
 4224POPC   D2A55612   1.883  30.863   6.753
 4224POPC   C3A55613   1.943  30.552   7.089
 4224POPC   C4A55614   2.296  30.260   7.176
 4224POPC   C1B55615   2.370  31.186   6.211
 4224POPC   C2B55616   2.440  31.104   6.654
 4224POPC   C3B55617   2.325  30.928   7.046
 4224POPC   C4B55618   2.015  31.083   7.296
 4225POPC   NC355619  11.596   0.163   5.574
 4225POPC   PO455620  12.301   0.381   5.476
 4225POPC   GL155621  12.160   0.231   5.853
 4225POPC   GL255622  11.907   0.492   5.867
 4225POPC   C1A55623  12.151   0.343   6.296
 4225POPC   D2A55624  12.418   0.500   6.596
 4225POPC   C3A55625  12.187   0.541   6.978
 4225POPC   C4A55626  12.262   0.200   7.256
 4225POPC   C1B55627  11.725   0.644   6.253
 4225POPC   C2B55628  11.810   0.709   6.683
 4225POPC   C3B55629  11.713   0.770   7.107
 4225POPC   C4B55630  11.898   0.513   7.409
 4226POPC   NC355631  26.900   2.136   5.389
 4226POPC   PO455632  27.272   1.698   5.655
 4226POPC   GL155633  26.945   1.953   5.867
 4226POPC   GL255634  26.650   1.767   5.878
 4226POPC   C1A55635  26.821   2.240   6.213
 4226POPC   D2A55636  26.981   2.291   6.648
 4226POPC   C3A55637  26.684   2.261   7.006
 4226POPC   C4A55638  26.852   2.135   7.432
 4226POPC   C1B55639  26.835   1.734   6.332
 4226POPC   C2B55640  26.869   1.692   6.789
 4226POPC   C3B55641  26.607   1.782   7.134
 4226POPC   C4B55642  26.321   2.051   7.394
 4227POPC   NC355643   7.217  37.080   5.027
 4227POPC   PO455644   7.481  36.536   5.376
 4227POPC   GL155645   7.643  36.784   5.777
 4227POPC   GL255646   7.967  36.626   5.865
 4227POPC   C1A55647   7.567  36.999   6.204
 4227POPC   D2A55648   7.358  37.182   6.597
 4227POPC   C3A55649   7.518  37.031   7.012
 4227POPC   C4A55650   7.490  36.678   7.289
 4227POPC   C1B55651   7.914  36.609   6.293
 4227POPC   C2B55652   7.673  36.704   6.659
 4227POPC   C3B55653   7.931  36.687   7.031
 4227POPC   C4B55654   7.984  36.622   7.473
 4228POPC   NC355655   1.415   2.847   5.571
 4228POPC   PO455656   1.219   2.260   5.251
 4228POPC   GL155657   1.209   2.398   5.719
 4228POPC   GL255658   0.936   2.639   5.653
 4228POPC   C1A55659   1.416   2.595   6.156
 4228POPC   D2A55660   1.556   2.836   6.527
 4228POPC   C3A55661   1.376   2.675   6.893
 4228POPC   C4A55662   1.151   2.689   7.301
 4228POPC   C1B55663   0.914   2.764   6.080
 4228POPC   C2B55664   0.784   2.964   6.463
 4228POPC   C3B55665   0.916   2.908   6.871
 4228POPC   C4B55666   0.929   3.147   7.234
 4229POPC   NC355667   0.066  25.338   5.715
 4229POPC   PO455668  44.505  25.599   5.432
 4229POPC   GL155669  44.568  25.442   5.840
 4229POPC   GL255670  44.799  25.678   6.009
 4229POPC   C1A55671  44.561  25.135   6.169
 4229POPC   D2A55672  44.414  25.275   6.554
 4229POPC   C3A55673  44.692  25.166   6.818
 4229POPC   C4A55674  44.618  24.966   7.153
 4229POPC   C1B55675  44.863  25.484   6.416
 4229POPC   C2B55676   0.193  25.221   6.621
 4229POPC   C3B55677   0.131  25.231   7.073
 4229POPC   C4B55678  44.797  25.462   7.292
 4230POPC   NC355679  43.303  44.117   5.391
 4230POPC   PO455680  42.815  43.721   5.637
 4230POPC   GL155681  43.098  44.029   5.841
 4230POPC   GL255682  42.876  44.267   5.889
 4230POPC   C1A55683  43.388  44.040   6.219
 4230POPC   D2A55684  43.352  43.679   6.495
 4230POPC   C3A55685  43.209  43.666   6.929
 4230POPC   C4A55686  43.471  43.643   7.307
 4230POPC   C1B55687  42.895  44.077   6.311
 4230POPC   C2B55688  43.094  44.175   6.696
 4230POPC   C3B55689  42.913  44.145   7.100
 4230POPC   C4B55690  42.951  43.842   7.354
 4231POPC   NC355691  19.778  30.928   5.597
 4231POPC   PO455692  20.333  30.503   5.406
 4231POPC   GL155693  20.066  30.519   5.828
 4231POPC   GL255694  19.652  30.538   5.930
 4231POPC   C1A55695  20.259  30.577   6.270
 4231POPC   D2A55696  20.298  30.557   6.746
 4231POPC   C3A55697  19.950  30.661   7.020
 4231POPC   C4A55698  20.103  31.024   7.225
 4231POPC   C1B55699  19.342  30.851   6.193
 4231POPC   C2B55700  19.359  31.060   6.632
 4231POPC   C3B55701  19.397  30.954   7.092
 4231POPC   C4B55702  19.655  30.834   7.457
 4232POPC   NC355703  10.195  20.338   5.458
 4232POPC   PO455704  10.673  20.746   5.446
 4232POPC   GL155705  10.422  20.650   5.793
 4232POPC   GL255706  10.283  20.927   5.946
 4232POPC   C1A55707  10.329  20.500   6.198
 4232POPC   D2A55708  10.628  20.608   6.498
 4232POPC   C3A55709  10.478  20.625   6.878
 4232POPC   C4A55710  10.420  20.400   7.222
 4232POPC   C1B55711  10.680  21.019   6.158
 4232POPC   C2B55712  10.826  21.098   6.582
 4232POPC   C3B55713  10.613  21.122   6.923
 4232POPC   C4B55714  10.501  20.973   7.280
 4233POPC   NC355715  18.258   5.256   5.114
 4233POPC   PO455716  18.466   4.659   5.600
 4233POPC   GL155717  18.243   4.965   5.927
 4233POPC   GL255718  18.131   5.340   5.795
 4233POPC   C1A55719  18.026   5.038   6.246
 4233POPC   D2A55720  17.944   4.730   6.506
 4233POPC   C3A55721  18.325   4.825   6.683
 4233POPC   C4A55722  18.270   5.046   7.042
 4233POPC   C1B55723  18.283   5.468   6.179
 4233POPC   C2B55724  18.272   5.412   6.625
 4233POPC   C3B55725  18.320   5.559   7.062
 4233POPC   C4B55726  17.989   5.386   7.323
 4234POPC   NC355727   2.993   0.941   5.365
 4234POPC   PO455728   3.690   0.767   5.545
 4234POPC   GL155729   3.613   0.946   5.917
 4234POPC   GL255730   3.337   1.122   5.752
 4234POPC   C1A55731   3.779   1.146   6.321
 4234POPC   D2A55732   3.811   1.343   6.754
 4234POPC   C3A55733   3.589   1.058   7.060
 4234POPC   C4A55734   3.124   1.029   7.187
 4234POPC   C1B55735   3.225   1.239   6.182
 4234POPC   C2B55736   3.303   1.269   6.633
 4234POPC   C3B55737   3.377   1.511   7.009
 4234POPC   C4B55738   3.161   1.526   7.397
 4235POPC   NC355739   1.759  24.128   5.454
 4235POPC   PO455740   1.933  24.778   5.548
 4235POPC   GL155741   2.038  24.803   5.997
 4235POPC   GL255742   2.406  24.790   5.996
 4235POPC   C1A55743   1.843  24.631   6.422
 4235POPC   D2A55744   1.698  24.209   6.630
 4235POPC   C3A55745   1.594  24.273   7.062
 4235POPC   C4A55746   1.704  24.570   7.399
 4235POPC   C1B55747   2.311  24.435   6.305
 4235POPC   C2B55748   2.207  24.298   6.738
 4235POPC   C3B55749   2.060  24.583   7.048
 4235POPC   C4B55750   2.203  24.835   7.411
 4236POPC   NC355751  41.640  44.436   5.334
 4236POPC   PO455752  41.294   0.064   5.239
 4236POPC   GL155753  41.349  44.802   5.627
 4236POPC   GL255754  41.104  44.501   5.624
 4236POPC   C1A55755  41.580  44.889   6.044
 4236POPC   D2A55756  41.806  44.955   6.442
 4236POPC   C3A55757  41.593  44.880   6.841
 4236POPC   C4A55758  41.676  44.573   7.209
 4236POPC   C1B55759  41.282  44.465   6.041
 4236POPC   C2B55760  41.320  44.640   6.449
 4236POPC   C3B55761  41.353  44.417   6.840
 4236POPC   C4B55762  41.254  44.284   7.256
 4237POPC   NC355763  44.277  25.120   5.530
 4237POPC   PO455764  43.626  25.167   5.637
 4237POPC   GL155765  43.675  25.480   5.920
 4237POPC   GL255766  44.012  25.546   5.746
 4237POPC   C1A55767  43.634  25.441   6.381
 4237POPC   D2A55768  43.954  25.452   6.712
 4237POPC   C3A55769  43.798  25.296   7.122
 4237POPC   C4A55770  43.598  25.350   7.512
 4237POPC   C1B55771  44.102  25.368   6.158
 4237POPC   C2B55772  43.992  25.007   6.448
 4237POPC   C3B55773  44.143  24.973   6.893
 4237POPC   C4B55774  44.136  24.966   7.367
 4238POPC   NC355775  26.374  32.177   5.347
 4238POPC   PO455776  25.702  32.360   5.116
 4238POPC   GL155777  25.945  32.268   5.562
 4238POPC   GL255778  26.005  31.919   5.678
 4238POPC   C1A55779  26.175  32.303   5.985
 4238POPC   D2A55780  26.109  32.415   6.433
 4238POPC   C3A55781  26.431  32.444   6.765
 4238POPC   C4A55782  26.265  32.418   7.168
 4238POPC   C1B55783  25.793  31.968   6.111
 4238POPC   C2B55784  25.941  31.918   6.550
 4238POPC   C3B55785  25.904  32.160   6.927
 4238POPC   C4B55786  25.784  32.052   7.357
 4239POPC   NC355787  25.613  35.317   5.457
 4239POPC   PO455788  24.863  35.512   5.441
 4239POPC   GL155789  25.038  35.339   5.821
 4239POPC   GL255790  24.802  35.109   5.915
 4239POPC   C1A55791  25.233  35.504   6.227
 4239POPC   D2A55792  25.491  35.459   6.633
 4239POPC   C3A55793  25.384  35.191   7.014
 4239POPC   C4A55794  25.454  35.172   7.473
 4239POPC   C1B55795  24.894  35.126   6.305
 4239POPC   C2B55796  25.011  35.289   6.662
 4239POPC   C3B55797  24.872  35.119   7.027
 4239POPC   C4B55798  24.992  35.349   7.312
 4240POPC   NC355799  19.333  19.427   5.360
 4240POPC   PO455800  19.170  20.076   5.518
 4240POPC   GL155801  19.060  19.716   5.729
 4240POPC   GL255802  19.399  19.650   5.828
 4240POPC   C1A55803  18.851  19.757   6.134
 4240POPC   D2A55804  18.933  19.831   6.572
 4240POPC   C3A55805  19.179  20.055   6.874
 4240POPC   C4A55806  18.812  20.111   7.164
 4240POPC   C1B55807  19.350  19.681   6.254
 4240POPC   C2B55808  19.267  19.452   6.621
 4240POPC   C3B55809  19.141  19.556   6.990
 4240POPC   C4B55810  19.404  19.542   7.286
 4241POPC   NC355811  29.629  34.420   5.532
 4241POPC   PO455812  30.082  34.805   5.295
 4241POPC   GL155813  30.149  34.669   5.750
 4241POPC   GL255814  30.236  34.310   5.774
 4241POPC   C1A55815  30.222  34.664   6.204
 4241POPC   D2A55816  30.163  34.501   6.618
 4241POPC   C3A55817  30.046  34.812   6.904
 4241POPC   C4A55818  29.774  34.698   7.273
 4241POPC   C1B55819  30.060  34.146   6.186
 4241POPC   C2B55820  29.788  34.061   6.580
 4241POPC   C3B55821  29.845  34.268   6.985
 4241POPC   C4B55822  30.242  34.442   7.170
 4242POPC   NC355823  34.211  40.105   5.547
 4242POPC   PO455824  34.859  39.856   5.366
 4242POPC   GL155825  34.840  39.995   5.798
 4242POPC   GL255826  34.537  39.814   5.888
 4242POPC   C1A55827  34.867  40.089   6.255
 4242POPC   D2A55828  34.678  39.955   6.651
 4242POPC   C3A55829  34.461  40.226   6.894
 4242POPC   C4A55830  34.789  40.259   7.169
 4242POPC   C1B55831  34.525  39.628   6.306
 4242POPC   C2B55832  34.316  39.599   6.736
 4242POPC   C3B55833  34.489  39.770   7.116
 4242POPC   C4B55834  34.438  40.002   7.482
 4243POPC   NC355835  12.061  29.766   5.418
 4243POPC   PO455836  11.843  30.450   5.391
 4243POPC   GL155837  11.873  30.116   5.729
 4243POPC   GL255838  12.068  30.323   5.902
 4243POPC   C1A55839  11.914  29.730   6.070
 4243POPC   D2A55840  11.837  29.554   6.527
 4243POPC   C3A55841  11.979  29.797   6.903
 4243POPC   C4A55842  12.012  29.910   7.352
 4243POPC   C1B55843  11.798  30.184   6.248
 4243POPC   C2B55844  11.996  30.266   6.616
 4243POPC   C3B55845  11.909  30.282   7.014
 4243POPC   C4B55846  11.582  30.193   7.271
 4244POPC   NC355847   0.540  28.186   5.326
 4244POPC   PO455848   0.009  28.068   5.698
 4244POPC   GL155849   0.339  28.371   5.776
 4244POPC   GL255850   0.693  28.244   5.812
 4244POPC   C1A55851   0.369  28.521   6.185
 4244POPC   D2A55852   0.158  28.372   6.544
 4244POPC   C3A55853   0.233  28.514   6.922
 4244POPC   C4A55854   0.253  28.283   7.283
 4244POPC   C1B55855   0.863  28.405   6.225
 4244POPC   C2B55856   0.669  28.414   6.622
 4244POPC   C3B55857   0.540  28.109   6.898
 4244POPC   C4B55858   0.748  28.007   7.288
 4245POPC   NC355859  33.915  41.704   5.443
 4245POPC   PO455860  33.435  41.241   5.571
 4245POPC   GL155861  33.522  41.540   5.943
 4245POPC   GL255862  33.848  41.712   5.936
 4245POPC   C1A55863  33.616  41.457   6.398
 4245POPC   D2A55864  33.982  41.228   6.615
 4245POPC   C3A55865  33.999  41.401   7.003
 4245POPC   C4A55866  33.650  41.399   7.218
 4245POPC   C1B55867  34.112  41.570   6.228
 4245POPC   C2B55868  34.011  41.739   6.593
 4245POPC   C3B55869  33.677  41.780   6.855
 4245POPC   C4B55870  33.857  41.844   7.261
 4246POPC   NC355871  22.422  18.756   5.344
 4246POPC   PO455872  22.071  19.365   5.302
 4246POPC   GL155873  22.276  19.190   5.698
 4246POPC   GL255874  22.208  18.855   5.787
 4246POPC   C1A55875  22.202  19.179   6.176
 4246POPC   D2A55876  21.908  18.958   6.469
 4246POPC   C3A55877  21.953  19.131   6.885
 4246POPC   C4A55878  22.178  19.164   7.267
 4246POPC   C1B55879  22.401  18.728   6.186
 4246POPC   C2B55880  22.317  18.732   6.667
 4246POPC   C3B55881  22.150  18.688   7.110
 4246POPC   C4B55882  22.352  18.752   7.541
 4247POPC   NC355883   3.711   0.308   5.423
 4247POPC   PO455884   3.113   0.446   5.058
 4247POPC   GL155885   3.236   0.605   5.637
 4247POPC   GL255886   3.436   0.381   5.832
 4247POPC   C1A55887   3.213   0.711   6.135
 4247POPC   D2A55888   3.134   0.539   6.581
 4247POPC   C3A55889   3.378   0.595   6.975
 4247POPC   C4A55890   3.472   0.673   7.430
 4247POPC   C1B55891   3.250   0.195   6.199
 4247POPC   C2B55892   3.392   0.094   6.632
 4247POPC   C3B55893   3.709   0.195   6.881
 4247POPC   C4B55894   3.648   0.237   7.284
 4248POPC   NC355895  24.753  10.786   5.589
 4248POPC   PO455896  24.328  10.271   5.581
 4248POPC   GL155897  24.282  10.569   5.892
 4248POPC   GL255898  24.555  10.719   6.039
 4248POPC   C1A55899  24.121  10.601   6.307
 4248POPC   D2A55900  24.219  10.582   6.737
 4248POPC   C3A55901  24.160  10.352   7.106
 4248POPC   C4A55902  24.159  10.334   7.581
 4248POPC   C1B55903  24.617  10.351   6.259
 4248POPC   C2B55904  24.734  10.501   6.678
 4248POPC   C3B55905  24.606  10.632   7.086
 4248POPC   C4B55906  24.644  10.294   7.300
 4249POPC   NC355907  36.243  21.791   5.475
 4249POPC   PO455908  35.756  22.056   5.494
 4249POPC   GL155909  36.160  22.156   5.836
 4249POPC   GL255910  36.416  21.856   5.934
 4249POPC   C1A55911  36.280  22.414   6.259
 4249POPC   D2A55912  36.278  22.607   6.742
 4249POPC   C3A55913  36.293  22.295   7.108
 4249POPC   C4A55914  36.296  22.093   7.545
 4249POPC   C1B55915  36.552  21.626   6.314
 4249POPC   C2B55916  36.474  21.853   6.718
 4249POPC   C3B55917  36.374  21.770   7.146
 4249POPC   C4B55918  36.297  21.566   7.556
 4250POPC   NC355919  28.098  10.614   5.352
 4250POPC   PO455920  28.803  10.833   5.260
 4250POPC   GL155921  28.607  10.691   5.701
 4250POPC   GL255922  28.564  10.325   5.764
 4250POPC   C1A55923  28.421  10.770   6.148
 4250POPC   D2A55924  28.135  10.789   6.530
 4250POPC   C3A55925  28.268  10.822   6.926
 4250POPC   C4A55926  28.186  10.715   7.351
 4250POPC   C1B55927  28.314  10.191   6.143
 4250POPC   C2B55928  28.375  10.344   6.563
 4250POPC   C3B55929  28.268  10.313   6.990
 4250POPC   C4B55930  28.498   9.988   7.167
 4251POPC   NC355931  29.247  18.006   5.599
 4251POPC   PO455932  28.803  18.415   5.374
 4251POPC   GL155933  29.021  18.445   5.800
 4251POPC   GL255934  28.941  18.101   5.982
 4251POPC   C1A55935  28.854  18.530   6.234
 4251POPC   D2A55936  28.732  18.160   6.461
 4251POPC   C3A55937  28.751  18.208   6.872
 4251POPC   C4A55938  29.072  18.139   7.112
 4251POPC   C1B55939  29.261  18.235   6.284
 4251POPC   C2B55940  29.151  18.453   6.679
 4251POPC   C3B55941  29.419  18.476   7.061
 4251POPC   C4B55942  29.558  18.059   7.216
 4252POPC   NC355943  37.946  10.125   5.460
 4252POPC   PO455944  37.494  10.687   5.375
 4252POPC   GL155945  37.625  10.405   5.717
 4252POPC   GL255946  37.978  10.498   5.801
 4252POPC   C1A55947  37.646  10.316   6.174
 4252POPC   D2A55948  37.462  10.353   6.599
 4252POPC   C3A55949  37.676  10.215   7.001
 4252POPC   C4A55950  38.086  10.360   7.152
 4252POPC   C1B55951  38.006  10.693   6.194
 4252POPC   C2B55952  37.718  10.812   6.470
 4252POPC   C3B55953  37.748  10.713   6.878
 4252POPC   C4B55954  37.681  10.893   7.245
 4253POPC   NC355955  14.385  31.179   5.802
 4253POPC   PO455956  14.452  30.655   5.460
 4253POPC   GL155957  14.198  30.681   5.833
 4253POPC   GL255958  13.967  30.436   5.805
 4253POPC   C1A55959  14.264  30.663   6.297
 4253POPC   D2A55960  14.589  30.706   6.640
 4253POPC   C3A55961  14.457  30.870   7.050
 4253POPC   C4A55962  14.578  31.127   7.426
 4253POPC   C1B55963  14.044  30.220   6.164
 4253POPC   C2B55964  13.858  30.243   6.537
 4253POPC   C3B55965  13.964  30.245   6.936
 4253POPC   C4B55966  14.022  30.505   7.278
 4254POPC   NC355967  25.560  23.040   5.282
 4254POPC   PO455968  24.976  22.919   5.335
 4254POPC   GL155969  25.193  22.956   5.774
 4254POPC   GL255970  25.485  22.766   5.751
 4254POPC   C1A55971  25.271  22.866   6.283
 4254POPC   D2A55972  25.252  22.731   6.765
 4254POPC   C3A55973  25.074  22.929   7.169
 4254POPC   C4A55974  25.005  22.981   7.660
 4254POPC   C1B55975  25.729  22.993   6.068
 4254POPC   C2B55976  25.700  23.160   6.501
 4254POPC   C3B55977  25.611  23.050   6.935
 4254POPC   C4B55978  25.633  22.631   7.137
 4255POPC   NC355979  18.876  33.350   5.157
 4255POPC   PO455980  18.197  33.051   5.261
 4255POPC   GL155981  18.349  33.001   5.709
 4255POPC   GL255982  18.021  32.895   5.751
 4255POPC   C1A55983  18.448  33.116   6.138
 4255POPC   D2A55984  18.605  33.047   6.568
 4255POPC   C3A55985  18.359  33.255   6.887
 4255POPC   C4A55986  18.217  33.370   7.273
 4255POPC   C1B55987  18.146  32.698   6.133
 4255POPC   C2B55988  18.134  32.900   6.516
 4255POPC   C3B55989  18.297  32.764   6.903
 4255POPC   C4B55990  18.103  32.849   7.298
 4256POPC   NC355991   3.778  16.897   5.429
 4256POPC   PO455992   3.488  16.263   5.368
 4256POPC   GL155993   3.480  16.444   5.789
 4256POPC   GL255994   3.401  16.811   5.851
 4256POPC   C1A55995   3.723  16.471   6.197
 4256POPC   D2A55996   3.659  16.257   6.616
 4256POPC   C3A55997   3.357  16.494   6.854
 4256POPC   C4A55998   3.357  16.596   7.280
 4256POPC   C1B55999   3.472  17.141   6.203
 4256POPC   C2B56000   3.568  17.202   6.663
 4256POPC   C3B56001   3.661  16.925   7.041
 4256POPC   C4B56002   3.698  16.902   7.507
 4257POPC   NC356003   2.597  36.442   5.459
 4257POPC   PO456004   3.053  36.140   5.118
 4257POPC   GL156005   2.966  36.163   5.645
 4257POPC   GL256006   2.756  35.906   5.815
 4257POPC   C1A56007   2.810  36.297   6.101
 4257POPC   D2A56008   2.986  36.318   6.525
 4257POPC   C3A56009   2.839  36.277   6.959
 4257POPC   C4A56010   3.045  36.349   7.347
 4257POPC   C1B56011   2.524  35.853   6.189
 4257POPC   C2B56012   2.555  36.026   6.604
 4257POPC   C3B56013   2.580  35.847   7.025
 4257POPC   C4B56014   2.393  35.948   7.420
 4258POPC   NC356015   4.091  34.373   5.638
 4258POPC   PO456016   4.537  34.728   5.263
 4258POPC   GL156017   4.417  34.773   5.744
 4258POPC   GL256018   4.088  34.781   5.939
 4258POPC   C1A56019   4.517  34.725   6.232
 4258POPC   D2A56020   4.459  34.593   6.700
 4258POPC   C3A56021   4.545  34.899   7.033
 4258POPC   C4A56022   4.194  35.144   7.180
 4258POPC   C1B56023   4.083  34.454   6.312
 4258POPC   C2B56024   3.934  34.559   6.725
 4258POPC   C3B56025   3.950  34.587   7.165
 4258POPC   C4B56026   3.997  34.248   7.478
 4259POPC   NC356027   9.955  33.663   5.346
 4259POPC   PO456028   9.408  34.069   5.446
 4259POPC   GL156029   9.623  33.860   5.782
 4259POPC   GL256030   9.970  33.998   5.786
 4259POPC   C1A56031   9.688  33.903   6.248
 4259POPC   D2A56032   9.496  33.867   6.680
 4259POPC   C3A56033   9.622  33.755   7.109
 4259POPC   C4A56034   9.979  33.573   7.307
 4259POPC   C1B56035  10.005  34.315   6.143
 4259POPC   C2B56036   9.851  34.260   6.576
 4259POPC   C3B56037   9.999  34.071   6.988
 4259POPC   C4B56038   9.882  34.052   7.452
 4260POPC   NC356039  12.681   2.611   5.484
 4260POPC   PO456040  13.089   3.267   5.397
 4260POPC   GL156041  13.121   2.945   5.722
 4260POPC   GL256042  12.787   2.984   5.841
 4260POPC   C1A56043  13.140   2.708   6.134
 4260POPC   D2A56044  13.003   2.501   6.551
 4260POPC   C3A56045  13.127   2.730   6.961
 4260POPC   C4A56046  13.076   2.866   7.406
 4260POPC   C1B56047  12.710   2.969   6.275
 4260POPC   C2B56048  12.447   2.724   6.539
 4260POPC   C3B56049  12.635   2.615   6.897
 4260POPC   C4B56050  12.676   2.984   7.125
 4261POPC   NC356051  28.038  31.175   5.471
 4261POPC   PO456052  27.249  31.350   5.508
 4261POPC   GL156053  27.433  31.523   5.882
 4261POPC   GL256054  27.729  31.549   5.680
 4261POPC   C1A56055  27.448  31.370   6.340
 4261POPC   D2A56056  27.441  31.030   6.659
 4261POPC   C3A56057  27.280  31.149   7.047
 4261POPC   C4A56058  27.356  31.512   7.305
 4261POPC   C1B56059  27.885  31.363   6.086
 4261POPC   C2B56060  27.913  31.482   6.533
 4261POPC   C3B56061  27.764  31.385   6.966
 4261POPC   C4B56062  28.087  31.291   7.262
 4262POPC   NC356063   9.345  14.039   5.624
 4262POPC   PO456064   9.892  13.736   5.354
 4262POPC   GL156065   9.837  13.571   5.803
 4262POPC   GL256066   9.616  13.275   5.883
 4262POPC   C1A56067   9.926  13.402   6.235
 4262POPC   D2A56068   9.682  13.440   6.602
 4262POPC   C3A56069   9.890  13.762   6.768
 4262POPC   C4A56070  10.057  13.771   7.134
 4262POPC   C1B56071   9.476  13.647   6.156
 4262POPC   C2B56072   9.288  13.773   6.574
 4262POPC   C3B56073   9.421  13.742   6.989
 4262POPC   C4B56074   9.654  13.410   7.129
 4263POPC   NC356075  15.586   0.349   5.468
 4263POPC   PO456076  16.167   0.682   5.402
 4263POPC   GL156077  16.103   0.455   5.763
 4263POPC   GL256078  15.802   0.587   5.884
 4263POPC   C1A56079  16.198   0.253   6.159
 4263POPC   D2A56080  16.240   0.418   6.569
 4263POPC   C3A56081  16.237   0.138   6.926
 4263POPC   C4A56082  16.171   0.379   7.293
 4263POPC   C1B56083  15.680   0.235   6.163
 4263POPC   C2B56084  15.826   0.107   6.581
 4263POPC   C3B56085  15.812   0.409   6.919
 4263POPC   C4B56086  15.642   0.421   7.317
 4264POPC   NC356087  29.587   2.691   5.074
 4264POPC   PO456088  30.037   3.116   5.205
 4264POPC   GL156089  29.989   2.851   5.614
 4264POPC   GL256090  30.096   3.057   5.895
 4264POPC   C1A56091  29.763   2.694   6.028
 4264POPC   D2A56092  29.844   2.495   6.443
 4264POPC   C3A56093  29.710   2.640   6.901
 4264POPC   C4A56094  29.667   2.403   7.293
 4264POPC   C1B56095  29.972   3.061   6.350
 4264POPC   C2B56096  29.909   3.157   6.800
 4264POPC   C3B56097  30.130   3.047   7.174
 4264POPC   C4B56098  30.065   3.113   7.637
 4265POPC   NC356099  37.581   4.002   5.219
 4265POPC   PO456100  37.570   3.355   5.437
 4265POPC   GL156101  37.649   3.536   5.850
 4265POPC   GL256102  37.631   3.888   5.745
 4265POPC   C1A56103  37.706   3.483   6.322
 4265POPC   D2A56104  37.656   3.162   6.667
 4265POPC   C3A56105  37.707   3.279   7.094
 4265POPC   C4A56106  37.903   3.672   7.180
 4265POPC   C1B56107  37.405   3.883   6.141
 4265POPC   C2B56108  37.524   3.955   6.535
 4265POPC   C3B56109  37.556   3.672   6.806
 4265POPC   C4B56110  37.288   3.617   7.122
 4266POPC   NC356111   0.845  31.539   5.393
 4266POPC   PO456112   1.487  31.445   5.425
 4266POPC   GL156113   1.340  31.494   5.807
 4266POPC   GL256114   1.038  31.621   5.847
 4266POPC   C1A56115   1.455  31.494   6.213
 4266POPC   D2A56116   1.435  31.742   6.546
 4266POPC   C3A56117   1.299  31.513   6.889
 4266POPC   C4A56118   1.209  31.405   7.312
 4266POPC   C1B56119   0.948  31.640   6.265
 4266POPC   C2B56120   0.818  31.511   6.656
 4266POPC   C3B56121   0.850  31.702   7.050
 4266POPC   C4B56122   0.973  31.839   7.462
 4267POPC   NC356123  24.418   9.865   5.388
 4267POPC   PO456124  24.803   9.383   5.659
 4267POPC   GL156125  24.607   9.676   5.873
 4267POPC   GL256126  24.738   9.992   5.800
 4267POPC   C1A56127  24.413   9.837   6.260
 4267POPC   D2A56128  24.383  10.110   6.632
 4267POPC   C3A56129  24.444   9.927   7.015
 4267POPC   C4A56130  24.267   9.567   7.182
 4267POPC   C1B56131  24.920   9.872   6.219
 4267POPC   C2B56132  24.827   9.537   6.522
 4267POPC   C3B56133  24.694   9.438   6.939
 4267POPC   C4B56134  24.838   9.733   7.260
 4268POPC   NC356135  42.712  22.222   5.437
 4268POPC   PO456136  42.222  21.806   5.213
 4268POPC   GL156137  42.307  22.002   5.654
 4268POPC   GL256138  42.655  21.829   5.775
 4268POPC   C1A56139  42.144  22.319   6.007
 4268POPC   D2A56140  42.037  22.115   6.424
 4268POPC   C3A56141  42.278  22.052   6.795
 4268POPC   C4A56142  42.188  22.192   7.171
 4268POPC   C1B56143  42.586  22.118   6.121
 4268POPC   C2B56144  42.518  22.360   6.482
 4268POPC   C3B56145  42.657  22.383   6.943
 4268POPC   C4B56146  42.670  22.009   7.224
 4269POPC   NC356147  30.528   4.913   5.344
 4269POPC   PO456148  31.189   5.130   5.417
 4269POPC   GL156149  30.926   4.926   5.683
 4269POPC   GL256150  30.674   5.195   5.748
 4269POPC   C1A56151  30.981   4.693   6.056
 4269POPC   D2A56152  30.970   4.810   6.465
 4269POPC   C3A56153  30.954   4.872   6.901
 4269POPC   C4A56154  31.080   5.233   7.096
 4269POPC   C1B56155  30.677   5.110   6.183
 4269POPC   C2B56156  30.522   5.003   6.639
 4269POPC   C3B56157  30.544   5.068   7.119
 4269POPC   C4B56158  30.466   5.430   7.378
 4270POPC   NC356159   4.050  27.381   5.452
 4270POPC   PO456160   4.533  27.779   5.463
 4270POPC   GL156161   4.337  27.640   5.817
 4270POPC   GL256162   4.359  27.261   5.833
 4270POPC   C1A56163   4.327  27.598   6.239
 4270POPC   D2A56164   4.047  27.699   6.523
 4270POPC   C3A56165   4.161  27.751   6.890
 4270POPC   C4A56166   4.430  27.758   7.166
 4270POPC   C1B56167   4.323  27.082   6.225
 4270POPC   C2B56168   4.252  27.244   6.622
 4270POPC   C3B56169   4.417  27.269   7.020
 4270POPC   C4B56170   4.273  27.283   7.449
 4271POPC   NC356171  17.923  24.090   5.445
 4271POPC   PO456172  18.522  24.437   5.397
 4271POPC   GL156173  18.537  24.495   5.810
 4271POPC   GL256174  18.231  24.308   5.806
 4271POPC   C1A56175  18.473  24.569   6.262
 4271POPC   D2A56176  18.568  24.600   6.701
 4271POPC   C3A56177  18.284  24.701   7.030
 4271POPC   C4A56178  18.376  24.809   7.448
 4271POPC   C1B56179  18.044  24.291   6.189
 4271POPC   C2B56180  18.071  24.430   6.606
 4271POPC   C3B56181  18.086  24.193   6.988
 4271POPC   C4B56182  18.088  24.382   7.398
 4272POPC   NC356183  10.694  31.047   5.688
 4272POPC   PO456184  10.610  30.473   5.450
 4272POPC   GL156185  10.485  30.609   5.871
 4272POPC   GL256186  10.847  30.663   5.984
 4272POPC   C1A56187  10.482  30.651   6.340
 4272POPC   D2A56188  10.720  30.916   6.616
 4272POPC   C3A56189  10.590  30.879   7.057
 4272POPC   C4A56190  10.275  30.592   7.212
 4272POPC   C1B56191  10.753  30.250   6.098
 4272POPC   C2B56192  10.563  30.126   6.462
 4272POPC   C3B56193  10.543  30.406   6.814
 4272POPC   C4B56194  10.725  30.360   7.225
 4273POPC   NC356195  16.378  11.445   5.375
 4273POPC   PO456196  17.009  11.196   5.400
 4273POPC   GL156197  16.984  11.212   5.851
 4273POPC   GL256198  16.643  11.096   5.937
 4273POPC   C1A56199  17.070  11.140   6.288
 4273POPC   D2A56200  16.716  11.065   6.588
 4273POPC   C3A56201  16.775  11.061   6.992
 4273POPC   C4A56202  17.056  11.244   7.280
 4273POPC   C1B56203  16.668  11.449   6.248
 4273POPC   C2B56204  16.810  11.559   6.694
 4273POPC   C3B56205  16.637  11.534   7.112
 4273POPC   C4B56206  16.251  11.278   7.188
 4274POPC   NC356207  30.775  31.139   5.355
 4274POPC   PO456208  30.407  30.572   5.438
 4274POPC   GL156209  30.643  30.752   5.779
 4274POPC   GL256210  30.930  30.605   5.632
 4274POPC   C1A56211  30.658  30.830   6.255
 4274POPC   D2A56212  30.476  30.689   6.663
 4274POPC   C3A56213  30.560  30.845   7.085
 4274POPC   C4A56214  30.936  30.922   7.341
 4274POPC   C1B56215  31.001  30.431   6.053
 4274POPC   C2B56216  31.086  30.605   6.452
 4274POPC   C3B56217  30.987  30.648   6.864
 4274POPC   C4B56218  31.211  30.306   7.046
 4275POPC   NC356219  10.179   2.494   5.716
 4275POPC   PO456220  10.676   2.838   5.417
 4275POPC   GL156221  10.572   2.883   5.883
 4275POPC   GL256222  10.437   3.209   5.853
 4275POPC   C1A56223  10.777   3.026   6.321
 4275POPC   D2A56224  10.700   2.793   6.709
 4275POPC   C3A56225  10.772   2.848   7.154
 4275POPC   C4A56226  10.529   2.587   7.349
 4275POPC   C1B56227  10.261   3.049   6.259
 4275POPC   C2B56228  10.106   3.044   6.679
 4275POPC   C3B56229  10.306   2.976   7.036
 4275POPC   C4B56230  10.232   2.973   7.473
 4276POPC   NC356231  13.933   6.170   5.385
 4276POPC   PO456232  13.811   5.545   5.480
 4276POPC   GL156233  13.687   5.512   5.923
 4276POPC   GL256234  13.582   5.836   5.962
 4276POPC   C1A56235  13.865   5.651   6.350
 4276POPC   D2A56236  13.665   5.825   6.754
 4276POPC   C3A56237  13.783   5.836   7.210
 4276POPC   C4A56238  13.650   5.593   7.577
 4276POPC   C1B56239  13.323   5.621   6.295
 4276POPC   C2B56240  13.175   5.615   6.739
 4276POPC   C3B56241  13.262   5.820   7.154
 4276POPC   C4B56242  13.422   6.066   7.519
 4277POPC   NC356243  39.584  41.175   5.318
 4277POPC   PO456244  39.494  40.495   5.311
 4277POPC   GL156245  39.203  40.752   5.618
 4277POPC   GL256246  39.332  41.042   5.768
 4277POPC   C1A56247  38.996  40.726   6.062
 4277POPC   D2A56248  39.110  40.881   6.508
 4277POPC   C3A56249  38.983  40.682   6.914
 4277POPC   C4A56250  39.155  40.749   7.320
 4277POPC   C1B56251  39.627  40.974   6.096
 4277POPC   C2B56252  39.662  40.837   6.536
 4277POPC   C3B56253  39.521  40.803   6.965
 4277POPC   C4B56254  39.497  41.155   7.260
 4278POPC   NC356255  20.700  22.013   5.542
 4278POPC   PO456256  21.029  22.534   5.768
 4278POPC   GL156257  20.872  22.202   5.986
 4278POPC   GL256258  20.512  22.262   5.955
 4278POPC   C1A56259  20.730  22.190   6.388
 4278POPC   D2A56260  20.612  22.147   6.758
 4278POPC   C3A56261  20.835  22.407   7.004
 4278POPC   C4A56262  20.776  22.226   7.350
 4278POPC   C1B56263  20.264  22.002   6.280
 4278POPC   C2B56264  20.118  22.116   6.698
 4278POPC   C3B56265  20.271  21.954   7.110
 4278POPC   C4B56266  20.319  22.184   7.530
 4279POPC   NC356267  10.037   5.439   5.329
 4279POPC   PO456268   9.775   4.880   5.438
 4279POPC   GL156269   9.925   4.936   5.851
 4279POPC   GL256270   9.995   5.297   5.932
 4279POPC   C1A56271   9.802   4.959   6.287
 4279POPC   D2A56272   9.770   5.011   6.707
 4279POPC   C3A56273   9.939   4.786   7.014
 4279POPC   C4A56274   9.732   4.798   7.386
 4279POPC   C1B56275   9.979   5.428   6.406
 4279POPC   C2B56276   9.738   5.507   6.801
 4279POPC   C3B56277   9.724   5.293   7.204
 4279POPC   C4B56278   9.898   5.453   7.630
 4280POPC   NC356279  41.066  41.399   5.347
 4280POPC   PO456280  40.413  41.252   5.577
 4280POPC   GL156281  40.715  41.488   5.741
 4280POPC   GL256282  40.911  41.243   5.815
 4280POPC   C1A56283  40.921  41.698   6.079
 4280POPC   D2A56284  40.917  41.886   6.484
 4280POPC   C3A56285  41.146  41.684   6.785
 4280POPC   C4A56286  41.001  41.836   7.177
 4280POPC   C1B56287  40.614  41.295   6.192
 4280POPC   C2B56288  40.786  41.369   6.588
 4280POPC   C3B56289  40.689  41.462   7.006
 4280POPC   C4B56290  40.440  41.232   7.318
 4281POPC   NC356291  24.306  37.629   5.613
 4281POPC   PO456292  24.711  37.156   5.396
 4281POPC   GL156293  24.590  37.290   5.868
 4281POPC   GL256294  24.202  37.376   6.026
 4281POPC   C1A56295  24.595  37.444   6.316
 4281POPC   D2A56296  24.157  37.423   6.562
 4281POPC   C3A56297  24.183  37.301   7.006
 4281POPC   C4A56298  24.547  37.468   7.238
 4281POPC   C1B56299  24.257  37.820   6.251
 4281POPC   C2B56300  24.216  37.953   6.698
 4281POPC   C3B56301  24.250  38.063   7.142
 4281POPC   C4B56302  24.374  38.311   7.538
 4282POPC   NC356303  16.785  12.263   5.124
 4282POPC   PO456304  16.397  12.118   5.545
 4282POPC   GL156305  16.586  11.868   5.908
 4282POPC   GL256306  16.929  11.723   5.900
 4282POPC   C1A56307  16.602  11.939   6.369
 4282POPC   D2A56308  16.452  12.122   6.752
 4282POPC   C3A56309  16.630  12.051   7.153
 4282POPC   C4A56310  16.478  11.819   7.528
 4282POPC   C1B56311  17.103  11.784   6.347
 4282POPC   C2B56312  17.017  12.033   6.765
 4282POPC   C3B56313  17.264  12.109   7.175
 4282POPC   C4B56314  17.263  12.164   7.656
 4283POPC   NC356315   6.888  26.481   5.378
 4283POPC   PO456316   6.543  27.035   5.180
 4283POPC   GL156317   6.504  26.882   5.628
 4283POPC   GL256318   6.510  26.515   5.736
 4283POPC   C1A56319   6.551  26.936   6.083
 4283POPC   D2A56320   6.341  26.826   6.462
 4283POPC   C3A56321   6.566  26.636   6.833
 4283POPC   C4A56322   6.790  26.652   7.202
 4283POPC   C1B56323   6.871  26.551   6.005
 4283POPC   C2B56324   6.842  26.573   6.422
 4283POPC   C3B56325   7.045  26.357   6.778
 4283POPC   C4B56326   7.157  26.233   7.182
 4284POPC   NC356327  20.170  22.858   5.475
 4284POPC   PO456328  19.611  22.491   5.636
 4284POPC   GL156329  19.690  22.854   5.843
 4284POPC   GL256330  20.019  23.014   5.940
 4284POPC   C1A56331  19.621  22.946   6.252
 4284POPC   D2A56332  19.857  23.118   6.556
 4284POPC   C3A56333  19.603  22.972   6.885
 4284POPC   C4A56334  19.429  22.830   7.253
 4284POPC   C1B56335  20.062  22.613   6.130
 4284POPC   C2B56336  20.004  22.617   6.568
 4284POPC   C3B56337  20.119  22.881   6.919
 4284POPC   C4B56338  19.946  22.910   7.292
 4285POPC   NC356339   7.649  26.165   5.411
 4285POPC   PO456340   7.209  25.685   5.501
 4285POPC   GL156341   7.415  25.876   5.802
 4285POPC   GL256342   7.264  26.215   5.795
 4285POPC   C1A56343   7.289  25.911   6.218
 4285POPC   D2A56344   7.439  26.036   6.604
 4285POPC   C3A56345   7.224  25.826   6.893
 4285POPC   C4A56346   7.219  25.695   7.280
 4285POPC   C1B56347   7.637  26.278   6.097
 4285POPC   C2B56348   7.708  26.477   6.509
 4285POPC   C3B56349   7.614  26.402   6.939
 4285POPC   C4B56350   7.628  26.022   7.162
 4286POPC   NC356351  36.456  37.274   5.518
 4286POPC   PO456352  36.563  37.981   5.523
 4286POPC   GL156353  36.276  37.716   5.810
 4286POPC   GL256354  36.135  37.343   5.903
 4286POPC   C1A56355  35.964  37.777   6.154
 4286POPC   D2A56356  35.957  37.547   6.529
 4286POPC   C3A56357  35.821  37.697   6.916
 4286POPC   C4A56358  35.904  37.581   7.313
 4286POPC   C1B56359  36.432  37.467   6.229
 4286POPC   C2B56360  36.489  37.503   6.655
 4286POPC   C3B56361  36.271  37.375   7.009
 4286POPC   C4B56362  35.886  37.139   7.025
 4287POPC   NC356363  41.579  19.387   5.367
 4287POPC   PO456364  41.595  18.726   5.489
 4287POPC   GL156365  41.646  18.854   5.892
 4287POPC   GL256366  41.472  19.146   5.825
 4287POPC   C1A56367  41.520  18.923   6.317
 4287POPC   D2A56368  41.483  19.026   6.748
 4287POPC   C3A56369  41.646  18.849   7.126
 4287POPC   C4A56370  41.429  18.912   7.549
 4287POPC   C1B56371  41.795  19.320   6.096
 4287POPC   C2B56372  41.899  19.233   6.527
 4287POPC   C3B56373  41.830  19.364   6.943
 4287POPC   C4B56374  41.793  19.248   7.379
 4288POPC   NC356375   4.243  43.500   5.303
 4288POPC   PO456376   3.830  44.118   5.368
 4288POPC   GL156377   4.174  44.053   5.677
 4288POPC   GL256378   4.111  43.704   5.753
 4288POPC   C1A56379   4.340  44.079   6.111
 4288POPC   D2A56380   4.518  44.217   6.514
 4288POPC   C3A56381   4.316  44.039   6.912
 4288POPC   C4A56382   4.298  44.070   7.345
 4288POPC   C1B56383   4.286  43.524   6.118
 4288POPC   C2B56384   4.362  43.732   6.510
 4288POPC   C3B56385   4.596  43.614   6.881
 4288POPC   C4B56386   4.411  43.584   7.279
 4289POPC   NC356387  27.089   8.859   5.480
 4289POPC   PO456388  26.534   9.055   5.249
 4289POPC   GL156389  26.671   9.043   5.704
 4289POPC   GL256390  26.661   8.728   5.855
 4289POPC   C1A56391  26.911   9.076   6.118
 4289POPC   D2A56392  26.733   9.087   6.525
 4289POPC   C3A56393  26.930   9.378   6.804
 4289POPC   C4A56394  27.192   9.271   7.177
 4289POPC   C1B56395  26.684   8.600   6.257
 4289POPC   C2B56396  27.027   8.647   6.532
 4289POPC   C3B56397  27.092   8.900   6.835
 4289POPC   C4B56398  26.721   8.989   7.072
 4290POPC   NC356399  21.838   8.672   5.315
 4290POPC   PO456400  21.577   9.340   5.422
 4290POPC   GL156401  21.418   9.178   5.813
 4290POPC   GL256402  21.089   9.347   5.854
 4290POPC   C1A56403  21.594   8.968   6.167
 4290POPC   D2A56404  21.556   8.790   6.558
 4290POPC   C3A56405  21.536   9.108   6.822
 4290POPC   C4A56406  21.582   9.011   7.242
 4290POPC   C1B56407  21.056   8.973   6.140
 4290POPC   C2B56408  21.099   9.001   6.544
 4290POPC   C3B56409  21.163   8.750   6.898
 4290POPC   C4B56410  21.027   8.843   7.299
 4291POPC   NC356411  34.062  40.206   4.842
 4291POPC   PO456412  33.656  40.019   5.364
 4291POPC   GL156413  33.751  39.930   5.807
 4291POPC   GL256414  34.055  39.995   6.014
 4291POPC   C1A56415  33.579  39.985   6.218
 4291POPC   D2A56416  33.706  40.125   6.619
 4291POPC   C3A56417  33.517  39.987   7.022
 4291POPC   C4A56418  33.783  40.139   7.396
 4291POPC   C1B56419  33.980  39.649   6.313
 4291POPC   C2B56420  33.804  39.625   6.715
 4291POPC   C3B56421  33.967  39.753   7.123
 4291POPC   C4B56422  34.036  39.717   7.586
 4292POPC   NC356423  21.293  42.012   5.455
 4292POPC   PO456424  21.623  42.628   5.246
 4292POPC   GL156425  21.409  42.503   5.640
 4292POPC   GL256426  21.596  42.250   5.809
 4292POPC   C1A56427  21.304  42.601   6.083
 4292POPC   D2A56428  21.152  42.692   6.494
 4292POPC   C3A56429  21.391  42.661   6.862
 4292POPC   C4A56430  21.191  42.477   7.168
 4292POPC   C1B56431  21.436  42.128   6.224
 4292POPC   C2B56432  21.277  42.205   6.655
 4292POPC   C3B56433  21.457  42.055   7.051
 4292POPC   C4B56434  21.705  42.253   7.384
 4293POPC   NC356435  22.178  39.785   5.542
 4293POPC   PO456436  22.536  40.405   5.501
 4293POPC   GL156437  22.280  40.246   5.910
 4293POPC   GL256438  21.983  40.012   5.993
 4293POPC   C1A56439  22.225  40.150   6.400
 4293POPC   D2A56440  22.217  39.823   6.744
 4293POPC   C3A56441  22.410  39.994   7.118
 4293POPC   C4A56442  22.480  39.835   7.538
 4293POPC   C1B56443  21.676  40.200   6.316
 4293POPC   C2B56444  21.507  40.255   6.754
 4293POPC   C3B56445  21.753  40.413   7.156
 4293POPC   C4B56446  22.028  40.105   7.439
 4294POPC   NC356447  12.768  17.235   5.490
 4294POPC   PO456448  13.162  17.809   5.361
 4294POPC   GL156449  12.992  17.619   5.804
 4294POPC   GL256450  12.610  17.676   5.729
 4294POPC   C1A56451  13.083  17.534   6.326
 4294POPC   D2A56452  13.333  17.414   6.755
 4294POPC   C3A56453  13.172  17.422   7.215
 4294POPC   C4A56454  13.032  17.593   7.638
 4294POPC   C1B56455  12.643  17.768   6.163
 4294POPC   C2B56456  12.613  17.598   6.584
 4294POPC   C3B56457  12.494  17.638   6.996
 4294POPC   C4B56458  12.666  17.412   7.329
 4295POPC   NC356459   1.377  14.505   5.323
 4295POPC   PO456460   0.869  14.780   5.536
 4295POPC   GL156461   1.177  14.491   5.808
 4295POPC   GL256462   1.254  14.119   5.763
 4295POPC   C1A56463   1.113  14.304   6.240
 4295POPC   D2A56464   1.030  14.071   6.638
 4295POPC   C3A56465   1.048  14.272   7.056
 4295POPC   C4A56466   0.833  14.574   7.350
 4295POPC   C1B56467   1.562  14.118   6.107
 4295POPC   C2B56468   1.531  14.161   6.540
 4295POPC   C3B56469   1.502  13.986   6.941
 4295POPC   C4B56470   1.493  14.256   7.292
 4296POPC   NC356471  26.461  18.575   5.482
 4296POPC   PO456472  26.621  17.941   5.206
 4296POPC   GL156473  26.661  18.034   5.683
 4296POPC   GL256474  26.982  18.167   5.871
 4296POPC   C1A56475  26.614  18.002   6.168
 4296POPC   D2A56476  26.967  18.100   6.509
 4296POPC   C3A56477  26.941  17.930   6.936
 4296POPC   C4A56478  26.539  18.015   7.161
 4296POPC   C1B56479  26.785  18.483   6.231
 4296POPC   C2B56480  26.719  18.594   6.689
 4296POPC   C3B56481  26.872  18.408   7.072
 4296POPC   C4B56482  27.084  18.537   7.444
 4297POPC   NC356483  22.186  35.828   5.352
 4297POPC   PO456484  22.343  35.191   5.332
 4297POPC   GL156485  22.181  35.421   5.658
 4297POPC   GL256486  21.864  35.334   5.786
 4297POPC   C1A56487  22.230  35.435   6.116
 4297POPC   D2A56488  22.082  35.611   6.483
 4297POPC   C3A56489  22.128  35.448   6.887
 4297POPC   C4A56490  21.803  35.666   7.101
 4297POPC   C1B56491  21.881  35.069   6.174
 4297POPC   C2B56492  21.792  34.926   6.573
 4297POPC   C3B56493  21.861  35.055   7.006
 4297POPC   C4B56494  22.058  35.211   7.378
 4298POPC   NC356495  21.260  42.947   5.234
 4298POPC   PO456496  21.400  43.555   5.383
 4298POPC   GL156497  21.318  43.218   5.698
 4298POPC   GL256498  21.596  42.984   5.677
 4298POPC   C1A56499  21.140  43.085   6.112
 4298POPC   D2A56500  20.870  43.184   6.457
 4298POPC   C3A56501  21.078  43.071   6.853
 4298POPC   C4A56502  21.282  42.974   7.250
 4298POPC   C1B56503  21.647  43.162   6.095
 4298POPC   C2B56504  21.550  43.007   6.482
 4298POPC   C3B56505  21.600  43.150   6.897
 4298POPC   C4B56506  21.717  43.275   7.279
 4299POPC   NC356507   7.867   0.574   5.469
 4299POPC   PO456508   7.179   0.346   5.387
 4299POPC   GL156509   7.411   0.451   5.732
 4299POPC   GL256510   7.224   0.733   5.750
 4299POPC   C1A56511   7.539   0.333   6.150
 4299POPC   D2A56512   7.419   0.515   6.530
 4299POPC   C3A56513   7.404   0.282   6.864
 4299POPC   C4A56514   7.511   0.146   7.233
 4299POPC   C1B56515   7.088   0.642   6.147
 4299POPC   C2B56516   6.933   0.674   6.619
 4299POPC   C3B56517   7.046   0.613   7.055
 4299POPC   C4B56518   7.461   0.646   7.220
 4300POPC   NC356519  34.306  35.704   5.275
 4300POPC   PO456520  34.779  35.215   5.539
 4300POPC   GL156521  34.660  35.587   5.771
 4300POPC   GL256522  34.287  35.605   5.782
 4300POPC   C1A56523  34.620  35.523   6.220
 4300POPC   D2A56524  34.809  35.440   6.634
 4300POPC   C3A56525  34.542  35.173   6.882
 4300POPC   C4A56526  34.515  35.196   7.329
 4300POPC   C1B56527  34.138  35.705   6.203
 4300POPC   C2B56528  34.268  35.610   6.659
 4300POPC   C3B56529  34.530  35.668   7.050
 4300POPC   C4B56530  34.320  35.675   7.499
 4301POPC   NC356531  13.708  21.448   5.410
 4301POPC   PO456532  13.251  20.929   5.420
 4301POPC   GL156533  13.508  21.139   5.777
 4301POPC   GL256534  13.456  21.511   5.850
 4301POPC   C1A56535  13.696  21.225   6.215
 4301POPC   D2A56536  13.848  21.421   6.631
 4301POPC   C3A56537  13.744  21.159   6.992
 4301POPC   C4A56538  13.686  21.219   7.464
 4301POPC   C1B56539  13.452  21.767   6.248
 4301POPC   C2B56540  13.597  21.882   6.687
 4301POPC   C3B56541  13.627  21.649   7.085
 4301POPC   C4B56542  13.421  21.654   7.519
 4302POPC   NC356543  41.168  24.185   5.606
 4302POPC   PO456544  41.522  24.650   5.316
 4302POPC   GL156545  41.467  24.581   5.789
 4302POPC   GL256546  41.123  24.664   5.856
 4302POPC   C1A56547  41.595  24.254   6.165
 4302POPC   D2A56548  41.807  24.275   6.582
 4302POPC   C3A56549  41.583  24.308   6.977
 4302POPC   C4A56550  41.799  24.399   7.377
 4302POPC   C1B56551  41.248  24.592   6.291
 4302POPC   C2B56552  41.134  24.577   6.767
 4302POPC   C3B56553  41.347  24.713   7.181
 4302POPC   C4B56554  41.418  24.690   7.629
 4303POPC   NC356555  23.182  17.738   5.404
 4303POPC   PO456556  22.501  17.464   5.443
 4303POPC   GL156557  22.810  17.563   5.726
 4303POPC   GL256558  23.043  17.286   5.623
 4303POPC   C1A56559  22.992  17.724   6.116
 4303POPC   D2A56560  23.165  17.551   6.511
 4303POPC   C3A56561  22.960  17.715   6.872
 4303POPC   C4A56562  23.101  17.791   7.262
 4303POPC   C1B56563  23.087  17.215   6.055
 4303POPC   C2B56564  22.760  17.293   6.331
 4303POPC   C3B56565  22.707  17.311   6.753
 4303POPC   C4B56566  22.870  17.193   7.145
 4304POPC   NC356567  29.711  28.210   5.414
 4304POPC   PO456568  30.098  28.818   5.246
 4304POPC   GL156569  30.035  28.511   5.684
 4304POPC   GL256570  29.717  28.341   5.898
 4304POPC   C1A56571  30.096  28.506   6.167
 4304POPC   D2A56572  29.782  28.512   6.528
 4304POPC   C3A56573  29.944  28.445   6.946
 4304POPC   C4A56574  30.098  28.390   7.386
 4304POPC   C1B56575  29.831  28.013   6.201
 4304POPC   C2B56576  30.013  28.027   6.601
 4304POPC   C3B56577  29.795  27.928   6.953
 4304POPC   C4B56578  29.909  27.922   7.364
 4305POPC   NC356579   2.292  35.493   5.538
 4305POPC   PO456580   1.753  35.118   5.530
 4305POPC   GL156581   1.930  35.089   5.928
 4305POPC   GL256582   2.282  35.041   5.809
 4305POPC   C1A56583   1.873  35.339   6.337
 4305POPC   D2A56584   2.182  35.648   6.534
 4305POPC   C3A56585   2.104  35.695   6.947
 4305POPC   C4A56586   1.739  35.493   7.115
 4305POPC   C1B56587   2.344  35.310   6.173
 4305POPC   C2B56588   2.328  35.153   6.596
 4305POPC   C3B56589   2.368  35.221   7.037
 4305POPC   C4B56590   2.017  35.056   7.263
 4306POPC   NC356591  14.022  22.348   5.560
 4306POPC   PO456592  14.547  21.942   5.447
 4306POPC   GL156593  14.498  22.180   5.796
 4306POPC   GL256594  14.518  22.538   5.703
 4306POPC   C1A56595  14.341  22.040   6.203
 4306POPC   D2A56596  14.154  21.827   6.531
 4306POPC   C3A56597  14.313  21.824   6.916
 4306POPC   C4A56598  14.222  22.129   7.177
 4306POPC   C1B56599  14.554  22.508   6.172
 4306POPC   C2B56600  14.447  22.383   6.583
 4306POPC   C3B56601  14.232  22.584   6.917
 4306POPC   C4B56602  14.444  22.590   7.268
 4307POPC   NC356603  44.223  25.964   5.472
 4307POPC   PO456604  43.580  25.976   5.470
 4307POPC   GL156605  43.820  26.014   5.832
 4307POPC   GL256606  44.049  26.287   5.818
 4307POPC   C1A56607  43.895  25.846   6.221
 4307POPC   D2A56608  43.986  25.975   6.627
 4307POPC   C3A56609  44.077  25.836   7.025
 4307POPC   C4A56610  43.830  25.795   7.376
 4307POPC   C1B56611  44.203  26.310   6.255
 4307POPC   C2B56612  43.950  26.476   6.610
 4307POPC   C3B56613  43.862  26.309   7.017
 4307POPC   C4B56614  44.149  26.270   7.351
 4308POPC   NC356615  39.131  11.579   5.022
 4308POPC   PO456616  39.004  11.894   5.621
 4308POPC   GL156617  39.281  11.775   5.952
 4308POPC   GL256618  39.297  12.120   6.013
 4308POPC   C1A56619  39.347  11.788   6.408
 4308POPC   D2A56620  39.084  12.076   6.597
 4308POPC   C3A56621  38.971  11.968   6.985
 4308POPC   C4A56622  39.067  12.161   7.350
 4308POPC   C1B56623  39.250  12.479   6.303
 4308POPC   C2B56624  39.317  12.543   6.697
 4308POPC   C3B56625  39.436  12.239   6.974
 4308POPC   C4B56626  39.601  12.276   7.368
 4309POPC   NC356627  19.179  32.718   5.491
 4309POPC   PO456628  18.765  32.260   5.485
 4309POPC   GL156629  18.889  32.469   5.848
 4309POPC   GL256630  19.192  32.298   5.799
 4309POPC   C1A56631  19.018  32.361   6.272
 4309POPC   D2A56632  18.907  32.133   6.591
 4309POPC   C3A56633  18.979  32.271   7.015
 4309POPC   C4A56634  19.133  32.008   7.313
 4309POPC   C1B56635  19.435  32.570   6.062
 4309POPC   C2B56636  19.424  32.710   6.482
 4309POPC   C3B56637  19.436  32.480   6.853
 4309POPC   C4B56638  19.528  32.315   7.242
 4310POPC   NC356639  38.370  17.844   5.347
 4310POPC   PO456640  38.651  17.199   5.422
 4310POPC   GL156641  38.450  17.489   5.787
 4310POPC   GL256642  38.168  17.754   5.803
 4310POPC   C1A56643  38.564  17.644   6.234
 4310POPC   D2A56644  38.803  17.606   6.653
 4310POPC   C3A56645  38.555  17.504   7.034
 4310POPC   C4A56646  38.252  17.217   7.230
 4310POPC   C1B56647  38.048  17.585   6.193
 4310POPC   C2B56648  38.209  17.391   6.581
 4310POPC   C3B56649  38.028  17.582   6.941
 4310POPC   C4B56650  38.162  17.806   7.252
 4311POPC   NC356651   5.870  22.464   5.556
 4311POPC   PO456652   5.305  22.807   5.310
 4311POPC   GL156653   5.658  22.910   5.654
 4311POPC   GL256654   5.725  23.211   5.866
 4311POPC   C1A56655   5.765  22.787   6.133
 4311POPC   D2A56656   5.856  23.014   6.530
 4311POPC   C3A56657   5.734  22.798   6.911
 4311POPC   C4A56658   5.863  22.634   7.264
 4311POPC   C1B56659   5.468  23.309   6.252
 4311POPC   C2B56660   5.379  23.239   6.681
 4311POPC   C3B56661   5.672  23.279   7.003
 4311POPC   C4B56662   5.820  23.189   7.420
 4312POPC   NC356663  32.172  33.138   5.294
 4312POPC   PO456664  32.593  32.628   5.299
 4312POPC   GL156665  32.646  32.864   5.746
 4312POPC   GL256666  32.359  33.093   5.778
 4312POPC   C1A56667  32.459  32.863   6.228
 4312POPC   D2A56668  32.474  33.138   6.645
 4312POPC   C3A56669  32.456  33.016   7.105
 4312POPC   C4A56670  32.452  32.591   7.289
 4312POPC   C1B56671  32.065  33.202   6.120
 4312POPC   C2B56672  32.077  33.470   6.468
 4312POPC   C3B56673  32.018  33.333   6.843
 4312POPC   C4B56674  31.955  33.201   7.189
 4313POPC   NC356675  16.730  30.558   5.292
 4313POPC   PO456676  16.694  31.109   5.623
 4313POPC   GL156677  16.553  30.700   5.793
 4313POPC   GL256678  16.746  30.355   5.774
 4313POPC   C1A56679  16.376  30.712   6.209
 4313POPC   D2A56680  16.388  30.977   6.580
 4313POPC   C3A56681  16.378  30.678   6.913
 4313POPC   C4A56682  16.433  30.659   7.322
 4313POPC   C1B56683  16.876  30.533   6.176
 4313POPC   C2B56684  16.793  30.648   6.611
 4313POPC   C3B56685  16.867  30.490   7.058
 4313POPC   C4B56686  17.221  30.478   7.398
 4314POPC   NC356687  34.340   9.568   5.041
 4314POPC   PO456688  33.756   9.894   5.185
 4314POPC   GL156689  33.709   9.904   5.672
 4314POPC   GL256690  34.020  10.019   5.818
 4314POPC   C1A56691  33.690   9.758   6.139
 4314POPC   D2A56692  33.887   9.633   6.552
 4314POPC   C3A56693  33.719   9.748   6.990
 4314POPC   C4A56694  33.913   9.680   7.433
 4314POPC   C1B56695  33.973  10.180   6.255
 4314POPC   C2B56696  33.900  10.114   6.686
 4314POPC   C3B56697  34.154   9.992   7.041
 4314POPC   C4B56698  34.233  10.128   7.452
 4315POPC   NC356699   1.377  13.868   5.275
 4315POPC   PO456700   0.747  13.786   5.439
 4315POPC   GL156701   1.047  13.648   5.759
 4315POPC   GL256702   1.287  13.384   5.879
 4315POPC   C1A56703   1.168  13.793   6.178
 4315POPC   D2A56704   1.322  13.657   6.572
 4315POPC   C3A56705   1.098  13.668   6.955
 4315POPC   C4A56706   1.215  13.799   7.347
 4315POPC   C1B56707   1.347  13.204   6.294
 4315POPC   C2B56708   1.627  13.272   6.662
 4315POPC   C3B56709   1.473  13.328   7.065
 4315POPC   C4B56710   1.248  13.105   7.388
 4316POPC   NC356711  12.041  20.568   5.428
 4316POPC   PO456712  12.323  21.157   5.165
 4316POPC   GL156713  12.149  21.073   5.676
 4316POPC   GL256714  11.866  20.818   5.826
 4316POPC   C1A56715  12.237  20.921   6.152
 4316POPC   D2A56716  12.011  20.743   6.532
 4316POPC   C3A56717  12.193  20.578   6.919
 4316POPC   C4A56718  12.387  20.833   7.263
 4316POPC   C1B56719  11.821  20.448   6.154
 4316POPC   C2B56720  11.855  20.257   6.616
 4316POPC   C3B56721  11.816  20.285   7.105
 4316POPC   C4B56722  11.701  20.189   7.560
 4317POPC   NC356723  27.742   7.335   5.504
 4317POPC   PO456724  27.172   7.701   5.440
 4317POPC   GL156725  27.448   7.594   5.834
 4317POPC   GL256726  27.470   7.247   5.923
 4317POPC   C1A56727  27.668   7.722   6.252
 4317POPC   D2A56728  28.002   7.634   6.572
 4317POPC   C3A56729  27.885   7.755   6.992
 4317POPC   C4A56730  27.520   7.585   7.142
 4317POPC   C1B56731  27.385   7.298   6.317
 4317POPC   C2B56732  27.584   7.325   6.701
 4317POPC   C3B56733  27.567   7.082   7.060
 4317POPC   C4B56734  27.391   6.899   7.396
 4318POPC   NC356735  21.961  17.035   5.422
 4318POPC   PO456736  22.377  16.498   5.350
 4318POPC   GL156737  22.207  16.493   5.730
 4318POPC   GL256738  22.449  16.715   5.814
 4318POPC   C1A56739  21.988  16.609   6.109
 4318POPC   D2A56740  21.898  16.837   6.524
 4318POPC   C3A56741  22.055  16.916   6.949
 4318POPC   C4A56742  22.041  16.636   7.316
 4318POPC   C1B56743  22.279  17.040   6.057
 4318POPC   C2B56744  22.290  17.156   6.489
 4318POPC   C3B56745  22.512  16.853   6.753
 4318POPC   C4B56746  22.506  16.821   7.184
 4319POPC   NC356747  38.705  21.053   5.474
 4319POPC   PO456748  38.189  21.404   5.368
 4319POPC   GL156749  38.302  21.225   5.778
 4319POPC   GL256750  38.593  21.440   5.801
 4319POPC   C1A56751  38.348  21.365   6.242
 4319POPC   D2A56752  38.433  21.742   6.542
 4319POPC   C3A56753  38.356  21.562   6.922
 4319POPC   C4A56754  38.482  21.132   6.993
 4319POPC   C1B56755  38.804  21.158   6.107
 4319POPC   C2B56756  39.032  21.205   6.491
 4319POPC   C3B56757  38.877  21.432   6.838
 4319POPC   C4B56758  38.895  21.304   7.244
 4320POPC   NC356759  16.309  19.513   5.551
 4320POPC   PO456760  16.188  18.864   5.477
 4320POPC   GL156761  15.957  19.013   5.829
 4320POPC   GL256762  15.596  19.052   5.740
 4320POPC   C1A56763  16.059  19.160   6.254
 4320POPC   D2A56764  16.388  19.159   6.585
 4320POPC   C3A56765  16.193  19.131   6.993
 4320POPC   C4A56766  16.306  18.864   7.335
 4320POPC   C1B56767  15.578  18.914   6.167
 4320POPC   C2B56768  15.778  18.817   6.555
 4320POPC   C3B56769  15.546  18.782   6.915
 4320POPC   C4B56770  15.740  19.019   7.221
 4321POPC   NC356771  16.481   4.299   5.126
 4321POPC   PO456772  15.839   4.079   5.369
 4321POPC   GL156773  15.766   3.972   5.782
 4321POPC   GL256774  16.117   4.033   5.856
 4321POPC   C1A56775  15.626   4.163   6.149
 4321POPC   D2A56776  15.786   4.319   6.530
 4321POPC   C3A56777  15.579   4.304   6.920
 4321POPC   C4A56778  15.863   4.424   7.280
 4321POPC   C1B56779  16.370   4.053   6.237
 4321POPC   C2B56780  16.325   3.981   6.676
 4321POPC   C3B56781  16.283   4.239   7.030
 4321POPC   C4B56782  16.247   4.060   7.425
 4322POPC   NC356783  35.850  27.898   5.436
 4322POPC   PO456784  35.354  27.425   5.386
 4322POPC   GL156785  35.414  27.462   5.790
 4322POPC   GL256786  35.736  27.458   5.762
 4322POPC   C1A56787  35.386  27.382   6.226
 4322POPC   D2A56788  35.124  27.312   6.597
 4322POPC   C3A56789  35.272  27.449   6.989
 4322POPC   C4A56790  35.144  27.878   7.117
 4322POPC   C1B56791  35.683  27.794   6.090
 4322POPC   C2B56792  35.573  27.749   6.556
 4322POPC   C3B56793  35.653  27.776   7.010
 4322POPC   C4B56794  35.626  27.478   7.370
 4323POPC   NC356795   2.097   7.887   5.324
 4323POPC   PO456796   1.577   8.185   5.248
 4323POPC   GL156797   1.842   8.147   5.682
 4323POPC   GL256798   1.949   7.800   5.798
 4323POPC   C1A56799   2.024   8.242   6.120
 4323POPC   D2A56800   2.085   8.336   6.590
 4323POPC   C3A56801   1.930   8.095   6.950
 4323POPC   C4A56802   1.591   8.124   7.274
 4323POPC   C1B56803   2.303   7.819   6.068
 4323POPC   C2B56804   2.304   7.814   6.547
 4323POPC   C3B56805   2.459   8.018   6.901
 4323POPC   C4B56806   2.319   8.419   7.062
 4324POPC   NC356807  28.566   1.477   5.521
 4324POPC   PO456808  28.245   0.831   5.702
 4324POPC   GL156809  28.409   1.134   5.944
 4324POPC   GL256810  28.228   1.458   5.917
 4324POPC   C1A56811  28.251   1.122   6.379
 4324POPC   D2A56812  28.066   1.148   6.805
 4324POPC   C3A56813  28.367   1.087   7.135
 4324POPC   C4A56814  28.846   1.122   7.193
 4324POPC   C1B56815  28.544   1.526   6.246
 4324POPC   C2B56816  28.512   1.454   6.682
 4324POPC   C3B56817  28.580   1.542   7.077
 4324POPC   C4B56818  28.650   1.491   7.506
 4325POPC   NC356819  11.639  26.504   5.627
 4325POPC   PO456820  12.142  26.745   5.249
 4325POPC   GL156821  12.130  26.701   5.686
 4325POPC   GL256822  12.149  26.330   5.681
 4325POPC   C1A56823  12.006  26.844   6.111
 4325POPC   D2A56824  12.232  26.741   6.520
 4325POPC   C3A56825  12.080  26.812   6.928
 4325POPC   C4A56826  12.057  26.652   7.301
 4325POPC   C1B56827  12.257  26.381   6.124
 4325POPC   C2B56828  12.616  26.412   6.421
 4325POPC   C3B56829  12.665  26.602   6.822
 4325POPC   C4B56830  12.522  26.472   7.218
 4326POPC   NC356831  19.011  11.532   5.344
 4326POPC   PO456832  19.385  10.926   5.397
 4326POPC   GL156833  19.131  11.113   5.727
 4326POPC   GL256834  19.333  11.378   5.851
 4326POPC   C1A56835  19.039  11.106   6.193
 4326POPC   D2A56836  18.930  10.927   6.619
 4326POPC   C3A56837  18.755  11.144   6.988
 4326POPC   C4A56838  18.969  11.298   7.386
 4326POPC   C1B56839  19.423  11.514   6.282
 4326POPC   C2B56840  19.301  11.540   6.735
 4326POPC   C3B56841  19.293  11.676   7.173
 4326POPC   C4B56842  19.438  12.025   7.474
 4327POPC   NC356843   2.974  25.817   5.454
 4327POPC   PO456844   2.409  26.229   5.451
 4327POPC   GL156845   2.560  26.026   5.836
 4327POPC   GL256846   2.925  26.059   5.896
 4327POPC   C1A56847   2.616  26.119   6.317
 4327POPC   D2A56848   2.631  25.897   6.722
 4327POPC   C3A56849   2.766  26.153   7.096
 4327POPC   C4A56850   2.708  26.236   7.561
 4327POPC   C1B56851   3.044  25.834   6.240
 4327POPC   C2B56852   3.152  25.934   6.647
 4327POPC   C3B56853   3.026  25.702   7.000
 4327POPC   C4B56854   2.969  25.813   7.429
 4328POPC   NC356855  12.362  42.859   5.028
 4328POPC   PO456856  12.221  42.935   5.669
 4328POPC   GL156857  12.135  43.266   5.989
 4328POPC   GL256858  11.812  43.391   6.014
 4328POPC   C1A56859  12.235  43.541   6.356
 4328POPC   D2A56860  12.222  43.601   6.818
 4328POPC   C3A56861  12.285  43.193   7.063
 4328POPC   C4A56862  12.313  42.782   7.307
 4328POPC   C1B56863  11.769  43.329   6.422
 4328POPC   C2B56864  11.811  43.258   6.841
 4328POPC   C3B56865  11.807  43.234   7.268
 4328POPC   C4B56866  11.798  43.517   7.609
 4329POPC   NC356867  15.531  24.648   5.366
 4329POPC   PO456868  16.188  24.362   5.304
 4329POPC   GL156869  15.976  24.527   5.676
 4329POPC   GL256870  16.134  24.811   5.819
 4329POPC   C1A56871  15.993  24.423   6.139
 4329POPC   D2A56872  16.141  24.553   6.554
 4329POPC   C3A56873  16.051  24.320   6.930
 4329POPC   C4A56874  16.273  24.480   7.286
 4329POPC   C1B56875  15.822  24.906   6.166
 4329POPC   C2B56876  15.716  24.990   6.617
 4329POPC   C3B56877  15.908  24.811   7.014
 4329POPC   C4B56878  15.844  24.727   7.488
 4330POPC   NC356879   2.647  10.046   5.585
 4330POPC   PO456880   2.960  10.556   5.244
 4330POPC   GL156881   2.811  10.597   5.666
 4330POPC   GL256882   2.896  10.331   5.925
 4330POPC   C1A56883   2.775  10.796   6.069
 4330POPC   D2A56884   2.819  10.554   6.426
 4330POPC   C3A56885   2.720  10.684   6.836
 4330POPC   C4A56886   2.835  10.426   7.179
 4330POPC   C1B56887   3.202  10.208   6.251
 4330POPC   C2B56888   3.310  10.253   6.678
 4330POPC   C3B56889   3.214  10.121   7.070
 4330POPC   C4B56890   3.128  10.157   7.536
 4331POPC   NC356891   9.981   0.202   5.459
 4331POPC   PO456892   9.591   0.652   5.654
 4331POPC   GL156893   9.731   0.347   5.876
 4331POPC   GL256894   9.445   0.166   5.872
 4331POPC   C1A56895   9.907   0.486   6.233
 4331POPC   D2A56896   9.842   0.780   6.524
 4331POPC   C3A56897   9.844   0.543   6.896
 4331POPC   C4A56898   9.598   0.592   7.255
 4331POPC   C1B56899   9.606   0.073   6.285
 4331POPC   C2B56900   9.728   0.013   6.693
 4331POPC   C3B56901   9.707   0.095   7.116
 4331POPC   C4B56902   9.739   0.173   7.540
 4332POPC   NC356903  17.242  27.263   5.106
 4332POPC   PO456904  17.608  26.825   5.525
 4332POPC   GL156905  17.541  26.822   5.941
 4332POPC   GL256906  17.648  27.189   5.914
 4332POPC   C1A56907  17.521  26.588   6.354
 4332POPC   D2A56908  17.178  26.588   6.684
 4332POPC   C3A56909  17.320  26.794   7.043
 4332POPC   C4A56910  17.708  26.677   7.197
 4332POPC   C1B56911  17.775  27.074   6.306
 4332POPC   C2B56912  17.521  27.017   6.622
 4332POPC   C3B56913  17.710  27.130   6.955
 4332POPC   C4B56914  17.566  27.171   7.350
 4333POPC   NC356915   9.284   3.020   5.195
 4333POPC   PO456916   9.033   3.612   5.472
 4333POPC   GL156917   8.898   3.532   5.906
 4333POPC   GL256918   9.192   3.409   5.999
 4333POPC   C1A56919   8.813   3.499   6.367
 4333POPC   D2A56920   8.934   3.752   6.735
 4333POPC   C3A56921   9.127   3.499   7.085
 4333POPC   C4A56922   8.955   3.117   7.318
 4333POPC   C1B56923   9.142   3.846   6.234
 4333POPC   C2B56924   9.361   4.061   6.577
 4333POPC   C3B56925   9.378   3.944   7.012
 4333POPC   C4B56926   9.330   3.879   7.468
 4334POPC   NC356927  11.123   2.340   5.307
 4334POPC   PO456928  11.446   1.730   5.231
 4334POPC   GL156929  11.436   2.096   5.630
 4334POPC   GL256930  11.630   1.903   5.893
 4334POPC   C1A56931  11.278   2.223   6.079
 4334POPC   D2A56932  11.378   2.104   6.523
 4334POPC   C3A56933  11.129   1.945   6.909
 4334POPC   C4A56934  11.251   2.114   7.328
 4334POPC   C1B56935  11.575   1.658   6.276
 4334POPC   C2B56936  11.577   1.676   6.709
 4334POPC   C3B56937  11.634   2.025   6.979
 4334POPC   C4B56938  11.623   1.759   7.299
 4335POPC   NC356939  40.427  20.816   5.078
 4335POPC   PO456940  39.882  20.486   5.208
 4335POPC   GL156941  40.037  20.462   5.692
 4335POPC   GL256942  40.340  20.669   5.823
 4335POPC   C1A56943  40.005  20.552   6.177
 4335POPC   D2A56944  39.940  20.849   6.555
 4335POPC   C3A56945  39.883  20.629   6.967
 4335POPC   C4A56946  39.792  20.546   7.431
 4335POPC   C1B56947  40.430  20.933   6.218
 4335POPC   C2B56948  40.586  21.039   6.625
 4335POPC   C3B56949  40.325  20.974   6.960
 4335POPC   C4B56950  40.218  20.809   7.327
 4336POPC   NC356951  39.737  34.144   5.388
 4336POPC   PO456952  39.801  34.825   5.440
 4336POPC   GL156953  40.006  34.574   5.764
 4336POPC   GL256954  39.919  34.215   5.871
 4336POPC   C1A56955  40.146  34.539   6.183
 4336POPC   D2A56956  39.955  34.512   6.573
 4336POPC   C3A56957  40.130  34.604   6.939
 4336POPC   C4A56958  39.946  34.710   7.295
 4336POPC   C1B56959  40.234  34.052   6.211
 4336POPC   C2B56960  40.338  34.187   6.639
 4336POPC   C3B56961  40.183  34.123   7.064
 4336POPC   C4B56962  40.197  34.314   7.477
 4337POPC   NC356963  19.670  34.843   5.357
 4337POPC   PO456964  20.080  34.294   5.464
 4337POPC   GL156965  20.001  34.701   5.717
 4337POPC   GL256966  19.686  34.773   5.885
 4337POPC   C1A56967  20.207  34.820   6.101
 4337POPC   D2A56968  20.015  34.594   6.422
 4337POPC   C3A56969  20.062  34.537   6.831
 4337POPC   C4A56970  20.188  34.601   7.234
 4337POPC   C1B56971  19.535  34.629   6.297
 4337POPC   C2B56972  19.584  34.713   6.726
 4337POPC   C3B56973  19.636  34.480   7.115
 4337POPC   C4B56974  19.807  34.374   7.529
 4338POPC   NC356975  29.803  25.665   5.406
 4338POPC   PO456976  30.122  26.235   5.413
 4338POPC   GL156977  29.904  26.100   5.786
 4338POPC   GL256978  30.028  25.774   5.837
 4338POPC   C1A56979  29.741  26.003   6.217
 4338POPC   D2A56980  29.591  25.923   6.637
 4338POPC   C3A56981  29.741  26.186   6.992
 4338POPC   C4A56982  29.641  25.912   7.331
 4338POPC   C1B56983  30.204  25.800   6.215
 4338POPC   C2B56984  30.077  25.690   6.623
 4338POPC   C3B56985  30.107  25.826   7.046
 4338POPC   C4B56986  30.482  25.903   7.253
 4339POPC   NC356987  27.649  25.400   5.437
 4339POPC   PO456988  27.957  26.007   5.466
 4339POPC   GL156989  27.943  25.628   5.805
 4339POPC   GL256990  27.571  25.511   5.922
 4339POPC   C1A56991  27.969  25.361   6.218
 4339POPC   D2A56992  27.987  25.088   6.617
 4339POPC   C3A56993  27.851  25.168   7.057
 4339POPC   C4A56994  27.732  24.939   7.440
 4339POPC   C1B56995  27.454  25.213   6.274
 4339POPC   C2B56996  27.463  25.091   6.732
 4339POPC   C3B56997  27.348  25.242   7.159
 4339POPC   C4B56998  27.294  25.171   7.587
 4340POPC   NC356999   0.344   2.225   5.332
 4340POPC   PO457000   0.670   1.619   5.433
 4340POPC   GL157001   0.481   1.672   5.859
 4340POPC   GL257002   0.261   1.972   5.822
 4340POPC   C1A57003   0.339   1.776   6.307
 4340POPC   D2A57004   0.133   2.139   6.555
 4340POPC   C3A57005   0.163   1.952   6.957
 4340POPC   C4A57006   0.560   1.844   7.178
 4340POPC   C1B57007   0.535   2.209   6.143
 4340POPC   C2B57008   0.649   2.113   6.604
 4340POPC   C3B57009   0.491   2.327   6.996
 4340POPC   C4B57010   0.246   2.257   7.385
 4341POPC   NC357011  29.895  10.417   5.546
 4341POPC   PO457012  29.760  10.995   5.312
 4341POPC   GL157013  29.926  10.877   5.800
 4341POPC   GL257014  29.754  10.583   5.999
 4341POPC   C1A57015  30.115  10.780   6.279
 4341POPC   D2A57016  29.931  10.506   6.655
 4341POPC   C3A57017  30.183  10.195   6.896
 4341POPC   C4A57018  30.274  10.151   7.371
 4341POPC   C1B57019  29.633  10.233   6.335
 4341POPC   C2B57020  29.734  10.011   6.746
 4341POPC   C3B57021  29.746  10.283   7.128
 4341POPC   C4B57022  29.635  10.721   7.056
 4342POPC   NC357023  38.197   2.454   5.402
 4342POPC   PO457024  38.514   3.033   5.369
 4342POPC   GL157025  38.503   2.788   5.757
 4342POPC   GL257026  38.750   2.493   5.769
 4342POPC   C1A57027  38.368   2.948   6.164
 4342POPC   D2A57028  38.432   2.793   6.589
 4342POPC   C3A57029  38.533   2.978   6.974
 4342POPC   C4A57030  38.380   2.688   7.287
 4342POPC   C1B57031  38.844   2.722   6.174
 4342POPC   C2B57032  38.938   2.840   6.612
 4342POPC   C3B57033  38.854   2.603   6.984
 4342POPC   C4B57034  38.883   2.495   7.373
 4343POPC   NC357035   9.881  24.934   5.389
 4343POPC   PO457036   9.445  24.451   5.479
 4343POPC   GL157037   9.798  24.567   5.735
 4343POPC   GL257038   9.964  24.310   5.893
 4343POPC   C1A57039   9.867  24.775   6.135
 4343POPC   D2A57040   9.857  24.571   6.562
 4343POPC   C3A57041   9.856  24.740   6.987
 4343POPC   C4A57042   9.941  24.509   7.366
 4343POPC   C1B57043   9.569  24.358   6.167
 4343POPC   C2B57044   9.508  24.198   6.606
 4343POPC   C3B57045   9.719  24.246   6.996
 4343POPC   C4B57046   9.614  24.128   7.406
 4344POPC   NC357047   6.122  39.256   5.500
 4344POPC   PO457048   5.442  39.387   5.536
 4344POPC   GL157049   5.761  39.333   5.901
 4344POPC   GL257050   6.024  39.041   5.951
 4344POPC   C1A57051   5.815  39.308   6.372
 4344POPC   D2A57052   6.165  39.316   6.701
 4344POPC   C3A57053   6.097  39.615   7.045
 4344POPC   C4A57054   5.873  39.578   7.462
 4344POPC   C1B57055   5.617  38.891   6.112
 4344POPC   C2B57056   5.419  38.974   6.500
 4344POPC   C3B57057   5.545  39.126   6.851
 4344POPC   C4B57058   5.865  39.171   7.119
 4345POPC   NC357059   1.027  38.324   5.074
 4345POPC   PO457060   1.426  38.546   5.577
 4345POPC   GL157061   1.408  38.426   5.924
 4345POPC   GL257062   1.059  38.414   5.932
 4345POPC   C1A57063   1.490  38.260   6.299
 4345POPC   D2A57064   1.266  38.443   6.605
 4345POPC   C3A57065   1.395  38.295   6.961
 4345POPC   C4A57066   1.279  38.315   7.380
 4345POPC   C1B57067   0.894  38.761   6.190
 4345POPC   C2B57068   1.009  38.909   6.595
 4345POPC   C3B57069   1.049  38.707   6.987
 4345POPC   C4B57070   0.882  38.618   7.366
 4346POPC   NC357071   6.323  29.294   5.208
 4346POPC   PO457072   5.587  29.193   5.282
 4346POPC   GL157073   5.776  29.213   5.725
 4346POPC   GL257074   5.871  28.917   5.862
 4346POPC   C1A57075   5.836  29.342   6.198
 4346POPC   D2A57076   6.149  29.425   6.557
 4346POPC   C3A57077   5.975  29.361   6.965
 4346POPC   C4A57078   5.822  29.272   7.371
 4346POPC   C1B57079   6.046  28.851   6.249
 4346POPC   C2B57080   6.029  28.935   6.678
 4346POPC   C3B57081   6.168  28.876   7.086
 4346POPC   C4B57082   5.949  28.758   7.425
 4347POPC   NC357083   4.547   7.957   5.489
 4347POPC   PO457084   4.274   8.637   5.487
 4347POPC   GL157085   4.456   8.409   5.870
 4347POPC   GL257086   4.254   8.106   5.896
 4347POPC   C1A57087   4.424   8.376   6.347
 4347POPC   D2A57088   4.151   8.450   6.737
 4347POPC   C3A57089   4.238   8.143   7.079
 4347POPC   C4A57090   4.585   7.811   7.057
 4347POPC   C1B57091   3.966   8.166   6.249
 4347POPC   C2B57092   3.974   7.960   6.643
 4347POPC   C3B57093   3.871   7.803   7.050
 4347POPC   C4B57094   3.941   7.944   7.491
 4348POPC   NC357095  20.858   7.181   5.567
 4348POPC   PO457096  21.417   7.551   5.452
 4348POPC   GL157097  21.434   7.570   5.891
 4348POPC   GL257098  21.083   7.525   5.911
 4348POPC   C1A57099  21.348   7.568   6.365
 4348POPC   D2A57100  21.201   7.753   6.750
 4348POPC   C3A57101  21.445   7.536   7.039
 4348POPC   C4A57102  21.541   7.231   7.333
 4348POPC   C1B57103  20.996   7.216   6.273
 4348POPC   C2B57104  21.125   7.215   6.742
 4348POPC   C3B57105  21.031   7.292   7.214
 4348POPC   C4B57106  21.167   7.198   7.669
 4349POPC   NC357107   6.416  19.465   5.419
 4349POPC   PO457108   6.464  18.838   5.484
 4349POPC   GL157109   6.696  18.933   5.846
 4349POPC   GL257110   6.820  19.241   5.715
 4349POPC   C1A57111   6.680  18.885   6.300
 4349POPC   D2A57112   6.319  18.974   6.566
 4349POPC   C3A57113   6.456  19.074   6.958
 4349POPC   C4A57114   6.882  19.014   7.115
 4349POPC   C1B57115   6.548  19.343   6.090
 4349POPC   C2B57116   6.569  19.456   6.538
 4349POPC   C3B57117   6.751  19.491   6.969
 4349POPC   C4B57118   6.511  19.459   7.315
 4350POPC   NC357119  16.272   6.140   5.495
 4350POPC   PO457120  15.869   6.676   5.255
 4350POPC   GL157121  15.881   6.672   5.738
 4350POPC   GL257122  16.148   6.466   5.911
 4350POPC   C1A57123  15.739   6.717   6.197
 4350POPC   D2A57124  15.520   6.822   6.613
 4350POPC   C3A57125  15.807   6.764   6.972
 4350POPC   C4A57126  16.194   6.918   7.131
 4350POPC   C1B57127  16.091   6.320   6.335
 4350POPC   C2B57128  16.170   6.505   6.743
 4350POPC   C3B57129  16.125   6.401   7.165
 4350POPC   C4B57130  16.035   6.239   7.544
 4351POPC   NC357131   8.586   5.125   5.411
 4351POPC   PO457132   7.981   4.806   5.377
 4351POPC   GL157133   8.150   4.654   5.779
 4351POPC   GL257134   8.512   4.533   5.778
 4351POPC   C1A57135   8.205   4.875   6.177
 4351POPC   D2A57136   8.147   5.113   6.548
 4351POPC   C3A57137   7.971   4.883   6.852
 4351POPC   C4A57138   8.034   5.011   7.254
 4351POPC   C1B57139   8.673   4.685   6.176
 4351POPC   C2B57140   8.633   4.987   6.541
 4351POPC   C3B57141   8.475   5.054   6.963
 4351POPC   C4B57142   8.462   4.737   7.272
 4352POPC   NC357143   8.900  15.606   5.061
 4352POPC   PO457144   8.713  15.090   5.479
 4352POPC   GL157145   8.810  15.205   5.900
 4352POPC   GL257146   9.090  15.421   5.841
 4352POPC   C1A57147   8.775  15.071   6.362
 4352POPC   D2A57148   9.041  14.945   6.712
 4352POPC   C3A57149   8.973  15.169   7.072
 4352POPC   C4A57150   9.062  15.133   7.514
 4352POPC   C1B57151   9.235  15.309   6.273
 4352POPC   C2B57152   9.342  15.395   6.725
 4352POPC   C3B57153   9.345  15.493   7.170
 4352POPC   C4B57154   9.428  15.500   7.606
 4353POPC   NC357155   1.879  36.401   5.481
 4353POPC   PO457156   2.405  35.932   5.476
 4353POPC   GL157157   2.288  36.246   5.817
 4353POPC   GL257158   1.929  36.209   5.948
 4353POPC   C1A57159   2.304  36.347   6.260
 4353POPC   D2A57160   2.051  36.139   6.592
 4353POPC   C3A57161   2.227  36.243   6.992
 4353POPC   C4A57162   2.016  36.295   7.384
 4353POPC   C1B57163   1.842  35.835   6.193
 4353POPC   C2B57164   1.670  35.781   6.625
 4353POPC   C3B57165   1.722  36.014   7.026
 4353POPC   C4B57166   1.809  35.845   7.474
 4354POPC   NC357167  21.346  36.134   5.590
 4354POPC   PO457168  21.941  36.507   5.441
 4354POPC   GL157169  21.673  36.388   5.851
 4354POPC   GL257170  21.344  36.412   6.021
 4354POPC   C1A57171  21.590  36.019   6.189
 4354POPC   D2A57172  21.526  35.887   6.602
 4354POPC   C3A57173  21.574  36.150   6.972
 4354POPC   C4A57174  21.509  36.428   7.341
 4354POPC   C1B57175  21.043  36.214   6.288
 4354POPC   C2B57176  21.071  36.126   6.698
 4354POPC   C3B57177  21.090  36.293   7.088
 4354POPC   C4B57178  21.041  36.022   7.396
 4355POPC   NC357179  12.978  42.528   5.339
 4355POPC   PO457180  12.517  42.097   5.212
 4355POPC   GL157181  12.743  42.295   5.692
 4355POPC   GL257182  12.921  42.018   5.781
 4355POPC   C1A57183  12.889  42.343   6.176
 4355POPC   D2A57184  13.124  42.212   6.567
 4355POPC   C3A57185  12.913  42.311   6.948
 4355POPC   C4A57186  12.753  42.540   7.305
 4355POPC   C1B57187  12.795  41.866   6.214
 4355POPC   C2B57188  12.617  42.033   6.584
 4355POPC   C3B57189  12.569  41.925   7.004
 4355POPC   C4B57190  12.711  42.034   7.427
 4356POPC   NC357191  40.812  18.798   5.113
 4356POPC   PO457192  40.733  18.161   5.388
 4356POPC   GL157193  40.635  18.107   5.811
 4356POPC   GL257194  40.733  18.460   5.817
 4356POPC   C1A57195  40.812  18.042   6.238
 4356POPC   D2A57196  40.822  18.307   6.613
 4356POPC   C3A57197  40.989  18.160   7.003
 4356POPC   C4A57198  41.235  17.843   7.167
 4356POPC   C1B57199  40.509  18.467   6.200
 4356POPC   C2B57200  40.390  18.551   6.636
 4356POPC   C3B57201  40.556  18.454   7.048
 4356POPC   C4B57202  40.890  18.658   7.265
 4357POPC   NC357203  34.290   1.264   5.329
 4357POPC   PO457204  34.938   1.050   5.251
 4357POPC   GL157205  34.725   1.244   5.642
 4357POPC   GL257206  34.474   0.969   5.734
 4357POPC   C1A57207  34.774   1.213   6.104
 4357POPC   D2A57208  34.640   0.897   6.418
 4357POPC   C3A57209  34.530   1.149   6.781
 4357POPC   C4A57210  34.676   1.439   7.107
 4357POPC   C1B57211  34.262   1.240   6.041
 4357POPC   C2B57212  34.147   1.406   6.477
 4357POPC   C3B57213  34.221   1.539   6.897
 4357POPC   C4B57214  34.225   1.346   7.316
 4358POPC   NC357215  17.217   3.702   5.446
 4358POPC   PO457216  17.829   3.910   5.415
 4358POPC   GL157217  17.645   3.702   5.751
 4358POPC   GL257218  17.591   3.383   5.671
 4358POPC   C1A57219  17.383   3.622   6.131
 4358POPC   D2A57220  17.442   3.835   6.525
 4358POPC   C3A57221  17.436   3.553   6.890
 4358POPC   C4A57222  17.462   3.671   7.315
 4358POPC   C1B57223  17.715   3.241   6.067
 4358POPC   C2B57224  17.721   3.378   6.491
 4358POPC   C3B57225  17.913   3.220   6.843
 4358POPC   C4B57226  17.820   3.277   7.258
 4359POPC   NC357227  12.826  41.656   5.349
 4359POPC   PO457228  12.404  41.953   5.718
 4359POPC   GL157229  12.639  41.565   5.851
 4359POPC   GL257230  13.013  41.519   5.826
 4359POPC   C1A57231  12.812  41.364   6.243
 4359POPC   D2A57232  12.973  41.613   6.605
 4359POPC   C3A57233  12.903  41.479   7.006
 4359POPC   C4A57234  13.030  41.638   7.366
 4359POPC   C1B57235  13.309  41.439   6.223
 4359POPC   C2B57236  13.376  41.313   6.695
 4359POPC   C3B57237  13.396  41.330   7.161
 4359POPC   C4B57238  13.306  41.287   7.605
 4360POPC   NC357239  16.033   3.623   5.482
 4360POPC   PO457240  15.570   3.116   5.410
 4360POPC   GL157241  15.676   3.230   5.851
 4360POPC   GL257242  15.971   3.441   5.944
 4360POPC   C1A57243  15.710   3.220   6.317
 4360POPC   D2A57244  16.077   3.322   6.579
 4360POPC   C3A57245  16.012   3.423   7.020
 4360POPC   C4A57246  16.022   3.600   7.437
 4360POPC   C1B57247  15.939   3.748   6.267
 4360POPC   C2B57248  15.819   3.803   6.685
 4360POPC   C3B57249  15.873   3.932   7.089
 4360POPC   C4B57250  15.726   4.004   7.516
 4361POPC   NC357251   3.919  28.671   5.045
 4361POPC   PO457252   3.930  28.220   5.605
 4361POPC   GL157253   4.094  28.374   5.978
 4361POPC   GL257254   4.102  28.052   6.116
 4361POPC   C1A57255   4.138  28.707   6.256
 4361POPC   D2A57256   4.238  28.589   6.662
 4361POPC   C3A57257   3.997  28.694   6.988
 4361POPC   C4A57258   4.198  28.644   7.357
 4361POPC   C1B57259   4.506  28.091   6.315
 4361POPC   C2B57260   4.554  28.067   6.747
 4361POPC   C3B57261   4.306  28.243   7.064
 4361POPC   C4B57262   4.204  28.138   7.486
 4362POPC   NC357263   3.066  25.067   5.326
 4362POPC   PO457264   2.579  25.544   5.441
 4362POPC   GL157265   2.918  25.382   5.713
 4362POPC   GL257266   2.834  25.054   5.793
 4362POPC   C1A57267   2.998  25.334   6.159
 4362POPC   D2A57268   2.824  25.456   6.543
 4362POPC   C3A57269   2.920  25.160   6.848
 4362POPC   C4A57270   3.113  25.243   7.228
 4362POPC   C1B57271   2.887  24.831   6.186
 4362POPC   C2B57272   2.575  24.857   6.506
 4362POPC   C3B57273   2.430  24.924   6.916
 4362POPC   C4B57274   2.631  25.026   7.264
 4363POPC   NC357275   8.609  14.653   5.337
 4363POPC   PO457276   9.065  14.175   5.283
 4363POPC   GL157277   8.852  14.297   5.700
 4363POPC   GL257278   8.813  14.664   5.846
 4363POPC   C1A57279   8.961  14.261   6.153
 4363POPC   D2A57280   8.798  14.127   6.540
 4363POPC   C3A57281   8.872  14.416   6.879
 4363POPC   C4A57282   8.899  14.288   7.304
 4363POPC   C1B57283   9.134  14.749   6.224
 4363POPC   C2B57284   9.267  14.519   6.552
 4363POPC   C3B57285   9.359  14.533   6.998
 4363POPC   C4B57286   9.218  14.674   7.413
 4364POPC   NC357287   0.172  38.295   5.591
 4364POPC   PO457288   0.758  38.547   5.384
 4364POPC   GL157289   0.584  38.561   5.780
 4364POPC   GL257290   0.369  38.827   5.701
 4364POPC   C1A57291   0.587  38.341   6.180
 4364POPC   D2A57292   0.743  38.459   6.589
 4364POPC   C3A57293   0.414  38.415   6.876
 4364POPC   C4A57294   0.411  38.389   7.285
 4364POPC   C1B57295   0.367  38.857   6.169
 4364POPC   C2B57296   0.330  38.853   6.630
 4364POPC   C3B57297   0.556  38.864   7.061
 4364POPC   C4B57298   0.463  38.821   7.543
 4365POPC   NC357299   6.354  41.032   5.435
 4365POPC   PO457300   5.835  40.570   5.460
 4365POPC   GL157301   6.081  40.728   5.788
 4365POPC   GL257302   5.955  41.032   5.763
 4365POPC   C1A57303   6.024  40.639   6.203
 4365POPC   D2A57304   5.707  40.537   6.506
 4365POPC   C3A57305   5.897  40.599   6.893
 4365POPC   C4A57306   5.880  40.742   7.281
 4365POPC   C1B57307   6.076  41.151   6.160
 4365POPC   C2B57308   5.952  41.027   6.559
 4365POPC   C3B57309   6.165  41.023   6.949
 4365POPC   C4B57310   6.097  41.207   7.337
 4366POPC   NC357311  36.728  24.698   5.434
 4366POPC   PO457312  36.985  24.081   5.296
 4366POPC   GL157313  37.019  24.309   5.753
 4366POPC   GL257314  36.736  24.482   5.914
 4366POPC   C1A57315  37.115  24.326   6.237
 4366POPC   D2A57316  36.772  24.561   6.533
 4366POPC   C3A57317  36.703  24.418   6.959
 4366POPC   C4A57318  37.095  24.224   7.032
 4366POPC   C1B57319  37.036  24.804   6.130
 4366POPC   C2B57320  37.243  24.777   6.570
 4366POPC   C3B57321  37.093  24.793   6.966
 4366POPC   C4B57322  36.851  24.786   7.316
 4367POPC   NC357323  21.188   9.997   5.486
 4367POPC   PO457324  20.798   9.423   5.373
 4367POPC   GL157325  20.658   9.614   5.762
 4367POPC   GL257326  20.839   9.910   5.846
 4367POPC   C1A57327  20.409   9.792   6.112
 4367POPC   D2A57328  20.348   9.927   6.533
 4367POPC   C3A57329  20.321   9.566   6.791
 4367POPC   C4A57330  20.565   9.535   7.146
 4367POPC   C1B57331  20.927   9.673   6.192
 4367POPC   C2B57332  20.763   9.522   6.529
 4367POPC   C3B57333  20.785   9.825   6.805
 4367POPC   C4B57334  21.012   9.803   7.187
 4368POPC   NC357335  35.624  31.684   5.479
 4368POPC   PO457336  34.994  31.352   5.472
 4368POPC   GL157337  35.306  31.306   5.776
 4368POPC   GL257338  35.155  31.543   5.932
 4368POPC   C1A57339  35.564  31.413   6.181
 4368POPC   D2A57340  35.564  31.662   6.555
 4368POPC   C3A57341  35.739  31.511   6.941
 4368POPC   C4A57342  35.506  31.390   7.283
 4368POPC   C1B57343  34.963  31.220   6.180
 4368POPC   C2B57344  34.930  31.127   6.614
 4368POPC   C3B57345  35.086  31.295   7.021
 4368POPC   C4B57346  35.062  31.130   7.446
 4369POPC   NC357347   2.788  27.332   5.372
 4369POPC   PO457348   2.616  27.923   5.359
 4369POPC   GL157349   2.823  27.717   5.719
 4369POPC   GL257350   3.178  27.593   5.707
 4369POPC   C1A57351   2.834  27.462   6.119
 4369POPC   D2A57352   2.642  27.590   6.521
 4369POPC   C3A57353   2.844  27.441   6.892
 4369POPC   C4A57354   2.604  27.498   7.226
 4369POPC   C1B57355   3.168  27.859   6.098
 4369POPC   C2B57356   3.138  27.708   6.553
 4369POPC   C3B57357   3.097  27.866   6.998
 4369POPC   C4B57358   3.002  27.716   7.433
 4370POPC   NC357359   4.490  21.563   5.266
 4370POPC   PO457360   5.059  21.867   5.135
 4370POPC   GL157361   5.111  21.467   5.497
 4370POPC   GL257362   4.773  21.323   5.654
 4370POPC   C1A57363   5.222  21.425   5.992
 4370POPC   D2A57364   5.562  21.342   6.363
 4370POPC   C3A57365   5.484  21.493   6.814
 4370POPC   C4A57366   5.150  21.408   7.108
 4370POPC   C1B57367   4.738  21.118   6.072
 4370POPC   C2B57368   4.695  21.147   6.534
 4370POPC   C3B57369   4.676  21.292   6.967
 4370POPC   C4B57370   4.809  21.152   7.402
 4371POPC   NC357371  32.814  42.173   5.355
 4371POPC   PO457372  33.068  42.776   5.432
 4371POPC   GL157373  32.872  42.626   5.809
 4371POPC   GL257374  33.025  42.296   5.838
 4371POPC   C1A57375  33.052  42.614   6.259
 4371POPC   D2A57376  32.991  42.397   6.655
 4371POPC   C3A57377  33.116  42.572   7.074
 4371POPC   C4A57378  33.095  42.347   7.493
 4371POPC   C1B57379  33.060  42.042   6.239
 4371POPC   C2B57380  33.171  41.857   6.650
 4371POPC   C3B57381  33.054  42.067   7.031
 4371POPC   C4B57382  32.670  42.247   7.106
 4372POPC   NC357383  34.622  37.338   5.376
 4372POPC   PO457384  34.202  37.846   5.439
 4372POPC   GL157385  34.322  37.573   5.757
 4372POPC   GL257386  34.659  37.713   5.739
 4372POPC   C1A57387  34.448  37.501   6.187
 4372POPC   D2A57388  34.385  37.705   6.566
 4372POPC   C3A57389  34.274  37.524   6.920
 4372POPC   C4A57390  34.415  37.681   7.319
 4372POPC   C1B57391  34.914  37.691   6.109
 4372POPC   C2B57392  34.885  37.618   6.530
 4372POPC   C3B57393  34.786  37.574   6.948
 4372POPC   C4B57394  34.991  37.456   7.313
 4373POPC   NC357395  34.418  38.248   5.641
 4373POPC   PO457396  34.784  38.839   5.574
 4373POPC   GL157397  34.470  38.734   5.882
 4373POPC   GL257398  34.714  38.488   6.005
 4373POPC   C1A57399  34.326  38.569   6.297
 4373POPC   D2A57400  34.446  38.538   6.709
 4373POPC   C3A57401  34.552  38.845   6.951
 4373POPC   C4A57402  34.881  38.642   7.148
 4373POPC   C1B57403  34.653  38.142   6.314
 4373POPC   C2B57404  34.697  38.073   6.750
 4373POPC   C3B57405  34.713  38.071   7.189
 4373POPC   C4B57406  34.882  37.889   7.597
 4374POPC   NC357407  20.037   7.107   5.438
 4374POPC   PO457408  20.044   6.438   5.299
 4374POPC   GL157409  19.960   6.671   5.719
 4374POPC   GL257410  20.266   6.922   5.834
 4374POPC   C1A57411  19.746   6.546   6.118
 4374POPC   D2A57412  19.858   6.355   6.514
 4374POPC   C3A57413  19.732   6.591   6.848
 4374POPC   C4A57414  19.806   6.466   7.252
 4374POPC   C1B57415  20.033   6.978   6.199
 4374POPC   C2B57416  20.133   6.815   6.599
 4374POPC   C3B57417  20.074   6.910   7.035
 4374POPC   C4B57418  19.957   7.251   7.258
 4375POPC   NC357419   9.937  14.973   5.384
 4375POPC   PO457420  10.519  15.355   5.439
 4375POPC   GL157421  10.427  15.198   5.828
 4375POPC   GL257422  10.325  14.901   5.699
 4375POPC   C1A57423  10.525  15.027   6.248
 4375POPC   D2A57424  10.762  14.920   6.640
 4375POPC   C3A57425  10.638  15.078   7.034
 4375POPC   C4A57426  10.407  15.380   7.251
 4375POPC   C1B57427  10.110  14.792   6.064
 4375POPC   C2B57428  10.072  14.898   6.506
 4375POPC   C3B57429  10.149  15.057   6.886
 4375POPC   C4B57430  10.236  14.878   7.284
 4376POPC   NC357431  12.423  14.620   5.456
 4376POPC   PO457432  11.870  14.233   5.438
 4376POPC   GL157433  12.028  14.389   5.795
 4376POPC   GL257434  12.333  14.242   5.850
 4376POPC   C1A57435  11.913  14.322   6.207
 4376POPC   D2A57436  12.045  14.496   6.596
 4376POPC   C3A57437  11.862  14.562   6.983
 4376POPC   C4A57438  12.013  14.367   7.386
 4376POPC   C1B57439  12.367  14.577   6.190
 4376POPC   C2B57440  12.474  14.745   6.636
 4376POPC   C3B57441  12.341  14.656   7.098
 4376POPC   C4B57442  12.364  14.703   7.605
 4377POPC   NC357443   0.520  24.917   5.588
 4377POPC   PO457444   0.335  24.351   5.242
 4377POPC   GL157445   0.406  24.237   5.740
 4377POPC   GL257446   0.415  24.521   5.885
 4377POPC   C1A57447   0.567  24.230   6.245
 4377POPC   D2A57448   0.418  24.406   6.662
 4377POPC   C3A57449   0.614  24.228   7.058
 4377POPC   C4A57450   0.441  24.193   7.495
 4377POPC   C1B57451   0.397  24.747   6.277
 4377POPC   C2B57452  44.977  24.806   6.442
 4377POPC   C3B57453   0.040  24.780   6.868
 4377POPC   C4B57454   0.263  24.633   7.224
 4378POPC   NC357455  16.429   5.153   5.484
 4378POPC   PO457456  17.130   5.412   5.582
 4378POPC   GL157457  16.825   5.137   5.804
 4378POPC   GL257458  16.571   5.357   5.916
 4378POPC   C1A57459  16.642   4.958   6.218
 4378POPC   D2A57460  16.917   4.799   6.550
 4378POPC   C3A57461  16.931   4.939   6.980
 4378POPC   C4A57462  16.856   4.825   7.377
 4378POPC   C1B57463  16.966   5.368   6.231
 4378POPC   C2B57464  16.862   5.329   6.632
 4378POPC   C3B57465  16.508   5.175   6.841
 4378POPC   C4B57466  16.530   5.242   7.245
 4379POPC   NC357467  26.114  22.376   5.308
 4379POPC   PO457468  25.790  21.821   5.418
 4379POPC   GL157469  26.065  22.033   5.756
 4379POPC   GL257470  26.323  22.310   5.803
 4379POPC   C1A57471  26.174  21.998   6.207
 4379POPC   D2A57472  26.035  22.253   6.575
 4379POPC   C3A57473  26.030  22.072   6.976
 4379POPC   C4A57474  26.332  21.786   7.113
 4379POPC   C1B57475  26.436  22.420   6.253
 4379POPC   C2B57476  26.533  22.179   6.659
 4379POPC   C3B57477  26.481  22.287   7.108
 4379POPC   C4B57478  26.136  22.518   7.293
 4380POPC   NC357479  40.503   1.617   5.428
 4380POPC   PO457480  40.989   2.097   5.360
 4380POPC   GL157481  40.799   2.017   5.751
 4380POPC   GL257482  40.889   1.683   5.851
 4380POPC   C1A57483  40.662   2.032   6.187
 4380POPC   D2A57484  40.764   2.332   6.508
 4380POPC   C3A57485  40.707   2.203   6.915
 4380POPC   C4A57486  40.969   1.972   7.184
 4380POPC   C1B57487  40.643   1.487   6.181
 4380POPC   C2B57488  40.426   1.532   6.577
 4380POPC   C3B57489  40.592   1.700   6.953
 4380POPC   C4B57490  40.496   1.816   7.392
 4381POPC   NC357491  33.748  32.286   5.474
 4381POPC   PO457492  34.373  32.108   5.678
 4381POPC   GL157493  34.020  32.211   5.922
 4381POPC   GL257494  33.747  31.970   5.887
 4381POPC   C1A57495  33.777  32.232   6.315
 4381POPC   D2A57496  33.399  32.274   6.580
 4381POPC   C3A57497  33.473  32.219   7.019
 4381POPC   C4A57498  33.814  32.448   7.224
 4381POPC   C1B57499  34.052  31.779   6.194
 4381POPC   C2B57500  34.125  31.961   6.605
 4381POPC   C3B57501  33.953  32.003   7.011
 4381POPC   C4B57502  34.056  31.901   7.436
 4382POPC   NC357503  23.445  43.303   5.397
 4382POPC   PO457504  23.958  42.811   5.181
 4382POPC   GL157505  23.821  43.045   5.645
 4382POPC   GL257506  24.024  43.300   5.815
 4382POPC   C1A57507  23.635  43.180   6.129
 4382POPC   D2A57508  23.452  43.320   6.612
 4382POPC   C3A57509  23.581  43.229   7.088
 4382POPC   C4A57510  23.848  43.217   7.504
 4382POPC   C1B57511  24.055  43.462   6.258
 4382POPC   C2B57512  23.957  43.408   6.715
 4382POPC   C3B57513  24.123  43.149   7.080
 4382POPC   C4B57514  24.368  43.021   7.460
 4383POPC   NC357515  38.840   4.190   5.417
 4383POPC   PO457516  39.419   3.980   5.344
 4383POPC   GL157517  39.314   4.203   5.706
 4383POPC   GL257518  39.107   4.510   5.730
 4383POPC   C1A57519  39.316   4.079   6.137
 4383POPC   D2A57520  39.196   4.161   6.547
 4383POPC   C3A57521  38.944   4.022   6.843
 4383POPC   C4A57522  39.112   4.242   7.185
 4383POPC   C1B57523  39.355   4.586   6.037
 4383POPC   C2B57524  39.349   4.626   6.444
 4383POPC   C3B57525  39.373   4.576   6.877
 4383POPC   C4B57526  39.142   4.747   7.190
 4384POPC   NC357527  38.001  24.848   5.506
 4384POPC   PO457528  37.263  24.699   5.484
 4384POPC   GL157529  37.494  24.514   5.824
 4384POPC   GL257530  37.861  24.498   5.873
 4384POPC   C1A57531  37.567  24.640   6.231
 4384POPC   D2A57532  37.785  24.499   6.579
 4384POPC   C3A57533  37.529  24.481   6.925
 4384POPC   C4A57534  37.342  24.548   7.337
 4384POPC   C1B57535  38.068  24.773   6.164
 4384POPC   C2B57536  38.223  24.760   6.560
 4384POPC   C3B57537  38.039  24.807   6.962
 4384POPC   C4B57538  37.833  24.639   7.296
 4385POPC   NC357539  18.399  36.027   5.416
 4385POPC   PO457540  17.773  35.940   5.351
 4385POPC   GL157541  18.052  35.899   5.804
 4385POPC   GL257542  18.447  35.861   5.896
 4385POPC   C1A57543  18.153  35.946   6.318
 4385POPC   D2A57544  18.402  35.880   6.726
 4385POPC   C3A57545  18.195  35.907   7.134
 4385POPC   C4A57546  17.892  36.132   7.373
 4385POPC   C1B57547  18.510  36.282   6.143
 4385POPC   C2B57548  18.590  36.504   6.589
 4385POPC   C3B57549  18.656  36.287   6.970
 4385POPC   C4B57550  18.706  35.871   7.159
 4386POPC   NC357551  28.205  28.276   5.455
 4386POPC   PO457552  28.783  28.573   5.232
 4386POPC   GL157553  28.695  28.411   5.658
 4386POPC   GL257554  28.457  28.653   5.758
 4386POPC   C1A57555  28.729  28.424   6.147
 4386POPC   D2A57556  28.482  28.344   6.533
 4386POPC   C3A57557  28.608  28.228   6.938
 4386POPC   C4A57558  28.698  28.553   7.215
 4386POPC   C1B57559  28.208  28.548   6.149
 4386POPC   C2B57560  27.996  28.537   6.570
 4386POPC   C3B57561  28.152  28.512   7.001
 4386POPC   C4B57562  27.898  28.235   7.242
 4387POPC   NC357563   6.773  12.579   5.321
 4387POPC   PO457564   6.158  12.832   5.406
 4387POPC   GL157565   6.450  13.016   5.727
 4387POPC   GL257566   6.616  12.708   5.826
 4387POPC   C1A57567   6.825  13.138   6.021
 4387POPC   D2A57568   6.971  13.115   6.490
 4387POPC   C3A57569   6.675  13.114   6.887
 4387POPC   C4A57570   6.469  13.167   7.329
 4387POPC   C1B57571   6.469  12.857   6.242
 4387POPC   C2B57572   6.517  12.683   6.654
 4387POPC   C3B57573   6.361  12.738   7.076
 4387POPC   C4B57574   6.616  12.675   7.427
 4388POPC   NC357575   8.580   3.488   5.514
 4388POPC   PO457576   7.939   3.303   5.385
 4388POPC   GL157577   8.074   3.593   5.800
 4388POPC   GL257578   8.383   3.625   5.955
 4388POPC   C1A57579   7.979   3.439   6.243
 4388POPC   D2A57580   7.881   3.612   6.632
 4388POPC   C3A57581   7.973   3.387   6.952
 4388POPC   C4A57582   8.157   3.495   7.304
 4388POPC   C1B57583   8.365   3.720   6.382
 4388POPC   C2B57584   8.441   3.518   6.762
 4388POPC   C3B57585   8.628   3.455   7.154
 4388POPC   C4B57586   8.513   3.348   7.616
 4389POPC   NC357587  26.914  19.159   5.259
 4389POPC   PO457588  26.908  18.624   5.627
 4389POPC   GL157589  26.889  19.035   5.749
 4389POPC   GL257590  26.646  19.301   5.667
 4389POPC   C1A57591  27.075  19.149   6.100
 4389POPC   D2A57592  26.953  19.286   6.484
 4389POPC   C3A57593  27.085  19.013   6.789
 4389POPC   C4A57594  26.864  18.896   7.138
 4389POPC   C1B57595  26.558  19.250   6.103
 4389POPC   C2B57596  26.408  19.376   6.523
 4389POPC   C3B57597  26.630  19.297   6.905
 4389POPC   C4B57598  26.678  19.302   7.358
 4390POPC   NC357599  35.218  26.637   5.390
 4390POPC   PO457600  35.196  25.977   5.346
 4390POPC   GL157601  35.128  26.159   5.748
 4390POPC   GL257602  35.432  26.362   5.763
 4390POPC   C1A57603  35.289  26.018   6.162
 4390POPC   D2A57604  35.584  25.795   6.447
 4390POPC   C3A57605  35.499  25.898   6.868
 4390POPC   C4A57606  35.318  25.801   7.258
 4390POPC   C1B57607  35.406  26.536   6.152
 4390POPC   C2B57608  35.372  26.342   6.556
 4390POPC   C3B57609  35.280  26.451   6.959
 4390POPC   C4B57610  35.441  26.604   7.325
 4391POPC   NC357611  43.167  34.544   5.469
 4391POPC   PO457612  42.853  35.011   5.373
 4391POPC   GL157613  42.790  34.843   5.782
 4391POPC   GL257614  42.684  34.500   5.672
 4391POPC   C1A57615  42.828  34.805   6.247
 4391POPC   D2A57616  43.106  34.919   6.549
 4391POPC   C3A57617  43.118  34.739   6.938
 4391POPC   C4A57618  43.283  34.724   7.333
 4391POPC   C1B57619  42.829  34.331   6.076
 4391POPC   C2B57620  42.849  34.343   6.554
 4391POPC   C3B57621  43.169  34.216   6.876
 4391POPC   C4B57622  43.165  34.176   7.303
 4392POPC   NC357623   9.693  14.157   5.227
 4392POPC   PO457624   9.330  14.503   5.662
 4392POPC   GL157625   9.718  14.468   5.879
 4392POPC   GL257626   9.789  14.107   5.894
 4392POPC   C1A57627   9.790  14.502   6.330
 4392POPC   D2A57628  10.020  14.355   6.653
 4392POPC   C3A57629   9.886  14.625   6.952
 4392POPC   C4A57630   9.786  14.629   7.347
 4392POPC   C1B57631   9.467  14.138   6.254
 4392POPC   C2B57632   9.570  14.158   6.697
 4392POPC   C3B57633   9.716  14.160   7.086
 4392POPC   C4B57634   9.432  14.229   7.406
 4393POPC   NC357635  21.908  41.605   5.136
 4393POPC   PO457636  21.229  41.573   5.298
 4393POPC   GL157637  21.350  41.554   5.745
 4393POPC   GL257638  21.122  41.274   5.819
 4393POPC   C1A57639  21.512  41.638   6.198
 4393POPC   D2A57640  21.398  41.717   6.630
 4393POPC   C3A57641  21.532  41.537   7.030
 4393POPC   C4A57642  21.482  41.715   7.460
 4393POPC   C1B57643  21.247  41.183   6.221
 4393POPC   C2B57644  21.415  41.185   6.606
 4393POPC   C3B57645  21.175  41.127   6.969
 4393POPC   C4B57646  21.238  41.276   7.380
 4394POPC   NC357647  24.316  31.285   5.262
 4394POPC   PO457648  24.551  31.933   5.307
 4394POPC   GL157649  24.473  31.600   5.669
 4394POPC   GL257650  24.617  31.226   5.791
 4394POPC   C1A57651  24.276  31.488   6.085
 4394POPC   D2A57652  24.483  31.319   6.452
 4394POPC   C3A57653  24.540  31.527   6.868
 4394POPC   C4A57654  24.381  31.530   7.312
 4394POPC   C1B57655  24.818  30.993   6.208
 4394POPC   C2B57656  24.843  31.074   6.717
 4394POPC   C3B57657  24.590  31.063   7.161
 4394POPC   C4B57658  24.325  31.112   7.599
 4395POPC   NC357659  32.858   4.099   5.365
 4395POPC   PO457660  33.336   4.579   5.413
 4395POPC   GL157661  33.115   4.305   5.808
 4395POPC   GL257662  32.767   4.183   5.902
 4395POPC   C1A57663  33.041   4.286   6.314
 4395POPC   D2A57664  33.042   4.454   6.770
 4395POPC   C3A57665  33.224   4.293   7.168
 4395POPC   C4A57666  33.084   4.227   7.613
 4395POPC   C1B57667  32.516   4.111   6.291
 4395POPC   C2B57668  32.625   4.160   6.741
 4395POPC   C3B57669  32.736   4.163   7.193
 4395POPC   C4B57670  32.750   3.851   7.540
 4396POPC   NC357671  37.506  31.454   5.370
 4396POPC   PO457672  38.133  31.160   5.397
 4396POPC   GL157673  37.976  31.404   5.779
 4396POPC   GL257674  37.675  31.612   5.814
 4396POPC   C1A57675  37.778  31.335   6.209
 4396POPC   D2A57676  37.580  31.518   6.566
 4396POPC   C3A57677  37.743  31.387   6.972
 4396POPC   C4A57678  37.429  31.256   7.238
 4396POPC   C1B57679  37.688  31.883   6.173
 4396POPC   C2B57680  37.446  32.012   6.535
 4396POPC   C3B57681  37.575  31.895   6.952
 4396POPC   C4B57682  37.602  31.721   7.350
 4397POPC   NC357683  23.095  32.495   5.519
 4397POPC   PO457684  22.639  32.027   5.454
 4397POPC   GL157685  22.861  32.176   5.832
 4397POPC   GL257686  23.257  32.105   5.820
 4397POPC   C1A57687  22.952  32.294   6.248
 4397POPC   D2A57688  22.940  32.627   6.553
 4397POPC   C3A57689  23.077  32.494   6.960
 4397POPC   C4A57690  23.008  32.714   7.341
 4397POPC   C1B57691  23.486  32.193   6.213
 4397POPC   C2B57692  23.302  32.135   6.611
 4397POPC   C3B57693  23.328  31.996   7.018
 4397POPC   C4B57694  23.213  32.206   7.412
 4398POPC   NC357695  34.655  41.997   5.488
 4398POPC   PO457696  34.268  41.401   5.369
 4398POPC   GL157697  34.557  41.528   5.684
 4398POPC   GL257698  34.364  41.776   5.839
 4398POPC   C1A57699  34.626  41.447   6.141
 4398POPC   D2A57700  34.468  41.474   6.584
 4398POPC   C3A57701  34.756  41.529   6.935
 4398POPC   C4A57702  34.758  41.263   7.301
 4398POPC   C1B57703  34.613  41.957   6.196
 4398POPC   C2B57704  34.456  42.012   6.613
 4398POPC   C3B57705  34.322  41.799   7.004
 4398POPC   C4B57706  34.321  41.950   7.424
 4399POPC   NC357707  12.981  22.947   5.400
 4399POPC   PO457708  12.329  22.809   5.481
 4399POPC   GL157709  12.655  22.827   5.797
 4399POPC   GL257710  12.929  22.588   5.783
 4399POPC   C1A57711  12.648  22.811   6.230
 4399POPC   D2A57712  12.666  23.101   6.563
 4399POPC   C3A57713  12.700  22.982   6.958
 4399POPC   C4A57714  12.441  22.862   7.265
 4399POPC   C1B57715  13.138  22.692   6.180
 4399POPC   C2B57716  13.065  22.788   6.594
 4399POPC   C3B57717  13.217  22.943   6.954
 4399POPC   C4B57718  13.102  23.243   7.211
 4400POPC   NC357719  20.928  37.055   5.246
 4400POPC   PO457720  20.852  37.646   5.331
 4400POPC   GL157721  20.774  37.547   5.773
 4400POPC   GL257722  20.515  37.310   5.760
 4400POPC   C1A57723  20.758  37.669   6.226
 4400POPC   D2A57724  20.893  37.507   6.628
 4400POPC   C3A57725  20.660  37.604   6.973
 4400POPC   C4A57726  20.735  37.733   7.380
 4400POPC   C1B57727  20.320  37.324   6.176
 4400POPC   C2B57728  20.332  37.521   6.574
 4400POPC   C3B57729  20.280  37.269   6.942
 4400POPC   C4B57730  20.442  37.300   7.349
 4401POPC   NC357731  40.260  18.146   5.420
 4401POPC   PO457732  39.676  18.542   5.334
 4401POPC   GL157733  39.925  18.456   5.696
 4401POPC   GL257734  39.822  18.125   5.728
 4401POPC   C1A57735  39.999  18.597   6.153
 4401POPC   D2A57736  39.935  18.346   6.523
 4401POPC   C3A57737  39.981  18.492   6.925
 4401POPC   C4A57738  40.106  18.359   7.325
 4401POPC   C1B57739  40.138  18.118   6.086
 4401POPC   C2B57740  40.359  18.066   6.494
 4401POPC   C3B57741  40.273  18.018   6.932
 4401POPC   C4B57742  40.510  18.025   7.332
 4402POPC   NC357743  44.376  31.053   5.396
 4402POPC   PO457744  44.787  30.428   5.377
 4402POPC   GL157745  44.641  30.432   5.813
 4402POPC   GL257746  44.374  30.645   5.789
 4402POPC   C1A57747  44.602  30.291   6.220
 4402POPC   D2A57748  44.795  30.480   6.545
 4402POPC   C3A57749  44.609  30.488   6.947
 4402POPC   C4A57750  44.791  30.626   7.300
 4402POPC   C1B57751  44.553  30.822   6.178
 4402POPC   C2B57752  44.527  31.028   6.583
 4402POPC   C3B57753  44.635  31.054   7.020
 4402POPC   C4B57754  44.334  30.843   7.274
 4403POPC   NC357755   2.242  29.020   5.108
 4403POPC   PO457756   2.755  29.399   5.480
 4403POPC   GL157757   2.937  29.200   5.790
 4403POPC   GL257758   3.191  29.457   5.806
 4403POPC   C1A57759   2.754  29.066   6.178
 4403POPC   D2A57760   2.564  29.227   6.544
 4403POPC   C3A57761   2.685  29.061   6.936
 4403POPC   C4A57762   2.400  28.971   7.273
 4403POPC   C1B57763   3.224  29.335   6.205
 4403POPC   C2B57764   3.081  29.180   6.557
 4403POPC   C3B57765   3.177  29.328   6.913
 4403POPC   C4B57766   3.074  29.130   7.262
 4404POPC   NC357767   9.082  32.760   5.591
 4404POPC   PO457768   8.674  32.283   5.225
 4404POPC   GL157769   8.718  32.438   5.706
 4404POPC   GL257770   9.091  32.295   5.789
 4404POPC   C1A57771   8.808  32.435   6.192
 4404POPC   D2A57772   9.059  32.306   6.576
 4404POPC   C3A57773   8.767  32.222   6.925
 4404POPC   C4A57774   8.752  32.409   7.353
 4404POPC   C1B57775   9.210  32.052   6.154
 4404POPC   C2B57776   9.481  31.970   6.519
 4404POPC   C3B57777   9.313  31.978   6.928
 4404POPC   C4B57778   9.065  31.989   7.274
 4405POPC   NC357779  17.297  43.657   5.263
 4405POPC   PO457780  17.911  43.958   5.180
 4405POPC   GL157781  17.939  43.927   5.679
 4405POPC   GL257782  17.972  43.568   5.682
 4405POPC   C1A57783  17.882  44.083   6.175
 4405POPC   D2A57784  17.629  44.190   6.602
 4405POPC   C3A57785  17.709  43.944   6.995
 4405POPC   C4A57786  17.336  43.661   7.093
 4405POPC   C1B57787  17.676  43.612   6.046
 4405POPC   C2B57788  17.724  43.654   6.517
 4405POPC   C3B57789  17.766  43.437   6.930
 4405POPC   C4B57790  17.681  43.458   7.400
 4406POPC   NC357791   6.716  43.983   5.430
 4406POPC   PO457792   6.192  44.385   5.539
 4406POPC   GL157793   6.433  44.141   5.825
 4406POPC   GL257794   6.346  43.766   5.816
 4406POPC   C1A57795   6.631  43.962   6.210
 4406POPC   D2A57796   6.651  44.065   6.649
 4406POPC   C3A57797   6.762  43.689   6.868
 4406POPC   C4A57798   7.066  43.579   7.163
 4406POPC   C1B57799   6.274  43.545   6.236
 4406POPC   C2B57800   6.273  43.724   6.681
 4406POPC   C3B57801   6.316  43.777   7.149
 4406POPC   C4B57802   6.206  43.807   7.611
 4407POPC   NC357803  33.680  27.767   5.331
 4407POPC   PO457804  33.651  27.068   5.597
 4407POPC   GL157805  33.697  27.489   5.817
 4407POPC   GL257806  33.826  27.872   5.792
 4407POPC   C1A57807  33.706  27.430   6.271
 4407POPC   D2A57808  33.530  27.338   6.696
 4407POPC   C3A57809  33.777  27.428   7.078
 4407POPC   C4A57810  33.745  27.458   7.538
 4407POPC   C1B57811  33.758  27.953   6.214
 4407POPC   C2B57812  33.975  27.760   6.555
 4407POPC   C3B57813  34.057  27.857   6.972
 4407POPC   C4B57814  33.738  27.912   7.290
 4408POPC   NC357815  14.497   3.618   5.535
 4408POPC   PO457816  14.376   4.257   5.197
 4408POPC   GL157817  14.417   4.246   5.700
 4408POPC   GL257818  14.746   4.218   5.861
 4408POPC   C1A57819  14.347   4.191   6.186
 4408POPC   D2A57820  14.582   4.231   6.611
 4408POPC   C3A57821  14.291   4.154   6.964
 4408POPC   C4A57822  14.394   3.955   7.330
 4408POPC   C1B57823  14.751   4.540   6.219
 4408POPC   C2B57824  14.689   4.756   6.630
 4408POPC   C3B57825  14.565   4.588   7.017
 4408POPC   C4B57826  14.763   4.247   7.178
 4409POPC   NC357827   6.900  35.592   5.453
 4409POPC   PO457828   6.303  35.200   5.412
 4409POPC   GL157829   6.453  35.328   5.794
 4409POPC   GL257830   6.791  35.218   5.764
 4409POPC   C1A57831   6.479  35.496   6.222
 4409POPC   D2A57832   6.282  35.586   6.598
 4409POPC   C3A57833   6.518  35.527   6.976
 4409POPC   C4A57834   6.453  35.276   7.322
 4409POPC   C1B57835   6.848  35.137   6.184
 4409POPC   C2B57836   6.799  35.301   6.612
 4409POPC   C3B57837   6.816  35.089   7.020
 4409POPC   C4B57838   6.757  34.842   7.391
 4410POPC   NC357839  28.102  27.480   5.478
 4410POPC   PO457840  27.772  28.082   5.415
 4410POPC   GL157841  28.005  27.918   5.786
 4410POPC   GL257842  27.775  27.663   5.846
 4410POPC   C1A57843  28.068  27.758   6.245
 4410POPC   D2A57844  28.104  27.679   6.722
 4410POPC   C3A57845  27.836  27.748   7.114
 4410POPC   C4A57846  27.615  27.696   7.522
 4410POPC   C1B57847  27.558  27.716   6.263
 4410POPC   C2B57848  27.555  27.602   6.722
 4410POPC   C3B57849  27.511  27.354   7.141
 4410POPC   C4B57850  27.247  27.323   7.527
 4411POPC   NC357851   4.404   6.418   5.474
 4411POPC   PO457852   3.952   6.870   5.460
 4411POPC   GL157853   4.312   6.839   5.789
 4411POPC   GL257854   4.468   6.530   5.954
 4411POPC   C1A57855   4.283   6.909   6.240
 4411POPC   D2A57856   4.441   6.677   6.587
 4411POPC   C3A57857   4.217   6.785   6.951
 4411POPC   C4A57858   4.474   6.599   7.239
 4411POPC   C1B57859   4.112   6.397   6.142
 4411POPC   C2B57860   4.009   6.434   6.541
 4411POPC   C3B57861   4.244   6.272   6.859
 4411POPC   C4B57862   4.160   6.204   7.258
 4412POPC   NC357863   3.700  38.895   5.517
 4412POPC   PO457864   3.344  38.270   5.352
 4412POPC   GL157865   3.531  38.403   5.721
 4412POPC   GL257866   3.904  38.444   5.764
 4412POPC   C1A57867   3.559  38.300   6.140
 4412POPC   D2A57868   3.453  38.574   6.470
 4412POPC   C3A57869   3.575  38.426   6.828
 4412POPC   C4A57870   3.483  38.525   7.210
 4412POPC   C1B57871   3.852  38.717   6.157
 4412POPC   C2B57872   3.973  38.692   6.606
 4412POPC   C3B57873   3.978  38.646   7.058
 4412POPC   C4B57874   3.829  38.728   7.513
 4413POPC   NC357875  12.667  29.493   5.554
 4413POPC   PO457876  13.273  29.326   5.530
 4413POPC   GL157877  13.030  29.230   5.888
 4413POPC   GL257878  12.915  28.888   5.851
 4413POPC   C1A57879  12.734  29.236   6.257
 4413POPC   D2A57880  12.526  29.187   6.677
 4413POPC   C3A57881  12.786  29.325   7.053
 4413POPC   C4A57882  13.151  29.260   7.423
 4413POPC   C1B57883  13.066  28.844   6.280
 4413POPC   C2B57884  13.027  29.034   6.672
 4413POPC   C3B57885  13.042  28.902   7.102
 4413POPC   C4B57886  12.991  28.767   7.574
 4414POPC   NC357887   9.172  17.484   5.389
 4414POPC   PO457888   8.510  17.679   5.452
 4414POPC   GL157889   8.832  17.570   5.759
 4414POPC   GL257890   9.003  17.265   5.827
 4414POPC   C1A57891   8.915  17.621   6.177
 4414POPC   D2A57892   8.758  17.663   6.549
 4414POPC   C3A57893   8.975  17.758   6.881
 4414POPC   C4A57894   9.060  17.697   7.268
 4414POPC   C1B57895   9.246  17.229   6.215
 4414POPC   C2B57896   9.297  17.422   6.611
 4414POPC   C3B57897   9.145  17.283   7.000
 4414POPC   C4B57898   9.162  17.221   7.423
 4415POPC   NC357899  41.636  42.084   5.137
 4415POPC   PO457900  41.371  42.514   5.527
 4415POPC   GL157901  41.739  42.356   5.727
 4415POPC   GL257902  41.708  41.987   5.679
 4415POPC   C1A57903  41.829  42.475   6.175
 4415POPC   D2A57904  41.523  42.684   6.440
 4415POPC   C3A57905  41.571  42.573   6.858
 4415POPC   C4A57906  41.546  42.555   7.296
 4415POPC   C1B57907  41.503  42.079   6.099
 4415POPC   C2B57908  41.508  42.014   6.548
 4415POPC   C3B57909  41.359  42.123   6.942
 4415POPC   C4B57910  41.563  42.033   7.277
 4416POPC   NC357911   8.734  39.293   5.426
 4416POPC   PO457912   9.375  39.542   5.553
 4416POPC   GL157913   9.078  39.321   5.836
 4416POPC   GL257914   8.758  39.091   5.889
 4416POPC   C1A57915   8.918  39.437   6.215
 4416POPC   D2A57916   8.843  39.157   6.520
 4416POPC   C3A57917   8.903  39.375   6.872
 4416POPC   C4A57918   8.988  39.258   7.265
 4416POPC   C1B57919   8.697  38.755   6.196
 4416POPC   C2B57920   8.833  38.612   6.587
 4416POPC   C3B57921   8.797  38.859   6.931
 4416POPC   C4B57922   8.562  38.938   7.267
 4417POPC   NC357923  15.423  34.315   5.485
 4417POPC   PO457924  14.755  34.414   5.445
 4417POPC   GL157925  15.006  34.372   5.845
 4417POPC   GL257926  15.323  34.193   5.962
 4417POPC   C1A57927  14.962  34.412   6.314
 4417POPC   D2A57928  15.000  34.649   6.710
 4417POPC   C3A57929  14.940  34.411   7.091
 4417POPC   C4A57930  14.847  34.135   7.443
 4417POPC   C1B57931  15.421  34.611   6.148
 4417POPC   C2B57932  15.524  34.727   6.591
 4417POPC   C3B57933  15.403  34.671   7.048
 4417POPC   C4B57934  15.095  34.790   7.394
 4418POPC   NC357935   2.850  12.664   5.066
 4418POPC   PO457936   3.234  12.912   5.511
 4418POPC   GL157937   3.040  12.699   5.807
 4418POPC   GL257938   2.697  12.645   5.746
 4418POPC   C1A57939   2.945  12.832   6.230
 4418POPC   D2A57940   2.765  12.972   6.640
 4418POPC   C3A57941   2.814  12.826   7.081
 4418POPC   C4A57942   3.146  12.586   7.286
 4418POPC   C1B57943   2.441  12.721   6.158
 4418POPC   C2B57944   2.279  13.014   6.526
 4418POPC   C3B57945   2.412  13.165   6.963
 4418POPC   C4B57946   2.456  13.086   7.409
 4419POPC   NC357947   3.681  30.259   5.473
 4419POPC   PO457948   3.273  29.732   5.350
 4419POPC   GL157949   3.445  29.896   5.740
 4419POPC   GL257950   3.228  30.180   5.838
 4419POPC   C1A57951   3.666  30.102   6.114
 4419POPC   D2A57952   3.805  30.134   6.548
 4419POPC   C3A57953   3.533  30.125   6.848
 4419POPC   C4A57954   3.518  29.957   7.246
 4419POPC   C1B57955   3.204  29.852   6.175
 4419POPC   C2B57956   3.366  29.717   6.567
 4419POPC   C3B57957   3.133  29.837   6.931
 4419POPC   C4B57958   3.114  29.651   7.302
 4420POPC   NC357959   7.170  44.873   5.400
 4420POPC   PO457960   7.751  44.564   5.372
 4420POPC   GL157961   7.510  44.490   5.733
 4420POPC   GL257962   7.800  44.346   5.879
 4420POPC   C1A57963   7.355  44.641   6.138
 4420POPC   D2A57964   7.439  44.916   6.509
 4420POPC   C3A57965   7.280  44.772   6.932
 4420POPC   C4A57966   7.212  44.419   7.238
 4420POPC   C1B57967   7.864  44.736   6.067
 4420POPC   C2B57968   7.944  44.813   6.495
 4420POPC   C3B57969   7.807  44.925   6.891
 4420POPC   C4B57970   7.675  44.675   7.257
 4421POPC   NC357971  19.711  31.750   5.351
 4421POPC   PO457972  20.171  31.276   5.548
 4421POPC   GL157973  19.880  31.542   5.794
 4421POPC   GL257974  20.023  31.876   5.776
 4421POPC   C1A57975  19.588  31.560   6.177
 4421POPC   D2A57976  19.701  31.663   6.617
 4421POPC   C3A57977  19.615  31.387   6.941
 4421POPC   C4A57978  19.723  31.343   7.377
 4421POPC   C1B57979  20.000  31.859   6.246
 4421POPC   C2B57980  20.228  31.652   6.600
 4421POPC   C3B57981  20.104  31.547   7.025
 4421POPC   C4B57982  20.111  31.701   7.440
 4422POPC   NC357983   3.282  32.134   5.498
 4422POPC   PO457984   2.660  31.975   5.492
 4422POPC   GL157985   2.828  31.983   5.880
 4422POPC   GL257986   3.099  32.263   5.948
 4422POPC   C1A57987   2.726  32.120   6.268
 4422POPC   D2A57988   2.995  32.395   6.491
 4422POPC   C3A57989   2.764  32.421   6.859
 4422POPC   C4A57990   2.725  32.184   7.250
 4422POPC   C1B57991   3.202  31.907   6.226
 4422POPC   C2B57992   2.993  31.899   6.648
 4422POPC   C3B57993   3.155  32.107   7.002
 4422POPC   C4B57994   3.339  32.069   7.391
 4423POPC   NC357995   7.492  17.944   5.245
 4423POPC   PO457996   7.372  17.296   5.352
 4423POPC   GL157997   7.240  17.607   5.698
 4423POPC   GL257998   7.499  17.847   5.759
 4423POPC   C1A57999   7.071  17.545   6.117
 4423POPC   D2A58000   7.152  17.199   6.425
 4423POPC   C3A58001   7.416  17.319   6.788
 4423POPC   C4A58002   7.342  17.147   7.191
 4423POPC   C1B58003   7.631  17.600   6.131
 4423POPC   C2B58004   7.858  17.591   6.540
 4423POPC   C3B58005   7.780  17.789   6.940
 4423POPC   C4B58006   7.489  17.636   7.223
 4424POPC   NC358007  31.246  42.772   5.682
 4424POPC   PO458008  31.671  42.245   5.469
 4424POPC   GL158009  31.549  42.399   5.833
 4424POPC   GL258010  31.263  42.211   5.855
 4424POPC   C1A58011  31.625  42.438   6.256
 4424POPC   D2A58012  31.875  42.170   6.525
 4424POPC   C3A58013  31.719  42.262   6.928
 4424POPC   C4A58014  31.850  42.206   7.359
 4424POPC   C1B58015  31.082  42.380   6.235
 4424POPC   C2B58016  30.986  42.439   6.666
 4424POPC   C3B58017  31.037  42.577   7.082
 4424POPC   C4B58018  31.418  42.464   7.286
 4425POPC   NC358019  22.477  21.929   5.419
 4425POPC   PO458020  21.853  21.995   5.596
 4425POPC   GL158021  22.188  22.002   5.848
 4425POPC   GL258022  22.203  22.356   5.877
 4425POPC   C1A58023  22.098  22.018   6.267
 4425POPC   D2A58024  22.326  22.180   6.557
 4425POPC   C3A58025  22.177  21.961   6.862
 4425POPC   C4A58026  22.101  22.042   7.278
 4425POPC   C1B58027  21.860  22.448   6.168
 4425POPC   C2B58028  21.893  22.437   6.624
 4425POPC   C3B58029  22.146  22.450   6.977
 4425POPC   C4B58030  22.081  22.558   7.378
 4426POPC   NC358031  14.848  32.320   5.441
 4426POPC   PO458032  15.521  32.122   5.471
 4426POPC   GL158033  15.301  32.069   5.882
 4426POPC   GL258034  14.940  31.998   5.836
 4426POPC   C1A58035  15.441  32.260   6.330
 4426POPC   D2A58036  15.338  32.618   6.659
 4426POPC   C3A58037  15.217  32.431   7.056
 4426POPC   C4A58038  15.350  32.042   7.227
 4426POPC   C1B58039  14.957  32.350   6.159
 4426POPC   C2B58040  14.989  32.252   6.606
 4426POPC   C3B58041  14.858  32.042   6.993
 4426POPC   C4B58042  14.900  32.209   7.418
 4427POPC   NC358043  19.440  23.701   5.389
 4427POPC   PO458044  19.838  23.184   5.476
 4427POPC   GL158045  19.832  23.501   5.846
 4427POPC   GL258046  19.570  23.774   5.885
 4427POPC   C1A58047  19.949  23.759   6.242
 4427POPC   D2A58048  19.763  24.072   6.538
 4427POPC   C3A58049  19.808  23.966   6.958
 4427POPC   C4A58050  20.123  23.728   7.136
 4427POPC   C1B58051  19.499  23.471   6.235
 4427POPC   C2B58052  19.646  23.564   6.649
 4427POPC   C3B58053  19.683  23.452   7.050
 4427POPC   C4B58054  19.434  23.696   7.289
 4428POPC   NC358055  44.675   3.718   5.336
 4428POPC   PO458056  44.580   3.129   5.462
 4428POPC   GL158057  44.819   3.411   5.725
 4428POPC   GL258058  44.494   3.566   5.795
 4428POPC   C1A58059  44.917   3.594   6.133
 4428POPC   D2A58060  44.776   3.459   6.532
 4428POPC   C3A58061  44.821   3.699   6.911
 4428POPC   C4A58062  44.998   3.526   7.296
 4428POPC   C1B58063  44.349   3.516   6.226
 4428POPC   C2B58064  44.280   3.373   6.663
 4428POPC   C3B58065  44.516   3.326   7.032
 4428POPC   C4B58066  44.259   3.438   7.361
 4429POPC   NC358067   7.156   5.643   5.584
 4429POPC   PO458068   7.622   6.144   5.398
 4429POPC   GL158069   7.421   6.001   5.825
 4429POPC   GL258070   7.071   6.090   5.866
 4429POPC   C1A58071   7.350   5.820   6.274
 4429POPC   D2A58072   7.259   5.576   6.663
 4429POPC   C3A58073   7.476   5.715   7.042
 4429POPC   C4A58074   7.694   5.963   7.355
 4429POPC   C1B58075   6.863   5.949   6.247
 4429POPC   C2B58076   6.809   5.826   6.683
 4429POPC   C3B58077   6.984   5.697   7.080
 4429POPC   C4B58078   7.198   5.820   7.467
 4430POPC   NC358079  15.950   2.727   5.327
 4430POPC   PO458080  16.403   3.259   5.465
 4430POPC   GL158081  16.121   2.966   5.772
 4430POPC   GL258082  15.860   2.646   5.821
 4430POPC   C1A58083  16.058   2.870   6.230
 4430POPC   D2A58084  16.308   2.793   6.600
 4430POPC   C3A58085  16.159   2.600   7.002
 4430POPC   C4A58086  15.821   2.814   7.184
 4430POPC   C1B58087  15.579   2.658   6.221
 4430POPC   C2B58088  15.711   2.594   6.674
 4430POPC   C3B58089  15.559   2.402   7.084
 4430POPC   C4B58090  15.774   2.400   7.498
 4431POPC   NC358091  18.132  27.548   5.379
 4431POPC   PO458092  18.778  27.577   5.264
 4431POPC   GL158093  18.576  27.733   5.657
 4431POPC   GL258094  18.644  27.380   5.756
 4431POPC   C1A58095  18.350  27.908   6.054
 4431POPC   D2A58096  18.149  27.695   6.405
 4431POPC   C3A58097  18.225  27.803   6.833
 4431POPC   C4A58098  18.222  27.935   7.229
 4431POPC   C1B58099  18.528  27.452   6.186
 4431POPC   C2B58100  18.641  27.570   6.622
 4431POPC   C3B58101  18.518  27.385   7.034
 4431POPC   C4B58102  18.398  27.387   7.478
 4432POPC   NC358103  38.560  38.994   5.057
 4432POPC   PO458104  38.286  39.486   5.564
 4432POPC   GL158105  38.423  39.329   5.942
 4432POPC   GL258106  38.350  38.982   6.067
 4432POPC   C1A58107  38.366  39.423   6.344
 4432POPC   D2A58108  38.325  39.121   6.643
 4432POPC   C3A58109  38.342  39.338   7.039
 4432POPC   C4A58110  38.621  39.534   7.357
 4432POPC   C1B58111  38.695  38.900   6.248
 4432POPC   C2B58112  38.869  38.879   6.632
 4432POPC   C3B58113  38.617  38.880   6.988
 4432POPC   C4B58114  38.508  39.035   7.416
 4433POPC   NC358115  40.611  43.298   5.432
 4433POPC   PO458116  39.924  43.027   5.436
 4433POPC   GL158117  40.040  43.142   5.803
 4433POPC   GL258118  40.371  42.978   5.786
 4433POPC   C1A58119  39.794  43.099   6.181
 4433POPC   D2A58120  39.851  42.894   6.576
 4433POPC   C3A58121  39.820  43.136   6.920
 4433POPC   C4A58122  39.988  42.854   7.235
 4433POPC   C1B58123  40.249  42.887   6.210
 4433POPC   C2B58124  40.276  43.166   6.547
 4433POPC   C3B58125  40.331  43.124   6.953
 4433POPC   C4B58126  40.129  43.350   7.282
 4434POPC   NC358127  16.093  44.542   5.418
 4434POPC   PO458128  15.488  44.898   5.480
 4434POPC   GL158129  15.714  44.766   5.827
 4434POPC   GL258130  15.823  44.426   5.866
 4434POPC   C1A58131  15.676  44.732   6.261
 4434POPC   D2A58132  15.871  44.526   6.617
 4434POPC   C3A58133  15.723  44.585   7.047
 4434POPC   C4A58134  15.882  44.961   7.264
 4434POPC   C1B58135  16.168  44.657   6.151
 4434POPC   C2B58136  16.353  44.722   6.592
 4434POPC   C3B58137  16.221  44.628   7.022
 4434POPC   C4B58138  16.147  44.309   7.289
 4435POPC   NC358139   2.801  26.442   5.572
 4435POPC   PO458140   3.069  26.979   5.391
 4435POPC   GL158141   2.818  27.003   5.768
 4435POPC   GL258142   2.497  26.796   5.787
 4435POPC   C1A58143   2.946  26.895   6.166
 4435POPC   D2A58144   2.911  26.566   6.484
 4435POPC   C3A58145   2.742  26.631   6.895
 4435POPC   C4A58146   2.970  26.607   7.302
 4435POPC   C1B58147   2.460  27.070   6.155
 4435POPC   C2B58148   2.658  27.077   6.548
 4435POPC   C3B58149   2.473  27.105   6.909
 4435POPC   C4B58150   2.683  27.010   7.239
 4436POPC   NC358151  15.331  12.964   5.560
 4436POPC   PO458152  14.903  13.186   5.095
 4436POPC   GL158153  14.864  12.932   5.698
 4436POPC   GL258154  14.910  13.162   6.007
 4436POPC   C1A58155  15.095  12.717   6.119
 4436POPC   D2A58156  15.011  12.429   6.470
 4436POPC   C3A58157  14.946  12.594   6.892
 4436POPC   C4A58158  15.164  12.933   7.159
 4436POPC   C1B58159  15.155  13.138   6.423
 4436POPC   C2B58160  15.375  12.801   6.686
 4436POPC   C3B58161  15.643  12.768   7.081
 4436POPC   C4B58162  15.614  13.106   7.435
 4437POPC   NC358163  12.179  33.879   5.564
 4437POPC   PO458164  11.659  34.358   5.444
 4437POPC   GL158165  11.827  34.122   5.836
 4437POPC   GL258166  12.172  34.160   6.009
 4437POPC   C1A58167  11.806  33.865   6.190
 4437POPC   D2A58168  11.674  33.643   6.522
 4437POPC   C3A58169  11.891  33.543   6.920
 4437POPC   C4A58170  12.191  33.628   7.277
 4437POPC   C1B58171  12.210  34.079   6.436
 4437POPC   C2B58172  11.956  34.048   6.808
 4437POPC   C3B58173  12.184  34.124   7.170
 4437POPC   C4B58174  12.654  34.142   7.214
 4438POPC   NC358175  27.961   5.396   5.615
 4438POPC   PO458176  27.368   5.180   5.395
 4438POPC   GL158177  27.453   5.337   5.817
 4438POPC   GL258178  27.629   5.020   5.950
 4438POPC   C1A58179  27.458   5.369   6.278
 4438POPC   D2A58180  27.555   4.991   6.567
 4438POPC   C3A58181  27.516   5.105   6.990
 4438POPC   C4A58182  27.626   5.545   7.132
 4438POPC   C1B58183  27.923   4.728   6.252
 4438POPC   C2B58184  28.020   4.754   6.705
 4438POPC   C3B58185  27.913   4.730   7.151
 4438POPC   C4B58186  27.995   4.610   7.606
 4439POPC   NC358187  40.661  30.464   5.231
 4439POPC   PO458188  41.016  30.909   5.120
 4439POPC   GL158189  40.836  30.768   5.610
 4439POPC   GL258190  40.556  30.500   5.735
 4439POPC   C1A58191  40.899  30.642   6.098
 4439POPC   D2A58192  41.080  30.427   6.504
 4439POPC   C3A58193  41.037  30.684   6.897
 4439POPC   C4A58194  40.813  31.026   7.161
 4439POPC   C1B58195  40.376  30.490   6.161
 4439POPC   C2B58196  40.591  30.597   6.545
 4439POPC   C3B58197  40.489  30.642   6.968
 4439POPC   C4B58198  40.765  30.540   7.297
 4440POPC   NC358199   3.875  28.686   5.643
 4440POPC   PO458200   3.388  28.397   5.315
 4440POPC   GL158201   3.426  28.437   5.813
 4440POPC   GL258202   3.604  28.165   5.998
 4440POPC   C1A58203   3.198  28.350   6.242
 4440POPC   D2A58204   3.342  28.173   6.650
 4440POPC   C3A58205   3.523  28.478   6.915
 4440POPC   C4A58206   3.365  28.710   7.275
 4440POPC   C1B58207   3.739  28.369   6.360
 4440POPC   C2B58208   3.918  28.169   6.700
 4440POPC   C3B58209   3.820  28.077   7.110
 4440POPC   C4B58210   3.778  28.379   7.346
 4441POPC   NC358211  27.376  18.552   5.523
 4441POPC   PO458212  27.491  17.888   5.428
 4441POPC   GL158213  27.531  18.131   5.836
 4441POPC   GL258214  27.728  18.455   5.883
 4441POPC   C1A58215  27.355  18.320   6.229
 4441POPC   D2A58216  27.235  18.567   6.599
 4441POPC   C3A58217  27.427  18.552   7.015
 4441POPC   C4A58218  27.480  18.198   7.283
 4441POPC   C1B58219  27.869  18.247   6.247
 4441POPC   C2B58220  27.716  18.234   6.656
 4441POPC   C3B58221  27.916  18.300   7.034
 4441POPC   C4B58222  28.026  18.550   7.359
 4442POPC   NC358223   5.602  16.328   5.727
 4442POPC   PO458224   5.882  15.801   5.347
 4442POPC   GL158225   5.750  15.832   5.732
 4442POPC   GL258226   5.397  15.676   5.688
 4442POPC   C1A58227   5.909  15.936   6.158
 4442POPC   D2A58228   5.784  16.235   6.490
 4442POPC   C3A58229   5.791  16.017   6.890
 4442POPC   C4A58230   5.474  16.042   7.190
 4442POPC   C1B58231   5.614  15.507   6.082
 4442POPC   C2B58232   5.560  15.693   6.483
 4442POPC   C3B58233   5.390  15.629   6.882
 4442POPC   C4B58234   5.601  15.532   7.243
 4443POPC   NC358235  29.519   9.662   5.480
 4443POPC   PO458236  30.023   9.975   5.524
 4443POPC   GL158237  29.940  10.091   5.940
 4443POPC   GL258238  29.572  10.114   5.846
 4443POPC   C1A58239  30.095  10.035   6.388
 4443POPC   D2A58240  30.146   9.681   6.724
 4443POPC   C3A58241  30.000   9.750   7.162
 4443POPC   C4A58242  30.192   9.671   7.592
 4443POPC   C1B58243  29.623   9.749   6.158
 4443POPC   C2B58244  29.631   9.407   6.465
 4443POPC   C3B58245  29.617   9.530   6.891
 4443POPC   C4B58246  29.462   9.871   7.161
 4444POPC   NC358247  41.246  36.274   5.460
 4444POPC   PO458248  41.837  36.432   5.552
 4444POPC   GL158249  41.578  36.159   5.849
 4444POPC   GL258250  41.592  35.795   5.994
 4444POPC   C1A58251  41.228  36.139   6.142
 4444POPC   D2A58252  41.234  36.008   6.565
 4444POPC   C3A58253  41.529  36.213   6.850
 4444POPC   C4A58254  41.394  36.031   7.215
 4444POPC   C1B58255  41.693  36.117   6.355
 4444POPC   C2B58256  42.047  36.326   6.559
 4444POPC   C3B58257  42.021  36.450   6.970
 4444POPC   C4B58258  41.846  36.231   7.290
 4445POPC   NC358259  14.606  32.992   5.389
 4445POPC   PO458260  13.891  33.072   5.446
 4445POPC   GL158261  14.216  32.918   5.753
 4445POPC   GL258262  14.412  33.186   5.833
 4445POPC   C1A58263  14.220  32.914   6.233
 4445POPC   D2A58264  14.163  32.715   6.648
 4445POPC   C3A58265  14.153  33.002   7.012
 4445POPC   C4A58266  14.503  32.947   7.222
 4445POPC   C1B58267  14.629  33.244   6.232
 4445POPC   C2B58268  14.512  33.138   6.663
 4445POPC   C3B58269  14.694  33.358   7.018
 4445POPC   C4B58270  14.864  33.257   7.438
 4446POPC   NC358271  44.319  34.519   5.639
 4446POPC   PO458272  43.638  34.538   5.455
 4446POPC   GL158273  43.850  34.540   5.836
 4446POPC   GL258274  43.929  34.202   5.829
 4446POPC   C1A58275  43.787  34.676   6.266
 4446POPC   D2A58276  43.491  34.548   6.598
 4446POPC   C3A58277  43.659  34.577   7.003
 4446POPC   C4A58278  43.661  34.234   7.271
 4446POPC   C1B58279  44.116  34.261   6.219
 4446POPC   C2B58280  44.030  34.380   6.626
 4446POPC   C3B58281  44.116  34.288   7.036
 4446POPC   C4B58282  44.209  34.679   7.203
 4447POPC   NC358283  24.111  12.792   5.514
 4447POPC   PO458284  24.802  12.554   5.394
 4447POPC   GL158285  24.617  12.884   5.731
 4447POPC   GL258286  24.335  12.924   5.972
 4447POPC   C1A58287  24.762  13.154   6.111
 4447POPC   D2A58288  24.525  13.101   6.508
 4447POPC   C3A58289  24.601  13.020   6.938
 4447POPC   C4A58290  24.261  13.160   7.262
 4447POPC   C1B58291  24.638  12.663   6.217
 4447POPC   C2B58292  24.628  12.472   6.627
 4447POPC   C3B58293  24.459  12.467   7.026
 4447POPC   C4B58294  24.538  12.750   7.362
 4448POPC   NC358295  37.027  30.852   5.400
 4448POPC   PO458296  36.933  30.204   5.538
 4448POPC   GL158297  36.877  30.521   5.796
 4448POPC   GL258298  36.576  30.657   5.660
 4448POPC   C1A58299  37.068  30.595   6.207
 4448POPC   D2A58300  37.016  30.345   6.593
 4448POPC   C3A58301  36.944  30.530   7.007
 4448POPC   C4A58302  37.183  30.808   7.257
 4448POPC   C1B58303  36.621  30.823   6.115
 4448POPC   C2B58304  36.755  30.807   6.566
 4448POPC   C3B58305  36.613  30.936   6.976
 4448POPC   C4B58306  36.669  30.829   7.419
 4449POPC   NC358307  27.474  10.973   5.475
 4449POPC   PO458308  27.402  11.636   5.611
 4449POPC   GL158309  27.655  11.292   5.855
 4449POPC   GL258310  27.819  10.940   5.843
 4449POPC   C1A58311  27.504  11.114   6.287
 4449POPC   D2A58312  27.248  11.265   6.681
 4449POPC   C3A58313  27.355  11.160   7.111
 4449POPC   C4A58314  27.525  11.444   7.455
 4449POPC   C1B58315  28.003  11.147   6.205
 4449POPC   C2B58316  27.876  11.236   6.645
 4449POPC   C3B58317  27.869  11.145   7.079
 4449POPC   C4B58318  27.803  11.001   7.508
 4450POPC   NC358319   2.940  14.712   5.414
 4450POPC   PO458320   3.006  15.470   5.495
 4450POPC   GL158321   2.844  15.167   5.770
 4450POPC   GL258322   3.122  14.933   5.823
 4450POPC   C1A58323   2.564  15.081   6.126
 4450POPC   D2A58324   2.539  15.278   6.540
 4450POPC   C3A58325   2.512  15.063   6.929
 4450POPC   C4A58326   2.635  15.138   7.325
 4450POPC   C1B58327   3.057  14.984   6.240
 4450POPC   C2B58328   2.856  14.879   6.591
 4450POPC   C3B58329   3.024  14.988   6.970
 4450POPC   C4B58330   3.133  15.193   7.313
 4451POPC   NC358331  21.751  43.894   5.400
 4451POPC   PO458332  22.389  43.642   5.266
 4451POPC   GL158333  22.186  43.633   5.690
 4451POPC   GL258334  21.866  43.444   5.697
 4451POPC   C1A58335  22.362  43.736   6.116
 4451POPC   D2A58336  22.278  43.587   6.535
 4451POPC   C3A58337  22.400  43.851   6.867
 4451POPC   C4A58338  22.459  44.035   7.257
 4451POPC   C1B58339  21.848  43.631   6.135
 4451POPC   C2B58340  21.809  43.435   6.531
 4451POPC   C3B58341  21.952  43.575   6.950
 4451POPC   C4B58342  21.959  44.008   7.126
 4452POPC   NC358343   6.216   4.075   5.477
 4452POPC   PO458344   5.599   4.438   5.567
 4452POPC   GL158345   5.836   4.272   5.919
 4452POPC   GL258346   6.181   4.399   5.944
 4452POPC   C1A58347   5.818   4.261   6.390
 4452POPC   D2A58348   5.704   4.391   6.814
 4452POPC   C3A58349   5.898   4.176   7.154
 4452POPC   C4A58350   5.997   4.219   7.595
 4452POPC   C1B58351   6.262   4.037   6.195
 4452POPC   C2B58352   6.155   3.884   6.593
 4452POPC   C3B58353   6.345   3.919   6.985
 4452POPC   C4B58354   6.170   3.774   7.357
 4453POPC   NC358355  23.723  44.003   5.529
 4453POPC   PO458356  23.848  44.676   5.371
 4453POPC   GL158357  23.582  44.506   5.684
 4453POPC   GL258358  23.831  44.374   5.867
 4453POPC   C1A58359  23.426  44.623   6.109
 4453POPC   D2A58360  23.701  44.781   6.443
 4453POPC   C3A58361  23.544  44.771   6.842
 4453POPC   C4A58362  23.576  44.536   7.178
 4453POPC   C1B58363  23.755  44.280   6.264
 4453POPC   C2B58364  23.840  44.344   6.666
 4453POPC   C3B58365  24.023  44.579   6.947
 4453POPC   C4B58366  24.174  44.565   7.343
 4454POPC   NC358367  40.149  44.179   5.446
 4454POPC   PO458368  39.787  44.836   5.461
 4454POPC   GL158369  39.989  44.593   5.755
 4454POPC   GL258370  39.791  44.300   5.840
 4454POPC   C1A58371  39.983  44.758   6.158
 4454POPC   D2A58372  40.249  44.889   6.486
 4454POPC   C3A58373  40.051  44.689   6.865
 4454POPC   C4A58374  40.060  44.851   7.273
 4454POPC   C1B58375  39.539  44.495   6.143
 4454POPC   C2B58376  39.648  44.674   6.540
 4454POPC   C3B58377  39.516  44.745   6.955
 4454POPC   C4B58378  39.583  44.650   7.383
 4455POPC   NC358379  19.666   6.179   5.449
 4455POPC   PO458380  19.721   5.507   5.470
 4455POPC   GL158381  19.804   5.808   5.842
 4455POPC   GL258382  19.990   6.139   5.858
 4455POPC   C1A58383  19.578   6.044   6.182
 4455POPC   D2A58384  19.426   5.980   6.596
 4455POPC   C3A58385  19.638   6.060   6.967
 4455POPC   C4A58386  19.894   5.887   7.272
 4455POPC   C1B58387  20.100   5.968   6.295
 4455POPC   C2B58388  20.103   5.883   6.778
 4455POPC   C3B58389  20.335   5.699   7.166
 4455POPC   C4B58390  20.279   5.799   7.626
 4456POPC   NC358391  36.250   1.818   5.273
 4456POPC   PO458392  36.065   2.402   5.403
 4456POPC   GL158393  36.211   2.117   5.757
 4456POPC   GL258394  35.947   1.825   5.834
 4456POPC   C1A58395  36.328   2.063   6.225
 4456POPC   D2A58396  36.192   2.301   6.606
 4456POPC   C3A58397  36.066   2.183   7.026
 4456POPC   C4A58398  36.365   2.133   7.283
 4456POPC   C1B58399  35.913   1.770   6.298
 4456POPC   C2B58400  35.929   1.795   6.728
 4456POPC   C3B58401  36.198   1.673   7.085
 4456POPC   C4B58402  35.961   1.616   7.458
 4457POPC   NC358403  26.994   7.062   5.538
 4457POPC   PO458404  26.398   7.399   5.316
 4457POPC   GL158405  26.659   7.497   5.749
 4457POPC   GL258406  26.973   7.411   5.881
 4457POPC   C1A58407  26.641   7.579   6.207
 4457POPC   D2A58408  26.544   7.638   6.648
 4457POPC   C3A58409  26.580   7.419   7.052
 4457POPC   C4A58410  26.490   7.572   7.510
 4457POPC   C1B58411  26.901   7.151   6.251
 4457POPC   C2B58412  27.053   7.178   6.684
 4457POPC   C3B58413  27.012   7.100   7.094
 4457POPC   C4B58414  27.096   7.386   7.384
 4458POPC   NC358415  44.508  35.520   5.367
 4458POPC   PO458416  44.588  34.856   5.472
 4458POPC   GL158417  44.550  35.241   5.785
 4458POPC   GL258418  44.877  35.238   5.863
 4458POPC   C1A58419  44.567  35.520   6.189
 4458POPC   D2A58420  44.577  35.681   6.603
 4458POPC   C3A58421  44.368  35.349   6.848
 4458POPC   C4A58422  44.325  35.326   7.291
 4458POPC   C1B58423  44.814  35.103   6.317
 4458POPC   C2B58424  44.885  35.255   6.759
 4458POPC   C3B58425  44.769  35.521   7.123
 4458POPC   C4B58426  44.864  35.472   7.574
 4459POPC   NC358427  18.183  21.538   5.312
 4459POPC   PO458428  18.754  21.484   4.992
 4459POPC   GL158429  18.533  21.270   5.537
 4459POPC   GL258430  18.276  21.044   5.689
 4459POPC   C1A58431  18.363  21.390   6.040
 4459POPC   D2A58432  18.199  21.476   6.471
 4459POPC   C3A58433  18.383  21.677   6.834
 4459POPC   C4A58434  18.275  21.489   7.234
 4459POPC   C1B58435  18.232  20.925   6.166
 4459POPC   C2B58436  18.086  20.980   6.626
 4459POPC   C3B58437  18.260  20.995   7.066
 4459POPC   C4B58438  18.088  20.863   7.469
 4460POPC   NC358439  28.758  24.090   5.564
 4460POPC   PO458440  29.167  23.660   5.410
 4460POPC   GL158441  29.280  23.724   5.846
 4460POPC   GL258442  29.003  23.851   5.969
 4460POPC   C1A58443  29.427  23.788   6.255
 4460POPC   D2A58444  29.270  23.626   6.623
 4460POPC   C3A58445  29.442  23.728   7.015
 4460POPC   C4A58446  29.208  23.901   7.316
 4460POPC   C1B58447  29.001  24.082   6.360
 4460POPC   C2B58448  29.049  24.034   6.834
 4460POPC   C3B58449  28.857  24.261   7.181
 4460POPC   C4B58450  28.693  24.312   7.621
 4461POPC   NC358451  31.693   0.649   5.632
 4461POPC   PO458452  31.425   0.030   5.560
 4461POPC   GL158453  31.570   0.269   5.932
 4461POPC   GL258454  31.321   0.563   5.945
 4461POPC   C1A58455  31.655   0.587   6.303
 4461POPC   D2A58456  31.470   0.676   6.733
 4461POPC   C3A58457  31.481   0.348   7.069
 4461POPC   C4A58458  31.807   0.368   7.360
 4461POPC   C1B58459  31.231   0.281   6.289
 4461POPC   C2B58460  31.253   0.153   6.646
 4461POPC   C3B58461  30.982   0.365   6.907
 4461POPC   C4B58462  31.001   0.441   7.323
 4462POPC   NC358463  37.114  42.709   5.187
 4462POPC   PO458464  36.840  43.240   5.438
 4462POPC   GL158465  36.749  43.046   5.808
 4462POPC   GL258466  37.075  43.153   5.917
 4462POPC   C1A58467  36.715  42.843   6.221
 4462POPC   D2A58468  36.703  43.084   6.594
 4462POPC   C3A58469  36.941  42.921   6.930
 4462POPC   C4A58470  36.679  42.933   7.286
 4462POPC   C1B58471  37.316  43.378   6.214
 4462POPC   C2B58472  37.343  43.334   6.663
 4462POPC   C3B58473  37.301  43.432   7.103
 4462POPC   C4B58474  37.117  43.177   7.397
 4463POPC   NC358475   8.514  35.014   5.475
 4463POPC   PO458476   8.027  35.505   5.478
 4463POPC   GL158477   7.994  35.447   5.893
 4463POPC   GL258478   8.307  35.254   5.862
 4463POPC   C1A58479   8.190  35.450   6.302
 4463POPC   D2A58480   8.494  35.681   6.506
 4463POPC   C3A58481   8.423  35.479   6.884
 4463POPC   C4A58482   8.091  35.446   7.167
 4463POPC   C1B58483   8.560  35.067   6.208
 4463POPC   C2B58484   8.779  35.188   6.586
 4463POPC   C3B58485   8.740  34.986   7.012
 4463POPC   C4B58486   8.480  34.951   7.392
 4464POPC   NC358487  30.563  13.528   5.280
 4464POPC   PO458488  31.185  13.550   5.217
 4464POPC   GL158489  30.945  13.644   5.671
 4464POPC   GL258490  31.032  14.004   5.621
 4464POPC   C1A58491  30.681  13.580   6.156
 4464POPC   D2A58492  30.410  13.404   6.571
 4464POPC   C3A58493  30.496  13.516   7.037
 4464POPC   C4A58494  30.923  13.474   7.224
 4464POPC   C1B58495  30.898  14.019   6.045
 4464POPC   C2B58496  30.985  14.002   6.471
 4464POPC   C3B58497  30.853  13.810   6.828
 4464POPC   C4B58498  30.821  13.981   7.228
 4465POPC   NC358499  14.481  29.430   5.527
 4465POPC   PO458500  14.776  28.890   5.526
 4465POPC   GL158501  14.452  28.995   5.838
 4465POPC   GL258502  14.326  29.335   6.001
 4465POPC   C1A58503  14.393  28.905   6.264
 4465POPC   D2A58504  14.423  29.188   6.598
 4465POPC   C3A58505  14.383  28.914   6.942
 4465POPC   C4A58506  14.472  29.039   7.338
 4465POPC   C1B58507  13.981  29.227   6.305
 4465POPC   C2B58508  13.939  29.123   6.749
 4465POPC   C3B58509  14.139  29.369   7.067
 4465POPC   C4B58510  14.251  29.491   7.476
 4466POPC   NC358511   0.086  42.117   5.223
 4466POPC   PO458512   0.185  41.454   5.422
 4466POPC   GL158513   0.444  41.722   5.697
 4466POPC   GL258514   0.774  41.920   5.711
 4466POPC   C1A58515   0.348  41.839   6.111
 4466POPC   D2A58516   0.076  41.834   6.460
 4466POPC   C3A58517   0.338  41.759   6.834
 4466POPC   C4A58518   0.352  41.596   7.277
 4466POPC   C1B58519   0.844  41.633   6.100
 4466POPC   C2B58520   0.959  41.459   6.541
 4466POPC   C3B58521   0.778  41.516   6.967
 4466POPC   C4B58522   0.891  41.642   7.418
 4467POPC   NC358523   2.667  31.510   5.350
 4467POPC   PO458524   3.300  31.288   5.527
 4467POPC   GL158525   2.959  31.480   5.825
 4467POPC   GL258526   2.564  31.460   5.832
 4467POPC   C1A58527   2.826  31.573   6.266
 4467POPC   D2A58528   2.890  31.406   6.692
 4467POPC   C3A58529   2.887  31.549   7.131
 4467POPC   C4A58530   2.458  31.371   7.290
 4467POPC   C1B58531   2.365  31.730   6.142
 4467POPC   C2B58532   2.426  31.640   6.586
 4467POPC   C3B58533   2.477  31.810   7.011
 4467POPC   C4B58534   2.454  31.826   7.519
 4468POPC   NC358535  38.655  36.403   5.323
 4468POPC   PO458536  38.410  35.772   5.401
 4468POPC   GL158537  38.466  36.158   5.756
 4468POPC   GL258538  38.770  36.431   5.813
 4468POPC   C1A58539  38.354  36.016   6.205
 4468POPC   D2A58540  38.074  35.906   6.537
 4468POPC   C3A58541  38.340  35.978   6.888
 4468POPC   C4A58542  38.314  36.085   7.312
 4468POPC   C1B58543  38.821  36.201   6.198
 4468POPC   C2B58544  38.791  35.986   6.596
 4468POPC   C3B58545  38.897  36.231   6.948
 4468POPC   C4B58546  38.771  36.355   7.336
 4469POPC   NC358547  11.988  24.078   5.618
 4469POPC   PO458548  12.283  23.537   5.412
 4469POPC   GL158549  12.245  23.627   5.821
 4469POPC   GL258550  11.887  23.543   5.803
 4469POPC   C1A58551  12.141  23.825   6.215
 4469POPC   D2A58552  11.946  23.964   6.573
 4469POPC   C3A58553  12.241  24.044   6.890
 4469POPC   C4A58554  12.329  23.757   7.196
 4469POPC   C1B58555  11.777  23.262   6.138
 4469POPC   C2B58556  11.835  23.405   6.557
 4469POPC   C3B58557  11.852  23.625   6.958
 4469POPC   C4B58558  11.754  24.033   7.063
 4470POPC   NC358559  15.900  22.220   5.384
 4470POPC   PO458560  16.436  22.623   5.350
 4470POPC   GL158561  16.257  22.349   5.726
 4470POPC   GL258562  16.160  21.990   5.747
 4470POPC   C1A58563  16.020  22.345   6.118
 4470POPC   D2A58564  16.018  22.580   6.505
 4470POPC   C3A58565  15.783  22.398   6.820
 4470POPC   C4A58566  15.976  22.296   7.189
 4470POPC   C1B58567  15.935  21.842   6.161
 4470POPC   C2B58568  15.784  21.925   6.598
 4470POPC   C3B58569  16.017  21.822   6.985
 4470POPC   C4B58570  15.952  21.829   7.459
 4471POPC   NC358571   5.781   1.464   5.342
 4471POPC   PO458572   5.760   2.148   5.488
 4471POPC   GL158573   5.746   1.951   5.871
 4471POPC   GL258574   5.993   1.720   5.783
 4471POPC   C1A58575   5.552   1.889   6.279
 4471POPC   D2A58576   5.834   1.979   6.611
 4471POPC   C3A58577   5.717   1.849   6.997
 4471POPC   C4A58578   5.550   2.083   7.305
 4471POPC   C1B58579   6.017   1.679   6.227
 4471POPC   C2B58580   6.189   1.614   6.642
 4471POPC   C3B58581   6.016   1.361   6.965
 4471POPC   C4B58582   6.088   1.615   7.280
 4472POPC   NC358583  43.022   1.738   5.344
 4472POPC   PO458584  43.159   2.377   5.481
 4472POPC   GL158585  43.004   2.064   5.802
 4472POPC   GL258586  42.785   1.747   5.781
 4472POPC   C1A58587  43.276   1.978   6.182
 4472POPC   D2A58588  43.372   1.696   6.540
 4472POPC   C3A58589  43.252   1.887   6.920
 4472POPC   C4A58590  43.327   2.023   7.294
 4472POPC   C1B58591  42.902   1.657   6.208
 4472POPC   C2B58592  42.892   1.862   6.573
 4472POPC   C3B58593  42.758   1.737   6.975
 4472POPC   C4B58594  42.823   1.979   7.337
 4473POPC   NC358595  35.511  39.650   5.414
 4473POPC   PO458596  35.117  39.126   5.174
 4473POPC   GL158597  35.096  39.240   5.657
 4473POPC   GL258598  35.145  39.572   5.768
 4473POPC   C1A58599  35.187  39.114   6.121
 4473POPC   D2A58600  35.511  38.981   6.433
 4473POPC   C3A58601  35.558  39.172   6.859
 4473POPC   C4A58602  35.604  39.099   7.306
 4473POPC   C1B58603  35.053  39.605   6.203
 4473POPC   C2B58604  35.195  39.424   6.586
 4473POPC   C3B58605  35.163  39.569   7.025
 4473POPC   C4B58606  35.308  39.532   7.467
 4474POPC   NC358607  40.872  27.112   5.310
 4474POPC   PO458608  40.469  26.614   5.390
 4474POPC   GL158609  40.627  26.897   5.727
 4474POPC   GL258610  40.954  26.903   5.798
 4474POPC   C1A58611  40.645  26.795   6.190
 4474POPC   D2A58612  40.687  26.546   6.547
 4474POPC   C3A58613  40.607  26.827   6.889
 4474POPC   C4A58614  40.883  27.026   7.202
 4474POPC   C1B58615  41.097  27.029   6.225
 4474POPC   C2B58616  41.061  26.917   6.662
 4474POPC   C3B58617  41.346  27.082   6.973
 4474POPC   C4B58618  41.373  26.937   7.394
 4475POPC   NC358619   3.438  24.274   5.300
 4475POPC   PO458620   3.863  24.792   5.537
 4475POPC   GL158621   3.656  24.524   5.802
 4475POPC   GL258622   3.573  24.183   5.775
 4475POPC   C1A58623   3.756  24.501   6.227
 4475POPC   D2A58624   3.586  24.650   6.595
 4475POPC   C3A58625   3.733  24.503   6.989
 4475POPC   C4A58626   3.751  24.678   7.376
 4475POPC   C1B58627   3.556  24.040   6.190
 4475POPC   C2B58628   3.593  24.122   6.636
 4475POPC   C3B58629   3.476  24.069   7.071
 4475POPC   C4B58630   3.353  24.379   7.314
 4476POPC   NC358631  20.622  10.821   5.364
 4476POPC   PO458632  20.771  10.154   5.396
 4476POPC   GL158633  20.530  10.313   5.748
 4476POPC   GL258634  20.712  10.621   5.845
 4476POPC   C1A58635  20.623  10.245   6.184
 4476POPC   D2A58636  20.710  10.480   6.519
 4476POPC   C3A58637  20.477  10.367   6.855
 4476POPC   C4A58638  20.625  10.135   7.165
 4476POPC   C1B58639  20.399  10.737   6.181
 4476POPC   C2B58640  20.368  10.858   6.624
 4476POPC   C3B58641  20.468  10.841   7.074
 4476POPC   C4B58642  20.241  10.756   7.488
 4477POPC   NC358643  15.334  20.851   5.569
 4477POPC   PO458644  14.809  20.549   5.203
 4477POPC   GL158645  14.885  20.639   5.700
 4477POPC   GL258646  15.147  20.400   5.822
 4477POPC   C1A58647  14.916  20.673   6.208
 4477POPC   D2A58648  15.167  20.842   6.598
 4477POPC   C3A58649  15.240  20.657   7.020
 4477POPC   C4A58650  14.971  20.476   7.311
 4477POPC   C1B58651  15.398  20.502   6.214
 4477POPC   C2B58652  15.576  20.478   6.670
 4477POPC   C3B58653  15.628  20.360   7.134
 4477POPC   C4B58654  15.524  20.536   7.564
 4478POPC   NC358655  11.469  37.558   5.533
 4478POPC   PO458656  11.109  38.106   5.501
 4478POPC   GL158657  11.178  37.831   5.870
 4478POPC   GL258658  11.515  37.895   5.938
 4478POPC   C1A58659  11.264  37.513   6.221
 4478POPC   D2A58660  11.116  37.342   6.639
 4478POPC   C3A58661  11.306  37.453   7.069
 4478POPC   C4A58662  11.160  37.443   7.510
 4478POPC   C1B58663  11.331  37.994   6.367
 4478POPC   C2B58664  11.136  37.840   6.755
 4478POPC   C3B58665  11.162  37.941   7.188
 4478POPC   C4B58666  11.090  38.078   7.630
 4479POPC   NC358667  29.099  25.143   5.201
 4479POPC   PO458668  28.861  24.599   5.567
 4479POPC   GL158669  29.046  24.468   5.921
 4479POPC   GL258670  29.311  24.253   5.860
 4479POPC   C1A58671  29.195  24.674   6.271
 4479POPC   D2A58672  29.200  24.474   6.637
 4479POPC   C3A58673  29.161  24.633   7.016
 4479POPC   C4A58674  28.831  24.810   7.266
 4479POPC   C1B58675  29.530  24.300   6.260
 4479POPC   C2B58676  29.567  24.151   6.695
 4479POPC   C3B58677  29.490  24.263   7.124
 4479POPC   C4B58678  29.203  24.409   7.493
 4480POPC   NC358679   4.420  25.643   4.970
 4480POPC   PO458680   4.165  26.102   5.369
 4480POPC   GL158681   4.320  26.189   5.790
 4480POPC   GL258682   4.502  25.880   5.837
 4480POPC   C1A58683   4.626  26.274   6.130
 4480POPC   D2A58684   4.670  26.066   6.510
 4480POPC   C3A58685   4.488  26.288   6.852
 4480POPC   C4A58686   4.486  26.083   7.233
 4480POPC   C1B58687   4.231  25.971   6.228
 4480POPC   C2B58688   4.237  25.877   6.660
 4480POPC   C3B58689   4.058  25.817   7.027
 4480POPC   C4B58690   4.147  25.765   7.455
 4481POPC   NC358691  25.687  31.567   5.472
 4481POPC   PO458692  26.314  31.360   5.412
 4481POPC   GL158693  26.157  31.154   5.793
 4481POPC   GL258694  25.796  31.265   5.848
 4481POPC   C1A58695  26.152  31.307   6.216
 4481POPC   D2A58696  26.340  31.451   6.601
 4481POPC   C3A58697  26.224  31.203   6.934
 4481POPC   C4A58698  26.139  31.247   7.349
 4481POPC   C1B58699  25.658  31.467   6.245
 4481POPC   C2B58700  25.791  31.435   6.685
 4481POPC   C3B58701  25.919  31.620   7.071
 4481POPC   C4B58702  25.558  31.567   7.336
 4482POPC   NC358703   3.179  15.924   5.478
 4482POPC   PO458704   3.823  15.689   5.453
 4482POPC   GL158705   3.586  15.851   5.797
 4482POPC   GL258706   3.296  15.650   5.892
 4482POPC   C1A58707   3.718  15.949   6.213
 4482POPC   D2A58708   4.037  15.853   6.548
 4482POPC   C3A58709   3.850  15.821   6.970
 4482POPC   C4A58710   3.567  16.127   7.137
 4482POPC   C1B58711   3.217  15.891   6.228
 4482POPC   C2B58712   3.167  16.040   6.616
 4482POPC   C3B58713   3.191  15.812   6.948
 4482POPC   C4B58714   3.428  15.645   7.239
 4483POPC   NC358715  23.729  14.654   5.421
 4483POPC   PO458716  23.626  14.036   5.498
 4483POPC   GL158717  23.818  14.289   5.831
 4483POPC   GL258718  23.881  14.676   5.890
 4483POPC   C1A58719  23.661  14.304   6.249
 4483POPC   D2A58720  23.843  14.214   6.636
 4483POPC   C3A58721  23.692  14.167   7.033
 4483POPC   C4A58722  23.821  14.170   7.473
 4483POPC   C1B58723  23.526  14.784   6.143
 4483POPC   C2B58724  23.463  14.669   6.558
 4483POPC   C3B58725  23.451  14.628   6.953
 4483POPC   C4B58726  23.537  14.562   7.317
 4484POPC   NC358727  27.559  44.469   5.356
 4484POPC   PO458728  28.014  44.878   5.505
 4484POPC   GL158729  27.842  44.905   5.871
 4484POPC   GL258730  27.575  44.717   5.797
 4484POPC   C1A58731  27.848  44.650   6.240
 4484POPC   D2A58732  27.579  44.540   6.592
 4484POPC   C3A58733  27.766  44.712   6.932
 4484POPC   C4A58734  27.955  44.523   7.252
 4484POPC   C1B58735  27.354  44.697   6.153
 4484POPC   C2B58736  27.221  44.932   6.492
 4484POPC   C3B58737  27.242  44.798   6.906
 4484POPC   C4B58738  27.380  44.873   7.308
 4485POPC   NC358739  31.930  32.408   5.444
 4485POPC   PO458740  32.491  32.018   5.486
 4485POPC   GL158741  32.529  32.354   5.783
 4485POPC   GL258742  32.244  32.572   5.802
 4485POPC   C1A58743  32.436  32.352   6.236
 4485POPC   D2A58744  32.125  32.376   6.576
 4485POPC   C3A58745  32.334  32.258   6.940
 4485POPC   C4A58746  32.334  32.063   7.399
 4485POPC   C1B58747  31.987  32.673   6.154
 4485POPC   C2B58748  32.037  32.887   6.555
 4485POPC   C3B58749  32.038  32.729   6.971
 4485POPC   C4B58750  31.968  32.390   7.258
 4486POPC   NC358751  38.720  30.679   5.312
 4486POPC   PO458752  38.139  30.343   5.601
 4486POPC   GL158753  38.511  30.418   5.861
 4486POPC   GL258754  38.644  30.747   5.919
 4486POPC   C1A58755  38.465  30.417   6.314
 4486POPC   D2A58756  38.674  30.353   6.717
 4486POPC   C3A58757  38.384  30.467   7.056
 4486POPC   C4A58758  38.165  30.726   7.323
 4486POPC   C1B58759  38.631  30.916   6.351
 4486POPC   C2B58760  38.590  30.930   6.816
 4486POPC   C3B58761  38.693  30.859   7.260
 4486POPC   C4B58762  38.874  30.959   7.687
 4487POPC   NC358763   1.444  18.568   5.463
 4487POPC   PO458764   1.003  18.034   5.596
 4487POPC   GL158765   1.205  18.335   5.858
 4487POPC   GL258766   1.467  18.191   5.878
 4487POPC   C1A58767   1.233  18.492   6.275
 4487POPC   D2A58768   1.064  18.646   6.669
 4487POPC   C3A58769   1.185  18.423   7.052
 4487POPC   C4A58770   1.638  18.412   7.130
 4487POPC   C1B58771   1.397  17.959   6.252
 4487POPC   C2B58772   1.212  18.049   6.657
 4487POPC   C3B58773   1.374  17.933   7.075
 4487POPC   C4B58774   1.094  17.934   7.415
 4488POPC   NC358775   1.010   0.490   5.508
 4488POPC   PO458776   1.576   0.117   5.300
 4488POPC   GL158777   1.468   0.291   5.728
 4488POPC   GL258778   1.438   0.669   5.728
 4488POPC   C1A58779   1.315   0.378   6.177
 4488POPC   D2A58780   1.378   0.264   6.629
 4488POPC   C3A58781   1.114   0.409   6.974
 4488POPC   C4A58782   0.973   0.483   7.436
 4488POPC   C1B58783   1.105   0.850   6.040
 4488POPC   C2B58784   1.197   0.894   6.473
 4488POPC   C3B58785   1.464   0.759   6.805
 4488POPC   C4B58786   1.352   0.756   7.249
 4489POPC   NC358787  13.987   0.596   5.596
 4489POPC   PO458788  14.686   0.414   5.482
 4489POPC   GL158789  14.506   0.333   5.899
 4489POPC   GL258790  14.169   0.205   5.894
 4489POPC   C1A58791  14.339   0.404   6.339
 4489POPC   D2A58792  14.092   0.589   6.675
 4489POPC   C3A58793  14.394   0.723   6.991
 4489POPC   C4A58794  14.696   0.485   7.208
 4489POPC   C1B58795  14.287  44.907   6.190
 4489POPC   C2B58796  14.487  44.979   6.579
 4489POPC   C3B58797  14.362   0.209   6.929
 4489POPC   C4B58798  14.023   0.360   7.188
 4490POPC   NC358799  35.962  11.815   5.434
 4490POPC   PO458800  36.609  12.009   5.522
 4490POPC   GL158801  36.286  11.941   5.847
 4490POPC   GL258802  36.419  12.209   6.030
 4490POPC   C1A58803  35.985  11.979   6.238
 4490POPC   D2A58804  35.853  12.195   6.642
 4490POPC   C3A58805  35.847  11.886   6.968
 4490POPC   C4A58806  36.165  11.796   7.272
 4490POPC   C1B58807  36.476  11.890   6.346
 4490POPC   C2B58808  36.314  11.890   6.752
 4490POPC   C3B58809  36.196  12.231   7.016
 4490POPC   C4B58810  36.268  12.265   7.436
 4491POPC   NC358811  32.462  35.929   5.429
 4491POPC   PO458812  33.130  35.864   5.499
 4491POPC   GL158813  33.003  36.022   5.869
 4491POPC   GL258814  32.666  36.183   5.856
 4491POPC   C1A58815  33.179  36.152   6.254
 4491POPC   D2A58816  33.033  36.291   6.651
 4491POPC   C3A58817  33.062  36.066   7.049
 4491POPC   C4A58818  32.989  36.204   7.452
 4491POPC   C1B58819  32.700  35.950   6.269
 4491POPC   C2B58820  32.728  35.857   6.711
 4491POPC   C3B58821  32.567  35.942   7.109
 4491POPC   C4B58822  32.502  36.245   7.375
 4492POPC   NC358823  26.426   4.514   5.368
 4492POPC   PO458824  27.103   4.221   5.298
 4492POPC   GL158825  26.899   4.468   5.619
 4492POPC   GL258826  26.715   4.191   5.680
 4492POPC   C1A58827  26.953   4.505   6.086
 4492POPC   D2A58828  26.835   4.608   6.520
 4492POPC   C3A58829  27.003   4.852   6.877
 4492POPC   C4A58830  26.992   4.586   7.250
 4492POPC   C1B58831  26.688   4.071   6.099
 4492POPC   C2B58832  26.570   4.165   6.535
 4492POPC   C3B58833  26.744   4.109   6.949
 4492POPC   C4B58834  26.627   3.868   7.296
 4493POPC   NC358835  27.816  30.210   5.328
 4493POPC   PO458836  27.542  29.592   5.387
 4493POPC   GL158837  27.684  29.863   5.730
 4493POPC   GL258838  27.382  29.946   5.827
 4493POPC   C1A58839  27.784  30.020   6.165
 4493POPC   D2A58840  27.938  29.896   6.590
 4493POPC   C3A58841  27.732  29.988   6.979
 4493POPC   C4A58842  27.795  30.306   7.313
 4493POPC   C1B58843  27.399  29.696   6.204
 4493POPC   C2B58844  27.474  29.691   6.633
 4493POPC   C3B58845  27.272  29.757   7.010
 4493POPC   C4B58846  27.353  30.074   7.325
 4494POPC   NC358847  14.080   9.940   5.389
 4494POPC   PO458848  14.696   9.826   5.352
 4494POPC   GL158849  14.545   9.819   5.775
 4494POPC   GL258850  14.644   9.504   5.884
 4494POPC   C1A58851  14.619   9.906   6.255
 4494POPC   D2A58852  14.466  10.050   6.688
 4494POPC   C3A58853  14.582   9.876   7.104
 4494POPC   C4A58854  14.387   9.812   7.538
 4494POPC   C1B58855  14.601   9.394   6.344
 4494POPC   C2B58856  14.606   9.462   6.802
 4494POPC   C3B58857  14.350   9.404   7.195
 4494POPC   C4B58858  14.431   9.270   7.632
 4495POPC   NC358859  21.587  17.456   5.329
 4495POPC   PO458860  21.152  17.895   5.394
 4495POPC   GL158861  21.364  17.592   5.771
 4495POPC   GL258862  21.584  17.248   5.805
 4495POPC   C1A58863  21.489  17.649   6.224
 4495POPC   D2A58864  21.419  17.861   6.634
 4495POPC   C3A58865  21.390  17.620   7.028
 4495POPC   C4A58866  21.042  17.768   7.271
 4495POPC   C1B58867  21.839  17.267   6.231
 4495POPC   C2B58868  21.739  17.285   6.713
 4495POPC   C3B58869  21.647  17.130   7.176
 4495POPC   C4B58870  21.703  17.021   7.641
 4496POPC   NC358871   1.305  26.568   5.184
 4496POPC   PO458872   1.026  27.059   5.564
 4496POPC   GL158873   1.126  26.797   5.848
 4496POPC   GL258874   0.983  26.506   5.678
 4496POPC   C1A58875   1.105  26.936   6.277
 4496POPC   D2A58876   1.433  27.094   6.540
 4496POPC   C3A58877   1.343  27.119   6.984
 4496POPC   C4A58878   1.312  26.821   7.315
 4496POPC   C1B58879   1.127  26.375   6.122
 4496POPC   C2B58880   1.260  26.517   6.510
 4496POPC   C3B58881   1.362  26.490   6.919
 4496POPC   C4B58882   1.019  26.386   7.214
 4497POPC   NC358883  44.473  30.101   5.479
 4497POPC   PO458884  44.747  29.432   5.453
 4497POPC   GL158885  44.642  29.692   5.778
 4497POPC   GL258886  44.408  29.507   5.898
 4497POPC   C1A58887  44.823  29.810   6.199
 4497POPC   D2A58888   0.015  30.003   6.587
 4497POPC   C3A58889  44.882  29.917   6.984
 4497POPC   C4A58890  44.658  30.096   7.290
 4497POPC   C1B58891  44.359  29.673   6.313
 4497POPC   C2B58892  44.453  29.970   6.641
 4497POPC   C3B58893  44.384  29.759   7.022
 4497POPC   C4B58894  44.221  29.814   7.442
 4498POPC   NC358895   9.428   2.997   5.715
 4498POPC   PO458896   8.842   2.885   5.286
 4498POPC   GL158897   8.923   2.882   5.770
 4498POPC   GL258898   8.668   3.062   5.866
 4498POPC   C1A58899   8.983   3.029   6.265
 4498POPC   D2A58900   8.925   3.135   6.740
 4498POPC   C3A58901   9.052   2.742   6.989
 4498POPC   C4A58902   9.033   2.602   7.439
 4498POPC   C1B58903   8.579   2.707   6.198
 4498POPC   C2B58904   8.626   2.688   6.684
 4498POPC   C3B58905   8.587   2.619   7.153
 4498POPC   C4B58906   8.566   2.863   7.539
 4499POPC   NC358907  17.636  27.994   5.268
 4499POPC   PO458908  17.211  28.439   5.260
 4499POPC   GL158909  17.342  28.302   5.674
 4499POPC   GL258910  17.698  28.371   5.683
 4499POPC   C1A58911  17.284  28.448   6.111
 4499POPC   D2A58912  17.606  28.664   6.383
 4499POPC   C3A58913  17.548  28.608   6.838
 4499POPC   C4A58914  17.607  28.478   7.267
 4499POPC   C1B58915  17.683  28.130   6.090
 4499POPC   C2B58916  17.516  28.194   6.523
 4499POPC   C3B58917  17.437  28.104   6.968
 4499POPC   C4B58918  17.257  28.046   7.411
 4500POPC   NC358919  41.264   0.968   5.435
 4500POPC   PO458920  41.734   1.433   5.423
 4500POPC   GL158921  41.607   1.170   5.794
 4500POPC   GL258922  41.266   1.277   5.889
 4500POPC   C1A58923  41.599   1.233   6.267
 4500POPC   D2A58924  41.369   1.234   6.671
 4500POPC   C3A58925  41.663   1.253   7.032
 4500POPC   C4A58926  41.667   1.332   7.486
 4500POPC   C1B58927  41.178   1.552   6.260
 4500POPC   C2B58928  41.070   1.686   6.683
 4500POPC   C3B58929  41.280   1.591   7.062
 4500POPC   C4B58930  41.324   1.714   7.495
 4501POPC   NC358931  30.817  44.264   5.361
 4501POPC   PO458932  30.453  44.799   5.608
 4501POPC   GL158933  30.691  44.794   5.966
 4501POPC   GL258934  30.885  44.519   5.848
 4501POPC   C1A58935  30.710  44.665   6.386
 4501POPC   D2A58936  30.800  44.910   6.738
 4501POPC   C3A58937  30.713  44.730   7.139
 4501POPC   C4A58938  30.451  44.859   7.470
 4501POPC   C1B58939  31.157  44.200   6.032
 4501POPC   C2B58940  31.187  44.098   6.484
 4501POPC   C3B58941  30.922  44.133   6.847
 4501POPC   C4B58942  31.050  44.334   7.248
 4502POPC   NC358943   2.665   1.761   5.448
 4502POPC   PO458944   3.172   2.271   5.461
 4502POPC   GL158945   3.045   2.058   5.820
 4502POPC   GL258946   2.689   2.017   5.897
 4502POPC   C1A58947   3.167   2.047   6.238
 4502POPC   D2A58948   3.059   1.747   6.540
 4502POPC   C3A58949   2.796   1.912   6.859
 4502POPC   C4A58950   2.978   1.972   7.268
 4502POPC   C1B58951   2.654   2.008   6.347
 4502POPC   C2B58952   2.473   2.296   6.647
 4502POPC   C3B58953   2.357   2.116   7.028
 4502POPC   C4B58954   2.526   2.109   7.447
 4503POPC   NC358955  22.906  34.146   5.595
 4503POPC   PO458956  22.644  33.537   5.461
 4503POPC   GL158957  22.925  33.613   5.792
 4503POPC   GL258958  22.643  33.822   5.899
 4503POPC   C1A58959  23.059  33.801   6.202
 4503POPC   D2A58960  23.232  33.950   6.585
 4503POPC   C3A58961  22.932  34.133   6.873
 4503POPC   C4A58962  23.043  34.173   7.311
 4503POPC   C1B58963  22.616  33.528   6.216
 4503POPC   C2B58964  22.717  33.721   6.610
 4503POPC   C3B58965  22.853  33.653   7.044
 4503POPC   C4B58966  22.764  33.716   7.488
 4504POPC   NC358967   5.314   3.909   5.530
 4504POPC   PO458968   5.046   3.263   5.530
 4504POPC   GL158969   4.814   3.440   5.891
 4504POPC   GL258970   4.908   3.791   5.921
 4504POPC   C1A58971   4.851   3.485   6.355
 4504POPC   D2A58972   5.083   3.668   6.710
 4504POPC   C3A58973   5.350   3.402   6.960
 4504POPC   C4A58974   5.053   3.164   7.191
 4504POPC   C1B58975   5.248   3.869   6.225
 4504POPC   C2B58976   5.377   4.067   6.604
 4504POPC   C3B58977   5.369   3.962   7.040
 4504POPC   C4B58978   5.155   3.678   7.335
 4505POPC   NC358979  38.505   9.244   5.237
 4505POPC   PO458980  38.040   8.901   5.453
 4505POPC   GL158981  38.418   8.943   5.751
 4505POPC   GL258982  38.511   8.602   5.917
 4505POPC   C1A58983  38.486   9.007   6.229
 4505POPC   D2A58984  38.702   9.197   6.600
 4505POPC   C3A58985  38.445   9.086   6.969
 4505POPC   C4A58986  38.185   8.813   7.241
 4505POPC   C1B58987  38.799   8.585   6.311
 4505POPC   C2B58988  38.896   8.704   6.759
 4505POPC   C3B58989  38.683   8.664   7.172
 4505POPC   C4B58990  38.419   8.348   7.270
 4506POPC   NC358991  42.231  33.395   5.452
 4506POPC   PO458992  42.606  34.049   5.384
 4506POPC   GL158993  42.483  34.035   5.819
 4506POPC   GL258994  42.340  33.706   5.873
 4506POPC   C1A58995  42.570  33.941   6.266
 4506POPC   D2A58996  42.296  33.813   6.574
 4506POPC   C3A58997  42.414  33.884   6.990
 4506POPC   C4A58998  42.443  33.500   7.231
 4506POPC   C1B58999  42.043  33.980   6.124
 4506POPC   C2B59000  41.846  34.025   6.556
 4506POPC   C3B59001  41.893  34.140   7.009
 4506POPC   C4B59002  42.087  33.969   7.381
 4507POPC   NC359003   1.754  15.426   5.413
 4507POPC   PO459004   2.345  15.089   5.447
 4507POPC   GL159005   2.074  15.129   5.814
 4507POPC   GL259006   1.978  15.475   5.861
 4507POPC   C1A59007   2.079  15.174   6.285
 4507POPC   D2A59008   1.866  14.958   6.643
 4507POPC   C3A59009   2.011  15.131   7.036
 4507POPC   C4A59010   2.209  14.875   7.385
 4507POPC   C1B59011   1.800  15.601   6.250
 4507POPC   C2B59012   1.752  15.443   6.690
 4507POPC   C3B59013   1.791  15.602   7.098
 4507POPC   C4B59014   2.025  15.455   7.473
 4508POPC   NC359015  32.984  41.345   5.509
 4508POPC   PO459016  33.241  42.005   5.442
 4508POPC   GL159017  33.086  41.770   5.792
 4508POPC   GL259018  32.738  41.747   5.765
 4508POPC   C1A59019  33.032  41.505   6.187
 4508POPC   D2A59020  32.865  41.413   6.618
 4508POPC   C3A59021  33.239  41.412   6.892
 4508POPC   C4A59022  33.242  41.671   7.266
 4508POPC   C1B59023  32.580  41.762   6.211
 4508POPC   C2B59024  32.663  41.924   6.645
 4508POPC   C3B59025  32.705  41.724   7.059
 4508POPC   C4B59026  32.692  41.628   7.518
 4509POPC   NC359027  24.310  44.768   5.273
 4509POPC   PO459028  24.567  44.130   5.344
 4509POPC   GL159029  24.605  44.491   5.701
 4509POPC   GL259030  24.263  44.636   5.772
 4509POPC   C1A59031  24.617  44.806   6.121
 4509POPC   D2A59032  24.743  44.956   6.580
 4509POPC   C3A59033  24.576  44.677   6.961
 4509POPC   C4A59034  24.671  44.404   7.349
 4509POPC   C1B59035  24.136  44.643   6.216
 4509POPC   C2B59036  24.243  44.874   6.599
 4509POPC   C3B59037  24.218   0.021   7.077
 4509POPC   C4B59038  23.842  44.949   7.347
 4510POPC   NC359039  22.689  30.846   5.330
 4510POPC   PO459040  23.129  30.484   5.552
 4510POPC   GL159041  22.977  30.791   5.776
 4510POPC   GL259042  23.223  31.003   5.732
 4510POPC   C1A59043  22.821  30.755   6.170
 4510POPC   D2A59044  22.780  30.446   6.512
 4510POPC   C3A59045  22.712  30.660   6.880
 4510POPC   C4A59046  22.876  30.729   7.266
 4510POPC   C1B59047  23.296  30.944   6.168
 4510POPC   C2B59048  23.044  31.029   6.522
 4510POPC   C3B59049  22.961  31.095   6.928
 4510POPC   C4B59050  22.912  31.252   7.340
 4511POPC   NC359051  25.126  34.359   5.361
 4511POPC   PO459052  25.489  34.870   5.462
 4511POPC   GL159053  25.196  34.783   5.816
 4511POPC   GL259054  25.367  34.991   6.057
 4511POPC   C1A59055  25.062  34.638   6.261
 4511POPC   D2A59056  25.136  34.787   6.706
 4511POPC   C3A59057  24.939  34.564   7.064
 4511POPC   C4A59058  25.006  34.408   7.491
 4511POPC   C1B59059  25.558  34.546   6.179
 4511POPC   C2B59060  25.681  34.368   6.589
 4511POPC   C3B59061  25.744  34.520   6.999
 4511POPC   C4B59062  25.405  34.714   7.219
 4512POPC   NC359063  40.593  19.373   5.528
 4512POPC   PO459064  41.135  19.025   5.338
 4512POPC   GL159065  41.002  18.942   5.787
 4512POPC   GL259066  40.662  18.968   5.896
 4512POPC   C1A59067  41.059  19.128   6.202
 4512POPC   D2A59068  40.834  19.354   6.541
 4512POPC   C3A59069  40.784  19.103   6.917
 4512POPC   C4A59070  41.158  19.076   7.162
 4512POPC   C1B59071  40.589  18.947   6.343
 4512POPC   C2B59072  40.309  19.039   6.677
 4512POPC   C3B59073  40.282  18.878   7.093
 4512POPC   C4B59074  40.549  19.021   7.399
 4513POPC   NC359075  17.267  40.688   5.016
 4513POPC   PO459076  17.815  40.790   5.433
 4513POPC   GL159077  17.515  40.817   5.721
 4513POPC   GL259078  17.215  40.961   5.527
 4513POPC   C1A59079  17.529  40.560   6.118
 4513POPC   D2A59080  17.627  40.312   6.488
 4513POPC   C3A59081  17.566  40.547   6.841
 4513POPC   C4A59082  17.455  40.475   7.236
 4513POPC   C1B59083  17.156  41.036   5.997
 4513POPC   C2B59084  17.279  40.930   6.417
 4513POPC   C3B59085  17.448  41.049   6.816
 4513POPC   C4B59086  17.603  40.979   7.242
 4514POPC   NC359087   0.057  31.714   5.296
 4514POPC   PO459088   0.520  31.203   5.360
 4514POPC   GL159089   0.588  31.366   5.803
 4514POPC   GL259090   0.536  31.744   5.842
 4514POPC   C1A59091   0.550  31.292   6.249
 4514POPC   D2A59092   0.273  31.363   6.614
 4514POPC   C3A59093   0.487  31.302   6.998
 4514POPC   C4A59094   0.537  31.531   7.396
 4514POPC   C1B59095   0.426  31.783   6.320
 4514POPC   C2B59096   0.419  31.829   6.788
 4514POPC   C3B59097   0.149  31.670   7.073
 4514POPC   C4B59098   0.060  31.296   7.341
 4515POPC   NC359099  32.666  26.476   5.521
 4515POPC   PO459100  32.123  26.791   5.383
 4515POPC   GL159101  32.146  26.967   5.769
 4515POPC   GL259102  32.473  26.858   5.834
 4515POPC   C1A59103  32.037  26.756   6.128
 4515POPC   D2A59104  32.239  26.640   6.504
 4515POPC   C3A59105  31.988  26.769   6.826
 4515POPC   C4A59106  32.036  26.655   7.234
 4515POPC   C1B59107  32.420  27.086   6.220
 4515POPC   C2B59108  32.369  27.149   6.668
 4515POPC   C3B59109  32.452  26.854   7.017
 4515POPC   C4B59110  32.573  26.628   7.389
 4516POPC   NC359111  19.725  11.249   5.469
 4516POPC   PO459112  20.342  11.530   5.205
 4516POPC   GL159113  20.141  11.412   5.712
 4516POPC   GL259114  19.958  11.056   5.880
 4516POPC   C1A59115  19.915  11.392   6.209
 4516POPC   D2A59116  19.983  11.204   6.575
 4516POPC   C3A59117  19.792  11.353   6.934
 4516POPC   C4A59118  19.994  11.158   7.290
 4516POPC   C1B59119  19.556  11.006   6.104
 4516POPC   C2B59120  19.439  11.065   6.541
 4516POPC   C3B59121  19.281  11.085   6.971
 4516POPC   C4B59122  19.472  11.214   7.333
 4517POPC   NC359123  21.944  31.516   5.322
 4517POPC   PO459124  22.503  31.185   5.078
 4517POPC   GL159125  22.362  31.289   5.531
 4517POPC   GL259126  22.619  31.176   5.733
 4517POPC   C1A59127  22.075  31.377   5.966
 4517POPC   D2A59128  21.861  31.670   6.310
 4517POPC   C3A59129  21.857  31.715   6.796
 4517POPC   C4A59130  22.002  31.682   7.254
 4517POPC   C1B59131  22.449  31.086   6.140
 4517POPC   C2B59132  22.161  31.245   6.484
 4517POPC   C3B59133  22.254  31.392   6.914
 4517POPC   C4B59134  22.348  31.194   7.330
 4518POPC   NC359135  21.563  21.644   5.502
 4518POPC   PO459136  20.944  21.545   5.647
 4518POPC   GL159137  21.089  21.350   6.010
 4518POPC   GL259138  21.466  21.336   5.967
 4518POPC   C1A59139  21.168  21.402   6.402
 4518POPC   D2A59140  21.402  21.572   6.697
 4518POPC   C3A59141  21.331  21.487   7.130
 4518POPC   C4A59142  21.672  21.384   7.439
 4518POPC   C1B59143  21.649  21.208   6.404
 4518POPC   C2B59144  21.538  21.099   6.856
 4518POPC   C3B59145  21.548  20.908   7.263
 4518POPC   C4B59146  21.674  20.950   7.726
 4519POPC   NC359147  35.956  28.676   5.496
 4519POPC   PO459148  36.333  28.058   5.381
 4519POPC   GL159149  36.170  28.258   5.727
 4519POPC   GL259150  36.448  28.501   5.715
 4519POPC   C1A59151  35.903  28.290   6.108
 4519POPC   D2A59152  35.856  28.177   6.536
 4519POPC   C3A59153  35.994  28.467   6.857
 4519POPC   C4A59154  35.920  28.329   7.270
 4519POPC   C1B59155  36.290  28.638   6.114
 4519POPC   C2B59156  36.320  28.797   6.541
 4519POPC   C3B59157  36.462  28.750   6.935
 4519POPC   C4B59158  36.414  28.418   7.207
 4520POPC   NC359159   1.097  24.055   5.342
 4520POPC   PO459160   1.565  23.755   5.683
 4520POPC   GL159161   1.151  23.777   5.830
 4520POPC   GL259162   1.020  23.464   5.732
 4520POPC   C1A59163   1.041  24.009   6.210
 4520POPC   D2A59164   1.116  24.123   6.622
 4520POPC   C3A59165   0.940  23.848   6.891
 4520POPC   C4A59166   1.202  23.948   7.198
 4520POPC   C1B59167   1.170  23.324   6.136
 4520POPC   C2B59168   1.212  23.536   6.536
 4520POPC   C3B59169   1.381  23.530   6.947
 4520POPC   C4B59170   1.075  23.430   7.234
 4521POPC   NC359171  11.116  29.396   5.094
 4521POPC   PO459172  11.574  29.567   5.530
 4521POPC   GL159173  11.438  29.852   5.865
 4521POPC   GL259174  11.110  30.000   5.791
 4521POPC   C1A59175  11.447  29.785   6.307
 4521POPC   D2A59176  11.547  29.997   6.686
 4521POPC   C3A59177  11.463  29.749   7.045
 4521POPC   C4A59178  11.511  29.737   7.515
 4521POPC   C1B59179  10.958  29.807   6.194
 4521POPC   C2B59180  11.017  29.946   6.607
 4521POPC   C3B59181  11.131  30.152   6.956
 4521POPC   C4B59182  11.121  30.021   7.360
 4522POPC   NC359183   5.266  38.950   5.453
 4522POPC   PO459184   4.769  39.497   5.434
 4522POPC   GL159185   4.953  39.299   5.783
 4522POPC   GL259186   4.875  38.956   5.802
 4522POPC   C1A59187   5.247  39.278   6.143
 4522POPC   D2A59188   5.335  39.502   6.532
 4522POPC   C3A59189   5.239  39.512   6.965
 4522POPC   C4A59190   5.431  39.372   7.312
 4522POPC   C1B59191   4.784  39.087   6.239
 4522POPC   C2B59192   4.957  39.179   6.656
 4522POPC   C3B59193   4.996  39.071   7.093
 4522POPC   C4B59194   4.834  38.650   7.206
 4523POPC   NC359195  39.755   6.399   5.369
 4523POPC   PO459196  40.107   6.914   5.151
 4523POPC   GL159197  39.931   6.794   5.645
 4523POPC   GL259198  39.874   6.431   5.848
 4523POPC   C1A59199  39.745   6.857   6.103
 4523POPC   D2A59200  39.564   6.789   6.557
 4523POPC   C3A59201  39.749   6.831   6.983
 4523POPC   C4A59202  40.154   6.857   7.213
 4523POPC   C1B59203  39.684   6.363   6.265
 4523POPC   C2B59204  39.915   6.396   6.654
 4523POPC   C3B59205  40.088   6.364   7.068
 4523POPC   C4B59206  40.073   6.427   7.524
 4524POPC   NC359207  10.003  18.906   5.357
 4524POPC   PO459208   9.428  19.241   5.507
 4524POPC   GL159209   9.772  19.158   5.802
 4524POPC   GL259210   9.874  18.812   5.857
 4524POPC   C1A59211   9.895  19.142   6.256
 4524POPC   D2A59212   9.773  19.024   6.703
 4524POPC   C3A59213   9.759  19.183   7.160
 4524POPC   C4A59214   9.888  19.357   7.581
 4524POPC   C1B59215   9.599  18.717   6.232
 4524POPC   C2B59216   9.541  18.555   6.662
 4524POPC   C3B59217   9.497  18.740   7.077
 4524POPC   C4B59218   9.446  18.866   7.516
 4525POPC   NC359219  32.870   1.040   5.282
 4525POPC   PO459220  33.457   1.293   5.471
 4525POPC   GL159221  33.078   1.290   5.703
 4525POPC   GL259222  33.013   0.965   5.888
 4525POPC   C1A59223  32.946   1.433   6.115
 4525POPC   D2A59224  33.077   1.244   6.494
 4525POPC   C3A59225  32.975   1.424   6.851
 4525POPC   C4A59226  32.874   1.364   7.255
 4525POPC   C1B59227  33.245   0.797   6.281
 4525POPC   C2B59228  33.248   0.811   6.750
 4525POPC   C3B59229  33.284   1.067   7.084
 4525POPC   C4B59230  33.346   1.089   7.552
 4526POPC   NC359231  29.868   6.949   5.319
 4526POPC   PO459232  29.952   7.584   5.368
 4526POPC   GL159233  30.078   7.581   5.783
 4526POPC   GL259234  30.062   7.226   5.753
 4526POPC   C1A59235  30.092   7.685   6.217
 4526POPC   D2A59236  30.061   7.444   6.593
 4526POPC   C3A59237  30.250   7.568   6.955
 4526POPC   C4A59238  29.965   7.832   7.206
 4526POPC   C1B59239  30.181   7.129   6.185
 4526POPC   C2B59240  30.101   6.941   6.580
 4526POPC   C3B59241  29.807   7.048   6.875
 4526POPC   C4B59242  29.792   7.329   7.206
 4527POPC   NC359243  14.795  27.893   5.308
 4527POPC   PO459244  14.156  27.860   5.645
 4527POPC   GL159245  14.454  27.671   5.900
 4527POPC   GL259246  14.418  27.879   6.112
 4527POPC   C1A59247  14.354  27.389   6.263
 4527POPC   D2A59248  14.544  27.394   6.667
 4527POPC   C3A59249  14.385  27.717   6.928
 4527POPC   C4A59250  14.323  27.569   7.313
 4527POPC   C1B59251  14.815  27.972   6.182
 4527POPC   C2B59252  14.834  27.844   6.560
 4527POPC   C3B59253  14.903  27.767   6.936
 4527POPC   C4B59254  14.746  27.854   7.339
 4528POPC   NC359255  12.522  31.527   5.589
 4528POPC   PO459256  13.090  31.578   5.211
 4528POPC   GL159257  13.027  31.525   5.666
 4528POPC   GL259258  13.037  31.782   5.852
 4528POPC   C1A59259  12.973  31.351   6.094
 4528POPC   D2A59260  12.811  31.470   6.499
 4528POPC   C3A59261  13.033  31.212   6.769
 4528POPC   C4A59262  12.932  31.057   7.145
 4528POPC   C1B59263  12.664  31.817   6.150
 4528POPC   C2B59264  12.482  31.983   6.523
 4528POPC   C3B59265  12.677  31.930   6.918
 4528POPC   C4B59266  12.735  31.524   7.090
 4529POPC   NC359267  22.315  34.037   5.392
 4529POPC   PO459268  21.878  33.503   5.527
 4529POPC   GL159269  22.136  33.773   5.838
 4529POPC   GL259270  22.011  34.134   5.959
 4529POPC   C1A59271  22.208  33.828   6.292
 4529POPC   D2A59272  22.007  33.888   6.676
 4529POPC   C3A59273  22.327  33.734   6.928
 4529POPC   C4A59274  22.377  33.460   7.230
 4529POPC   C1B59275  22.217  34.346   6.356
 4529POPC   C2B59276  22.383  34.228   6.760
 4529POPC   C3B59277  22.076  34.131   7.135
 4529POPC   C4B59278  21.897  33.716   7.194
 4530POPC   NC359279  36.392  26.837   5.428
 4530POPC   PO459280  35.705  26.614   5.391
 4530POPC   GL159281  35.996  26.771   5.755
 4530POPC   GL259282  36.351  26.576   5.839
 4530POPC   C1A59283  36.183  26.921   6.173
 4530POPC   D2A59284  36.212  27.106   6.604
 4530POPC   C3A59285  36.190  26.919   7.039
 4530POPC   C4A59286  35.959  26.667   7.337
 4530POPC   C1B59287  36.279  26.416   6.231
 4530POPC   C2B59288  36.225  26.571   6.627
 4530POPC   C3B59289  36.227  26.410   6.997
 4530POPC   C4B59290  36.456  26.539   7.346
 4531POPC   NC359291  30.239  30.118   5.373
 4531POPC   PO459292  30.667  29.608   5.476
 4531POPC   GL159293  30.545  29.875   5.805
 4531POPC   GL259294  30.552  30.227   5.782
 4531POPC   C1A59295  30.786  29.898   6.190
 4531POPC   D2A59296  30.983  29.668   6.533
 4531POPC   C3A59297  30.919  29.907   6.885
 4531POPC   C4A59298  30.718  29.874   7.241
 4531POPC   C1B59299  30.503  30.347   6.200
 4531POPC   C2B59300  30.718  30.251   6.561
 4531POPC   C3B59301  30.597  30.297   6.969
 4531POPC   C4B59302  30.789  30.435   7.300
 4532POPC   NC359303   6.340  33.771   5.472
 4532POPC   PO459304   6.991  33.866   5.670
 4532POPC   GL159305   6.679  33.666   5.845
 4532POPC   GL259306   6.530  33.971   5.953
 4532POPC   C1A59307   6.698  33.585   6.256
 4532POPC   D2A59308   6.750  33.846   6.627
 4532POPC   C3A59309   6.748  33.627   7.021
 4532POPC   C4A59310   6.393  33.414   7.161
 4532POPC   C1B59311   6.296  34.049   6.357
 4532POPC   C2B59312   6.364  34.273   6.720
 4532POPC   C3B59313   6.635  34.113   7.058
 4532POPC   C4B59314   6.901  33.995   7.460
 4533POPC   NC359315  30.380  11.884   5.353
 4533POPC   PO459316  30.869  12.312   5.514
 4533POPC   GL159317  30.864  12.024   5.782
 4533POPC   GL259318  30.505  12.069   5.821
 4533POPC   C1A59319  31.055  11.920   6.180
 4533POPC   D2A59320  30.859  11.889   6.573
 4533POPC   C3A59321  30.958  12.158   6.911
 4533POPC   C4A59322  31.133  11.967   7.276
 4533POPC   C1B59323  30.457  11.915   6.229
 4533POPC   C2B59324  30.361  11.684   6.612
 4533POPC   C3B59325  30.614  11.738   7.003
 4533POPC   C4B59326  30.621  12.082   7.284
 4534POPC   NC359327  19.007  34.143   5.092
 4534POPC   PO459328  19.216  33.879   5.749
 4534POPC   GL159329  19.212  33.601   6.007
 4534POPC   GL259330  18.877  33.493   5.830
 4534POPC   C1A59331  19.152  33.763   6.429
 4534POPC   D2A59332  18.791  33.991   6.605
 4534POPC   C3A59333  18.848  33.914   7.033
 4534POPC   C4A59334  19.036  33.777   7.416
 4534POPC   C1B59335  18.858  33.374   6.274
 4534POPC   C2B59336  18.817  33.483   6.722
 4534POPC   C3B59337  19.105  33.460   7.021
 4534POPC   C4B59338  19.196  33.272   7.402
 4535POPC   NC359339   9.395  32.942   5.072
 4535POPC   PO459340   8.949  33.205   5.497
 4535POPC   GL159341   8.780  33.104   5.874
 4535POPC   GL259342   9.122  33.097   5.978
 4535POPC   C1A59343   8.718  32.961   6.305
 4535POPC   D2A59344   8.827  32.729   6.696
 4535POPC   C3A59345   8.751  32.864   7.114
 4535POPC   C4A59346   8.925  33.215   7.335
 4535POPC   C1B59347   9.197  32.783   6.273
 4535POPC   C2B59348   9.342  32.964   6.636
 4535POPC   C3B59349   9.229  32.952   7.009
 4535POPC   C4B59350   9.181  32.499   7.091
 4536POPC   NC359351  19.415  25.566   5.365
 4536POPC   PO459352  19.069  24.986   5.077
 4536POPC   GL159353  19.141  25.158   5.550
 4536POPC   GL259354  18.895  25.421   5.671
 4536POPC   C1A59355  19.105  25.122   6.037
 4536POPC   D2A59356  19.154  25.358   6.460
 4536POPC   C3A59357  19.364  25.263   6.859
 4536POPC   C4A59358  19.218  25.328   7.278
 4536POPC   C1B59359  18.799  25.546   6.106
 4536POPC   C2B59360  18.690  25.542   6.539
 4536POPC   C3B59361  18.831  25.388   6.938
 4536POPC   C4B59362  18.770  25.550   7.354
 4537POPC   NC359363  12.207  22.349   5.533
 4537POPC   PO459364  11.697  21.911   5.366
 4537POPC   GL159365  11.783  22.114   5.781
 4537POPC   GL259366  12.114  21.998   5.879
 4537POPC   C1A59367  11.823  22.189   6.253
 4537POPC   D2A59368  11.999  22.393   6.614
 4537POPC   C3A59369  11.858  22.220   7.018
 4537POPC   C4A59370  12.119  22.395   7.319
 4537POPC   C1B59371  12.121  21.773   6.246
 4537POPC   C2B59372  12.119  21.893   6.659
 4537POPC   C3B59373  12.352  22.129   6.933
 4537POPC   C4B59374  12.550  21.857   7.216
 4538POPC   NC359375  25.093   7.584   5.458
 4538POPC   PO459376  25.691   7.160   5.348
 4538POPC   GL159377  25.553   7.274   5.788
 4538POPC   GL259378  25.338   7.578   5.929
 4538POPC   C1A59379  25.470   7.207   6.241
 4538POPC   D2A59380  25.374   7.453   6.621
 4538POPC   C3A59381  25.377   7.176   6.961
 4538POPC   C4A59382  25.692   7.077   7.251
 4538POPC   C1B59383  25.008   7.464   6.242
 4538POPC   C2B59384  24.880   7.572   6.691
 4538POPC   C3B59385  25.070   7.552   7.119
 4538POPC   C4B59386  24.943   7.481   7.564
 4539POPC   NC359387   3.344  39.583   5.590
 4539POPC   PO459388   3.342  38.943   5.809
 4539POPC   GL159389   3.452  39.319   6.012
 4539POPC   GL259390   3.761  39.561   5.896
 4539POPC   C1A59391   3.299  39.307   6.436
 4539POPC   D2A59392   3.237  38.981   6.724
 4539POPC   C3A59393   3.586  38.974   6.968
 4539POPC   C4A59394   3.544  39.312   7.241
 4539POPC   C1B59395   3.858  39.397   6.331
 4539POPC   C2B59396   3.696  39.470   6.760
 4539POPC   C3B59397   3.866  39.692   7.123
 4539POPC   C4B59398   3.967  39.590   7.579
 4540POPC   NC359399   0.170  20.486   5.488
 4540POPC   PO459400   0.561  21.089   5.596
 4540POPC   GL159401   0.320  20.818   5.853
 4540POPC   GL259402   0.545  20.543   5.885
 4540POPC   C1A59403   0.189  20.658   6.246
 4540POPC   D2A59404   0.464  20.674   6.614
 4540POPC   C3A59405   0.319  20.745   7.018
 4540POPC   C4A59406  44.980  20.530   7.201
 4540POPC   C1B59407   0.581  20.283   6.288
 4540POPC   C2B59408   0.714  20.231   6.753
 4540POPC   C3B59409   0.721  20.456   7.131
 4540POPC   C4B59410   0.828  20.882   7.253
 4541POPC   NC359411  28.936  20.326   5.516
 4541POPC   PO459412  28.841  21.005   5.534
 4541POPC   GL159413  28.983  20.767   5.896
 4541POPC   GL259414  29.260  20.544   5.881
 4541POPC   C1A59415  28.989  20.586   6.328
 4541POPC   D2A59416  28.983  20.290   6.691
 4541POPC   C3A59417  29.030  20.573   7.027
 4541POPC   C4A59418  29.125  20.845   7.354
 4541POPC   C1B59419  29.412  20.874   6.220
 4541POPC   C2B59420  29.596  20.907   6.659
 4541POPC   C3B59421  29.548  20.708   7.072
 4541POPC   C4B59422  29.831  20.510   7.368
 4542POPC   NC359423  44.485  42.869   5.496
 4542POPC   PO459424   0.069  43.221   5.374
 4542POPC   GL159425  44.756  43.199   5.743
 4542POPC   GL259426  44.795  42.819   5.891
 4542POPC   C1A59427  44.514  43.164   6.161
 4542POPC   D2A59428  44.418  43.062   6.610
 4542POPC   C3A59429  44.634  43.260   6.963
 4542POPC   C4A59430  44.551  43.232   7.443
 4542POPC   C1B59431  44.864  42.847   6.345
 4542POPC   C2B59432  44.806  42.772   6.787
 4542POPC   C3B59433  44.525  42.681   7.107
 4542POPC   C4B59434  44.614  42.581   7.516
 4543POPC   NC359435  31.188  11.390   5.386
 4543POPC   PO459436  30.555  11.451   5.388
 4543POPC   GL159437  30.710  11.543   5.817
 4543POPC   GL259438  31.068  11.521   5.864
 4543POPC   C1A59439  30.728  11.488   6.271
 4543POPC   D2A59440  30.564  11.153   6.516
 4543POPC   C3A59441  30.447  11.265   6.905
 4543POPC   C4A59442  30.436  11.016   7.234
 4543POPC   C1B59443  31.083  11.146   6.172
 4543POPC   C2B59444  31.044  11.238   6.645
 4543POPC   C3B59445  30.921  11.221   7.101
 4543POPC   C4B59446  31.060  11.464   7.460
 4544POPC   NC359447  31.753  44.953   5.245
 4544POPC   PO459448  31.198  44.552   5.397
 4544POPC   GL159449  31.407  44.596   5.820
 4544POPC   GL259450  31.211  44.875   5.998
 4544POPC   C1A59451  31.678  44.806   6.148
 4544POPC   D2A59452  31.853  44.660   6.511
 4544POPC   C3A59453  31.658  44.775   6.893
 4544POPC   C4A59454  31.516  44.508   7.232
 4544POPC   C1B59455  31.236  44.608   6.344
 4544POPC   C2B59456  31.198  44.570   6.774
 4544POPC   C3B59457  31.190  44.892   7.067
 4544POPC   C4B59458  31.223  44.878   7.428
 4545POPC   NC359459  22.656  31.626   5.235
 4545POPC   PO459460  23.326  31.379   5.152
 4545POPC   GL159461  23.028  31.418   5.548
 4545POPC   GL259462  22.953  31.689   5.731
 4545POPC   C1A59463  22.958  31.318   6.073
 4545POPC   D2A59464  22.676  31.376   6.487
 4545POPC   C3A59465  22.746  31.545   6.916
 4545POPC   C4A59466  22.545  31.655   7.294
 4545POPC   C1B59467  22.763  31.795   6.173
 4545POPC   C2B59468  22.829  31.937   6.615
 4545POPC   C3B59469  22.832  32.025   7.075
 4545POPC   C4B59470  23.056  31.733   7.385
 4546POPC   NC359471  18.296  22.523   5.437
 4546POPC   PO459472  17.911  21.947   5.264
 4546POPC   GL159473  18.130  22.088   5.644
 4546POPC   GL259474  18.094  21.809   5.866
 4546POPC   C1A59475  18.304  22.239   6.042
 4546POPC   D2A59476  18.258  21.996   6.405
 4546POPC   C3A59477  18.211  22.208   6.792
 4546POPC   C4A59478  18.373  22.093   7.187
 4546POPC   C1B59479  17.834  21.746   6.230
 4546POPC   C2B59480  17.788  21.927   6.637
 4546POPC   C3B59481  17.926  21.814   7.044
 4546POPC   C4B59482  17.937  21.851   7.496
 4547POPC   NC359483   8.813  22.131   5.578
 4547POPC   PO459484   9.312  22.567   5.599
 4547POPC   GL159485   9.091  22.395   5.926
 4547POPC   GL259486   9.283  22.134   5.995
 4547POPC   C1A59487   8.903  22.255   6.319
 4547POPC   D2A59488   8.663  22.028   6.621
 4547POPC   C3A59489   8.881  22.175   6.967
 4547POPC   C4A59490   9.165  22.453   7.148
 4547POPC   C1B59491   9.277  21.823   6.291
 4547POPC   C2B59492   9.155  21.852   6.693
 4547POPC   C3B59493   9.103  21.721   7.105
 4547POPC   C4B59494   9.272  21.900   7.400
 4548POPC   NC359495   7.388  42.383   5.468
 4548POPC   PO459496   7.059  42.888   5.519
 4548POPC   GL159497   7.137  42.600   5.874
 4548POPC   GL259498   7.260  42.203   5.916
 4548POPC   C1A59499   7.397  42.594   6.219
 4548POPC   D2A59500   7.502  42.450   6.621
 4548POPC   C3A59501   7.315  42.636   6.955
 4548POPC   C4A59502   7.250  42.511   7.362
 4548POPC   C1B59503   7.592  42.099   6.255
 4548POPC   C2B59504   7.758  42.025   6.711
 4548POPC   C3B59505   7.528  42.176   7.084
 4548POPC   C4B59506   7.577  42.187   7.552
 4549POPC   NC359507   3.214  30.822   5.556
 4549POPC   PO459508   2.529  30.987   5.578
 4549POPC   GL159509   2.841  30.973   5.885
 4549POPC   GL259510   2.930  30.620   5.968
 4549POPC   C1A59511   2.844  31.057   6.315
 4549POPC   D2A59512   2.878  30.830   6.687
 4549POPC   C3A59513   2.824  31.051   7.059
 4549POPC   C4A59514   2.687  30.938   7.461
 4549POPC   C1B59515   2.569  30.631   6.275
 4549POPC   C2B59516   2.446  30.550   6.725
 4549POPC   C3B59517   2.735  30.530   7.099
 4549POPC   C4B59518   3.111  30.266   7.223
 4550POPC   NC359519  39.459  21.683   5.660
 4550POPC   PO459520  39.041  22.117   5.292
 4550POPC   GL159521  39.189  22.136   5.728
 4550POPC   GL259522  39.488  22.289   5.821
 4550POPC   C1A59523  39.163  22.100   6.196
 4550POPC   D2A59524  39.274  22.180   6.634
 4550POPC   C3A59525  39.059  22.240   7.020
 4550POPC   C4A59526  39.234  22.274   7.438
 4550POPC   C1B59527  39.551  22.543   6.189
 4550POPC   C2B59528  39.704  22.483   6.601
 4550POPC   C3B59529  39.548  22.423   7.031
 4550POPC   C4B59530  39.748  22.280   7.447
 4551POPC   NC359531  34.034  16.669   5.158
 4551POPC   PO459532  33.581  17.130   5.387
 4551POPC   GL159533  33.575  16.856   5.821
 4551POPC   GL259534  33.826  16.588   5.815
 4551POPC   C1A59535  33.498  16.574   6.227
 4551POPC   D2A59536  33.514  16.537   6.704
 4551POPC   C3A59537  33.644  16.887   6.993
 4551POPC   C4A59538  33.655  17.140   7.394
 4551POPC   C1B59539  34.023  16.498   6.246
 4551POPC   C2B59540  34.059  16.604   6.697
 4551POPC   C3B59541  33.894  16.426   7.078
 4551POPC   C4B59542  33.736  16.622   7.444
 4552POPC   NC359543  11.808  43.154   5.587
 4552POPC   PO459544  11.141  43.012   5.427
 4552POPC   GL159545  11.302  43.189   5.773
 4552POPC   GL259546  11.446  42.874   5.817
 4552POPC   C1A59547  11.319  43.161   6.205
 4552POPC   D2A59548  11.440  42.980   6.588
 4552POPC   C3A59549  11.316  43.162   6.935
 4552POPC   C4A59550  11.061  43.122   7.274
 4552POPC   C1B59551  11.734  42.863   6.176
 4552POPC   C2B59552  11.915  42.783   6.589
 4552POPC   C3B59553  11.866  42.769   7.033
 4552POPC   C4B59554  11.479  42.805   7.245
 4553POPC   NC359555  38.789  35.564   5.218
 4553POPC   PO459556  39.509  35.401   5.377
 4553POPC   GL159557  39.450  35.332   5.815
 4553POPC   GL259558  39.114  35.205   5.820
 4553POPC   C1A59559  39.414  35.156   6.255
 4553POPC   D2A59560  39.443  35.246   6.701
 4553POPC   C3A59561  39.225  35.227   7.119
 4553POPC   C4A59562  39.282  35.534   7.432
 4553POPC   C1B59563  39.123  35.541   6.152
 4553POPC   C2B59564  39.174  35.653   6.545
 4553POPC   C3B59565  39.047  35.676   6.950
 4553POPC   C4B59566  38.722  35.816   7.202
 4554POPC   NC359567  37.397  23.356   5.526
 4554POPC   PO459568  37.804  22.804   5.615
 4554POPC   GL159569  37.713  23.108   5.918
 4554POPC   GL259570  37.361  23.062   5.960
 4554POPC   C1A59571  37.694  23.028   6.365
 4554POPC   D2A59572  37.859  23.142   6.764
 4554POPC   C3A59573  37.679  22.980   7.140
 4554POPC   C4A59574  37.732  23.194   7.538
 4554POPC   C1B59575  37.210  22.871   6.352
 4554POPC   C2B59576  37.372  22.787   6.755
 4554POPC   C3B59577  37.306  22.609   7.170
 4554POPC   C4B59578  37.448  22.758   7.594
 4555POPC   NC359579  30.978  36.674   5.095
 4555POPC   PO459580  30.837  37.227   5.396
 4555POPC   GL159581  30.662  36.936   5.722
 4555POPC   GL259582  30.935  36.676   5.678
 4555POPC   C1A59583  30.347  36.793   6.083
 4555POPC   D2A59584  30.472  36.765   6.505
 4555POPC   C3A59585  30.280  36.847   6.899
 4555POPC   C4A59586  30.509  36.776   7.264
 4555POPC   C1B59587  30.872  36.696   6.128
 4555POPC   C2B59588  30.920  36.533   6.537
 4555POPC   C3B59589  30.843  36.723   6.895
 4555POPC   C4B59590  31.046  36.580   7.232
 4556POPC   NC359591  39.824  17.317   5.665
 4556POPC   PO459592  40.228  17.713   5.249
 4556POPC   GL159593  40.215  17.735   5.743
 4556POPC   GL259594  39.882  17.692   5.980
 4556POPC   C1A59595  40.329  17.658   6.196
 4556POPC   D2A59596  40.072  17.648   6.560
 4556POPC   C3A59597  40.141  17.444   6.939
 4556POPC   C4A59598  40.099  17.686   7.291
 4556POPC   C1B59599  39.678  17.417   6.295
 4556POPC   C2B59600  39.712  17.313   6.717
 4556POPC   C3B59601  39.629  17.374   7.141
 4556POPC   C4B59602  39.618  17.261   7.566
 4557POPC   NC359603  34.610  30.164   5.387
 4557POPC   PO459604  34.852  29.523   5.393
 4557POPC   GL159605  34.652  29.686   5.783
 4557POPC   GL259606  34.605  30.053   5.873
 4557POPC   C1A59607  34.411  29.723   6.169
 4557POPC   D2A59608  34.526  29.953   6.533
 4557POPC   C3A59609  34.511  29.799   6.957
 4557POPC   C4A59610  34.417  30.146   7.267
 4557POPC   C1B59611  34.923  29.923   6.189
 4557POPC   C2B59612  35.028  30.047   6.636
 4557POPC   C3B59613  34.986  29.966   7.102
 4557POPC   C4B59614  34.915  30.117   7.516
 4558POPC   NC359615  25.728  10.799   5.529
 4558POPC   PO459616  25.662  10.094   5.460
 4558POPC   GL159617  25.865  10.402   5.805
 4558POPC   GL259618  26.213  10.471   5.704
 4558POPC   C1A59619  26.013  10.677   6.180
 4558POPC   D2A59620  25.845  10.661   6.618
 4558POPC   C3A59621  26.065  10.622   7.001
 4558POPC   C4A59622  26.071  10.265   7.263
 4558POPC   C1B59623  26.308  10.275   6.114
 4558POPC   C2B59624  26.347  10.449   6.581
 4558POPC   C3B59625  26.547  10.468   7.017
 4558POPC   C4B59626  26.458  10.747   7.375
 4559POPC   NC359627  40.181   0.130   5.486
 4559POPC   PO459628  39.664   0.589   5.417
 4559POPC   GL159629  39.881   0.424   5.790
 4559POPC   GL259630  40.247   0.538   5.779
 4559POPC   C1A59631  39.886   0.251   6.240
 4559POPC   D2A59632  39.865   0.139   6.705
 4559POPC   C3A59633  40.104   0.323   7.033
 4559POPC   C4A59634  39.952   0.388   7.455
 4559POPC   C1B59635  40.380   0.395   6.170
 4559POPC   C2B59636  40.214   0.549   6.558
 4559POPC   C3B59637  40.150   0.824   6.906
 4559POPC   C4B59638  40.356   0.790   7.314
 4560POPC   NC359639   3.371  36.451   5.269
 4560POPC   PO459640   3.947  36.331   5.524
 4560POPC   GL159641   3.749  36.124   5.863
 4560POPC   GL259642   3.459  36.192   5.722
 4560POPC   C1A59643   3.581  35.884   6.194
 4560POPC   D2A59644   3.460  36.108   6.560
 4560POPC   C3A59645   3.544  35.900   6.910
 4560POPC   C4A59646   3.604  36.047   7.288
 4560POPC   C1B59647   3.344  36.362   6.130
 4560POPC   C2B59648   3.378  36.635   6.520
 4560POPC   C3B59649   3.343  36.500   6.956
 4560POPC   C4B59650   3.518  36.527   7.392
 4561POPC   NC359651   9.366  38.999   5.547
 4561POPC   PO459652  10.015  39.095   5.356
 4561POPC   GL159653   9.817  39.125   5.797
 4561POPC   GL259654   9.730  39.458   5.928
 4561POPC   C1A59655   9.761  39.133   6.301
 4561POPC   D2A59656   9.839  39.442   6.655
 4561POPC   C3A59657   9.871  39.272   7.053
 4561POPC   C4A59658   9.848  38.819   7.060
 4561POPC   C1B59659   9.496  39.581   6.262
 4561POPC   C2B59660   9.332  39.303   6.564
 4561POPC   C3B59661   9.383  39.170   6.970
 4561POPC   C4B59662   9.484  39.479   7.301
 4562POPC   NC359663   4.978  15.787   5.315
 4562POPC   PO459664   5.313  16.368   5.363
 4562POPC   GL159665   5.114  16.172   5.783
 4562POPC   GL259666   4.893  15.887   5.803
 4562POPC   C1A59667   5.102  16.167   6.275
 4562POPC   D2A59668   5.304  16.103   6.674
 4562POPC   C3A59669   5.032  16.181   6.991
 4562POPC   C4A59670   4.707  16.092   7.262
 4562POPC   C1B59671   5.138  15.699   6.132
 4562POPC   C2B59672   4.987  15.666   6.542
 4562POPC   C3B59673   4.831  15.711   6.952
 4562POPC   C4B59674   5.101  15.684   7.317
 4563POPC   NC359675  29.400   1.474   5.439
 4563POPC   PO459676  28.880   1.116   5.566
 4563POPC   GL159677  29.181   1.187   5.872
 4563POPC   GL259678  29.382   0.886   5.769
 4563POPC   C1A59679  29.009   1.264   6.301
 4563POPC   D2A59680  29.010   1.397   6.756
 4563POPC   C3A59681  29.331   1.240   7.052
 4563POPC   C4A59682  29.423   1.293   7.527
 4563POPC   C1B59683  29.231   0.749   6.172
 4563POPC   C2B59684  29.199   0.883   6.582
 4563POPC   C3B59685  29.135   0.755   6.972
 4563POPC   C4B59686  29.385   0.783   7.301
 4564POPC   NC359687  21.279  40.372   5.376
 4564POPC   PO459688  21.711  39.863   5.607
 4564POPC   GL159689  21.405  40.013   5.907
 4564POPC   GL259690  21.177  40.275   5.858
 4564POPC   C1A59691  21.209  39.926   6.306
 4564POPC   D2A59692  20.996  39.704   6.647
 4564POPC   C3A59693  21.222  39.857   6.985
 4564POPC   C4A59694  21.630  39.932   7.159
 4564POPC   C1B59695  20.908  40.328   6.210
 4564POPC   C2B59696  20.941  40.214   6.632
 4564POPC   C3B59697  20.950  40.287   7.025
 4564POPC   C4B59698  21.242  40.216   7.350
 4565POPC   NC359699  10.753   3.913   5.321
 4565POPC   PO459700  10.079   3.952   5.405
 4565POPC   GL159701  10.277   4.197   5.758
 4565POPC   GL259702  10.675   4.167   5.779
 4565POPC   C1A59703  10.387   4.433   6.135
 4565POPC   D2A59704  10.470   4.378   6.561
 4565POPC   C3A59705  10.177   4.323   6.896
 4565POPC   C4A59706  10.268   4.133   7.283
 4565POPC   C1B59707  10.838   4.019   6.191
 4565POPC   C2B59708  10.877   4.036   6.662
 4565POPC   C3B59709  10.690   4.282   7.020
 4565POPC   C4B59710  10.416   4.634   7.222
 4566POPC   NC359711  38.251  26.364   5.260
 4566POPC   PO459712  38.616  27.000   5.337
 4566POPC   GL159713  38.502  26.923   5.739
 4566POPC   GL259714  38.502  26.573   5.697
 4566POPC   C1A59715  38.335  26.823   6.135
 4566POPC   D2A59716  38.275  26.998   6.516
 4566POPC   C3A59717  38.312  26.771   6.903
 4566POPC   C4A59718  38.062  26.952   7.207
 4566POPC   C1B59719  38.756  26.526   6.115
 4566POPC   C2B59720  38.697  26.699   6.522
 4566POPC   C3B59721  38.742  26.491   6.898
 4566POPC   C4B59722  38.724  26.600   7.266
 4567POPC   NC359723  41.697  17.722   5.346
 4567POPC   PO459724  41.221  17.332   5.299
 4567POPC   GL159725  41.343  17.620   5.718
 4567POPC   GL259726  41.668  17.691   5.905
 4567POPC   C1A59727  41.253  17.735   6.190
 4567POPC   D2A59728  41.237  17.703   6.651
 4567POPC   C3A59729  41.478  17.430   6.899
 4567POPC   C4A59730  41.713  17.515   7.223
 4567POPC   C1B59731  41.717  17.916   6.349
 4567POPC   C2B59732  41.857  17.765   6.782
 4567POPC   C3B59733  42.074  17.858   7.165
 4567POPC   C4B59734  42.027  17.722   7.629
 4568POPC   NC359735  16.542  18.541   5.517
 4568POPC   PO459736  17.128  18.165   5.515
 4568POPC   GL159737  16.849  18.378   5.884
 4568POPC   GL259738  16.426  18.391   5.980
 4568POPC   C1A59739  16.791  18.309   6.329
 4568POPC   D2A59740  16.721  18.441   6.739
 4568POPC   C3A59741  16.967  18.298   7.097
 4568POPC   C4A59742  16.873  17.944   7.385
 4568POPC   C1B59743  16.232  18.655   6.333
 4568POPC   C2B59744  16.297  18.681   6.805
 4568POPC   C3B59745  16.443  18.399   7.178
 4568POPC   C4B59746  16.282  18.403   7.591
 4569POPC   NC359747  37.861   0.156   5.418
 4569POPC   PO459748  37.581  44.555   5.571
 4569POPC   GL159749  37.860  44.773   5.797
 4569POPC   GL259750  37.962  44.468   5.975
 4569POPC   C1A59751  37.718  44.932   6.173
 4569POPC   D2A59752  37.610  44.736   6.538
 4569POPC   C3A59753  37.729  44.941   6.893
 4569POPC   C4A59754  38.012  44.764   7.185
 4569POPC   C1B59755  37.560  44.321   6.188
 4569POPC   C2B59756  37.411  44.274   6.610
 4569POPC   C3B59757  37.608  44.435   6.987
 4569POPC   C4B59758  37.830  44.319   7.356
 4570POPC   NC359759  11.532  32.497   5.546
 4570POPC   PO459760  11.133  32.194   5.110
 4570POPC   GL159761  11.112  32.213   5.615
 4570POPC   GL259762  11.392  32.020   5.778
 4570POPC   C1A59763  11.163  32.392   6.073
 4570POPC   D2A59764  10.982  32.327   6.508
 4570POPC   C3A59765  11.181  32.429   6.949
 4570POPC   C4A59766  11.135  32.601   7.396
 4570POPC   C1B59767  11.300  31.936   6.241
 4570POPC   C2B59768  11.441  32.077   6.658
 4570POPC   C3B59769  11.367  31.994   7.103
 4570POPC   C4B59770  11.398  31.902   7.557
 4571POPC   NC359771   3.006  19.989   5.484
 4571POPC   PO459772   2.523  19.545   5.660
 4571POPC   GL159773   2.553  19.838   5.992
 4571POPC   GL259774   2.709  20.174   5.897
 4571POPC   C1A59775   2.749  19.976   6.369
 4571POPC   D2A59776   3.062  19.981   6.657
 4571POPC   C3A59777   2.963  19.673   6.973
 4571POPC   C4A59778   3.171  19.616   7.334
 4571POPC   C1B59779   2.354  20.266   6.204
 4571POPC   C2B59780   2.338  20.135   6.645
 4571POPC   C3B59781   2.668  20.120   6.974
 4571POPC   C4B59782   2.733  19.908   7.369
 4572POPC   NC359783   9.495  15.859   5.391
 4572POPC   PO459784  10.015  16.218   5.471
 4572POPC   GL159785   9.861  15.891   5.804
 4572POPC   GL259786   9.528  15.709   5.872
 4572POPC   C1A59787   9.852  15.806   6.251
 4572POPC   D2A59788   9.911  16.042   6.626
 4572POPC   C3A59789   9.623  15.884   6.912
 4572POPC   C4A59790   9.757  15.753   7.306
 4572POPC   C1B59791   9.482  16.151   6.061
 4572POPC   C2B59792   9.380  16.290   6.487
 4572POPC   C3B59793   9.600  16.428   6.856
 4572POPC   C4B59794   9.593  16.259   7.255
 4573POPC   NC359795   0.228   1.406   5.480
 4573POPC   PO459796   0.686   0.832   5.477
 4573POPC   GL159797   0.644   1.136   5.826
 4573POPC   GL259798   0.280   1.163   5.929
 4573POPC   C1A59799   0.629   1.085   6.292
 4573POPC   D2A59800   0.318   0.933   6.606
 4573POPC   C3A59801   0.490   1.020   7.020
 4573POPC   C4A59802   0.872   1.003   7.308
 4573POPC   C1B59803   0.082   1.324   6.318
 4573POPC   C2B59804   0.264   1.436   6.728
 4573POPC   C3B59805   0.141   1.392   7.142
 4573POPC   C4B59806   0.086   1.726   7.414
 4574POPC   NC359807  38.650  14.932   5.413
 4574POPC   PO459808  38.003  14.994   5.197
 4574POPC   GL159809  38.250  15.180   5.649
 4574POPC   GL259810  38.536  14.947   5.891
 4574POPC   C1A59811  38.186  15.176   6.128
 4574POPC   D2A59812  38.440  14.928   6.480
 4574POPC   C3A59813  38.480  15.003   6.927
 4574POPC   C4A59814  38.211  15.101   7.269
 4574POPC   C1B59815  38.682  15.275   6.181
 4574POPC   C2B59816  38.557  15.426   6.591
 4574POPC   C3B59817  38.726  15.467   6.998
 4574POPC   C4B59818  38.617  15.373   7.435
 4575POPC   NC359819  15.233   5.293   5.228
 4575POPC   PO459820  15.303   4.621   5.292
 4575POPC   GL159821  15.390   4.982   5.617
 4575POPC   GL259822  15.120   5.289   5.723
 4575POPC   C1A59823  15.380   5.046   6.071
 4575POPC   D2A59824  15.102   4.953   6.396
 4575POPC   C3A59825  15.290   5.033   6.789
 4575POPC   C4A59826  15.417   5.243   7.149
 4575POPC   C1B59827  14.920   5.390   6.141
 4575POPC   C2B59828  14.781   5.289   6.596
 4575POPC   C3B59829  14.974   5.438   6.972
 4575POPC   C4B59830  15.012   5.377   7.411
 4576POPC   NC359831  19.373  24.588   5.163
 4576POPC   PO459832  19.944  24.807   5.370
 4576POPC   GL159833  19.924  24.492   5.663
 4576POPC   GL259834  19.662  24.249   5.658
 4576POPC   C1A59835  19.969  24.534   6.095
 4576POPC   D2A59836  19.806  24.600   6.502
 4576POPC   C3A59837  20.004  24.460   6.903
 4576POPC   C4A59838  20.078  24.256   7.301
 4576POPC   C1B59839  19.526  24.253   6.086
 4576POPC   C2B59840  19.358  24.366   6.482
 4576POPC   C3B59841  19.494  24.453   6.893
 4576POPC   C4B59842  19.524  24.245   7.277
 4577POPC   NC359843  42.699   2.513   5.524
 4577POPC   PO459844  42.047   2.900   5.458
 4577POPC   GL159845  42.235   2.781   5.824
 4577POPC   GL259846  42.042   2.478   5.903
 4577POPC   C1A59847  42.251   2.869   6.276
 4577POPC   D2A59848  42.095   3.116   6.627
 4577POPC   C3A59849  42.294   2.997   7.013
 4577POPC   C4A59850  42.014   2.793   7.277
 4577POPC   C1B59851  42.450   2.421   6.127
 4577POPC   C2B59852  42.579   2.245   6.504
 4577POPC   C3B59853  42.691   2.260   6.918
 4577POPC   C4B59854  42.429   2.502   7.198
 4578POPC   NC359855   2.699   6.286   5.552
 4578POPC   PO459856   2.823   5.616   5.267
 4578POPC   GL159857   2.712   5.714   5.707
 4578POPC   GL259858   2.995   5.902   5.772
 4578POPC   C1A59859   2.476   5.726   6.135
 4578POPC   D2A59860   2.423   5.953   6.555
 4578POPC   C3A59861   2.567   5.734   6.938
 4578POPC   C4A59862   2.717   5.514   7.317
 4578POPC   C1B59863   2.880   6.007   6.232
 4578POPC   C2B59864   2.908   6.081   6.708
 4578POPC   C3B59865   2.923   6.027   7.173
 4578POPC   C4B59866   2.919   5.886   7.602
 4579POPC   NC359867   5.355  17.287   5.587
 4579POPC   PO459868   5.121  17.890   5.526
 4579POPC   GL159869   5.188  17.681   5.890
 4579POPC   GL259870   4.924  17.852   6.058
 4579POPC   C1A59871   5.092  17.384   6.220
 4579POPC   D2A59872   5.003  17.437   6.647
 4579POPC   C3A59873   5.275  17.264   6.940
 4579POPC   C4A59874   5.318  17.527   7.273
 4579POPC   C1B59875   4.969  17.993   6.479
 4579POPC   C2B59876   4.753  17.851   6.856
 4579POPC   C3B59877   4.817  17.510   7.148
 4579POPC   C4B59878   4.876  17.542   7.593
 4580POPC   NC359879  22.365  36.296   5.565
 4580POPC   PO459880  21.747  35.922   5.480
 4580POPC   GL159881  22.000  36.020   5.830
 4580POPC   GL259882  22.276  35.871   5.852
 4580POPC   C1A59883  22.011  36.266   6.226
 4580POPC   D2A59884  21.975  36.106   6.604
 4580POPC   C3A59885  22.055  36.339   6.931
 4580POPC   C4A59886  21.946  36.134   7.331
 4580POPC   C1B59887  22.380  35.940   6.231
 4580POPC   C2B59888  22.453  35.963   6.634
 4580POPC   C3B59889  22.285  35.893   6.998
 4580POPC   C4B59890  22.441  35.809   7.388
 4581POPC   NC359891   7.948   4.355   5.396
 4581POPC   PO459892   8.425   3.911   5.430
 4581POPC   GL159893   8.207   4.108   5.794
 4581POPC   GL259894   7.827   4.065   5.803
 4581POPC   C1A59895   8.253   4.354   6.193
 4581POPC   D2A59896   8.339   4.574   6.606
 4581POPC   C3A59897   8.151   4.429   7.001
 4581POPC   C4A59898   8.243   4.289   7.410
 4581POPC   C1B59899   7.940   3.948   6.205
 4581POPC   C2B59900   8.100   4.092   6.611
 4581POPC   C3B59901   8.150   3.909   6.999
 4581POPC   C4B59902   7.777   3.818   7.194
 4582POPC   NC359903  27.807  10.040   5.614
 4582POPC   PO459904  27.365   9.611   5.271
 4582POPC   GL159905  27.494   9.621   5.719
 4582POPC   GL259906  27.848   9.490   5.684
 4582POPC   C1A59907  27.388   9.682   6.182
 4582POPC   D2A59908  27.598   9.675   6.622
 4582POPC   C3A59909  27.339   9.745   7.016
 4582POPC   C4A59910  27.393   9.791   7.507
 4582POPC   C1B59911  27.880   9.590   6.122
 4582POPC   C2B59912  27.984   9.338   6.484
 4582POPC   C3B59913  28.017   9.392   6.913
 4582POPC   C4B59914  27.710   9.482   7.252
 4583POPC   NC359915  20.183  43.308   5.320
 4583POPC   PO459916  20.849  43.136   5.342
 4583POPC   GL159917  20.773  43.071   5.755
 4583POPC   GL259918  20.946  42.757   5.750
 4583POPC   C1A59919  20.473  43.161   6.092
 4583POPC   D2A59920  20.332  43.202   6.525
 4583POPC   C3A59921  20.575  43.217   6.910
 4583POPC   C4A59922  20.857  43.338   7.248
 4583POPC   C1B59923  20.759  42.727   6.180
 4583POPC   C2B59924  20.664  42.759   6.645
 4583POPC   C3B59925  20.754  42.779   7.112
 4583POPC   C4B59926  20.423  42.913   7.390
 4584POPC   NC359927   1.503  16.971   5.480
 4584POPC   PO459928   1.279  16.342   5.318
 4584POPC   GL159929   1.241  16.602   5.692
 4584POPC   GL259930   1.545  16.503   5.830
 4584POPC   C1A59931   1.349  16.923   6.113
 4584POPC   D2A59932   1.218  17.174   6.534
 4584POPC   C3A59933   1.054  16.966   6.933
 4584POPC   C4A59934   1.341  16.919   7.263
 4584POPC   C1B59935   1.211  16.437   6.145
 4584POPC   C2B59936   1.174  16.655   6.525
 4584POPC   C3B59937   1.407  16.597   6.889
 4584POPC   C4B59938   1.206  16.423   7.250
 4585POPC   NC359939  12.901  40.982   5.346
 4585POPC   PO459940  12.564  40.435   5.434
 4585POPC   GL159941  12.715  40.667   5.861
 4585POPC   GL259942  12.791  41.043   5.842
 4585POPC   C1A59943  12.680  40.867   6.305
 4585POPC   D2A59944  12.742  41.120   6.679
 4585POPC   C3A59945  12.759  40.848   7.004
 4585POPC   C4A59946  12.614  40.470   7.222
 4585POPC   C1B59947  13.141  40.965   6.136
 4585POPC   C2B59948  13.168  40.844   6.594
 4585POPC   C3B59949  13.273  40.850   7.050
 4585POPC   C4B59950  13.410  40.788   7.483
 4586POPC   NC359951  14.560  12.976   5.324
 4586POPC   PO459952  14.018  12.677   5.116
 4586POPC   GL159953  14.064  12.953   5.586
 4586POPC   GL259954  14.359  12.803   5.765
 4586POPC   C1A59955  14.046  12.942   6.106
 4586POPC   D2A59956  14.237  12.713   6.512
 4586POPC   C3A59957  14.172  12.833   6.960
 4586POPC   C4A59958  14.288  13.049   7.355
 4586POPC   C1B59959  14.590  12.721   6.137
 4586POPC   C2B59960  14.732  12.895   6.548
 4586POPC   C3B59961  14.676  13.002   7.028
 4586POPC   C4B59962  14.774  12.915   7.504
 4587POPC   NC359963  15.851   1.886   5.432
 4587POPC   PO459964  16.277   2.409   5.416
 4587POPC   GL159965  16.106   2.172   5.788
 4587POPC   GL259966  16.205   1.780   5.784
 4587POPC   C1A59967  15.901   2.253   6.205
 4587POPC   D2A59968  15.771   2.078   6.604
 4587POPC   C3A59969  15.942   2.076   7.019
 4587POPC   C4A59970  15.824   1.885   7.444
 4587POPC   C1B59971  16.185   1.821   6.246
 4587POPC   C2B59972  16.256   1.788   6.696
 4587POPC   C3B59973  16.230   1.661   7.149
 4587POPC   C4B59974  16.257   1.656   7.610
 4588POPC   NC359975  30.048  22.832   5.329
 4588POPC   PO459976  29.470  23.086   5.355
 4588POPC   GL159977  29.834  23.128   5.696
 4588POPC   GL259978  29.601  23.202   5.951
 4588POPC   C1A59979  30.076  23.002   6.092
 4588POPC   D2A59980  29.916  22.941   6.538
 4588POPC   C3A59981  30.078  22.929   6.987
 4588POPC   C4A59982  30.114  22.892   7.450
 4588POPC   C1B59983  29.591  23.303   6.384
 4588POPC   C2B59984  29.638  23.280   6.837
 4588POPC   C3B59985  29.707  23.179   7.266
 4588POPC   C4B59986  29.812  23.202   7.727
 4589POPC   NC359987  33.379   7.366   5.519
 4589POPC   PO459988  32.839   7.433   5.421
 4589POPC   GL159989  32.895   7.536   5.877
 4589POPC   GL259990  33.204   7.371   6.002
 4589POPC   C1A59991  32.902   7.582   6.359
 4589POPC   D2A59992  33.044   7.393   6.756
 4589POPC   C3A59993  32.713   7.489   7.081
 4589POPC   C4A59994  32.649   7.786   7.415
 4589POPC   C1B59995  33.592   7.384   6.272
 4589POPC   C2B59996  33.642   7.106   6.629
 4589POPC   C3B59997  33.274   6.944   6.858
 4589POPC   C4B59998  32.863   7.000   7.077
 4590POPC   NC359999  10.361  24.288   5.501
 4590POPC   PO460000  10.339  24.857   5.273
 4590POPC   GL160001  10.300  24.693   5.777
 4590POPC   GL260002  10.639  24.519   5.860
 4590POPC   C1A60003  10.276  24.490   6.238
 4590POPC   D2A60004  10.509  24.572   6.628
 4590POPC   C3A60005  10.361  24.575   7.036
 4590POPC   C4A60006  10.741  24.594   7.263
 4590POPC   C1B60007  10.708  24.212   6.203
 4590POPC   C2B60008  10.898  24.148   6.583
 4590POPC   C3B60009  10.731  24.190   6.948
 4590POPC   C4B60010  10.716  23.867   7.190
 4591POPC   NC360011  35.688   2.651   5.404
 4591POPC   PO460012  35.093   2.761   5.561
 4591POPC   GL160013  35.431   2.671   5.883
 4591POPC   GL260014  35.482   2.332   5.851
 4591POPC   C1A60015  35.651   2.723   6.321
 4591POPC   D2A60016  35.855   3.017   6.668
 4591POPC   C3A60017  35.708   2.983   7.135
 4591POPC   C4A60018  35.380   3.075   7.491
 4591POPC   C1B60019  35.259   2.378   6.292
 4591POPC   C2B60020  35.287   2.486   6.743
 4591POPC   C3B60021  35.215   2.628   7.186
 4591POPC   C4B60022  34.886   2.456   7.506
 4592POPC   NC360023  36.455  43.494   5.412
 4592POPC   PO460024  36.075  42.957   5.331
 4592POPC   GL160025  36.220  43.101   5.721
 4592POPC   GL260026  36.086  43.429   5.763
 4592POPC   C1A60027  36.344  43.182   6.153
 4592POPC   D2A60028  36.186  43.172   6.565
 4592POPC   C3A60029  36.339  43.186   6.987
 4592POPC   C4A60030  36.120  42.851   7.211
 4592POPC   C1B60031  35.883  43.450   6.161
 4592POPC   C2B60032  35.706  43.325   6.557
 4592POPC   C3B60033  35.835  43.287   6.981
 4592POPC   C4B60034  35.988  43.592   7.264
 4593POPC   NC360035   5.372   7.692   5.359
 4593POPC   PO460036   4.783   7.418   5.556
 4593POPC   GL160037   5.007   7.383   5.913
 4593POPC   GL260038   5.165   7.679   5.839
 4593POPC   C1A60039   5.166   7.432   6.304
 4593POPC   D2A60040   4.989   7.544   6.677
 4593POPC   C3A60041   5.127   7.250   6.961
 4593POPC   C4A60042   5.100   7.323   7.344
 4593POPC   C1B60043   5.469   7.810   6.131
 4593POPC   C2B60044   5.589   7.738   6.572
 4593POPC   C3B60045   5.423   7.711   7.018
 4593POPC   C4B60046   5.375   7.724   7.503
 4594POPC   NC360047  13.297  27.941   5.554
 4594POPC   PO460048  12.735  28.168   5.244
 4594POPC   GL160049  12.875  28.362   5.609
 4594POPC   GL260050  13.180  28.498   5.643
 4594POPC   C1A60051  12.747  28.421   6.024
 4594POPC   D2A60052  12.867  28.399   6.445
 4594POPC   C3A60053  12.664  28.663   6.749
 4594POPC   C4A60054  12.716  28.545   7.162
 4594POPC   C1B60055  13.272  28.420   6.061
 4594POPC   C2B60056  13.409  28.451   6.485
 4594POPC   C3B60057  13.167  28.475   6.853
 4594POPC   C4B60058  13.200  28.421   7.264
 4595POPC   NC360059  32.277  25.661   5.391
 4595POPC   PO460060  32.050  25.104   5.342
 4595POPC   GL160061  32.136  25.259   5.736
 4595POPC   GL260062  32.458  25.376   5.786
 4595POPC   C1A60063  32.111  25.274   6.182
 4595POPC   D2A60064  32.046  25.039   6.547
 4595POPC   C3A60065  32.127  25.185   6.919
 4595POPC   C4A60066  31.971  25.295   7.260
 4595POPC   C1B60067  32.662  25.424   6.179
 4595POPC   C2B60068  32.492  25.360   6.575
 4595POPC   C3B60069  32.575  25.442   6.987
 4595POPC   C4B60070  32.480  25.164   7.316
 4596POPC   NC360071   9.967   4.445   5.416
 4596POPC   PO460072   9.446   4.201   5.010
 4596POPC   GL160073   9.469   4.243   5.531
 4596POPC   GL260074   9.582   4.513   5.734
 4596POPC   C1A60075   9.526   4.114   6.028
 4596POPC   D2A60076   9.866   4.020   6.387
 4596POPC   C3A60077   9.866   3.916   6.862
 4596POPC   C4A60078   9.788   4.057   7.305
 4596POPC   C1B60079   9.888   4.471   6.086
 4596POPC   C2B60080   9.873   4.510   6.539
 4596POPC   C3B60081   9.654   4.372   6.923
 4596POPC   C4B60082   9.423   4.394   7.310
 4597POPC   NC360083  35.876  24.175   5.459
 4597POPC   PO460084  36.264  24.736   5.522
 4597POPC   GL160085  36.018  24.514   5.869
 4597POPC   GL260086  35.832  24.193   5.956
 4597POPC   C1A60087  35.874  24.583   6.307
 4597POPC   D2A60088  35.683  24.608   6.726
 4597POPC   C3A60089  36.061  24.586   6.997
 4597POPC   C4A60090  36.395  24.878   7.069
 4597POPC   C1B60091  36.169  24.162   6.213
 4597POPC   C2B60092  36.289  24.293   6.620
 4597POPC   C3B60093  36.259  24.125   7.026
 4597POPC   C4B60094  36.021  24.269   7.399
 4598POPC   NC360095  37.520  16.464   5.420
 4598POPC   PO460096  37.426  15.780   5.418
 4598POPC   GL160097  37.689  15.879   5.812
 4598POPC   GL260098  37.918  16.207   5.777
 4598POPC   C1A60099  37.640  15.770   6.274
 4598POPC   D2A60100  37.765  15.623   6.691
 4598POPC   C3A60101  37.745  15.859   7.064
 4598POPC   C4A60102  37.547  16.199   7.275
 4598POPC   C1B60103  37.986  16.130   6.231
 4598POPC   C2B60104  37.855  16.194   6.661
 4598POPC   C3B60105  38.081  16.246   7.059
 4598POPC   C4B60106  37.999  16.348   7.492
 4599POPC   NC360107   8.134  22.442   5.367
 4599POPC   PO460108   8.377  21.840   5.517
 4599POPC   GL160109   8.386  22.104   5.895
 4599POPC   GL260110   8.051  22.221   5.849
 4599POPC   C1A60111   8.397  22.366   6.305
 4599POPC   D2A60112   8.528  22.504   6.742
 4599POPC   C3A60113   8.382  22.166   7.049
 4599POPC   C4A60114   8.452  21.831   7.327
 4599POPC   C1B60115   7.903  22.232   6.261
 4599POPC   C2B60116   8.032  21.996   6.634
 4599POPC   C3B60117   7.867  22.043   7.043
 4599POPC   C4B60118   7.974  22.142   7.439
 4600POPC   NC360119  21.117  44.519   5.441
 4600POPC   PO460120  21.755  44.700   5.421
 4600POPC   GL160121  21.499  44.514   5.807
 4600POPC   GL260122  21.120  44.488   5.943
 4600POPC   C1A60123  21.492  44.614   6.274
 4600POPC   D2A60124  21.327  44.797   6.678
 4600POPC   C3A60125  21.385  44.635   7.100
 4600POPC   C4A60126  21.364  44.745   7.526
 4600POPC   C1B60127  20.971  44.762   6.296
 4600POPC   C2B60128  20.849  44.989   6.686
 4600POPC   C3B60129  20.966  44.925   7.127
 4600POPC   C4B60130  20.934  44.530   7.362
 4601POPC   NC360131  19.253  30.244   5.510
 4601POPC   PO460132  18.633  30.424   5.393
 4601POPC   GL160133  18.712  30.132   5.781
 4601POPC   GL260134  18.995  29.923   5.823
 4601POPC   C1A60135  18.766  30.022   6.259
 4601POPC   D2A60136  18.979  30.108   6.663
 4601POPC   C3A60137  18.924  29.935   7.095
 4601POPC   C4A60138  19.096  30.153   7.473
 4601POPC   C1B60139  19.237  29.719   6.152
 4601POPC   C2B60140  19.312  29.723   6.586
 4601POPC   C3B60141  19.413  29.554   6.997
 4601POPC   C4B60142  19.083  29.429   7.232
 4602POPC   NC360143   0.909  20.422   5.106
 4602POPC   PO460144   1.457  20.605   5.532
 4602POPC   GL160145   1.383  20.677   5.944
 4602POPC   GL260146   1.036  20.560   6.018
 4602POPC   C1A60147   1.298  20.718   6.409
 4602POPC   D2A60148   0.978  20.694   6.715
 4602POPC   C3A60149   1.233  20.647   7.041
 4602POPC   C4A60150   1.554  20.402   7.240
 4602POPC   C1B60151   1.294  20.241   6.188
 4602POPC   C2B60152   1.464  20.180   6.580
 4602POPC   C3B60153   1.219  20.177   6.901
 4602POPC   C4B60154   1.096  20.150   7.285
 4603POPC   NC360155  13.242   3.707   5.249
 4603POPC   PO460156  13.827   3.373   5.204
 4603POPC   GL160157  13.566   3.577   5.618
 4603POPC   GL260158  13.703   3.365   5.877
 4603POPC   C1A60159  13.415   3.721   6.070
 4603POPC   D2A60160  13.290   3.627   6.519
 4603POPC   C3A60161  13.508   3.659   6.927
 4603POPC   C4A60162  13.616   3.477   7.325
 4603POPC   C1B60163  13.867   3.509   6.291
 4603POPC   C2B60164  13.907   3.805   6.632
 4603POPC   C3B60165  14.009   3.731   7.074
 4603POPC   C4B60166  13.966   3.757   7.529
 4604POPC   NC360167   7.197  36.895   5.521
 4604POPC   PO460168   6.515  36.791   5.430
 4604POPC   GL160169   6.513  36.917   5.841
 4604POPC   GL260170   6.828  36.860   5.860
 4604POPC   C1A60171   6.548  36.863   6.288
 4604POPC   D2A60172   6.741  37.067   6.626
 4604POPC   C3A60173   6.579  36.814   6.911
 4604POPC   C4A60174   6.354  36.835   7.242
 4604POPC   C1B60175   7.049  36.958   6.221
 4604POPC   C2B60176   7.131  36.705   6.591
 4604POPC   C3B60177   7.074  36.794   7.025
 4604POPC   C4B60178   6.841  36.981   7.339
 4605POPC   NC360179  14.138  27.407   5.643
 4605POPC   PO460180  13.534  27.580   5.368
 4605POPC   GL160181  13.697  27.651   5.766
 4605POPC   GL260182  13.675  27.309   5.826
 4605POPC   C1A60183  13.855  27.619   6.211
 4605POPC   D2A60184  13.993  27.531   6.615
 4605POPC   C3A60185  13.707  27.585   6.934
 4605POPC   C4A60186  13.838  27.638   7.336
 4605POPC   C1B60187  13.348  27.491   6.094
 4605POPC   C2B60188  13.388  27.550   6.522
 4605POPC   C3B60189  13.203  27.456   6.918
 4605POPC   C4B60190  13.336  27.555   7.306
 4606POPC   NC360191  27.685  23.096   5.427
 4606POPC   PO460192  27.227  22.669   5.290
 4606POPC   GL160193  27.415  22.643   5.715
 4606POPC   GL260194  27.739  22.787   5.870
 4606POPC   C1A60195  27.391  22.594   6.169
 4606POPC   D2A60196  27.490  22.887   6.501
 4606POPC   C3A60197  27.479  22.759   6.947
 4606POPC   C4A60198  27.683  22.862   7.313
 4606POPC   C1B60199  27.883  23.115   6.172
 4606POPC   C2B60200  28.047  23.226   6.559
 4606POPC   C3B60201  27.862  23.187   6.951
 4606POPC   C4B60202  27.893  23.320   7.368
 4607POPC   NC360203  12.448  37.617   5.338
 4607POPC   PO460204  11.921  37.526   5.446
 4607POPC   GL160205  11.993  37.681   5.875
 4607POPC   GL260206  12.319  37.843   5.830
 4607POPC   C1A60207  11.830  37.781   6.323
 4607POPC   D2A60208  11.588  37.607   6.656
 4607POPC   C3A60209  11.804  37.573   7.058
 4607POPC   C4A60210  12.016  37.482   7.451
 4607POPC   C1B60211  12.342  37.747   6.300
 4607POPC   C2B60212  12.193  37.573   6.711
 4607POPC   C3B60213  12.277  37.774   7.130
 4607POPC   C4B60214  12.658  37.957   7.349
 4608POPC   NC360215  28.186   4.537   5.371
 4608POPC   PO460216  28.679   4.189   5.486
 4608POPC   GL160217  28.397   4.293   5.780
 4608POPC   GL260218  28.096   4.103   5.837
 4608POPC   C1A60219  28.418   4.395   6.178
 4608POPC   D2A60220  28.479   4.243   6.562
 4608POPC   C3A60221  28.483   4.559   6.866
 4608POPC   C4A60222  28.345   4.496   7.265
 4608POPC   C1B60223  27.948   4.184   6.263
 4608POPC   C2B60224  28.001   4.160   6.719
 4608POPC   C3B60225  27.816   3.952   7.053
 4608POPC   C4B60226  27.742   4.277   7.321
 4609POPC   NC360227  37.784  14.672   5.471
 4609POPC   PO460228  37.498  14.129   5.155
 4609POPC   GL160229  37.539  14.247   5.669
 4609POPC   GL260230  37.269  14.104   5.884
 4609POPC   C1A60231  37.718  14.345   6.114
 4609POPC   D2A60232  37.712  14.661   6.450
 4609POPC   C3A60233  38.033  14.703   6.771
 4609POPC   C4A60234  37.853  14.711   7.191
 4609POPC   C1B60235  37.313  14.127   6.329
 4609POPC   C2B60236  37.662  14.151   6.625
 4609POPC   C3B60237  37.648  14.095   7.055
 4609POPC   C4B60238  37.253  13.902   7.171
 4610POPC   NC360239  28.639  36.276   5.467
 4610POPC   PO460240  28.042  35.884   5.568
 4610POPC   GL160241  28.265  36.161   5.823
 4610POPC   GL260242  28.576  35.951   5.842
 4610POPC   C1A60243  28.360  36.183   6.256
 4610POPC   D2A60244  28.399  35.894   6.597
 4610POPC   C3A60245  28.283  36.095   6.992
 4610POPC   C4A60246  28.260  36.185   7.426
 4610POPC   C1B60247  28.740  35.809   6.218
 4610POPC   C2B60248  28.904  36.001   6.603
 4610POPC   C3B60249  28.744  35.807   6.953
 4610POPC   C4B60250  28.611  35.845   7.335
 4611POPC   NC360251  44.732  22.759   5.383
 4611POPC   PO460252   0.015  23.382   5.474
 4611POPC   GL160253  44.927  23.229   5.864
 4611POPC   GL260254  44.659  23.013   5.856
 4611POPC   C1A60255  44.938  23.074   6.294
 4611POPC   D2A60256  44.772  23.241   6.654
 4611POPC   C3A60257  44.791  22.947   7.006
 4611POPC   C4A60258  44.875  22.851   7.450
 4611POPC   C1B60259  44.456  23.220   6.197
 4611POPC   C2B60260  44.362  22.967   6.550
 4611POPC   C3B60261  44.242  22.882   6.966
 4611POPC   C4B60262  44.461  22.605   7.199
 4612POPC   NC360263  23.170  22.376   5.516
 4612POPC   PO460264  22.957  21.774   5.400
 4612POPC   GL160265  22.835  22.014   5.777
 4612POPC   GL260266  22.675  22.315   5.699
 4612POPC   C1A60267  23.017  21.945   6.198
 4612POPC   D2A60268  23.219  21.826   6.582
 4612POPC   C3A60269  23.104  22.000   6.984
 4612POPC   C4A60270  23.060  22.411   7.204
 4612POPC   C1B60271  22.641  22.303   6.165
 4612POPC   C2B60272  22.823  22.235   6.595
 4612POPC   C3B60273  22.621  22.165   7.003
 4612POPC   C4B60274  22.565  22.474   7.303
 4613POPC   NC360275  37.269  34.159   5.527
 4613POPC   PO460276  37.794  33.851   5.226
 4613POPC   GL160277  37.714  33.725   5.639
 4613POPC   GL260278  37.364  33.631   5.660
 4613POPC   C1A60279  37.880  33.751   6.065
 4613POPC   D2A60280  37.778  34.001   6.422
 4613POPC   C3A60281  37.860  33.884   6.854
 4613POPC   C4A60282  37.951  33.655   7.262
 4613POPC   C1B60283  37.369  33.545   6.123
 4613POPC   C2B60284  37.365  33.647   6.588
 4613POPC   C3B60285  37.462  33.601   7.039
 4613POPC   C4B60286  37.567  33.983   7.285
 4614POPC   NC360287   8.786  28.039   5.242
 4614POPC   PO460288   9.195  28.580   5.453
 4614POPC   GL160289   8.848  28.534   5.747
 4614POPC   GL260290   8.801  28.176   5.761
 4614POPC   C1A60291   8.715  28.479   6.188
 4614POPC   D2A60292   8.869  28.209   6.523
 4614POPC   C3A60293   8.805  28.318   6.970
 4614POPC   C4A60294   8.829  28.287   7.422
 4614POPC   C1B60295   9.189  28.221   6.068
 4614POPC   C2B60296   9.366  28.222   6.516
 4614POPC   C3B60297   9.250  28.111   6.907
 4614POPC   C4B60298   9.326  28.275   7.260
 4615POPC   NC360299  17.066   1.539   5.469
 4615POPC   PO460300  16.834   0.838   5.356
 4615POPC   GL160301  16.859   1.142   5.704
 4615POPC   GL260302  16.543   1.282   5.868
 4615POPC   C1A60303  17.003   1.322   6.106
 4615POPC   D2A60304  16.848   1.286   6.524
 4615POPC   C3A60305  17.059   1.276   6.913
 4615POPC   C4A60306  17.075   1.517   7.282
 4615POPC   C1B60307  16.352   1.289   6.286
 4615POPC   C2B60308  16.398   1.312   6.736
 4615POPC   C3B60309  16.569   1.215   7.104
 4615POPC   C4B60310  16.287   1.178   7.408
 4616POPC   NC360311  14.713  24.324   5.389
 4616POPC   PO460312  15.349  24.205   5.357
 4616POPC   GL160313  15.116  24.326   5.705
 4616POPC   GL260314  15.162  24.682   5.768
 4616POPC   C1A60315  15.021  24.225   6.132
 4616POPC   D2A60316  15.112  24.447   6.519
 4616POPC   C3A60317  15.165  24.237   6.914
 4616POPC   C4A60318  15.061  24.242   7.352
 4616POPC   C1B60319  15.462  24.524   6.080
 4616POPC   C2B60320  15.615  24.512   6.512
 4616POPC   C3B60321  15.431  24.671   6.911
 4616POPC   C4B60322  15.588  24.387   7.206
 4617POPC   NC360323  40.174  39.462   5.061
 4617POPC   PO460324  39.741  38.943   5.311
 4617POPC   GL160325  39.870  39.154   5.665
 4617POPC   GL260326  40.217  39.263   5.617
 4617POPC   C1A60327  39.735  39.103   6.095
 4617POPC   D2A60328  39.835  39.319   6.483
 4617POPC   C3A60329  39.910  39.043   6.826
 4617POPC   C4A60330  39.847  39.145   7.236
 4617POPC   C1B60331  40.249  39.266   6.103
 4617POPC   C2B60332  40.332  39.444   6.555
 4617POPC   C3B60333  40.179  39.456   7.002
 4617POPC   C4B60334  40.062  39.536   7.461
 4618POPC   NC360335   3.809  11.581   5.066
 4618POPC   PO460336   3.397  11.151   5.282
 4618POPC   GL160337   3.486  11.351   5.682
 4618POPC   GL260338   3.832  11.277   5.731
 4618POPC   C1A60339   3.549  11.426   6.138
 4618POPC   D2A60340   3.470  11.179   6.516
 4618POPC   C3A60341   3.436  11.468   6.840
 4618POPC   C4A60342   3.408  11.575   7.255
 4618POPC   C1B60343   4.046  11.310   6.136
 4618POPC   C2B60344   3.983  11.375   6.535
 4618POPC   C3B60345   3.915  11.178   6.887
 4618POPC   C4B60346   3.877  11.330   7.270
 4619POPC   NC360347  13.760  30.705   5.435
 4619POPC   PO460348  13.288  31.122   5.535
 4619POPC   GL160349  13.395  30.740   5.792
 4619POPC   GL260350  13.721  30.895   5.910
 4619POPC   C1A60351  13.565  30.479   6.147
 4619POPC   D2A60352  13.662  30.729   6.521
 4619POPC   C3A60353  13.585  30.606   6.928
 4619POPC   C4A60354  13.259  30.622   7.211
 4619POPC   C1B60355  13.945  31.064   6.267
 4619POPC   C2B60356  14.087  30.951   6.686
 4619POPC   C3B60357  13.913  30.968   7.059
 4619POPC   C4B60358  14.092  30.989   7.415
 4620POPC   NC360359  12.202  42.316   5.526
 4620POPC   PO460360  11.841  42.833   5.253
 4620POPC   GL160361  11.849  42.593   5.742
 4620POPC   GL260362  11.718  42.267   5.927
 4620POPC   C1A60363  12.100  42.515   6.164
 4620POPC   D2A60364  12.164  42.328   6.583
 4620POPC   C3A60365  12.407  42.436   6.915
 4620POPC   C4A60366  12.274  42.260   7.291
 4620POPC   C1B60367  12.007  42.014   6.224
 4620POPC   C2B60368  12.134  41.822   6.676
 4620POPC   C3B60369  12.065  41.808   7.129
 4620POPC   C4B60370  11.766  42.046   7.354
 4621POPC   NC360371   1.621  42.363   5.302
 4621POPC   PO460372   2.200  42.141   5.414
 4621POPC   GL160373   2.043  42.348   5.802
 4621POPC   GL260374   1.791  42.590   5.934
 4621POPC   C1A60375   2.109  42.374   6.252
 4621POPC   D2A60376   2.283  42.207   6.608
 4621POPC   C3A60377   2.069  42.278   7.006
 4621POPC   C4A60378   2.050  42.099   7.410
 4621POPC   C1B60379   1.813  42.821   6.286
 4621POPC   C2B60380   1.872  42.613   6.646
 4621POPC   C3B60381   1.620  42.528   6.969
 4621POPC   C4B60382   1.625  42.412   7.369
 4622POPC   NC360383  27.303  10.053   5.122
 4622POPC   PO460384  27.668  10.465   5.455
 4622POPC   GL160385  27.571  10.455   5.878
 4622POPC   GL260386  27.388  10.137   5.928
 4622POPC   C1A60387  27.747  10.634   6.250
 4622POPC   D2A60388  27.627  10.795   6.669
 4622POPC   C3A60389  27.742  10.650   7.073
 4622POPC   C4A60390  27.378  10.697   7.360
 4622POPC   C1B60391  27.737  10.094   6.256
 4622POPC   C2B60392  27.843  10.309   6.632
 4622POPC   C3B60393  27.465  10.302   6.824
 4622POPC   C4B60394  27.521  10.182   7.219
 4623POPC   NC360395   5.041  22.397   5.299
 4623POPC   PO460396   4.780  21.828   5.586
 4623POPC   GL160397   4.876  22.204   5.781
 4623POPC   GL260398   4.563  22.153   5.981
 4623POPC   C1A60399   4.936  22.438   6.151
 4623POPC   D2A60400   4.818  22.327   6.544
 4623POPC   C3A60401   5.033  22.294   6.909
 4623POPC   C4A60402   5.042  22.430   7.348
 4623POPC   C1B60403   4.902  21.917   6.218
 4623POPC   C2B60404   4.847  21.659   6.591
 4623POPC   C3B60405   4.814  21.797   6.983
 4623POPC   C4B60406   5.210  21.914   7.191
 4624POPC   NC360407  21.405  28.628   5.364
 4624POPC   PO460408  21.384  27.935   5.423
 4624POPC   GL160409  21.533  28.229   5.767
 4624POPC   GL260410  21.219  28.401   5.834
 4624POPC   C1A60411  21.683  28.382   6.203
 4624POPC   D2A60412  21.656  28.663   6.587
 4624POPC   C3A60413  21.612  28.395   6.983
 4624POPC   C4A60414  21.333  28.027   7.132
 4624POPC   C1B60415  21.214  28.546   6.277
 4624POPC   C2B60416  21.226  28.350   6.676
 4624POPC   C3B60417  21.116  28.484   7.111
 4624POPC   C4B60418  21.357  28.478   7.459
 4625POPC   NC360419  29.223  16.300   5.029
 4625POPC   PO460420  28.966  15.851   5.480
 4625POPC   GL160421  29.208  15.874   5.817
 4625POPC   GL260422  28.932  15.801   6.002
 4625POPC   C1A60423  29.306  16.059   6.221
 4625POPC   D2A60424  29.012  16.185   6.515
 4625POPC   C3A60425  29.239  16.322   6.863
 4625POPC   C4A60426  29.214  16.375   7.321
 4625POPC   C1B60427  29.077  15.637   6.390
 4625POPC   C2B60428  29.368  15.792   6.709
 4625POPC   C3B60429  29.288  15.884   7.135
 4625POPC   C4B60430  28.843  15.898   7.126
 4626POPC   NC360431  20.463  42.604   5.452
 4626POPC   PO460432  20.800  42.117   5.398
 4626POPC   GL160433  20.964  42.233   5.796
 4626POPC   GL260434  20.613  42.322   5.893
 4626POPC   C1A60435  20.953  42.240   6.242
 4626POPC   D2A60436  20.643  42.238   6.498
 4626POPC   C3A60437  20.785  42.313   6.872
 4626POPC   C4A60438  20.858  42.074   7.194
 4626POPC   C1B60439  20.306  42.056   6.153
 4626POPC   C2B60440  20.175  41.955   6.609
 4626POPC   C3B60441  20.252  42.036   7.069
 4626POPC   C4B60442  20.427  42.405   7.241
 4627POPC   NC360443   6.380   9.869   5.499
 4627POPC   PO460444   6.735   9.312   5.315
 4627POPC   GL160445   6.789   9.638   5.681
 4627POPC   GL260446   7.143   9.728   5.721
 4627POPC   C1A60447   6.720   9.941   6.087
 4627POPC   D2A60448   6.637  10.132   6.518
 4627POPC   C3A60449   6.694   9.971   6.951
 4627POPC   C4A60450   6.453   9.790   7.283
 4627POPC   C1B60451   6.943   9.492   6.128
 4627POPC   C2B60452   6.763   9.626   6.564
 4627POPC   C3B60453   6.817   9.481   7.041
 4627POPC   C4B60454   6.876   9.366   7.482
 4628POPC   NC360455  34.366  13.461   5.442
 4628POPC   PO460456  35.125  13.554   5.374
 4628POPC   GL160457  34.807  13.459   5.700
 4628POPC   GL260458  34.707  13.793   5.839
 4628POPC   C1A60459  34.541  13.386   6.086
 4628POPC   D2A60460  34.655  13.560   6.490
 4628POPC   C3A60461  34.417  13.407   6.843
 4628POPC   C4A60462  34.566  13.301   7.237
 4628POPC   C1B60463  34.318  13.863   6.130
 4628POPC   C2B60464  34.221  13.818   6.578
 4628POPC   C3B60465  34.398  13.961   6.989
 4628POPC   C4B60466  34.242  13.978   7.430
 4629POPC   NC360467  31.697  14.813   5.093
 4629POPC   PO460468  31.382  14.354   5.465
 4629POPC   GL160469  31.335  14.591   5.800
 4629POPC   GL260470  31.298  14.303   5.966
 4629POPC   C1A60471  31.384  14.738   6.219
 4629POPC   D2A60472  31.536  14.669   6.634
 4629POPC   C3A60473  31.323  14.730   6.969
 4629POPC   C4A60474  31.430  14.736   7.350
 4629POPC   C1B60475  31.510  14.233   6.307
 4629POPC   C2B60476  31.573  14.144   6.705
 4629POPC   C3B60477  31.603  14.316   7.097
 4629POPC   C4B60478  31.253  14.247   7.404
 4630POPC   NC360479  14.205  43.372   5.530
 4630POPC   PO460480  14.584  42.853   5.327
 4630POPC   GL160481  14.437  42.956   5.762
 4630POPC   GL260482  14.125  42.916   5.850
 4630POPC   C1A60483  14.415  43.195   6.185
 4630POPC   D2A60484  14.530  43.370   6.592
 4630POPC   C3A60485  14.704  43.238   6.984
 4630POPC   C4A60486  14.401  43.271   7.270
 4630POPC   C1B60487  14.005  42.900   6.277
 4630POPC   C2B60488  14.300  42.865   6.622
 4630POPC   C3B60489  14.406  42.818   7.027
 4630POPC   C4B60490  14.231  42.772   7.434
 4631POPC   NC360491  14.198  25.885   5.630
 4631POPC   PO460492  14.619  26.296   5.390
 4631POPC   GL160493  14.713  26.191   5.847
 4631POPC   GL260494  14.602  25.839   5.948
 4631POPC   C1A60495  14.673  26.185   6.325
 4631POPC   D2A60496  14.543  25.893   6.700
 4631POPC   C3A60497  14.307  26.068   7.071
 4631POPC   C4A60498  14.298  26.411   7.396
 4631POPC   C1B60499  14.248  25.896   6.276
 4631POPC   C2B60500  14.020  25.754   6.649
 4631POPC   C3B60501  13.872  25.800   7.091
 4631POPC   C4B60502  13.995  25.993   7.534
 4632POPC   NC360503  13.934  27.921   5.254
 4632POPC   PO460504  13.484  28.482   5.250
 4632POPC   GL160505  13.695  28.491   5.661
 4632POPC   GL260506  13.691  28.162   5.792
 4632POPC   C1A60507  13.779  28.563   6.114
 4632POPC   D2A60508  13.937  28.581   6.572
 4632POPC   C3A60509  13.682  28.468   6.967
 4632POPC   C4A60510  13.755  28.425   7.440
 4632POPC   C1B60511  13.525  28.003   6.198
 4632POPC   C2B60512  13.708  27.994   6.603
 4632POPC   C3B60513  13.886  28.024   7.006
 4632POPC   C4B60514  13.514  28.028   7.233
 4633POPC   NC360515   3.177  29.281   5.324
 4633POPC   PO460516   3.842  29.082   5.336
 4633POPC   GL160517   3.582  29.100   5.720
 4633POPC   GL260518   3.711  29.419   5.759
 4633POPC   C1A60519   3.585  28.968   6.184
 4633POPC   D2A60520   3.604  29.224   6.576
 4633POPC   C3A60521   3.625  29.078   7.022
 4633POPC   C4A60522   3.516  29.263   7.443
 4633POPC   C1B60523   3.671  29.596   6.162
 4633POPC   C2B60524   3.897  29.634   6.558
 4633POPC   C3B60525   3.689  29.587   6.960
 4633POPC   C4B60526   3.865  29.605   7.388
 4634POPC   NC360527  18.555   9.747   5.421
 4634POPC   PO460528  17.944   9.623   5.521
 4634POPC   GL160529  18.207   9.776   5.833
 4634POPC   GL260530  18.375  10.089   5.764
 4634POPC   C1A60531  18.116   9.896   6.230
 4634POPC   D2A60532  17.891  10.010   6.583
 4634POPC   C3A60533  18.106   9.786   6.901
 4634POPC   C4A60534  17.977   9.830   7.309
 4634POPC   C1B60535  18.635  10.025   6.130
 4634POPC   C2B60536  18.705   9.864   6.546
 4634POPC   C3B60537  18.636  10.069   6.954
 4634POPC   C4B60538  18.474   9.942   7.322
 4635POPC   NC360539  32.415  31.571   5.501
 4635POPC   PO460540  31.972  31.167   5.407
 4635POPC   GL160541  32.189  31.117   5.839
 4635POPC   GL260542  32.488  31.333   5.934
 4635POPC   C1A60543  32.121  31.302   6.279
 4635POPC   D2A60544  32.236  31.537   6.646
 4635POPC   C3A60545  32.365  31.302   7.008
 4635POPC   C4A60546  32.354  31.103   7.393
 4635POPC   C1B60547  32.506  31.731   6.205
 4635POPC   C2B60548  32.617  31.935   6.609
 4635POPC   C3B60549  32.494  31.789   7.012
 4635POPC   C4B60550  32.013  31.865   7.025
 4636POPC   NC360551  14.337  20.632   5.216
 4636POPC   PO460552  14.192  21.052   5.734
 4636POPC   GL160553  14.391  20.697   5.888
 4636POPC   GL260554  14.189  20.444   5.815
 4636POPC   C1A60555  14.412  20.675   6.326
 4636POPC   D2A60556  14.640  20.916   6.636
 4636POPC   C3A60557  14.686  20.623   6.933
 4636POPC   C4A60558  14.346  20.482   7.221
 4636POPC   C1B60559  14.108  20.237   6.205
 4636POPC   C2B60560  14.130  20.357   6.640
 4636POPC   C3B60561  13.959  20.169   6.992
 4636POPC   C4B60562  13.820  20.416   7.331
 4637POPC   NC360563  19.478   2.574   5.425
 4637POPC   PO460564  19.754   2.013   5.247
 4637POPC   GL160565  19.836   1.936   5.695
 4637POPC   GL260566  19.859   2.286   5.791
 4637POPC   C1A60567  19.883   1.780   6.158
 4637POPC   D2A60568  19.719   1.914   6.607
 4637POPC   C3A60569  19.820   1.890   7.069
 4637POPC   C4A60570  19.612   2.060   7.442
 4637POPC   C1B60571  19.886   2.289   6.266
 4637POPC   C2B60572  19.952   2.378   6.727
 4637POPC   C3B60573  20.055   2.328   7.171
 4637POPC   C4B60574  20.023   2.384   7.607
 4638POPC   NC360575  21.368   6.848   5.140
 4638POPC   PO460576  21.852   6.657   5.560
 4638POPC   GL160577  21.437   6.728   5.793
 4638POPC   GL260578  21.317   7.069   5.823
 4638POPC   C1A60579  21.175   6.716   6.203
 4638POPC   D2A60580  21.288   6.712   6.654
 4638POPC   C3A60581  21.070   6.803   7.048
 4638POPC   C4A60582  21.244   6.745   7.455
 4638POPC   C1B60583  21.507   7.099   6.267
 4638POPC   C2B60584  21.616   7.121   6.724
 4638POPC   C3B60585  21.609   6.818   7.068
 4638POPC   C4B60586  21.760   6.788   7.519
 4639POPC   NC360587  13.413  16.552   5.487
 4639POPC   PO460588  13.827  17.062   5.362
 4639POPC   GL160589  13.665  16.860   5.802
 4639POPC   GL260590  13.514  16.535   5.979
 4639POPC   C1A60591  13.480  16.990   6.225
 4639POPC   D2A60592  13.575  16.893   6.646
 4639POPC   C3A60593  13.366  16.944   7.020
 4639POPC   C4A60594  13.287  16.574   7.262
 4639POPC   C1B60595  13.864  16.632   6.278
 4639POPC   C2B60596  14.052  16.708   6.688
 4639POPC   C3B60597  13.831  16.667   7.084
 4639POPC   C4B60598  13.738  16.331   7.375
 4640POPC   NC360599  19.808  28.731   5.282
 4640POPC   PO460600  19.452  28.193   5.471
 4640POPC   GL160601  19.626  28.353   5.867
 4640POPC   GL260602  19.774  28.694   5.832
 4640POPC   C1A60603  19.787  28.278   6.281
 4640POPC   D2A60604  19.627  28.278   6.710
 4640POPC   C3A60605  19.886  28.156   7.065
 4640POPC   C4A60606  19.916  28.210   7.497
 4640POPC   C1B60607  19.540  28.774   6.231
 4640POPC   C2B60608  19.385  28.726   6.678
 4640POPC   C3B60609  19.603  28.592   7.108
 4640POPC   C4B60610  19.691  28.654   7.588
 4641POPC   NC360611  24.723  14.725   5.499
 4641POPC   PO460612  24.731  14.032   5.392
 4641POPC   GL160613  24.668  14.281   5.761
 4641POPC   GL260614  24.352  14.475   5.802
 4641POPC   C1A60615  24.687  14.476   6.181
 4641POPC   D2A60616  24.828  14.283   6.564
 4641POPC   C3A60617  24.726  14.552   6.885
 4641POPC   C4A60618  24.758  14.396   7.283
 4641POPC   C1B60619  24.159  14.428   6.213
 4641POPC   C2B60620  23.972  14.708   6.526
 4641POPC   C3B60621  23.954  14.618   6.970
 4641POPC   C4B60622  24.301  14.572   7.169
 4642POPC   NC360623   5.977   0.765   5.140
 4642POPC   PO460624   5.941   1.222   5.697
 4642POPC   GL160625   6.074   1.150   6.023
 4642POPC   GL260626   6.329   0.925   5.998
 4642POPC   C1A60627   5.942   1.228   6.419
 4642POPC   D2A60628   5.658   1.491   6.610
 4642POPC   C3A60629   5.554   1.153   6.843
 4642POPC   C4A60630   5.671   0.994   7.168
 4642POPC   C1B60631   6.084   0.738   6.323
 4642POPC   C2B60632   5.979   0.852   6.760
 4642POPC   C3B60633   6.146   0.818   7.177
 4642POPC   C4B60634   6.296   0.663   7.601
 4643POPC   NC360635  16.233  20.500   5.404
 4643POPC   PO460636  15.565  20.434   5.507
 4643POPC   GL160637  15.743  20.722   5.830
 4643POPC   GL260638  16.100  20.764   5.825
 4643POPC   C1A60639  15.842  20.723   6.264
 4643POPC   D2A60640  16.057  20.630   6.600
 4643POPC   C3A60641  15.891  20.766   6.973
 4643POPC   C4A60642  16.006  20.638   7.395
 4643POPC   C1B60643  16.247  20.415   6.144
 4643POPC   C2B60644  16.238  20.155   6.544
 4643POPC   C3B60645  16.204  20.319   6.982
 4643POPC   C4B60646  16.289  20.224   7.424
 4644POPC   NC360647  20.790  41.683   5.240
 4644POPC   PO460648  20.237  41.291   5.431
 4644POPC   GL160649  20.613  41.336   5.718
 4644POPC   GL260650  20.816  41.695   5.757
 4644POPC   C1A60651  20.675  41.334   6.170
 4644POPC   D2A60652  20.583  41.726   6.404
 4644POPC   C3A60653  20.615  41.779   6.837
 4644POPC   C4A60654  20.529  41.615   7.275
 4644POPC   C1B60655  21.025  41.706   6.174
 4644POPC   C2B60656  20.970  41.466   6.605
 4644POPC   C3B60657  21.030  41.610   7.064
 4644POPC   C4B60658  20.968  41.704   7.528
 4645POPC   NC360659  17.149  10.862   5.085
 4645POPC   PO460660  16.669  10.554   5.416
 4645POPC   GL160661  16.637  10.578   5.837
 4645POPC   GL260662  16.967  10.472   5.882
 4645POPC   C1A60663  16.696  10.688   6.264
 4645POPC   D2A60664  16.750  10.433   6.628
 4645POPC   C3A60665  16.557  10.522   6.992
 4645POPC   C4A60666  16.426  10.787   7.277
 4645POPC   C1B60667  17.128  10.436   6.270
 4645POPC   C2B60668  17.146  10.742   6.611
 4645POPC   C3B60669  17.265  10.807   7.041
 4645POPC   C4B60670  16.946  10.712   7.302
 4646POPC   NC360671   5.561   9.308   5.382
 4646POPC   PO460672   5.963   8.711   5.416
 4646POPC   GL160673   5.793   8.959   5.752
 4646POPC   GL260674   6.022   9.253   5.796
 4646POPC   C1A60675   5.654   9.125   6.164
 4646POPC   D2A60676   5.834   9.193   6.580
 4646POPC   C3A60677   5.584   9.083   6.914
 4646POPC   C4A60678   5.583   8.656   7.058
 4646POPC   C1B60679   6.156   9.003   6.179
 4646POPC   C2B60680   6.246   8.917   6.638
 4646POPC   C3B60681   6.065   8.966   7.063
 4646POPC   C4B60682   6.120   8.895   7.511
 4647POPC   NC360683  38.792  39.606   5.722
 4647POPC   PO460684  38.676  40.254   5.483
 4647POPC   GL160685  38.560  40.044   5.862
 4647POPC   GL260686  38.250  39.862   5.882
 4647POPC   C1A60687  38.616  39.891   6.280
 4647POPC   D2A60688  38.608  40.123   6.639
 4647POPC   C3A60689  38.595  39.880   6.980
 4647POPC   C4A60690  38.487  40.095   7.331
 4647POPC   C1B60691  38.152  40.123   6.208
 4647POPC   C2B60692  38.144  39.939   6.595
 4647POPC   C3B60693  38.102  40.082   6.993
 4647POPC   C4B60694  38.123  39.734   7.270
 4648POPC   NC360695  12.310  26.288   5.174
 4648POPC   PO460696  11.724  26.089   5.433
 4648POPC   GL160697  11.813  25.964   5.842
 4648POPC   GL260698  12.143  25.797   5.767
 4648POPC   C1A60699  11.993  25.948   6.255
 4648POPC   D2A60700  12.349  25.944   6.511
 4648POPC   C3A60701  12.266  26.258   6.818
 4648POPC   C4A60702  12.101  26.145   7.206
 4648POPC   C1B60703  11.920  25.493   6.038
 4648POPC   C2B60704  12.016  25.480   6.481
 4648POPC   C3B60705  11.953  25.759   6.826
 4648POPC   C4B60706  11.656  25.864   7.162
 4649POPC   NC360707  16.100   7.104   5.342
 4649POPC   PO460708  15.670   7.609   5.464
 4649POPC   GL160709  15.857   7.510   5.842
 4649POPC   GL260710  16.212   7.479   5.753
 4649POPC   C1A60711  16.015   7.158   6.115
 4649POPC   D2A60712  16.051   6.968   6.541
 4649POPC   C3A60713  15.885   7.251   6.861
 4649POPC   C4A60714  15.685   7.473   7.195
 4649POPC   C1B60715  16.191   7.658   6.203
 4649POPC   C2B60716  16.378   7.827   6.595
 4649POPC   C3B60717  16.126   7.735   6.955
 4649POPC   C4B60718  16.207   7.423   7.224
 4650POPC   NC360719   8.522  15.588   5.520
 4650POPC   PO460720   9.065  15.978   5.272
 4650POPC   GL160721   8.923  15.920   5.745
 4650POPC   GL260722   8.636  15.746   5.973
 4650POPC   C1A60723   9.090  15.828   6.171
 4650POPC   D2A60724   8.901  15.648   6.541
 4650POPC   C3A60725   9.106  15.866   6.883
 4650POPC   C4A60726   9.196  15.952   7.327
 4650POPC   C1B60727   8.633  16.056   6.308
 4650POPC   C2B60728   8.617  16.059   6.770
 4650POPC   C3B60729   8.691  15.871   7.188
 4650POPC   C4B60730   8.744  16.087   7.577
 4651POPC   NC360731   6.171  14.767   5.363
 4651POPC   PO460732   6.725  14.551   5.388
 4651POPC   GL160733   6.522  14.368   5.734
 4651POPC   GL260734   6.582  14.049   5.804
 4651POPC   C1A60735   6.653  14.405   6.173
 4651POPC   D2A60736   6.877  14.569   6.512
 4651POPC   C3A60737   6.709  14.449   6.881
 4651POPC   C4A60738   6.445  14.551   7.222
 4651POPC   C1B60739   6.602  13.891   6.213
 4651POPC   C2B60740   6.498  14.057   6.584
 4651POPC   C3B60741   6.396  14.068   6.980
 4651POPC   C4B60742   6.750  14.098   7.254
 4652POPC   NC360743  18.498   5.110   5.549
 4652POPC   PO460744  19.052   4.893   5.266
 4652POPC   GL160745  18.997   5.060   5.672
 4652POPC   GL260746  18.972   5.408   5.608
 4652POPC   C1A60747  19.035   5.045   6.131
 4652POPC   D2A60748  19.096   5.055   6.586
 4652POPC   C3A60749  18.931   4.817   6.919
 4652POPC   C4A60750  19.204   4.925   7.270
 4652POPC   C1B60751  18.827   5.531   6.014
 4652POPC   C2B60752  18.725   5.359   6.400
 4652POPC   C3B60753  18.709   5.275   6.840
 4652POPC   C4B60754  18.728   5.137   7.251
 4653POPC   NC360755  10.145  11.368   5.551
 4653POPC   PO460756   9.569  11.085   5.556
 4653POPC   GL160757   9.590  11.401   5.871
 4653POPC   GL260758   9.920  11.542   5.983
 4653POPC   C1A60759   9.428  11.429   6.300
 4653POPC   D2A60760   9.542  11.329   6.744
 4653POPC   C3A60761   9.851  11.399   7.055
 4653POPC   C4A60762   9.803  11.309   7.501
 4653POPC   C1B60763   9.956  11.308   6.395
 4653POPC   C2B60764  10.178  11.134   6.786
 4653POPC   C3B60765  10.224  11.110   7.277
 4653POPC   C4B60766  10.232  11.306   7.744
 4654POPC   NC360767   1.342  30.741   5.463
 4654POPC   PO460768   0.777  30.570   5.385
 4654POPC   GL160769   0.873  30.792   5.743
 4654POPC   GL260770   1.012  31.117   5.639
 4654POPC   C1A60771   1.030  30.632   6.162
 4654POPC   D2A60772   1.373  30.591   6.469
 4654POPC   C3A60773   1.359  30.667   6.910
 4654POPC   C4A60774   1.509  31.011   7.143
 4654POPC   C1B60775   1.031  31.158   6.086
 4654POPC   C2B60776   1.167  31.137   6.517
 4654POPC   C3B60777   1.009  31.075   6.935
 4654POPC   C4B60778   0.800  31.082   7.318
 4655POPC   NC360779  10.845  33.216   5.441
 4655POPC   PO460780  10.412  32.792   5.460
 4655POPC   GL160781  10.500  32.830   5.887
 4655POPC   GL260782  10.776  33.083   5.923
 4655POPC   C1A60783  10.442  33.021   6.294
 4655POPC   D2A60784  10.679  33.006   6.673
 4655POPC   C3A60785  10.334  32.931   6.952
 4655POPC   C4A60786  10.005  33.058   7.225
 4655POPC   C1B60787  10.906  32.794   6.239
 4655POPC   C2B60788  11.147  32.805   6.610
 4655POPC   C3B60789  11.045  32.924   7.024
 4655POPC   C4B60790  10.711  32.917   7.274
 4656POPC   NC360791  36.959  15.656   5.453
 4656POPC   PO460792  36.835  16.352   5.519
 4656POPC   GL160793  36.804  16.014   5.813
 4656POPC   GL260794  37.156  15.949   5.856
 4656POPC   C1A60795  36.783  15.793   6.216
 4656POPC   D2A60796  36.781  15.973   6.653
 4656POPC   C3A60797  36.652  15.800   7.056
 4656POPC   C4A60798  36.828  15.712   7.478
 4656POPC   C1B60799  37.208  16.058   6.296
 4656POPC   C2B60800  37.288  15.818   6.682
 4656POPC   C3B60801  37.159  15.873   7.097
 4656POPC   C4B60802  37.030  16.171   7.382
 4657POPC   NC360803   0.677  44.610   5.665
 4657POPC   PO460804   0.293  44.956   5.238
 4657POPC   GL160805   0.265  44.950   5.714
 4657POPC   GL260806   0.123  44.606   5.801
 4657POPC   C1A60807   0.367  44.835   6.197
 4657POPC   D2A60808   0.399  44.563   6.617
 4657POPC   C3A60809   0.567  44.724   7.020
 4657POPC   C4A60810   0.769   0.057   7.243
 4657POPC   C1B60811   0.061  44.386   6.228
 4657POPC   C2B60812  44.900  44.243   6.642
 4657POPC   C3B60813   0.008  44.163   7.073
 4657POPC   C4B60814   0.359  44.334   7.299
 4658POPC   NC360815   5.287  25.538   5.164
 4658POPC   PO460816   4.968  25.016   5.561
 4658POPC   GL160817   5.241  25.351   5.716
 4658POPC   GL260818   4.960  25.420   5.939
 4658POPC   C1A60819   5.406  25.539   6.121
 4658POPC   D2A60820   5.191  25.463   6.520
 4658POPC   C3A60821   5.411  25.585   6.882
 4658POPC   C4A60822   5.274  25.492   7.283
 4658POPC   C1B60823   4.908  25.119   6.224
 4658POPC   C2B60824   4.978  24.933   6.611
 4658POPC   C3B60825   4.999  25.177   6.973
 4658POPC   C4B60826   4.786  25.234   7.342
 4659POPC   NC360827  12.311  18.844   5.329
 4659POPC   PO460828  12.388  18.238   5.163
 4659POPC   GL160829  12.449  18.229   5.636
 4659POPC   GL260830  12.426  18.562   5.808
 4659POPC   C1A60831  12.265  18.105   6.055
 4659POPC   D2A60832  12.400  18.076   6.496
 4659POPC   C3A60833  12.141  18.012   6.852
 4659POPC   C4A60834  12.189  18.116   7.273
 4659POPC   C1B60835  12.261  18.585   6.262
 4659POPC   C2B60836  12.232  18.519   6.728
 4659POPC   C3B60837  12.548  18.650   7.015
 4659POPC   C4B60838  12.337  18.589   7.325
 4660POPC   NC360839   3.527  26.971   5.489
 4660POPC   PO460840   3.250  26.277   5.557
 4660POPC   GL160841   3.410  26.629   5.900
 4660POPC   GL260842   3.757  26.805   5.939
 4660POPC   C1A60843   3.441  26.932   6.297
 4660POPC   D2A60844   3.158  27.183   6.558
 4660POPC   C3A60845   3.125  26.973   6.945
 4660POPC   C4A60846   3.549  26.964   7.093
 4660POPC   C1B60847   3.864  26.384   6.075
 4660POPC   C2B60848   3.903  26.246   6.509
 4660POPC   C3B60849   3.767  26.468   6.864
 4660POPC   C4B60850   3.637  26.514   7.263
 4661POPC   NC360851  44.321   0.418   5.465
 4661POPC   PO460852  44.924   0.717   5.320
 4661POPC   GL160853  44.808   0.490   5.713
 4661POPC   GL260854  44.559   0.230   5.862
 4661POPC   C1A60855  44.768   0.589   6.150
 4661POPC   D2A60856  44.658   0.229   6.413
 4661POPC   C3A60857  44.763   0.203   6.852
 4661POPC   C4A60858  44.801   0.351   7.274
 4661POPC   C1B60859  44.273   0.445   6.156
 4661POPC   C2B60860  44.207   0.369   6.602
 4661POPC   C3B60861  44.297   0.303   7.028
 4661POPC   C4B60862  44.345   0.393   7.436
 4662POPC   NC360863  28.802  21.481   5.449
 4662POPC   PO460864  29.396  21.850   5.361
 4662POPC   GL160865  29.127  21.702   5.750
 4662POPC   GL260866  29.117  21.328   5.829
 4662POPC   C1A60867  28.893  21.669   6.155
 4662POPC   D2A60868  29.032  21.553   6.569
 4662POPC   C3A60869  28.822  21.347   6.898
 4662POPC   C4A60870  28.919  21.302   7.307
 4662POPC   C1B60871  28.981  21.152   6.238
 4662POPC   C2B60872  29.098  20.995   6.661
 4662POPC   C3B60873  29.321  21.166   7.032
 4662POPC   C4B60874  29.396  21.261   7.498
 4663POPC   NC360875  23.638  12.232   5.368
 4663POPC   PO460876  24.207  11.778   5.219
 4663POPC   GL160877  23.910  11.797   5.649
 4663POPC   GL260878  23.531  11.867   5.712
 4663POPC   C1A60879  23.851  11.994   6.111
 4663POPC   D2A60880  23.823  12.344   6.431
 4663POPC   C3A60881  24.020  12.208   6.821
 4663POPC   C4A60882  23.860  12.259   7.257
 4663POPC   C1B60883  23.368  11.785   6.137
 4663POPC   C2B60884  23.537  11.937   6.531
 4663POPC   C3B60885  23.478  12.185   6.895
 4663POPC   C4B60886  23.513  11.886   7.219
 4664POPC   NC360887  27.053  17.741   5.303
 4664POPC   PO460888  26.589  17.360   5.594
 4664POPC   GL160889  26.701  17.565   5.888
 4664POPC   GL260890  27.035  17.619   5.799
 4664POPC   C1A60891  26.531  17.510   6.269
 4664POPC   D2A60892  26.661  17.694   6.591
 4664POPC   C3A60893  26.590  17.549   6.968
 4664POPC   C4A60894  26.749  17.610   7.370
 4664POPC   C1B60895  27.070  17.661   6.244
 4664POPC   C2B60896  27.100  17.418   6.624
 4664POPC   C3B60897  27.112  17.450   7.058
 4664POPC   C4B60898  27.065  17.219   7.434
 4665POPC   NC360899  11.526  40.103   5.379
 4665POPC   PO460900  10.893  39.896   5.447
 4665POPC   GL160901  11.163  40.110   5.802
 4665POPC   GL260902  11.476  39.939   5.870
 4665POPC   C1A60903  11.294  40.260   6.247
 4665POPC   D2A60904  11.126  40.219   6.664
 4665POPC   C3A60905  11.360  40.137   7.042
 4665POPC   C4A60906  11.271  40.162   7.453
 4665POPC   C1B60907  11.569  39.841   6.279
 4665POPC   C2B60908  11.673  39.956   6.685
 4665POPC   C3B60909  11.583  39.661   7.023
 4665POPC   C4B60910  11.526  39.728   7.482
 4666POPC   NC360911  11.536  31.483   5.428
 4666POPC   PO460912  10.900  31.452   5.660
 4666POPC   GL160913  11.325  31.520   5.872
 4666POPC   GL260914  11.478  31.182   5.896
 4666POPC   C1A60915  11.626  31.529   6.213
 4666POPC   D2A60916  11.445  31.570   6.582
 4666POPC   C3A60917  11.637  31.600   6.932
 4666POPC   C4A60918  11.289  31.511   7.205
 4666POPC   C1B60919  11.127  31.237   6.216
 4666POPC   C2B60920  10.973  31.373   6.563
 4666POPC   C3B60921  10.950  31.240   6.935
 4666POPC   C4B60922  11.070  31.036   7.289
 4667POPC   NC360923   2.366  16.470   5.544
 4667POPC   PO460924   2.061  15.809   5.457
 4667POPC   GL160925   1.992  16.001   5.840
 4667POPC   GL260926   2.359  16.039   5.882
 4667POPC   C1A60927   2.034  16.055   6.282
 4667POPC   D2A60928   1.829  15.945   6.648
 4667POPC   C3A60929   2.079  16.032   6.988
 4667POPC   C4A60930   2.043  15.952   7.435
 4667POPC   C1B60931   2.350  15.650   6.162
 4667POPC   C2B60932   2.200  15.625   6.578
 4667POPC   C3B60933   2.303  15.548   6.996
 4667POPC   C4B60934   2.491  15.839   7.243
 4668POPC   NC360935  34.324  44.636   5.320
 4668POPC   PO460936  34.842   0.059   5.346
 4668POPC   GL160937  34.767  44.812   5.698
 4668POPC   GL260938  34.734  44.476   5.620
 4668POPC   C1A60939  34.636  44.912   6.097
 4668POPC   D2A60940  34.730  44.905   6.521
 4668POPC   C3A60941  34.492  44.818   6.862
 4668POPC   C4A60942  34.678  44.822   7.278
 4668POPC   C1B60943  34.414  44.474   5.964
 4668POPC   C2B60944  34.419  44.518   6.405
 4668POPC   C3B60945  34.180  44.412   6.759
 4668POPC   C4B60946  34.360  44.433   7.172
 4669POPC   NC360947  19.696  38.318   5.598
 4669POPC   PO460948  20.216  37.870   5.712
 4669POPC   GL160949  20.041  38.255   6.025
 4669POPC   GL260950  19.691  38.455   6.063
 4669POPC   C1A60951  19.880  38.268   6.480
 4669POPC   D2A60952  19.910  38.567   6.803
 4669POPC   C3A60953  19.803  38.466   7.170
 4669POPC   C4A60954  19.791  38.030   7.211
 4669POPC   C1B60955  19.916  38.744   6.289
 4669POPC   C2B60956  19.765  38.984   6.613
 4669POPC   C3B60957  19.490  39.070   6.900
 4669POPC   C4B60958  19.360  38.783   7.193
 4670POPC   NC360959  42.939  22.918   5.276
 4670POPC   PO460960  43.606  22.672   5.300
 4670POPC   GL160961  43.294  22.736   5.674
 4670POPC   GL260962  43.185  23.083   5.718
 4670POPC   C1A60963  43.146  22.758   6.137
 4670POPC   D2A60964  42.933  22.652   6.539
 4670POPC   C3A60965  43.115  22.756   6.932
 4670POPC   C4A60966  43.180  22.969   7.322
 4670POPC   C1B60967  43.007  23.260   6.137
 4670POPC   C2B60968  42.868  23.164   6.564
 4670POPC   C3B60969  42.792  23.169   6.999
 4670POPC   C4B60970  42.991  23.421   7.288
 4671POPC   NC360971  42.231  30.962   5.002
 4671POPC   PO460972  41.976  30.421   5.284
 4671POPC   GL160973  42.234  30.460   5.710
 4671POPC   GL260974  42.597  30.391   5.819
 4671POPC   C1A60975  42.254  30.655   6.136
 4671POPC   D2A60976  42.373  30.876   6.511
 4671POPC   C3A60977  42.254  30.689   6.921
 4671POPC   C4A60978  42.172  30.484   7.323
 4671POPC   C1B60979  42.530  30.248   6.242
 4671POPC   C2B60980  42.582  30.387   6.654
 4671POPC   C3B60981  42.555  30.231   7.062
 4671POPC   C4B60982  42.576  30.243   7.520
 4672POPC   NC360983   3.123  38.669   5.517
 4672POPC   PO460984   2.532  38.372   5.312
 4672POPC   GL160985   2.598  38.243   5.751
 4672POPC   GL260986   2.952  38.226   5.753
 4672POPC   C1A60987   2.578  38.338   6.214
 4672POPC   D2A60988   2.752  38.111   6.575
 4672POPC   C3A60989   2.519  38.184   6.963
 4672POPC   C4A60990   2.564  38.289   7.398
 4672POPC   C1B60991   3.064  38.446   6.139
 4672POPC   C2B60992   2.925  38.625   6.513
 4672POPC   C3B60993   3.042  38.527   6.919
 4672POPC   C4B60994   3.057  38.261   7.273
 4673POPC   NC360995  31.658   2.343   5.657
 4673POPC   PO460996  31.146   1.975   5.472
 4673POPC   GL160997  31.244   2.032   5.930
 4673POPC   GL260998  31.582   2.051   6.099
 4673POPC   C1A60999  31.186   1.691   6.245
 4673POPC   D2A61000  31.153   1.635   6.678
 4673POPC   C3A61001  31.533   1.736   6.900
 4673POPC   C4A61002  31.383   1.947   7.238
 4673POPC   C1B61003  31.417   2.438   6.284
 4673POPC   C2B61004  31.348   2.413   6.721
 4673POPC   C3B61005  31.588   2.392   7.079
 4673POPC   C4B61006  31.853   2.089   7.281
 4674POPC   NC361007  41.021  25.565   5.536
 4674POPC   PO461008  40.679  24.979   5.473
 4674POPC   GL161009  40.781  25.209   5.867
 4674POPC   GL261010  40.641  25.553   5.895
 4674POPC   C1A61011  40.531  25.289   6.294
 4674POPC   D2A61012  40.412  25.482   6.684
 4674POPC   C3A61013  40.599  25.300   7.063
 4674POPC   C4A61014  40.667  25.109   7.467
 4674POPC   C1B61015  40.967  25.555   6.220
 4674POPC   C2B61016  40.941  25.493   6.653
 4674POPC   C3B61017  41.020  25.579   7.076
 4674POPC   C4B61018  40.918  25.568   7.501
 4675POPC   NC361019   1.009  15.212   5.517
 4675POPC   PO461020   1.627  14.961   5.391
 4675POPC   GL161021   1.545  15.146   5.803
 4675POPC   GL261022   1.240  14.988   5.920
 4675POPC   C1A61023   1.573  15.139   6.265
 4675POPC   D2A61024   1.306  15.214   6.627
 4675POPC   C3A61025   1.480  15.132   7.033
 4675POPC   C4A61026   1.329  15.272   7.441
 4675POPC   C1B61027   1.190  14.795   6.358
 4675POPC   C2B61028   1.144  14.766   6.846
 4675POPC   C3B61029   0.962  15.037   7.187
 4675POPC   C4B61030   0.959  14.993   7.666
 4676POPC   NC361031  23.344  20.021   5.374
 4676POPC   PO461032  22.700  19.838   5.286
 4676POPC   GL161033  22.751  19.834   5.783
 4676POPC   GL261034  23.136  19.869   5.836
 4676POPC   C1A61035  22.696  20.061   6.188
 4676POPC   D2A61036  22.916  20.026   6.577
 4676POPC   C3A61037  22.662  19.780   6.835
 4676POPC   C4A61038  22.491  20.012   7.161
 4676POPC   C1B61039  23.044  19.673   6.218
 4676POPC   C2B61040  23.037  19.485   6.628
 4676POPC   C3B61041  23.131  19.712   7.034
 4676POPC   C4B61042  23.288  19.652   7.442
 4677POPC   NC361043  34.140  31.006   5.282
 4677POPC   PO461044  33.474  30.960   5.328
 4677POPC   GL161045  33.750  30.913   5.695
 4677POPC   GL261046  34.027  30.684   5.735
 4677POPC   C1A61047  33.712  30.813   6.149
 4677POPC   D2A61048  33.708  31.034   6.564
 4677POPC   C3A61049  33.745  30.785   6.946
 4677POPC   C4A61050  33.490  30.667   7.291
 4677POPC   C1B61051  34.257  30.459   6.083
 4677POPC   C2B61052  34.295  30.438   6.562
 4677POPC   C3B61053  34.325  30.594   6.991
 4677POPC   C4B61054  34.186  30.643   7.409
 4678POPC   NC361055  16.775  44.354   5.422
 4678POPC   PO461056  16.816  43.707   5.194
 4678POPC   GL161057  16.834  43.721   5.633
 4678POPC   GL261058  16.552  43.947   5.705
 4678POPC   C1A61059  16.767  43.642   6.090
 4678POPC   D2A61060  16.645  43.915   6.450
 4678POPC   C3A61061  16.697  43.757   6.867
 4678POPC   C4A61062  16.878  43.755   7.284
 4678POPC   C1B61063  16.457  44.234   6.043
 4678POPC   C2B61064  16.214  44.198   6.419
 4678POPC   C3B61065  16.370  44.179   6.822
 4678POPC   C4B61066  16.654  44.211   7.160
 4679POPC   NC361067   9.767  43.514   5.589
 4679POPC   PO461068   9.603  44.163   5.589
 4679POPC   GL161069   9.726  44.127   5.994
 4679POPC   GL261070  10.024  44.322   6.082
 4679POPC   C1A61071   9.587  44.008   6.417
 4679POPC   D2A61072   9.685  44.083   6.868
 4679POPC   C3A61073   9.530  43.838   7.172
 4679POPC   C4A61074   9.793  43.506   7.205
 4679POPC   C1B61075   9.986  44.343   6.537
 4679POPC   C2B61076  10.158  44.266   6.963
 4679POPC   C3B61077   9.982  44.167   7.348
 4679POPC   C4B61078   9.899  44.291   7.782
 4680POPC   NC361079  27.518  14.455   5.439
 4680POPC   PO461080  28.065  14.077   5.568
 4680POPC   GL161081  27.741  14.244   5.838
 4680POPC   GL261082  27.670  14.645   5.868
 4680POPC   C1A61083  27.590  14.190   6.248
 4680POPC   D2A61084  27.746  13.995   6.637
 4680POPC   C3A61085  27.558  14.181   7.007
 4680POPC   C4A61086  27.765  14.495   7.251
 4680POPC   C1B61087  27.508  14.730   6.254
 4680POPC   C2B61088  27.349  14.527   6.605
 4680POPC   C3B61089  27.365  14.691   7.021
 4680POPC   C4B61090  27.461  14.876   7.457
 4681POPC   NC361091  33.597  11.070   5.118
 4681POPC   PO461092  32.965  11.190   5.447
 4681POPC   GL161093  32.966  11.305   5.872
 4681POPC   GL261094  33.219  11.517   5.965
 4681POPC   C1A61095  33.082  11.114   6.259
 4681POPC   D2A61096  33.396  10.978   6.540
 4681POPC   C3A61097  33.341  11.203   6.913
 4681POPC   C4A61098  33.365  11.056   7.323
 4681POPC   C1B61099  32.853  11.568   6.312
 4681POPC   C2B61100  32.844  11.256   6.689
 4681POPC   C3B61101  32.895  11.154   7.138
 4681POPC   C4B61102  32.871  11.568   7.361
 4682POPC   NC361103   7.344  13.490   4.820
 4682POPC   PO461104   7.442  13.857   5.458
 4682POPC   GL161105   7.332  13.710   5.836
 4682POPC   GL261106   7.267  13.349   5.816
 4682POPC   C1A61107   7.448  13.850   6.238
 4682POPC   D2A61108   7.646  13.832   6.615
 4682POPC   C3A61109   7.447  13.715   6.989
 4682POPC   C4A61110   7.284  13.968   7.324
 4682POPC   C1B61111   7.474  13.325   6.245
 4682POPC   C2B61112   7.509  13.250   6.703
 4682POPC   C3B61113   7.487  13.234   7.158
 4682POPC   C4B61114   7.807  13.048   7.430
 4683POPC   NC361115  25.054  30.613   5.043
 4683POPC   PO461116  24.603  30.935   5.280
 4683POPC   GL161117  24.571  30.716   5.690
 4683POPC   GL261118  24.245  30.778   5.671
 4683POPC   C1A61119  24.677  30.509   6.096
 4683POPC   D2A61120  24.927  30.559   6.486
 4683POPC   C3A61121  24.803  30.596   6.900
 4683POPC   C4A61122  24.661  30.559   7.292
 4683POPC   C1B61123  24.298  30.891   6.116
 4683POPC   C2B61124  24.460  30.783   6.529
 4683POPC   C3B61125  24.301  30.670   6.928
 4683POPC   C4B61126  24.190  30.723   7.329
 4684POPC   NC361127  22.299  41.542   5.600
 4684POPC   PO461128  21.761  41.934   5.411
 4684POPC   GL161129  21.905  41.818   5.834
 4684POPC   GL261130  21.851  41.494   5.873
 4684POPC   C1A61131  22.129  41.690   6.264
 4684POPC   D2A61132  22.379  41.494   6.647
 4684POPC   C3A61133  22.415  41.712   7.076
 4684POPC   C4A61134  22.418  41.769   7.551
 4684POPC   C1B61135  21.822  41.269   6.265
 4684POPC   C2B61136  21.863  41.485   6.655
 4684POPC   C3B61137  22.035  41.354   7.054
 4684POPC   C4B61138  21.775  41.304   7.408
 4685POPC   NC361139  36.076  25.138   5.424
 4685POPC   PO461140  36.170  25.751   5.329
 4685POPC   GL161141  36.228  25.558   5.729
 4685POPC   GL261142  35.887  25.407   5.852
 4685POPC   C1A61143  36.320  25.423   6.143
 4685POPC   D2A61144  36.097  25.567   6.503
 4685POPC   C3A61145  36.263  25.371   6.843
 4685POPC   C4A61146  36.258  25.461   7.215
 4685POPC   C1B61147  35.932  25.079   6.191
 4685POPC   C2B61148  36.058  24.954   6.639
 4685POPC   C3B61149  35.895  25.057   7.092
 4685POPC   C4B61150  35.894  25.293   7.509
 4686POPC   NC361151  37.408  19.161   5.466
 4686POPC   PO461152  38.082  18.912   5.518
 4686POPC   GL161153  37.843  19.106   5.811
 4686POPC   GL261154  37.628  18.814   5.805
 4686POPC   C1A61155  37.728  19.100   6.272
 4686POPC   D2A61156  37.960  19.049   6.687
 4686POPC   C3A61157  37.808  19.105   7.137
 4686POPC   C4A61158  37.456  19.345   7.309
 4686POPC   C1B61159  37.498  18.599   6.178
 4686POPC   C2B61160  37.435  18.718   6.586
 4686POPC   C3B61161  37.360  18.993   6.923
 4686POPC   C4B61162  37.448  18.804   7.322
 4687POPC   NC361163  14.876  42.180   5.487
 4687POPC   PO461164  15.510  42.363   5.240
 4687POPC   GL161165  15.470  42.325   5.729
 4687POPC   GL261166  15.167  42.471   5.870
 4687POPC   C1A61167  15.375  42.134   6.196
 4687POPC   D2A61168  15.198  42.172   6.639
 4687POPC   C3A61169  15.428  42.140   7.057
 4687POPC   C4A61170  15.225  41.878   7.362
 4687POPC   C1B61171  15.259  42.656   6.313
 4687POPC   C2B61172  15.297  42.643   6.785
 4687POPC   C3B61173  15.398  42.611   7.233
 4687POPC   C4B61174  15.461  42.758   7.697
 4688POPC   NC361175  28.622   8.727   5.499
 4688POPC   PO461176  28.271   9.268   5.308
 4688POPC   GL161177  28.191   9.032   5.718
 4688POPC   GL261178  28.216   8.641   5.792
 4688POPC   C1A61179  28.327   9.109   6.143
 4688POPC   D2A61180  28.427   9.002   6.571
 4688POPC   C3A61181  28.083   8.889   6.886
 4688POPC   C4A61182  28.190   9.065   7.297
 4688POPC   C1B61183  28.514   8.600   6.150
 4688POPC   C2B61184  28.661   8.527   6.561
 4688POPC   C3B61185  28.552   8.688   6.961
 4688POPC   C4B61186  28.492   8.482   7.325
 4689POPC   NC361187  29.470  42.363   5.608
 4689POPC   PO461188  30.115  42.434   5.463
 4689POPC   GL161189  30.117  42.542   5.884
 4689POPC   GL261190  29.869  42.291   5.922
 4689POPC   C1A61191  30.168  42.416   6.336
 4689POPC   D2A61192  30.019  42.587   6.751
 4689POPC   C3A61193  30.054  42.347   7.127
 4689POPC   C4A61194  29.793  42.238   7.494
 4689POPC   C1B61195  29.674  42.332   6.331
 4689POPC   C2B61196  29.835  42.113   6.713
 4689POPC   C3B61197  29.826  41.895   7.123
 4689POPC   C4B61198  29.626  41.748   7.523
 4690POPC   NC361199  40.505  36.470   5.069
 4690POPC   PO461200  40.930  36.026   5.249
 4690POPC   GL161201  40.827  35.982   5.710
 4690POPC   GL261202  40.760  36.316   5.824
 4690POPC   C1A61203  40.755  35.952   6.194
 4690POPC   D2A61204  40.701  36.156   6.610
 4690POPC   C3A61205  40.708  35.928   6.996
 4690POPC   C4A61206  40.409  35.803   7.298
 4690POPC   C1B61207  40.861  36.484   6.250
 4690POPC   C2B61208  41.086  36.488   6.669
 4690POPC   C3B61209  40.874  36.428   7.098
 4690POPC   C4B61210  40.777  36.476   7.575
 4691POPC   NC361211   5.395   0.038   5.277
 4691POPC   PO461212   4.955   0.563   5.403
 4691POPC   GL161213   5.082   0.358   5.747
 4691POPC   GL261214   4.883   0.622   5.927
 4691POPC   C1A61215   5.260   0.313   6.162
 4691POPC   D2A61216   5.461   0.401   6.556
 4691POPC   C3A61217   5.282   0.301   6.965
 4691POPC   C4A61218   5.363   0.610   7.255
 4691POPC   C1B61219   4.749   0.211   6.111
 4691POPC   C2B61220   4.693   0.263   6.533
 4691POPC   C3B61221   4.883   0.590   6.798
 4691POPC   C4B61222   4.868   0.715   7.225
 4692POPC   NC361223  30.411  31.820   5.395
 4692POPC   PO461224  31.059  31.572   5.357
 4692POPC   GL161225  30.892  31.604   5.809
 4692POPC   GL261226  30.518  31.599   5.848
 4692POPC   C1A61227  30.775  31.360   6.215
 4692POPC   D2A61228  30.578  31.208   6.616
 4692POPC   C3A61229  30.880  31.215   6.920
 4692POPC   C4A61230  30.964  31.418   7.305
 4692POPC   C1B61231  30.241  31.772   6.175
 4692POPC   C2B61232  30.079  31.856   6.588
 4692POPC   C3B61233  30.277  31.748   6.953
 4692POPC   C4B61234  30.459  31.391   7.179
 4693POPC   NC361235   2.271  22.477   5.600
 4693POPC   PO461236   2.868  22.839   5.382
 4693POPC   GL161237   2.769  22.920   5.779
 4693POPC   GL261238   2.498  22.806   5.973
 4693POPC   C1A61239   2.811  23.210   6.088
 4693POPC   D2A61240   2.605  23.123   6.474
 4693POPC   C3A61241   2.717  23.104   6.869
 4693POPC   C4A61242   2.799  23.013   7.256
 4693POPC   C1B61243   2.897  22.737   6.230
 4693POPC   C2B61244   2.900  22.676   6.645
 4693POPC   C3B61245   3.153  22.756   6.991
 4693POPC   C4B61246   3.022  22.470   7.308
 4694POPC   NC361247  21.588   0.102   5.323
 4694POPC   PO461248  20.966  44.975   5.418
 4694POPC   GL161249  21.270  44.975   5.799
 4694POPC   GL261250  21.638   0.128   5.845
 4694POPC   C1A61251  21.328   0.114   6.250
 4694POPC   D2A61252  21.298   0.316   6.663
 4694POPC   C3A61253  21.436   0.148   7.059
 4694POPC   C4A61254  21.298   0.238   7.482
 4694POPC   C1B61255  21.715   0.460   6.222
 4694POPC   C2B61256  21.621   0.718   6.615
 4694POPC   C3B61257  21.574   0.643   7.090
 4694POPC   C4B61258  21.747   0.519   7.521
 4695POPC   NC361259  11.288  12.478   5.300
 4695POPC   PO461260  11.090  13.094   5.196
 4695POPC   GL161261  11.273  13.107   5.640
 4695POPC   GL261262  11.303  12.774   5.757
 4695POPC   C1A61263  11.401  13.088   6.123
 4695POPC   D2A61264  11.220  12.938   6.544
 4695POPC   C3A61265  11.411  12.980   6.907
 4695POPC   C4A61266  11.403  12.663   7.180
 4695POPC   C1B61267  11.061  12.644   6.172
 4695POPC   C2B61268  10.831  12.577   6.531
 4695POPC   C3B61269  10.932  12.617   6.947
 4695POPC   C4B61270  11.051  12.298   7.259
 4696POPC   NC361271  32.505  40.516   5.220
 4696POPC   PO461272  33.094  40.668   5.367
 4696POPC   GL161273  32.872  40.833   5.747
 4696POPC   GL261274  32.643  41.118   5.809
 4696POPC   C1A61275  32.910  40.834   6.195
 4696POPC   D2A61276  33.167  41.012   6.509
 4696POPC   C3A61277  33.108  40.898   6.931
 4696POPC   C4A61278  33.333  41.029   7.294
 4696POPC   C1B61279  32.483  41.154   6.233
 4696POPC   C2B61280  32.583  40.940   6.623
 4696POPC   C3B61281  32.606  40.998   7.055
 4696POPC   C4B61282  32.880  41.272   7.215
 4697POPC   NC361283  23.003  11.694   5.540
 4697POPC   PO461284  23.063  12.363   5.533
 4697POPC   GL161285  22.790  12.209   5.866
 4697POPC   GL261286  22.566  11.920   5.765
 4697POPC   C1A61287  22.884  12.007   6.265
 4697POPC   D2A61288  23.062  11.755   6.614
 4697POPC   C3A61289  23.021  11.930   7.042
 4697POPC   C4A61290  23.075  12.037   7.481
 4697POPC   C1B61291  22.436  11.719   6.156
 4697POPC   C2B61292  22.503  11.884   6.586
 4697POPC   C3B61293  22.502  11.864   7.014
 4697POPC   C4B61294  22.646  11.683   7.371
 4698POPC   NC361295  29.987  13.943   5.467
 4698POPC   PO461296  29.772  13.429   5.198
 4698POPC   GL161297  29.723  13.557   5.688
 4698POPC   GL261298  29.554  13.879   5.752
 4698POPC   C1A61299  29.928  13.772   6.108
 4698POPC   D2A61300  29.881  13.735   6.571
 4698POPC   C3A61301  30.075  13.817   6.972
 4698POPC   C4A61302  30.133  13.694   7.416
 4698POPC   C1B61303  29.382  14.061   6.138
 4698POPC   C2B61304  29.543  14.137   6.562
 4698POPC   C3B61305  29.525  13.873   6.943
 4698POPC   C4B61306  29.705  13.977   7.330
 4699POPC   NC361307  10.975   3.098   5.679
 4699POPC   PO461308  11.399   2.709   5.199
 4699POPC   GL161309  11.314   2.685   5.647
 4699POPC   GL261310  10.992   2.572   5.753
 4699POPC   C1A61311  11.383   2.744   6.091
 4699POPC   D2A61312  11.294   2.639   6.501
 4699POPC   C3A61313  11.198   2.914   6.820
 4699POPC   C4A61314  11.396   2.755   7.184
 4699POPC   C1B61315  10.870   2.532   6.195
 4699POPC   C2B61316  10.913   2.324   6.603
 4699POPC   C3B61317  11.008   2.435   7.027
 4699POPC   C4B61318  11.011   2.537   7.510
 4700POPC   NC361319  23.517  44.979   5.461
 4700POPC   PO461320  23.404   0.570   5.429
 4700POPC   GL161321  23.695   0.324   5.824
 4700POPC   GL261322  23.771  44.941   5.912
 4700POPC   C1A61323  23.915   0.247   6.289
 4700POPC   D2A61324  23.861   0.158   6.752
 4700POPC   C3A61325  23.884   0.423   7.118
 4700POPC   C4A61326  23.618   0.648   7.403
 4700POPC   C1B61327  23.425   0.139   6.224
 4700POPC   C2B61328  23.376   0.263   6.694
 4700POPC   C3B61329  23.427   0.181   7.166
 4700POPC   C4B61330  23.484   0.211   7.645
 4701POPC   NC361331  38.361  39.900   5.371
 4701POPC   PO461332  37.704  40.041   5.391
 4701POPC   GL161333  37.477  40.216   5.737
 4701POPC   GL261334  37.733  39.983   5.926
 4701POPC   C1A61335  37.541  40.392   6.149
 4701POPC   D2A61336  37.694  40.140   6.478
 4701POPC   C3A61337  37.600  40.220   6.898
 4701POPC   C4A61338  37.279  40.235   7.213
 4701POPC   C1B61339  37.884  39.629   6.187
 4701POPC   C2B61340  37.901  39.485   6.588
 4701POPC   C3B61341  37.762  39.705   6.913
 4701POPC   C4B61342  37.613  39.882   7.290
 4702POPC   NC361343  42.648  35.155   4.972
 4702POPC   PO461344  42.235  35.626   5.296
 4702POPC   GL161345  42.180  35.551   5.761
 4702POPC   GL261346  42.278  35.231   5.891
 4702POPC   C1A61347  42.450  35.651   6.151
 4702POPC   D2A61348  42.735  35.572   6.476
 4702POPC   C3A61349  42.566  35.651   6.860
 4702POPC   C4A61350  42.415  35.355   7.129
 4702POPC   C1B61351  42.469  35.159   6.260
 4702POPC   C2B61352  42.264  35.334   6.607
 4702POPC   C3B61353  41.948  35.336   6.933
 4702POPC   C4B61354  42.000  35.098   7.333
 4703POPC   NC361355  43.335  37.605   5.351
 4703POPC   PO461356  42.734  37.933   5.449
 4703POPC   GL161357  42.992  37.776   5.775
 4703POPC   GL261358  43.050  37.428   5.760
 4703POPC   C1A61359  43.109  37.654   6.209
 4703POPC   D2A61360  43.184  37.826   6.593
 4703POPC   C3A61361  43.108  37.535   6.908
 4703POPC   C4A61362  43.025  37.708   7.291
 4703POPC   C1B61363  43.414  37.275   6.018
 4703POPC   C2B61364  43.453  37.313   6.466
 4703POPC   C3B61365  43.497  37.159   6.889
 4703POPC   C4B61366  43.441  37.360   7.266
 4704POPC   NC361367  30.556  43.503   5.617
 4704POPC   PO461368  30.349  44.113   5.335
 4704POPC   GL161369  30.736  44.045   5.782
 4704POPC   GL261370  30.958  43.765   5.782
 4704POPC   C1A61371  30.724  44.034   6.277
 4704POPC   D2A61372  30.522  43.717   6.573
 4704POPC   C3A61373  30.465  43.910   7.021
 4704POPC   C4A61374  30.555  44.268   7.337
 4704POPC   C1B61375  30.929  43.588   6.148
 4704POPC   C2B61376  31.032  43.609   6.530
 4704POPC   C3B61377  30.872  43.592   6.904
 4704POPC   C4B61378  30.904  43.831   7.261
 4705POPC   NC361379  41.008  37.245   5.451
 4705POPC   PO461380  40.573  36.669   5.482
 4705POPC   GL161381  40.564  36.799   5.900
 4705POPC   GL261382  40.916  36.833   5.873
 4705POPC   C1A61383  40.408  36.810   6.340
 4705POPC   D2A61384  40.638  36.714   6.677
 4705POPC   C3A61385  40.654  37.039   6.942
 4705POPC   C4A61386  40.539  36.804   7.258
 4705POPC   C1B61387  40.873  36.995   6.289
 4705POPC   C2B61388  41.100  37.026   6.641
 4705POPC   C3B61389  41.157  36.855   7.030
 4705POPC   C4B61390  41.004  36.915   7.420
 4706POPC   NC361391   8.066  19.959   5.301
 4706POPC   PO461392   8.481  19.475   5.408
 4706POPC   GL161393   8.203  19.646   5.730
 4706POPC   GL261394   8.282  19.999   5.767
 4706POPC   C1A61395   8.176  19.667   6.184
 4706POPC   D2A61396   8.006  19.837   6.551
 4706POPC   C3A61397   8.166  19.669   6.948
 4706POPC   C4A61398   7.880  19.819   7.255
 4706POPC   C1B61399   8.115  20.181   6.133
 4706POPC   C2B61400   8.201  20.322   6.528
 4706POPC   C3B61401   8.133  20.163   6.938
 4706POPC   C4B61402   8.306  20.136   7.311
 4707POPC   NC361403   9.186  42.340   5.437
 4707POPC   PO461404   8.522  42.334   5.373
 4707POPC   GL161405   8.792  42.484   5.767
 4707POPC   GL261406   9.166  42.462   5.919
 4707POPC   C1A61407   8.784  42.631   6.207
 4707POPC   D2A61408   8.998  42.603   6.601
 4707POPC   C3A61409   8.772  42.718   6.968
 4707POPC   C4A61410   8.817  42.548   7.356
 4707POPC   C1B61411   9.009  42.180   6.243
 4707POPC   C2B61412   9.104  42.062   6.664
 4707POPC   C3B61413   8.962  42.148   7.090
 4707POPC   C4B61414   9.078  42.180   7.565
 4708POPC   NC361415   2.000  44.998   5.076
 4708POPC   PO461416   1.965  44.532   5.543
 4708POPC   GL161417   2.178  44.677   5.931
 4708POPC   GL261418   1.851  44.648   6.036
 4708POPC   C1A61419   2.215  44.699   6.375
 4708POPC   D2A61420   1.851  44.527   6.572
 4708POPC   C3A61421   1.989  44.485   6.970
 4708POPC   C4A61422   1.843  44.576   7.335
 4708POPC   C1B61423   1.863   0.041   6.206
 4708POPC   C2B61424   1.822   0.027   6.589
 4708POPC   C3B61425   1.643  44.886   6.960
 4708POPC   C4B61426   1.761   0.067   7.369
 4709POPC   NC361427  41.934  29.085   5.536
 4709POPC   PO461428  42.643  28.951   5.305
 4709POPC   GL161429  42.428  29.084   5.730
 4709POPC   GL261430  42.188  28.899   5.920
 4709POPC   C1A61431  42.461  29.181   6.220
 4709POPC   D2A61432  42.378  29.356   6.633
 4709POPC   C3A61433  42.465  29.200   7.034
 4709POPC   C4A61434  42.428  29.383   7.468
 4709POPC   C1B61435  42.093  28.872   6.351
 4709POPC   C2B61436  42.156  28.847   6.758
 4709POPC   C3B61437  41.907  28.863   7.089
 4709POPC   C4B61438  42.027  29.087   7.483
 4710POPC   NC361439  23.437  31.792   5.417
 4710POPC   PO461440  23.952  31.462   5.475
 4710POPC   GL161441  23.789  31.405   5.850
 4710POPC   GL261442  23.450  31.470   5.831
 4710POPC   C1A61443  23.745  31.544   6.276
 4710POPC   D2A61444  23.628  31.726   6.666
 4710POPC   C3A61445  23.770  31.430   6.968
 4710POPC   C4A61446  24.079  31.165   7.117
 4710POPC   C1B61447  23.277  31.717   6.174
 4710POPC   C2B61448  23.156  31.550   6.571
 4710POPC   C3B61449  23.271  31.479   6.995
 4710POPC   C4B61450  23.435  31.091   7.173
 4711POPC   NC361451   2.624  23.250   5.429
 4711POPC   PO461452   2.535  23.832   5.704
 4711POPC   GL161453   2.821  23.775   5.945
 4711POPC   GL261454   3.096  23.993   5.875
 4711POPC   C1A61455   2.672  23.648   6.328
 4711POPC   D2A61456   2.686  23.607   6.727
 4711POPC   C3A61457   2.468  23.838   6.978
 4711POPC   C4A61458   2.658  23.532   7.264
 4711POPC   C1B61459   3.099  23.930   6.343
 4711POPC   C2B61460   3.098  23.910   6.777
 4711POPC   C3B61461   2.913  24.107   7.155
 4711POPC   C4B61462   2.920  24.289   7.575
 4712POPC   NC361463  12.723  16.454   5.174
 4712POPC   PO461464  13.148  16.982   5.396
 4712POPC   GL161465  13.137  16.884   5.794
 4712POPC   GL261466  12.981  16.563   5.801
 4712POPC   C1A61467  12.966  17.065   6.140
 4712POPC   D2A61468  13.064  17.022   6.560
 4712POPC   C3A61469  12.834  17.209   6.871
 4712POPC   C4A61470  12.901  16.965   7.233
 4712POPC   C1B61471  12.630  16.662   6.092
 4712POPC   C2B61472  12.501  16.804   6.511
 4712POPC   C3B61473  12.632  16.665   6.920
 4712POPC   C4B61474  12.781  16.380   7.246
 4713POPC   NC361475   2.794  29.831   5.302
 4713POPC   PO461476   2.939  30.451   5.483
 4713POPC   GL161477   2.711  30.171   5.751
 4713POPC   GL261478   2.831  29.826   5.796
 4713POPC   C1A61479   2.768  30.132   6.201
 4713POPC   D2A61480   2.908  30.301   6.585
 4713POPC   C3A61481   2.672  30.076   6.854
 4713POPC   C4A61482   2.712  29.967   7.258
 4713POPC   C1B61483   2.760  29.575   6.143
 4713POPC   C2B61484   2.865  29.649   6.549
 4713POPC   C3B61485   2.688  29.567   6.945
 4713POPC   C4B61486   2.654  29.428   7.371
 4714POPC   NC361487   1.123   8.159   5.313
 4714POPC   PO461488   1.380   8.713   5.585
 4714POPC   GL161489   1.405   8.362   5.815
 4714POPC   GL261490   1.087   8.231   5.825
 4714POPC   C1A61491   1.532   8.268   6.248
 4714POPC   D2A61492   1.498   8.128   6.681
 4714POPC   C3A61493   1.266   8.397   6.947
 4714POPC   C4A61494   1.213   8.479   7.368
 4714POPC   C1B61495   1.071   8.040   6.238
 4714POPC   C2B61496   0.991   8.008   6.694
 4714POPC   C3B61497   1.169   7.913   7.101
 4714POPC   C4B61498   1.034   8.024   7.532
 4715POPC   NC361499  21.927  10.322   5.432
 4715POPC   PO461500  21.917  10.957   5.419
 4715POPC   GL161501  21.605  10.758   5.692
 4715POPC   GL261502  21.231  10.632   5.674
 4715POPC   C1A61503  21.464  10.697   6.135
 4715POPC   D2A61504  21.248  10.575   6.523
 4715POPC   C3A61505  21.473  10.520   6.912
 4715POPC   C4A61506  21.567  10.479   7.364
 4715POPC   C1B61507  21.092  10.358   6.051
 4715POPC   C2B61508  21.048  10.103   6.444
 4715POPC   C3B61509  21.035  10.265   6.894
 4715POPC   C4B61510  21.113  10.258   7.362
 4716POPC   NC361511   6.797  25.467   5.537
 4716POPC   PO461512   6.562  26.125   5.394
 4716POPC   GL161513   6.773  25.985   5.768
 4716POPC   GL261514   6.542  25.722   5.881
 4716POPC   C1A61515   6.793  26.103   6.216
 4716POPC   D2A61516   6.609  26.145   6.609
 4716POPC   C3A61517   6.711  26.022   7.029
 4716POPC   C4A61518   6.565  26.243   7.368
 4716POPC   C1B61519   6.838  25.620   6.192
 4716POPC   C2B61520   6.810  25.663   6.650
 4716POPC   C3B61521   6.779  25.510   7.085
 4716POPC   C4B61522   6.646  25.463   7.513
 4717POPC   NC361523  25.542  36.223   5.506
 4717POPC   PO461524  24.886  36.460   5.483
 4717POPC   GL161525  25.127  36.237   5.815
 4717POPC   GL261526  25.060  35.871   5.811
 4717POPC   C1A61527  25.416  36.135   6.189
 4717POPC   D2A61528  25.178  36.307   6.562
 4717POPC   C3A61529  25.283  36.215   6.963
 4717POPC   C4A61530  25.368  36.117   7.344
 4717POPC   C1B61531  24.952  35.970   6.247
 4717POPC   C2B61532  25.101  35.812   6.659
 4717POPC   C3B61533  25.252  35.700   7.081
 4717POPC   C4B61534  25.080  35.755   7.574
 4718POPC   NC361535  20.624  23.563   5.351
 4718POPC   PO461536  20.269  24.084   5.412
 4718POPC   GL161537  20.363  23.751   5.768
 4718POPC   GL261538  20.307  23.360   5.696
 4718POPC   C1A61539  20.553  23.808   6.201
 4718POPC   D2A61540  20.356  23.793   6.610
 4718POPC   C3A61541  20.596  23.728   6.983
 4718POPC   C4A61542  20.545  24.004   7.321
 4718POPC   C1B61543  20.592  23.326   6.038
 4718POPC   C2B61544  20.657  23.358   6.497
 4718POPC   C3B61545  20.347  23.315   6.809
 4718POPC   C4B61546  20.328  23.277   7.245
 4719POPC   NC361547  32.637   0.367   5.463
 4719POPC   PO461548  32.003   0.514   5.322
 4719POPC   GL161549  32.168   0.439   5.749
 4719POPC   GL261550  32.403   0.717   5.780
 4719POPC   C1A61551  32.037   0.239   6.159
 4719POPC   D2A61552  31.758   0.157   6.530
 4719POPC   C3A61553  31.952   0.204   6.906
 4719POPC   C4A61554  32.269   0.437   7.102
 4719POPC   C1B61555  32.146   0.745   6.193
 4719POPC   C2B61556  32.026   0.650   6.645
 4719POPC   C3B61557  31.926   0.807   7.064
 4719POPC   C4B61558  31.977   1.062   7.449
 4720POPC   NC361559  22.930  14.815   5.564
 4720POPC   PO461560  22.900  14.221   5.268
 4720POPC   GL161561  22.938  14.196   5.757
 4720POPC   GL261562  23.279  14.181   5.853
 4720POPC   C1A61563  22.802  14.304   6.203
 4720POPC   D2A61564  22.804  14.690   6.515
 4720POPC   C3A61565  22.951  14.626   6.942
 4720POPC   C4A61566  22.730  14.334   7.216
 4720POPC   C1B61567  23.235  14.033   6.281
 4720POPC   C2B61568  23.268  14.203   6.712
 4720POPC   C3B61569  23.207  14.185   7.173
 4720POPC   C4B61570  23.344  14.223   7.617
 4721POPC   NC361571   1.189  37.210   5.140
 4721POPC   PO461572   1.521  36.718   5.500
 4721POPC   GL161573   1.271  36.892   5.786
 4721POPC   GL261574   1.151  37.219   5.728
 4721POPC   C1A61575   1.407  36.955   6.204
 4721POPC   D2A61576   1.636  37.002   6.609
 4721POPC   C3A61577   1.349  36.882   6.921
 4721POPC   C4A61578   1.432  36.725   7.336
 4721POPC   C1B61579   0.872  37.063   6.068
 4721POPC   C2B61580   0.783  36.971   6.498
 4721POPC   C3B61581   0.870  37.152   6.893
 4721POPC   C4B61582   1.036  37.042   7.292
 4722POPC   NC361583  29.444  11.093   5.640
 4722POPC   PO461584  28.991  11.463   5.234
 4722POPC   GL161585  29.039  11.409   5.648
 4722POPC   GL261586  28.933  11.089   5.687
 4722POPC   C1A61587  29.132  11.420   6.098
 4722POPC   D2A61588  29.406  11.253   6.414
 4722POPC   C3A61589  29.308  11.327   6.822
 4722POPC   C4A61590  29.360  11.219   7.225
 4722POPC   C1B61591  28.942  10.895   6.084
 4722POPC   C2B61592  28.973  10.909   6.514
 4722POPC   C3B61593  29.168  10.835   6.883
 4722POPC   C4B61594  29.013  10.855   7.254
 4723POPC   NC361595   0.494  41.118   5.379
 4723POPC   PO461596   0.243  40.463   5.548
 4723POPC   GL161597   0.396  40.796   5.799
 4723POPC   GL261598   0.142  41.068   5.783
 4723POPC   C1A61599   0.507  40.861   6.241
 4723POPC   D2A61600   0.281  40.775   6.608
 4723POPC   C3A61601   0.475  40.730   6.993
 4723POPC   C4A61602   0.179  40.850   7.217
 4723POPC   C1B61603   0.427  41.323   6.037
 4723POPC   C2B61604   0.431  41.382   6.487
 4723POPC   C3B61605   0.365  41.224   6.916
 4723POPC   C4B61606   0.640  41.165   7.303
 4724POPC   NC361607   2.445  12.255   5.360
 4724POPC   PO461608   1.795  11.960   5.355
 4724POPC   GL161609   1.868  12.061   5.774
 4724POPC   GL261610   2.219  12.181   5.830
 4724POPC   C1A61611   1.737  11.919   6.169
 4724POPC   D2A61612   1.933  11.814   6.564
 4724POPC   C3A61613   1.813  11.995   6.928
 4724POPC   C4A61614   1.735  11.938   7.332
 4724POPC   C1B61615   2.280  12.052   6.255
 4724POPC   C2B61616   2.410  12.090   6.689
 4724POPC   C3B61617   2.310  12.133   7.123
 4724POPC   C4B61618   2.238  12.224   7.544
 4725POPC   NC361619  12.880  31.166   5.320
 4725POPC   PO461620  12.840  30.509   5.349
 4725POPC   GL161621  12.723  30.717   5.737
 4725POPC   GL261622  12.684  31.075   5.782
 4725POPC   C1A61623  12.884  30.778   6.153
 4725POPC   D2A61624  13.162  30.599   6.457
 4725POPC   C3A61625  12.946  30.644   6.815
 4725POPC   C4A61626  12.760  30.586   7.193
 4725POPC   C1B61627  12.506  31.163   6.199
 4725POPC   C2B61628  12.578  30.987   6.632
 4725POPC   C3B61629  12.438  31.022   7.080
 4725POPC   C4B61630  12.432  30.812   7.510
 4726POPC   NC361631  26.425  35.660   5.469
 4726POPC   PO461632  26.063  35.092   5.426
 4726POPC   GL161633  25.965  35.351   5.821
 4726POPC   GL261634  26.128  35.677   5.877
 4726POPC   C1A61635  25.826  35.478   6.240
 4726POPC   D2A61636  25.993  35.319   6.635
 4726POPC   C3A61637  25.792  35.488   7.047
 4726POPC   C4A61638  25.928  35.316   7.453
 4726POPC   C1B61639  26.340  35.505   6.218
 4726POPC   C2B61640  26.482  35.520   6.627
 4726POPC   C3B61641  26.288  35.482   7.024
 4726POPC   C4B61642  26.140  35.766   7.359
 4727POPC   NC361643   8.184  17.340   5.445
 4727POPC   PO461644   7.923  18.000   5.499
 4727POPC   GL161645   8.154  17.786   5.864
 4727POPC   GL261646   8.349  17.468   5.890
 4727POPC   C1A61647   8.312  17.746   6.309
 4727POPC   D2A61648   8.300  17.748   6.781
 4727POPC   C3A61649   8.091  17.406   7.002
 4727POPC   C4A61650   7.947  17.511   7.417
 4727POPC   C1B61651   8.552  17.259   6.183
 4727POPC   C2B61652   8.427  17.288   6.584
 4727POPC   C3B61653   8.622  17.374   6.959
 4727POPC   C4B61654   8.455  17.522   7.323
 4728POPC   NC361655  16.284  30.067   5.662
 4728POPC   PO461656  16.764  29.696   5.430
 4728POPC   GL161657  16.913  29.838   5.833
 4728POPC   GL261658  17.194  30.064   5.833
 4728POPC   C1A61659  16.821  30.018   6.252
 4728POPC   D2A61660  16.608  30.185   6.668
 4728POPC   C3A61661  16.590  29.947   7.070
 4728POPC   C4A61662  16.532  29.491   7.134
 4728POPC   C1B61663  17.295  30.202   6.199
 4728POPC   C2B61664  17.145  30.288   6.568
 4728POPC   C3B61665  17.319  30.287   6.931
 4728POPC   C4B61666  17.089  30.039   7.191
 4729POPC   NC361667  11.829  15.606   5.466
 4729POPC   PO461668  12.225  15.048   5.413
 4729POPC   GL161669  12.115  15.236   5.786
 4729POPC   GL261670  12.369  15.038   5.958
 4729POPC   C1A61671  11.938  15.391   6.196
 4729POPC   D2A61672  11.607  15.432   6.531
 4729POPC   C3A61673  11.741  15.536   6.921
 4729POPC   C4A61674  11.991  15.440   7.247
 4729POPC   C1B61675  11.946  14.861   6.134
 4729POPC   C2B61676  11.789  14.937   6.559
 4729POPC   C3B61677  12.061  15.044   6.922
 4729POPC   C4B61678  11.959  14.911   7.366
 4730POPC   NC361679   6.424   8.898   5.417
 4730POPC   PO461680   6.916   8.492   5.625
 4730POPC   GL161681   6.631   8.761   5.869
 4730POPC   GL261682   6.612   9.147   5.825
 4730POPC   C1A61683   6.635   8.860   6.300
 4730POPC   D2A61684   6.707   9.133   6.659
 4730POPC   C3A61685   6.592   8.927   7.047
 4730POPC   C4A61686   6.499   8.501   7.186
 4730POPC   C1B61687   6.414   9.480   6.073
 4730POPC   C2B61688   6.273   9.448   6.486
 4730POPC   C3B61689   6.330   9.400   6.908
 4730POPC   C4B61690   6.380   9.295   7.325
 4731POPC   NC361691  31.892  24.679   5.309
 4731POPC   PO461692  31.275  24.962   5.332
 4731POPC   GL161693  31.254  24.764   5.727
 4731POPC   GL261694  31.612  24.712   5.816
 4731POPC   C1A61695  31.166  24.664   6.154
 4731POPC   D2A61696  31.021  24.361   6.455
 4731POPC   C3A61697  31.137  24.466   6.870
 4731POPC   C4A61698  31.279  24.582   7.265
 4731POPC   C1B61699  31.666  24.417   6.189
 4731POPC   C2B61700  31.607  24.467   6.639
 4731POPC   C3B61701  31.666  24.312   7.049
 4731POPC   C4B61702  31.738  24.458   7.457
 4732POPC   NC361703  19.557  36.634   5.525
 4732POPC   PO461704  20.183  36.970   5.533
 4732POPC   GL161705  19.971  36.788   5.851
 4732POPC   GL261706  19.983  36.445   5.778
 4732POPC   C1A61707  19.816  36.928   6.255
 4732POPC   D2A61708  19.889  37.256   6.543
 4732POPC   C3A61709  19.783  37.159   6.951
 4732POPC   C4A61710  20.007  37.018   7.311
 4732POPC   C1B61711  19.942  36.420   6.220
 4732POPC   C2B61712  19.707  36.455   6.624
 4732POPC   C3B61713  19.742  36.671   7.023
 4732POPC   C4B61714  19.741  36.611   7.480
 4733POPC   NC361715  23.511  16.159   5.393
 4733POPC   PO461716  24.076  15.730   5.444
 4733POPC   GL161717  24.039  15.930   5.837
 4733POPC   GL261718  23.702  16.025   5.834
 4733POPC   C1A61719  23.955  16.075   6.264
 4733POPC   D2A61720  24.115  15.935   6.628
 4733POPC   C3A61721  23.879  16.082   6.942
 4733POPC   C4A61722  23.915  15.935   7.317
 4733POPC   C1B61723  23.480  16.222   6.157
 4733POPC   C2B61724  23.504  16.027   6.567
 4733POPC   C3B61725  23.335  15.931   6.994
 4733POPC   C4B61726  23.436  15.964   7.436
 4734POPC   NC361727  44.701  43.456   5.245
 4734POPC   PO461728  44.781  44.101   5.322
 4734POPC   GL161729  44.708  43.951   5.735
 4734POPC   GL261730  44.355  44.008   5.859
 4734POPC   C1A61731  44.682  43.623   6.018
 4734POPC   D2A61732  44.662  43.523   6.489
 4734POPC   C3A61733  44.685  43.788   6.860
 4734POPC   C4A61734  44.807  43.650   7.273
 4734POPC   C1B61735  44.572  44.030   6.281
 4734POPC   C2B61736  44.324  44.066   6.628
 4734POPC   C3B61737  44.086  44.080   6.999
 4734POPC   C4B61738  44.190  44.036   7.428
 4735POPC   NC361739   2.267  20.812   5.517
 4735POPC   PO461740   2.902  20.451   5.471
 4735POPC   GL161741   2.913  20.666   5.840
 4735POPC   GL261742   2.550  20.664   5.909
 4735POPC   C1A61743   3.002  20.636   6.267
 4735POPC   D2A61744   2.759  20.480   6.616
 4735POPC   C3A61745   2.949  20.591   7.022
 4735POPC   C4A61746   2.845  20.413   7.415
 4735POPC   C1B61747   2.606  20.973   6.199
 4735POPC   C2B61748   2.793  20.991   6.591
 4735POPC   C3B61749   2.594  20.963   6.960
 4735POPC   C4B61750   2.803  21.036   7.285
 4736POPC   NC361751  44.848  11.657   5.454
 4736POPC   PO461752  44.417  11.239   5.420
 4736POPC   GL161753  44.660  11.296   5.814
 4736POPC   GL261754  44.989  11.465   5.918
 4736POPC   C1A61755  44.638  11.153   6.236
 4736POPC   D2A61756  44.715  11.445   6.579
 4736POPC   C3A61757  44.598  11.292   6.981
 4736POPC   C4A61758  44.590  11.351   7.443
 4736POPC   C1B61759   0.123  11.270   6.311
 4736POPC   C2B61760   0.072  11.135   6.756
 4736POPC   C3B61761   0.016  11.099   7.210
 4736POPC   C4B61762   0.053  11.241   7.623
 4737POPC   NC361763  15.489  40.251   5.394
 4737POPC   PO461764  16.136  39.941   5.397
 4737POPC   GL161765  16.075  40.173   5.767
 4737POPC   GL261766  15.771  40.003   5.800
 4737POPC   C1A61767  15.904  40.325   6.169
 4737POPC   D2A61768  15.647  40.179   6.542
 4737POPC   C3A61769  15.871  40.195   6.963
 4737POPC   C4A61770  16.128  40.161   7.339
 4737POPC   C1B61771  15.829  39.804   6.204
 4737POPC   C2B61772  15.927  39.769   6.630
 4737POPC   C3B61773  16.017  39.715   7.067
 4737POPC   C4B61774  16.075  39.664   7.498
 4738POPC   NC361775  34.947  34.517   5.344
 4738POPC   PO461776  35.540  34.614   5.295
 4738POPC   GL161777  35.393  34.609   5.716
 4738POPC   GL261778  35.657  34.815   5.835
 4738POPC   C1A61779  35.206  34.442   6.108
 4738POPC   D2A61780  35.344  34.259   6.507
 4738POPC   C3A61781  35.167  34.431   6.899
 4738POPC   C4A61782  35.241  34.569   7.318
 4738POPC   C1B61783  35.425  34.894   6.201
 4738POPC   C2B61784  35.505  34.753   6.594
 4738POPC   C3B61785  35.500  34.863   7.000
 4738POPC   C4B61786  35.364  35.076   7.349
 4739POPC   NC361787  18.933  34.210   5.594
 4739POPC   PO461788  19.241  34.677   5.155
 4739POPC   GL161789  19.239  34.713   5.636
 4739POPC   GL261790  19.293  34.440   5.866
 4739POPC   C1A61791  19.187  34.900   6.085
 4739POPC   D2A61792  19.090  34.729   6.524
 4739POPC   C3A61793  19.150  34.895   6.946
 4739POPC   C4A61794  19.015  34.702   7.343
 4739POPC   C1B61795  19.160  34.273   6.260
 4739POPC   C2B61796  19.241  34.258   6.669
 4739POPC   C3B61797  18.957  34.404   6.936
 4739POPC   C4B61798  19.206  34.243   7.235
 4740POPC   NC361799  11.565  43.457   5.111
 4740POPC   PO461800  11.064  43.926   5.243
 4740POPC   GL161801  11.242  43.926   5.670
 4740POPC   GL261802  11.512  43.654   5.669
 4740POPC   C1A61803  11.064  44.003   6.089
 4740POPC   D2A61804  11.270  44.003   6.501
 4740POPC   C3A61805  11.074  44.155   6.859
 4740POPC   C4A61806  11.131  44.033   7.298
 4740POPC   C1B61807  11.428  43.664   6.137
 4740POPC   C2B61808  11.289  43.506   6.555
 4740POPC   C3B61809  11.218  43.667   6.939
 4740POPC   C4B61810  11.385  43.534   7.300
 4741POPC   NC361811  32.476  27.115   5.370
 4741POPC   PO461812  32.007  27.485   5.430
 4741POPC   GL161813  32.267  27.484   5.777
 4741POPC   GL261814  32.180  27.846   5.789
 4741POPC   C1A61815  32.329  27.612   6.208
 4741POPC   D2A61816  32.177  27.657   6.602
 4741POPC   C3A61817  32.539  27.634   6.835
 4741POPC   C4A61818  32.516  27.330   7.151
 4741POPC   C1B61819  31.841  27.829   6.097
 4741POPC   C2B61820  31.728  27.976   6.503
 4741POPC   C3B61821  31.760  27.791   6.882
 4741POPC   C4B61822  32.080  27.610   7.145
 4742POPC   NC361823  29.015  40.616   5.315
 4742POPC   PO461824  29.462  40.201   5.426
 4742POPC   GL161825  29.278  40.445   5.783
 4742POPC   GL261826  29.256  40.818   5.795
 4742POPC   C1A61827  29.161  40.558   6.235
 4742POPC   D2A61828  29.295  40.762   6.638
 4742POPC   C3A61829  29.265  40.586   7.058
 4742POPC   C4A61830  29.418  40.667   7.481
 4742POPC   C1B61831  29.484  40.979   6.204
 4742POPC   C2B61832  29.531  41.215   6.639
 4742POPC   C3B61833  29.489  41.047   7.078
 4742POPC   C4B61834  29.435  41.270   7.479
 4743POPC   NC361835   7.779  43.303   5.476
 4743POPC   PO461836   8.406  43.085   5.306
 4743POPC   GL161837   8.203  43.043   5.718
 4743POPC   GL261838   8.535  42.948   5.828
 4743POPC   C1A61839   7.975  43.196   6.125
 4743POPC   D2A61840   8.154  43.200   6.560
 4743POPC   C3A61841   8.062  43.423   6.943
 4743POPC   C4A61842   7.901  43.251   7.319
 4743POPC   C1B61843   8.310  42.811   6.210
 4743POPC   C2B61844   8.380  42.744   6.646
 4743POPC   C3B61845   8.303  42.984   7.026
 4743POPC   C4B61846   8.566  42.977   7.386
 4744POPC   NC361847  43.901  44.762   5.396
 4744POPC   PO461848  43.766  44.140   5.467
 4744POPC   GL161849  43.989  44.421   5.784
 4744POPC   GL261850  44.172  44.770   5.810
 4744POPC   C1A61851  43.841  44.601   6.169
 4744POPC   D2A61852  43.909  44.381   6.550
 4744POPC   C3A61853  43.752  44.558   6.910
 4744POPC   C4A61854  43.921  44.509   7.324
 4744POPC   C1B61855  44.260  44.945   6.208
 4744POPC   C2B61856  44.053  44.880   6.594
 4744POPC   C3B61857  44.178  44.809   6.999
 4744POPC   C4B61858  44.052  44.997   7.384
 4745POPC   NC361859  37.430  35.061   5.704
 4745POPC   PO461860  37.497  35.562   5.250
 4745POPC   GL161861  37.569  35.578   5.725
 4745POPC   GL261862  37.870  35.359   5.784
 4745POPC   C1A61863  37.580  35.443   6.203
 4745POPC   D2A61864  37.859  35.424   6.541
 4745POPC   C3A61865  37.705  35.570   6.949
 4745POPC   C4A61866  37.466  35.295   7.233
 4745POPC   C1B61867  37.956  35.051   6.156
 4745POPC   C2B61868  37.916  34.906   6.600
 4745POPC   C3B61869  37.888  35.096   7.017
 4745POPC   C4B61870  37.842  34.998   7.476
 4746POPC   NC361871  39.265  36.608   5.600
 4746POPC   PO461872  39.509  37.314   5.484
 4746POPC   GL161873  39.291  37.174   5.864
 4746POPC   GL261874  39.016  36.944   5.881
 4746POPC   C1A61875  39.299  37.083   6.301
 4746POPC   D2A61876  39.523  37.099   6.676
 4746POPC   C3A61877  39.291  37.033   7.046
 4746POPC   C4A61878  39.592  36.921   7.323
 4746POPC   C1B61879  38.848  36.770   6.233
 4746POPC   C2B61880  38.936  36.876   6.637
 4746POPC   C3B61881  38.843  36.777   7.041
 4746POPC   C4B61882  38.988  36.837   7.464
 4747POPC   NC361883  34.293  12.489   5.665
 4747POPC   PO461884  34.708  12.020   5.262
 4747POPC   GL161885  34.699  12.063   5.726
 4747POPC   GL261886  34.469  11.822   5.878
 4747POPC   C1A61887  34.666  12.184   6.183
 4747POPC   D2A61888  34.796  12.294   6.607
 4747POPC   C3A61889  34.546  12.368   6.971
 4747POPC   C4A61890  34.440  12.405   7.410
 4747POPC   C1B61891  34.148  11.936   6.167
 4747POPC   C2B61892  34.204  12.008   6.578
 4747POPC   C3B61893  34.486  11.840   6.849
 4747POPC   C4B61894  34.500  11.931   7.265
 4748POPC   NC361895  41.368  38.428   5.463
 4748POPC   PO461896  40.658  38.552   5.389
 4748POPC   GL161897  40.783  38.400   5.761
 4748POPC   GL261898  40.449  38.388   5.902
 4748POPC   C1A61899  40.926  38.351   6.181
 4748POPC   D2A61900  40.791  38.543   6.563
 4748POPC   C3A61901  40.828  38.311   6.922
 4748POPC   C4A61902  41.056  38.319   7.285
 4748POPC   C1B61903  40.452  38.186   6.329
 4748POPC   C2B61904  40.308  38.250   6.752
 4748POPC   C3B61905  40.350  38.213   7.179
 4748POPC   C4B61906  40.601  38.477   7.449
 4749POPC   NC361907   6.940  38.751   5.371
 4749POPC   PO461908   6.645  38.193   5.171
 4749POPC   GL161909   6.672  38.385   5.619
 4749POPC   GL261910   6.393  38.531   5.804
 4749POPC   C1A61911   6.746  38.284   6.076
 4749POPC   D2A61912   6.949  38.118   6.470
 4749POPC   C3A61913   7.029  38.464   6.775
 4749POPC   C4A61914   7.023  38.441   7.233
 4749POPC   C1B61915   6.211  38.172   6.058
 4749POPC   C2B61916   6.079  38.140   6.525
 4749POPC   C3B61917   6.302  38.174   6.946
 4749POPC   C4B61918   6.506  38.453   7.223
 4750POPC   NC361919  33.401  16.013   5.569
 4750POPC   PO461920  34.017  16.289   5.424
 4750POPC   GL161921  33.868  16.054   5.772
 4750POPC   GL261922  33.843  15.693   5.625
 4750POPC   C1A61923  33.732  16.056   6.207
 4750POPC   D2A61924  33.847  16.152   6.624
 4750POPC   C3A61925  33.755  15.938   6.992
 4750POPC   C4A61926  33.751  16.104   7.458
 4750POPC   C1B61927  33.997  15.618   6.049
 4750POPC   C2B61928  34.113  15.731   6.486
 4750POPC   C3B61929  34.057  15.530   6.882
 4750POPC   C4B61930  34.026  15.676   7.301
 4751POPC   NC361931  34.178  33.174   5.497
 4751POPC   PO461932  34.791  32.955   5.508
 4751POPC   GL161933  34.679  32.955   5.946
 4751POPC   GL261934  34.527  33.278   6.090
 4751POPC   C1A61935  34.792  32.992   6.391
 4751POPC   D2A61936  34.508  33.198   6.652
 4751POPC   C3A61937  34.412  32.939   6.976
 4751POPC   C4A61938  34.727  32.647   7.125
 4751POPC   C1B61939  34.620  33.632   6.385
 4751POPC   C2B61940  34.849  33.553   6.777
 4751POPC   C3B61941  34.649  33.510   7.193
 4751POPC   C4B61942  34.742  33.445   7.635
 4752POPC   NC361943  30.115  44.417   5.602
 4752POPC   PO461944  29.726   0.069   5.557
 4752POPC   GL161945  29.904  44.852   5.923
 4752POPC   GL261946  30.202  44.630   6.038
 4752POPC   C1A61947  29.789  44.704   6.332
 4752POPC   D2A61948  29.918  44.470   6.668
 4752POPC   C3A61949  29.677  44.534   6.961
 4752POPC   C4A61950  29.813  44.935   7.058
 4752POPC   C1B61951  30.255  44.937   6.327
 4752POPC   C2B61952  30.299  44.824   6.735
 4752POPC   C3B61953  30.382  44.425   6.883
 4752POPC   C4B61954  30.127  44.558   7.213
 4753POPC   NC361955  32.783  28.202   5.404
 4753POPC   PO461956  33.069  28.846   5.515
 4753POPC   GL161957  32.992  28.490   5.849
 4753POPC   GL261958  32.876  28.119   5.892
 4753POPC   C1A61959  32.904  28.436   6.307
 4753POPC   D2A61960  32.690  28.788   6.519
 4753POPC   C3A61961  32.763  28.780   6.950
 4753POPC   C4A61962  33.040  28.468   7.042
 4753POPC   C1B61963  32.791  27.923   6.310
 4753POPC   C2B61964  32.810  28.091   6.733
 4753POPC   C3B61965  32.974  27.982   7.154
 4753POPC   C4B61966  32.814  28.106   7.584
 4754POPC   NC361967  30.966  44.941   5.558
 4754POPC   PO461968  30.588   0.571   5.484
 4754POPC   GL161969  30.590   0.309   5.874
 4754POPC   GL261970  30.907   0.294   5.900
 4754POPC   C1A61971  30.677   0.218   6.334
 4754POPC   D2A61972  30.414   0.313   6.673
 4754POPC   C3A61973  30.506   0.207   7.096
 4754POPC   C4A61974  30.490   0.380   7.527
 4754POPC   C1B61975  30.891   0.666   6.195
 4754POPC   C2B61976  30.714   0.725   6.621
 4754POPC   C3B61977  30.624   0.709   7.083
 4754POPC   C4B61978  30.707   0.826   7.524
 4755POPC   NC361979   7.605  25.463   5.380
 4755POPC   PO461980   6.979  25.249   5.154
 4755POPC   GL161981   7.215  25.177   5.629
 4755POPC   GL261982   7.591  25.204   5.796
 4755POPC   C1A61983   7.219  25.312   6.093
 4755POPC   D2A61984   7.265  25.490   6.506
 4755POPC   C3A61985   7.219  25.293   6.916
 4755POPC   C4A61986   7.327  25.220   7.378
 4755POPC   C1B61987   7.673  25.534   6.142
 4755POPC   C2B61988   7.751  25.604   6.598
 4755POPC   C3B61989   7.659  25.537   7.046
 4755POPC   C4B61990   7.851  25.298   7.358
 4756POPC   NC361991  31.020  27.734   5.573
 4756POPC   PO461992  30.395  27.880   5.444
 4756POPC   GL161993  30.592  27.580   5.793
 4756POPC   GL261994  30.444  27.284   5.896
 4756POPC   C1A61995  30.704  27.574   6.247
 4756POPC   D2A61996  30.875  27.499   6.644
 4756POPC   C3A61997  30.779  27.696   7.022
 4756POPC   C4A61998  31.022  27.513   7.375
 4756POPC   C1B61999  30.804  27.105   6.107
 4756POPC   C2B62000  30.544  27.080   6.474
 4756POPC   C3B62001  30.424  27.180   6.878
 4756POPC   C4B62002  30.535  27.331   7.274
 4757POPC   NC362003  19.860  32.700   5.243
 4757POPC   PO462004  20.158  32.036   5.282
 4757POPC   GL162005  20.006  32.339   5.564
 4757POPC   GL262006  19.677  32.314   5.627
 4757POPC   C1A62007  20.010  32.352   6.029
 4757POPC   D2A62008  19.777  32.352   6.404
 4757POPC   C3A62009  19.853  32.133   6.766
 4757POPC   C4A62010  20.004  32.375   7.074
 4757POPC   C1B62011  19.585  32.053   6.001
 4757POPC   C2B62012  19.383  32.019   6.407
 4757POPC   C3B62013  19.358  31.956   6.857
 4757POPC   C4B62014  19.672  31.833   7.167
 4758POPC   NC362015  39.607  28.170   5.254
 4758POPC   PO462016  40.291  28.244   5.305
 4758POPC   GL162017  39.989  28.317   5.648
 4758POPC   GL262018  39.839  27.970   5.664
 4758POPC   C1A62019  40.120  28.494   6.085
 4758POPC   D2A62020  40.050  28.370   6.514
 4758POPC   C3A62021  40.191  28.553   6.926
 4758POPC   C4A62022  39.963  28.424   7.322
 4758POPC   C1B62023  39.898  28.029   6.109
 4758POPC   C2B62024  39.718  28.000   6.532
 4758POPC   C3B62025  39.910  28.075   6.926
 4758POPC   C4B62026  40.024  27.931   7.357
 4759POPC   NC362027  16.113  41.896   5.553
 4759POPC   PO462028  15.658  41.434   5.377
 4759POPC   GL162029  15.779  41.589   5.786
 4759POPC   GL262030  16.105  41.584   5.970
 4759POPC   C1A62031  15.684  41.700   6.204
 4759POPC   D2A62032  15.936  41.617   6.548
 4759POPC   C3A62033  15.746  41.817   6.829
 4759POPC   C4A62034  15.681  41.684   7.205
 4759POPC   C1B62035  16.392  41.704   6.309
 4759POPC   C2B62036  16.426  41.708   6.715
 4759POPC   C3B62037  16.195  41.632   7.057
 4759POPC   C4B62038  16.335  41.384   7.400
 4760POPC   NC362039   3.556  21.823   5.456
 4760POPC   PO462040   3.152  21.283   5.378
 4760POPC   GL162041   3.329  21.466   5.762
 4760POPC   GL262042   3.065  21.637   5.886
 4760POPC   C1A62043   3.605  21.374   6.146
 4760POPC   D2A62044   3.492  21.383   6.610
 4760POPC   C3A62045   3.744  21.335   7.012
 4760POPC   C4A62046   3.658  21.279   7.468
 4760POPC   C1B62047   3.315  21.781   6.226
 4760POPC   C2B62048   3.428  21.916   6.624
 4760POPC   C3B62049   3.351  21.732   7.020
 4760POPC   C4B62050   3.476  21.734   7.466
 4761POPC   NC362051   5.589  35.696   5.246
 4761POPC   PO462052   4.889  35.537   5.371
 4761POPC   GL162053   5.234  35.548   5.707
 4761POPC   GL262054   5.408  35.194   5.712
 4761POPC   C1A62055   5.106  35.604   6.170
 4761POPC   D2A62056   4.852  35.301   6.437
 4761POPC   C3A62057   5.014  35.124   6.839
 4761POPC   C4A62058   4.893  35.263   7.248
 4761POPC   C1B62059   5.334  35.129   6.168
 4761POPC   C2B62060   5.375  35.363   6.548
 4761POPC   C3B62061   5.486  35.333   6.960
 4761POPC   C4B62062   5.401  35.075   7.322
 4762POPC   NC362063  39.485  20.718   5.399
 4762POPC   PO462064  39.200  20.173   5.710
 4762POPC   GL162065  39.378  20.536   5.869
 4762POPC   GL262066  39.094  20.766   5.791
 4762POPC   C1A62067  39.505  20.509   6.277
 4762POPC   D2A62068  39.218  20.317   6.539
 4762POPC   C3A62069  39.377  20.423   6.896
 4762POPC   C4A62070  39.401  20.726   7.161
 4762POPC   C1B62071  39.054  20.737   6.231
 4762POPC   C2B62072  38.862  20.686   6.614
 4762POPC   C3B62073  38.938  20.881   6.962
 4762POPC   C4B62074  38.764  20.835   7.362
 4763POPC   NC362075   4.676  33.639   5.553
 4763POPC   PO462076   5.254  33.934   5.430
 4763POPC   GL162077   5.325  33.785   5.828
 4763POPC   GL262078   5.073  33.585   5.857
 4763POPC   C1A62079   5.164  33.922   6.237
 4763POPC   D2A62080   4.930  33.914   6.603
 4763POPC   C3A62081   5.242  34.067   6.857
 4763POPC   C4A62082   5.284  34.195   7.250
 4763POPC   C1B62083   5.264  33.421   6.233
 4763POPC   C2B62084   5.317  33.574   6.661
 4763POPC   C3B62085   4.988  33.566   7.006
 4763POPC   C4B62086   5.142  33.354   7.387
 4764POPC   NC362087  19.859   0.688   5.374
 4764POPC   PO462088  20.028   0.041   5.363
 4764POPC   GL162089  19.937   0.319   5.756
 4764POPC   GL262090  20.070   0.634   5.835
 4764POPC   C1A62091  19.648   0.390   6.133
 4764POPC   D2A62092  19.758   0.293   6.576
 4764POPC   C3A62093  19.583   0.522   6.917
 4764POPC   C4A62094  19.654   0.635   7.353
 4764POPC   C1B62095  20.134   0.510   6.251
 4764POPC   C2B62096  20.068   0.667   6.678
 4764POPC   C3B62097  20.088   0.499   7.106
 4764POPC   C4B62098  20.422   0.572   7.436
 4765POPC   NC362099   5.097  20.958   5.507
 4765POPC   PO462100   5.343  20.305   5.365
 4765POPC   GL162101   5.201  20.376   5.774
 4765POPC   GL262102   4.890  20.582   5.815
 4765POPC   C1A62103   5.357  20.502   6.175
 4765POPC   D2A62104   5.294  20.836   6.497
 4765POPC   C3A62105   5.199  20.723   6.917
 4765POPC   C4A62106   5.091  20.719   7.336
 4765POPC   C1B62107   4.847  20.646   6.267
 4765POPC   C2B62108   4.694  20.651   6.683
 4765POPC   C3B62109   4.654  20.791   7.075
 4765POPC   C4B62110   4.524  20.739   7.503
 4766POPC   NC362111  32.524  25.022   5.383
 4766POPC   PO462112  32.273  24.419   5.330
 4766POPC   GL162113  32.224  24.725   5.692
 4766POPC   GL262114  32.519  24.856   5.861
 4766POPC   C1A62115  32.043  24.769   6.098
 4766POPC   D2A62116  32.153  24.550   6.479
 4766POPC   C3A62117  32.039  24.646   6.916
 4766POPC   C4A62118  32.172  24.338   7.222
 4766POPC   C1B62119  32.491  24.929   6.299
 4766POPC   C2B62120  32.486  24.862   6.747
 4766POPC   C3B62121  32.520  24.687   7.137
 4766POPC   C4B62122  32.544  24.529   7.535
 4767POPC   NC362123   8.357  19.030   5.330
 4767POPC   PO462124   8.732  18.535   5.642
 4767POPC   GL162125   8.425  18.876   5.821
 4767POPC   GL262126   8.062  18.965   5.773
 4767POPC   C1A62127   8.367  19.163   6.182
 4767POPC   D2A62128   8.384  19.061   6.625
 4767POPC   C3A62129   8.227  19.162   7.043
 4767POPC   C4A62130   8.160  18.897   7.428
 4767POPC   C1B62131   7.863  19.249   6.110
 4767POPC   C2B62132   7.940  19.322   6.578
 4767POPC   C3B62133   7.753  19.379   7.006
 4767POPC   C4B62134   7.906  19.338   7.438
 4768POPC   NC362135  17.177  22.695   5.699
 4768POPC   PO462136  17.423  23.148   5.280
 4768POPC   GL162137  17.504  23.078   5.744
 4768POPC   GL262138  17.716  22.808   5.850
 4768POPC   C1A62139  17.394  22.958   6.226
 4768POPC   D2A62140  17.548  23.050   6.625
 4768POPC   C3A62141  17.264  22.920   6.937
 4768POPC   C4A62142  17.119  23.042   7.308
 4768POPC   C1B62143  17.895  23.098   6.205
 4768POPC   C2B62144  18.037  22.935   6.645
 4768POPC   C3B62145  17.771  22.788   7.029
 4768POPC   C4B62146  17.607  22.988   7.442
 4769POPC   NC362147  15.583  27.940   5.611
 4769POPC   PO462148  15.201  27.498   5.269
 4769POPC   GL162149  15.191  27.489   5.737
 4769POPC   GL262150  14.944  27.715   5.775
 4769POPC   C1A62151  15.294  27.655   6.150
 4769POPC   D2A62152  15.269  27.557   6.573
 4769POPC   C3A62153  15.415  27.756   6.955
 4769POPC   C4A62154  15.203  27.615   7.303
 4769POPC   C1B62155  14.846  27.437   6.161
 4769POPC   C2B62156  14.960  27.135   6.507
 4769POPC   C3B62157  15.095  27.245   6.943
 4769POPC   C4B62158  14.764  27.355   7.204
 4770POPC   NC362159  22.025  28.935   5.183
 4770POPC   PO462160  22.437  29.499   5.251
 4770POPC   GL162161  22.285  29.223   5.653
 4770POPC   GL262162  21.940  29.051   5.685
 4770POPC   C1A62163  22.311  29.226   6.149
 4770POPC   D2A62164  22.333  29.533   6.518
 4770POPC   C3A62165  22.445  29.413   6.947
 4770POPC   C4A62166  22.216  29.184   7.241
 4770POPC   C1B62167  21.803  29.093   6.127
 4770POPC   C2B62168  21.953  29.161   6.534
 4770POPC   C3B62169  21.848  29.002   6.938
 4770POPC   C4B62170  21.713  28.782   7.284
 4771POPC   NC362171  44.043  38.189   5.349
 4771POPC   PO462172  44.010  38.819   5.336
 4771POPC   GL162173  43.941  38.593   5.735
 4771POPC   GL262174  44.248  38.389   5.807
 4771POPC   C1A62175  43.812  38.594   6.171
 4771POPC   D2A62176  43.585  38.414   6.523
 4771POPC   C3A62177  43.786  38.586   6.890
 4771POPC   C4A62178  43.715  38.482   7.309
 4771POPC   C1B62179  44.074  38.133   6.150
 4771POPC   C2B62180  44.064  38.229   6.592
 4771POPC   C3B62181  44.211  38.315   6.998
 4771POPC   C4B62182  44.161  38.137   7.393
 4772POPC   NC362183   4.713  10.733   5.373
 4772POPC   PO462184   5.436  10.572   5.411
 4772POPC   GL162185   5.179  10.632   5.774
 4772POPC   GL262186   4.820  10.540   5.874
 4772POPC   C1A62187   5.249  10.449   6.185
 4772POPC   D2A62188   5.496  10.471   6.561
 4772POPC   C3A62189   5.219  10.362   6.893
 4772POPC   C4A62190   5.050  10.538   7.231
 4772POPC   C1B62191   4.613  10.623   6.298
 4772POPC   C2B62192   4.623  10.550   6.766
 4772POPC   C3B62193   4.559  10.620   7.221
 4772POPC   C4B62194   4.385  10.731   7.627
 4773POPC   NC362195  34.638  14.576   5.322
 4773POPC   PO462196  34.360  13.944   5.462
 4773POPC   GL162197  34.568  14.281   5.728
 4773POPC   GL262198  34.340  14.573   5.773
 4773POPC   C1A62199  34.820  14.554   6.031
 4773POPC   D2A62200  34.883  14.761   6.450
 4773POPC   C3A62201  34.938  14.525   6.851
 4773POPC   C4A62202  34.938  14.451   7.284
 4773POPC   C1B62203  34.361  14.394   6.177
 4773POPC   C2B62204  34.564  14.338   6.539
 4773POPC   C3B62205  34.404  14.515   6.897
 4773POPC   C4B62206  34.424  14.434   7.290
 4774POPC   NC362207  41.294  16.886   5.342
 4774POPC   PO462208  41.823  16.598   5.258
 4774POPC   GL162209  41.637  16.746   5.722
 4774POPC   GL262210  41.559  17.117   5.795
 4774POPC   C1A62211  41.304  16.771   6.111
 4774POPC   D2A62212  41.180  16.676   6.586
 4774POPC   C3A62213  41.346  16.739   7.061
 4774POPC   C4A62214  41.371  17.065   7.401
 4774POPC   C1B62215  41.745  16.966   6.223
 4774POPC   C2B62216  41.587  16.969   6.688
 4774POPC   C3B62217  41.796  16.992   7.128
 4774POPC   C4B62218  41.868  16.571   7.331
 4775POPC   NC362219  16.729  20.027   5.399
 4775POPC   PO462220  16.665  19.380   5.306
 4775POPC   GL162221  16.744  19.649   5.768
 4775POPC   GL262222  16.922  19.994   5.858
 4775POPC   C1A62223  16.555  19.877   6.182
 4775POPC   D2A62224  16.736  20.075   6.622
 4775POPC   C3A62225  16.536  19.915   7.009
 4775POPC   C4A62226  16.282  19.595   7.212
 4775POPC   C1B62227  17.090  19.718   6.183
 4775POPC   C2B62228  17.208  19.851   6.619
 4775POPC   C3B62229  17.045  19.833   7.044
 4775POPC   C4B62230  16.979  19.543   7.416
 4776POPC   NC362231   9.390  29.742   5.498
 4776POPC   PO462232  10.071  29.788   5.493
 4776POPC   GL162233   9.805  29.859   5.860
 4776POPC   GL262234   9.606  30.168   5.724
 4776POPC   C1A62235   9.673  29.735   6.331
 4776POPC   D2A62236   9.574  29.519   6.720
 4776POPC   C3A62237   9.635  29.809   7.054
 4776POPC   C4A62238   9.675  29.693   7.470
 4776POPC   C1B62239   9.626  30.225   6.175
 4776POPC   C2B62240   9.734  30.202   6.611
 4776POPC   C3B62241   9.882  30.271   7.017
 4776POPC   C4B62242   9.790  30.248   7.441
 4777POPC   NC362243  34.985   2.341   5.702
 4777POPC   PO462244  34.476   2.590   5.335
 4777POPC   GL162245  34.504   2.575   5.761
 4777POPC   GL262246  34.393   2.246   5.791
 4777POPC   C1A62247  34.671   2.771   6.138
 4777POPC   D2A62248  34.855   2.654   6.536
 4777POPC   C3A62249  34.742   2.724   6.983
 4777POPC   C4A62250  34.383   2.831   7.249
 4777POPC   C1B62251  34.509   2.300   6.260
 4777POPC   C2B62252  34.452   2.385   6.732
 4777POPC   C3B62253  34.472   2.336   7.193
 4777POPC   C4B62254  34.417   2.261   7.623
 4778POPC   NC362255   4.781   5.500   5.353
 4778POPC   PO462256   4.809   4.834   5.344
 4778POPC   GL162257   4.924   5.069   5.726
 4778POPC   GL262258   5.110   4.804   5.901
 4778POPC   C1A62259   4.851   5.210   6.172
 4778POPC   D2A62260   4.843   5.384   6.602
 4778POPC   C3A62261   5.121   5.492   6.939
 4778POPC   C4A62262   4.793   5.417   7.222
 4778POPC   C1B62263   5.322   4.991   6.256
 4778POPC   C2B62264   5.261   5.072   6.688
 4778POPC   C3B62265   5.089   4.985   7.103
 4778POPC   C4B62266   5.273   4.846   7.482
 4779POPC   NC362267  15.023  12.097   5.435
 4779POPC   PO462268  15.570  12.546   5.495
 4779POPC   GL162269  15.287  12.310   5.823
 4779POPC   GL262270  14.914  12.317   5.884
 4779POPC   C1A62271  15.251  12.058   6.209
 4779POPC   D2A62272  15.533  12.163   6.520
 4779POPC   C3A62273  15.365  12.312   6.880
 4779POPC   C4A62274  15.214  12.065   7.204
 4779POPC   C1B62275  14.804  11.887   6.034
 4779POPC   C2B62276  14.801  11.830   6.468
 4779POPC   C3B62277  14.875  12.067   6.814
 4779POPC   C4B62278  14.676  12.052   7.191
 4780POPC   NC362279  34.870  31.085   5.113
 4780POPC   PO462280  34.357  30.591   5.345
 4780POPC   GL162281  34.538  30.769   5.748
 4780POPC   GL262282  34.782  30.528   5.878
 4780POPC   C1A62283  34.582  30.860   6.226
 4780POPC   D2A62284  34.440  30.982   6.665
 4780POPC   C3A62285  34.717  30.938   7.073
 4780POPC   C4A62286  34.580  30.956   7.530
 4780POPC   C1B62287  34.723  30.377   6.296
 4780POPC   C2B62288  34.822  30.559   6.699
 4780POPC   C3B62289  34.803  30.445   7.123
 4780POPC   C4B62290  34.960  30.637   7.472
 4781POPC   NC362291  39.513  27.539   5.597
 4781POPC   PO462292  40.166  27.487   5.512
 4781POPC   GL162293  39.988  27.515   5.887
 4781POPC   GL262294  39.792  27.213   5.880
 4781POPC   C1A62295  40.180  27.636   6.283
 4781POPC   D2A62296  40.292  27.755   6.696
 4781POPC   C3A62297  40.150  27.557   7.070
 4781POPC   C4A62298  40.263  27.494   7.524
 4781POPC   C1B62299  39.561  27.075   6.210
 4781POPC   C2B62300  39.647  26.954   6.632
 4781POPC   C3B62301  39.556  27.153   6.994
 4781POPC   C4B62302  39.860  27.139   7.269
 4782POPC   NC362303   1.982   9.560   5.325
 4782POPC   PO462304   2.374  10.163   5.225
 4782POPC   GL162305   2.124   9.980   5.642
 4782POPC   GL262306   2.129   9.671   5.877
 4782POPC   C1A62307   1.997  10.121   6.094
 4782POPC   D2A62308   1.850   9.955   6.511
 4782POPC   C3A62309   1.995   9.968   6.942
 4782POPC   C4A62310   1.790   9.750   7.291
 4782POPC   C1B62311   2.289   9.623   6.312
 4782POPC   C2B62312   2.316   9.342   6.694
 4782POPC   C3B62313   2.185   9.418   7.142
 4782POPC   C4B62314   2.259   9.617   7.555
 4783POPC   NC362315  37.282   2.217   5.362
 4783POPC   PO462316  36.596   2.145   5.284
 4783POPC   GL162317  36.850   2.062   5.687
 4783POPC   GL262318  37.077   2.304   5.837
 4783POPC   C1A62319  36.833   1.897   6.146
 4783POPC   D2A62320  36.713   2.021   6.586
 4783POPC   C3A62321  36.874   1.782   6.956
 4783POPC   C4A62322  36.717   1.765   7.374
 4783POPC   C1B62323  36.694   2.381   6.062
 4783POPC   C2B62324  36.619   2.539   6.461
 4783POPC   C3B62325  36.595   2.426   6.914
 4783POPC   C4B62326  36.855   2.230   7.224
 4784POPC   NC362327  39.144  40.265   5.509
 4784POPC   PO462328  39.259  39.627   5.747
 4784POPC   GL162329  39.088  40.029   5.954
 4784POPC   GL262330  39.345  40.341   5.963
 4784POPC   C1A62331  39.018  40.249   6.350
 4784POPC   D2A62332  39.094  40.041   6.756
 4784POPC   C3A62333  38.978  40.209   7.173
 4784POPC   C4A62334  39.059  40.356   7.616
 4784POPC   C1B62335  39.585  40.061   6.246
 4784POPC   C2B62336  39.599  39.885   6.668
 4784POPC   C3B62337  39.498  40.111   7.060
 4784POPC   C4B62338  39.342  39.966   7.472
 4785POPC   NC362339  27.794  17.533   5.411
 4785POPC   PO462340  27.273  17.256   5.210
 4785POPC   GL162341  27.451  17.259   5.685
 4785POPC   GL262342  27.547  17.602   5.844
 4785POPC   C1A62343  27.417  17.266   6.174
 4785POPC   D2A62344  27.596  17.469   6.539
 4785POPC   C3A62345  27.569  17.241   6.922
 4785POPC   C4A62346  27.548  17.103   7.354
 4785POPC   C1B62347  27.849  17.727   6.144
 4785POPC   C2B62348  28.066  17.654   6.535
 4785POPC   C3B62349  27.922  17.643   6.949
 4785POPC   C4B62350  27.906  17.887   7.319
 4786POPC   NC362351   5.068  37.052   5.351
 4786POPC   PO462352   4.818  36.474   5.473
 4786POPC   GL162353   5.076  36.744   5.761
 4786POPC   GL262354   4.850  37.026   5.817
 4786POPC   C1A62355   5.260  36.658   6.166
 4786POPC   D2A62356   5.094  36.690   6.586
 4786POPC   C3A62357   5.360  36.712   6.918
 4786POPC   C4A62358   5.297  36.891   7.283
 4786POPC   C1B62359   4.807  36.962   6.236
 4786POPC   C2B62360   4.877  37.176   6.616
 4786POPC   C3B62361   4.847  36.929   7.003
 4786POPC   C4B62362   4.818  36.835   7.441
 4787POPC   NC362363  18.971  13.024   5.151
 4787POPC   PO462364  19.364  12.647   5.294
 4787POPC   GL162365  19.149  12.904   5.689
 4787POPC   GL262366  18.839  13.131   5.780
 4787POPC   C1A62367  19.079  12.917   6.182
 4787POPC   D2A62368  18.930  12.835   6.638
 4787POPC   C3A62369  19.140  12.747   7.065
 4787POPC   C4A62370  19.024  12.505   7.460
 4787POPC   C1B62371  18.726  13.290   6.249
 4787POPC   C2B62372  18.640  13.238   6.707
 4787POPC   C3B62373  18.717  13.022   7.114
 4787POPC   C4B62374  18.686  13.203   7.547
 4788POPC   NC362375  42.263  16.686   5.193
 4788POPC   PO462376  42.754  16.896   5.413
 4788POPC   GL162377  42.582  16.895   5.899
 4788POPC   GL262378  42.271  16.987   6.162
 4788POPC   C1A62379  42.645  16.705   6.336
 4788POPC   D2A62380  42.400  16.735   6.700
 4788POPC   C3A62381  42.304  16.846   7.137
 4788POPC   C4A62382  42.589  16.746   7.462
 4788POPC   C1B62383  42.085  16.590   6.341
 4788POPC   C2B62384  42.260  16.256   6.633
 4788POPC   C3B62385  42.408  16.355   7.070
 4788POPC   C4B62386  42.289  16.329   7.491
 4789POPC   NC362387  30.414  35.838   5.227
 4789POPC   PO462388  30.678  36.412   5.331
 4789POPC   GL162389  30.693  36.211   5.721
 4789POPC   GL262390  30.491  35.946   5.722
 4789POPC   C1A62391  30.767  36.199   6.160
 4789POPC   D2A62392  30.850  36.006   6.557
 4789POPC   C3A62393  30.758  36.219   6.972
 4789POPC   C4A62394  30.955  35.958   7.296
 4789POPC   C1B62395  30.486  35.775   6.124
 4789POPC   C2B62396  30.468  35.588   6.538
 4789POPC   C3B62397  30.598  35.747   6.921
 4789POPC   C4B62398  30.461  35.926   7.323
 4790POPC   NC362399  17.229  40.426   5.549
 4790POPC   PO462400  17.803  40.138   5.315
 4790POPC   GL162401  17.655  40.186   5.736
 4790POPC   GL262402  17.935  40.139   5.951
 4790POPC   C1A62403  17.381  40.059   6.091
 4790POPC   D2A62404  17.304  39.871   6.498
 4790POPC   C3A62405  17.292  40.103   6.873
 4790POPC   C4A62406  17.355  39.953   7.271
 4790POPC   C1B62407  17.808  39.874   6.305
 4790POPC   C2B62408  17.757  39.881   6.751
 4790POPC   C3B62409  17.797  40.132   7.076
 4790POPC   C4B62410  17.749  40.149   7.527
 4791POPC   NC362411   9.871  19.588   5.473
 4791POPC   PO462412   9.863  20.226   5.155
 4791POPC   GL162413   9.708  20.140   5.619
 4791POPC   GL262414   9.552  19.853   5.760
 4791POPC   C1A62415   9.683  20.204   6.096
 4791POPC   D2A62416   9.543  19.985   6.483
 4791POPC   C3A62417   9.855  19.925   6.826
 4791POPC   C4A62418  10.021  20.093   7.229
 4791POPC   C1B62419   9.691  19.607   6.117
 4791POPC   C2B62420   9.616  19.481   6.538
 4791POPC   C3B62421   9.490  19.565   6.939
 4791POPC   C4B62422   9.680  19.732   7.288
 4792POPC   NC362423  17.463  34.804   5.511
 4792POPC   PO462424  17.413  34.170   5.454
 4792POPC   GL162425  17.688  34.393   5.802
 4792POPC   GL262426  17.881  34.736   5.818
 4792POPC   C1A62427  17.532  34.526   6.224
 4792POPC   D2A62428  17.334  34.357   6.607
 4792POPC   C3A62429  17.256  34.579   7.025
 4792POPC   C4A62430  17.323  34.461   7.452
 4792POPC   C1B62431  18.019  34.626   6.217
 4792POPC   C2B62432  17.923  34.364   6.564
 4792POPC   C3B62433  17.726  34.412   6.945
 4792POPC   C4B62434  17.743  34.718   7.254
 4793POPC   NC362435  37.624  28.991   5.676
 4793POPC   PO462436  38.149  29.368   5.377
 4793POPC   GL162437  37.958  29.365   5.793
 4793POPC   GL262438  38.128  29.105   5.971
 4793POPC   C1A62439  37.758  29.275   6.240
 4793POPC   D2A62440  37.608  29.436   6.607
 4793POPC   C3A62441  37.598  29.251   7.008
 4793POPC   C4A62442  37.594  29.364   7.446
 4793POPC   C1B62443  37.841  28.770   6.220
 4793POPC   C2B62444  37.748  28.909   6.629
 4793POPC   C3B62445  37.898  28.795   7.008
 4793POPC   C4B62446  37.693  28.864   7.349
 4794POPC   NC362447  44.214  39.169   5.132
 4794POPC   PO462448  43.675  39.562   5.301
 4794POPC   GL162449  43.729  39.366   5.767
 4794POPC   GL262450  43.973  39.123   5.755
 4794POPC   C1A62451  43.657  39.099   6.161
 4794POPC   D2A62452  43.879  39.197   6.575
 4794POPC   C3A62453  43.772  39.089   7.012
 4794POPC   C4A62454  43.685  39.357   7.374
 4794POPC   C1B62455  44.153  39.030   6.168
 4794POPC   C2B62456  44.164  38.758   6.538
 4794POPC   C3B62457  44.266  38.838   6.960
 4794POPC   C4B62458  44.172  38.688   7.340
 4795POPC   NC362459  21.843   7.208   5.704
 4795POPC   PO462460  22.345   7.524   5.475
 4795POPC   GL162461  22.206   7.593   5.828
 4795POPC   GL262462  21.902   7.724   5.682
 4795POPC   C1A62463  22.348   7.524   6.248
 4795POPC   D2A62464  22.427   7.569   6.684
 4795POPC   C3A62465  22.468   7.270   6.986
 4795POPC   C4A62466  22.416   7.580   7.298
 4795POPC   C1B62467  21.854   7.749   6.148
 4795POPC   C2B62468  21.893   7.525   6.551
 4795POPC   C3B62469  21.966   7.420   6.994
 4795POPC   C4B62470  21.878   7.610   7.381
 4796POPC   NC362471  40.296  14.549   5.559
 4796POPC   PO462472  39.782  14.308   5.506
 4796POPC   GL162473  39.969  14.362   5.950
 4796POPC   GL262474  40.037  14.703   6.001
 4796POPC   C1A62475  40.069  14.292   6.423
 4796POPC   D2A62476  40.021  13.979   6.772
 4796POPC   C3A62477  40.074  14.076   7.208
 4796POPC   C4A62478  40.065  14.430   7.438
 4796POPC   C1B62479  39.714  14.662   6.338
 4796POPC   C2B62480  39.720  14.476   6.762
 4796POPC   C3B62481  39.727  14.666   7.155
 4796POPC   C4B62482  39.734  15.112   7.182
 4797POPC   NC362483  18.885  20.373   5.731
 4797POPC   PO462484  19.323  20.806   5.456
 4797POPC   GL162485  19.246  20.705   5.842
 4797POPC   GL262486  19.430  20.372   5.867
 4797POPC   C1A62487  19.079  20.760   6.255
 4797POPC   D2A62488  19.313  20.702   6.614
 4797POPC   C3A62489  19.269  20.937   7.035
 4797POPC   C4A62490  18.893  20.884   7.312
 4797POPC   C1B62491  19.227  20.209   6.266
 4797POPC   C2B62492  18.900  20.353   6.549
 4797POPC   C3B62493  18.969  20.535   6.952
 4797POPC   C4B62494  19.283  20.400   7.254
 4798POPC   NC362495   5.742  28.771   5.390
 4798POPC   PO462496   6.030  28.187   5.526
 4798POPC   GL162497   5.909  28.404   5.874
 4798POPC   GL262498   5.547  28.474   5.783
 4798POPC   C1A62499   6.071  28.344   6.333
 4798POPC   D2A62500   5.974  28.310   6.795
 4798POPC   C3A62501   6.191  28.362   7.164
 4798POPC   C4A62502   5.993  28.256   7.544
 4798POPC   C1B62503   5.561  28.315   6.209
 4798POPC   C2B62504   5.645  28.594   6.550
 4798POPC   C3B62505   5.672  28.684   6.984
 4798POPC   C4B62506   5.574  28.419   7.332
 4799POPC   NC362507  14.552  21.287   5.545
 4799POPC   PO462508  13.998  21.133   5.229
 4799POPC   GL162509  14.115  21.531   5.680
 4799POPC   GL262510  14.450  21.665   5.861
 4799POPC   C1A62511  14.149  21.466   6.197
 4799POPC   D2A62512  14.396  21.389   6.596
 4799POPC   C3A62513  14.228  21.319   7.008
 4799POPC   C4A62514  14.491  21.022   7.166
 4799POPC   C1B62515  14.736  21.544   6.213
 4799POPC   C2B62516  14.921  21.437   6.642
 4799POPC   C3B62517  14.708  21.500   7.045
 4799POPC   C4B62518  14.475  21.664   7.396
 4800POPC   NC362519  21.408  27.480   5.517
 4800POPC   PO462520  22.006  27.572   5.538
 4800POPC   GL162521  21.711  27.725   5.858
 4800POPC   GL262522  21.681  27.390   5.938
 4800POPC   C1A62523  21.783  27.890   6.268
 4800POPC   D2A62524  22.104  27.791   6.593
 4800POPC   C3A62525  22.000  27.557   6.988
 4800POPC   C4A62526  21.993  27.395   7.404
 4800POPC   C1B62527  21.984  27.422   6.252
 4800POPC   C2B62528  22.165  27.231   6.623
 4800POPC   C3B62529  22.294  27.136   7.054
 4800POPC   C4B62530  22.500  27.427   7.345
 4801POPC   NC362531  28.847  34.120   5.482
 4801POPC   PO462532  28.711  33.495   5.467
 4801POPC   GL162533  29.093  33.548   5.744
 4801POPC   GL262534  29.250  33.895   5.756
 4801POPC   C1A62535  29.286  33.499   6.157
 4801POPC   D2A62536  29.352  33.722   6.553
 4801POPC   C3A62537  29.383  33.511   6.943
 4801POPC   C4A62538  29.203  33.745   7.275
 4801POPC   C1B62539  29.064  33.973   6.176
 4801POPC   C2B62540  28.930  34.039   6.617
 4801POPC   C3B62541  29.238  34.108   6.917
 4801POPC   C4B62542  29.376  34.241   7.307
 4802POPC   NC362543  26.458   6.217   5.529
 4802POPC   PO462544  26.848   5.727   5.356
 4802POPC   GL162545  26.987   5.802   5.779
 4802POPC   GL262546  26.683   5.935   5.881
 4802POPC   C1A62547  26.951   5.635   6.215
 4802POPC   D2A62548  26.930   5.919   6.549
 4802POPC   C3A62549  26.806   5.746   6.940
 4802POPC   C4A62550  26.799   5.696   7.391
 4802POPC   C1B62551  26.443   5.624   6.075
 4802POPC   C2B62552  26.512   5.589   6.508
 4802POPC   C3B62553  26.292   5.634   6.873
 4802POPC   C4B62554  26.346   5.518   7.285
 4803POPC   NC362555   5.596  37.501   5.451
 4803POPC   PO462556   6.201  37.801   5.483
 4803POPC   GL162557   5.895  37.764   5.818
 4803POPC   GL262558   5.776  37.403   5.908
 4803POPC   C1A62559   5.982  37.710   6.249
 4803POPC   D2A62560   5.890  37.455   6.584
 4803POPC   C3A62561   6.059  37.726   6.876
 4803POPC   C4A62562   6.060  37.667   7.309
 4803POPC   C1B62563   5.481  37.684   6.145
 4803POPC   C2B62564   5.575  37.863   6.570
 4803POPC   C3B62565   5.582  37.660   6.983
 4803POPC   C4B62566   5.441  37.852   7.326
 4804POPC   NC362567   4.023  42.842   5.363
 4804POPC   PO462568   4.597  43.180   5.369
 4804POPC   GL162569   4.504  43.196   5.771
 4804POPC   GL262570   4.145  43.184   5.752
 4804POPC   C1A62571   4.682  43.138   6.176
 4804POPC   D2A62572   4.458  43.251   6.526
 4804POPC   C3A62573   4.303  43.204   6.922
 4804POPC   C4A62574   4.490  43.079   7.288
 4804POPC   C1B62575   4.176  42.993   6.162
 4804POPC   C2B62576   4.093  42.853   6.577
 4804POPC   C3B62577   4.074  42.765   7.010
 4804POPC   C4B62578   3.756  42.781   7.272
 4805POPC   NC362579   8.876  18.518   5.211
 4805POPC   PO462580   9.216  17.959   5.284
 4805POPC   GL162581   9.152  18.232   5.648
 4805POPC   GL262582   8.877  18.072   5.808
 4805POPC   C1A62583   9.159  18.373   6.132
 4805POPC   D2A62584   9.062  18.686   6.480
 4805POPC   C3A62585   9.052  18.542   6.921
 4805POPC   C4A62586   9.018  18.215   7.250
 4805POPC   C1B62587   8.714  18.095   6.221
 4805POPC   C2B62588   8.812  18.177   6.634
 4805POPC   C3B62589   8.591  18.106   7.012
 4805POPC   C4B62590   8.642  17.957   7.461
 4806POPC   NC362591   2.157  11.314   5.538
 4806POPC   PO462592   1.653  11.167   5.129
 4806POPC   GL162593   1.660  11.379   5.681
 4806POPC   GL262594   1.947  11.179   5.981
 4806POPC   C1A62595   1.587  11.426   6.171
 4806POPC   D2A62596   1.829  11.324   6.548
 4806POPC   C3A62597   1.707  11.426   6.991
 4806POPC   C4A62598   1.806  11.099   7.336
 4806POPC   C1B62599   2.140  11.553   6.166
 4806POPC   C2B62600   2.405  11.588   6.545
 4806POPC   C3B62601   2.226  11.652   6.961
 4806POPC   C4B62602   2.042  11.543   7.361
 4807POPC   NC362603  23.202  18.532   5.459
 4807POPC   PO462604  22.772  18.026   5.392
 4807POPC   GL162605  22.860  18.241   5.762
 4807POPC   GL262606  22.580  18.458   5.760
 4807POPC   C1A62607  23.092  18.238   6.171
 4807POPC   D2A62608  23.228  18.066   6.587
 4807POPC   C3A62609  23.016  18.210   6.974
 4807POPC   C4A62610  22.659  18.021   7.192
 4807POPC   C1B62611  22.545  18.235   6.175
 4807POPC   C2B62612  22.716  18.377   6.573
 4807POPC   C3B62613  22.609  18.504   7.012
 4807POPC   C4B62614  22.779  18.489   7.417
 4808POPC   NC362615  22.427  20.144   5.523
 4808POPC   PO462616  22.139  20.661   5.196
 4808POPC   GL162617  22.215  20.672   5.674
 4808POPC   GL262618  22.347  20.436   5.908
 4808POPC   C1A62619  22.106  20.823   6.127
 4808POPC   D2A62620  22.146  20.603   6.544
 4808POPC   C3A62621  21.996  20.744   6.942
 4808POPC   C4A62622  22.050  20.543   7.326
 4808POPC   C1B62623  22.588  20.576   6.257
 4808POPC   C2B62624  22.701  20.547   6.670
 4808POPC   C3B62625  22.472  20.521   7.041
 4808POPC   C4B62626  22.537  20.770   7.442
 4809POPC   NC362627  35.409  18.002   5.451
 4809POPC   PO462628  35.580  17.337   5.494
 4809POPC   GL162629  35.416  17.552   5.826
 4809POPC   GL262630  35.617  17.820   5.935
 4809POPC   C1A62631  35.146  17.453   6.169
 4809POPC   D2A62632  35.084  17.626   6.552
 4809POPC   C3A62633  35.159  17.417   6.896
 4809POPC   C4A62634  35.380  17.641   7.136
 4809POPC   C1B62635  35.739  17.515   6.273
 4809POPC   C2B62636  35.631  17.329   6.695
 4809POPC   C3B62637  35.765  17.323   7.146
 4809POPC   C4B62638  35.610  17.459   7.564
 4810POPC   NC362639  17.818  31.590   5.386
 4810POPC   PO462640  18.567  31.296   5.389
 4810POPC   GL162641  18.391  31.381   5.779
 4810POPC   GL262642  18.251  31.704   5.650
 4810POPC   C1A62643  18.241  31.273   6.229
 4810POPC   D2A62644  17.973  31.231   6.609
 4810POPC   C3A62645  18.224  31.485   6.869
 4810POPC   C4A62646  18.547  31.370   7.112
 4810POPC   C1B62647  18.152  31.752   6.076
 4810POPC   C2B62648  18.313  31.901   6.484
 4810POPC   C3B62649  18.092  31.976   6.860
 4810POPC   C4B62650  18.138  31.881   7.236
 4811POPC   NC362651   6.563   4.994   5.292
 4811POPC   PO462652   7.177   5.206   5.393
 4811POPC   GL162653   6.875   4.986   5.761
 4811POPC   GL262654   6.475   4.923   5.788
 4811POPC   C1A62655   6.744   5.011   6.232
 4811POPC   D2A62656   6.604   4.925   6.679
 4811POPC   C3A62657   6.710   5.267   7.008
 4811POPC   C4A62658   6.888   5.315   7.437
 4811POPC   C1B62659   6.241   4.878   6.180
 4811POPC   C2B62660   6.171   4.598   6.542
 4811POPC   C3B62661   6.104   4.661   6.988
 4811POPC   C4B62662   6.435   4.879   7.186
 4812POPC   NC362663   2.388  42.565   5.458
 4812POPC   PO462664   2.820  41.909   5.420
 4812POPC   GL162665   2.774  42.241   5.728
 4812POPC   GL262666   3.111  42.436   5.792
 4812POPC   C1A62667   2.610  42.316   6.166
 4812POPC   D2A62668   2.777  42.373   6.604
 4812POPC   C3A62669   2.586  42.207   7.024
 4812POPC   C4A62670   2.519  42.340   7.481
 4812POPC   C1B62671   3.088  42.105   6.117
 4812POPC   C2B62672   3.220  42.063   6.538
 4812POPC   C3B62673   3.086  42.132   6.941
 4812POPC   C4B62674   3.000  42.280   7.349
 4813POPC   NC362675  44.883  25.879   5.292
 4813POPC   PO462676  44.454  26.379   5.479
 4813POPC   GL162677  44.556  26.137   5.846
 4813POPC   GL262678  44.332  25.883   5.954
 4813POPC   C1A62679  44.736  26.136   6.254
 4813POPC   D2A62680  44.978  25.980   6.596
 4813POPC   C3A62681  44.867  25.998   7.035
 4813POPC   C4A62682  44.502  25.889   7.311
 4813POPC   C1B62683  44.389  25.780   6.355
 4813POPC   C2B62684  44.478  26.035   6.703
 4813POPC   C3B62685  44.549  25.650   6.873
 4813POPC   C4B62686  44.311  25.393   7.148
 4814POPC   NC362687  25.758  44.579   5.450
 4814POPC   PO462688  26.388  44.490   5.443
 4814POPC   GL162689  26.186  44.545   5.799
 4814POPC   GL262690  26.063  44.848   5.751
 4814POPC   C1A62691  25.932  44.571   6.165
 4814POPC   D2A62692  25.932  44.699   6.574
 4814POPC   C3A62693  25.902  44.417   6.895
 4814POPC   C4A62694  26.112  44.503   7.250
 4814POPC   C1B62695  26.364  44.952   6.100
 4814POPC   C2B62696  26.365  44.966   6.559
 4814POPC   C3B62697  26.361  44.911   7.017
 4814POPC   C4B62698  26.300  44.946   7.466
 4815POPC   NC362699  35.707   4.180   5.081
 4815POPC   PO462700  35.163   4.367   5.521
 4815POPC   GL162701  35.185   4.229   5.944
 4815POPC   GL262702  35.392   3.929   6.011
 4815POPC   C1A62703  35.173   4.370   6.374
 4815POPC   D2A62704  35.245   4.611   6.738
 4815POPC   C3A62705  35.201   4.398   7.130
 4815POPC   C4A62706  35.141   3.981   7.320
 4815POPC   C1B62707  35.637   4.230   6.222
 4815POPC   C2B62708  35.706   4.402   6.595
 4815POPC   C3B62709  35.703   4.467   7.017
 4815POPC   C4B62710  35.643   4.132   7.260
 4816POPC   NC362711  39.726  11.074   5.402
 4816POPC   PO462712  40.236  11.557   5.483
 4816POPC   GL162713  40.062  11.371   5.859
 4816POPC   GL262714  40.058  11.013   5.820
 4816POPC   C1A62715  40.012  11.276   6.301
 4816POPC   D2A62716  39.790  11.425   6.661
 4816POPC   C3A62717  39.815  11.270   7.086
 4816POPC   C4A62718  40.007  11.437   7.456
 4816POPC   C1B62719  39.723  10.907   6.131
 4816POPC   C2B62720  39.808  10.900   6.608
 4816POPC   C3B62721  40.084  10.840   6.986
 4816POPC   C4B62722  40.085  10.933   7.399
 4817POPC   NC362723   4.766  42.072   5.046
 4817POPC   PO462724   5.332  42.111   5.430
 4817POPC   GL162725   5.203  42.161   5.897
 4817POPC   GL262726   4.848  42.297   5.914
 4817POPC   C1A62727   5.091  42.223   6.355
 4817POPC   D2A62728   4.963  42.456   6.718
 4817POPC   C3A62729   4.991  42.399   7.152
 4817POPC   C4A62730   5.011  41.968   7.253
 4817POPC   C1B62731   4.589  42.101   6.274
 4817POPC   C2B62732   4.619  42.014   6.748
 4817POPC   C3B62733   4.544  42.175   7.175
 4817POPC   C4B62734   4.649  42.107   7.628
 4818POPC   NC362735  13.612  13.247   5.488
 4818POPC   PO462736  13.409  13.921   5.367
 4818POPC   GL162737  13.500  13.671   5.780
 4818POPC   GL262738  13.771  13.424   5.914
 4818POPC   C1A62739  13.429  13.577   6.241
 4818POPC   D2A62740  13.621  13.421   6.613
 4818POPC   C3A62741  13.552  13.617   6.982
 4818POPC   C4A62742  13.230  13.650   7.254
 4818POPC   C1B62743  13.982  13.433   6.274
 4818POPC   C2B62744  14.082  13.604   6.698
 4818POPC   C3B62745  13.933  13.282   7.014
 4818POPC   C4B62746  13.790  13.167   7.418
 4819POPC   NC362747  40.759  39.871   5.281
 4819POPC   PO462748  40.437  40.379   5.535
 4819POPC   GL162749  40.680  40.030   5.761
 4819POPC   GL262750  40.507  39.707   5.700
 4819POPC   C1A62751  40.966  39.875   6.110
 4819POPC   D2A62752  41.192  39.909   6.511
 4819POPC   C3A62753  41.049  39.757   6.906
 4819POPC   C4A62754  40.877  40.029   7.215
 4819POPC   C1B62755  40.477  39.720   6.139
 4819POPC   C2B62756  40.652  39.893   6.516
 4819POPC   C3B62757  40.524  39.824   6.903
 4819POPC   C4B62758  40.514  39.685   7.321
 4820POPC   NC362759  33.637  12.055   5.301
 4820POPC   PO462760  34.248  12.055   5.516
 4820POPC   GL162761  33.851  12.152   5.768
 4820POPC   GL262762  33.552  11.896   5.783
 4820POPC   C1A62763  33.666  12.205   6.193
 4820POPC   D2A62764  33.639  11.964   6.606
 4820POPC   C3A62765  33.875  12.067   6.980
 4820POPC   C4A62766  34.038  12.458   7.073
 4820POPC   C1B62767  33.692  11.676   6.163
 4820POPC   C2B62768  33.606  11.462   6.567
 4820POPC   C3B62769  33.558  11.647   7.023
 4820POPC   C4B62770  33.633  11.879   7.399
 4821POPC   NC362771  30.958  14.562   5.437
 4821POPC   PO462772  30.435  14.039   5.407
 4821POPC   GL162773  30.629  14.343   5.748
 4821POPC   GL262774  30.434  14.620   5.901
 4821POPC   C1A62775  30.870  14.524   6.123
 4821POPC   D2A62776  30.676  14.401   6.510
 4821POPC   C3A62777  30.949  14.356   6.877
 4821POPC   C4A62778  30.831  14.510   7.283
 4821POPC   C1B62779  30.504  14.843   6.310
 4821POPC   C2B62780  30.491  14.822   6.788
 4821POPC   C3B62781  30.500  14.897   7.249
 4821POPC   C4B62782  30.351  14.661   7.616
 4822POPC   NC362783  33.393  43.117   5.456
 4822POPC   PO462784  32.717  43.368   5.476
 4822POPC   GL162785  33.006  43.158   5.795
 4822POPC   GL262786  33.297  42.881   5.888
 4822POPC   C1A62787  32.908  43.122   6.206
 4822POPC   D2A62788  32.771  43.422   6.500
 4822POPC   C3A62789  32.718  43.281   6.904
 4822POPC   C4A62790  32.674  43.115   7.324
 4822POPC   C1B62791  33.412  43.087   6.274
 4822POPC   C2B62792  33.173  43.071   6.664
 4822POPC   C3B62793  33.150  43.122   7.108
 4822POPC   C4B62794  33.133  42.868   7.495
 4823POPC   NC362795  24.273  32.235   5.093
 4823POPC   PO462796  24.798  32.325   5.542
 4823POPC   GL162797  24.713  32.221   5.937
 4823POPC   GL262798  24.830  31.904   5.927
 4823POPC   C1A62799  24.575  32.339   6.311
 4823POPC   D2A62800  24.738  32.528   6.670
 4823POPC   C3A62801  24.448  32.540   6.988
 4823POPC   C4A62802  24.123  32.338   7.158
 4823POPC   C1B62803  24.589  31.831   6.320
 4823POPC   C2B62804  24.512  32.045   6.734
 4823POPC   C3B62805  24.520  31.975   7.143
 4823POPC   C4B62806  24.807  31.885   7.478
 4824POPC   NC362807  14.181   3.129   5.365
 4824POPC   PO462808  14.049   3.711   5.665
 4824POPC   GL162809  14.244   3.428   5.925
 4824POPC   GL262810  14.133   3.088   5.882
 4824POPC   C1A62811  14.481   3.580   6.283
 4824POPC   D2A62812  14.412   3.749   6.694
 4824POPC   C3A62813  14.539   3.520   7.059
 4824POPC   C4A62814  14.445   3.491   7.514
 4824POPC   C1B62815  14.243   3.136   6.325
 4824POPC   C2B62816  14.166   3.313   6.759
 4824POPC   C3B62817  14.094   3.246   7.233
 4824POPC   C4B62818  13.965   3.275   7.698
 4825POPC   NC362819  41.630  37.750   5.401
 4825POPC   PO462820  42.142  37.308   5.618
 4825POPC   GL162821  41.732  37.456   5.797
 4825POPC   GL262822  41.358  37.455   5.798
 4825POPC   C1A62823  41.613  37.661   6.179
 4825POPC   D2A62824  41.812  37.656   6.554
 4825POPC   C3A62825  41.628  37.905   6.802
 4825POPC   C4A62826  41.559  37.640   7.161
 4825POPC   C1B62827  41.164  37.869   6.050
 4825POPC   C2B62828  41.101  37.999   6.534
 4825POPC   C3B62829  41.164  37.905   7.012
 4825POPC   C4B62830  41.248  37.891   7.511
 4826POPC   NC362831  36.719  29.168   5.346
 4826POPC   PO462832  37.256  29.272   5.704
 4826POPC   GL162833  36.841  29.096   5.833
 4826POPC   GL262834  36.530  29.309   5.811
 4826POPC   C1A62835  36.710  28.925   6.210
 4826POPC   D2A62836  36.767  29.081   6.615
 4826POPC   C3A62837  36.955  28.926   6.977
 4826POPC   C4A62838  37.175  29.125   7.296
 4826POPC   C1B62839  36.711  29.441   6.217
 4826POPC   C2B62840  36.711  29.662   6.637
 4826POPC   C3B62841  36.694  29.396   7.020
 4826POPC   C4B62842  36.571  29.090   7.288
 4827POPC   NC362843  38.199  30.796   5.664
 4827POPC   PO462844  37.500  30.870   5.481
 4827POPC   GL162845  37.553  30.610   5.881
 4827POPC   GL262846  37.352  30.322   5.817
 4827POPC   C1A62847  37.561  30.689   6.344
 4827POPC   D2A62848  37.362  30.769   6.760
 4827POPC   C3A62849  37.680  30.831   7.091
 4827POPC   C4A62850  37.700  30.675   7.527
 4827POPC   C1B62851  37.406  30.203   6.262
 4827POPC   C2B62852  37.535  30.302   6.702
 4827POPC   C3B62853  37.521  30.355   7.165
 4827POPC   C4B62854  37.472  30.237   7.635
 4828POPC   NC362855  43.721   2.435   5.505
 4828POPC   PO462856  43.982   1.820   5.383
 4828POPC   GL162857  43.765   1.929   5.734
 4828POPC   GL262858  43.435   1.779   5.710
 4828POPC   C1A62859  43.761   2.137   6.150
 4828POPC   D2A62860  43.655   2.113   6.592
 4828POPC   C3A62861  44.043   2.144   6.836
 4828POPC   C4A62862  44.172   2.011   7.246
 4828POPC   C1B62863  43.644   1.614   6.115
 4828POPC   C2B62864  43.881   1.662   6.542
 4828POPC   C3B62865  43.745   1.751   6.978
 4828POPC   C4B62866  43.652   1.594   7.374
 4829POPC   NC362867  10.738  37.827   5.495
 4829POPC   PO462868  10.219  37.372   5.422
 4829POPC   GL162869  10.378  37.561   5.826
 4829POPC   GL262870  10.710  37.636   5.946
 4829POPC   C1A62871  10.313  37.662   6.276
 4829POPC   D2A62872  10.182  37.715   6.712
 4829POPC   C3A62873  10.311  37.587   7.108
 4829POPC   C4A62874  10.288  37.606   7.573
 4829POPC   C1B62875  10.833  37.771   6.338
 4829POPC   C2B62876  10.675  37.594   6.706
 4829POPC   C3B62877  10.807  37.487   7.097
 4829POPC   C4B62878  10.751  37.754   7.409
 4830POPC   NC362879  17.504  28.788   5.371
 4830POPC   PO462880  17.245  29.366   5.432
 4830POPC   GL162881  17.240  29.049   5.777
 4830POPC   GL262882  17.538  28.838   5.881
 4830POPC   C1A62883  17.064  28.994   6.195
 4830POPC   D2A62884  17.041  29.222   6.590
 4830POPC   C3A62885  17.133  28.915   6.909
 4830POPC   C4A62886  17.397  28.933   7.269
 4830POPC   C1B62887  17.555  29.148   6.227
 4830POPC   C2B62888  17.594  29.114   6.689
 4830POPC   C3B62889  17.647  29.334   7.078
 4830POPC   C4B62890  17.686  29.270   7.539
 4831POPC   NC362891  16.968   8.415   5.429
 4831POPC   PO462892  16.492   7.888   5.515
 4831POPC   GL162893  16.768   8.135   5.792
 4831POPC   GL262894  16.602   8.471   5.765
 4831POPC   C1A62895  17.106   8.209   6.104
 4831POPC   D2A62896  17.060   8.378   6.516
 4831POPC   C3A62897  16.853   8.135   6.846
 4831POPC   C4A62898  16.892   8.253   7.273
 4831POPC   C1B62899  16.700   8.511   6.163
 4831POPC   C2B62900  16.533   8.344   6.531
 4831POPC   C3B62901  16.547   8.533   6.970
 4831POPC   C4B62902  16.463   8.522   7.399
 4832POPC   NC362903  21.820  30.743   5.384
 4832POPC   PO462904  22.426  30.500   5.156
 4832POPC   GL162905  22.477  30.684   5.730
 4832POPC   GL262906  22.168  30.877   5.753
 4832POPC   C1A62907  22.385  30.514   6.148
 4832POPC   D2A62908  22.350  30.730   6.523
 4832POPC   C3A62909  22.244  30.451   6.876
 4832POPC   C4A62910  22.318  30.660   7.254
 4832POPC   C1B62911  21.997  30.862   6.150
 4832POPC   C2B62912  21.842  30.801   6.534
 4832POPC   C3B62913  22.042  30.928   6.902
 4832POPC   C4B62914  21.877  30.981   7.284
 4833POPC   NC362915  39.323   0.870   5.213
 4833POPC   PO462916  39.249   1.476   5.523
 4833POPC   GL162917  39.257   1.224   5.870
 4833POPC   GL262918  39.449   0.894   5.845
 4833POPC   C1A62919  38.999   1.279   6.243
 4833POPC   D2A62920  39.049   1.094   6.638
 4833POPC   C3A62921  38.938   1.387   6.951
 4833POPC   C4A62922  39.082   1.419   7.390
 4833POPC   C1B62923  39.492   1.042   6.292
 4833POPC   C2B62924  39.578   1.058   6.725
 4833POPC   C3B62925  39.404   1.190   7.082
 4833POPC   C4B62926  39.473   1.134   7.542
 4834POPC   NC362927  29.050  19.571   5.411
 4834POPC   PO462928  29.339  20.151   5.378
 4834POPC   GL162929  29.243  20.003   5.815
 4834POPC   GL262930  29.137  19.638   5.903
 4834POPC   C1A62931  29.043  20.035   6.229
 4834POPC   D2A62932  28.912  19.748   6.546
 4834POPC   C3A62933  28.770  19.852   6.932
 4834POPC   C4A62934  29.018  20.072   7.197
 4834POPC   C1B62935  29.153  19.377   6.278
 4834POPC   C2B62936  29.220  19.360   6.713
 4834POPC   C3B62937  29.154  19.524   7.123
 4834POPC   C4B62938  29.374  19.711   7.486
 4835POPC   NC362939  41.961   1.022   5.410
 4835POPC   PO462940  42.585   1.107   5.295
 4835POPC   GL162941  42.357   1.134   5.738
 4835POPC   GL262942  42.090   1.392   5.822
 4835POPC   C1A62943  42.374   1.192   6.225
 4835POPC   D2A62944  42.527   1.169   6.657
 4835POPC   C3A62945  42.327   1.074   7.039
 4835POPC   C4A62946  42.428   1.018   7.476
 4835POPC   C1B62947  42.009   1.561   6.270
 4835POPC   C2B62948  42.060   1.445   6.748
 4835POPC   C3B62949  42.106   1.493   7.215
 4835POPC   C4B62950  42.124   1.384   7.665
 4836POPC   NC362951  40.560  27.907   5.106
 4836POPC   PO462952  41.061  28.162   5.523
 4836POPC   GL162953  40.808  28.236   5.883
 4836POPC   GL262954  40.493  28.331   5.801
 4836POPC   C1A62955  40.750  28.491   6.259
 4836POPC   D2A62956  40.984  28.412   6.631
 4836POPC   C3A62957  40.902  28.641   7.002
 4836POPC   C4A62958  41.029  28.379   7.309
 4836POPC   C1B62959  40.429  28.099   6.236
 4836POPC   C2B62960  40.506  28.223   6.659
 4836POPC   C3B62961  40.392  28.120   7.056
 4836POPC   C4B62962  40.467  28.402   7.386
 4837POPC   NC362963  31.427   7.273   5.447
 4837POPC   PO462964  31.238   6.691   5.691
 4837POPC   GL162965  31.269   7.105   5.907
 4837POPC   GL262966  31.608   7.304   5.924
 4837POPC   C1A62967  31.098   7.314   6.288
 4837POPC   D2A62968  31.082   7.263   6.750
 4837POPC   C3A62969  31.392   7.403   7.099
 4837POPC   C4A62970  31.460   7.224   7.527
 4837POPC   C1B62971  31.475   7.656   6.201
 4837POPC   C2B62972  31.450   7.674   6.658
 4837POPC   C3B62973  31.597   7.871   7.054
 4837POPC   C4B62974  31.646   7.699   7.478
 4838POPC   NC362975  15.481  11.041   5.555
 4838POPC   PO462976  15.169  11.653   5.358
 4838POPC   GL162977  15.139  11.504   5.806
 4838POPC   GL262978  15.053  11.154   5.866
 4838POPC   C1A62979  15.234  11.531   6.264
 4838POPC   D2A62980  15.267  11.741   6.672
 4838POPC   C3A62981  15.030  11.623   7.049
 4838POPC   C4A62982  15.352  11.555   7.330
 4838POPC   C1B62983  15.314  11.018   6.189
 4838POPC   C2B62984  15.207  10.960   6.565
 4838POPC   C3B62985  15.286  11.174   6.963
 4838POPC   C4B62986  15.233  11.054   7.364
 4839POPC   NC362987  38.235  22.924   5.503
 4839POPC   PO462988  38.490  23.512   5.469
 4839POPC   GL162989  38.484  23.255   5.852
 4839POPC   GL262990  38.723  22.977   5.742
 4839POPC   C1A62991  38.207  23.034   6.203
 4839POPC   D2A62992  38.064  22.726   6.558
 4839POPC   C3A62993  38.178  22.807   7.007
 4839POPC   C4A62994  38.187  23.063   7.387
 4839POPC   C1B62995  38.543  22.646   6.046
 4839POPC   C2B62996  38.561  22.618   6.494
 4839POPC   C3B62997  38.629  22.552   6.944
 4839POPC   C4B62998  38.645  22.875   7.294
 4840POPC   NC362999   1.767  38.844   5.500
 4840POPC   PO463000   2.213  39.318   5.270
 4840POPC   GL163001   2.094  39.466   5.751
 4840POPC   GL263002   1.795  39.285   5.818
 4840POPC   C1A63003   1.978  39.437   6.256
 4840POPC   D2A63004   1.774  39.422   6.677
 4840POPC   C3A63005   1.964  39.593   7.075
 4840POPC   C4A63006   1.821  39.630   7.526
 4840POPC   C1B63007   1.861  38.966   6.153
 4840POPC   C2B63008   2.045  38.980   6.572
 4840POPC   C3B63009   2.007  39.081   7.011
 4840POPC   C4B63010   1.909  38.860   7.389
 4841POPC   NC363011   0.795  34.059   5.513
 4841POPC   PO463012   0.256  33.783   5.507
 4841POPC   GL163013   0.577  33.662   5.804
 4841POPC   GL263014   0.556  33.931   5.954
 4841POPC   C1A63015   0.636  33.498   6.197
 4841POPC   D2A63016   0.541  33.780   6.531
 4841POPC   C3A63017   0.564  33.579   6.911
 4841POPC   C4A63018   0.416  33.400   7.256
 4841POPC   C1B63019   0.770  34.205   6.159
 4841POPC   C2B63020   0.766  34.252   6.584
 4841POPC   C3B63021   0.532  34.120   6.949
 4841POPC   C4B63022   0.602  33.895   7.317
 4842POPC   NC363023  29.343  13.580   5.290
 4842POPC   PO463024  28.690  13.644   5.304
 4842POPC   GL163025  28.841  13.551   5.752
 4842POPC   GL263026  29.202  13.521   5.802
 4842POPC   C1A63027  28.946  13.760   6.163
 4842POPC   D2A63028  29.138  13.843   6.565
 4842POPC   C3A63029  29.031  13.533   6.879
 4842POPC   C4A63030  29.054  13.557   7.302
 4842POPC   C1B63031  29.462  13.547   6.167
 4842POPC   C2B63032  29.456  13.460   6.599
 4842POPC   C3B63033  29.480  13.329   7.018
 4842POPC   C4B63034  29.680  13.478   7.400
 4843POPC   NC363035  25.540   8.473   5.554
 4843POPC   PO463036  25.518   7.795   5.509
 4843POPC   GL163037  25.247   8.077   5.765
 4843POPC   GL263038  24.921   7.920   5.822
 4843POPC   C1A63039  25.310   8.262   6.185
 4843POPC   D2A63040  25.422   7.979   6.528
 4843POPC   C3A63041  25.257   8.050   6.952
 4843POPC   C4A63042  25.328   8.322   7.317
 4843POPC   C1B63043  24.899   7.962   6.268
 4843POPC   C2B63044  24.753   8.071   6.663
 4843POPC   C3B63045  24.744   7.958   7.098
 4843POPC   C4B63046  25.007   7.959   7.441
 4844POPC   NC363047  22.242  17.795   5.134
 4844POPC   PO463048  22.150  18.387   5.470
 4844POPC   GL163049  22.087  18.388   5.905
 4844POPC   GL263050  22.026  18.106   5.966
 4844POPC   C1A63051  22.063  18.425   6.359
 4844POPC   D2A63052  22.262  18.145   6.629
 4844POPC   C3A63053  22.152  18.139   7.040
 4844POPC   C4A63054  22.282  18.286   7.398
 4844POPC   C1B63055  21.686  18.130   6.270
 4844POPC   C2B63056  21.738  18.249   6.705
 4844POPC   C3B63057  21.658  18.042   7.102
 4844POPC   C4B63058  21.859  18.027   7.504
 4845POPC   NC363059  31.721  27.847   5.410
 4845POPC   PO463060  31.291  27.335   5.487
 4845POPC   GL163061  31.494  27.521   5.822
 4845POPC   GL263062  31.782  27.327   5.909
 4845POPC   C1A63063  31.293  27.672   6.202
 4845POPC   D2A63064  31.215  27.881   6.607
 4845POPC   C3A63065  31.277  27.809   7.045
 4845POPC   C4A63066  31.591  27.594   7.312
 4845POPC   C1B63067  31.935  27.261   6.330
 4845POPC   C2B63068  31.874  27.272   6.777
 4845POPC   C3B63069  31.865  27.153   7.188
 4845POPC   C4B63070  31.933  27.385   7.600
 4846POPC   NC363071  36.254  18.537   5.453
 4846POPC   PO463072  35.872  18.032   5.490
 4846POPC   GL163073  36.041  18.094   5.862
 4846POPC   GL263074  36.358  18.175   5.806
 4846POPC   C1A63075  35.873  18.195   6.256
 4846POPC   D2A63076  35.998  18.246   6.702
 4846POPC   C3A63077  35.846  18.395   7.122
 4846POPC   C4A63078  35.726  18.322   7.569
 4846POPC   C1B63079  36.402  18.353   6.203
 4846POPC   C2B63080  36.494  18.205   6.608
 4846POPC   C3B63081  36.343  18.029   7.006
 4846POPC   C4B63082  36.207  18.163   7.411
 4847POPC   NC363083  44.513  36.898   5.536
 4847POPC   PO463084  44.975  36.500   5.273
 4847POPC   GL163085  44.887  36.618   5.758
 4847POPC   GL263086  44.927  36.999   5.808
 4847POPC   C1A63087  44.551  36.709   6.136
 4847POPC   D2A63088  44.641  36.758   6.573
 4847POPC   C3A63089  44.529  36.872   6.975
 4847POPC   C4A63090  44.695  36.672   7.316
 4847POPC   C1B63091  44.889  37.074   6.241
 4847POPC   C2B63092  44.857  37.214   6.664
 4847POPC   C3B63093  44.973  37.087   7.068
 4847POPC   C4B63094  44.681  37.198   7.383
 4848POPC   NC363095  36.039  19.452   5.793
 4848POPC   PO463096  36.313  18.980   5.527
 4848POPC   GL163097  36.345  18.775   5.911
 4848POPC   GL263098  36.029  18.600   5.916
 4848POPC   C1A63099  36.416  18.991   6.311
 4848POPC   D2A63100  36.361  19.304   6.664
 4848POPC   C3A63101  36.350  19.159   7.092
 4848POPC   C4A63102  36.160  19.159   7.516
 4848POPC   C1B63103  36.032  18.667   6.371
 4848POPC   C2B63104  36.157  18.771   6.797
 4848POPC   C3B63105  35.893  18.920   7.150
 4848POPC   C4B63106  35.568  18.796   7.444
 4849POPC   NC363107   7.632  18.401   5.489
 4849POPC   PO463108   7.095  18.063   5.457
 4849POPC   GL163109   7.226  18.265   5.844
 4849POPC   GL263110   7.495  18.502   5.962
 4849POPC   C1A63111   7.446  18.077   6.224
 4849POPC   D2A63112   7.354  17.808   6.582
 4849POPC   C3A63113   7.356  18.067   6.962
 4849POPC   C4A63114   7.259  18.177   7.380
 4849POPC   C1B63115   7.100  18.565   6.235
 4849POPC   C2B63116   7.064  18.746   6.663
 4849POPC   C3B63117   7.309  18.702   7.059
 4849POPC   C4B63118   7.666  18.420   7.179
 4850POPC   NC363119  16.913   7.646   5.558
 4850POPC   PO463120  16.544   7.123   5.479
 4850POPC   GL163121  16.694   7.303   5.888
 4850POPC   GL263122  16.636   7.678   5.972
 4850POPC   C1A63123  16.603   7.348   6.346
 4850POPC   D2A63124  16.393   7.316   6.740
 4850POPC   C3A63125  16.656   7.223   7.071
 4850POPC   C4A63126  16.884   7.363   7.430
 4850POPC   C1B63127  16.841   7.832   6.344
 4850POPC   C2B63128  16.878   7.615   6.739
 4850POPC   C3B63129  16.700   7.728   7.117
 4850POPC   C4B63130  16.437   8.040   7.227
 4851POPC   NC363131  39.626  29.521   5.021
 4851POPC   PO463132  39.353  30.089   5.248
 4851POPC   GL163133  39.293  29.833   5.661
 4851POPC   GL263134  39.452  30.127   5.776
 4851POPC   C1A63135  39.192  29.595   6.089
 4851POPC   D2A63136  39.001  29.723   6.512
 4851POPC   C3A63137  39.160  29.574   6.936
 4851POPC   C4A63138  39.291  29.750   7.339
 4851POPC   C1B63139  39.198  30.087   6.151
 4851POPC   C2B63140  39.234  30.231   6.563
 4851POPC   C3B63141  39.124  30.094   6.932
 4851POPC   C4B63142  39.309  30.260   7.319
 4852POPC   NC363143   8.604  27.376   5.477
 4852POPC   PO463144   8.179  26.791   5.369
 4852POPC   GL163145   8.409  26.922   5.719
 4852POPC   GL263146   8.494  26.621   5.824
 4852POPC   C1A63147   8.382  26.985   6.186
 4852POPC   D2A63148   8.081  26.822   6.499
 4852POPC   C3A63149   8.151  26.935   6.954
 4852POPC   C4A63150   8.415  27.104   7.243
 4852POPC   C1B63151   8.238  26.462   6.162
 4852POPC   C2B63152   8.326  26.404   6.617
 4852POPC   C3B63153   8.120  26.434   7.034
 4852POPC   C4B63154   7.970  26.285   7.422
 4853POPC   NC363155  29.785  21.607   5.313
 4853POPC   PO463156  30.230  21.301   5.406
 4853POPC   GL163157  29.948  21.452   5.782
 4853POPC   GL263158  29.626  21.652   5.814
 4853POPC   C1A63159  29.938  21.528   6.244
 4853POPC   D2A63160  30.003  21.229   6.576
 4853POPC   C3A63161  29.966  21.292   7.014
 4853POPC   C4A63162  29.856  21.021   7.333
 4853POPC   C1B63163  29.442  21.416   6.199
 4853POPC   C2B63164  29.521  21.417   6.647
 4853POPC   C3B63165  29.570  21.598   7.099
 4853POPC   C4B63166  29.421  21.764   7.500
 4854POPC   NC363167  17.726  20.077   5.415
 4854POPC   PO463168  17.120  19.772   5.444
 4854POPC   GL163169  17.421  19.879   5.789
 4854POPC   GL263170  17.745  19.707   5.809
 4854POPC   C1A63171  17.544  19.972   6.214
 4854POPC   D2A63172  17.610  20.204   6.580
 4854POPC   C3A63173  17.804  20.075   6.930
 4854POPC   C4A63174  17.519  19.948   7.247
 4854POPC   C1B63175  17.818  19.548   6.250
 4854POPC   C2B63176  17.697  19.632   6.690
 4854POPC   C3B63177  17.881  19.591   7.124
 4854POPC   C4B63178  17.828  19.383   7.529
 4855POPC   NC363179   4.734  11.306   5.151
 4855POPC   PO463180   5.378  11.271   5.324
 4855POPC   GL163181   5.088  11.333   5.712
 4855POPC   GL263182   4.855  11.060   5.738
 4855POPC   C1A63183   4.938  11.476   6.166
 4855POPC   D2A63184   4.874  11.632   6.615
 4855POPC   C3A63185   5.186  11.472   6.915
 4855POPC   C4A63186   5.352  11.641   7.288
 4855POPC   C1B63187   5.012  10.943   6.151
 4855POPC   C2B63188   5.057  10.760   6.568
 4855POPC   C3B63189   5.263  10.893   6.945
 4855POPC   C4B63190   5.051  11.107   7.306
 4856POPC   NC363191  26.366  30.899   5.378
 4856POPC   PO463192  26.936  30.582   5.500
 4856POPC   GL163193  26.722  30.819   5.783
 4856POPC   GL263194  26.470  30.583   5.781
 4856POPC   C1A63195  26.820  30.705   6.209
 4856POPC   D2A63196  26.956  30.450   6.536
 4856POPC   C3A63197  27.050  30.704   6.867
 4856POPC   C4A63198  26.941  30.661   7.283
 4856POPC   C1B63199  26.311  30.767   6.144
 4856POPC   C2B63200  26.288  30.561   6.530
 4856POPC   C3B63201  26.533  30.551   6.907
 4856POPC   C4B63202  26.417  30.723   7.300
 4857POPC   NC363203  25.824   0.576   5.451
 4857POPC   PO463204  26.443   0.269   5.429
 4857POPC   GL163205  26.273   0.609   5.686
 4857POPC   GL263206  26.117   0.325   5.850
 4857POPC   C1A63207  26.043   0.722   6.096
 4857POPC   D2A63208  26.247   0.413   6.361
 4857POPC   C3A63209  26.165   0.375   6.817
 4857POPC   C4A63210  26.345   0.420   7.234
 4857POPC   C1B63211  25.885   0.088   6.223
 4857POPC   C2B63212  25.701   0.129   6.664
 4857POPC   C3B63213  25.871   0.001   7.069
 4857POPC   C4B63214  25.876   0.247   7.451
 4858POPC   NC363215   7.420  41.738   5.361
 4858POPC   PO463216   7.520  41.085   5.603
 4858POPC   GL163217   7.381  41.478   5.791
 4858POPC   GL263218   7.613  41.809   5.810
 4858POPC   C1A63219   7.256  41.735   6.150
 4858POPC   D2A63220   7.294  41.813   6.593
 4858POPC   C3A63221   7.306  41.446   6.824
 4858POPC   C4A63222   7.379  41.367   7.251
 4858POPC   C1B63223   7.748  41.543   6.131
 4858POPC   C2B63224   7.782  41.544   6.555
 4858POPC   C3B63225   7.828  41.429   6.990
 4858POPC   C4B63226   7.736  41.749   7.266
 4859POPC   NC363227  11.753  24.731   5.446
 4859POPC   PO463228  12.365  24.325   5.511
 4859POPC   GL163229  12.164  24.507   5.887
 4859POPC   GL263230  11.783  24.467   5.897
 4859POPC   C1A63231  12.190  24.369   6.326
 4859POPC   D2A63232  11.992  24.465   6.723
 4859POPC   C3A63233  12.261  24.552   7.056
 4859POPC   C4A63234  12.535  24.299   7.295
 4859POPC   C1B63235  11.777  24.655   6.289
 4859POPC   C2B63236  11.508  24.628   6.634
 4859POPC   C3B63237  11.621  24.526   7.068
 4859POPC   C4B63238  11.894  24.848   7.235
 4860POPC   NC363239  27.132  36.959   5.403
 4860POPC   PO463240  26.452  36.890   5.411
 4860POPC   GL163241  26.747  36.678   5.678
 4860POPC   GL263242  26.898  36.974   5.847
 4860POPC   C1A63243  26.805  36.513   6.119
 4860POPC   D2A63244  26.672  36.431   6.564
 4860POPC   C3A63245  26.648  36.774   6.884
 4860POPC   C4A63246  26.809  36.860   7.286
 4860POPC   C1B63247  27.212  36.834   6.137
 4860POPC   C2B63248  27.141  36.646   6.556
 4860POPC   C3B63249  27.186  36.887   6.955
 4860POPC   C4B63250  26.986  37.293   7.109
 4861POPC   NC363251  42.890   0.913   5.587
 4861POPC   PO463252  43.274   0.499   5.155
 4861POPC   GL163253  43.356   0.568   5.630
 4861POPC   GL263254  43.042   0.458   5.809
 4861POPC   C1A63255  43.428   0.478   6.112
 4861POPC   D2A63256  43.218   0.311   6.506
 4861POPC   C3A63257  43.324   0.509   6.931
 4861POPC   C4A63258  43.300   0.390   7.382
 4861POPC   C1B63259  42.816   0.245   6.142
 4861POPC   C2B63260  42.710   0.390   6.550
 4861POPC   C3B63261  42.882   0.278   6.936
 4861POPC   C4B63262  42.984   0.010   7.265
 4862POPC   NC363263   0.356  13.582   5.375
 4862POPC   PO463264   0.574  12.962   5.487
 4862POPC   GL163265   0.614  13.343   5.777
 4862POPC   GL263266   0.473  13.682   5.860
 4862POPC   C1A63267   0.848  13.396   6.185
 4862POPC   D2A63268   0.897  13.291   6.647
 4862POPC   C3A63269   0.613  13.514   6.967
 4862POPC   C4A63270   0.704  13.907   7.208
 4862POPC   C1B63271   0.332  13.431   6.225
 4862POPC   C2B63272   0.233  13.333   6.678
 4862POPC   C3B63273   0.024  13.469   7.079
 4862POPC   C4B63274  44.862  13.435   7.528
 4863POPC   NC363275  38.261  43.628   5.068
 4863POPC   PO463276  38.691  44.049   5.452
 4863POPC   GL163277  38.509  43.951   5.796
 4863POPC   GL263278  38.424  43.622   5.657
 4863POPC   C1A63279  38.597  44.073   6.220
 4863POPC   D2A63280  38.471  44.162   6.637
 4863POPC   C3A63281  38.710  43.992   6.989
 4863POPC   C4A63282  38.773  43.567   7.060
 4863POPC   C1B63283  38.625  43.564   6.094
 4863POPC   C2B63284  38.615  43.661   6.552
 4863POPC   C3B63285  38.287  43.700   6.878
 4863POPC   C4B63286  38.294  43.550   7.314
 4864POPC   NC363287  27.464  20.697   5.466
 4864POPC   PO463288  27.705  20.152   5.403
 4864POPC   GL163289  27.476  20.299   5.773
 4864POPC   GL263290  27.753  20.420   5.897
 4864POPC   C1A63291  27.362  20.532   6.171
 4864POPC   D2A63292  27.647  20.444   6.499
 4864POPC   C3A63293  27.640  20.650   6.871
 4864POPC   C4A63294  27.418  20.519   7.225
 4864POPC   C1B63295  27.843  20.793   6.173
 4864POPC   C2B63296  28.106  20.838   6.561
 4864POPC   C3B63297  28.128  20.786   7.017
 4864POPC   C4B63298  27.794  20.874   7.317
 4865POPC   NC363299  28.413   0.092   5.429
 4865POPC   PO463300  28.867  44.537   5.521
 4865POPC   GL163301  28.469  44.721   5.775
 4865POPC   GL263302  28.149  44.509   5.846
 4865POPC   C1A63303  28.285  44.967   6.145
 4865POPC   D2A63304  28.096  44.969   6.569
 4865POPC   C3A63305  28.312  44.737   6.898
 4865POPC   C4A63306  28.434  44.679   7.316
 4865POPC   C1B63307  28.400  44.483   6.217
 4865POPC   C2B63308  28.642  44.455   6.576
 4865POPC   C3B63309  28.616  44.301   6.979
 4865POPC   C4B63310  28.337  44.186   7.258
 4866POPC   NC363311  17.056  26.320   5.309
 4866POPC   PO463312  16.317  26.344   5.431
 4866POPC   GL163313  16.505  26.049   5.755
 4866POPC   GL263314  16.890  26.014   5.718
 4866POPC   C1A63315  16.624  26.103   6.196
 4866POPC   D2A63316  16.446  25.943   6.578
 4866POPC   C3A63317  16.608  26.109   6.902
 4866POPC   C4A63318  16.462  26.005   7.266
 4866POPC   C1B63319  17.042  25.809   6.117
 4866POPC   C2B63320  16.928  25.766   6.561
 4866POPC   C3B63321  16.952  25.653   6.992
 4866POPC   C4B63322  17.019  25.965   7.310
 4867POPC   NC363323   0.616  11.702   5.488
 4867POPC   PO463324   0.073  11.258   5.456
 4867POPC   GL163325   0.435  11.215   5.770
 4867POPC   GL263326   0.656  11.478   5.945
 4867POPC   C1A63327   0.543  11.011   6.168
 4867POPC   D2A63328   0.587  11.240   6.561
 4867POPC   C3A63329   0.529  11.074   6.977
 4867POPC   C4A63330   0.711  11.284   7.316
 4867POPC   C1B63331   0.360  11.695   6.225
 4867POPC   C2B63332   0.253  11.625   6.671
 4867POPC   C3B63333   0.292  11.525   7.107
 4867POPC   C4B63334  44.992  11.688   7.375
 4868POPC   NC363335  11.110  20.928   5.486
 4868POPC   PO463336  11.588  20.410   5.492
 4868POPC   GL163337  11.303  20.434   5.919
 4868POPC   GL263338  10.962  20.643   5.889
 4868POPC   C1A63339  11.366  20.331   6.397
 4868POPC   D2A63340  11.540  20.655   6.717
 4868POPC   C3A63341  11.426  20.625   7.141
 4868POPC   C4A63342  11.277  20.239   7.256
 4868POPC   C1B63343  11.096  20.739   6.331
 4868POPC   C2B63344  11.049  20.511   6.766
 4868POPC   C3B63345  10.899  20.593   7.156
 4868POPC   C4B63346  11.017  20.962   7.246
 4869POPC   NC363347  25.518   9.955   5.036
 4869POPC   PO463348  24.965   9.774   5.326
 4869POPC   GL163349  25.178   9.648   5.839
 4869POPC   GL263350  25.400   9.894   6.009
 4869POPC   C1A63351  25.220   9.408   6.216
 4869POPC   D2A63352  25.362   9.628   6.559
 4869POPC   C3A63353  25.193   9.509   6.943
 4869POPC   C4A63354  25.324   9.620   7.408
 4869POPC   C1B63355  25.287  10.218   6.290
 4869POPC   C2B63356  25.086  10.098   6.667
 4869POPC   C3B63357  25.297   9.992   7.036
 4869POPC   C4B63358  25.148  10.111   7.412
 4870POPC   NC363359  34.428  26.828   5.348
 4870POPC   PO463360  34.535  27.288   5.817
 4870POPC   GL163361  34.530  26.828   5.865
 4870POPC   GL263362  34.825  26.643   5.724
 4870POPC   C1A63363  34.539  26.749   6.301
 4870POPC   D2A63364  34.814  26.884   6.612
 4870POPC   C3A63365  34.626  26.972   6.983
 4870POPC   C4A63366  34.255  26.791   7.116
 4870POPC   C1B63367  34.916  26.462   6.107
 4870POPC   C2B63368  34.828  26.369   6.505
 4870POPC   C3B63369  34.667  26.463   6.894
 4870POPC   C4B63370  34.510  26.384   7.293
 4871POPC   NC363371   8.659  31.526   5.518
 4871POPC   PO463372   8.031  31.254   5.464
 4871POPC   GL163373   8.117  31.573   5.809
 4871POPC   GL263374   8.415  31.460   5.963
 4871POPC   C1A63375   8.108  31.705   6.286
 4871POPC   D2A63376   7.991  31.530   6.722
 4871POPC   C3A63377   8.333  31.403   7.020
 4871POPC   C4A63378   8.348  31.534   7.477
 4871POPC   C1B63379   8.101  31.182   6.170
 4871POPC   C2B63380   8.082  31.020   6.597
 4871POPC   C3B63381   7.884  31.008   6.974
 4871POPC   C4B63382   8.021  31.180   7.339
 4872POPC   NC363383   4.514  14.343   5.570
 4872POPC   PO463384   4.014  14.132   5.230
 4872POPC   GL163385   4.051  14.126   5.699
 4872POPC   GL263386   4.329  13.966   5.849
 4872POPC   C1A63387   4.023  14.328   6.141
 4872POPC   D2A63388   4.146  14.553   6.554
 4872POPC   C3A63389   4.024  14.366   6.955
 4872POPC   C4A63390   4.136  14.426   7.378
 4872POPC   C1B63391   4.460  14.091   6.290
 4872POPC   C2B63392   4.428  14.149   6.750
 4872POPC   C3B63393   4.549  14.501   7.063
 4872POPC   C4B63394   4.598  14.462   7.569
 4873POPC   NC363395  11.286  28.498   5.359
 4873POPC   PO463396  11.458  27.881   5.385
 4873POPC   GL163397  11.325  28.149   5.788
 4873POPC   GL263398  11.395  28.508   5.845
 4873POPC   C1A63399  11.431  28.189   6.261
 4873POPC   D2A63400  11.497  28.031   6.721
 4873POPC   C3A63401  11.341  28.218   7.093
 4873POPC   C4A63402  10.933  28.152   7.255
 4873POPC   C1B63403  11.630  28.663   6.182
 4873POPC   C2B63404  11.623  28.544   6.608
 4873POPC   C3B63405  11.437  28.716   6.970
 4873POPC   C4B63406  11.576  28.879   7.372
 4874POPC   NC363407  10.164   2.592   5.174
 4874POPC   PO463408   9.738   2.657   5.668
 4874POPC   GL163409   9.887   2.794   6.025
 4874POPC   GL263410   9.911   3.130   5.895
 4874POPC   C1A63411  10.045   2.596   6.426
 4874POPC   D2A63412  10.263   2.499   6.844
 4874POPC   C3A63413   9.983   2.602   7.191
 4874POPC   C4A63414   9.515   2.578   7.165
 4874POPC   C1B63415   9.719   3.152   6.338
 4874POPC   C2B63416   9.417   2.995   6.665
 4874POPC   C3B63417   9.421   3.075   7.098
 4874POPC   C4B63418   9.835   3.096   7.159
 4875POPC   NC363419   3.697  41.047   5.429
 4875POPC   PO463420   3.538  41.738   5.383
 4875POPC   GL163421   3.435  41.755   5.796
 4875POPC   GL263422   3.438  41.395   5.814
 4875POPC   C1A63423   3.322  41.658   6.238
 4875POPC   D2A63424   3.607  41.714   6.593
 4875POPC   C3A63425   3.384  41.681   6.971
 4875POPC   C4A63426   3.338  41.888   7.321
 4875POPC   C1B63427   3.802  41.531   6.102
 4875POPC   C2B63428   3.989  41.378   6.496
 4875POPC   C3B63429   3.770  41.293   6.903
 4875POPC   C4B63430   3.589  41.364   7.324
 4876POPC   NC363431   8.518  26.384   5.379
 4876POPC   PO463432   7.980  25.811   5.395
 4876POPC   GL163433   8.066  26.002   5.810
 4876POPC   GL263434   8.425  26.084   5.784
 4876POPC   C1A63435   8.057  25.970   6.288
 4876POPC   D2A63436   7.948  26.060   6.725
 4876POPC   C3A63437   8.150  25.917   7.098
 4876POPC   C4A63438   7.975  25.774   7.470
 4876POPC   C1B63439   8.582  26.086   6.203
 4876POPC   C2B63440   8.495  25.936   6.627
 4876POPC   C3B63441   8.606  26.133   7.011
 4876POPC   C4B63442   8.663  25.804   7.291
 4877POPC   NC363443  12.001  23.142   5.416
 4877POPC   PO463444  11.769  22.525   5.443
 4877POPC   GL163445  11.939  22.794   5.824
 4877POPC   GL263446  12.210  23.104   5.881
 4877POPC   C1A63447  12.122  22.762   6.252
 4877POPC   D2A63448  12.171  22.993   6.633
 4877POPC   C3A63449  12.027  22.773   6.978
 4877POPC   C4A63450  11.642  22.677   7.152
 4877POPC   C1B63451  12.290  23.339   6.267
 4877POPC   C2B63452  12.316  23.513   6.697
 4877POPC   C3B63453  12.189  23.268   7.067
 4877POPC   C4B63454  11.827  23.226   7.331
 4878POPC   NC363455   0.177  39.351   5.329
 4878POPC   PO463456   0.808  39.314   5.507
 4878POPC   GL163457   0.572  39.277   5.884
 4878POPC   GL263458   0.193  39.299   5.856
 4878POPC   C1A63459   0.506  39.366   6.322
 4878POPC   D2A63460   0.651  39.241   6.715
 4878POPC   C3A63461   0.701  39.338   7.138
 4878POPC   C4A63462   0.952  39.191   7.443
 4878POPC   C1B63463   0.005  39.236   6.270
 4878POPC   C2B63464  44.880  39.417   6.641
 4878POPC   C3B63465   0.179  39.273   6.902
 4878POPC   C4B63466   0.211  39.186   7.283
 4879POPC   NC363467  38.928   1.778   5.357
 4879POPC   PO463468  39.546   2.012   5.261
 4879POPC   GL163469  39.199   2.038   5.694
 4879POPC   GL263470  39.111   1.743   5.922
 4879POPC   C1A63471  38.957   2.172   6.128
 4879POPC   D2A63472  39.005   1.915   6.547
 4879POPC   C3A63473  38.917   2.034   7.013
 4879POPC   C4A63474  39.126   1.932   7.401
 4879POPC   C1B63475  39.438   1.561   6.209
 4879POPC   C2B63476  39.366   1.505   6.621
 4879POPC   C3B63477  39.328   1.709   6.985
 4879POPC   C4B63478  39.541   1.614   7.351
 4880POPC   NC363479  20.896  18.231   5.547
 4880POPC   PO463480  20.227  18.272   5.506
 4880POPC   GL163481  20.396  18.534   5.847
 4880POPC   GL263482  20.776  18.512   5.943
 4880POPC   C1A63483  20.447  18.623   6.287
 4880POPC   D2A63484  20.647  18.511   6.654
 4880POPC   C3A63485  20.375  18.266   6.877
 4880POPC   C4A63486  20.312  18.355   7.295
 4880POPC   C1B63487  20.692  18.159   6.269
 4880POPC   C2B63488  20.838  18.039   6.713
 4880POPC   C3B63489  20.824  18.277   7.102
 4880POPC   C4B63490  20.746  18.213   7.533
 4881POPC   NC363491   4.429  31.052   5.367
 4881POPC   PO463492   4.613  31.648   5.488
 4881POPC   GL163493   4.297  31.427   5.719
 4881POPC   GL263494   3.995  31.605   5.810
 4881POPC   C1A63495   4.417  31.259   6.107
 4881POPC   D2A63496   4.626  31.434   6.460
 4881POPC   C3A63497   4.564  31.211   6.847
 4881POPC   C4A63498   4.403  31.463   7.136
 4881POPC   C1B63499   3.916  31.349   6.189
 4881POPC   C2B63500   4.110  31.309   6.571
 4881POPC   C3B63501   3.950  31.499   6.929
 4881POPC   C4B63502   3.926  31.231   7.260
 4882POPC   NC363503   6.293  11.745   5.442
 4882POPC   PO463504   6.885  12.148   5.465
 4882POPC   GL163505   6.679  12.192   5.828
 4882POPC   GL263506   6.598  11.851   5.835
 4882POPC   C1A63507   6.633  12.374   6.247
 4882POPC   D2A63508   6.553  12.169   6.660
 4882POPC   C3A63509   6.650  12.317   7.050
 4882POPC   C4A63510   6.570  12.162   7.470
 4882POPC   C1B63511   6.773  11.718   6.198
 4882POPC   C2B63512   6.640  11.624   6.596
 4882POPC   C3B63513   6.697  11.780   6.993
 4882POPC   C4B63514   6.515  11.672   7.370
 4883POPC   NC363515  41.943  20.318   5.337
 4883POPC   PO463516  41.514  19.877   5.330
 4883POPC   GL163517  41.460  20.046   5.754
 4883POPC   GL263518  41.097  19.941   5.796
 4883POPC   C1A63519  41.625  19.919   6.189
 4883POPC   D2A63520  41.854  19.751   6.564
 4883POPC   C3A63521  41.759  19.879   7.002
 4883POPC   C4A63522  41.510  20.028   7.346
 4883POPC   C1B63523  41.277  19.580   6.007
 4883POPC   C2B63524  41.413  19.450   6.418
 4883POPC   C3B63525  41.258  19.472   6.817
 4883POPC   C4B63526  41.413  19.540   7.197
 4884POPC   NC363527   1.524  38.092   5.471
 4884POPC   PO463528   1.135  37.623   5.325
 4884POPC   GL163529   1.357  37.672   5.739
 4884POPC   GL263530   1.333  37.928   5.948
 4884POPC   C1A63531   1.419  37.464   6.152
 4884POPC   D2A63532   1.202  37.298   6.527
 4884POPC   C3A63533   1.276  37.456   6.953
 4884POPC   C4A63534   1.251  37.846   7.165
 4884POPC   C1B63535   1.024  38.049   6.281
 4884POPC   C2B63536   1.047  37.992   6.695
 4884POPC   C3B63537   0.873  38.200   7.032
 4884POPC   C4B63538   0.730  38.009   7.379
 4885POPC   NC363539  23.470  30.194   5.414
 4885POPC   PO463540  24.049  29.922   5.524
 4885POPC   GL163541  23.746  30.007   5.865
 4885POPC   GL263542  23.449  30.243   5.909
 4885POPC   C1A63543  23.830  30.038   6.315
 4885POPC   D2A63544  23.906  30.253   6.708
 4885POPC   C3A63545  23.877  29.919   7.004
 4885POPC   C4A63546  23.906  29.897   7.455
 4885POPC   C1B63547  23.336  29.962   6.207
 4885POPC   C2B63548  23.335  29.737   6.571
 4885POPC   C3B63549  23.287  29.770   6.974
 4885POPC   C4B63550  23.434  30.066   7.220
 4886POPC   NC363551  15.490  27.157   5.462
 4886POPC   PO463552  16.148  27.185   5.210
 4886POPC   GL163553  16.012  26.981   5.642
 4886POPC   GL263554  15.729  26.759   5.744
 4886POPC   C1A63555  16.028  26.971   6.145
 4886POPC   D2A63556  15.979  26.994   6.629
 4886POPC   C3A63557  16.150  27.198   7.026
 4886POPC   C4A63558  16.087  27.170   7.476
 4886POPC   C1B63559  15.580  26.675   6.187
 4886POPC   C2B63560  15.726  26.557   6.622
 4886POPC   C3B63561  15.791  26.720   7.055
 4886POPC   C4B63562  15.646  26.483   7.444
 4887POPC   NC363563  30.206  38.524   5.144
 4887POPC   PO463564  30.724  38.220   5.423
 4887POPC   GL163565  30.732  38.408   5.864
 4887POPC   GL263566  30.709  38.737   5.770
 4887POPC   C1A63567  30.777  38.281   6.267
 4887POPC   D2A63568  30.481  38.200   6.592
 4887POPC   C3A63569  30.604  38.350   6.990
 4887POPC   C4A63570  30.974  38.323   7.217
 4887POPC   C1B63571  30.830  38.837   6.186
 4887POPC   C2B63572  30.762  38.679   6.607
 4887POPC   C3B63573  30.646  38.871   6.993
 4887POPC   C4B63574  30.684  38.770   7.424
 4888POPC   NC363575  36.413  16.293   5.347
 4888POPC   PO463576  35.983  15.839   5.414
 4888POPC   GL163577  36.288  15.869   5.743
 4888POPC   GL263578  36.327  16.238   5.835
 4888POPC   C1A63579  36.277  15.735   6.181
 4888POPC   D2A63580  36.255  15.876   6.617
 4888POPC   C3A63581  35.918  15.718   6.850
 4888POPC   C4A63582  35.951  15.480   7.203
 4888POPC   C1B63583  36.028  16.182   6.178
 4888POPC   C2B63584  35.827  16.180   6.573
 4888POPC   C3B63585  35.996  16.214   6.972
 4888POPC   C4B63586  36.191  15.921   7.246
 4889POPC   NC363587  37.626  38.674   5.213
 4889POPC   PO463588  37.478  38.067   5.478
 4889POPC   GL163589  37.747  38.412   5.673
 4889POPC   GL263590  37.526  38.681   5.762
 4889POPC   C1A63591  38.010  38.596   6.031
 4889POPC   D2A63592  37.942  38.583   6.493
 4889POPC   C3A63593  37.878  38.567   6.979
 4889POPC   C4A63594  37.927  38.254   7.338
 4889POPC   C1B63595  37.536  38.482   6.183
 4889POPC   C2B63596  37.444  38.494   6.643
 4889POPC   C3B63597  37.476  38.275   7.084
 4889POPC   C4B63598  37.325  38.134   7.511
 4890POPC   NC363599  37.842  40.750   5.386
 4890POPC   PO463600  37.194  40.666   5.435
 4890POPC   GL163601  37.424  40.878   5.782
 4890POPC   GL263602  37.804  40.949   5.850
 4890POPC   C1A63603  37.418  40.905   6.225
 4890POPC   D2A63604  37.542  40.680   6.592
 4890POPC   C3A63605  37.522  40.829   7.004
 4890POPC   C4A63606  37.738  40.534   7.275
 4890POPC   C1B63607  37.922  40.718   6.221
 4890POPC   C2B63608  38.128  40.766   6.614
 4890POPC   C3B63609  38.021  40.967   6.999
 4890POPC   C4B63610  38.189  40.778   7.329
 4891POPC   NC363611  10.165  27.716   5.366
 4891POPC   PO463612   9.703  27.303   5.485
 4891POPC   GL163613   9.766  27.450   5.880
 4891POPC   GL263614   9.958  27.785   5.880
 4891POPC   C1A63615   9.660  27.381   6.291
 4891POPC   D2A63616   9.928  27.537   6.559
 4891POPC   C3A63617   9.788  27.379   6.901
 4891POPC   C4A63618   9.771  27.325   7.343
 4891POPC   C1B63619   9.628  27.886   6.218
 4891POPC   C2B63620   9.479  27.743   6.661
 4891POPC   C3B63621   9.557  27.758   7.127
 4891POPC   C4B63622   9.853  27.840   7.427
 4892POPC   NC363623  19.797  26.851   5.564
 4892POPC   PO463624  19.945  26.296   5.296
 4892POPC   GL163625  19.769  26.389   5.774
 4892POPC   GL263626  20.058  26.441   6.005
 4892POPC   C1A63627  19.645  26.647   6.179
 4892POPC   D2A63628  19.659  26.857   6.602
 4892POPC   C3A63629  20.002  27.085   6.841
 4892POPC   C4A63630  19.836  27.087   7.263
 4892POPC   C1B63631  20.174  26.567   6.385
 4892POPC   C2B63632  20.075  26.421   6.768
 4892POPC   C3B63633  19.866  26.636   7.046
 4892POPC   C4B63634  19.901  26.592   7.472
 4893POPC   NC363635  43.515  36.767   5.439
 4893POPC   PO463636  44.166  36.803   5.242
 4893POPC   GL163637  44.014  37.004   5.670
 4893POPC   GL263638  44.225  37.263   5.835
 4893POPC   C1A63639  43.967  36.932   6.152
 4893POPC   D2A63640  43.670  36.817   6.508
 4893POPC   C3A63641  43.679  36.677   6.963
 4893POPC   C4A63642  43.681  36.885   7.391
 4893POPC   C1B63643  44.385  37.223   6.279
 4893POPC   C2B63644  44.173  37.025   6.637
 4893POPC   C3B63645  44.059  37.048   7.079
 4893POPC   C4B63646  44.179  37.203   7.537
 4894POPC   NC363647  32.396   7.518   5.420
 4894POPC   PO463648  31.840   7.454   5.453
 4894POPC   GL163649  32.099   7.478   5.855
 4894POPC   GL263650  31.955   7.741   6.026
 4894POPC   C1A63651  32.399   7.454   6.248
 4894POPC   D2A63652  32.571   7.230   6.650
 4894POPC   C3A63653  32.350   7.102   7.065
 4894POPC   C4A63654  31.989   7.325   7.283
 4894POPC   C1B63655  31.906   7.448   6.378
 4894POPC   C2B63656  32.089   7.450   6.791
 4894POPC   C3B63657  32.128   7.796   7.100
 4894POPC   C4B63658  31.916   8.136   7.382
 4895POPC   NC363659   1.153   2.701   5.134
 4895POPC   PO463660   0.426   2.670   5.190
 4895POPC   GL163661   0.412   2.769   5.653
 4895POPC   GL263662   0.606   3.057   5.757
 4895POPC   C1A63663   0.394   2.731   6.127
 4895POPC   D2A63664   0.479   2.575   6.536
 4895POPC   C3A63665   0.413   2.838   6.901
 4895POPC   C4A63666   0.626   2.736   7.276
 4895POPC   C1B63667   0.284   3.222   6.043
 4895POPC   C2B63668   0.249   3.230   6.501
 4895POPC   C3B63669   0.004   3.177   6.888
 4895POPC   C4B63670   0.027   2.954   7.250
 4896POPC   NC363671  30.835  25.186   5.426
 4896POPC   PO463672  30.238  25.512   5.410
 4896POPC   GL163673  30.518  25.588   5.811
 4896POPC   GL263674  30.790  25.345   5.881
 4896POPC   C1A63675  30.632  25.567   6.271
 4896POPC   D2A63676  30.979  25.627   6.521
 4896POPC   C3A63677  31.026  25.408   6.907
 4896POPC   C4A63678  30.868  25.465   7.321
 4896POPC   C1B63679  30.935  25.131   6.245
 4896POPC   C2B63680  31.121  24.966   6.631
 4896POPC   C3B63681  30.955  24.935   7.092
 4896POPC   C4B63682  31.166  25.087   7.479
 4897POPC   NC363683  31.697  34.360   5.101
 4897POPC   PO463684  32.249  34.684   5.368
 4897POPC   GL163685  32.395  34.627   5.809
 4897POPC   GL263686  32.035  34.604   5.844
 4897POPC   C1A63687  32.299  34.377   6.211
 4897POPC   D2A63688  32.218  34.556   6.606
 4897POPC   C3A63689  32.126  34.338   6.940
 4897POPC   C4A63690  32.261  34.459   7.319
 4897POPC   C1B63691  32.019  34.844   6.230
 4897POPC   C2B63692  31.849  34.912   6.679
 4897POPC   C3B63693  31.945  34.830   7.109
 4897POPC   C4B63694  31.949  34.782   7.555
 4898POPC   NC363695  36.840  17.196   5.379
 4898POPC   PO463696  37.287  17.688   5.477
 4898POPC   GL163697  37.170  17.340   5.761
 4898POPC   GL263698  37.031  17.578   6.006
 4898POPC   C1A63699  36.922  17.086   6.064
 4898POPC   D2A63700  36.959  17.016   6.484
 4898POPC   C3A63701  36.937  17.294   6.822
 4898POPC   C4A63702  36.875  17.212   7.284
 4898POPC   C1B63703  36.708  17.473   6.340
 4898POPC   C2B63704  36.491  17.574   6.724
 4898POPC   C3B63705  36.687  17.661   7.072
 4898POPC   C4B63706  37.095  17.701   7.111
 4899POPC   NC363707  17.833   8.364   5.456
 4899POPC   PO463708  17.256   7.979   5.466
 4899POPC   GL163709  17.543   8.046   5.819
 4899POPC   GL263710  17.508   8.385   5.838
 4899POPC   C1A63711  17.575   8.004   6.276
 4899POPC   D2A63712  17.287   7.942   6.630
 4899POPC   C3A63713  17.330   8.172   6.996
 4899POPC   C4A63714  17.534   7.950   7.238
 4899POPC   C1B63715  17.521   8.551   6.230
 4899POPC   C2B63716  17.582   8.411   6.630
 4899POPC   C3B63717  17.848   8.212   6.926
 4899POPC   C4B63718  17.869   8.313   7.361
 4900POPC   NC363719  40.251  26.205   5.462
 4900POPC   PO463720  39.924  25.634   5.506
 4900POPC   GL163721  39.991  25.857   5.895
 4900POPC   GL263722  40.060  26.213   5.931
 4900POPC   C1A63723  40.017  25.894   6.351
 4900POPC   D2A63724  39.982  26.181   6.692
 4900POPC   C3A63725  39.915  25.901   7.027
 4900POPC   C4A63726  40.261  25.677   7.153
 4900POPC   C1B63727  39.690  26.267   6.180
 4900POPC   C2B63728  39.555  26.449   6.566
 4900POPC   C3B63729  39.589  26.298   7.004
 4900POPC   C4B63730  39.660  26.162   7.438
 4901POPC   NC363731  18.991  31.172   5.242
 4901POPC   PO463732  19.361  30.704   5.530
 4901POPC   GL163733  19.050  30.601   5.820
 4901POPC   GL263734  18.887  30.933   5.712
 4901POPC   C1A63735  19.176  30.341   6.193
 4901POPC   D2A63736  19.164  30.574   6.601
 4901POPC   C3A63737  19.268  30.441   7.035
 4901POPC   C4A63738  19.170  30.649   7.438
 4901POPC   C1B63739  18.687  31.055   6.088
 4901POPC   C2B63740  18.882  31.023   6.478
 4901POPC   C3B63741  18.913  30.900   6.897
 4901POPC   C4B63742  18.873  31.022   7.289
 4902POPC   NC363743  40.221  21.906   5.329
 4902POPC   PO463744  39.617  22.024   5.393
 4902POPC   GL163745  39.912  22.023   5.740
 4902POPC   GL263746  39.748  21.874   6.012
 4902POPC   C1A63747  40.012  22.314   6.112
 4902POPC   D2A63748  40.176  22.228   6.541
 4902POPC   C3A63749  40.072  22.361   6.962
 4902POPC   C4A63750  40.241  22.199   7.347
 4902POPC   C1B63751  39.673  22.026   6.360
 4902POPC   C2B63752  39.731  22.014   6.761
 4902POPC   C3B63753  39.586  21.930   7.127
 4902POPC   C4B63754  39.557  21.545   7.239
 4903POPC   NC363755  26.623  38.389   5.248
 4903POPC   PO463756  27.082  38.152   5.468
 4903POPC   GL163757  27.006  38.421   5.848
 4903POPC   GL263758  26.750  38.685   5.814
 4903POPC   C1A63759  26.935  38.391   6.307
 4903POPC   D2A63760  26.636  38.431   6.663
 4903POPC   C3A63761  26.773  38.337   7.094
 4903POPC   C4A63762  26.876  38.079   7.480
 4903POPC   C1B63763  26.654  38.812   6.266
 4903POPC   C2B63764  26.677  38.932   6.710
 4903POPC   C3B63765  26.886  38.858   7.096
 4903POPC   C4B63766  26.686  38.829   7.531
 4904POPC   NC363767  36.733  12.417   5.694
 4904POPC   PO463768  36.793  12.926   5.167
 4904POPC   GL163769  36.911  12.921   5.638
 4904POPC   GL263770  36.602  12.930   5.795
 4904POPC   C1A63771  36.973  13.085   6.115
 4904POPC   D2A63772  36.771  13.256   6.523
 4904POPC   C3A63773  36.849  13.043   6.959
 4904POPC   C4A63774  37.166  12.849   7.275
 4904POPC   C1B63775  36.579  12.738   6.210
 4904POPC   C2B63776  36.793  12.711   6.572
 4904POPC   C3B63777  36.926  12.542   6.948
 4904POPC   C4B63778  36.708  12.601   7.319
 4905POPC   NC363779  44.778   2.734   5.554
 4905POPC   PO463780  44.102   2.693   5.579
 4905POPC   GL163781  44.389   2.717   5.895
 4905POPC   GL263782  44.497   3.068   5.968
 4905POPC   C1A63783  44.388   2.726   6.327
 4905POPC   D2A63784  44.577   2.984   6.621
 4905POPC   C3A63785  44.598   2.808   6.999
 4905POPC   C4A63786  44.358   2.514   7.223
 4905POPC   C1B63787  44.879   2.919   6.209
 4905POPC   C2B63788   0.008   2.724   6.613
 4905POPC   C3B63789  44.987   2.488   7.013
 4905POPC   C4B63790  44.803   2.555   7.477
 4906POPC   NC363791   6.793  18.522   5.567
 4906POPC   PO463792   6.130  18.325   5.498
 4906POPC   GL163793   6.377  18.147   5.822
 4906POPC   GL263794   6.729  18.060   5.800
 4906POPC   C1A63795   6.560  18.367   6.175
 4906POPC   D2A63796   6.421  18.464   6.545
 4906POPC   C3A63797   6.638  18.563   6.873
 4906POPC   C4A63798   6.419  18.637   7.210
 4906POPC   C1B63799   6.946  18.043   6.211
 4906POPC   C2B63800   6.987  18.223   6.617
 4906POPC   C3B63801   6.856  18.108   7.022
 4906POPC   C4B63802   6.509  18.138   7.252
 4907POPC   NC363803  27.819  21.622   5.335
 4907POPC   PO463804  28.446  21.342   5.183
 4907POPC   GL163805  28.352  21.326   5.651
 4907POPC   GL263806  28.050  21.486   5.819
 4907POPC   C1A63807  28.506  21.308   6.085
 4907POPC   D2A63808  28.521  21.501   6.502
 4907POPC   C3A63809  28.310  21.310   6.874
 4907POPC   C4A63810  28.219  21.196   7.308
 4907POPC   C1B63811  27.883  21.771   6.174
 4907POPC   C2B63812  27.929  21.685   6.649
 4907POPC   C3B63813  28.089  21.745   7.077
 4907POPC   C4B63814  28.116  21.633   7.546
 4908POPC   NC363815  33.412  36.220   5.562
 4908POPC   PO463816  33.984  36.025   5.322
 4908POPC   GL163817  33.911  35.972   5.756
 4908POPC   GL263818  34.070  36.241   5.937
 4908POPC   C1A63819  33.649  35.933   6.139
 4908POPC   D2A63820  33.758  35.751   6.550
 4908POPC   C3A63821  33.665  35.846   6.964
 4908POPC   C4A63822  34.088  35.918   7.098
 4908POPC   C1B63823  34.031  36.178   6.391
 4908POPC   C2B63824  33.600  36.244   6.552
 4908POPC   C3B63825  33.467  36.333   6.936
 4908POPC   C4B63826  33.791  36.327   7.162
 4909POPC   NC363827  44.885  32.613   5.429
 4909POPC   PO463828  44.691  33.316   5.272
 4909POPC   GL163829  44.631  33.199   5.716
 4909POPC   GL263830  44.507  32.832   5.746
 4909POPC   C1A63831  44.831  33.262   6.133
 4909POPC   D2A63832  44.662  33.217   6.535
 4909POPC   C3A63833  44.647  33.397   6.909
 4909POPC   C4A63834  44.715  33.249   7.300
 4909POPC   C1B63835  44.616  32.791   6.192
 4909POPC   C2B63836  44.433  32.783   6.614
 4909POPC   C3B63837  44.553  32.833   7.036
 4909POPC   C4B63838  44.881  32.602   7.242
 4910POPC   NC363839  29.204  22.299   5.387
 4910POPC   PO463840  28.657  21.988   5.569
 4910POPC   GL163841  28.932  22.267   5.823
 4910POPC   GL263842  29.319  22.155   5.859
 4910POPC   C1A63843  29.031  22.329   6.255
 4910POPC   D2A63844  28.879  22.081   6.613
 4910POPC   C3A63845  28.812  22.268   7.053
 4910POPC   C4A63846  28.863  22.409   7.515
 4910POPC   C1B63847  29.340  21.911   6.258
 4910POPC   C2B63848  29.366  21.904   6.721
 4910POPC   C3B63849  29.085  21.765   7.058
 4910POPC   C4B63850  28.927  21.919   7.432
 4911POPC   NC363851  31.168  41.789   5.512
 4911POPC   PO463852  31.650  41.421   5.087
 4911POPC   GL163853  31.535  41.430   5.579
 4911POPC   GL263854  31.663  41.772   5.723
 4911POPC   C1A63855  31.498  41.431   6.090
 4911POPC   D2A63856  31.232  41.451   6.503
 4911POPC   C3A63857  31.368  41.568   6.945
 4911POPC   C4A63858  31.456  41.443   7.404
 4911POPC   C1B63859  31.560  41.936   6.149
 4911POPC   C2B63860  31.395  41.974   6.561
 4911POPC   C3B63861  31.251  42.083   6.963
 4911POPC   C4B63862  31.409  41.959   7.324
 4912POPC   NC363863  43.167  43.528   5.868
 4912POPC   PO463864  43.312  42.945   5.453
 4912POPC   GL163865  43.302  43.015   5.858
 4912POPC   GL263866  42.951  43.030   5.849
 4912POPC   C1A63867  43.491  43.162   6.261
 4912POPC   D2A63868  43.243  43.161   6.623
 4912POPC   C3A63869  43.351  43.163   7.057
 4912POPC   C4A63870  43.065  43.361   7.338
 4912POPC   C1B63871  42.735  42.790   6.171
 4912POPC   C2B63872  42.738  42.899   6.593
 4912POPC   C3B63873  42.833  43.169   6.919
 4912POPC   C4B63874  42.893  42.906   7.265
 4913POPC   NC363875   3.128  41.504   5.388
 4913POPC   PO463876   2.558  41.260   5.574
 4913POPC   GL163877   2.919  41.338   5.856
 4913POPC   GL263878   2.946  41.673   5.848
 4913POPC   C1A63879   2.860  41.404   6.309
 4913POPC   D2A63880   2.474  41.406   6.544
 4913POPC   C3A63881   2.454  41.680   6.916
 4913POPC   C4A63882   2.592  41.338   7.181
 4913POPC   C1B63883   2.607  41.806   6.077
 4913POPC   C2B63884   2.679  41.884   6.485
 4913POPC   C3B63885   2.928  41.663   6.768
 4913POPC   C4B63886   2.873  41.749   7.213
 4914POPC   NC363887  43.516  35.099   5.460
 4914POPC   PO463888  44.099  35.176   5.114
 4914POPC   GL163889  44.055  35.208   5.620
 4914POPC   GL263890  43.791  35.055   5.862
 4914POPC   C1A63891  44.142  35.269   6.114
 4914POPC   D2A63892  44.030  35.537   6.478
 4914POPC   C3A63893  43.846  35.451   6.898
 4914POPC   C4A63894  43.892  35.074   7.167
 4914POPC   C1B63895  43.628  35.177   6.287
 4914POPC   C2B63896  43.572  35.047   6.726
 4914POPC   C3B63897  43.400  35.178   7.119
 4914POPC   C4B63898  43.565  35.106   7.559
 4915POPC   NC363899   0.739  37.475   5.515
 4915POPC   PO463900   0.263  37.872   5.443
 4915POPC   GL163901   0.481  37.845   5.822
 4915POPC   GL263902   0.842  37.916   5.797
 4915POPC   C1A63903   0.433  37.841   6.251
 4915POPC   D2A63904   0.538  37.994   6.641
 4915POPC   C3A63905   0.332  37.924   7.046
 4915POPC   C4A63906   0.368  37.608   7.354
 4915POPC   C1B63907   0.905  37.583   6.130
 4915POPC   C2B63908   0.736  37.523   6.543
 4915POPC   C3B63909   0.771  37.663   6.968
 4915POPC   C4B63910   0.885  37.527   7.336
 4916POPC   NC363911  41.734  26.799   5.358
 4916POPC   PO463912  41.238  27.230   5.553
 4916POPC   GL163913  41.569  27.087   5.757
 4916POPC   GL263914  41.442  26.753   5.822
 4916POPC   C1A63915  41.626  27.057   6.181
 4916POPC   D2A63916  41.545  26.812   6.514
 4916POPC   C3A63917  41.877  26.853   6.793
 4916POPC   C4A63918  41.822  27.062   7.172
 4916POPC   C1B63919  41.128  26.545   6.125
 4916POPC   C2B63920  41.181  26.431   6.581
 4916POPC   C3B63921  41.381  26.577   6.961
 4916POPC   C4B63922  41.783  26.537   7.172
 4917POPC   NC363923   7.794  15.166   5.604
 4917POPC   PO463924   7.343  14.783   5.267
 4917POPC   GL163925   7.351  14.944   5.746
 4917POPC   GL263926   7.640  14.817   6.009
 4917POPC   C1A63927   7.386  15.230   6.129
 4917POPC   D2A63928   7.782  15.162   6.390
 4917POPC   C3A63929   7.924  15.419   6.758
 4917POPC   C4A63930   7.768  15.404   7.172
 4917POPC   C1B63931   7.349  14.798   6.398
 4917POPC   C2B63932   7.182  14.843   6.832
 4917POPC   C3B63933   7.299  14.984   7.252
 4917POPC   C4B63934   7.414  14.848   7.693
 4918POPC   NC363935  34.134   0.140   5.674
 4918POPC   PO463936  33.862  44.562   5.352
 4918POPC   GL163937  33.873  44.651   5.813
 4918POPC   GL263938  33.700  44.391   6.034
 4918POPC   C1A63939  34.043  44.816   6.229
 4918POPC   D2A63940  33.907   0.024   6.617
 4918POPC   C3A63941  34.014  44.847   7.029
 4918POPC   C4A63942  33.851  44.479   7.172
 4918POPC   C1B63943  33.524  44.797   6.231
 4918POPC   C2B63944  33.373  44.956   6.638
 4918POPC   C3B63945  33.474  44.843   7.066
 4918POPC   C4B63946  33.541  44.720   7.495
 4919POPC   NC363947   7.732  33.285   5.503
 4919POPC   PO463948   8.283  32.832   5.295
 4919POPC   GL163949   8.282  33.072   5.701
 4919POPC   GL263950   8.335  33.418   5.869
 4919POPC   C1A63951   8.113  32.973   6.105
 4919POPC   D2A63952   7.957  33.138   6.480
 4919POPC   C3A63953   8.086  32.994   6.872
 4919POPC   C4A63954   7.952  33.021   7.288
 4919POPC   C1B63955   8.391  33.351   6.322
 4919POPC   C2B63956   8.549  33.197   6.743
 4919POPC   C3B63957   8.420  33.240   7.195
 4919POPC   C4B63958   8.526  33.231   7.657
 4920POPC   NC363959  30.438   2.952   5.366
 4920POPC   PO463960  31.132   2.909   5.321
 4920POPC   GL163961  30.865   2.882   5.725
 4920POPC   GL263962  30.500   2.730   5.811
 4920POPC   C1A63963  30.837   2.781   6.177
 4920POPC   D2A63964  30.677   2.839   6.581
 4920POPC   C3A63965  30.888   2.614   6.879
 4920POPC   C4A63966  30.864   2.792   7.208
 4920POPC   C1B63967  30.304   2.663   6.236
 4920POPC   C2B63968  30.193   2.747   6.697
 4920POPC   C3B63969  30.158   2.529   7.093
 4920POPC   C4B63970  30.409   2.700   7.398
 4921POPC   NC363971  14.092  12.451   5.517
 4921POPC   PO463972  13.389  12.733   5.398
 4921POPC   GL163973  13.575  12.866   5.808
 4921POPC   GL263974  13.742  12.589   5.864
 4921POPC   C1A63975  13.576  13.064   6.222
 4921POPC   D2A63976  13.282  13.058   6.533
 4921POPC   C3A63977  13.416  13.109   6.961
 4921POPC   C4A63978  13.107  13.167   7.237
 4921POPC   C1B63979  13.822  12.519   6.292
 4921POPC   C2B63980  13.705  12.765   6.656
 4921POPC   C3B63981  13.695  12.687   7.095
 4921POPC   C4B63982  13.972  12.680   7.453
 4922POPC   NC363983   7.896  21.733   5.533
 4922POPC   PO463984   8.282  21.148   5.374
 4922POPC   GL163985   8.365  21.325   5.786
 4922POPC   GL263986   8.194  21.616   5.946
 4922POPC   C1A63987   8.530  21.260   6.192
 4922POPC   D2A63988   8.365  21.318   6.605
 4922POPC   C3A63989   8.382  21.020   6.946
 4922POPC   C4A63990   8.206  21.072   7.373
 4922POPC   C1B63991   7.818  21.718   6.223
 4922POPC   C2B63992   7.581  21.712   6.623
 4922POPC   C3B63993   7.702  21.567   7.022
 4922POPC   C4B63994   8.158  21.498   7.059
 4923POPC   NC363995   9.645   3.854   5.248
 4923POPC   PO463996   9.740   3.188   5.393
 4923POPC   GL163997   9.656   3.547   5.723
 4923POPC   GL263998   9.917   3.791   5.845
 4923POPC   C1A63999   9.595   3.625   6.191
 4923POPC   D2A64000   9.329   3.480   6.525
 4923POPC   C3A64001   9.591   3.473   6.846
 4923POPC   C4A64002   9.680   3.571   7.240
 4923POPC   C1B64003  10.094   3.518   6.148
 4923POPC   C2B64004   9.999   3.534   6.556
 4923POPC   C3B64005  10.155   3.480   6.982
 4923POPC   C4B64006  10.154   3.567   7.419
 4924POPC   NC364007  34.893  40.324   5.381
 4924POPC   PO464008  35.569  40.238   5.383
 4924POPC   GL164009  35.465  39.999   5.799
 4924POPC   GL264010  35.692  39.721   5.901
 4924POPC   C1A64011  35.434  39.959   6.281
 4924POPC   D2A64012  35.184  39.945   6.672
 4924POPC   C3A64013  35.279  40.099   7.105
 4924POPC   C4A64014  35.206  40.479   7.396
 4924POPC   C1B64015  35.662  39.486   6.303
 4924POPC   C2B64016  35.627  39.669   6.716
 4924POPC   C3B64017  35.671  39.659   7.146
 4924POPC   C4B64018  35.726  40.047   7.349
 4925POPC   NC364019   2.075  13.946   5.426
 4925POPC   PO464020   1.538  13.410   5.397
 4925POPC   GL164021   1.650  13.724   5.735
 4925POPC   GL264022   2.020  13.750   5.872
 4925POPC   C1A64023   1.652  13.618   6.180
 4925POPC   D2A64024   1.856  13.782   6.516
 4925POPC   C3A64025   2.101  13.495   6.707
 4925POPC   C4A64026   1.972  13.458   7.099
 4925POPC   C1B64027   2.301  13.704   6.228
 4925POPC   C2B64028   2.323  13.963   6.612
 4925POPC   C3B64029   2.291  13.868   7.041
 4925POPC   C4B64030   2.447  13.583   7.255
 4926POPC   NC364031  37.402  24.113   5.493
 4926POPC   PO464032  37.820  23.571   5.331
 4926POPC   GL164033  37.869  23.627   5.794
 4926POPC   GL264034  37.840  23.986   5.776
 4926POPC   C1A64035  37.726  23.540   6.260
 4926POPC   D2A64036  37.446  23.416   6.620
 4926POPC   C3A64037  37.573  23.462   7.058
 4926POPC   C4A64038  37.892  23.693   7.227
 4926POPC   C1B64039  37.806  24.100   6.206
 4926POPC   C2B64040  37.665  23.943   6.606
 4926POPC   C3B64041  37.524  23.964   7.007
 4926POPC   C4B64042  37.665  24.160   7.349
 4927POPC   NC364043  19.665  44.910   5.659
 4927POPC   PO464044  19.154  44.603   5.320
 4927POPC   GL164045  19.062  44.713   5.755
 4927POPC   GL264046  19.335  44.731   5.992
 4927POPC   C1A64047  18.846  44.763   6.170
 4927POPC   D2A64048  19.009  44.882   6.584
 4927POPC   C3A64049  18.862  44.707   6.991
 4927POPC   C4A64050  18.703  44.299   7.188
 4927POPC   C1B64051  19.483  44.935   6.358
 4927POPC   C2B64052  19.465  44.956   6.828
 4927POPC   C3B64053  19.307  44.773   7.242
 4927POPC   C4B64054  19.391  44.813   7.690
 4928POPC   NC364055   8.179  44.745   5.311
 4928POPC   PO464056   8.106  44.034   5.215
 4928POPC   GL164057   8.247  44.282   5.651
 4928POPC   GL264058   8.366  44.641   5.773
 4928POPC   C1A64059   8.248  44.375   6.169
 4928POPC   D2A64060   8.382  44.585   6.601
 4928POPC   C3A64061   8.098  44.508   6.951
 4928POPC   C4A64062   8.185  44.529   7.359
 4928POPC   C1B64063   8.333  44.937   6.160
 4928POPC   C2B64064   8.331   0.142   6.612
 4928POPC   C3B64065   8.319  44.950   7.041
 4928POPC   C4B64066   8.006   0.038   7.356
 4929POPC   NC364067  21.483  18.412   5.341
 4929POPC   PO464068  21.874  17.853   5.430
 4929POPC   GL164069  21.559  18.057   5.739
 4929POPC   GL264070  21.581  18.402   5.837
 4929POPC   C1A64071  21.222  18.105   6.095
 4929POPC   D2A64072  21.123  18.405   6.444
 4929POPC   C3A64073  21.273  18.339   6.885
 4929POPC   C4A64074  21.255  18.224   7.350
 4929POPC   C1B64075  21.572  18.650   6.199
 4929POPC   C2B64076  21.434  18.783   6.603
 4929POPC   C3B64077  21.665  18.692   6.936
 4929POPC   C4B64078  21.702  18.494   7.322
 4930POPC   NC364079  29.839  43.851   5.422
 4930POPC   PO464080  30.314  43.834   5.829
 4930POPC   GL164081  29.930  43.977   5.899
 4930POPC   GL264082  29.811  43.619   5.882
 4930POPC   C1A64083  29.906  44.191   6.252
 4930POPC   D2A64084  30.113  44.005   6.622
 4930POPC   C3A64085  29.984  44.086   7.031
 4930POPC   C4A64086  29.619  44.110   7.225
 4930POPC   C1B64087  29.729  43.716   6.321
 4930POPC   C2B64088  29.790  43.618   6.758
 4930POPC   C3B64089  30.087  43.560   7.057
 4930POPC   C4B64090  30.007  43.736   7.448
 4931POPC   NC364091   7.929  20.794   5.409
 4931POPC   PO464092   8.383  20.302   5.320
 4931POPC   GL164093   8.239  20.508   5.706
 4931POPC   GL264094   8.443  20.802   5.771
 4931POPC   C1A64095   8.010  20.688   6.091
 4931POPC   D2A64096   8.196  20.836   6.498
 4931POPC   C3A64097   8.033  20.650   6.901
 4931POPC   C4A64098   7.909  20.632   7.346
 4931POPC   C1B64099   8.495  20.527   6.147
 4931POPC   C2B64100   8.713  20.431   6.510
 4931POPC   C3B64101   8.551  20.442   6.914
 4931POPC   C4B64102   8.402  20.619   7.289
 4932POPC   NC364103  39.830  19.044   5.337
 4932POPC   PO464104  40.490  18.922   5.406
 4932POPC   GL164105  40.153  18.938   5.770
 4932POPC   GL264106  39.765  18.929   5.814
 4932POPC   C1A64107  40.077  19.099   6.213
 4932POPC   D2A64108  39.906  19.352   6.565
 4932POPC   C3A64109  40.028  19.300   7.005
 4932POPC   C4A64110  40.394  19.466   7.202
 4932POPC   C1B64111  39.568  18.960   6.195
 4932POPC   C2B64112  39.735  18.858   6.570
 4932POPC   C3B64113  39.594  19.008   6.945
 4932POPC   C4B64114  39.728  18.795   7.250
 4933POPC   NC364115  22.267  11.144   5.146
 4933POPC   PO464116  22.347  10.514   5.417
 4933POPC   GL164117  22.256  10.526   5.849
 4933POPC   GL264118  21.920  10.439   5.936
 4933POPC   C1A64119  22.212  10.652   6.295
 4933POPC   D2A64120  22.424  10.419   6.602
 4933POPC   C3A64121  22.361  10.565   7.005
 4933POPC   C4A64122  22.388  10.452   7.424
 4933POPC   C1B64123  22.157  10.154   6.224
 4933POPC   C2B64124  22.008  10.092   6.642
 4933POPC   C3B64125  21.919  10.321   6.997
 4933POPC   C4B64126  21.879  10.792   7.092
 4934POPC   NC364127  17.006   9.172   5.312
 4934POPC   PO464128  17.502   8.729   5.448
 4934POPC   GL164129  17.365   8.922   5.794
 4934POPC   GL264130  17.094   8.681   5.839
 4934POPC   C1A64131  17.634   9.074   6.142
 4934POPC   D2A64132  17.803   9.281   6.535
 4934POPC   C3A64133  17.754   8.934   6.826
 4934POPC   C4A64134  17.595   8.637   7.103
 4934POPC   C1B64135  17.100   8.830   6.236
 4934POPC   C2B64136  17.268   8.824   6.626
 4934POPC   C3B64137  17.089   8.631   6.983
 4934POPC   C4B64138  17.202   8.771   7.386
 4935POPC   NC364139  19.562  40.096   5.527
 4935POPC   PO464140  20.003  39.639   5.381
 4935POPC   GL164141  20.004  39.930   5.784
 4935POPC   GL264142  20.279  39.792   5.927
 4935POPC   C1A64143  19.826  40.112   6.219
 4935POPC   D2A64144  19.557  40.238   6.647
 4935POPC   C3A64145  19.706  40.094   7.083
 4935POPC   C4A64146  20.081  40.212   7.346
 4935POPC   C1B64147  20.161  39.724   6.302
 4935POPC   C2B64148  19.966  39.872   6.683
 4935POPC   C3B64149  20.154  39.797   7.071
 4935POPC   C4B64150  20.312  39.414   7.272
 4936POPC   NC364151   8.042  41.186   5.566
 4936POPC   PO464152   8.192  40.569   5.315
 4936POPC   GL164153   8.324  40.681   5.764
 4936POPC   GL264154   8.646  40.473   5.752
 4936POPC   C1A64155   8.196  40.850   6.212
 4936POPC   D2A64156   8.097  40.687   6.660
 4936POPC   C3A64157   7.984  40.927   7.045
 4936POPC   C4A64158   8.085  41.138   7.430
 4936POPC   C1B64159   8.551  40.481   6.184
 4936POPC   C2B64160   8.651  40.635   6.574
 4936POPC   C3B64161   8.687  40.524   7.008
 4936POPC   C4B64162   8.434  40.746   7.327
 4937POPC   NC364163   4.507  41.131   5.271
 4937POPC   PO464164   4.412  41.820   5.167
 4937POPC   GL164165   4.429  41.591   5.584
 4937POPC   GL264166   4.525  41.855   5.821
 4937POPC   C1A64167   4.352  41.434   6.047
 4937POPC   D2A64168   4.492  41.566   6.482
 4937POPC   C3A64169   4.404  41.289   6.858
 4937POPC   C4A64170   4.154  41.342   7.240
 4937POPC   C1B64171   4.148  41.913   6.016
 4937POPC   C2B64172   4.084  41.912   6.448
 4937POPC   C3B64173   4.145  41.746   6.848
 4937POPC   C4B64174   3.849  41.758   7.141
 4938POPC   NC364175  13.547   5.183   5.392
 4938POPC   PO464176  14.162   4.915   5.472
 4938POPC   GL164177  13.971   5.115   5.793
 4938POPC   GL264178  13.616   4.997   5.842
 4938POPC   C1A64179  13.918   5.142   6.218
 4938POPC   D2A64180  13.797   4.865   6.550
 4938POPC   C3A64181  13.886   5.052   6.945
 4938POPC   C4A64182  13.863   5.170   7.366
 4938POPC   C1B64183  13.421   5.112   6.241
 4938POPC   C2B64184  13.594   5.328   6.618
 4938POPC   C3B64185  13.535   5.404   7.042
 4938POPC   C4B64186  13.376   5.040   7.166
 4939POPC   NC364187  30.515  42.714   5.547
 4939POPC   PO464188  31.003  43.162   5.560
 4939POPC   GL164189  30.802  43.145   5.911
 4939POPC   GL264190  30.824  42.803   5.966
 4939POPC   C1A64191  30.680  43.192   6.342
 4939POPC   D2A64192  30.825  42.917   6.677
 4939POPC   C3A64193  30.834  43.074   7.069
 4939POPC   C4A64194  30.569  43.411   7.273
 4939POPC   C1B64195  30.620  42.634   6.289
 4939POPC   C2B64196  30.333  42.878   6.509
 4939POPC   C3B64197  30.357  43.115   6.874
 4939POPC   C4B64198  30.409  42.902   7.262
 4940POPC   NC364199  25.905  34.648   5.414
 4940POPC   PO464200  26.512  34.474   5.624
 4940POPC   GL164201  26.109  34.475   5.856
 4940POPC   GL264202  25.873  34.813   5.875
 4940POPC   C1A64203  26.088  34.362   6.288
 4940POPC   D2A64204  26.097  34.674   6.641
 4940POPC   C3A64205  26.265  34.599   7.050
 4940POPC   C4A64206  26.235  34.489   7.484
 4940POPC   C1B64207  25.824  34.965   6.287
 4940POPC   C2B64208  25.651  34.928   6.672
 4940POPC   C3B64209  25.908  34.995   7.036
 4940POPC   C4B64210  25.863  34.818   7.430
 4941POPC   NC364211  18.715   3.872   5.511
 4941POPC   PO464212  19.207   3.569   5.127
 4941POPC   GL164213  19.224   3.451   5.675
 4941POPC   GL264214  18.920   3.545   5.825
 4941POPC   C1A64215  19.149   3.375   6.210
 4941POPC   D2A64216  18.848   3.437   6.621
 4941POPC   C3A64217  19.086   3.391   7.036
 4941POPC   C4A64218  19.052   3.314   7.472
 4941POPC   C1B64219  18.865   3.787   6.257
 4941POPC   C2B64220  19.006   3.942   6.667
 4941POPC   C3B64221  18.798   3.802   7.067
 4941POPC   C4B64222  18.803   3.743   7.547
 4942POPC   NC364223  38.209  19.368   5.465
 4942POPC   PO464224  38.793  18.981   5.503
 4942POPC   GL164225  38.454  19.095   5.818
 4942POPC   GL264226  38.284  18.801   5.978
 4942POPC   C1A64227  38.230  19.245   6.215
 4942POPC   D2A64228  38.428  19.277   6.649
 4942POPC   C3A64229  38.216  19.360   7.019
 4942POPC   C4A64230  38.241  19.129   7.429
 4942POPC   C1B64231  38.647  18.949   6.253
 4942POPC   C2B64232  38.674  18.807   6.648
 4942POPC   C3B64233  38.377  18.876   6.980
 4942POPC   C4B64234  38.691  19.126   7.186
 4943POPC   NC364235  21.405  41.138   5.409
 4943POPC   PO464236  21.717  40.523   5.318
 4943POPC   GL164237  21.505  40.694   5.734
 4943POPC   GL264238  21.597  41.027   5.866
 4943POPC   C1A64239  21.342  40.647   6.189
 4943POPC   D2A64240  21.147  40.701   6.615
 4943POPC   C3A64241  21.305  40.639   7.019
 4943POPC   C4A64242  21.039  40.680   7.356
 4943POPC   C1B64243  21.844  40.768   6.183
 4943POPC   C2B64244  21.682  40.731   6.619
 4943POPC   C3B64245  21.667  40.990   7.008
 4943POPC   C4B64246  21.531  40.864   7.441
 4944POPC   NC364247   3.476  15.399   5.503
 4944POPC   PO464248   3.402  14.783   5.401
 4944POPC   GL164249   3.692  14.871   5.780
 4944POPC   GL264250   3.552  15.157   5.946
 4944POPC   C1A64251   3.870  14.911   6.252
 4944POPC   D2A64252   3.726  14.899   6.708
 4944POPC   C3A64253   4.007  14.848   7.079
 4944POPC   C4A64254   3.944  14.856   7.560
 4944POPC   C1B64255   3.395  15.373   6.286
 4944POPC   C2B64256   3.518  15.638   6.592
 4944POPC   C3B64257   3.453  15.317   6.873
 4944POPC   C4B64258   3.627  15.140   7.222
 4945POPC   NC364259  25.196  32.502   5.362
 4945POPC   PO464260  25.533  31.991   5.481
 4945POPC   GL164261  25.488  32.345   5.743
 4945POPC   GL264262  25.205  32.285   5.842
 4945POPC   C1A64263  25.553  32.571   6.125
 4945POPC   D2A64264  25.599  32.313   6.497
 4945POPC   C3A64265  25.320  32.345   6.835
 4945POPC   C4A64266  25.329  32.518   7.249
 4945POPC   C1B64267  25.115  32.328   6.255
 4945POPC   C2B64268  24.987  32.072   6.540
 4945POPC   C3B64269  24.976  31.912   6.923
 4945POPC   C4B64270  24.900  32.281   7.122
 4946POPC   NC364271  13.352   2.119   5.555
 4946POPC   PO464272  13.063   1.577   5.710
 4946POPC   GL164273  12.859   1.933   5.863
 4946POPC   GL264274  12.940   2.308   5.844
 4946POPC   C1A64275  12.816   1.856   6.295
 4946POPC   D2A64276  12.942   1.975   6.684
 4946POPC   C3A64277  12.572   1.922   6.959
 4946POPC   C4A64278  12.574   2.243   7.236
 4946POPC   C1B64279  13.217   2.163   6.196
 4946POPC   C2B64280  13.449   2.178   6.575
 4946POPC   C3B64281  13.277   2.235   6.969
 4946POPC   C4B64282  13.097   2.365   7.331
 4947POPC   NC364283   1.337  40.536   5.334
 4947POPC   PO464284   0.977  41.110   5.340
 4947POPC   GL164285   1.194  40.924   5.689
 4947POPC   GL264286   1.547  40.884   5.718
 4947POPC   C1A64287   1.211  40.837   6.142
 4947POPC   D2A64288   0.961  40.742   6.513
 4947POPC   C3A64289   0.914  40.967   6.891
 4947POPC   C4A64290   0.964  40.634   7.218
 4947POPC   C1B64291   1.679  41.047   6.136
 4947POPC   C2B64292   1.471  41.043   6.569
 4947POPC   C3B64293   1.404  40.847   6.981
 4947POPC   C4B64294   1.457  40.896   7.424
 4948POPC   NC364295   4.301  24.772   5.390
 4948POPC   PO464296   4.614  24.144   5.418
 4948POPC   GL164297   4.428  24.432   5.798
 4948POPC   GL264298   4.549  24.824   5.833
 4948POPC   C1A64299   4.295  24.310   6.245
 4948POPC   D2A64300   4.070  24.423   6.625
 4948POPC   C3A64301   4.258  24.414   7.066
 4948POPC   C4A64302   4.451  24.097   7.349
 4948POPC   C1B64303   4.610  24.713   6.259
 4948POPC   C2B64304   4.497  24.713   6.694
 4948POPC   C3B64305   4.622  24.814   7.110
 4948POPC   C4B64306   4.522  24.859   7.576
 4949POPC   NC364307  27.337  12.108   5.492
 4949POPC   PO464308  26.632  11.928   5.573
 4949POPC   GL164309  26.874  12.051   5.870
 4949POPC   GL264310  26.945  12.375   5.788
 4949POPC   C1A64311  26.680  12.200   6.230
 4949POPC   D2A64312  26.517  12.151   6.633
 4949POPC   C3A64313  26.790  11.980   6.933
 4949POPC   C4A64314  26.954  12.135   7.289
 4949POPC   C1B64315  27.225  12.257   6.160
 4949POPC   C2B64316  27.198  12.065   6.584
 4949POPC   C3B64317  27.277  12.313   6.944
 4949POPC   C4B64318  27.453  12.167   7.309
 4950POPC   NC364319  20.810   8.533   5.195
 4950POPC   PO464320  20.352   8.155   5.402
 4950POPC   GL164321  20.462   8.313   5.801
 4950POPC   GL264322  20.830   8.334   5.722
 4950POPC   C1A64323  20.421   8.147   6.247
 4950POPC   D2A64324  20.328   8.354   6.655
 4950POPC   C3A64325  20.469   8.147   7.048
 4950POPC   C4A64326  20.477   8.012   7.495
 4950POPC   C1B64327  20.916   8.199   6.159
 4950POPC   C2B64328  20.804   8.064   6.603
 4950POPC   C3B64329  20.995   8.199   6.969
 4950POPC   C4B64330  20.863   8.335   7.344
 4951POPC   NC364331   5.182  29.426   5.181
 4951POPC   PO464332   5.128  30.057   5.491
 4951POPC   GL164333   5.167  29.754   5.803
 4951POPC   GL264334   5.363  29.505   5.666
 4951POPC   C1A64335   5.039  29.790   6.241
 4951POPC   D2A64336   5.256  30.036   6.562
 4951POPC   C3A64337   5.107  29.962   6.949
 4951POPC   C4A64338   4.709  29.964   7.109
 4951POPC   C1B64339   5.323  29.366   6.112
 4951POPC   C2B64340   5.103  29.340   6.526
 4951POPC   C3B64341   5.057  29.459   6.949
 4951POPC   C4B64342   5.092  29.672   7.375
 4952POPC   NC364343  40.445  29.585   5.436
 4952POPC   PO464344  39.762  29.808   5.464
 4952POPC   GL164345  40.086  29.886   5.760
 4952POPC   GL264346  39.964  30.201   5.878
 4952POPC   C1A64347  40.279  29.963   6.194
 4952POPC   D2A64348  40.311  30.169   6.613
 4952POPC   C3A64349  40.138  29.867   6.893
 4952POPC   C4A64350  40.273  29.672   7.259
 4952POPC   C1B64351  39.700  29.899   6.153
 4952POPC   C2B64352  39.517  29.803   6.563
 4952POPC   C3B64353  39.609  29.973   6.982
 4952POPC   C4B64354  39.796  29.831   7.357
 4953POPC   NC364355  30.016   2.046   5.389
 4953POPC   PO464356  29.409   2.251   5.075
 4953POPC   GL164357  29.571   2.209   5.573
 4953POPC   GL264358  29.562   1.856   5.775
 4953POPC   C1A64359  29.837   2.187   6.013
 4953POPC   D2A64360  29.681   1.995   6.406
 4953POPC   C3A64361  29.757   2.133   6.813
 4953POPC   C4A64362  29.819   1.891   7.164
 4953POPC   C1B64363  29.826   1.610   6.107
 4953POPC   C2B64364  30.109   1.672   6.463
 4953POPC   C3B64365  30.224   1.920   6.820
 4953POPC   C4B64366  30.376   1.804   7.211
 4954POPC   NC364367  44.788  17.290   5.424
 4954POPC   PO464368  44.499  17.915   5.429
 4954POPC   GL164369  44.827  17.729   5.730
 4954POPC   GL264370  44.638  17.459   5.892
 4954POPC   C1A64371   0.003  17.645   6.178
 4954POPC   D2A64372  44.685  17.483   6.467
 4954POPC   C3A64373  44.773  17.540   6.913
 4954POPC   C4A64374   0.009  17.781   7.194
 4954POPC   C1B64375  44.558  17.871   6.156
 4954POPC   C2B64376  44.707  17.966   6.612
 4954POPC   C3B64377  44.551  18.039   7.036
 4954POPC   C4B64378  44.255  17.882   7.370
 4955POPC   NC364379  40.830  44.026   5.400
 4955POPC   PO464380  41.085  43.407   5.437
 4955POPC   GL164381  40.779  43.666   5.779
 4955POPC   GL264382  40.526  44.033   5.795
 4955POPC   C1A64383  40.569  43.737   6.186
 4955POPC   D2A64384  40.514  43.897   6.581
 4955POPC   C3A64385  40.913  43.855   6.772
 4955POPC   C4A64386  40.948  43.891   7.196
 4955POPC   C1B64387  40.812  44.207   6.072
 4955POPC   C2B64388  40.928  44.295   6.476
 4955POPC   C3B64389  40.854  44.339   6.909
 4955POPC   C4B64390  40.803  44.526   7.294
 4956POPC   NC364391  40.284  36.299   5.542
 4956POPC   PO464392  39.649  36.343   5.679
 4956POPC   GL164393  39.958  36.060   5.893
 4956POPC   GL264394  40.321  35.941   5.899
 4956POPC   C1A64395  40.000  35.998   6.317
 4956POPC   D2A64396  39.714  36.285   6.528
 4956POPC   C3A64397  39.772  36.380   6.957
 4956POPC   C4A64398  39.790  36.031   7.232
 4956POPC   C1B64399  40.376  36.318   6.176
 4956POPC   C2B64400  40.232  36.379   6.578
 4956POPC   C3B64401  40.233  36.153   6.954
 4956POPC   C4B64402  40.237  36.273   7.389
 4957POPC   NC364403   9.472  34.520   5.558
 4957POPC   PO464404  10.095  34.783   5.583
 4957POPC   GL164405   9.826  34.782   5.941
 4957POPC   GL264406   9.456  34.846   5.944
 4957POPC   C1A64407   9.828  34.778   6.393
 4957POPC   D2A64408   9.589  34.760   6.766
 4957POPC   C3A64409   9.913  34.579   6.954
 4957POPC   C4A64410  10.131  34.465   7.302
 4957POPC   C1B64411   9.485  34.441   6.205
 4957POPC   C2B64412   9.332  34.336   6.602
 4957POPC   C3B64413   9.511  34.257   7.009
 4957POPC   C4B64414   9.610  34.491   7.345
 4958POPC   NC364415  18.436  29.153   5.564
 4958POPC   PO464416  17.962  28.767   5.333
 4958POPC   GL164417  18.059  28.821   5.783
 4958POPC   GL264418  18.394  28.771   5.916
 4958POPC   C1A64419  18.070  29.154   6.125
 4958POPC   D2A64420  17.915  29.466   6.442
 4958POPC   C3A64421  18.117  29.359   6.836
 4958POPC   C4A64422  18.117  29.324   7.276
 4958POPC   C1B64423  18.391  28.801   6.369
 4958POPC   C2B64424  18.039  28.766   6.678
 4958POPC   C3B64425  17.890  28.883   7.090
 4958POPC   C4B64426  18.013  28.886   7.511
 4959POPC   NC364427  20.026  41.697   5.351
 4959POPC   PO464428  19.402  41.301   5.375
 4959POPC   GL164429  19.595  41.306   5.802
 4959POPC   GL264430  19.858  41.550   5.802
 4959POPC   C1A64431  19.554  41.540   6.203
 4959POPC   D2A64432  19.816  41.603   6.542
 4959POPC   C3A64433  19.635  41.634   6.953
 4959POPC   C4A64434  19.690  41.812   7.362
 4959POPC   C1B64435  20.175  41.514   6.127
 4959POPC   C2B64436  20.276  41.349   6.535
 4959POPC   C3B64437  20.169  41.514   6.915
 4959POPC   C4B64438  19.970  41.397   7.256
 4960POPC   NC364439  13.009  32.398   5.518
 4960POPC   PO464440  12.726  31.920   5.476
 4960POPC   GL164441  12.673  32.211   5.838
 4960POPC   GL264442  12.998  32.249   5.988
 4960POPC   C1A64443  12.621  32.460   6.243
 4960POPC   D2A64444  12.676  32.478   6.673
 4960POPC   C3A64445  12.751  32.399   7.102
 4960POPC   C4A64446  12.744  32.267   7.501
 4960POPC   C1B64447  12.978  32.127   6.413
 4960POPC   C2B64448  13.123  32.260   6.791
 4960POPC   C3B64449  13.123  32.034   7.214
 4960POPC   C4B64450  13.189  32.099   7.671
 4961POPC   NC364451  20.668  38.965   5.581
 4961POPC   PO464452  20.539  39.518   5.596
 4961POPC   GL164453  20.496  39.300   5.956
 4961POPC   GL264454  20.302  38.971   5.940
 4961POPC   C1A64455  20.746  39.254   6.315
 4961POPC   D2A64456  20.774  39.013   6.690
 4961POPC   C3A64457  20.777  39.315   7.005
 4961POPC   C4A64458  21.106  39.438   7.229
 4961POPC   C1B64459  20.205  39.159   6.348
 4961POPC   C2B64460  20.264  38.956   6.741
 4961POPC   C3B64461  20.454  38.937   7.137
 4961POPC   C4B64462  20.420  38.948   7.601
 4962POPC   NC364463  28.901   8.180   5.349
 4962POPC   PO464464  29.538   8.102   5.475
 4962POPC   GL164465  29.225   8.061   5.749
 4962POPC   GL264466  29.227   8.415   5.812
 4962POPC   C1A64467  29.197   7.988   6.184
 4962POPC   D2A64468  29.400   7.829   6.562
 4962POPC   C3A64469  29.152   7.893   6.921
 4962POPC   C4A64470  29.211   8.164   7.301
 4962POPC   C1B64471  29.041   8.502   6.194
 4962POPC   C2B64472  29.148   8.328   6.578
 4962POPC   C3B64473  29.268   8.538   6.926
 4962POPC   C4B64474  28.989   8.618   7.237
 4963POPC   NC364475   4.974  27.873   5.386
 4963POPC   PO464476   5.459  27.458   5.549
 4963POPC   GL164477   5.164  27.667   5.838
 4963POPC   GL264478   5.239  28.034   5.868
 4963POPC   C1A64479   4.844  27.644   6.205
 4963POPC   D2A64480   4.668  27.565   6.647
 4963POPC   C3A64481   4.924  27.775   6.979
 4963POPC   C4A64482   5.274  27.634   7.255
 4963POPC   C1B64483   5.338  27.817   6.288
 4963POPC   C2B64484   5.386  27.700   6.748
 4963POPC   C3B64485   5.606  27.979   7.057
 4963POPC   C4B64486   5.580  27.933   7.537
 4964POPC   NC364487  27.865  13.683   5.426
 4964POPC   PO464488  27.328  14.043   5.545
 4964POPC   GL164489  27.418  13.677   5.810
 4964POPC   GL264490  27.633  13.384   5.784
 4964POPC   C1A64491  27.315  13.483   6.237
 4964POPC   D2A64492  27.566  13.527   6.637
 4964POPC   C3A64493  27.557  13.603   7.104
 4964POPC   C4A64494  27.512  13.898   7.461
 4964POPC   C1B64495  27.795  13.633   6.154
 4964POPC   C2B64496  28.075  13.593   6.487
 4964POPC   C3B64497  28.031  13.577   6.906
 4964POPC   C4B64498  28.109  13.686   7.314
 4965POPC   NC364499  15.773  30.275   5.222
 4965POPC   PO464500  15.971  29.745   5.553
 4965POPC   GL164501  15.807  29.946   5.861
 4965POPC   GL264502  15.616  30.147   5.706
 4965POPC   C1A64503  15.832  29.859   6.283
 4965POPC   D2A64504  16.025  29.588   6.576
 4965POPC   C3A64505  16.102  29.767   6.985
 4965POPC   C4A64506  15.912  29.789   7.383
 4965POPC   C1B64507  15.403  30.100   6.123
 4965POPC   C2B64508  15.524  30.155   6.573
 4965POPC   C3B64509  15.610  29.985   6.997
 4965POPC   C4B64510  15.651  30.230   7.388
 4966POPC   NC364511  15.250  41.219   5.480
 4966POPC   PO464512  14.902  41.777   5.714
 4966POPC   GL164513  14.926  41.399   5.885
 4966POPC   GL264514  15.283  41.458   5.933
 4966POPC   C1A64515  14.914  41.415   6.318
 4966POPC   D2A64516  15.245  41.693   6.472
 4966POPC   C3A64517  15.208  41.709   6.887
 4966POPC   C4A64518  14.905  41.519   7.141
 4966POPC   C1B64519  15.403  41.241   6.301
 4966POPC   C2B64520  15.536  41.338   6.733
 4966POPC   C3B64521  15.367  41.265   7.156
 4966POPC   C4B64522  15.124  41.095   7.540
 4967POPC   NC364523  17.249  27.131   5.595
 4967POPC   PO464524  17.649  27.542   5.194
 4967POPC   GL164525  17.621  27.669   5.688
 4967POPC   GL264526  17.299  27.595   5.838
 4967POPC   C1A64527  17.663  27.627   6.203
 4967POPC   D2A64528  17.724  27.776   6.658
 4967POPC   C3A64529  17.610  27.631   7.045
 4967POPC   C4A64530  17.977  27.494   7.211
 4967POPC   C1B64531  17.236  27.348   6.218
 4967POPC   C2B64532  17.305  27.491   6.611
 4967POPC   C3B64533  17.226  27.308   6.977
 4967POPC   C4B64534  17.069  27.391   7.359
 4968POPC   NC364535  34.035  17.083   5.607
 4968POPC   PO464536  34.469  16.679   5.292
 4968POPC   GL164537  34.451  16.729   5.739
 4968POPC   GL264538  34.309  16.435   5.840
 4968POPC   C1A64539  34.621  16.927   6.146
 4968POPC   D2A64540  34.559  16.751   6.585
 4968POPC   C3A64541  34.853  16.840   6.954
 4968POPC   C4A64542  34.722  16.908   7.371
 4968POPC   C1B64543  34.644  16.422   6.161
 4968POPC   C2B64544  34.864  16.343   6.547
 4968POPC   C3B64545  34.630  16.375   6.930
 4968POPC   C4B64546  34.348  16.658   7.132
 4969POPC   NC364547  25.053  36.904   5.547
 4969POPC   PO464548  25.756  36.645   5.442
 4969POPC   GL164549  25.459  36.662   5.780
 4969POPC   GL264550  25.360  37.015   5.917
 4969POPC   C1A64551  25.282  36.622   6.183
 4969POPC   D2A64552  25.422  36.894   6.479
 4969POPC   C3A64553  25.363  36.705   6.840
 4969POPC   C4A64554  25.241  36.709   7.228
 4969POPC   C1B64555  24.987  37.076   6.180
 4969POPC   C2B64556  25.045  37.265   6.553
 4969POPC   C3B64557  25.194  37.168   6.928
 4969POPC   C4B64558  24.835  37.045   7.116
 4970POPC   NC364559  38.009   8.554   5.764
 4970POPC   PO464560  37.495   8.944   5.475
 4970POPC   GL164561  37.657   9.145   5.892
 4970POPC   GL264562  37.970   9.034   5.957
 4970POPC   C1A64563  37.670   9.075   6.396
 4970POPC   D2A64564  37.898   8.927   6.803
 4970POPC   C3A64565  37.668   8.752   7.182
 4970POPC   C4A64566  37.426   8.908   7.549
 4970POPC   C1B64567  38.059   9.350   6.238
 4970POPC   C2B64568  37.948   9.482   6.661
 4970POPC   C3B64569  38.000   9.341   7.086
 4970POPC   C4B64570  37.865   9.147   7.453
 4971POPC   NC364571  16.414  23.041   5.632
 4971POPC   PO464572  15.908  22.654   5.503
 4971POPC   GL164573  16.027  22.818   5.897
 4971POPC   GL264574  15.922  23.145   5.827
 4971POPC   C1A64575  16.280  22.949   6.271
 4971POPC   D2A64576  16.397  22.892   6.710
 4971POPC   C3A64577  16.057  22.854   7.014
 4971POPC   C4A64578  16.144  23.070   7.408
 4971POPC   C1B64579  15.741  23.144   6.230
 4971POPC   C2B64580  15.639  23.011   6.655
 4971POPC   C3B64581  15.725  23.273   6.991
 4971POPC   C4B64582  15.911  23.482   7.303
 4972POPC   NC364583  31.489  31.283   5.362
 4972POPC   PO464584  31.672  32.007   5.488
 4972POPC   GL164585  31.457  31.639   5.729
 4972POPC   GL264586  31.690  31.325   5.824
 4972POPC   C1A64587  31.290  31.473   6.129
 4972POPC   D2A64588  31.097  31.654   6.502
 4972POPC   C3A64589  31.292  31.591   6.893
 4972POPC   C4A64590  31.371  31.214   7.073
 4972POPC   C1B64591  31.637  31.059   6.188
 4972POPC   C2B64592  31.670  31.275   6.596
 4972POPC   C3B64593  31.856  31.363   6.991
 4972POPC   C4B64594  31.809  31.125   7.344
 4973POPC   NC364595  42.330  40.390   5.430
 4973POPC   PO464596  42.136  41.012   5.158
 4973POPC   GL164597  42.241  40.865   5.664
 4973POPC   GL264598  42.339  40.613   5.880
 4973POPC   C1A64599  42.112  40.954   6.164
 4973POPC   D2A64600  42.074  41.152   6.608
 4973POPC   C3A64601  42.432  41.150   6.928
 4973POPC   C4A64602  42.241  41.055   7.343
 4973POPC   C1B64603  42.544  40.709   6.232
 4973POPC   C2B64604  42.411  40.772   6.615
 4973POPC   C3B64605  42.545  40.638   7.034
 4973POPC   C4B64606  42.500  40.636   7.496
 4974POPC   NC364607   5.594  19.121   5.768
 4974POPC   PO464608   6.007  19.281   5.234
 4974POPC   GL164609   6.099  19.229   5.735
 4974POPC   GL264610   6.060  18.871   5.800
 4974POPC   C1A64611   6.053  19.284   6.230
 4974POPC   D2A64612   5.796  19.107   6.603
 4974POPC   C3A64613   5.754  19.243   7.050
 4974POPC   C4A64614   6.109  19.162   7.335
 4974POPC   C1B64615   6.088  18.660   6.197
 4974POPC   C2B64616   5.926  18.604   6.631
 4974POPC   C3B64617   5.949  18.756   7.080
 4974POPC   C4B64618   6.087  18.727   7.579
 4975POPC   NC364619   5.646  19.573   5.136
 4975POPC   PO464620   6.081  19.755   5.603
 4975POPC   GL164621   5.898  19.695   5.946
 4975POPC   GL264622   5.559  19.651   5.942
 4975POPC   C1A64623   5.914  19.792   6.347
 4975POPC   D2A64624   5.914  19.640   6.729
 4975POPC   C3A64625   5.921  19.974   7.029
 4975POPC   C4A64626   5.979  19.647   7.295
 4975POPC   C1B64627   5.435  19.958   6.252
 4975POPC   C2B64628   5.511  19.959   6.699
 4975POPC   C3B64629   5.488  19.733   7.104
 4975POPC   C4B64630   5.553  19.771   7.554
 4976POPC   NC364631  28.553  34.668   5.509
 4976POPC   PO464632  29.178  34.443   5.522
 4976POPC   GL164633  28.971  34.596   5.858
 4976POPC   GL264634  28.776  34.311   5.939
 4976POPC   C1A64635  29.264  34.714   6.202
 4976POPC   D2A64636  29.345  34.542   6.634
 4976POPC   C3A64637  29.260  34.780   7.028
 4976POPC   C4A64638  29.205  34.683   7.482
 4976POPC   C1B64639  28.840  34.472   6.350
 4976POPC   C2B64640  28.836  34.523   6.797
 4976POPC   C3B64641  28.864  34.362   7.194
 4976POPC   C4B64642  28.889  34.238   7.607
 4977POPC   NC364643   4.083  22.875   5.474
 4977POPC   PO464644   4.621  22.533   5.490
 4977POPC   GL164645   4.540  22.667   5.901
 4977POPC   GL264646   4.223  22.846   5.967
 4977POPC   C1A64647   4.617  22.845   6.305
 4977POPC   D2A64648   4.349  23.020   6.623
 4977POPC   C3A64649   4.383  22.863   7.040
 4977POPC   C4A64650   4.778  22.839   7.252
 4977POPC   C1B64651   3.962  23.130   6.189
 4977POPC   C2B64652   3.914  23.318   6.560
 4977POPC   C3B64653   4.041  23.255   6.966
 4977POPC   C4B64654   4.006  23.337   7.415
 4978POPC   NC364655   5.517  32.504   5.393
 4978POPC   PO464656   6.009  32.101   5.444
 4978POPC   GL164657   5.961  31.972   5.867
 4978POPC   GL264658   6.168  31.674   5.864
 4978POPC   C1A64659   5.870  32.217   6.260
 4978POPC   D2A64660   5.976  32.566   6.575
 4978POPC   C3A64661   5.868  32.430   6.997
 4978POPC   C4A64662   5.479  32.272   7.136
 4978POPC   C1B64663   6.086  31.739   6.321
 4978POPC   C2B64664   5.938  31.963   6.708
 4978POPC   C3B64665   5.976  31.951   7.171
 4978POPC   C4B64666   6.087  31.856   7.601
 4979POPC   NC364667  41.008  21.606   5.270
 4979POPC   PO464668  40.671  20.992   5.430
 4979POPC   GL164669  40.787  21.037   5.831
 4979POPC   GL264670  40.807  21.397   5.779
 4979POPC   C1A64671  40.928  21.122   6.243
 4979POPC   D2A64672  41.044  21.309   6.633
 4979POPC   C3A64673  41.013  21.090   7.002
 4979POPC   C4A64674  40.694  21.191   7.279
 4979POPC   C1B64675  40.544  21.432   6.158
 4979POPC   C2B64676  40.612  21.596   6.553
 4979POPC   C3B64677  40.465  21.473   6.920
 4979POPC   C4B64678  40.410  21.593   7.332
 4980POPC   NC364679  41.680  28.288   5.474
 4980POPC   PO464680  41.436  28.862   5.619
 4980POPC   GL164681  41.738  28.644   5.865
 4980POPC   GL264682  41.743  28.258   5.969
 4980POPC   C1A64683  41.643  28.640   6.292
 4980POPC   D2A64684  41.513  28.320   6.583
 4980POPC   C3A64685  41.395  28.510   6.934
 4980POPC   C4A64686  41.432  28.718   7.276
 4980POPC   C1B64687  41.533  27.941   6.234
 4980POPC   C2B64688  41.358  27.838   6.664
 4980POPC   C3B64689  41.433  28.018   7.075
 4980POPC   C4B64690  41.807  28.300   7.154
 4981POPC   NC364691  38.620  42.331   5.389
 4981POPC   PO464692  38.225  42.749   5.457
 4981POPC   GL164693  38.161  42.548   5.843
 4981POPC   GL264694  38.359  42.252   5.820
 4981POPC   C1A64695  38.368  42.548   6.236
 4981POPC   D2A64696  38.374  42.360   6.618
 4981POPC   C3A64697  38.290  42.685   6.907
 4981POPC   C4A64698  38.389  42.711   7.325
 4981POPC   C1B64699  38.416  42.020   6.201
 4981POPC   C2B64700  38.344  41.834   6.615
 4981POPC   C3B64701  38.449  41.935   7.064
 4981POPC   C4B64702  38.494  42.186   7.468
 4982POPC   NC364703  41.205  29.747   5.361
 4982POPC   PO464704  40.608  30.013   5.295
 4982POPC   GL164705  40.604  29.980   5.731
 4982POPC   GL264706  40.878  29.747   5.768
 4982POPC   C1A64707  40.758  30.147   6.107
 4982POPC   D2A64708  40.771  29.984   6.504
 4982POPC   C3A64709  40.773  30.203   6.885
 4982POPC   C4A64710  40.456  30.145   7.194
 4982POPC   C1B64711  40.665  29.611   6.137
 4982POPC   C2B64712  40.730  29.476   6.555
 4982POPC   C3B64713  40.700  29.675   6.955
 4982POPC   C4B64714  40.995  29.604   7.277
 4983POPC   NC364715  36.319  39.376   5.501
 4983POPC   PO464716  35.623  39.282   5.670
 4983POPC   GL164717  35.972  39.118   5.899
 4983POPC   GL264718  36.143  39.433   5.968
 4983POPC   C1A64719  36.086  39.096   6.344
 4983POPC   D2A64720  36.066  39.417   6.650
 4983POPC   C3A64721  36.050  39.262   7.060
 4983POPC   C4A64722  35.997  39.385   7.462
 4983POPC   C1B64723  36.459  39.451   6.285
 4983POPC   C2B64724  36.527  39.192   6.641
 4983POPC   C3B64725  36.529  39.084   7.039
 4983POPC   C4B64726  36.432  39.080   7.489
 4984POPC   NC364727   8.636  21.459   5.366
 4984POPC   PO464728   9.226  21.461   5.167
 4984POPC   GL164729   9.032  21.346   5.657
 4984POPC   GL264730   8.783  21.617   5.811
 4984POPC   C1A64731   9.082  21.336   6.146
 4984POPC   D2A64732   9.322  21.386   6.581
 4984POPC   C3A64733   9.099  21.228   6.985
 4984POPC   C4A64734   9.021  21.199   7.490
 4984POPC   C1B64735   8.752  21.760   6.187
 4984POPC   C2B64736   8.818  21.528   6.540
 4984POPC   C3B64737   8.658  21.601   6.914
 4984POPC   C4B64738   8.632  21.348   7.232
 4985POPC   NC364739  36.634  22.711   5.487
 4985POPC   PO464740  36.937  23.274   5.453
 4985POPC   GL164741  36.860  23.077   5.839
 4985POPC   GL264742  36.963  22.723   5.887
 4985POPC   C1A64743  36.791  23.149   6.267
 4985POPC   D2A64744  36.957  23.286   6.665
 4985POPC   C3A64745  36.810  23.170   7.042
 4985POPC   C4A64746  37.141  23.083   7.315
 4985POPC   C1B64747  36.774  22.612   6.271
 4985POPC   C2B64748  36.785  22.797   6.678
 4985POPC   C3B64749  36.691  22.667   7.103
 4985POPC   C4B64750  36.446  22.605   7.485
 4986POPC   NC364751  13.727  19.854   5.367
 4986POPC   PO464752  13.368  19.426   5.779
 4986POPC   GL164753  13.738  19.715   5.860
 4986POPC   GL264754  13.736  20.107   5.841
 4986POPC   C1A64755  13.879  19.765   6.276
 4986POPC   D2A64756  13.570  19.607   6.573
 4986POPC   C3A64757  13.596  19.762   6.970
 4986POPC   C4A64758  13.683  19.488   7.294
 4986POPC   C1B64759  13.424  20.001   6.191
 4986POPC   C2B64760  13.269  20.033   6.654
 4986POPC   C3B64761  13.398  20.218   7.093
 4986POPC   C4B64762  13.655  19.970   7.446
 4987POPC   NC364763  27.424   3.867   5.380
 4987POPC   PO464764  27.592   3.127   5.373
 4987POPC   GL164765  27.624   3.401   5.743
 4987POPC   GL264766  27.655   3.791   5.820
 4987POPC   C1A64767  27.784   3.429   6.166
 4987POPC   D2A64768  27.603   3.272   6.541
 4987POPC   C3A64769  27.819   3.452   6.881
 4987POPC   C4A64770  27.730   3.387   7.291
 4987POPC   C1B64771  27.335   3.644   6.122
 4987POPC   C2B64772  27.304   3.706   6.599
 4987POPC   C3B64773  27.369   3.665   7.061
 4987POPC   C4B64774  27.166   3.749   7.484
 4988POPC   NC364775   7.481  22.872   5.333
 4988POPC   PO464776   7.737  22.183   5.450
 4988POPC   GL164777   7.720  22.616   5.720
 4988POPC   GL264778   7.720  23.034   5.757
 4988POPC   C1A64779   7.419  22.780   6.070
 4988POPC   D2A64780   7.247  22.773   6.511
 4988POPC   C3A64781   7.605  22.769   6.820
 4988POPC   C4A64782   7.677  22.511   7.208
 4988POPC   C1B64783   7.580  23.288   6.169
 4988POPC   C2B64784   7.428  23.254   6.643
 4988POPC   C3B64785   7.437  23.147   7.116
 4988POPC   C4B64786   7.339  23.285   7.578
 4989POPC   NC364787   4.308  23.805   5.307
 4989POPC   PO464788   3.938  23.297   5.560
 4989POPC   GL164789   4.329  23.468   5.735
 4989POPC   GL264790   4.578  23.193   5.819
 4989POPC   C1A64791   4.295  23.813   6.049
 4989POPC   D2A64792   4.008  23.891   6.415
 4989POPC   C3A64793   4.134  23.965   6.834
 4989POPC   C4A64794   4.211  23.703   7.139
 4989POPC   C1B64795   4.425  23.338   6.225
 4989POPC   C2B64796   4.376  23.536   6.636
 4989POPC   C3B64797   4.535  23.347   7.008
 4989POPC   C4B64798   4.484  23.217   7.417
 4990POPC   NC364799  21.590  23.345   5.492
 4990POPC   PO464800  21.371  22.782   5.211
 4990POPC   GL164801  21.333  22.946   5.700
 4990POPC   GL264802  21.184  23.246   5.802
 4990POPC   C1A64803  21.368  22.891   6.202
 4990POPC   D2A64804  21.473  22.714   6.644
 4990POPC   C3A64805  21.284  22.664   7.046
 4990POPC   C4A64806  21.195  22.971   7.352
 4990POPC   C1B64807  21.094  23.383   6.211
 4990POPC   C2B64808  21.151  23.256   6.644
 4990POPC   C3B64809  21.029  23.374   7.079
 4990POPC   C4B64810  21.210  23.474   7.511
 4991POPC   NC364811  25.014  44.469   5.340
 4991POPC   PO464812  25.509  44.941   5.293
 4991POPC   GL164813  25.329  44.737   5.671
 4991POPC   GL264814  25.005  44.817   5.735
 4991POPC   C1A64815  25.454  44.802   6.105
 4991POPC   D2A64816  25.259  44.882   6.513
 4991POPC   C3A64817  25.477  44.685   6.825
 4991POPC   C4A64818  25.523  44.506   7.232
 4991POPC   C1B64819  25.023  44.520   6.092
 4991POPC   C2B64820  24.884  44.478   6.537
 4991POPC   C3B64821  25.041  44.486   6.998
 4991POPC   C4B64822  25.060  44.711   7.418
 4992POPC   NC364823  16.044   8.904   5.364
 4992POPC   PO464824  16.046   9.452   5.763
 4992POPC   GL164825  15.865   9.031   5.838
 4992POPC   GL264826  16.189   8.863   5.849
 4992POPC   C1A64827  15.777   8.869   6.249
 4992POPC   D2A64828  15.889   9.123   6.615
 4992POPC   C3A64829  15.637   9.146   6.986
 4992POPC   C4A64830  15.692   9.156   7.446
 4992POPC   C1B64831  16.198   8.604   6.187
 4992POPC   C2B64832  16.179   8.699   6.611
 4992POPC   C3B64833  16.331   9.017   6.894
 4992POPC   C4B64834  16.248   8.986   7.312
 4993POPC   NC364835  30.139  32.571   5.278
 4993POPC   PO464836  30.833  32.545   5.409
 4993POPC   GL164837  30.574  32.475   5.796
 4993POPC   GL264838  30.530  32.120   5.823
 4993POPC   C1A64839  30.504  32.470   6.265
 4993POPC   D2A64840  30.478  32.241   6.664
 4993POPC   C3A64841  30.691  32.489   7.006
 4993POPC   C4A64842  31.003  32.384   7.331
 4993POPC   C1B64843  30.716  31.979   6.205
 4993POPC   C2B64844  30.601  31.728   6.549
 4993POPC   C3B64845  30.784  31.725   6.934
 4993POPC   C4B64846  30.653  32.026   7.211
 4994POPC   NC364847  27.595   0.079   5.431
 4994POPC   PO464848  27.279   0.764   5.456
 4994POPC   GL164849  27.330   0.543   5.839
 4994POPC   GL264850  27.647   0.376   5.840
 4994POPC   C1A64851  27.530   0.680   6.237
 4994POPC   D2A64852  27.579   0.674   6.678
 4994POPC   C3A64853  27.909   0.682   6.975
 4994POPC   C4A64854  27.563   0.682   7.214
 4994POPC   C1B64855  27.605   0.157   6.238
 4994POPC   C2B64856  27.625   0.159   6.687
 4994POPC   C3B64857  27.724   0.206   7.109
 4994POPC   C4B64858  28.051   0.015   7.254
 4995POPC   NC364859  44.860   5.447   4.968
 4995POPC   PO464860  44.789   5.040   5.350
 4995POPC   GL164861  44.779   5.086   5.803
 4995POPC   GL264862  44.435   5.156   5.890
 4995POPC   C1A64863  44.757   4.919   6.224
 4995POPC   D2A64864  44.531   4.724   6.563
 4995POPC   C3A64865  44.652   4.865   6.954
 4995POPC   C4A64866  44.598   5.214   7.239
 4995POPC   C1B64867  44.592   5.417   6.282
 4995POPC   C2B64868  44.676   5.546   6.746
 4995POPC   C3B64869  44.649   5.720   7.198
 4995POPC   C4B64870  44.606   5.565   7.636
 4996POPC   NC364871  12.003  13.165   5.409
 4996POPC   PO464872  11.806  12.497   5.302
 4996POPC   GL164873  11.935  12.684   5.693
 4996POPC   GL264874  12.291  12.805   5.668
 4996POPC   C1A64875  11.926  12.918   6.082
 4996POPC   D2A64876  11.768  13.088   6.469
 4996POPC   C3A64877  11.936  13.046   6.875
 4996POPC   C4A64878  11.772  13.008   7.273
 4996POPC   C1B64879  12.421  12.996   6.052
 4996POPC   C2B64880  12.281  12.896   6.481
 4996POPC   C3B64881  12.335  12.725   6.889
 4996POPC   C4B64882  12.250  12.642   7.320
 4997POPC   NC364883  15.153  19.380   5.185
 4997POPC   PO464884  15.347  18.775   5.311
 4997POPC   GL164885  15.092  19.011   5.638
 4997POPC   GL264886  15.159  19.377   5.706
 4997POPC   C1A64887  15.085  19.105   6.115
 4997POPC   D2A64888  15.030  19.252   6.544
 4997POPC   C3A64889  14.999  18.961   6.873
 4997POPC   C4A64890  15.192  19.002   7.250
 4997POPC   C1B64891  15.479  19.433   6.076
 4997POPC   C2B64892  15.563  19.290   6.517
 4997POPC   C3B64893  15.383  19.333   6.925
 4997POPC   C4B64894  15.402  19.724   7.122
 4998POPC   NC364895   2.366   2.634   5.494
 4998POPC   PO464896   1.695   2.468   5.540
 4998POPC   GL164897   1.953   2.659   5.877
 4998POPC   GL264898   2.181   2.970   5.836
 4998POPC   C1A64899   1.952   2.557   6.325
 4998POPC   D2A64900   1.910   2.429   6.763
 4998POPC   C3A64901   1.851   2.819   6.992
 4998POPC   C4A64902   1.577   2.976   7.268
 4998POPC   C1B64903   2.394   2.816   6.222
 4998POPC   C2B64904   2.279   2.791   6.688
 4998POPC   C3B64905   2.284   2.599   7.116
 4998POPC   C4B64906   2.073   2.302   7.413
 4999POPC   NC364907   6.450  41.853   5.148
 4999POPC   PO464908   6.885  42.255   5.551
 4999POPC   GL164909   6.735  42.289   5.977
 4999POPC   GL264910   6.789  41.933   6.107
 4999POPC   C1A64911   6.574  42.344   6.397
 4999POPC   D2A64912   6.352  42.097   6.685
 4999POPC   C3A64913   6.360  42.346   7.059
 4999POPC   C4A64914   6.391  42.788   7.141
 4999POPC   C1B64915   7.068  42.220   6.372
 4999POPC   C2B64916   6.981  42.651   6.523
 4999POPC   C3B64917   6.801  42.545   6.889
 4999POPC   C4B64918   6.990  42.176   7.073
 5000POPC   NC364919  16.937  28.091   5.392
 5000POPC   PO464920  16.646  28.711   5.562
 5000POPC   GL164921  16.608  28.408   5.869
 5000POPC   GL264922  16.494  28.137   5.654
 5000POPC   C1A64923  16.797  28.307   6.299
 5000POPC   D2A64924  17.106  28.472   6.613
 5000POPC   C3A64925  17.029  28.405   7.063
 5000POPC   C4A64926  16.669  28.423   7.333
 5000POPC   C1B64927  16.413  27.986   6.075
 5000POPC   C2B64928  16.506  27.922   6.520
 5000POPC   C3B64929  16.590  28.104   6.905
 5000POPC   C4B64930  16.285  28.094   7.243
 5001POPC   NC364931  44.745  19.245   5.352
 5001POPC   PO464932   0.126  19.716   5.632
 5001POPC   GL164933  44.835  19.357   5.845
 5001POPC   GL264934  44.781  18.978   5.783
 5001POPC   C1A64935  44.711  19.194   6.271
 5001POPC   D2A64936  44.571  18.976   6.648
 5001POPC   C3A64937  44.633  19.189   7.026
 5001POPC   C4A64938  44.773  19.273   7.409
 5001POPC   C1B64939  44.942  18.769   6.130
 5001POPC   C2B64940   0.130  18.851   6.518
 5001POPC   C3B64941  44.965  18.802   6.926
 5001POPC   C4B64942   0.085  18.865   7.342
 5002POPC   NC364943  38.079  36.978   5.362
 5002POPC   PO464944  38.818  36.833   5.427
 5002POPC   GL164945  38.503  36.894   5.754
 5002POPC   GL264946  38.211  36.648   5.775
 5002POPC   C1A64947  38.391  37.045   6.155
 5002POPC   D2A64948  38.376  36.903   6.575
 5002POPC   C3A64949  38.290  37.157   6.943
 5002POPC   C4A64950  38.474  37.017   7.310
 5002POPC   C1B64951  38.406  36.530   6.173
 5002POPC   C2B64952  38.563  36.437   6.593
 5002POPC   C3B64953  38.396  36.520   7.002
 5002POPC   C4B64954  38.312  36.559   7.451
 5003POPC   NC364955  36.403  10.680   5.575
 5003POPC   PO464956  35.759  10.701   5.391
 5003POPC   GL164957  35.971  10.491   5.781
 5003POPC   GL264958  35.772  10.392   6.068
 5003POPC   C1A64959  36.262  10.431   6.174
 5003POPC   D2A64960  36.390  10.655   6.558
 5003POPC   C3A64961  36.267  10.462   6.938
 5003POPC   C4A64962  36.147  10.412   7.390
 5003POPC   C1B64963  35.940  10.828   6.206
 5003POPC   C2B64964  35.978  10.980   6.642
 5003POPC   C3B64965  35.861  10.755   7.041
 5003POPC   C4B64966  35.635  10.468   7.359
 5004POPC   NC364967  10.988  38.558   5.476
 5004POPC   PO464968  10.337  38.163   5.517
 5004POPC   GL164969  10.235  38.347   5.916
 5004POPC   GL264970  10.517  38.595   5.907
 5004POPC   C1A64971  10.311  38.330   6.367
 5004POPC   D2A64972  10.664  38.422   6.648
 5004POPC   C3A64973  10.707  38.088   6.954
 5004POPC   C4A64974  10.390  38.059   7.251
 5004POPC   C1B64975  10.595  38.854   6.263
 5004POPC   C2B64976  10.740  38.955   6.660
 5004POPC   C3B64977  10.668  38.783   7.031
 5004POPC   C4B64978  10.310  38.755   7.249
 5005POPC   NC364979  28.959  31.464   5.211
 5005POPC   PO464980  29.582  31.139   5.452
 5005POPC   GL164981  29.524  31.440   5.832
 5005POPC   GL264982  29.193  31.447   5.885
 5005POPC   C1A64983  29.435  31.469   6.314
 5005POPC   D2A64984  29.223  31.130   6.578
 5005POPC   C3A64985  29.301  31.240   7.020
 5005POPC   C4A64986  29.221  31.313   7.471
 5005POPC   C1B64987  28.933  31.488   6.293
 5005POPC   C2B64988  28.991  31.550   6.745
 5005POPC   C3B64989  28.941  31.616   7.184
 5005POPC   C4B64990  28.858  31.997   7.384
 5006POPC   NC364991   4.738  32.830   5.373
 5006POPC   PO464992   5.130  32.198   5.417
 5006POPC   GL164993   5.177  32.259   5.858
 5006POPC   GL264994   5.521  32.259   5.886
 5006POPC   C1A64995   4.952  32.170   6.258
 5006POPC   D2A64996   4.806  31.916   6.560
 5006POPC   C3A64997   5.012  32.075   6.902
 5006POPC   C4A64998   4.817  32.164   7.274
 5006POPC   C1B64999   5.381  32.447   6.301
 5006POPC   C2B65000   5.070  32.542   6.647
 5006POPC   C3B65001   5.069  32.560   7.112
 5006POPC   C4B65002   4.919  32.555   7.577
 5007POPC   NC365003  31.714  15.537   5.418
 5007POPC   PO465004  31.312  14.951   5.327
 5007POPC   GL165005  31.410  15.210   5.680
 5007POPC   GL265006  31.661  14.998   5.797
 5007POPC   C1A65007  31.432  15.306   6.136
 5007POPC   D2A65008  31.364  15.143   6.550
 5007POPC   C3A65009  31.495  15.378   6.901
 5007POPC   C4A65010  31.375  15.298   7.283
 5007POPC   C1B65011  31.838  14.979   6.229
 5007POPC   C2B65012  31.861  15.106   6.659
 5007POPC   C3B65013  31.803  15.006   7.098
 5007POPC   C4B65014  31.857  15.244   7.466
 5008POPC   NC365015  44.250  21.708   5.515
 5008POPC   PO465016  43.776  21.207   5.540
 5008POPC   GL165017  43.835  21.460   5.880
 5008POPC   GL265018  44.161  21.480   5.943
 5008POPC   C1A65019  43.840  21.360   6.321
 5008POPC   D2A65020  43.486  21.150   6.482
 5008POPC   C3A65021  43.581  21.148   6.891
 5008POPC   C4A65022  43.902  21.394   7.140
 5008POPC   C1B65023  44.350  21.543   6.316
 5008POPC   C2B65024  44.223  21.507   6.738
 5008POPC   C3B65025  44.383  21.659   7.134
 5008POPC   C4B65026  44.201  21.692   7.534
 5009POPC   NC365027  11.257  17.878   5.584
 5009POPC   PO465028  11.189  18.531   5.641
 5009POPC   GL165029  11.198  18.271   5.993
 5009POPC   GL265030  11.497  18.004   6.018
 5009POPC   C1A65031  11.373  18.311   6.417
 5009POPC   D2A65032  11.533  18.000   6.716
 5009POPC   C3A65033  11.722  18.314   6.968
 5009POPC   C4A65034  11.481  18.675   7.120
 5009POPC   C1B65035  11.157  17.871   6.292
 5009POPC   C2B65036  10.906  18.150   6.570
 5009POPC   C3B65037  11.135  18.357   6.886
 5009POPC   C4B65038  11.304  18.074   7.190
 5010POPC   NC365039  40.322  34.520   5.340
 5010POPC   PO465040  41.013  34.367   5.462
 5010POPC   GL165041  40.844  34.573   5.833
 5010POPC   GL265042  40.516  34.679   5.777
 5010POPC   C1A65043  40.657  34.479   6.257
 5010POPC   D2A65044  40.838  34.324   6.666
 5010POPC   C3A65045  40.629  34.500   7.012
 5010POPC   C4A65046  40.871  34.753   7.252
 5010POPC   C1B65047  40.422  34.961   6.093
 5010POPC   C2B65048  40.360  34.862   6.519
 5010POPC   C3B65049  40.377  35.042   6.890
 5010POPC   C4B65050  40.398  34.919   7.280
 5011POPC   NC365051  33.936  44.100   5.404
 5011POPC   PO465052  33.565  43.570   5.400
 5011POPC   GL165053  33.650  43.867   5.813
 5011POPC   GL265054  33.309  44.005   5.896
 5011POPC   C1A65055  33.986  43.967   6.194
 5011POPC   D2A65056  34.255  43.848   6.606
 5011POPC   C3A65057  34.149  43.991   7.051
 5011POPC   C4A65058  33.729  44.013   7.261
 5011POPC   C1B65059  33.480  43.980   6.325
 5011POPC   C2B65060  33.767  44.011   6.675
 5011POPC   C3B65061  33.848  43.635   6.902
 5011POPC   C4B65062  33.654  43.522   7.252
 5012POPC   NC365063  22.127   7.731   5.140
 5012POPC   PO465064  22.213   8.336   5.398
 5012POPC   GL165065  22.176   8.396   5.814
 5012POPC   GL265066  21.846   8.565   5.821
 5012POPC   C1A65067  22.311   8.352   6.263
 5012POPC   D2A65068  22.168   7.979   6.529
 5012POPC   C3A65069  22.313   7.994   6.988
 5012POPC   C4A65070  22.407   8.454   7.139
 5012POPC   C1B65071  21.823   8.286   6.153
 5012POPC   C2B65072  21.863   8.413   6.503
 5012POPC   C3B65073  22.012   8.359   6.841
 5012POPC   C4B65074  21.879   8.397   7.243
 5013POPC   NC365075  13.068   4.405   5.301
 5013POPC   PO465076  12.469   4.611   5.331
 5013POPC   GL165077  12.700   4.365   5.714
 5013POPC   GL265078  13.034   4.212   5.795
 5013POPC   C1A65079  12.704   4.217   6.174
 5013POPC   D2A65080  12.821   4.012   6.558
 5013POPC   C3A65081  12.703   4.249   6.919
 5013POPC   C4A65082  12.634   4.178   7.314
 5013POPC   C1B65083  13.223   4.179   6.227
 5013POPC   C2B65084  13.314   4.126   6.653
 5013POPC   C3B65085  13.135   4.005   7.027
 5013POPC   C4B65086  13.134   4.360   7.261
 5014POPC   NC365087  17.984   3.483   5.386
 5014POPC   PO465088  18.517   3.185   5.452
 5014POPC   GL165089  18.429   3.473   5.759
 5014POPC   GL265090  18.116   3.535   5.892
 5014POPC   C1A65091  18.538   3.412   6.183
 5014POPC   D2A65092  18.230   3.480   6.480
 5014POPC   C3A65093  18.352   3.490   6.884
 5014POPC   C4A65094  18.414   3.543   7.297
 5014POPC   C1B65095  17.880   3.749   6.192
 5014POPC   C2B65096  17.951   3.870   6.606
 5014POPC   C3B65097  17.895   3.723   6.995
 5014POPC   C4B65098  17.953   3.758   7.417
 5015POPC   NC365099  26.221   9.865   5.504
 5015POPC   PO465100  25.667   9.553   5.222
 5015POPC   GL165101  25.724   9.631   5.693
 5015POPC   GL265102  25.912   9.905   5.892
 5015POPC   C1A65103  25.725   9.547   6.166
 5015POPC   D2A65104  25.901   9.448   6.562
 5015POPC   C3A65105  25.709   9.615   6.953
 5015POPC   C4A65106  26.002   9.749   7.244
 5015POPC   C1B65107  26.251   9.772   6.201
 5015POPC   C2B65108  26.544   9.992   6.486
 5015POPC   C3B65109  26.343  10.005   6.898
 5015POPC   C4B65110  26.466   9.958   7.324
 5016POPC   NC365111  43.732   1.430   5.433
 5016POPC   PO465112  44.144   0.842   5.271
 5016POPC   GL165113  44.075   1.124   5.713
 5016POPC   GL265114  44.133   1.510   5.768
 5016POPC   C1A65115  43.998   1.256   6.178
 5016POPC   D2A65116  43.665   1.215   6.493
 5016POPC   C3A65117  43.834   1.242   6.897
 5016POPC   C4A65118  43.744   1.026   7.273
 5016POPC   C1B65119  44.158   1.789   6.125
 5016POPC   C2B65120  44.360   1.827   6.545
 5016POPC   C3B65121  44.248   1.610   6.935
 5016POPC   C4B65122  44.119   1.384   7.301
 5017POPC   NC365123  39.233  31.190   5.546
 5017POPC   PO465124  39.401  31.850   5.550
 5017POPC   GL165125  39.231  31.596   5.875
 5017POPC   GL265126  38.920  31.563   5.718
 5017POPC   C1A65127  39.374  31.412   6.280
 5017POPC   D2A65128  39.376  31.555   6.724
 5017POPC   C3A65129  39.316  31.565   7.175
 5017POPC   C4A65130  39.578  31.736   7.552
 5017POPC   C1B65131  38.861  31.339   6.136
 5017POPC   C2B65132  38.992  31.222   6.557
 5017POPC   C3B65133  39.046  31.132   6.987
 5017POPC   C4B65134  38.859  31.333   7.337
 5018POPC   NC365135  23.799  33.676   5.408
 5018POPC   PO465136  23.373  34.202   5.623
 5018POPC   GL165137  23.465  33.790   5.881
 5018POPC   GL265138  23.794  33.629   5.906
 5018POPC   C1A65139  23.523  33.590   6.328
 5018POPC   D2A65140  23.628  33.658   6.779
 5018POPC   C3A65141  23.349  33.836   7.078
 5018POPC   C4A65142  23.255  33.616   7.467
 5018POPC   C1B65143  23.913  33.906   6.247
 5018POPC   C2B65144  23.792  34.123   6.612
 5018POPC   C3B65145  23.849  34.075   7.048
 5018POPC   C4B65146  23.771  33.791   7.357
 5019POPC   NC365147  41.319  42.973   5.466
 5019POPC   PO465148  40.658  42.736   5.425
 5019POPC   GL165149  40.927  42.782   5.776
 5019POPC   GL265150  40.903  43.120   5.821
 5019POPC   C1A65151  41.011  42.787   6.236
 5019POPC   D2A65152  40.715  42.903   6.562
 5019POPC   C3A65153  40.838  42.996   6.993
 5019POPC   C4A65154  41.059  42.792   7.339
 5019POPC   C1B65155  40.638  43.234   6.164
 5019POPC   C2B65156  40.734  43.416   6.586
 5019POPC   C3B65157  40.616  43.527   7.018
 5019POPC   C4B65158  40.630  43.283   7.378
 5020POPC   NC365159  44.068  40.545   5.649
 5020POPC   PO465160  43.665  40.945   5.242
 5020POPC   GL165161  43.763  40.960   5.730
 5020POPC   GL265162  43.641  40.643   5.906
 5020POPC   C1A65163  43.969  41.006   6.186
 5020POPC   D2A65164  43.992  41.231   6.610
 5020POPC   C3A65165  43.965  40.961   6.999
 5020POPC   C4A65166  43.797  41.060   7.432
 5020POPC   C1B65167  43.907  40.505   6.281
 5020POPC   C2B65168  43.940  40.484   6.731
 5020POPC   C3B65169  43.709  40.529   7.111
 5020POPC   C4B65170  43.989  40.601   7.422
 5021POPC   NC365171  24.048  16.966   5.544
 5021POPC   PO465172  24.590  16.586   5.501
 5021POPC   GL165173  24.304  16.637   5.859
 5021POPC   GL265174  24.468  16.950   5.857
 5021POPC   C1A65175  24.228  16.891   6.276
 5021POPC   D2A65176  24.122  16.875   6.698
 5021POPC   C3A65177  24.351  16.785   7.049
 5021POPC   C4A65178  24.211  16.909   7.430
 5021POPC   C1B65179  24.685  16.665   6.212
 5021POPC   C2B65180  24.690  16.675   6.663
 5021POPC   C3B65181  24.839  16.630   7.075
 5021POPC   C4B65182  24.854  16.763   7.513
 5022POPC   NC365183  37.011  40.208   5.400
 5022POPC   PO465184  36.777  39.514   5.398
 5022POPC   GL165185  36.664  39.773   5.775
 5022POPC   GL265186  36.933  40.024   5.858
 5022POPC   C1A65187  36.588  39.954   6.201
 5022POPC   D2A65188  36.896  39.918   6.518
 5022POPC   C3A65189  36.846  40.093   6.928
 5022POPC   C4A65190  36.604  40.024   7.306
 5022POPC   C1B65191  37.277  39.927   6.142
 5022POPC   C2B65192  37.416  39.711   6.491
 5022POPC   C3B65193  37.262  39.796   6.888
 5022POPC   C4B65194  37.059  39.777   7.265
 5023POPC   NC365195   2.953  17.277   5.598
 5023POPC   PO465196   2.525  17.677   5.484
 5023POPC   GL165197   2.528  17.448   5.858
 5023POPC   GL265198   2.791  17.662   5.936
 5023POPC   C1A65199   2.692  17.261   6.253
 5023POPC   D2A65200   2.734  16.975   6.620
 5023POPC   C3A65201   3.034  17.111   6.920
 5023POPC   C4A65202   2.821  17.362   7.194
 5023POPC   C1B65203   2.475  17.805   6.217
 5023POPC   C2B65204   2.517  17.618   6.612
 5023POPC   C3B65205   2.555  17.813   6.982
 5023POPC   C4B65206   2.845  17.858   7.290
 5024POPC   NC365207   8.275  41.934   5.361
 5024POPC   PO465208   7.799  41.488   5.331
 5024POPC   GL165209   8.098  41.640   5.753
 5024POPC   GL265210   8.102  41.992   5.829
 5024POPC   C1A65211   8.256  41.455   6.196
 5024POPC   D2A65212   8.166  41.213   6.607
 5024POPC   C3A65213   8.364  41.309   7.012
 5024POPC   C4A65214   8.577  41.271   7.411
 5024POPC   C1B65215   8.061  41.928   6.233
 5024POPC   C2B65216   8.243  41.858   6.587
 5024POPC   C3B65217   8.187  41.788   6.978
 5024POPC   C4B65218   8.291  41.706   7.389
 5025POPC   NC365219  28.449  15.740   5.325
 5025POPC   PO465220  28.818  16.304   5.242
 5025POPC   GL165221  28.594  16.126   5.691
 5025POPC   GL265222  28.361  15.839   5.802
 5025POPC   C1A65223  28.573  16.081   6.184
 5025POPC   D2A65224  28.618  15.844   6.566
 5025POPC   C3A65225  28.269  15.921   6.835
 5025POPC   C4A65226  28.400  16.140   7.179
 5025POPC   C1B65227  28.103  15.845   6.186
 5025POPC   C2B65228  27.895  15.677   6.539
 5025POPC   C3B65229  27.980  15.497   6.942
 5025POPC   C4B65230  28.158  15.656   7.324
 5026POPC   NC365231  44.562   4.689   5.548
 5026POPC   PO465232  44.880   4.123   5.418
 5026POPC   GL165233  44.852   4.219   5.801
 5026POPC   GL265234  44.972   4.558   5.857
 5026POPC   C1A65235  44.598   3.992   6.074
 5026POPC   D2A65236  44.566   3.916   6.494
 5026POPC   C3A65237  44.417   4.237   6.742
 5026POPC   C4A65238  44.604   4.377   7.113
 5026POPC   C1B65239  44.815   4.406   6.280
 5026POPC   C2B65240  44.910   4.406   6.706
 5026POPC   C3B65241   0.080   4.558   7.086
 5026POPC   C4B65242  44.766   4.746   7.436
 5027POPC   NC365243  21.496  36.646   5.395
 5027POPC   PO465244  20.959  36.401   5.663
 5027POPC   GL165245  21.281  36.841   5.795
 5027POPC   GL265246  21.668  36.895   5.834
 5027POPC   C1A65247  21.309  36.933   6.217
 5027POPC   D2A65248  21.114  37.052   6.582
 5027POPC   C3A65249  21.193  36.798   6.937
 5027POPC   C4A65250  21.149  36.931   7.341
 5027POPC   C1B65251  21.765  36.715   6.217
 5027POPC   C2B65252  21.599  36.457   6.537
 5027POPC   C3B65253  21.689  36.670   6.920
 5027POPC   C4B65254  21.628  36.961   7.228
 5028POPC   NC365255  14.453  18.746   5.515
 5028POPC   PO465256  14.721  19.300   5.320
 5028POPC   GL165257  14.648  19.195   5.805
 5028POPC   GL265258  14.683  18.833   5.964
 5028POPC   C1A65259  14.595  19.260   6.276
 5028POPC   D2A65260  14.532  19.417   6.734
 5028POPC   C3A65261  14.721  19.274   7.158
 5028POPC   C4A65262  14.711  18.840   7.347
 5028POPC   C1B65263  14.278  18.834   6.216
 5028POPC   C2B65264  14.070  18.848   6.658
 5028POPC   C3B65265  14.275  18.871   7.092
 5028POPC   C4B65266  14.232  18.773   7.589
 5029POPC   NC365267   7.476  12.659   5.361
 5029POPC   PO465268   7.066  13.089   5.178
 5029POPC   GL165269   7.092  12.876   5.657
 5029POPC   GL265270   7.445  12.848   5.839
 5029POPC   C1A65271   7.064  12.702   6.142
 5029POPC   D2A65272   7.360  12.668   6.509
 5029POPC   C3A65273   7.155  12.643   6.915
 5029POPC   C4A65274   7.023  12.928   7.230
 5029POPC   C1B65275   7.754  12.783   6.190
 5029POPC   C2B65276   7.932  12.717   6.597
 5029POPC   C3B65277   7.664  12.795   6.946
 5029POPC   C4B65278   7.496  12.646   7.324
 5030POPC   NC365279  41.425   5.579   5.379
 5030POPC   PO465280  41.910   6.023   5.206
 5030POPC   GL165281  41.735   5.877   5.660
 5030POPC   GL265282  41.374   5.949   5.748
 5030POPC   C1A65283  41.610   5.578   6.060
 5030POPC   D2A65284  41.522   5.404   6.524
 5030POPC   C3A65285  41.687   5.578   6.952
 5030POPC   C4A65286  41.892   5.848   7.281
 5030POPC   C1B65287  41.593   6.118   6.141
 5030POPC   C2B65288  41.599   6.318   6.571
 5030POPC   C3B65289  41.661   6.245   7.033
 5030POPC   C4B65290  41.509   6.138   7.468
 5031POPC   NC365291  35.740  36.256   5.621
 5031POPC   PO465292  36.434  36.086   5.491
 5031POPC   GL165293  36.361  36.150   5.894
 5031POPC   GL265294  36.052  35.976   5.916
 5031POPC   C1A65295  36.240  36.310   6.288
 5031POPC   D2A65296  35.988  36.186   6.635
 5031POPC   C3A65297  36.232  36.297   7.017
 5031POPC   C4A65298  36.002  36.225   7.417
 5031POPC   C1B65299  36.212  35.788   6.299
 5031POPC   C2B65300  36.379  35.872   6.719
 5031POPC   C3B65301  36.198  35.805   7.163
 5031POPC   C4B65302  36.129  35.781   7.636
 5032POPC   NC365303  20.777  35.135   5.379
 5032POPC   PO465304  21.151  35.757   5.378
 5032POPC   GL165305  20.916  35.477   5.720
 5032POPC   GL265306  20.538  35.544   5.779
 5032POPC   C1A65307  20.863  35.310   6.158
 5032POPC   D2A65308  20.652  35.390   6.571
 5032POPC   C3A65309  20.845  35.271   6.955
 5032POPC   C4A65310  21.042  34.953   7.164
 5032POPC   C1B65311  20.297  35.457   6.191
 5032POPC   C2B65312  20.186  35.573   6.654
 5032POPC   C3B65313  20.350  35.442   7.056
 5032POPC   C4B65314  20.303  35.099   7.334
 5033POPC   NC365315   3.796  40.440   5.402
 5033POPC   PO465316   3.246  41.004   5.408
 5033POPC   GL165317   3.366  40.891   5.827
 5033POPC   GL265318   3.680  40.731   5.828
 5033POPC   C1A65319   3.380  40.633   6.231
 5033POPC   D2A65320   3.417  40.481   6.651
 5033POPC   C3A65321   3.360  40.839   6.908
 5033POPC   C4A65322   3.388  40.903   7.311
 5033POPC   C1B65323   3.788  41.014   6.134
 5033POPC   C2B65324   3.700  40.923   6.545
 5033POPC   C3B65325   3.878  40.769   6.942
 5033POPC   C4B65326   3.906  40.907   7.370
 5034POPC   NC365327  34.745  25.868   5.466
 5034POPC   PO465328  34.402  26.411   5.528
 5034POPC   GL165329  34.595  26.205   5.813
 5034POPC   GL265330  34.377  25.984   5.852
 5034POPC   C1A65331  34.781  25.967   6.141
 5034POPC   D2A65332  34.738  25.844   6.550
 5034POPC   C3A65333  35.012  26.044   6.828
 5034POPC   C4A65334  34.946  26.152   7.240
 5034POPC   C1B65335  34.382  26.261   6.262
 5034POPC   C2B65336  34.306  26.167   6.672
 5034POPC   C3B65337  34.500  25.970   7.000
 5034POPC   C4B65338  34.396  25.890   7.406
 5035POPC   NC365339  10.341  17.493   5.697
 5035POPC   PO465340   9.678  17.495   5.339
 5035POPC   GL165341   9.522  17.446   5.776
 5035POPC   GL265342   9.484  17.103   5.788
 5035POPC   C1A65343   9.652  17.533   6.227
 5035POPC   D2A65344   9.673  17.786   6.605
 5035POPC   C3A65345   9.598  17.623   7.013
 5035POPC   C4A65346   9.902  17.749   7.346
 5035POPC   C1B65347   9.781  17.046   6.096
 5035POPC   C2B65348   9.655  17.009   6.506
 5035POPC   C3B65349   9.603  17.105   6.932
 5035POPC   C4B65350   9.675  17.226   7.362
 5036POPC   NC365351  14.600  31.229   5.301
 5036POPC   PO465352  14.282  31.611   5.755
 5036POPC   GL165353  14.336  31.581   6.136
 5036POPC   GL265354  14.681  31.502   6.095
 5036POPC   C1A65355  14.365  31.309   6.454
 5036POPC   D2A65356  14.121  31.469   6.729
 5036POPC   C3A65357  14.260  31.349   7.073
 5036POPC   C4A65358  14.165  31.492   7.451
 5036POPC   C1B65359  14.897  31.258   6.412
 5036POPC   C2B65360  14.749  31.242   6.829
 5036POPC   C3B65361  14.708  31.560   7.132
 5036POPC   C4B65362  14.990  31.721   7.396
 5037POPC   NC365363  20.653  11.492   5.536
 5037POPC   PO465364  20.160  10.944   5.455
 5037POPC   GL165365  20.473  11.064   5.801
 5037POPC   GL265366  20.792  11.145   5.927
 5037POPC   C1A65367  20.409  11.271   6.214
 5037POPC   D2A65368  20.640  11.298   6.586
 5037POPC   C3A65369  20.386  11.328   6.962
 5037POPC   C4A65370  20.514  11.239   7.405
 5037POPC   C1B65371  20.910  10.895   6.275
 5037POPC   C2B65372  20.904  10.895   6.735
 5037POPC   C3B65373  20.893  11.189   7.058
 5037POPC   C4B65374  21.008  11.134   7.497
 5038POPC   NC365375  23.436   9.650   5.364
 5038POPC   PO465376  23.986   9.947   5.226
 5038POPC   GL165377  23.808   9.898   5.671
 5038POPC   GL265378  24.110   9.792   5.822
 5038POPC   C1A65379  23.592   9.762   6.108
 5038POPC   D2A65380  23.410   9.411   6.446
 5038POPC   C3A65381  23.414   9.457   6.915
 5038POPC   C4A65382  23.506   9.869   7.125
 5038POPC   C1B65383  24.004  10.126   6.114
 5038POPC   C2B65384  23.883  10.183   6.521
 5038POPC   C3B65385  23.948   9.937   6.892
 5038POPC   C4B65386  23.979   9.933   7.340
 5039POPC   NC365387  26.110   6.095   4.951
 5039POPC   PO465388  25.852   5.658   5.418
 5039POPC   GL165389  25.939   5.759   5.886
 5039POPC   GL265390  26.150   6.036   5.906
 5039POPC   C1A65391  26.047   5.791   6.377
 5039POPC   D2A65392  25.990   6.033   6.758
 5039POPC   C3A65393  25.936   5.799   7.185
 5039POPC   C4A65394  25.922   5.553   7.587
 5039POPC   C1B65395  26.403   6.137   6.288
 5039POPC   C2B65396  26.487   6.087   6.718
 5039POPC   C3B65397  26.449   6.035   7.156
 5039POPC   C4B65398  26.292   5.970   7.548
 5040POPC   NC365399  31.350   9.620   5.301
 5040POPC   PO465400  30.993  10.163   5.372
 5040POPC   GL165401  31.315  10.052   5.716
 5040POPC   GL265402  31.380   9.673   5.815
 5040POPC   C1A65403  31.345  10.005   6.183
 5040POPC   D2A65404  31.541   9.774   6.542
 5040POPC   C3A65405  31.499   9.786   6.983
 5040POPC   C4A65406  31.636   9.588   7.378
 5040POPC   C1B65407  31.374   9.433   6.213
 5040POPC   C2B65408  31.204   9.383   6.649
 5040POPC   C3B65409  31.314   9.280   7.095
 5040POPC   C4B65410  31.170   9.339   7.518
 5041POPC   NC365411  10.732  41.720   5.656
 5041POPC   PO465412  10.223  41.614   5.163
 5041POPC   GL165413  10.331  41.394   5.670
 5041POPC   GL265414  10.641  41.271   5.896
 5041POPC   C1A65415  10.285  41.526   6.161
 5041POPC   D2A65416  10.088  41.417   6.562
 5041POPC   C3A65417  10.170  41.582   6.965
 5041POPC   C4A65418  10.191  41.849   7.324
 5041POPC   C1B65419  10.769  41.462   6.297
 5041POPC   C2B65420  10.615  41.594   6.702
 5041POPC   C3B65421  10.640  41.628   7.158
 5041POPC   C4B65422  10.958  41.531   7.474
 5042POPC   NC365423  29.150  44.162   5.550
 5042POPC   PO465424  29.425  43.600   5.435
 5042POPC   GL165425  29.306  43.690   5.891
 5042POPC   GL265426  29.424  44.024   5.964
 5042POPC   C1A65427  29.219  43.793   6.369
 5042POPC   D2A65428  28.913  44.010   6.653
 5042POPC   C3A65429  28.838  43.847   7.095
 5042POPC   C4A65430  28.815  44.072   7.464
 5042POPC   C1B65431  29.420  44.287   6.335
 5042POPC   C2B65432  29.583  44.077   6.677
 5042POPC   C3B65433  29.327  43.842   6.919
 5042POPC   C4B65434  29.132  44.263   7.067
 5043POPC   NC365435  29.235   9.289   5.134
 5043POPC   PO465436  29.070   8.672   5.389
 5043POPC   GL165437  29.240   8.951   5.681
 5043POPC   GL265438  29.047   9.240   5.689
 5043POPC   C1A65439  29.362   8.917   6.113
 5043POPC   D2A65440  29.497   8.795   6.514
 5043POPC   C3A65441  29.409   9.050   6.880
 5043POPC   C4A65442  29.377   8.910   7.317
 5043POPC   C1B65443  28.862   9.016   6.094
 5043POPC   C2B65444  28.989   8.918   6.552
 5043POPC   C3B65445  28.912   9.057   7.004
 5043POPC   C4B65446  28.901   9.055   7.491
 5044POPC   NC365447   7.929  15.762   5.241
 5044POPC   PO465448   8.488  16.064   5.438
 5044POPC   GL165449   8.148  15.901   5.696
 5044POPC   GL265450   8.264  16.119   5.937
 5044POPC   C1A65451   8.070  15.693   6.106
 5044POPC   D2A65452   8.315  15.694   6.491
 5044POPC   C3A65453   8.140  15.897   6.855
 5044POPC   C4A65454   8.217  15.632   7.206
 5044POPC   C1B65455   8.100  16.173   6.351
 5044POPC   C2B65456   8.043  16.491   6.655
 5044POPC   C3B65457   7.982  16.368   7.064
 5044POPC   C4B65458   8.273  16.122   7.334
 5045POPC   NC365459  28.910  37.875   5.046
 5045POPC   PO465460  28.622  37.438   5.493
 5045POPC   GL165461  28.272  37.351   5.761
 5045POPC   GL265462  28.386  37.640   5.968
 5045POPC   C1A65463  28.096  37.285   6.178
 5045POPC   D2A65464  28.262  37.441   6.576
 5045POPC   C3A65465  28.095  37.432   6.995
 5045POPC   C4A65466  28.286  37.757   7.218
 5045POPC   C1B65467  28.662  37.695   6.347
 5045POPC   C2B65468  28.735  37.964   6.746
 5045POPC   C3B65469  28.712  38.020   7.206
 5045POPC   C4B65470  28.437  38.109   7.586
 5046POPC   NC365471  14.549  40.550   5.229
 5046POPC   PO465472  14.782  41.149   5.462
 5046POPC   GL165473  14.606  40.976   5.857
 5046POPC   GL265474  14.508  40.625   5.763
 5046POPC   C1A65475  14.508  41.002   6.337
 5046POPC   D2A65476  14.220  41.017   6.721
 5046POPC   C3A65477  14.347  40.878   7.168
 5046POPC   C4A65478  14.259  40.896   7.623
 5046POPC   C1B65479  14.491  40.488   6.215
 5046POPC   C2B65480  14.505  40.566   6.681
 5046POPC   C3B65481  14.202  40.424   7.004
 5046POPC   C4B65482  14.306  40.395   7.466
 5047POPC   NC365483  33.867   0.634   5.243
 5047POPC   PO465484  33.676   0.105   5.595
 5047POPC   GL165485  33.667   0.408   5.872
 5047POPC   GL265486  33.902   0.633   5.803
 5047POPC   C1A65487  33.819   0.428   6.286
 5047POPC   D2A65488  33.595   0.452   6.658
 5047POPC   C3A65489  33.741   0.272   7.044
 5047POPC   C4A65490  33.630   0.213   7.495
 5047POPC   C1B65491  34.198   0.747   6.133
 5047POPC   C2B65492  34.133   0.883   6.551
 5047POPC   C3B65493  33.985   0.708   6.920
 5047POPC   C4B65494  33.997   0.577   7.347
 5048POPC   NC365495  39.810   4.023   5.593
 5048POPC   PO465496  39.680   4.509   5.183
 5048POPC   GL165497  39.736   4.521   5.671
 5048POPC   GL265498  40.123   4.442   5.743
 5048POPC   C1A65499  39.778   4.360   6.138
 5048POPC   D2A65500  39.695   4.264   6.554
 5048POPC   C3A65501  39.874   4.569   6.835
 5048POPC   C4A65502  40.194   4.471   7.098
 5048POPC   C1B65503  40.233   4.148   6.108
 5048POPC   C2B65504  40.222   4.265   6.578
 5048POPC   C3B65505  39.996   4.038   6.918
 5048POPC   C4B65506  40.213   3.963   7.294
 5049POPC   NC365507   2.818  13.876   5.400
 5049POPC   PO465508   2.382  14.335   5.409
 5049POPC   GL165509   2.500  14.067   5.767
 5049POPC   GL265510   2.895  14.111   5.835
 5049POPC   C1A65511   2.552  14.146   6.197
 5049POPC   D2A65512   2.629  14.392   6.548
 5049POPC   C3A65513   2.522  14.313   6.955
 5049POPC   C4A65514   2.621  14.611   7.274
 5049POPC   C1B65515   2.949  14.467   6.125
 5049POPC   C2B65516   3.141  14.459   6.528
 5049POPC   C3B65517   2.992  14.480   6.924
 5049POPC   C4B65518   3.139  14.599   7.307
 5050POPC   NC365519  31.323  12.200   5.464
 5050POPC   PO465520  31.945  12.441   5.703
 5050POPC   GL165521  31.610  12.370   5.861
 5050POPC   GL265522  31.612  12.037   5.845
 5050POPC   C1A65523  31.547  12.477   6.259
 5050POPC   D2A65524  31.717  12.331   6.631
 5050POPC   C3A65525  31.448  12.314   6.996
 5050POPC   C4A65526  31.558  12.212   7.431
 5050POPC   C1B65527  31.660  11.965   6.264
 5050POPC   C2B65528  31.417  11.891   6.656
 5050POPC   C3B65529  31.593  11.784   7.070
 5050POPC   C4B65530  31.874  11.815   7.448
 5051POPC   NC365531  44.181  31.903   5.452
 5051POPC   PO465532  44.675  31.415   5.257
 5051POPC   GL165533  44.497  31.523   5.670
 5051POPC   GL265534  44.624  31.852   5.736
 5051POPC   C1A65535  44.548  31.436   6.099
 5051POPC   D2A65536  44.691  31.524   6.515
 5051POPC   C3A65537  44.343  31.543   6.797
 5051POPC   C4A65538  44.209  31.314   7.152
 5051POPC   C1B65539  44.920  31.878   6.101
 5051POPC   C2B65540  44.986  31.950   6.558
 5051POPC   C3B65541  44.717  31.888   6.881
 5051POPC   C4B65542  44.666  31.574   7.197
 5052POPC   NC365543   5.648  41.738   5.381
 5052POPC   PO465544   6.297  41.511   5.443
 5052POPC   GL165545   6.049  41.678   5.740
 5052POPC   GL265546   5.766  41.493   5.798
 5052POPC   C1A65547   5.984  41.781   6.164
 5052POPC   D2A65548   6.057  41.542   6.530
 5052POPC   C3A65549   5.927  41.764   6.872
 5052POPC   C4A65550   5.893  41.666   7.287
 5052POPC   C1B65551   5.621  41.387   6.195
 5052POPC   C2B65552   5.549  41.486   6.600
 5052POPC   C3B65553   5.721  41.293   6.942
 5052POPC   C4B65554   5.597  41.170   7.317
 5053POPC   NC365555  34.964  36.829   5.612
 5053POPC   PO465556  34.339  36.940   5.407
 5053POPC   GL165557  34.441  37.068   5.817
 5053POPC   GL265558  34.770  37.229   5.878
 5053POPC   C1A65559  34.201  37.053   6.189
 5053POPC   D2A65560  34.303  36.864   6.573
 5053POPC   C3A65561  34.570  37.106   6.800
 5053POPC   C4A65562  34.549  37.196   7.216
 5053POPC   C1B65563  34.826  37.137   6.315
 5053POPC   C2B65564  35.072  37.177   6.695
 5053POPC   C3B65565  35.009  36.977   7.086
 5053POPC   C4B65566  34.675  36.666   7.145
 5054POPC   NC365567  10.339   1.719   5.297
 5054POPC   PO465568  10.937   1.977   5.537
 5054POPC   GL165569  10.704   1.719   5.810
 5054POPC   GL265570  10.320   1.776   5.801
 5054POPC   C1A65571  10.651   1.773   6.276
 5054POPC   D2A65572  10.455   2.122   6.507
 5054POPC   C3A65573  10.585   2.096   6.933
 5054POPC   C4A65574  10.758   2.083   7.329
 5054POPC   C1B65575  10.139   1.796   6.219
 5054POPC   C2B65576  10.234   1.685   6.655
 5054POPC   C3B65577  10.153   1.844   7.063
 5054POPC   C4B65578  10.257   2.178   7.333
 5055POPC   NC365579  13.931  15.094   5.295
 5055POPC   PO465580  14.566  14.996   5.272
 5055POPC   GL165581  14.465  15.341   5.629
 5055POPC   GL265582  14.764  15.365   5.856
 5055POPC   C1A65583  14.250  15.495   6.042
 5055POPC   D2A65584  14.070  15.303   6.448
 5055POPC   C3A65585  14.263  15.324   6.878
 5055POPC   C4A65586  14.245  15.127   7.323
 5055POPC   C1B65587  14.520  15.056   6.117
 5055POPC   C2B65588  14.387  14.916   6.537
 5055POPC   C3B65589  14.507  14.873   6.954
 5055POPC   C4B65590  14.734  15.190   7.185
 5056POPC   NC365591   2.252  17.223   5.494
 5056POPC   PO465592   1.891  16.623   5.485
 5056POPC   GL165593   2.052  16.809   5.815
 5056POPC   GL265594   2.095  16.497   5.983
 5056POPC   C1A65595   1.879  16.992   6.172
 5056POPC   D2A65596   1.648  16.915   6.551
 5056POPC   C3A65597   1.806  17.001   6.950
 5056POPC   C4A65598   1.790  17.082   7.371
 5056POPC   C1B65599   1.765  16.497   6.272
 5056POPC   C2B65600   1.863  16.446   6.677
 5056POPC   C3B65601   1.880  16.503   7.074
 5056POPC   C4B65602   2.113  16.712   7.335
 5057POPC   NC365603  23.290  21.385   5.457
 5057POPC   PO465604  23.960  21.393   5.452
 5057POPC   GL165605  23.751  21.221   5.855
 5057POPC   GL265606  23.403  21.040   5.823
 5057POPC   C1A65607  23.901  21.304   6.314
 5057POPC   D2A65608  23.828  21.533   6.723
 5057POPC   C3A65609  23.806  21.326   7.156
 5057POPC   C4A65610  23.837  21.392   7.605
 5057POPC   C1B65611  23.501  20.981   6.284
 5057POPC   C2B65612  23.593  21.070   6.739
 5057POPC   C3B65613  23.407  21.017   7.167
 5057POPC   C4B65614  23.455  21.069   7.640
 5058POPC   NC365615  39.361  34.959   5.440
 5058POPC   PO465616  39.302  34.315   5.431
 5058POPC   GL165617  39.497  34.479   5.773
 5058POPC   GL265618  39.546  34.825   5.891
 5058POPC   C1A65619  39.611  34.441   6.207
 5058POPC   D2A65620  39.491  34.737   6.529
 5058POPC   C3A65621  39.592  34.638   6.931
 5058POPC   C4A65622  39.444  34.717   7.350
 5058POPC   C1B65623  39.164  34.697   6.115
 5058POPC   C2B65624  38.978  34.682   6.536
 5058POPC   C3B65625  39.099  34.769   6.942
 5058POPC   C4B65626  38.833  34.899   7.254
 5059POPC   NC365627  17.853  23.374   5.266
 5059POPC   PO465628  17.398  23.914   5.438
 5059POPC   GL165629  17.551  23.596   5.692
 5059POPC   GL265630  17.864  23.601   5.730
 5059POPC   C1A65631  17.457  23.437   6.093
 5059POPC   D2A65632  17.552  23.549   6.491
 5059POPC   C3A65633  17.352  23.452   6.876
 5059POPC   C4A65634  17.484  23.445   7.259
 5059POPC   C1B65635  17.799  23.833   6.105
 5059POPC   C2B65636  17.912  23.929   6.535
 5059POPC   C3B65637  17.782  23.742   6.911
 5059POPC   C4B65638  17.823  23.850   7.300
 5060POPC   NC365639  35.136  11.861   5.398
 5060POPC   PO465640  35.673  12.181   5.470
 5060POPC   GL165641  35.528  12.052   5.853
 5060POPC   GL265642  35.184  12.144   5.849
 5060POPC   C1A65643  35.539  12.268   6.246
 5060POPC   D2A65644  35.299  12.294   6.615
 5060POPC   C3A65645  35.442  12.182   6.988
 5060POPC   C4A65646  35.759  12.294   7.292
 5060POPC   C1B65647  35.137  11.935   6.233
 5060POPC   C2B65648  35.014  11.833   6.660
 5060POPC   C3B65649  34.960  12.012   7.037
 5060POPC   C4B65650  34.894  12.231   7.380
 5061POPC   NC365651  44.253  20.088   5.477
 5061POPC   PO465652  43.657  19.658   5.416
 5061POPC   GL165653  43.826  19.899   5.763
 5061POPC   GL265654  44.126  19.688   5.819
 5061POPC   C1A65655  43.965  20.000   6.200
 5061POPC   D2A65656  44.162  19.849   6.571
 5061POPC   C3A65657  44.073  20.080   6.931
 5061POPC   C4A65658  43.808  20.064   7.274
 5061POPC   C1B65659  43.820  19.496   6.111
 5061POPC   C2B65660  43.718  19.581   6.540
 5061POPC   C3B65661  43.867  19.598   6.956
 5061POPC   C4B65662  44.299  19.652   7.095
 5062POPC   NC365663  37.978  42.372   5.388
 5062POPC   PO465664  37.306  42.355   5.431
 5062POPC   GL165665  37.472  42.170   5.791
 5062POPC   GL265666  37.854  42.121   5.811
 5062POPC   C1A65667  37.468  42.366   6.212
 5062POPC   D2A65668  37.313  42.596   6.583
 5062POPC   C3A65669  37.571  42.448   6.886
 5062POPC   C4A65670  37.601  42.090   7.131
 5062POPC   C1B65671  37.952  42.212   6.239
 5062POPC   C2B65672  37.927  42.149   6.673
 5062POPC   C3B65673  38.069  42.268   7.076
 5062POPC   C4B65674  37.884  42.643   7.221
 5063POPC   NC365675   7.284  27.941   5.593
 5063POPC   PO465676   7.652  27.480   5.300
 5063POPC   GL165677   7.626  27.565   5.753
 5063POPC   GL265678   7.500  27.238   5.837
 5063POPC   C1A65679   7.753  27.690   6.198
 5063POPC   D2A65680   7.596  27.580   6.622
 5063POPC   C3A65681   7.446  27.796   6.987
 5063POPC   C4A65682   7.701  27.839   7.326
 5063POPC   C1B65683   7.289  27.453   6.184
 5063POPC   C2B65684   7.146  27.374   6.626
 5063POPC   C3B65685   7.369  27.268   7.015
 5063POPC   C4B65686   7.507  27.356   7.468
 5064POPC   NC365687  16.723   3.341   5.146
 5064POPC   PO465688  16.832   3.967   5.343
 5064POPC   GL165689  16.778   3.589   5.675
 5064POPC   GL265690  16.456   3.604   5.855
 5064POPC   C1A65691  16.887   3.435   6.122
 5064POPC   D2A65692  17.030   3.541   6.527
 5064POPC   C3A65693  17.005   3.295   6.889
 5064POPC   C4A65694  16.994   3.478   7.275
 5064POPC   C1B65695  16.411   3.247   6.166
 5064POPC   C2B65696  16.604   3.218   6.575
 5064POPC   C3B65697  16.527   3.425   7.003
 5064POPC   C4B65698  16.517   3.519   7.467
 5065POPC   NC365699   5.156   7.116   5.523
 5065POPC   PO465700   4.691   6.739   5.334
 5065POPC   GL165701   4.860   6.790   5.770
 5065POPC   GL265702   5.120   6.572   5.940
 5065POPC   C1A65703   4.783   6.827   6.232
 5065POPC   D2A65704   4.958   6.579   6.581
 5065POPC   C3A65705   4.943   6.622   7.027
 5065POPC   C4A65706   5.225   6.351   7.276
 5065POPC   C1B65707   5.250   6.938   6.132
 5065POPC   C2B65708   5.282   6.984   6.551
 5065POPC   C3B65709   5.394   6.797   6.919
 5065POPC   C4B65710   5.272   6.855   7.374
 5066POPC   NC365711  30.322  38.245   5.644
 5066POPC   PO465712  29.818  38.643   5.383
 5066POPC   GL165713  29.895  38.507   5.835
 5066POPC   GL265714  30.193  38.688   5.862
 5066POPC   C1A65715  29.936  38.304   6.281
 5066POPC   D2A65716  29.998  38.137   6.730
 5066POPC   C3A65717  29.708  38.272   7.036
 5066POPC   C4A65718  29.734  38.456   7.455
 5066POPC   C1B65719  30.373  38.615   6.260
 5066POPC   C2B65720  30.271  38.681   6.697
 5066POPC   C3B65721  30.172  38.579   7.100
 5066POPC   C4B65722  30.159  38.211   7.297
 5067POPC   NC365723  43.578  22.208   5.130
 5067POPC   PO465724  43.032  21.858   5.388
 5067POPC   GL165725  43.196  21.955   5.771
 5067POPC   GL265726  43.426  22.223   5.671
 5067POPC   C1A65727  43.039  21.921   6.184
 5067POPC   D2A65728  42.967  22.123   6.581
 5067POPC   C3A65729  43.021  21.845   6.917
 5067POPC   C4A65730  43.184  21.870   7.326
 5067POPC   C1B65731  43.425  22.257   6.163
 5067POPC   C2B65732  43.408  22.418   6.609
 5067POPC   C3B65733  43.332  22.275   7.057
 5067POPC   C4B65734  43.407  22.245   7.563
 5068POPC   NC365735  38.030  32.305   5.325
 5068POPC   PO465736  38.582  32.009   5.374
 5068POPC   GL165737  38.363  32.109   5.772
 5068POPC   GL265738  38.068  31.937   5.820
 5068POPC   C1A65739  38.441  32.256   6.213
 5068POPC   D2A65740  38.813  32.233   6.514
 5068POPC   C3A65741  38.671  32.228   6.949
 5068POPC   C4A65742  38.387  32.442   7.263
 5068POPC   C1B65743  38.188  31.808   6.255
 5068POPC   C2B65744  38.340  31.958   6.672
 5068POPC   C3B65745  38.141  32.017   7.114
 5068POPC   C4B65746  38.331  32.028   7.569
 5069POPC   NC365747  21.936   9.387   5.740
 5069POPC   PO465748  22.150   9.025   5.306
 5069POPC   GL165749  22.210   8.909   5.733
 5069POPC   GL265750  22.528   8.778   5.831
 5069POPC   C1A65751  22.101   8.820   6.185
 5069POPC   D2A65752  21.991   9.087   6.547
 5069POPC   C3A65753  21.961   8.845   6.918
 5069POPC   C4A65754  22.070   8.866   7.333
 5069POPC   C1B65755  22.480   9.163   6.102
 5069POPC   C2B65756  22.497   9.255   6.556
 5069POPC   C3B65757  22.447   9.053   6.954
 5069POPC   C4B65758  22.417   9.232   7.344
 5070POPC   NC365759  12.316  33.117   5.574
 5070POPC   PO465760  12.983  33.335   5.405
 5070POPC   GL165761  13.026  33.073   5.811
 5070POPC   GL265762  12.867  32.739   5.880
 5070POPC   C1A65763  12.893  33.096   6.267
 5070POPC   D2A65764  12.932  33.381   6.637
 5070POPC   C3A65765  13.058  33.199   7.032
 5070POPC   C4A65766  12.854  32.869   7.262
 5070POPC   C1B65767  13.096  32.623   6.286
 5070POPC   C2B65768  13.101  32.802   6.678
 5070POPC   C3B65769  13.288  32.696   7.041
 5070POPC   C4B65770  13.185  32.520   7.404
 5071POPC   NC365771   3.281  37.171   5.473
 5071POPC   PO465772   3.748  36.763   5.191
 5071POPC   GL165773   3.630  36.735   5.649
 5071POPC   GL265774   3.870  36.942   5.832
 5071POPC   C1A65775   3.379  36.860   6.039
 5071POPC   D2A65776   3.227  37.137   6.375
 5071POPC   C3A65777   3.264  37.065   6.848
 5071POPC   C4A65778   3.359  37.374   7.200
 5071POPC   C1B65779   3.825  36.750   6.263
 5071POPC   C2B65780   3.879  36.603   6.693
 5071POPC   C3B65781   3.715  36.856   7.049
 5071POPC   C4B65782   3.870  37.191   7.276
 5072POPC   NC365783  24.622  33.109   5.432
 5072POPC   PO465784  24.176  32.568   5.390
 5072POPC   GL165785  24.314  32.686   5.833
 5072POPC   GL265786  24.297  33.070   5.864
 5072POPC   C1A65787  24.330  32.786   6.309
 5072POPC   D2A65788  24.273  33.094   6.647
 5072POPC   C3A65789  24.348  33.051   7.106
 5072POPC   C4A65790  24.334  32.762   7.467
 5072POPC   C1B65791  24.615  33.206   6.206
 5072POPC   C2B65792  24.803  33.126   6.641
 5072POPC   C3B65793  24.850  33.236   7.119
 5072POPC   C4B65794  24.708  33.119   7.573
 5073POPC   NC365795   9.498  21.242   5.468
 5073POPC   PO465796   9.178  21.847   5.615
 5073POPC   GL165797   9.452  21.584   5.858
 5073POPC   GL265798   9.745  21.801   5.825
 5073POPC   C1A65799   9.574  21.191   6.154
 5073POPC   D2A65800   9.768  21.085   6.571
 5073POPC   C3A65801   9.632  21.226   6.982
 5073POPC   C4A65802   9.447  21.017   7.331
 5073POPC   C1B65803   9.782  21.645   6.229
 5073POPC   C2B65804   9.865  21.591   6.643
 5073POPC   C3B65805   9.600  21.734   6.950
 5073POPC   C4B65806   9.718  21.656   7.337
 5074POPC   NC365807  12.472  16.164   5.681
 5074POPC   PO465808  13.081  16.212   5.384
 5074POPC   GL165809  13.186  16.099   5.796
 5074POPC   GL265810  12.893  15.868   5.827
 5074POPC   C1A65811  13.299  15.827   6.123
 5074POPC   D2A65812  13.317  15.786   6.563
 5074POPC   C3A65813  12.890  15.793   6.766
 5074POPC   C4A65814  12.889  15.849   7.212
 5074POPC   C1B65815  12.863  16.148   6.204
 5074POPC   C2B65816  12.534  16.273   6.496
 5074POPC   C3B65817  12.493  16.121   6.915
 5074POPC   C4B65818  12.405  15.997   7.342
 5075POPC   NC365819  17.101  19.298   5.446
 5075POPC   PO465820  17.470  18.915   5.066
 5075POPC   GL165821  17.460  18.978   5.606
 5075POPC   GL265822  17.393  19.314   5.845
 5075POPC   C1A65823  17.598  18.908   6.066
 5075POPC   D2A65824  17.487  18.900   6.515
 5075POPC   C3A65825  17.677  19.102   6.868
 5075POPC   C4A65826  17.605  18.976   7.296
 5075POPC   C1B65827  17.164  19.187   6.227
 5075POPC   C2B65828  17.247  19.348   6.646
 5075POPC   C3B65829  17.371  19.450   7.073
 5075POPC   C4B65830  17.123  19.129   7.149
 5076POPC   NC365831  29.444  36.186   5.170
 5076POPC   PO465832  29.964  35.795   5.216
 5076POPC   GL165833  30.044  36.130   5.583
 5076POPC   GL265834  29.840  36.048   5.850
 5076POPC   C1A65835  30.232  36.248   6.063
 5076POPC   D2A65836  30.189  36.012   6.483
 5076POPC   C3A65837  30.240  36.144   6.902
 5076POPC   C4A65838  30.202  36.350   7.300
 5076POPC   C1B65839  29.727  36.064   6.264
 5076POPC   C2B65840  29.659  36.164   6.665
 5076POPC   C3B65841  29.732  36.055   7.072
 5076POPC   C4B65842  29.466  35.983   7.454
 5077POPC   NC365843  29.245  11.073   5.162
 5077POPC   PO465844  29.351  10.573   5.580
 5077POPC   GL165845  29.069  10.451   5.871
 5077POPC   GL265846  29.273  10.538   6.113
 5077POPC   C1A65847  28.787  10.404   6.206
 5077POPC   D2A65848  28.940  10.399   6.575
 5077POPC   C3A65849  28.730  10.556   6.919
 5077POPC   C4A65850  28.684  10.442   7.342
 5077POPC   C1B65851  29.451  10.686   6.477
 5077POPC   C2B65852  29.387  10.373   6.785
 5077POPC   C3B65853  29.212  10.379   7.193
 5077POPC   C4B65854  29.384  10.307   7.576
 5078POPC   NC365855  21.546  35.511   5.426
 5078POPC   PO465856  21.177  35.017   5.584
 5078POPC   GL165857  21.367  35.332   5.891
 5078POPC   GL265858  21.377  35.703   5.849
 5078POPC   C1A65859  21.612  35.487   6.247
 5078POPC   D2A65860  21.654  35.401   6.673
 5078POPC   C3A65861  21.405  35.270   6.996
 5078POPC   C4A65862  21.564  35.336   7.418
 5078POPC   C1B65863  21.165  35.722   6.221
 5078POPC   C2B65864  21.127  35.584   6.628
 5078POPC   C3B65865  21.261  35.746   7.021
 5078POPC   C4B65866  21.099  35.513   7.336
 5079POPC   NC365867  32.814  12.340   5.559
 5079POPC   PO465868  33.208  12.823   5.257
 5079POPC   GL165869  33.225  12.699   5.663
 5079POPC   GL265870  33.358  12.364   5.674
 5079POPC   C1A65871  33.043  12.889   6.039
 5079POPC   D2A65872  33.183  13.021   6.437
 5079POPC   C3A65873  32.956  13.259   6.732
 5079POPC   C4A65874  32.949  13.194   7.158
 5079POPC   C1B65875  33.170  12.395   6.113
 5079POPC   C2B65876  32.946  12.566   6.464
 5079POPC   C3B65877  33.067  12.737   6.870
 5079POPC   C4B65878  33.023  12.470   7.237
 5080POPC   NC365879  32.242   9.936   5.431
 5080POPC   PO465880  31.625   9.986   5.297
 5080POPC   GL165881  31.820   9.938   5.755
 5080POPC   GL265882  31.968   9.625   5.852
 5080POPC   C1A65883  31.905   9.964   6.231
 5080POPC   D2A65884  32.028   9.809   6.643
 5080POPC   C3A65885  31.990   9.982   7.042
 5080POPC   C4A65886  32.367  10.105   7.235
 5080POPC   C1B65887  32.327   9.668   6.192
 5080POPC   C2B65888  32.478   9.584   6.645
 5080POPC   C3B65889  32.250   9.551   7.072
 5080POPC   C4B65890  32.068   9.324   7.446
 5081POPC   NC365891   5.962   6.637   5.354
 5081POPC   PO465892   5.283   6.556   5.470
 5081POPC   GL165893   5.591   6.726   5.783
 5081POPC   GL265894   5.866   6.485   5.830
 5081POPC   C1A65895   5.639   6.642   6.250
 5081POPC   D2A65896   5.431   6.355   6.528
 5081POPC   C3A65897   5.623   6.325   6.920
 5081POPC   C4A65898   5.684   6.586   7.270
 5081POPC   C1B65899   6.151   6.643   6.136
 5081POPC   C2B65900   6.250   6.641   6.569
 5081POPC   C3B65901   6.075   6.616   6.964
 5081POPC   C4B65902   6.115   6.854   7.403
 5082POPC   NC365903  40.206  42.644   5.403
 5082POPC   PO465904  39.814  42.106   5.387
 5082POPC   GL165905  39.930  42.324   5.749
 5082POPC   GL265906  39.897  42.661   5.817
 5082POPC   C1A65907  40.159  42.258   6.117
 5082POPC   D2A65908  40.154  42.461   6.514
 5082POPC   C3A65909  40.152  42.181   6.866
 5082POPC   C4A65910  40.209  42.336   7.252
 5082POPC   C1B65911  39.760  42.560   6.213
 5082POPC   C2B65912  39.665  42.393   6.655
 5082POPC   C3B65913  39.732  42.413   7.127
 5082POPC   C4B65914  39.791  42.258   7.596
 5083POPC   NC365915  14.263   5.376   5.460
 5083POPC   PO465916  14.377   6.027   5.378
 5083POPC   GL165917  14.494   5.776   5.742
 5083POPC   GL265918  14.150   5.724   5.834
 5083POPC   C1A65919  14.655   5.830   6.196
 5083POPC   D2A65920  14.879   5.784   6.617
 5083POPC   C3A65921  14.624   5.805   7.014
 5083POPC   C4A65922  14.279   6.010   7.224
 5083POPC   C1B65923  14.312   5.464   6.160
 5083POPC   C2B65924  14.353   5.585   6.609
 5083POPC   C3B65925  14.131   5.517   7.011
 5083POPC   C4B65926  14.154   5.572   7.475
 5084POPC   NC365927   0.748  18.437   5.672
 5084POPC   PO465928   0.183  18.539   5.342
 5084POPC   GL165929   0.205  18.438   5.817
 5084POPC   GL265930   0.411  18.686   5.983
 5084POPC   C1A65931   0.342  18.204   6.234
 5084POPC   D2A65932   0.219  17.901   6.591
 5084POPC   C3A65933   0.350  18.094   7.009
 5084POPC   C4A65934   0.245  18.136   7.480
 5084POPC   C1B65935   0.694  18.570   6.312
 5084POPC   C2B65936   0.563  18.438   6.690
 5084POPC   C3B65937   0.435  18.596   7.075
 5084POPC   C4B65938   0.714  18.345   7.282
 5085POPC   NC365939   7.546   4.928   5.464
 5085POPC   PO465940   7.584   5.534   5.738
 5085POPC   GL165941   7.336   5.218   5.877
 5085POPC   GL265942   7.504   4.892   5.966
 5085POPC   C1A65943   7.212   5.229   6.265
 5085POPC   D2A65944   7.371   4.999   6.556
 5085POPC   C3A65945   7.120   4.988   6.872
 5085POPC   C4A65946   7.255   5.052   7.246
 5085POPC   C1B65947   7.748   5.142   6.228
 5085POPC   C2B65948   7.727   5.404   6.587
 5085POPC   C3B65949   7.656   5.256   6.995
 5085POPC   C4B65950   7.755   5.451   7.386
 5086POPC   NC365951   8.751  13.848   5.356
 5086POPC   PO465952   9.377  13.516   5.508
 5086POPC   GL165953   9.048  13.626   5.768
 5086POPC   GL265954   9.115  13.345   5.944
 5086POPC   C1A65955   8.948  13.747   6.199
 5086POPC   D2A65956   8.823  13.596   6.625
 5086POPC   C3A65957   8.925  13.868   6.978
 5086POPC   C4A65958   9.124  13.825   7.403
 5086POPC   C1B65959   9.208  13.301   6.387
 5086POPC   C2B65960   9.217  13.290   6.849
 5086POPC   C3B65961   9.111  13.333   7.292
 5086POPC   C4B65962   9.349  13.439   7.697
 5087POPC   NC365963  35.333  29.712   5.438
 5087POPC   PO465964  35.097  30.415   5.474
 5087POPC   GL165965  35.347  30.077   5.799
 5087POPC   GL265966  35.529  29.700   5.889
 5087POPC   C1A65967  35.445  30.042   6.244
 5087POPC   D2A65968  35.646  29.879   6.575
 5087POPC   C3A65969  35.413  29.784   6.898
 5087POPC   C4A65970  35.532  29.962   7.266
 5087POPC   C1B65971  35.257  29.536   6.212
 5087POPC   C2B65972  35.029  29.528   6.594
 5087POPC   C3B65973  34.968  29.454   7.024
 5087POPC   C4B65974  35.239  29.531   7.379
 5088POPC   NC365975   5.615  11.702   5.241
 5088POPC   PO465976   6.058  12.133   5.409
 5088POPC   GL165977   5.843  12.091   5.782
 5088POPC   GL265978   6.170  12.186   5.911
 5088POPC   C1A65979   5.816  11.939   6.231
 5088POPC   D2A65980   5.711  12.090   6.639
 5088POPC   C3A65981   5.733  11.876   7.032
 5088POPC   C4A65982   5.551  12.116   7.374
 5088POPC   C1B65983   6.321  11.978   6.257
 5088POPC   C2B65984   6.170  11.849   6.650
 5088POPC   C3B65985   6.230  11.987   7.079
 5088POPC   C4B65986   6.034  11.972   7.491
 5089POPC   NC365987  18.716  31.803   5.442
 5089POPC   PO465988  19.311  31.507   5.303
 5089POPC   GL165989  19.025  31.463   5.698
 5089POPC   GL265990  18.995  31.811   5.877
 5089POPC   C1A65991  19.100  31.361   6.154
 5089POPC   D2A65992  19.184  31.556   6.568
 5089POPC   C3A65993  19.099  31.377   6.982
 5089POPC   C4A65994  18.939  31.527   7.383
 5089POPC   C1B65995  18.656  31.632   6.140
 5089POPC   C2B65996  18.657  31.497   6.567
 5089POPC   C3B65997  18.788  31.766   6.907
 5089POPC   C4B65998  18.637  31.945   7.248
 5090POPC   NC365999  20.339  26.122   5.145
 5090POPC   PO466000  20.247  26.649   5.583
 5090POPC   GL166001  20.465  26.802   5.982
 5090POPC   GL266002  20.818  26.977   5.930
 5090POPC   C1A66003  20.611  26.868   6.423
 5090POPC   D2A66004  20.834  26.651   6.777
 5090POPC   C3A66005  20.527  26.518   7.101
 5090POPC   C4A66006  20.284  26.865   7.223
 5090POPC   C1B66007  20.958  27.228   6.278
 5090POPC   C2B66008  21.145  27.243   6.702
 5090POPC   C3B66009  21.025  27.074   7.100
 5090POPC   C4B66010  21.029  27.181   7.536
 5091POPC   NC366011  43.231  26.261   5.559
 5091POPC   PO466012  42.865  25.646   5.563
 5091POPC   GL166013  42.811  25.865   5.924
 5091POPC   GL266014  42.758  26.188   5.781
 5091POPC   C1A66015  42.819  25.910   6.376
 5091POPC   D2A66016  43.055  26.192   6.614
 5091POPC   C3A66017  43.116  26.007   6.976
 5091POPC   C4A66018  43.445  26.125   7.253
 5091POPC   C1B66019  42.824  26.407   6.183
 5091POPC   C2B66020  42.609  26.413   6.572
 5091POPC   C3B66021  42.775  26.434   7.002
 5091POPC   C4B66022  42.969  26.253   7.401
 5092POPC   NC366023  15.415   2.711   5.547
 5092POPC   PO466024  14.841   2.903   5.216
 5092POPC   GL166025  15.019   2.969   5.689
 5092POPC   GL266026  15.021   2.673   5.880
 5092POPC   C1A66027  15.250   3.070   6.104
 5092POPC   D2A66028  15.157   3.069   6.549
 5092POPC   C3A66029  15.251   2.771   6.879
 5092POPC   C4A66030  15.269   2.893   7.318
 5092POPC   C1B66031  15.011   2.608   6.328
 5092POPC   C2B66032  14.771   2.307   6.583
 5092POPC   C3B66033  14.768   2.306   6.995
 5092POPC   C4B66034  15.047   2.438   7.264
 5093POPC   NC366035  37.816  21.701   5.286
 5093POPC   PO466036  37.497  21.086   5.416
 5093POPC   GL166037  37.665  21.412   5.703
 5093POPC   GL266038  37.952  21.635   5.772
 5093POPC   C1A66039  37.622  21.489   6.148
 5093POPC   D2A66040  37.478  21.350   6.539
 5093POPC   C3A66041  37.566  21.543   6.926
 5093POPC   C4A66042  37.596  21.443   7.341
 5093POPC   C1B66043  38.055  21.785   6.188
 5093POPC   C2B66044  37.955  21.543   6.562
 5093POPC   C3B66045  37.955  21.200   6.859
 5093POPC   C4B66046  38.078  21.299   7.257
 5094POPC   NC366047  27.862  29.214   5.405
 5094POPC   PO466048  27.242  28.860   5.387
 5094POPC   GL166049  27.311  29.219   5.710
 5094POPC   GL266050  27.647  29.359   5.855
 5094POPC   C1A66051  27.262  29.208   6.165
 5094POPC   D2A66052  27.599  29.240   6.457
 5094POPC   C3A66053  27.440  29.247   6.885
 5094POPC   C4A66054  27.570  29.044   7.221
 5094POPC   C1B66055  27.917  29.534   6.181
 5094POPC   C2B66056  28.078  29.408   6.573
 5094POPC   C3B66057  27.895  29.505   6.950
 5094POPC   C4B66058  27.629  29.557   7.294
 5095POPC   NC366059  39.033  32.234   5.447
 5095POPC   PO466060  39.704  32.495   5.463
 5095POPC   GL166061  39.466  32.307   5.824
 5095POPC   GL266062  39.137  32.114   5.922
 5095POPC   C1A66063  39.400  32.427   6.234
 5095POPC   D2A66064  39.205  32.615   6.574
 5095POPC   C3A66065  39.307  32.494   6.981
 5095POPC   C4A66066  39.015  32.554   7.314
 5095POPC   C1B66067  39.407  31.919   6.226
 5095POPC   C2B66068  39.468  32.065   6.621
 5095POPC   C3B66069  39.155  32.017   6.900
 5095POPC   C4B66070  39.279  32.075   7.288
 5096POPC   NC366071  28.401  44.312   5.468
 5096POPC   PO466072  28.611  43.617   5.529
 5096POPC   GL166073  28.547  43.960   5.819
 5096POPC   GL266074  28.184  43.974   5.818
 5096POPC   C1A66075  28.528  43.997   6.271
 5096POPC   D2A66076  28.225  43.902   6.586
 5096POPC   C3A66077  28.361  43.789   6.963
 5096POPC   C4A66078  28.439  43.487   7.268
 5096POPC   C1B66079  28.023  44.156   6.194
 5096POPC   C2B66080  28.064  44.371   6.622
 5096POPC   C3B66081  27.917  44.111   6.978
 5096POPC   C4B66082  27.977  43.821   7.320
 5097POPC   NC366083  17.196  24.389   5.455
 5097POPC   PO466084  17.794  24.628   5.416
 5097POPC   GL166085  17.703  24.402   5.805
 5097POPC   GL266086  17.460  24.630   5.855
 5097POPC   C1A66087  17.504  24.231   6.225
 5097POPC   D2A66088  17.426  24.016   6.655
 5097POPC   C3A66089  17.477  24.159   7.089
 5097POPC   C4A66090  17.237  24.442   7.368
 5097POPC   C1B66091  17.700  24.691   6.260
 5097POPC   C2B66092  17.586  24.515   6.661
 5097POPC   C3B66093  17.754  24.580   7.065
 5097POPC   C4B66094  17.672  24.739   7.484
 5098POPC   NC366095  41.270  27.682   5.434
 5098POPC   PO466096  41.965  27.914   5.486
 5098POPC   GL166097  41.810  27.667   5.845
 5098POPC   GL266098  41.459  27.572   5.890
 5098POPC   C1A66099  41.838  27.506   6.274
 5098POPC   D2A66100  41.691  27.315   6.651
 5098POPC   C3A66101  41.673  27.551   7.027
 5098POPC   C4A66102  41.762  27.801   7.420
 5098POPC   C1B66103  41.325  27.469   6.293
 5098POPC   C2B66104  41.087  27.411   6.649
 5098POPC   C3B66105  41.167  27.553   7.063
 5098POPC   C4B66106  41.389  27.453   7.448
 5099POPC   NC366107  21.009  21.084   5.598
 5099POPC   PO466108  20.339  20.951   5.569
 5099POPC   GL166109  20.577  21.212   5.890
 5099POPC   GL266110  20.499  21.597   5.881
 5099POPC   C1A66111  20.703  21.157   6.325
 5099POPC   D2A66112  20.796  21.305   6.756
 5099POPC   C3A66113  21.043  21.054   7.073
 5099POPC   C4A66114  20.806  20.951   7.509
 5099POPC   C1B66115  20.729  21.680   6.269
 5099POPC   C2B66116  20.950  21.799   6.646
 5099POPC   C3B66117  20.759  21.749   7.035
 5099POPC   C4B66118  20.801  21.406   7.303
 5100POPC   NC366119  34.239  28.077   5.489
 5100POPC   PO466120  34.809  27.983   5.589
 5100POPC   GL166121  34.624  28.206   5.900
 5100POPC   GL266122  34.942  28.146   6.065
 5100POPC   C1A66123  34.503  28.366   6.296
 5100POPC   D2A66124  34.276  28.183   6.629
 5100POPC   C3A66125  34.459  28.312   7.004
 5100POPC   C4A66126  34.753  28.218   7.300
 5100POPC   C1B66127  35.003  28.511   6.304
 5100POPC   C2B66128  34.864  28.529   6.742
 5100POPC   C3B66129  35.133  28.498   7.122
 5100POPC   C4B66130  35.093  28.531   7.576
 5101POPC   NC366131  35.003  28.398   5.612
 5101POPC   PO466132  35.670  28.323   5.500
 5101POPC   GL166133  35.446  28.318   5.865
 5101POPC   GL266134  35.386  28.667   5.820
 5101POPC   C1A66135  35.402  28.174   6.279
 5101POPC   D2A66136  35.222  28.151   6.667
 5101POPC   C3A66137  35.526  28.250   6.954
 5101POPC   C4A66138  35.480  28.134   7.385
 5101POPC   C1B66139  35.522  28.668   6.237
 5101POPC   C2B66140  35.383  28.643   6.640
 5101POPC   C3B66141  35.565  28.767   7.006
 5101POPC   C4B66142  35.552  28.641   7.421
 5102POPC   NC366143  13.441  23.861   5.458
 5102POPC   PO466144  13.968  23.458   5.463
 5102POPC   GL166145  13.805  23.701   5.793
 5102POPC   GL266146  13.506  23.505   5.847
 5102POPC   C1A66147  13.808  23.850   6.216
 5102POPC   D2A66148  13.659  23.654   6.600
 5102POPC   C3A66149  13.741  23.807   7.042
 5102POPC   C4A66150  13.795  23.883   7.510
 5102POPC   C1B66151  13.290  23.750   6.177
 5102POPC   C2B66152  13.175  23.852   6.611
 5102POPC   C3B66153  13.231  23.727   7.053
 5102POPC   C4B66154  13.294  23.902   7.484
 5103POPC   NC366155   8.383  13.068   5.444
 5103POPC   PO466156   7.883  12.670   5.559
 5103POPC   GL166157   8.129  12.867   5.849
 5103POPC   GL266158   8.409  12.662   5.784
 5103POPC   C1A66159   8.133  13.131   6.231
 5103POPC   D2A66160   8.333  13.117   6.652
 5103POPC   C3A66161   8.144  12.979   7.047
 5103POPC   C4A66162   8.012  12.555   7.238
 5103POPC   C1B66163   8.525  12.831   6.164
 5103POPC   C2B66164   8.523  12.665   6.512
 5103POPC   C3B66165   8.368  12.567   6.855
 5103POPC   C4B66166   8.517  12.654   7.237
 5104POPC   NC366167   2.397   4.360   5.599
 5104POPC   PO466168   2.931   4.638   5.219
 5104POPC   GL166169   2.826   4.619   5.679
 5104POPC   GL266170   2.888   4.258   5.765
 5104POPC   C1A66171   2.678   4.691   6.122
 5104POPC   D2A66172   2.747   4.492   6.519
 5104POPC   C3A66173   2.459   4.499   6.836
 5104POPC   C4A66174   2.654   4.522   7.197
 5104POPC   C1B66175   2.691   4.123   6.172
 5104POPC   C2B66176   2.716   3.938   6.602
 5104POPC   C3B66177   2.575   4.020   7.000
 5104POPC   C4B66178   2.419   4.110   7.447
 5105POPC   NC366179  38.990  27.223   5.114
 5105POPC   PO466180  39.245  27.854   5.383
 5105POPC   GL166181  39.134  27.790   5.828
 5105POPC   GL266182  39.426  27.882   6.002
 5105POPC   C1A66183  39.153  27.468   6.181
 5105POPC   D2A66184  39.290  27.334   6.583
 5105POPC   C3A66185  39.149  27.538   6.945
 5105POPC   C4A66186  39.230  27.611   7.394
 5105POPC   C1B66187  39.657  27.571   6.266
 5105POPC   C2B66188  39.794  27.500   6.687
 5105POPC   C3B66189  39.638  27.667   7.072
 5105POPC   C4B66190  39.519  28.080   7.257
 5106POPC   NC366191  41.827  21.762   5.504
 5106POPC   PO466192  41.362  21.299   5.269
 5106POPC   GL166193  41.331  21.282   5.747
 5106POPC   GL266194  41.672  21.383   5.845
 5106POPC   C1A66195  41.325  21.433   6.210
 5106POPC   D2A66196  41.551  21.294   6.599
 5106POPC   C3A66197  41.427  21.476   6.995
 5106POPC   C4A66198  41.616  21.358   7.378
 5106POPC   C1B66199  41.969  21.295   6.168
 5106POPC   C2B66200  42.031  21.105   6.566
 5106POPC   C3B66201  41.940  21.266   6.982
 5106POPC   C4B66202  42.018  21.060   7.395
 5107POPC   NC366203  39.761   2.251   5.643
 5107POPC   PO466204  40.054   1.744   5.415
 5107POPC   GL166205  39.945   1.791   5.828
 5107POPC   GL266206  39.614   1.759   5.771
 5107POPC   C1A66207  39.956   1.924   6.278
 5107POPC   D2A66208  40.153   2.218   6.597
 5107POPC   C3A66209  40.226   2.051   7.008
 5107POPC   C4A66210  40.027   1.700   7.262
 5107POPC   C1B66211  39.459   2.059   6.140
 5107POPC   C2B66212  39.514   2.004   6.535
 5107POPC   C3B66213  39.760   1.945   6.855
 5107POPC   C4B66214  39.592   2.102   7.213
 5108POPC   NC366215  39.660   2.453   5.179
 5108POPC   PO466216  40.251   2.764   5.254
 5108POPC   GL166217  40.160   2.884   5.750
 5108POPC   GL266218  39.785   2.783   5.815
 5108POPC   C1A66219  40.140   2.863   6.203
 5108POPC   D2A66220  40.144   2.732   6.627
 5108POPC   C3A66221  39.918   2.970   6.902
 5108POPC   C4A66222  39.957   2.923   7.316
 5108POPC   C1B66223  39.744   2.542   6.241
 5108POPC   C2B66224  39.699   2.482   6.688
 5108POPC   C3B66225  39.912   2.465   7.070
 5108POPC   C4B66226  39.775   2.486   7.498
 5109POPC   NC366227   6.724  31.167   5.454
 5109POPC   PO466228   6.903  31.943   5.530
 5109POPC   GL166229   6.700  31.676   5.851
 5109POPC   GL266230   6.816  31.335   5.912
 5109POPC   C1A66231   6.618  31.627   6.297
 5109POPC   D2A66232   6.467  31.770   6.688
 5109POPC   C3A66233   6.707  31.696   7.032
 5109POPC   C4A66234   6.433  31.559   7.353
 5109POPC   C1B66235   6.476  31.148   6.129
 5109POPC   C2B66236   6.597  31.003   6.526
 5109POPC   C3B66237   6.562  30.923   6.941
 5109POPC   C4B66238   6.653  31.112   7.336
 5110POPC   NC366239  38.671  38.204   5.400
 5110POPC   PO466240  38.389  37.660   5.553
 5110POPC   GL166241  38.467  37.505   5.931
 5110POPC   GL266242  38.764  37.382   5.892
 5110POPC   C1A66243  38.345  37.532   6.345
 5110POPC   D2A66244  38.245  37.860   6.595
 5110POPC   C3A66245  38.334  37.687   6.974
 5110POPC   C4A66246  38.542  37.978   7.182
 5110POPC   C1B66247  38.817  37.287   6.299
 5110POPC   C2B66248  38.684  37.310   6.701
 5110POPC   C3B66249  38.850  37.333   7.140
 5110POPC   C4B66250  38.804  37.285   7.627
 5111POPC   NC366251  37.016  38.099   5.603
 5111POPC   PO466252  37.165  38.615   5.193
 5111POPC   GL166253  36.989  38.636   5.659
 5111POPC   GL266254  36.684  38.434   5.794
 5111POPC   C1A66255  37.037  38.573   6.131
 5111POPC   D2A66256  36.861  38.312   6.460
 5111POPC   C3A66257  37.013  38.370   6.885
 5111POPC   C4A66258  36.860  38.219   7.254
 5111POPC   C1B66259  36.497  38.576   6.173
 5111POPC   C2B66260  36.363  38.690   6.572
 5111POPC   C3B66261  36.554  38.564   6.942
 5111POPC   C4B66262  36.788  38.733   7.282
 5112POPC   NC366263  10.822  10.898   4.984
 5112POPC   PO466264  10.545  11.232   5.395
 5112POPC   GL166265  10.511  10.954   5.844
 5112POPC   GL266266  10.697  10.615   5.916
 5112POPC   C1A66267  10.454  10.797   6.341
 5112POPC   D2A66268  10.371  10.668   6.820
 5112POPC   C3A66269  10.652  10.830   7.160
 5112POPC   C4A66270  10.619  10.999   7.600
 5112POPC   C1B66271  10.693  10.330   6.305
 5112POPC   C2B66272  10.480  10.188   6.691
 5112POPC   C3B66273  10.541  10.186   7.160
 5112POPC   C4B66274  10.810   9.940   7.477
 5113POPC   NC366275  17.999  26.569   5.530
 5113POPC   PO466276  18.612  26.891   5.458
 5113POPC   GL166277  18.394  26.806   5.830
 5113POPC   GL266278  18.357  26.458   5.921
 5113POPC   C1A66279  18.344  26.982   6.242
 5113POPC   D2A66280  18.636  27.062   6.569
 5113POPC   C3A66281  18.442  26.889   6.946
 5113POPC   C4A66282  18.108  26.994   7.255
 5113POPC   C1B66283  18.018  26.599   6.231
 5113POPC   C2B66284  17.972  26.700   6.717
 5113POPC   C3B66285  18.174  26.489   7.117
 5113POPC   C4B66286  18.464  26.401   7.500
 5114POPC   NC366287  29.363  29.662   5.217
 5114POPC   PO466288  29.215  30.209   5.491
 5114POPC   GL166289  29.056  29.889   5.778
 5114POPC   GL266290  29.297  29.644   5.888
 5114POPC   C1A66291  28.852  29.772   6.182
 5114POPC   D2A66292  28.894  29.996   6.581
 5114POPC   C3A66293  29.239  30.093   6.844
 5114POPC   C4A66294  28.983  30.010   7.203
 5114POPC   C1B66295  29.326  29.960   6.223
 5114POPC   C2B66296  29.308  29.677   6.550
 5114POPC   C3B66297  29.451  29.615   6.957
 5114POPC   C4B66298  29.415  29.794   7.378
 5115POPC   NC366299  18.852  43.067   5.349
 5115POPC   PO466300  19.470  42.987   5.587
 5115POPC   GL166301  19.140  42.837   5.812
 5115POPC   GL266302  18.973  43.138   5.833
 5115POPC   C1A66303  19.148  42.911   6.258
 5115POPC   D2A66304  18.915  43.085   6.579
 5115POPC   C3A66305  19.030  42.973   7.004
 5115POPC   C4A66306  19.264  43.111   7.381
 5115POPC   C1B66307  18.846  43.388   6.132
 5115POPC   C2B66308  18.547  43.415   6.412
 5115POPC   C3B66309  18.549  43.309   6.830
 5115POPC   C4B66310  18.837  43.407   7.190
 5116POPC   NC366311   8.189  32.396   5.494
 5116POPC   PO466312   8.714  31.950   5.685
 5116POPC   GL166313   8.381  32.062   5.959
 5116POPC   GL266314   7.996  32.068   5.916
 5116POPC   C1A66315   8.433  32.120   6.398
 5116POPC   D2A66316   8.465  31.802   6.708
 5116POPC   C3A66317   8.345  31.915   7.119
 5116POPC   C4A66318   8.264  32.280   7.346
 5116POPC   C1B66319   8.059  32.448   6.177
 5116POPC   C2B66320   8.341  32.660   6.491
 5116POPC   C3B66321   8.358  32.572   6.933
 5116POPC   C4B66322   7.911  32.544   7.102
 5117POPC   NC366323  39.130  16.646   5.290
 5117POPC   PO466324  39.469  17.034   5.696
 5117POPC   GL166325  39.156  16.812   5.861
 5117POPC   GL266326  39.262  16.532   5.765
 5117POPC   C1A66327  39.100  16.876   6.299
 5117POPC   D2A66328  39.252  17.099   6.618
 5117POPC   C3A66329  39.207  16.872   6.970
 5117POPC   C4A66330  39.216  16.961   7.366
 5117POPC   C1B66331  39.338  16.440   6.185
 5117POPC   C2B66332  39.334  16.511   6.606
 5117POPC   C3B66333  39.425  16.411   7.036
 5117POPC   C4B66334  39.426  16.517   7.424
 5118POPC   NC366335  39.041   7.840   5.485
 5118POPC   PO466336  39.407   8.390   5.512
 5118POPC   GL166337  39.249   8.178   5.844
 5118POPC   GL266338  38.891   8.229   5.857
 5118POPC   C1A66339  39.244   8.253   6.279
 5118POPC   D2A66340  39.509   8.064   6.601
 5118POPC   C3A66341  39.338   7.998   7.014
 5118POPC   C4A66342  39.307   8.132   7.439
 5118POPC   C1B66343  38.762   8.073   6.278
 5118POPC   C2B66344  38.950   8.180   6.701
 5118POPC   C3B66345  38.875   8.162   7.148
 5118POPC   C4B66346  38.870   8.359   7.570
 5119POPC   NC366347  19.276  20.416   5.223
 5119POPC   PO466348  19.955  20.645   5.273
 5119POPC   GL166349  19.768  20.750   5.702
 5119POPC   GL266350  20.029  20.636   5.843
 5119POPC   C1A66351  19.640  20.750   6.160
 5119POPC   D2A66352  19.850  20.676   6.544
 5119POPC   C3A66353  19.649  20.526   6.931
 5119POPC   C4A66354  19.674  20.741   7.312
 5119POPC   C1B66355  20.156  20.344   6.162
 5119POPC   C2B66356  20.252  20.365   6.592
 5119POPC   C3B66357  20.150  20.574   6.958
 5119POPC   C4B66358  19.998  20.363   7.339
 5120POPC   NC366359  20.152   3.188   5.521
 5120POPC   PO466360  20.055   3.760   5.390
 5120POPC   GL166361  20.459   3.641   5.657
 5120POPC   GL266362  20.685   3.856   5.897
 5120POPC   C1A66363  20.491   3.445   6.101
 5120POPC   D2A66364  20.389   3.260   6.512
 5120POPC   C3A66365  20.390   3.400   6.933
 5120POPC   C4A66366  20.521   3.129   7.270
 5120POPC   C1B66367  20.835   3.762   6.351
 5120POPC   C2B66368  20.861   3.492   6.724
 5120POPC   C3B66369  20.830   3.532   7.180
 5120POPC   C4B66370  21.023   3.726   7.558
 5121POPC   NC366371  12.741  33.730   5.340
 5121POPC   PO466372  12.310  33.521   5.812
 5121POPC   GL166373  12.564  33.826   5.949
 5121POPC   GL266374  12.883  33.885   5.812
 5121POPC   C1A66375  12.709  33.781   6.358
 5121POPC   D2A66376  12.681  33.995   6.737
 5121POPC   C3A66377  12.787  33.667   7.060
 5121POPC   C4A66378  12.579  33.294   7.262
 5121POPC   C1B66379  13.133  34.007   6.182
 5121POPC   C2B66380  13.161  33.855   6.612
 5121POPC   C3B66381  13.151  34.042   7.003
 5121POPC   C4B66382  13.083  33.957   7.425
 5122POPC   NC366383  24.982  11.402   5.339
 5122POPC   PO466384  25.565  11.592   5.540
 5122POPC   GL166385  25.240  11.444   5.818
 5122POPC   GL266386  25.069  11.131   5.803
 5122POPC   C1A66387  25.259  11.369   6.252
 5122POPC   D2A66388  25.134  11.581   6.610
 5122POPC   C3A66389  25.231  11.427   7.023
 5122POPC   C4A66390  25.029  11.542   7.420
 5122POPC   C1B66391  24.833  11.120   6.192
 5122POPC   C2B66392  25.013  11.076   6.604
 5122POPC   C3B66393  24.995  10.960   7.005
 5122POPC   C4B66394  24.789  11.076   7.381
 5123POPC   NC366395  29.062  23.272   5.203
 5123POPC   PO466396  28.829  22.670   5.448
 5123POPC   GL166397  29.044  22.865   5.823
 5123POPC   GL266398  29.132  23.240   5.734
 5123POPC   C1A66399  28.866  22.856   6.254
 5123POPC   D2A66400  28.850  22.624   6.640
 5123POPC   C3A66401  28.838  22.861   7.014
 5123POPC   C4A66402  29.188  22.735   7.249
 5123POPC   C1B66403  29.120  23.317   6.185
 5123POPC   C2B66404  29.090  23.155   6.653
 5123POPC   C3B66405  29.193  23.260   7.129
 5123POPC   C4B66406  29.312  23.111   7.564
 5124POPC   NC366407  35.302  37.999   5.539
 5124POPC   PO466408  35.094  37.270   5.478
 5124POPC   GL166409  35.284  37.531   5.784
 5124POPC   GL266410  35.618  37.422   5.883
 5124POPC   C1A66411  35.412  37.821   6.149
 5124POPC   D2A66412  35.159  38.038   6.453
 5124POPC   C3A66413  35.165  37.916   6.918
 5124POPC   C4A66414  35.426  37.816   7.293
 5124POPC   C1B66415  35.310  37.353   6.256
 5124POPC   C2B66416  35.398  37.576   6.628
 5124POPC   C3B66417  35.421  37.370   7.025
 5124POPC   C4B66418  35.479  37.345   7.467
 5125POPC   NC366419  38.137   1.762   5.611
 5125POPC   PO466420  37.517   1.762   5.324
 5125POPC   GL166421  37.677   1.917   5.755
 5125POPC   GL266422  37.580   2.220   5.857
 5125POPC   C1A66423  37.823   1.965   6.230
 5125POPC   D2A66424  37.606   2.170   6.616
 5125POPC   C3A66425  37.803   2.054   6.993
 5125POPC   C4A66426  38.020   2.359   7.186
 5125POPC   C1B66427  37.329   2.015   6.195
 5125POPC   C2B66428  37.440   1.695   6.537
 5125POPC   C3B66429  37.404   1.723   6.962
 5125POPC   C4B66430  37.312   2.135   7.082
 5126POPC   NC366431  44.807  44.565   5.218
 5126POPC   PO466432  44.298  44.976   5.334
 5126POPC   GL166433  44.645  44.785   5.646
 5126POPC   GL266434  44.600  44.456   5.782
 5126POPC   C1A66435  44.757  44.806   6.120
 5126POPC   D2A66436  44.981  44.844   6.528
 5126POPC   C3A66437  44.899  44.695   6.957
 5126POPC   C4A66438  44.605  44.882   7.260
 5126POPC   C1B66439  44.345  44.455   6.187
 5126POPC   C2B66440  44.473  44.560   6.632
 5126POPC   C3B66441  44.495  44.389   7.086
 5126POPC   C4B66442  44.388  44.508   7.538
 5127POPC   NC366443  27.260   5.617   5.164
 5127POPC   PO466444  27.781   6.086   5.359
 5127POPC   GL166445  27.523   5.880   5.701
 5127POPC   GL266446  27.775   5.736   5.955
 5127POPC   C1A66447  27.340   5.936   6.127
 5127POPC   D2A66448  27.578   5.830   6.489
 5127POPC   C3A66449  27.315   5.777   6.826
 5127POPC   C4A66450  27.261   5.899   7.249
 5127POPC   C1B66451  27.763   6.200   6.076
 5127POPC   C2B66452  27.783   6.291   6.525
 5127POPC   C3B66453  27.714   6.096   6.951
 5127POPC   C4B66454  27.815   6.174   7.394
 5128POPC   NC366455  30.220   9.145   5.447
 5128POPC   PO466456  30.893   8.862   5.477
 5128POPC   GL166457  30.670   8.980   5.860
 5128POPC   GL266458  30.340   8.840   5.878
 5128POPC   C1A66459  30.701   9.234   6.263
 5128POPC   D2A66460  30.692   9.466   6.677
 5128POPC   C3A66461  30.822   9.197   7.008
 5128POPC   C4A66462  30.517   8.987   7.189
 5128POPC   C1B66463  30.481   8.736   6.280
 5128POPC   C2B66464  30.557   8.824   6.714
 5128POPC   C3B66465  30.727   8.535   7.069
 5128POPC   C4B66466  30.963   8.372   7.454
 5129POPC   NC366467   1.749   1.986   5.498
 5129POPC   PO466468   2.404   2.175   5.483
 5129POPC   GL166469   2.220   1.820   5.730
 5129POPC   GL266470   1.912   1.861   5.955
 5129POPC   C1A66471   2.322   1.648   6.140
 5129POPC   D2A66472   2.207   1.848   6.538
 5129POPC   C3A66473   2.291   1.621   6.910
 5129POPC   C4A66474   2.173   1.731   7.332
 5129POPC   C1B66475   1.661   2.135   6.204
 5129POPC   C2B66476   1.445   2.237   6.570
 5129POPC   C3B66477   1.510   2.160   6.995
 5129POPC   C4B66478   1.616   2.456   7.296
 5130POPC   NC366479  20.036  18.719   5.421
 5130POPC   PO466480  19.500  18.326   5.507
 5130POPC   GL166481  19.834  18.452   5.799
 5130POPC   GL266482  19.646  18.736   5.835
 5130POPC   C1A66483  20.073  18.308   6.182
 5130POPC   D2A66484  19.942  18.172   6.586
 5130POPC   C3A66485  19.890  18.298   7.009
 5130POPC   C4A66486  19.870  18.093   7.412
 5130POPC   C1B66487  19.609  18.497   6.251
 5130POPC   C2B66488  19.526  18.475   6.693
 5130POPC   C3B66489  19.576  18.696   7.060
 5130POPC   C4B66490  19.740  18.582   7.440
 5131POPC   NC366491  26.503  14.644   5.383
 5131POPC   PO466492  26.824  14.145   5.166
 5131POPC   GL166493  26.997  14.447   5.549
 5131POPC   GL266494  26.886  14.797   5.666
 5131POPC   C1A66495  27.104  14.462   6.049
 5131POPC   D2A66496  26.872  14.317   6.457
 5131POPC   C3A66497  26.991  14.346   6.927
 5131POPC   C4A66498  26.814  14.164   7.330
 5131POPC   C1B66499  26.612  14.618   6.033
 5131POPC   C2B66500  26.427  14.576   6.452
 5131POPC   C3B66501  26.535  14.530   6.856
 5131POPC   C4B66502  26.440  14.510   7.287
 5132POPC   NC366503  17.126  23.486   5.457
 5132POPC   PO466504  16.466  23.439   5.288
 5132POPC   GL166505  16.698  23.592   5.696
 5132POPC   GL266506  16.952  23.894   5.730
 5132POPC   C1A66507  16.699  23.575   6.151
 5132POPC   D2A66508  16.566  23.408   6.544
 5132POPC   C3A66509  16.575  23.732   6.884
 5132POPC   C4A66510  16.344  23.974   7.192
 5132POPC   C1B66511  17.154  23.849   6.153
 5132POPC   C2B66512  17.009  23.739   6.578
 5132POPC   C3B66513  17.063  23.840   7.022
 5132POPC   C4B66514  17.004  23.571   7.354
 5133POPC   NC366515  10.853   0.776   5.307
 5133POPC   PO466516  10.231   0.607   5.364
 5133POPC   GL166517  10.242   0.474   5.806
 5133POPC   GL266518  10.573   0.542   5.893
 5133POPC   C1A66519  10.342   0.233   6.209
 5133POPC   D2A66520  10.169   0.244   6.616
 5133POPC   C3A66521  10.416   0.350   6.961
 5133POPC   C4A66522  10.139   0.403   7.309
 5133POPC   C1B66523  10.819   0.454   6.278
 5133POPC   C2B66524  11.014   0.371   6.711
 5133POPC   C3B66525  10.887   0.530   7.094
 5133POPC   C4B66526  10.571   0.739   7.273
 5134POPC   NC366527   8.724  29.764   5.517
 5134POPC   PO466528   9.167  30.173   5.423
 5134POPC   GL166529   9.069  30.066   5.851
 5134POPC   GL266530   9.314  29.836   6.006
 5134POPC   C1A66531   9.023  30.088   6.319
 5134POPC   D2A66532   9.277  29.991   6.684
 5134POPC   C3A66533   9.049  30.018   7.060
 5134POPC   C4A66534   8.873  30.246   7.396
 5134POPC   C1B66535   9.168  29.582   6.380
 5134POPC   C2B66536   9.046  29.534   6.830
 5134POPC   C3B66537   9.219  29.571   7.265
 5134POPC   C4B66538   9.190  29.555   7.731
 5135POPC   NC366539  33.865  37.179   5.496
 5135POPC   PO466540  33.379  36.675   5.501
 5135POPC   GL166541  33.641  36.874   5.844
 5135POPC   GL266542  34.004  36.753   5.812
 5135POPC   C1A66543  33.619  37.079   6.279
 5135POPC   D2A66544  33.932  37.201   6.607
 5135POPC   C3A66545  34.045  37.075   7.042
 5135POPC   C4A66546  33.829  37.057   7.451
 5135POPC   C1B66547  33.885  36.646   6.269
 5135POPC   C2B66548  33.859  36.671   6.739
 5135POPC   C3B66549  33.593  36.811   7.077
 5135POPC   C4B66550  33.270  36.654   7.343
 5136POPC   NC366551  43.187  32.006   5.432
 5136POPC   PO466552  43.386  32.645   5.399
 5136POPC   GL166553  43.413  32.295   5.806
 5136POPC   GL266554  43.274  31.904   5.908
 5136POPC   C1A66555  43.296  32.226   6.271
 5136POPC   D2A66556  42.964  32.228   6.573
 5136POPC   C3A66557  43.131  32.273   6.987
 5136POPC   C4A66558  43.252  32.301   7.431
 5136POPC   C1B66559  42.815  31.976   6.098
 5136POPC   C2B66560  42.623  31.836   6.502
 5136POPC   C3B66561  42.886  31.769   6.859
 5136POPC   C4B66562  42.983  31.886   7.255
 5137POPC   NC366563  26.823   0.541   5.420
 5137POPC   PO466564  27.173   0.071   5.659
 5137POPC   GL166565  26.778   0.183   5.873
 5137POPC   GL266566  26.703   0.506   5.917
 5137POPC   C1A66567  26.767   0.246   6.347
 5137POPC   D2A66568  27.139   0.432   6.561
 5137POPC   C3A66569  27.233   0.307   6.987
 5137POPC   C4A66570  26.907   0.391   7.253
 5137POPC   C1B66571  26.524   0.835   6.172
 5137POPC   C2B66572  26.409   0.819   6.596
 5137POPC   C3B66573  26.648   0.575   6.844
 5137POPC   C4B66574  26.681   0.834   7.186
 5138POPC   NC366575   7.883   8.157   5.256
 5138POPC   PO466576   8.423   7.987   5.356
 5138POPC   GL166577   8.194   8.179   5.690
 5138POPC   GL266578   7.854   8.061   5.772
 5138POPC   C1A66579   8.213   8.224   6.154
 5138POPC   D2A66580   8.105   8.242   6.606
 5138POPC   C3A66581   8.329   8.017   6.952
 5138POPC   C4A66582   8.425   8.224   7.350
 5138POPC   C1B66583   7.788   7.945   6.223
 5138POPC   C2B66584   7.851   7.806   6.662
 5138POPC   C3B66585   7.832   8.061   7.030
 5138POPC   C4B66586   7.978   7.976   7.429
 5139POPC   NC366587  34.385  29.394   5.457
 5139POPC   PO466588  34.777  28.774   5.476
 5139POPC   GL166589  34.700  29.121   5.755
 5139POPC   GL266590  34.352  29.087   5.867
 5139POPC   C1A66591  34.744  29.346   6.150
 5139POPC   D2A66592  34.540  29.422   6.548
 5139POPC   C3A66593  34.590  29.142   6.843
 5139POPC   C4A66594  34.494  29.267   7.217
 5139POPC   C1B66595  34.322  28.863   6.256
 5139POPC   C2B66596  34.301  28.703   6.668
 5139POPC   C3B66597  34.292  28.809   7.086
 5139POPC   C4B66598  34.716  28.762   7.213
 5140POPC   NC366599  14.357  23.289   5.613
 5140POPC   PO466600  14.740  23.914   5.589
 5140POPC   GL166601  14.562  23.927   5.935
 5140POPC   GL266602  14.302  23.668   5.953
 5140POPC   C1A66603  14.503  23.896   6.362
 5140POPC   D2A66604  14.185  23.718   6.585
 5140POPC   C3A66605  14.395  23.644   6.910
 5140POPC   C4A66606  14.237  23.874   7.239
 5140POPC   C1B66607  14.221  23.322   6.273
 5140POPC   C2B66608  14.010  23.236   6.681
 5140POPC   C3B66609  14.015  23.374   7.108
 5140POPC   C4B66610  14.406  23.419   7.356
 5141POPC   NC366611   0.192  22.217   5.592
 5141POPC   PO466612   0.808  22.051   5.477
 5141POPC   GL166613   0.691  22.195   5.848
 5141POPC   GL266614   0.563  21.901   5.908
 5141POPC   C1A66615   0.678  22.205   6.298
 5141POPC   D2A66616   0.705  22.376   6.699
 5141POPC   C3A66617   0.641  22.160   7.046
 5141POPC   C4A66618   0.267  22.219   7.199
 5141POPC   C1B66619   0.229  21.931   6.197
 5141POPC   C2B66620   0.266  22.031   6.621
 5141POPC   C3B66621   0.203  21.765   6.939
 5141POPC   C4B66622  44.880  21.844   7.211
 5142POPC   NC366623  41.339  10.979   5.439
 5142POPC   PO466624  40.814  10.753   5.345
 5142POPC   GL166625  40.922  10.668   5.766
 5142POPC   GL266626  40.684  10.805   5.974
 5142POPC   C1A66627  40.962  10.425   6.181
 5142POPC   D2A66628  40.790  10.342   6.623
 5142POPC   C3A66629  40.926  10.481   7.051
 5142POPC   C4A66630  41.039  10.616   7.487
 5142POPC   C1B66631  40.793  10.839   6.431
 5142POPC   C2B66632  40.747  10.928   6.866
 5142POPC   C3B66633  40.566  10.809   7.247
 5142POPC   C4B66634  40.558  10.795   7.693
 5143POPC   NC366635  27.284  31.833   5.486
 5143POPC   PO466636  27.479  32.380   5.295
 5143POPC   GL166637  27.607  32.397   5.719
 5143POPC   GL266638  27.611  32.045   5.835
 5143POPC   C1A66639  27.490  32.396   6.170
 5143POPC   D2A66640  27.711  32.526   6.543
 5143POPC   C3A66641  27.665  32.309   6.901
 5143POPC   C4A66642  27.467  32.360   7.297
 5143POPC   C1B66643  27.640  31.860   6.267
 5143POPC   C2B66644  27.547  31.818   6.735
 5143POPC   C3B66645  27.659  31.886   7.195
 5143POPC   C4B66646  27.591  32.012   7.635
 5144POPC   NC366647  25.066  12.945   5.504
 5144POPC   PO466648  25.739  12.923   5.346
 5144POPC   GL166649  25.511  12.955   5.780
 5144POPC   GL266650  25.264  13.235   5.882
 5144POPC   C1A66651  25.270  12.796   6.159
 5144POPC   D2A66652  25.110  12.480   6.451
 5144POPC   C3A66653  25.070  12.675   6.875
 5144POPC   C4A66654  25.434  12.746   7.148
 5144POPC   C1B66655  25.477  13.254   6.267
 5144POPC   C2B66656  25.400  13.033   6.658
 5144POPC   C3B66657  25.235  13.192   7.052
 5144POPC   C4B66658  25.307  13.441   7.421
 5145POPC   NC366659  17.043   5.869   5.423
 5145POPC   PO466660  16.346   5.667   5.502
 5145POPC   GL166661  16.647   5.926   5.776
 5145POPC   GL266662  16.898   5.736   5.891
 5145POPC   C1A66663  16.555   6.214   6.128
 5145POPC   D2A66664  16.606   6.416   6.512
 5145POPC   C3A66665  16.582   6.234   6.957
 5145POPC   C4A66666  16.735   6.101   7.360
 5145POPC   C1B66667  16.604   5.725   6.244
 5145POPC   C2B66668  16.517   5.902   6.589
 5145POPC   C3B66669  16.623   5.697   6.972
 5145POPC   C4B66670  16.968   5.464   7.125
 5146POPC   NC366671  32.339  35.121   5.200
 5146POPC   PO466672  33.059  35.089   5.341
 5146POPC   GL166673  32.974  35.271   5.778
 5146POPC   GL266674  32.628  35.126   5.786
 5146POPC   C1A66675  33.104  35.568   6.167
 5146POPC   D2A66676  33.234  35.766   6.595
 5146POPC   C3A66677  33.119  35.562   7.005
 5146POPC   C4A66678  32.887  35.691   7.429
 5146POPC   C1B66679  32.761  34.965   6.191
 5146POPC   C2B66680  32.670  34.818   6.610
 5146POPC   C3B66681  32.845  34.981   7.014
 5146POPC   C4B66682  33.096  35.188   7.363
 5147POPC   NC366683  32.551  44.452   5.477
 5147POPC   PO466684  31.973  44.559   5.036
 5147POPC   GL166685  32.049  44.659   5.538
 5147POPC   GL266686  32.292  44.924   5.657
 5147POPC   C1A66687  32.071  44.524   6.002
 5147POPC   D2A66688  32.166  44.255   6.383
 5147POPC   C3A66689  32.213  44.465   6.809
 5147POPC   C4A66690  32.050  44.659   7.191
 5147POPC   C1B66691  32.447  44.910   6.098
 5147POPC   C2B66692  32.271  44.957   6.525
 5147POPC   C3B66693  32.383  44.948   6.953
 5147POPC   C4B66694  32.564  44.642   7.247
 5148POPC   NC366695  25.743  20.669   5.469
 5148POPC   PO466696  26.275  20.280   5.310
 5148POPC   GL166697  26.130  20.553   5.762
 5148POPC   GL266698  25.963  20.827   5.891
 5148POPC   C1A66699  26.196  20.605   6.272
 5148POPC   D2A66700  26.444  20.582   6.670
 5148POPC   C3A66701  26.136  20.355   6.926
 5148POPC   C4A66702  25.808  20.084   7.117
 5148POPC   C1B66703  26.000  21.082   6.268
 5148POPC   C2B66704  26.060  20.921   6.703
 5148POPC   C3B66705  25.957  20.781   7.121
 5148POPC   C4B66706  25.753  20.954   7.475
 5149POPC   NC366707  39.992  35.228   5.344
 5149POPC   PO466708  40.116  35.884   5.419
 5149POPC   GL166709  39.917  35.554   5.755
 5149POPC   GL266710  39.950  35.152   5.839
 5149POPC   C1A66711  39.856  35.481   6.217
 5149POPC   D2A66712  40.180  35.384   6.536
 5149POPC   C3A66713  40.109  35.485   6.992
 5149POPC   C4A66714  39.811  35.544   7.338
 5149POPC   C1B66715  39.895  34.966   6.266
 5149POPC   C2B66716  39.893  35.007   6.718
 5149POPC   C3B66717  39.724  35.111   7.107
 5149POPC   C4B66718  39.672  35.108   7.560
 5150POPC   NC366719  25.978   7.602   5.334
 5150POPC   PO466720  26.526   7.031   5.625
 5150POPC   GL166721  26.370   7.185   6.018
 5150POPC   GL266722  26.114   7.469   5.956
 5150POPC   C1A66723  26.227   7.261   6.415
 5150POPC   D2A66724  25.867   7.488   6.488
 5150POPC   C3A66725  25.824   7.421   6.899
 5150POPC   C4A66726  26.120   7.341   7.254
 5150POPC   C1B66727  26.194   7.794   6.247
 5150POPC   C2B66728  26.132   7.940   6.613
 5150POPC   C3B66729  26.172   7.778   6.997
 5150POPC   C4B66730  25.788   7.807   7.223
 5151POPC   NC366731   8.807  20.474   5.343
 5151POPC   PO466732   9.234  20.858   5.478
 5151POPC   GL166733   8.955  20.650   5.803
 5151POPC   GL266734   8.758  20.293   5.797
 5151POPC   C1A66735   8.865  20.860   6.191
 5151POPC   D2A66736   8.797  21.002   6.591
 5151POPC   C3A66737   8.973  20.723   6.878
 5151POPC   C4A66738   8.823  20.853   7.211
 5151POPC   C1B66739   9.084  20.259   6.125
 5151POPC   C2B66740   9.216  20.369   6.548
 5151POPC   C3B66741   9.099  20.209   6.944
 5151POPC   C4B66742   8.879  20.360   7.291
 5152POPC   NC366743   7.071  43.332   5.445
 5152POPC   PO466744   7.673  42.858   5.435
 5152POPC   GL166745   7.442  43.078   5.798
 5152POPC   GL266746   7.390  43.451   5.821
 5152POPC   C1A66747   7.442  43.101   6.244
 5152POPC   D2A66748   7.763  42.875   6.503
 5152POPC   C3A66749   7.737  42.955   6.938
 5152POPC   C4A66750   7.427  43.006   7.305
 5152POPC   C1B66751   7.519  43.605   6.236
 5152POPC   C2B66752   7.685  43.418   6.596
 5152POPC   C3B66753   7.538  43.438   7.017
 5152POPC   C4B66754   7.459  43.483   7.477
 5153POPC   NC366755  41.253   4.104   5.401
 5153POPC   PO466756  40.643   4.538   5.452
 5153POPC   GL166757  40.667   4.351   5.846
 5153POPC   GL266758  41.023   4.375   5.805
 5153POPC   C1A66759  40.550   4.509   6.263
 5153POPC   D2A66760  40.516   4.772   6.635
 5153POPC   C3A66761  40.656   4.625   7.030
 5153POPC   C4A66762  40.971   4.385   7.250
 5153POPC   C1B66763  41.021   4.239   6.234
 5153POPC   C2B66764  40.824   4.300   6.661
 5153POPC   C3B66765  40.617   4.093   7.025
 5153POPC   C4B66766  40.669   4.030   7.516
 5154POPC   NC366767  28.856  32.417   5.495
 5154POPC   PO466768  29.276  31.771   5.384
 5154POPC   GL166769  29.244  31.954   5.819
 5154POPC   GL266770  29.204  32.333   5.869
 5154POPC   C1A66771  28.945  32.010   6.179
 5154POPC   D2A66772  29.091  32.210   6.543
 5154POPC   C3A66773  29.155  32.004   6.925
 5154POPC   C4A66774  29.302  32.180   7.299
 5154POPC   C1B66775  28.952  32.549   6.164
 5154POPC   C2B66776  28.896  32.703   6.568
 5154POPC   C3B66777  28.904  32.472   6.949
 5154POPC   C4B66778  28.908  32.517   7.361
 5155POPC   NC366779  19.567  44.974   5.168
 5155POPC   PO466780  19.894  44.522   5.573
 5155POPC   GL166781  20.056  44.538   5.941
 5155POPC   GL266782  20.215  44.863   5.835
 5155POPC   C1A66783  19.741  44.445   6.257
 5155POPC   D2A66784  19.470  44.487   6.590
 5155POPC   C3A66785  19.680  44.521   6.979
 5155POPC   C4A66786  20.081  44.475   7.170
 5155POPC   C1B66787  19.998  44.973   6.221
 5155POPC   C2B66788  19.918  44.795   6.616
 5155POPC   C3B66789  19.986  44.971   7.023
 5155POPC   C4B66790  19.655   0.134   7.279
 5156POPC   NC366791   1.639   5.338   4.993
 5156POPC   PO466792   1.308   4.934   5.410
 5156POPC   GL166793   1.028   4.898   5.741
 5156POPC   GL266794   1.066   5.221   5.902
 5156POPC   C1A66795   1.050   4.749   6.149
 5156POPC   D2A66796   1.127   4.953   6.524
 5156POPC   C3A66797   0.972   4.824   6.897
 5156POPC   C4A66798   0.947   5.076   7.244
 5156POPC   C1B66799   1.446   5.172   6.199
 5156POPC   C2B66800   1.471   5.376   6.569
 5156POPC   C3B66801   1.308   5.292   6.924
 5156POPC   C4B66802   1.350   5.373   7.312
 5157POPC   NC366803   6.002   4.645   5.545
 5157POPC   PO466804   6.177   5.233   5.380
 5157POPC   GL166805   5.966   5.101   5.786
 5157POPC   GL266806   5.630   4.910   5.796
 5157POPC   C1A66807   5.807   5.230   6.196
 5157POPC   D2A66808   5.897   5.468   6.559
 5157POPC   C3A66809   5.762   5.322   6.960
 5157POPC   C4A66810   5.971   5.069   7.287
 5157POPC   C1B66811   5.758   4.722   6.189
 5157POPC   C2B66812   5.742   4.887   6.615
 5157POPC   C3B66813   5.583   4.838   7.039
 5157POPC   C4B66814   5.711   4.588   7.388
 5158POPC   NC366815   4.037  19.482   5.365
 5158POPC   PO466816   3.426  19.891   5.317
 5158POPC   GL166817   3.429  19.735   5.731
 5158POPC   GL266818   3.787  19.714   5.765
 5158POPC   C1A66819   3.359  19.785   6.177
 5158POPC   D2A66820   3.568  19.935   6.519
 5158POPC   C3A66821   3.487  19.919   6.952
 5158POPC   C4A66822   3.162  20.116   7.150
 5158POPC   C1B66823   3.850  19.455   6.123
 5158POPC   C2B66824   3.925  19.553   6.567
 5158POPC   C3B66825   3.890  19.619   7.007
 5158POPC   C4B66826   3.947  19.674   7.435
 5159POPC   NC366827  11.121  13.533   5.322
 5159POPC   PO466828  11.781  13.561   5.440
 5159POPC   GL166829  11.511  13.538   5.810
 5159POPC   GL266830  11.405  13.855   5.805
 5159POPC   C1A66831  11.249  13.563   6.222
 5159POPC   D2A66832  11.418  13.407   6.617
 5159POPC   C3A66833  11.343  13.539   7.034
 5159POPC   C4A66834  10.967  13.646   7.269
 5159POPC   C1B66835  11.659  13.867   6.204
 5159POPC   C2B66836  11.545  13.890   6.611
 5159POPC   C3B66837  11.690  14.085   6.936
 5159POPC   C4B66838  11.680  13.958   7.299
 5160POPC   NC366839  13.404  26.470   5.625
 5160POPC   PO466840  13.442  25.853   5.295
 5160POPC   GL166841  13.475  25.973   5.761
 5160POPC   GL266842  13.788  26.205   5.850
 5160POPC   C1A66843  13.314  25.836   6.193
 5160POPC   D2A66844  13.489  25.698   6.610
 5160POPC   C3A66845  13.340  25.946   6.987
 5160POPC   C4A66846  13.498  26.052   7.408
 5160POPC   C1B66847  13.756  26.075   6.295
 5160POPC   C2B66848  13.720  26.163   6.732
 5160POPC   C3B66849  13.842  26.320   7.140
 5160POPC   C4B66850  13.816  26.440   7.595
 5161POPC   NC366851   9.523  27.789   5.553
 5161POPC   PO466852   8.979  27.617   5.292
 5161POPC   GL166853   9.023  27.662   5.726
 5161POPC   GL266854   9.242  27.346   5.749
 5161POPC   C1A66855   8.845  27.829   6.128
 5161POPC   D2A66856   8.760  27.608   6.504
 5161POPC   C3A66857   8.941  27.674   6.915
 5161POPC   C4A66858   8.843  27.384   7.259
 5161POPC   C1B66859   9.155  27.426   6.190
 5161POPC   C2B66860   9.236  27.313   6.623
 5161POPC   C3B66861   9.309  27.330   7.052
 5161POPC   C4B66862   9.264  27.156   7.444
 5162POPC   NC366863  26.242  15.346   5.390
 5162POPC   PO466864  25.624  15.335   5.489
 5162POPC   GL166865  25.922  15.113   5.788
 5162POPC   GL266866  26.307  15.009   5.772
 5162POPC   C1A66867  25.916  15.112   6.249
 5162POPC   D2A66868  25.982  15.365   6.630
 5162POPC   C3A66869  25.953  15.100   6.991
 5162POPC   C4A66870  26.101  15.146   7.457
 5162POPC   C1B66871  26.449  15.065   6.214
 5162POPC   C2B66872  26.403  15.044   6.662
 5162POPC   C3B66873  26.426  14.978   7.098
 5162POPC   C4B66874  26.567  14.989   7.502
 5163POPC   NC366875   7.750  27.024   5.353
 5163POPC   PO466876   7.354  26.528   5.368
 5163POPC   GL166877   7.302  26.741   5.760
 5163POPC   GL266878   7.016  26.983   5.760
 5163POPC   C1A66879   7.577  26.811   6.117
 5163POPC   D2A66880   7.563  27.097   6.444
 5163POPC   C3A66881   7.674  26.913   6.807
 5163POPC   C4A66882   7.699  26.933   7.231
 5163POPC   C1B66883   7.095  26.978   6.218
 5163POPC   C2B66884   7.188  26.847   6.654
 5163POPC   C3B66885   7.257  26.742   7.053
 5163POPC   C4B66886   7.205  26.918   7.423
 5164POPC   NC366887  21.993  21.054   5.418
 5164POPC   PO466888  22.330  21.630   5.083
 5164POPC   GL166889  22.194  21.531   5.566
 5164POPC   GL266890  22.504  21.570   5.779
 5164POPC   C1A66891  22.045  21.531   6.052
 5164POPC   D2A66892  21.983  21.591   6.540
 5164POPC   C3A66893  22.047  21.235   6.811
 5164POPC   C4A66894  22.421  21.020   6.990
 5164POPC   C1B66895  22.539  21.789   6.181
 5164POPC   C2B66896  22.685  21.732   6.622
 5164POPC   C3B66897  22.448  21.554   6.965
 5164POPC   C4B66898  22.095  21.536   7.221
 5165POPC   NC366899  28.669   0.700   5.577
 5165POPC   PO466900  28.069   0.406   5.368
 5165POPC   GL166901  28.162   0.328   5.810
 5165POPC   GL266902  28.508   0.424   5.975
 5165POPC   C1A66903  28.048   0.442   6.240
 5165POPC   D2A66904  28.279   0.630   6.597
 5165POPC   C3A66905  28.297   0.314   6.915
 5165POPC   C4A66906  28.546   0.162   7.239
 5165POPC   C1B66907  28.696   0.806   6.237
 5165POPC   C2B66908  28.686   0.968   6.679
 5165POPC   C3B66909  28.636   0.680   7.029
 5165POPC   C4B66910  28.809   0.565   7.426
 5166POPC   NC366911  14.837  30.361   5.446
 5166POPC   PO466912  15.037  31.045   5.423
 5166POPC   GL166913  15.101  30.824   5.804
 5166POPC   GL266914  15.273  30.507   5.778
 5166POPC   C1A66915  15.359  30.856   6.178
 5166POPC   D2A66916  15.478  30.709   6.572
 5166POPC   C3A66917  15.195  30.882   6.885
 5166POPC   C4A66918  15.379  30.790   7.296
 5166POPC   C1B66919  15.035  30.441   6.143
 5166POPC   C2B66920  15.054  30.414   6.573
 5166POPC   C3B66921  15.271  30.396   6.960
 5166POPC   C4B66922  14.950  30.532   7.262
 5167POPC   NC366923  30.237   1.072   5.432
 5167POPC   PO466924  29.848   1.617   5.454
 5167POPC   GL166925  29.744   1.260   5.744
 5167POPC   GL266926  30.023   1.128   5.872
 5167POPC   C1A66927  29.621   1.101   6.172
 5167POPC   D2A66928  29.700   0.735   6.429
 5167POPC   C3A66929  29.664   0.814   6.869
 5167POPC   C4A66930  29.782   1.074   7.233
 5167POPC   C1B66931  30.165   1.174   6.259
 5167POPC   C2B66932  29.909   1.214   6.618
 5167POPC   C3B66933  30.022   1.456   6.966
 5167POPC   C4B66934  30.207   1.334   7.335
 5168POPC   NC366935  14.258  26.613   5.356
 5168POPC   PO466936  14.532  27.220   5.513
 5168POPC   GL166937  14.335  26.939   5.826
 5168POPC   GL266938  14.355  26.571   5.844
 5168POPC   C1A66939  14.410  26.873   6.270
 5168POPC   D2A66940  14.117  27.020   6.574
 5168POPC   C3A66941  14.166  27.191   6.990
 5168POPC   C4A66942  14.411  27.017   7.330
 5168POPC   C1B66943  14.149  26.408   6.193
 5168POPC   C2B66944  14.221  26.336   6.621
 5168POPC   C3B66945  14.258  26.645   6.951
 5168POPC   C4B66946  13.965  26.797   7.263
 5169POPC   NC366947  24.582   7.435   5.115
 5169POPC   PO466948  24.311   6.971   5.419
 5169POPC   GL166949  24.436   7.364   5.604
 5169POPC   GL266950  24.090   7.386   5.671
 5169POPC   C1A66951  24.533   7.577   6.010
 5169POPC   D2A66952  24.426   7.739   6.429
 5169POPC   C3A66953  24.322   7.606   6.838
 5169POPC   C4A66954  24.566   7.488   7.186
 5169POPC   C1B66955  24.180   7.193   6.060
 5169POPC   C2B66956  24.081   7.316   6.472
 5169POPC   C3B66957  24.068   7.149   6.881
 5169POPC   C4B66958  24.094   7.333   7.253
 5170POPC   NC366959  23.152  13.856   5.428
 5170POPC   PO466960  22.487  14.021   5.590
 5170POPC   GL166961  22.711  13.727   5.886
 5170POPC   GL266962  23.083  13.672   5.907
 5170POPC   C1A66963  22.793  13.741   6.322
 5170POPC   D2A66964  23.068  13.718   6.671
 5170POPC   C3A66965  22.942  13.604   7.035
 5170POPC   C4A66966  22.611  13.818   7.191
 5170POPC   C1B66967  23.344  13.535   6.292
 5170POPC   C2B66968  23.568  13.767   6.642
 5170POPC   C3B66969  23.450  13.717   7.091
 5170POPC   C4B66970  23.273  13.379   7.379
 5171POPC   NC366971  27.408  37.860   5.569
 5171POPC   PO466972  27.503  37.245   5.461
 5171POPC   GL166973  27.686  37.299   5.856
 5171POPC   GL266974  27.833  37.629   5.883
 5171POPC   C1A66975  27.603  37.394   6.308
 5171POPC   D2A66976  27.700  37.555   6.716
 5171POPC   C3A66977  27.434  37.560   7.105
 5171POPC   C4A66978  27.131  37.634   7.471
 5171POPC   C1B66979  27.984  37.776   6.302
 5171POPC   C2B66980  28.083  37.896   6.742
 5171POPC   C3B66981  27.818  37.897   7.122
 5171POPC   C4B66982  27.884  38.049   7.544
 5172POPC   NC366983   3.636  43.707   5.449
 5172POPC   PO466984   2.996  43.992   5.361
 5172POPC   GL166985   3.307  43.993   5.752
 5172POPC   GL266986   3.680  44.014   5.841
 5172POPC   C1A66987   3.389  43.828   6.194
 5172POPC   D2A66988   3.479  43.527   6.526
 5172POPC   C3A66989   3.364  43.740   6.917
 5172POPC   C4A66990   3.045  43.544   7.201
 5172POPC   C1B66991   3.896  43.832   6.213
 5172POPC   C2B66992   3.868  43.830   6.648
 5172POPC   C3B66993   3.959  43.684   7.035
 5172POPC   C4B66994   3.847  43.816   7.454
 5173POPC   NC366995  39.295   9.518   5.032
 5173POPC   PO466996  39.157  10.097   5.333
 5173POPC   GL166997  39.161   9.959   5.751
 5173POPC   GL266998  38.891   9.761   5.847
 5173POPC   C1A66999  39.320   9.843   6.167
 5173POPC   D2A67000  39.315  10.056   6.574
 5173POPC   C3A67001  39.343   9.830   6.963
 5173POPC   C4A67002  39.358   9.425   7.148
 5173POPC   C1B67003  38.841   9.841   6.305
 5173POPC   C2B67004  38.911   9.677   6.719
 5173POPC   C3B67005  38.892   9.701   7.187
 5173POPC   C4B67006  38.852  10.056   7.512
 5174POPC   NC367007  17.007  25.497   5.440
 5174POPC   PO467008  16.348  25.347   5.362
 5174POPC   GL167009  16.602  25.229   5.703
 5174POPC   GL267010  16.699  25.548   5.829
 5174POPC   C1A67011  16.818  25.127   6.114
 5174POPC   D2A67012  17.051  25.270   6.502
 5174POPC   C3A67013  16.903  25.115   6.902
 5174POPC   C4A67014  16.694  25.269   7.263
 5174POPC   C1B67015  16.567  25.586   6.226
 5174POPC   C2B67016  16.574  25.393   6.607
 5174POPC   C3B67017  16.436  25.579   6.962
 5174POPC   C4B67018  16.191  25.559   7.329
 5175POPC   NC367019  43.899  31.699   4.801
 5175POPC   PO467020  44.064  31.414   5.445
 5175POPC   GL167021  43.973  31.377   5.854
 5175POPC   GL267022  44.151  31.096   5.915
 5175POPC   C1A67023  44.082  31.439   6.299
 5175POPC   D2A67024  44.000  31.196   6.655
 5175POPC   C3A67025  43.787  31.511   6.882
 5175POPC   C4A67026  43.811  31.566   7.289
 5175POPC   C1B67027  43.748  31.061   6.193
 5175POPC   C2B67028  43.518  31.025   6.588
 5175POPC   C3B67029  43.629  31.057   7.029
 5175POPC   C4B67030  43.591  31.119   7.471
 5176POPC   NC367031  10.914  33.872   5.542
 5176POPC   PO467032  10.353  33.497   5.541
 5176POPC   GL167033  10.626  33.609   5.886
 5176POPC   GL267034  10.495  33.972   5.819
 5176POPC   C1A67035  10.730  33.451   6.334
 5176POPC   D2A67036  10.398  33.413   6.698
 5176POPC   C3A67037  10.399  33.708   7.048
 5176POPC   C4A67038  10.388  34.018   7.343
 5176POPC   C1B67039  10.363  33.902   6.250
 5176POPC   C2B67040  10.626  33.870   6.613
 5176POPC   C3B67041  10.887  33.880   6.962
 5176POPC   C4B67042  10.953  34.089   7.332
 5177POPC   NC367043   8.531  11.576   5.486
 5177POPC   PO467044   7.802  11.483   5.408
 5177POPC   GL167045   7.962  11.317   5.806
 5177POPC   GL267046   8.182  11.566   5.889
 5177POPC   C1A67047   7.921  11.195   6.244
 5177POPC   D2A67048   8.001  11.308   6.678
 5177POPC   C3A67049   8.145  11.217   7.086
 5177POPC   C4A67050   8.518  11.045   7.245
 5177POPC   C1B67051   8.364  11.439   6.298
 5177POPC   C2B67052   8.535  11.455   6.714
 5177POPC   C3B67053   8.519  11.589   7.139
 5177POPC   C4B67054   8.345  11.459   7.517
 5178POPC   NC367055   6.923  40.397   5.449
 5178POPC   PO467056   6.867  39.797   5.301
 5178POPC   GL167057   6.655  40.021   5.689
 5178POPC   GL267058   6.831  40.225   5.901
 5178POPC   C1A67059   6.461  40.005   6.150
 5178POPC   D2A67060   6.611  40.107   6.550
 5178POPC   C3A67061   6.534  39.919   6.969
 5178POPC   C4A67062   6.631  40.108   7.366
 5178POPC   C1B67063   7.025  40.474   6.177
 5178POPC   C2B67064   6.904  40.523   6.590
 5178POPC   C3B67065   6.907  40.269   6.930
 5178POPC   C4B67066   6.971  40.514   7.215
 5179POPC   NC367067  30.375  26.636   5.382
 5179POPC   PO467068  29.857  27.043   5.351
 5179POPC   GL167069  30.083  26.959   5.707
 5179POPC   GL267070  30.066  26.622   5.788
 5179POPC   C1A67071  30.093  27.004   6.146
 5179POPC   D2A67072  29.840  26.914   6.499
 5179POPC   C3A67073  30.081  26.791   6.885
 5179POPC   C4A67074  30.094  27.062   7.269
 5179POPC   C1B67075  29.740  26.529   6.080
 5179POPC   C2B67076  29.640  26.430   6.495
 5179POPC   C3B67077  29.558  26.664   6.855
 5179POPC   C4B67078  29.742  26.702   7.261
 5180POPC   NC367079  39.655  35.914   5.487
 5180POPC   PO467080  38.938  36.055   5.457
 5180POPC   GL167081  39.217  35.969   5.818
 5180POPC   GL267082  39.261  36.275   5.992
 5180POPC   C1A67083  39.523  35.865   6.172
 5180POPC   D2A67084  39.659  35.769   6.621
 5180POPC   C3A67085  39.392  36.047   6.863
 5180POPC   C4A67086  39.257  36.017   7.265
 5180POPC   C1B67087  39.326  36.571   6.321
 5180POPC   C2B67088  39.351  36.600   6.762
 5180POPC   C3B67089  39.283  36.517   7.185
 5180POPC   C4B67090  39.190  36.379   7.606
 5181POPC   NC367091  26.086   7.144   5.574
 5181POPC   PO467092  26.177   6.459   5.237
 5181POPC   GL167093  26.025   6.514   5.689
 5181POPC   GL267094  26.230   6.717   5.866
 5181POPC   C1A67095  25.989   6.426   6.173
 5181POPC   D2A67096  26.201   6.645   6.500
 5181POPC   C3A67097  26.214   6.475   6.913
 5181POPC   C4A67098  26.015   6.283   7.239
 5181POPC   C1B67099  25.899   6.929   6.154
 5181POPC   C2B67100  25.776   6.986   6.594
 5181POPC   C3B67101  26.087   6.970   6.904
 5181POPC   C4B67102  26.139   6.809   7.318
 5182POPC   NC367103   2.424   5.369   5.264
 5182POPC   PO467104   2.307   6.026   5.545
 5182POPC   GL167105   2.068   6.018   5.898
 5182POPC   GL267106   1.784   5.805   5.753
 5182POPC   C1A67107   2.019   6.200   6.324
 5182POPC   D2A67108   1.975   6.222   6.780
 5182POPC   C3A67109   2.112   5.956   7.111
 5182POPC   C4A67110   2.457   5.941   7.407
 5182POPC   C1B67111   1.670   5.852   6.160
 5182POPC   C2B67112   1.891   5.754   6.551
 5182POPC   C3B67113   1.760   5.605   6.931
 5182POPC   C4B67114   1.675   5.737   7.319
 5183POPC   NC367115   7.709  44.102   5.437
 5183POPC   PO467116   7.149  43.767   5.333
 5183POPC   GL167117   7.183  44.090   5.658
 5183POPC   GL267118   7.444  43.971   5.862
 5183POPC   C1A67119   7.070  44.205   6.097
 5183POPC   D2A67120   7.117  43.917   6.447
 5183POPC   C3A67121   7.173  44.021   6.875
 5183POPC   C4A67122   7.445  43.908   7.204
 5183POPC   C1B67123   7.582  44.111   6.259
 5183POPC   C2B67124   7.636  43.943   6.652
 5183POPC   C3B67125   7.647  44.275   6.926
 5183POPC   C4B67126   7.817  44.209   7.313
 5184POPC   NC367127  31.060   9.250   5.648
 5184POPC   PO467128  31.643   9.358   5.522
 5184POPC   GL167129  31.489   9.064   5.869
 5184POPC   GL267130  31.219   8.822   5.871
 5184POPC   C1A67131  31.481   8.951   6.335
 5184POPC   D2A67132  31.663   9.179   6.708
 5184POPC   C3A67133  31.715   8.976   7.125
 5184POPC   C4A67134  31.615   9.097   7.552
 5184POPC   C1B67135  30.988   8.821   6.241
 5184POPC   C2B67136  31.058   8.899   6.657
 5184POPC   C3B67137  31.215   8.726   7.020
 5184POPC   C4B67138  31.425   8.633   7.399
 5185POPC   NC367139  19.855  20.266   5.517
 5185POPC   PO467140  19.673  19.708   5.171
 5185POPC   GL167141  19.856  19.753   5.628
 5185POPC   GL267142  20.179  19.569   5.704
 5185POPC   C1A67143  19.780  19.967   6.088
 5185POPC   D2A67144  19.642  20.044   6.533
 5185POPC   C3A67145  19.908  20.093   6.908
 5185POPC   C4A67146  19.625  20.012   7.256
 5185POPC   C1B67147  19.920  19.489   6.081
 5185POPC   C2B67148  19.757  19.488   6.490
 5185POPC   C3B67149  19.700  19.643   6.880
 5185POPC   C4B67150  19.957  19.611   7.237
 5186POPC   NC367151  39.636   1.523   5.259
 5186POPC   PO467152  40.281   1.277   5.212
 5186POPC   GL167153  39.966   1.276   5.589
 5186POPC   GL267154  39.953   0.947   5.723
 5186POPC   C1A67155  39.902   1.326   6.059
 5186POPC   D2A67156  40.034   1.165   6.473
 5186POPC   C3A67157  39.938   1.413   6.833
 5186POPC   C4A67158  39.885   1.192   7.208
 5186POPC   C1B67159  39.911   0.765   6.165
 5186POPC   C2B67160  39.684   0.600   6.563
 5186POPC   C3B67161  39.705   0.660   7.038
 5186POPC   C4B67162  39.510   0.649   7.428
 5187POPC   NC367163  21.215  26.112   5.315
 5187POPC   PO467164  21.773  26.059   5.357
 5187POPC   GL167165  21.548  26.042   5.787
 5187POPC   GL267166  21.166  26.014   5.839
 5187POPC   C1A67167  21.469  26.071   6.262
 5187POPC   D2A67168  21.321  26.310   6.641
 5187POPC   C3A67169  21.482  26.146   7.024
 5187POPC   C4A67170  21.726  26.297   7.419
 5187POPC   C1B67171  20.957  25.963   6.278
 5187POPC   C2B67172  20.972  25.947   6.742
 5187POPC   C3B67173  20.992  26.267   7.069
 5187POPC   C4B67174  21.221  26.232   7.444
 5188POPC   NC367175   0.510   3.130   5.252
 5188POPC   PO467176   0.138   3.617   5.334
 5188POPC   GL167177   0.347   3.643   5.761
 5188POPC   GL267178   0.720   3.568   5.760
 5188POPC   C1A67179   0.425   3.702   6.220
 5188POPC   D2A67180   0.563   3.839   6.633
 5188POPC   C3A67181   0.350   3.571   6.916
 5188POPC   C4A67182   0.435   3.256   7.229
 5188POPC   C1B67183   0.782   3.360   6.154
 5188POPC   C2B67184   0.935   3.446   6.598
 5188POPC   C3B67185   0.860   3.618   7.017
 5188POPC   C4B67186   0.863   3.599   7.457
 5189POPC   NC367187   6.668  25.564   5.045
 5189POPC   PO467188   6.568  25.060   5.561
 5189POPC   GL167189   6.757  25.130   5.955
 5189POPC   GL267190   6.454  25.251   6.106
 5189POPC   C1A67191   6.841  25.183   6.421
 5189POPC   D2A67192   6.523  25.235   6.713
 5189POPC   C3A67193   6.752  25.008   6.982
 5189POPC   C4A67194   6.846  25.016   7.402
 5189POPC   C1B67195   6.361  25.624   6.382
 5189POPC   C2B67196   6.318  25.756   6.812
 5189POPC   C3B67197   6.294  25.644   7.196
 5189POPC   C4B67198   6.311  25.201   7.217
 5190POPC   NC367199  15.698  11.738   5.219
 5190POPC   PO467200  16.013  11.159   5.479
 5190POPC   GL167201  16.102  11.169   5.891
 5190POPC   GL267202  16.277  11.462   5.876
 5190POPC   C1A67203  15.785  11.317   6.184
 5190POPC   D2A67204  15.579  11.292   6.574
 5190POPC   C3A67205  15.769  11.387   6.989
 5190POPC   C4A67206  15.769  11.296   7.437
 5190POPC   C1B67207  16.189  11.640   6.247
 5190POPC   C2B67208  16.304  11.617   6.673
 5190POPC   C3B67209  16.177  11.784   7.049
 5190POPC   C4B67210  15.957  11.839   7.407
 5191POPC   NC367211  40.337  22.897   5.400
 5191POPC   PO467212  39.724  22.837   5.415
 5191POPC   GL167213  39.851  23.071   5.817
 5191POPC   GL267214  40.225  23.123   5.867
 5191POPC   C1A67215  39.894  22.966   6.260
 5191POPC   D2A67216  40.091  22.819   6.628
 5191POPC   C3A67217  39.838  22.831   6.980
 5191POPC   C4A67218  40.031  22.695   7.368
 5191POPC   C1B67219  40.255  23.327   6.275
 5191POPC   C2B67220  40.209  23.320   6.732
 5191POPC   C3B67221  40.231  23.109   7.123
 5191POPC   C4B67222  40.244  23.266   7.568
 5192POPC   NC367223  30.907  16.127   5.434
 5192POPC   PO467224  30.481  15.614   5.409
 5192POPC   GL167225  30.542  15.869   5.750
 5192POPC   GL267226  30.880  15.908   5.880
 5192POPC   C1A67227  30.468  15.857   6.192
 5192POPC   D2A67228  30.674  15.754   6.582
 5192POPC   C3A67229  30.534  15.840   6.999
 5192POPC   C4A67230  30.601  16.173   7.246
 5192POPC   C1B67231  30.997  15.597   6.155
 5192POPC   C2B67232  31.160  15.598   6.546
 5192POPC   C3B67233  31.010  15.556   6.947
 5192POPC   C4B67234  31.003  15.853   7.262
 5193POPC   NC367235  18.573   6.830   5.365
 5193POPC   PO467236  18.039   6.361   5.520
 5193POPC   GL167237  18.348   6.532   5.786
 5193POPC   GL267238  18.409   6.871   5.852
 5193POPC   C1A67239  18.506   6.515   6.199
 5193POPC   D2A67240  18.457   6.298   6.587
 5193POPC   C3A67241  18.322   6.499   6.950
 5193POPC   C4A67242  18.506   6.475   7.364
 5193POPC   C1B67243  18.214   7.003   6.225
 5193POPC   C2B67244  18.232   6.840   6.591
 5193POPC   C3B67245  18.196   6.991   6.992
 5193POPC   C4B67246  18.498   6.951   7.262
 5194POPC   NC367247   8.301  39.979   5.208
 5194POPC   PO467248   7.770  39.540   5.224
 5194POPC   GL167249   8.104  39.660   5.594
 5194POPC   GL267250   8.267  40.010   5.718
 5194POPC   C1A67251   8.127  39.666   6.071
 5194POPC   D2A67252   7.980  39.767   6.487
 5194POPC   C3A67253   8.217  39.788   6.891
 5194POPC   C4A67254   8.127  39.885   7.317
 5194POPC   C1B67255   8.130  40.179   6.158
 5194POPC   C2B67256   8.305  40.220   6.590
 5194POPC   C3B67257   8.218  40.310   7.034
 5194POPC   C4B67258   8.524  40.190   7.366
 5195POPC   NC367259  31.015  24.529   5.328
 5195POPC   PO467260  30.471  24.817   5.479
 5195POPC   GL167261  30.732  24.792   5.833
 5195POPC   GL267262  30.788  24.423   5.846
 5195POPC   C1A67263  30.661  24.696   6.274
 5195POPC   D2A67264  30.689  24.727   6.693
 5195POPC   C3A67265  30.304  24.694   6.897
 5195POPC   C4A67266  30.315  24.677   7.333
 5195POPC   C1B67267  30.530  24.214   6.209
 5195POPC   C2B67268  30.571  24.248   6.680
 5195POPC   C3B67269  30.692  24.423   7.111
 5195POPC   C4B67270  30.538  24.250   7.516
 5196POPC   NC367271  28.901  26.574   5.493
 5196POPC   PO467272  28.271  27.003   5.485
 5196POPC   GL167273  28.489  26.812   5.832
 5196POPC   GL267274  28.840  26.905   5.895
 5196POPC   C1A67275  28.330  26.713   6.269
 5196POPC   D2A67276  28.035  26.653   6.592
 5196POPC   C3A67277  28.130  26.843   6.971
 5196POPC   C4A67278  28.174  26.965   7.399
 5196POPC   C1B67279  28.774  26.510   6.146
 5196POPC   C2B67280  28.648  26.429   6.585
 5196POPC   C3B67281  28.577  26.555   6.998
 5196POPC   C4B67282  28.645  26.926   7.209
 5197POPC   NC367283  12.344   4.097   5.456
 5197POPC   PO467284  11.799   4.526   5.509
 5197POPC   GL167285  11.955   4.162   5.825
 5197POPC   GL267286  12.253   4.259   5.934
 5197POPC   C1A67287  11.972   4.138   6.337
 5197POPC   D2A67288  12.328   4.351   6.583
 5197POPC   C3A67289  12.205   4.390   7.036
 5197POPC   C4A67290  11.801   4.152   7.097
 5197POPC   C1B67291  12.341   3.878   6.141
 5197POPC   C2B67292  12.370   3.766   6.577
 5197POPC   C3B67293  12.307   3.884   7.017
 5197POPC   C4B67294  12.158   4.030   7.447
 5198POPC   NC367295   6.171  44.826   5.406
 5198POPC   PO467296   6.858  44.521   5.441
 5198POPC   GL167297   6.780  44.731   5.844
 5198POPC   GL267298   6.426  44.699   5.848
 5198POPC   C1A67299   6.616  44.936   6.251
 5198POPC   D2A67300   6.424   0.078   6.628
 5198POPC   C3A67301   6.567  44.901   7.022
 5198POPC   C4A67302   6.710  44.641   7.358
 5198POPC   C1B67303   6.427  44.461   6.231
 5198POPC   C2B67304   6.476  44.562   6.658
 5198POPC   C3B67305   6.424  44.340   7.038
 5198POPC   C4B67306   6.772  44.100   7.184
 5199POPC   NC367307  19.191  35.138   5.194
 5199POPC   PO467308  19.858  35.269   5.434
 5199POPC   GL167309  19.797  35.496   5.823
 5199POPC   GL267310  19.905  35.221   5.951
 5199POPC   C1A67311  19.819  35.599   6.283
 5199POPC   D2A67312  19.688  35.408   6.661
 5199POPC   C3A67313  19.832  35.456   7.052
 5199POPC   C4A67314  19.641  35.670   7.395
 5199POPC   C1B67315  19.812  35.058   6.332
 5199POPC   C2B67316  20.033  35.038   6.732
 5199POPC   C3B67317  19.847  34.959   7.128
 5199POPC   C4B67318  19.830  35.208   7.510
 5200POPC   NC367319   7.949  36.749   5.364
 5200POPC   PO467320   8.554  37.176   5.426
 5200POPC   GL167321   8.378  36.900   5.710
 5200POPC   GL267322   8.070  37.123   5.744
 5200POPC   C1A67323   8.372  36.864   6.156
 5200POPC   D2A67324   8.466  37.217   6.452
 5200POPC   C3A67325   8.438  37.206   6.888
 5200POPC   C4A67326   8.395  36.862   7.222
 5200POPC   C1B67327   8.019  37.244   6.190
 5200POPC   C2B67328   7.967  37.130   6.647
 5200POPC   C3B67329   7.994  37.196   7.115
 5200POPC   C4B67330   7.784  37.101   7.479
 5201POPC   NC367331  39.427  39.316   5.438
 5201POPC   PO467332  38.796  39.250   5.421
 5201POPC   GL167333  38.914  39.142   5.865
 5201POPC   GL267334  39.252  39.068   5.837
 5201POPC   C1A67335  38.905  39.348   6.326
 5201POPC   D2A67336  38.800  39.405   6.800
 5201POPC   C3A67337  39.106  39.654   7.094
 5201POPC   C4A67338  39.591  39.609   7.173
 5201POPC   C1B67339  39.218  38.902   6.240
 5201POPC   C2B67340  39.448  38.957   6.613
 5201POPC   C3B67341  39.341  39.208   6.969
 5201POPC   C4B67342  38.971  39.157   7.233
 5202POPC   NC367343  27.261  34.449   5.476
 5202POPC   PO467344  26.710  34.526   5.128
 5202POPC   GL167345  26.910  34.784   5.640
 5202POPC   GL267346  27.147  34.675   5.918
 5202POPC   C1A67347  26.730  34.820   6.117
 5202POPC   D2A67348  26.572  34.541   6.458
 5202POPC   C3A67349  26.777  34.554   6.859
 5202POPC   C4A67350  26.672  34.334   7.223
 5202POPC   C1B67351  27.171  35.064   6.179
 5202POPC   C2B67352  26.942  34.969   6.566
 5202POPC   C3B67353  27.046  35.020   6.989
 5202POPC   C4B67354  27.094  34.687   7.270
 5203POPC   NC367355  29.679   4.648   5.523
 5203POPC   PO467356  29.935   4.024   5.570
 5203POPC   GL167357  30.119   4.328   5.866
 5203POPC   GL267358  29.984   4.645   5.942
 5203POPC   C1A67359  30.199   4.241   6.297
 5203POPC   D2A67360  30.139   4.511   6.649
 5203POPC   C3A67361  30.096   4.257   7.011
 5203POPC   C4A67362  30.352   3.963   7.228
 5203POPC   C1B67363  29.709   4.417   6.188
 5203POPC   C2B67364  29.632   4.392   6.627
 5203POPC   C3B67365  29.719   4.610   7.019
 5203POPC   C4B67366  29.827   4.462   7.435
 5204POPC   NC367367  37.237  32.414   5.442
 5204POPC   PO467368  37.794  31.901   5.398
 5204POPC   GL167369  37.553  32.107   5.717
 5204POPC   GL267370  37.698  32.405   5.700
 5204POPC   C1A67371  37.390  32.305   6.116
 5204POPC   D2A67372  37.515  32.567   6.495
 5204POPC   C3A67373  37.443  32.381   6.926
 5204POPC   C4A67374  37.402  32.210   7.369
 5204POPC   C1B67375  37.918  32.344   6.085
 5204POPC   C2B67376  37.931  32.224   6.506
 5204POPC   C3B67377  38.016  32.477   6.855
 5204POPC   C4B67378  37.872  32.512   7.264
 5205POPC   NC367379   7.101   2.184   5.571
 5205POPC   PO467380   7.640   1.737   5.446
 5205POPC   GL167381   7.633   1.957   5.803
 5205POPC   GL267382   7.576   2.298   5.796
 5205POPC   C1A67383   7.456   1.988   6.208
 5205POPC   D2A67384   7.174   1.930   6.519
 5205POPC   C3A67385   7.380   1.969   6.882
 5205POPC   C4A67386   7.161   2.092   7.216
 5205POPC   C1B67387   7.770   2.391   6.197
 5205POPC   C2B67388   7.761   2.240   6.617
 5205POPC   C3B67389   7.669   2.372   7.031
 5205POPC   C4B67390   7.720   2.169   7.401
 5206POPC   NC367391  15.919  27.595   5.089
 5206POPC   PO467392  15.707  27.496   5.674
 5206POPC   GL167393  15.987  27.703   5.894
 5206POPC   GL267394  15.751  27.889   6.104
 5206POPC   C1A67395  16.261  27.511   6.186
 5206POPC   D2A67396  16.277  27.452   6.602
 5206POPC   C3A67397  16.110  27.785   6.872
 5206POPC   C4A67398  15.906  27.686   7.269
 5206POPC   C1B67399  15.754  27.476   6.326
 5206POPC   C2B67400  15.765  27.445   6.738
 5206POPC   C3B67401  15.633  27.271   7.072
 5206POPC   C4B67402  15.574  27.353   7.497
 5207POPC   NC367403   0.031  34.701   5.576
 5207POPC   PO467404   0.673  34.845   5.519
 5207POPC   GL167405   0.543  34.557   5.859
 5207POPC   GL267406   0.243  34.331   5.880
 5207POPC   C1A67407   0.523  34.627   6.302
 5207POPC   D2A67408   0.347  34.538   6.704
 5207POPC   C3A67409   0.515  34.660   7.107
 5207POPC   C4A67410   0.661  34.744   7.536
 5207POPC   C1B67411   0.263  34.163   6.315
 5207POPC   C2B67412   0.021  34.146   6.704
 5207POPC   C3B67413   0.037  34.183   7.150
 5207POPC   C4B67414   0.326  34.313   7.434
 5208POPC   NC367415   4.803  35.998   5.485
 5208POPC   PO467416   5.500  36.044   5.553
 5208POPC   GL167417   5.241  36.041   5.900
 5208POPC   GL267418   4.965  36.258   5.925
 5208POPC   C1A67419   5.296  36.076   6.339
 5208POPC   D2A67420   5.420  35.860   6.714
 5208POPC   C3A67421   5.056  35.681   6.938
 5208POPC   C4A67422   4.888  35.860   7.336
 5208POPC   C1B67423   4.841  36.301   6.360
 5208POPC   C2B67424   4.999  36.207   6.785
 5208POPC   C3B67425   5.059  36.397   7.199
 5208POPC   C4B67426   4.812  36.338   7.578
 5209POPC   NC367427  40.662  11.425   5.365
 5209POPC   PO467428  41.249  11.441   5.402
 5209POPC   GL167429  41.000  11.220   5.777
 5209POPC   GL267430  40.628  11.306   5.851
 5209POPC   C1A67431  40.994  11.304   6.254
 5209POPC   D2A67432  40.736  11.413   6.630
 5209POPC   C3A67433  40.844  11.394   7.072
 5209POPC   C4A67434  41.033  11.615   7.419
 5209POPC   C1B67435  40.489  11.180   6.237
 5209POPC   C2B67436  40.327  11.113   6.645
 5209POPC   C3B67437  40.336  11.289   7.051
 5209POPC   C4B67438  40.484  11.265   7.462
 5210POPC   NC367439  28.826  11.856   5.453
 5210POPC   PO467440  29.242  12.279   5.541
 5210POPC   GL167441  29.130  12.128   5.913
 5210POPC   GL267442  29.272  11.832   5.817
 5210POPC   C1A67443  29.052  12.219   6.354
 5210POPC   D2A67444  29.034  12.475   6.733
 5210POPC   C3A67445  29.189  12.197   7.047
 5210POPC   C4A67446  29.139  11.787   7.348
 5210POPC   C1B67447  29.400  11.830   6.237
 5210POPC   C2B67448  29.217  11.790   6.639
 5210POPC   C3B67449  29.488  11.793   6.995
 5210POPC   C4B67450  29.734  11.931   7.330
 5211POPC   NC367451  18.679   1.816   5.477
 5211POPC   PO467452  19.212   1.317   5.433
 5211POPC   GL167453  19.314   1.075   5.831
 5211POPC   GL267454  18.966   1.062   5.913
 5211POPC   C1A67455  19.261   0.878   6.291
 5211POPC   D2A67456  19.133   1.070   6.722
 5211POPC   C3A67457  19.356   0.978   7.109
 5211POPC   C4A67458  19.613   1.138   7.467
 5211POPC   C1B67459  18.955   1.294   6.288
 5211POPC   C2B67460  18.727   1.381   6.670
 5211POPC   C3B67461  18.899   1.394   7.098
 5211POPC   C4B67462  19.126   1.298   7.490
 5212POPC   NC367463   8.465  43.799   5.380
 5212POPC   PO467464   7.832  43.709   5.666
 5212POPC   GL167465   8.226  43.783   5.855
 5212POPC   GL267466   8.512  43.505   5.797
 5212POPC   C1A67467   8.083  43.888   6.275
 5212POPC   D2A67468   8.130  44.134   6.618
 5212POPC   C3A67469   8.077  43.930   6.993
 5212POPC   C4A67470   7.960  43.734   7.402
 5212POPC   C1B67471   8.413  43.490   6.231
 5212POPC   C2B67472   8.412  43.681   6.629
 5212POPC   C3B67473   8.525  43.676   7.046
 5212POPC   C4B67474   8.385  43.441   7.384
 5213POPC   NC367475  40.498  10.439   5.408
 5213POPC   PO467476  39.875  10.625   5.479
 5213POPC   GL167477  39.901  10.498   5.892
 5213POPC   GL267478  40.255  10.528   5.873
 5213POPC   C1A67479  39.767  10.447   6.350
 5213POPC   D2A67480  39.865  10.411   6.819
 5213POPC   C3A67481  39.679  10.632   7.208
 5213POPC   C4A67482  39.777  10.601   7.680
 5213POPC   C1B67483  40.203  10.755   6.258
 5213POPC   C2B67484  40.361  10.613   6.627
 5213POPC   C3B67485  40.399  10.400   6.994
 5213POPC   C4B67486  40.152  10.436   7.348
 5214POPC   NC367487  15.302  17.116   5.381
 5214POPC   PO467488  15.377  17.780   5.214
 5214POPC   GL167489  15.170  17.535   5.683
 5214POPC   GL267490  14.874  17.495   5.910
 5214POPC   C1A67491  15.280  17.547   6.176
 5214POPC   D2A67492  15.311  17.692   6.619
 5214POPC   C3A67493  15.260  17.471   6.986
 5214POPC   C4A67494  15.253  17.476   7.430
 5214POPC   C1B67495  14.812  17.597   6.372
 5214POPC   C2B67496  14.815  17.326   6.749
 5214POPC   C3B67497  14.917  17.170   7.187
 5214POPC   C4B67498  15.017  17.080   7.651
 5215POPC   NC367499  18.456  41.357   5.507
 5215POPC   PO467500  17.889  41.704   5.454
 5215POPC   GL167501  18.109  41.752   5.821
 5215POPC   GL267502  18.464  41.795   5.797
 5215POPC   C1A67503  18.033  41.586   6.220
 5215POPC   D2A67504  17.886  41.501   6.620
 5215POPC   C3A67505  18.090  41.630   6.997
 5215POPC   C4A67506  18.138  41.272   7.212
 5215POPC   C1B67507  18.542  41.565   6.151
 5215POPC   C2B67508  18.421  41.611   6.563
 5215POPC   C3B67509  18.530  41.360   6.882
 5215POPC   C4B67510  18.562  41.585   7.224
 5216POPC   NC367511  27.474  16.843   5.317
 5216POPC   PO467512  27.958  16.379   5.241
 5216POPC   GL167513  27.782  16.519   5.669
 5216POPC   GL267514  27.428  16.533   5.740
 5216POPC   C1A67515  27.786  16.767   6.081
 5216POPC   D2A67516  27.642  16.932   6.493
 5216POPC   C3A67517  27.570  16.689   6.849
 5216POPC   C4A67518  27.726  16.636   7.249
 5216POPC   C1B67519  27.272  16.796   6.081
 5216POPC   C2B67520  27.143  16.890   6.531
 5216POPC   C3B67521  27.137  16.948   6.970
 5216POPC   C4B67522  27.223  16.669   7.300
 5217POPC   NC367523  13.511  31.525   5.446
 5217POPC   PO467524  14.040  31.065   5.508
 5217POPC   GL167525  13.843  31.393   5.865
 5217POPC   GL267526  13.492  31.552   5.939
 5217POPC   C1A67527  13.804  31.546   6.329
 5217POPC   D2A67528  13.635  31.277   6.702
 5217POPC   C3A67529  13.764  31.461   7.096
 5217POPC   C4A67530  13.880  31.846   7.165
 5217POPC   C1B67531  13.269  31.709   6.314
 5217POPC   C2B67532  13.151  31.755   6.752
 5217POPC   C3B67533  13.265  31.533   7.089
 5217POPC   C4B67534  13.430  31.097   7.183
 5218POPC   NC367535  40.352  25.411   5.479
 5218POPC   PO467536  39.924  24.882   5.494
 5218POPC   GL167537  39.993  25.177   5.783
 5218POPC   GL267538  40.301  25.043   5.887
 5218POPC   C1A67539  40.013  25.396   6.168
 5218POPC   D2A67540  39.736  25.456   6.510
 5218POPC   C3A67541  39.944  25.376   6.874
 5218POPC   C4A67542  39.810  25.434   7.274
 5218POPC   C1B67543  40.287  24.832   6.320
 5218POPC   C2B67544  40.256  24.944   6.782
 5218POPC   C3B67545  40.174  25.049   7.225
 5218POPC   C4B67546  40.240  24.927   7.707
 5219POPC   NC367547  29.672  26.611   5.437
 5219POPC   PO467548  29.077  27.020   5.453
 5219POPC   GL167549  29.325  26.801   5.762
 5219POPC   GL267550  29.587  27.012   5.838
 5219POPC   C1A67551  29.257  26.644   6.185
 5219POPC   D2A67552  28.968  26.850   6.486
 5219POPC   C3A67553  29.036  26.791   6.914
 5219POPC   C4A67554  29.246  26.577   7.237
 5219POPC   C1B67555  29.292  27.139   6.195
 5219POPC   C2B67556  29.380  27.123   6.666
 5219POPC   C3B67557  29.389  27.097   7.141
 5219POPC   C4B67558  29.345  27.326   7.534
 5220POPC   NC367559  37.201  37.116   5.595
 5220POPC   PO467560  37.679  37.078   5.156
 5220POPC   GL167561  37.689  36.983   5.684
 5220POPC   GL267562  37.651  36.667   5.847
 5220POPC   C1A67563  37.522  37.083   6.149
 5220POPC   D2A67564  37.262  36.886   6.480
 5220POPC   C3A67565  37.381  36.994   6.899
 5220POPC   C4A67566  37.522  36.865   7.310
 5220POPC   C1B67567  37.936  36.804   6.225
 5220POPC   C2B67568  37.874  36.915   6.696
 5220POPC   C3B67569  37.992  36.826   7.151
 5220POPC   C4B67570  38.031  36.917   7.637
 5221POPC   NC367571  30.201   0.215   5.552
 5221POPC   PO467572  29.827   0.815   5.451
 5221POPC   GL167573  29.844   0.639   5.862
 5221POPC   GL267574  30.193   0.649   5.814
 5221POPC   C1A67575  29.988   0.352   6.192
 5221POPC   D2A67576  29.876   0.190   6.603
 5221POPC   C3A67577  30.002   0.432   6.963
 5221POPC   C4A67578  30.041   0.286   7.362
 5221POPC   C1B67579  30.377   0.680   6.209
 5221POPC   C2B67580  30.185   0.764   6.593
 5221POPC   C3B67581  30.193   0.946   6.978
 5221POPC   C4B67582  30.201   0.798   7.410
 5222POPC   NC367583  25.706  16.782   5.408
 5222POPC   PO467584  26.334  16.459   5.423
 5222POPC   GL167585  26.048  16.549   5.767
 5222POPC   GL267586  26.066  16.896   5.786
 5222POPC   C1A67587  26.134  16.589   6.216
 5222POPC   D2A67588  26.197  16.891   6.564
 5222POPC   C3A67589  26.063  16.713   6.940
 5222POPC   C4A67590  25.780  16.461   7.171
 5222POPC   C1B67591  25.716  16.857   6.078
 5222POPC   C2B67592  25.698  16.720   6.499
 5222POPC   C3B67593  25.680  17.030   6.820
 5222POPC   C4B67594  25.709  16.959   7.254
 5223POPC   NC367595  21.576  37.728   5.372
 5223POPC   PO467596  21.608  37.101   5.380
 5223POPC   GL167597  21.424  37.374   5.745
 5223POPC   GL267598  21.583  37.721   5.891
 5223POPC   C1A67599  21.242  37.434   6.171
 5223POPC   D2A67600  21.404  37.588   6.554
 5223POPC   C3A67601  21.395  37.332   6.912
 5223POPC   C4A67602  21.082  37.400   7.191
 5223POPC   C1B67603  21.275  37.940   6.178
 5223POPC   C2B67604  21.060  37.992   6.575
 5223POPC   C3B67605  21.204  37.848   6.982
 5223POPC   C4B67606  21.566  37.982   7.239
 5224POPC   NC367607   2.759  24.123   5.444
 5224POPC   PO467608   2.705  24.773   5.410
 5224POPC   GL167609   2.824  24.535   5.764
 5224POPC   GL267610   3.136  24.467   5.664
 5224POPC   C1A67611   2.773  24.290   6.147
 5224POPC   D2A67612   2.677  24.131   6.562
 5224POPC   C3A67613   2.697  24.467   6.847
 5224POPC   C4A67614   2.526  24.469   7.235
 5224POPC   C1B67615   3.250  24.456   6.105
 5224POPC   C2B67616   3.135  24.406   6.540
 5224POPC   C3B67617   3.181  24.661   6.907
 5224POPC   C4B67618   2.994  24.706   7.285
 5225POPC   NC367619   7.681   3.141   5.040
 5225POPC   PO467620   7.334   3.252   5.541
 5225POPC   GL167621   7.296   3.494   5.907
 5225POPC   GL267622   7.604   3.312   5.969
 5225POPC   C1A67623   7.424   3.869   6.150
 5225POPC   D2A67624   7.576   4.004   6.553
 5225POPC   C3A67625   7.389   3.747   6.852
 5225POPC   C4A67626   7.134   3.669   7.219
 5225POPC   C1B67627   7.466   3.401   6.389
 5225POPC   C2B67628   7.463   3.209   6.782
 5225POPC   C3B67629   7.526   3.368   7.169
 5225POPC   C4B67630   7.740   3.420   7.539
 5226POPC   NC367631  21.907  14.865   5.270
 5226POPC   PO467632  21.442  15.283   5.288
 5226POPC   GL167633  21.562  15.191   5.720
 5226POPC   GL267634  21.345  14.972   5.928
 5226POPC   C1A67635  21.665  15.321   6.154
 5226POPC   D2A67636  21.818  15.173   6.546
 5226POPC   C3A67637  21.533  15.162   6.898
 5226POPC   C4A67638  21.392  15.302   7.298
 5226POPC   C1B67639  21.641  14.774   6.269
 5226POPC   C2B67640  21.818  14.666   6.702
 5226POPC   C3B67641  21.760  14.768   7.136
 5226POPC   C4B67642  21.482  14.831   7.509
 5227POPC   NC367643  22.118  38.071   5.359
 5227POPC   PO467644  22.564  38.532   5.422
 5227POPC   GL167645  22.331  38.497   5.844
 5227POPC   GL267646  22.105  38.221   5.847
 5227POPC   C1A67647  22.114  38.474   6.299
 5227POPC   D2A67648  21.842  38.568   6.682
 5227POPC   C3A67649  22.081  38.731   7.002
 5227POPC   C4A67650  22.393  38.488   7.182
 5227POPC   C1B67651  21.970  37.983   6.195
 5227POPC   C2B67652  22.095  38.064   6.630
 5227POPC   C3B67653  22.034  38.141   7.052
 5227POPC   C4B67654  22.104  37.842   7.359
 5228POPC   NC367655  19.764  10.634   5.467
 5228POPC   PO467656  19.962   9.970   5.347
 5228POPC   GL167657  19.988  10.229   5.778
 5228POPC   GL267658  19.823  10.564   5.959
 5228POPC   C1A67659  20.132  10.295   6.228
 5228POPC   D2A67660  19.998  10.290   6.651
 5228POPC   C3A67661  20.016  10.622   6.946
 5228POPC   C4A67662  19.912  10.362   7.281
 5228POPC   C1B67663  19.837  10.710   6.407
 5228POPC   C2B67664  19.533  10.602   6.753
 5228POPC   C3B67665  19.546  10.705   7.193
 5228POPC   C4B67666  19.726  10.839   7.590
 5229POPC   NC367667  37.124  44.489   5.529
 5229POPC   PO467668  36.688  44.714   5.151
 5229POPC   GL167669  36.677  44.618   5.679
 5229POPC   GL267670  36.712  44.313   5.852
 5229POPC   C1A67671  36.812  44.798   6.132
 5229POPC   D2A67672  37.093  44.821   6.527
 5229POPC   C3A67673  36.907  44.849   6.949
 5229POPC   C4A67674  36.509  44.647   7.030
 5229POPC   C1B67675  36.990  44.332   6.245
 5229POPC   C2B67676  36.906  44.345   6.708
 5229POPC   C3B67677  37.112  44.384   7.090
 5229POPC   C4B67678  37.075  44.210   7.488
 5230POPC   NC367679  29.345  32.232   5.391
 5230POPC   PO467680  30.022  32.072   5.325
 5230POPC   GL167681  30.044  32.274   5.747
 5230POPC   GL267682  29.706  32.243   5.782
 5230POPC   C1A67683  30.034  32.250   6.243
 5230POPC   D2A67684  29.926  32.348   6.706
 5230POPC   C3A67685  30.181  32.232   7.085
 5230POPC   C4A67686  30.197  31.920   7.429
 5230POPC   C1B67687  29.621  32.552   6.111
 5230POPC   C2B67688  29.419  32.622   6.508
 5230POPC   C3B67689  29.430  32.427   6.884
 5230POPC   C4B67690  29.728  32.428   7.220
 5231POPC   NC367691  10.826  27.077   5.638
 5231POPC   PO467692  10.407  26.595   5.536
 5231POPC   GL167693  10.543  26.735   5.925
 5231POPC   GL267694  10.415  27.060   5.932
 5231POPC   C1A67695  10.698  26.832   6.355
 5231POPC   D2A67696  10.641  27.025   6.797
 5231POPC   C3A67697  10.435  26.814   7.171
 5231POPC   C4A67698  10.578  26.857   7.630
 5231POPC   C1B67699  10.141  27.180   6.240
 5231POPC   C2B67700  10.127  27.057   6.667
 5231POPC   C3B67701  10.243  27.259   7.070
 5231POPC   C4B67702  10.225  27.177   7.503
 5232POPC   NC367703   5.199  44.348   5.073
 5232POPC   PO467704   5.692  44.689   5.413
 5232POPC   GL167705   5.894  44.717   5.821
 5232POPC   GL267706   5.965  44.442   5.996
 5232POPC   C1A67707   6.095  44.909   6.182
 5232POPC   D2A67708   6.005  44.718   6.548
 5232POPC   C3A67709   6.065  44.888   6.954
 5232POPC   C4A67710   6.148  44.676   7.335
 5232POPC   C1B67711   5.625  44.250   6.231
 5232POPC   C2B67712   5.409  44.189   6.643
 5232POPC   C3B67713   5.379  44.529   6.952
 5232POPC   C4B67714   5.615  44.504   7.303
 5233POPC   NC367715  10.457  34.565   5.394
 5233POPC   PO467716  10.498  35.180   5.272
 5233POPC   GL167717  10.562  34.912   5.754
 5233POPC   GL267718  10.630  34.514   5.865
 5233POPC   C1A67719  10.348  34.763   6.198
 5233POPC   D2A67720  10.290  34.538   6.604
 5233POPC   C3A67721  10.398  34.773   6.994
 5233POPC   C4A67722  10.772  34.946   7.177
 5233POPC   C1B67723  10.806  34.176   6.171
 5233POPC   C2B67724  10.973  34.242   6.601
 5233POPC   C3B67725  10.792  34.421   6.982
 5233POPC   C4B67726  10.635  34.471   7.407
 5234POPC   NC367727  27.931   6.715   5.492
 5234POPC   PO467728  28.559   6.454   5.374
 5234POPC   GL167729  28.384   6.525   5.757
 5234POPC   GL267730  28.431   6.864   5.803
 5234POPC   C1A67731  28.214   6.462   6.175
 5234POPC   D2A67732  28.116   6.649   6.568
 5234POPC   C3A67733  28.201   6.388   6.897
 5234POPC   C4A67734  28.533   6.513   7.175
 5234POPC   C1B67735  28.334   6.984   6.209
 5234POPC   C2B67736  28.558   6.921   6.579
 5234POPC   C3B67737  28.455   6.988   6.984
 5234POPC   C4B67738  28.548   7.219   7.333
 5235POPC   NC367739  12.407  43.338   5.538
 5235POPC   PO467740  12.826  42.938   5.179
 5235POPC   GL167741  12.890  43.106   5.628
 5235POPC   GL267742  13.165  42.880   5.698
 5235POPC   C1A67743  12.828  43.323   6.070
 5235POPC   D2A67744  12.608  43.180   6.465
 5235POPC   C3A67745  12.705  43.432   6.834
 5235POPC   C4A67746  12.809  43.590   7.234
 5235POPC   C1B67747  12.916  42.830   6.089
 5235POPC   C2B67748  12.927  42.719   6.544
 5235POPC   C3B67749  13.026  42.820   6.955
 5235POPC   C4B67750  12.769  43.073   7.234
 5236POPC   NC367751  36.742  23.704   5.433
 5236POPC   PO467752  37.348  23.743   5.766
 5236POPC   GL167753  36.949  23.602   5.901
 5236POPC   GL267754  36.739  23.912   5.901
 5236POPC   C1A67755  36.881  23.654   6.336
 5236POPC   D2A67756  37.126  23.813   6.705
 5236POPC   C3A67757  37.086  23.584   7.101
 5236POPC   C4A67758  36.820  23.572   7.506
 5236POPC   C1B67759  36.665  24.108   6.303
 5236POPC   C2B67760  36.628  23.917   6.716
 5236POPC   C3B67761  36.714  23.923   7.148
 5236POPC   C4B67762  36.465  24.010   7.469
 5237POPC   NC367763  15.215   7.569   5.362
 5237POPC   PO467764  14.781   7.156   5.533
 5237POPC   GL167765  15.203   7.230   5.781
 5237POPC   GL267766  15.327   7.580   5.855
 5237POPC   C1A67767  15.469   7.202   6.183
 5237POPC   D2A67768  15.514   7.453   6.573
 5237POPC   C3A67769  15.268   7.331   6.950
 5237POPC   C4A67770  15.211   7.375   7.420
 5237POPC   C1B67771  15.160   7.673   6.257
 5237POPC   C2B67772  15.043   7.705   6.694
 5237POPC   C3B67773  15.033   7.776   7.138
 5237POPC   C4B67774  14.910   7.776   7.596
 5238POPC   NC367775  33.568  28.818   5.470
 5238POPC   PO467776  33.822  28.203   5.377
 5238POPC   GL167777  33.730  28.407   5.798
 5238POPC   GL267778  33.961  28.702   5.855
 5238POPC   C1A67779  33.471  28.441   6.207
 5238POPC   D2A67780  33.331  28.191   6.589
 5238POPC   C3A67781  33.501  28.291   7.018
 5238POPC   C4A67782  33.564  28.635   7.336
 5238POPC   C1B67783  33.986  28.457   6.260
 5238POPC   C2B67784  33.841  28.481   6.696
 5238POPC   C3B67785  33.980  28.395   7.148
 5238POPC   C4B67786  34.204  28.080   7.405
 5239POPC   NC367787  30.485  10.061   5.541
 5239POPC   PO467788  30.637   9.370   5.518
 5239POPC   GL167789  30.591   9.587   5.870
 5239POPC   GL267790  30.880   9.763   5.787
 5239POPC   C1A67791  30.441   9.685   6.287
 5239POPC   D2A67792  30.563   9.997   6.629
 5239POPC   C3A67793  30.549   9.880   7.040
 5239POPC   C4A67794  30.438   9.488   7.180
 5239POPC   C1B67795  30.946   9.691   6.239
 5239POPC   C2B67796  31.052   9.861   6.640
 5239POPC   C3B67797  31.004   9.684   7.047
 5239POPC   C4B67798  31.179   9.845   7.392
 5240POPC   NC367799  23.933  19.312   5.511
 5240POPC   PO467800  23.561  18.814   5.481
 5240POPC   GL167801  23.613  19.050   5.840
 5240POPC   GL267802  23.955  18.935   5.881
 5240POPC   C1A67803  23.563  18.906   6.253
 5240POPC   D2A67804  23.802  18.815   6.613
 5240POPC   C3A67805  23.589  18.915   7.030
 5240POPC   C4A67806  23.582  19.089   7.492
 5240POPC   C1B67807  23.968  19.212   6.258
 5240POPC   C2B67808  24.103  19.230   6.704
 5240POPC   C3B67809  24.065  19.088   7.137
 5240POPC   C4B67810  24.069  19.147   7.606
 5241POPC   NC367811   4.156  11.616   5.555
 5241POPC   PO467812   4.390  11.076   5.370
 5241POPC   GL167813   4.372  11.202   5.769
 5241POPC   GL267814   4.584  11.512   5.802
 5241POPC   C1A67815   4.532  11.136   6.172
 5241POPC   D2A67816   4.502  11.308   6.573
 5241POPC   C3A67817   4.586  11.061   6.924
 5241POPC   C4A67818   4.308  11.076   7.254
 5241POPC   C1B67819   4.429  11.683   6.214
 5241POPC   C2B67820   4.289  11.780   6.656
 5241POPC   C3B67821   4.322  11.538   7.023
 5241POPC   C4B67822   4.731  11.500   7.203
 5242POPC   NC367823   2.849   6.613   5.100
 5242POPC   PO467824   2.804   6.884   5.672
 5242POPC   GL167825   2.812   6.616   5.982
 5242POPC   GL267826   3.016   6.385   5.934
 5242POPC   C1A67827   2.768   6.471   6.407
 5242POPC   D2A67828   2.415   6.479   6.658
 5242POPC   C3A67829   2.498   6.267   6.996
 5242POPC   C4A67830   2.547   6.452   7.377
 5242POPC   C1B67831   3.270   6.487   6.292
 5242POPC   C2B67832   3.225   6.507   6.733
 5242POPC   C3B67833   2.970   6.532   7.099
 5242POPC   C4B67834   3.016   6.385   7.542
 5243POPC   NC367835  39.930   3.081   5.371
 5243POPC   PO467836  40.113   3.744   5.397
 5243POPC   GL167837  39.948   3.486   5.701
 5243POPC   GL267838  40.284   3.370   5.747
 5243POPC   C1A67839  39.864   3.275   6.087
 5243POPC   D2A67840  40.093   3.272   6.498
 5243POPC   C3A67841  39.866   3.494   6.827
 5243POPC   C4A67842  39.601   3.522   7.190
 5243POPC   C1B67843  40.285   3.603   6.106
 5243POPC   C2B67844  40.191   3.771   6.497
 5243POPC   C3B67845  40.344   3.652   6.895
 5243POPC   C4B67846  40.163   3.402   7.234
 5244POPC   NC367847   9.251  33.588   5.485
 5244POPC   PO467848   8.684  33.885   5.281
 5244POPC   GL167849   8.919  33.945   5.680
 5244POPC   GL267850   8.827  33.626   5.812
 5244POPC   C1A67851   9.061  33.988   6.136
 5244POPC   D2A67852   8.859  34.142   6.535
 5244POPC   C3A67853   9.065  34.003   6.921
 5244POPC   C4A67854   9.105  34.158   7.345
 5244POPC   C1B67855   8.871  33.474   6.225
 5244POPC   C2B67856   9.075  33.591   6.577
 5244POPC   C3B67857   9.221  33.470   6.957
 5244POPC   C4B67858   9.183  33.661   7.346
 5245POPC   NC367859   7.989  34.163   5.462
 5245POPC   PO467860   8.117  34.830   5.339
 5245POPC   GL167861   8.169  34.752   5.786
 5245POPC   GL267862   8.097  34.419   5.882
 5245POPC   C1A67863   8.117  34.801   6.237
 5245POPC   D2A67864   8.044  34.564   6.637
 5245POPC   C3A67865   8.179  34.708   7.047
 5245POPC   C4A67866   8.368  34.457   7.378
 5245POPC   C1B67867   8.190  34.247   6.263
 5245POPC   C2B67868   8.332  34.138   6.660
 5245POPC   C3B67869   8.127  34.201   7.024
 5245POPC   C4B67870   7.833  34.360   7.292
 5246POPC   NC367871  11.934  17.036   5.347
 5246POPC   PO467872  12.293  16.463   5.378
 5246POPC   GL167873  12.191  16.620   5.782
 5246POPC   GL267874  11.851  16.692   5.834
 5246POPC   C1A67875  12.113  16.530   6.234
 5246POPC   D2A67876  11.843  16.673   6.565
 5246POPC   C3A67877  12.119  16.696   6.876
 5246POPC   C4A67878  12.257  16.459   7.218
 5246POPC   C1B67879  11.559  16.811   6.158
 5246POPC   C2B67880  11.504  17.067   6.521
 5246POPC   C3B67881  11.779  17.115   6.848
 5246POPC   C4B67882  11.910  16.976   7.241
 5247POPC   NC367883   3.239  42.091   5.439
 5247POPC   PO467884   3.703  42.509   5.315
 5247POPC   GL167885   3.657  42.254   5.701
 5247POPC   GL267886   3.618  42.577   5.869
 5247POPC   C1A67887   3.655  42.078   6.145
 5247POPC   D2A67888   3.752  42.297   6.543
 5247POPC   C3A67889   3.597  42.142   6.911
 5247POPC   C4A67890   3.705  42.223   7.344
 5247POPC   C1B67891   3.387  42.509   6.252
 5247POPC   C2B67892   3.278  42.563   6.689
 5247POPC   C3B67893   3.354  42.534   7.127
 5247POPC   C4B67894   3.321  42.682   7.584
 5248POPC   NC367895   6.056  13.275   5.346
 5248POPC   PO467896   5.740  13.787   5.584
 5248POPC   GL167897   5.974  13.572   5.859
 5248POPC   GL267898   6.138  13.866   6.021
 5248POPC   C1A67899   5.946  13.489   6.294
 5248POPC   D2A67900   6.147  13.645   6.638
 5248POPC   C3A67901   5.996  13.403   7.003
 5248POPC   C4A67902   6.070  13.470   7.435
 5248POPC   C1B67903   5.752  13.953   6.261
 5248POPC   C2B67904   5.653  13.753   6.696
 5248POPC   C3B67905   5.748  13.809   7.173
 5248POPC   C4B67906   5.649  13.728   7.645
 5249POPC   NC367907  38.734  35.728   5.721
 5249POPC   PO467908  38.730  35.135   5.415
 5249POPC   GL167909  38.405  35.303   5.721
 5249POPC   GL267910  38.631  35.290   5.976
 5249POPC   C1A67911  38.217  35.514   6.132
 5249POPC   D2A67912  38.474  35.578   6.510
 5249POPC   C3A67913  38.244  35.451   6.865
 5249POPC   C4A67914  38.272  35.543   7.282
 5249POPC   C1B67915  38.877  35.104   6.269
 5249POPC   C2B67916  38.913  35.195   6.691
 5249POPC   C3B67917  38.694  35.327   7.051
 5249POPC   C4B67918  38.778  35.391   7.499
 5250POPC   NC367919  11.044  15.863   5.407
 5250POPC   PO467920  11.640  15.971   5.680
 5250POPC   GL167921  11.244  15.908   5.885
 5250POPC   GL267922  11.012  16.180   5.825
 5250POPC   C1A67923  11.271  15.796   6.310
 5250POPC   D2A67924  11.497  15.927   6.685
 5250POPC   C3A67925  11.223  15.838   7.042
 5250POPC   C4A67926  11.207  15.830   7.515
 5250POPC   C1B67927  10.848  16.084   6.201
 5250POPC   C2B67928  11.016  16.122   6.601
 5250POPC   C3B67929  10.823  16.181   6.957
 5250POPC   C4B67930  11.004  16.256   7.334
 5251POPC   NC367931  27.927  34.510   5.522
 5251POPC   PO467932  27.424  34.878   5.547
 5251POPC   GL167933  27.649  34.748   5.905
 5251POPC   GL267934  27.588  34.410   5.888
 5251POPC   C1A67935  27.498  34.717   6.350
 5251POPC   D2A67936  27.297  34.613   6.748
 5251POPC   C3A67937  27.527  34.861   7.035
 5251POPC   C4A67938  27.935  34.801   7.195
 5251POPC   C1B67939  27.747  34.285   6.285
 5251POPC   C2B67940  27.491  34.110   6.595
 5251POPC   C3B67941  27.565  34.104   7.003
 5251POPC   C4B67942  27.544  34.420   7.269
 5252POPC   NC367943  17.866  42.915   5.410
 5252POPC   PO467944  18.436  43.251   5.249
 5252POPC   GL167945  18.367  43.063   5.684
 5252POPC   GL267946  18.623  42.779   5.725
 5252POPC   C1A67947  18.203  43.137   6.120
 5252POPC   D2A67948  18.087  43.278   6.568
 5252POPC   C3A67949  18.108  43.051   6.955
 5252POPC   C4A67950  18.378  43.190   7.280
 5252POPC   C1B67951  18.645  42.868   6.157
 5252POPC   C2B67952  18.426  42.903   6.542
 5252POPC   C3B67953  18.547  42.801   6.950
 5252POPC   C4B67954  18.696  42.776   7.361
 5253POPC   NC367955  38.010   6.485   5.264
 5253POPC   PO467956  37.969   7.171   5.502
 5253POPC   GL167957  37.829   6.790   5.735
 5253POPC   GL267958  37.569   6.988   5.879
 5253POPC   C1A67959  37.722   6.587   6.162
 5253POPC   D2A67960  37.846   6.712   6.603
 5253POPC   C3A67961  37.651   6.559   7.001
 5253POPC   C4A67962  37.801   6.327   7.392
 5253POPC   C1B67963  37.906   7.077   6.213
 5253POPC   C2B67964  37.941   7.211   6.670
 5253POPC   C3B67965  37.694   7.059   7.035
 5253POPC   C4B67966  37.643   6.830   7.428
 5254POPC   NC367967  33.678  10.304   5.330
 5254POPC   PO467968  33.835  10.935   5.503
 5254POPC   GL167969  33.696  10.755   5.863
 5254POPC   GL267970  33.661  10.404   5.845
 5254POPC   C1A67971  33.750  10.647   6.305
 5254POPC   D2A67972  33.616  10.529   6.709
 5254POPC   C3A67973  33.908  10.450   7.068
 5254POPC   C4A67974  34.222  10.750   7.177
 5254POPC   C1B67975  33.462  10.211   6.216
 5254POPC   C2B67976  33.405  10.050   6.635
 5254POPC   C3B67977  33.416  10.225   7.061
 5254POPC   C4B67978  33.523  10.588   7.361
 5255POPC   NC367979  21.541  11.248   5.402
 5255POPC   PO467980  20.934  11.139   5.445
 5255POPC   GL167981  21.166  11.429   5.725
 5255POPC   GL267982  21.308  11.137   5.864
 5255POPC   C1A67983  21.288  11.546   6.160
 5255POPC   D2A67984  21.226  11.260   6.520
 5255POPC   C3A67985  21.283  11.486   6.910
 5255POPC   C4A67986  21.380  11.451   7.339
 5255POPC   C1B67987  21.627  11.163   6.180
 5255POPC   C2B67988  21.650  10.932   6.589
 5255POPC   C3B67989  21.386  11.004   6.947
 5255POPC   C4B67990  21.112  10.740   7.184
 5256POPC   NC367991   3.594  22.428   5.019
 5256POPC   PO467992   3.106  22.042   5.446
 5256POPC   GL167993   3.297  22.097   5.832
 5256POPC   GL267994   3.491  22.343   5.883
 5256POPC   C1A67995   3.170  22.299   6.243
 5256POPC   D2A67996   3.387  22.513   6.575
 5256POPC   C3A67997   3.412  22.284   6.988
 5256POPC   C4A67998   3.763  22.012   7.137
 5256POPC   C1B67999   3.691  22.188   6.260
 5256POPC   C2B68000   3.875  22.259   6.680
 5256POPC   C3B68001   4.065  22.421   7.076
 5256POPC   C4B68002   3.946  22.450   7.519
 5257POPC   NC368003  26.109  19.746   5.346
 5257POPC   PO468004  26.264  20.097   5.877
 5257POPC   GL168005  25.955  19.760   5.872
 5257POPC   GL268006  25.919  19.411   5.783
 5257POPC   C1A68007  25.977  19.614   6.282
 5257POPC   D2A68008  25.929  19.912   6.614
 5257POPC   C3A68009  26.283  19.866   6.876
 5257POPC   C4A68010  26.358  20.050   7.278
 5257POPC   C1B68011  25.569  19.356   6.137
 5257POPC   C2B68012  25.605  19.479   6.594
 5257POPC   C3B68013  25.839  19.578   6.988
 5257POPC   C4B68014  26.227  19.477   7.201
 5258POPC   NC368015  21.974  36.913   5.206
 5258POPC   PO468016  22.579  36.861   5.391
 5258POPC   GL168017  22.211  36.878   5.693
 5258POPC   GL268018  22.144  36.601   5.894
 5258POPC   C1A68019  22.198  37.023   6.140
 5258POPC   D2A68020  22.137  36.835   6.553
 5258POPC   C3A68021  21.927  37.141   6.815
 5258POPC   C4A68022  22.106  37.136   7.200
 5258POPC   C1B68023  22.457  36.505   6.230
 5258POPC   C2B68024  22.524  36.470   6.688
 5258POPC   C3B68025  22.387  36.744   7.038
 5258POPC   C4B68026  22.061  36.654   7.372
 5259POPC   NC368027  28.522  18.752   5.540
 5259POPC   PO468028  28.284  19.217   5.077
 5259POPC   GL168029  28.351  19.300   5.572
 5259POPC   GL268030  28.697  19.356   5.712
 5259POPC   C1A68031  28.286  19.223   6.051
 5259POPC   D2A68032  28.429  18.953   6.441
 5259POPC   C3A68033  28.311  19.037   6.879
 5259POPC   C4A68034  28.338  18.939   7.319
 5259POPC   C1B68035  28.689  19.524   6.135
 5259POPC   C2B68036  28.515  19.444   6.522
 5259POPC   C3B68037  28.725  19.335   6.872
 5259POPC   C4B68038  28.479  19.474   7.195
 5260POPC   NC368039  28.375   7.772   5.477
 5260POPC   PO468040  28.154   7.120   5.471
 5260POPC   GL168041  28.335   7.386   5.826
 5260POPC   GL268042  28.007   7.506   5.927
 5260POPC   C1A68043  28.400   7.639   6.231
 5260POPC   D2A68044  28.456   7.426   6.648
 5260POPC   C3A68045  28.411   7.682   7.027
 5260POPC   C4A68046  28.431   7.669   7.488
 5260POPC   C1B68047  27.890   7.229   6.259
 5260POPC   C2B68048  28.040   7.123   6.681
 5260POPC   C3B68049  28.047   7.285   7.102
 5260POPC   C4B68050  28.049   7.164   7.529
 5261POPC   NC368051   2.935  28.313   5.250
 5261POPC   PO468052   2.695  28.932   5.186
 5261POPC   GL168053   2.712  28.629   5.609
 5261POPC   GL268054   2.563  28.291   5.692
 5261POPC   C1A68055   2.656  28.566   6.098
 5261POPC   D2A68056   2.703  28.689   6.538
 5261POPC   C3A68057   2.574  28.472   6.914
 5261POPC   C4A68058   2.841  28.650   7.207
 5261POPC   C1B68059   2.713  28.064   6.115
 5261POPC   C2B68060   2.812  28.102   6.576
 5261POPC   C3B68061   2.584  27.931   6.943
 5261POPC   C4B68062   2.288  27.995   7.289
 5262POPC   NC368063  40.317  20.168   5.317
 5262POPC   PO468064  39.875  19.546   5.328
 5262POPC   GL168065  39.893  19.588   5.779
 5262POPC   GL268066  40.031  19.929   5.775
 5262POPC   C1A68067  40.155  19.614   6.174
 5262POPC   D2A68068  40.359  19.565   6.603
 5262POPC   C3A68069  40.099  19.787   6.911
 5262POPC   C4A68070  39.983  19.740   7.374
 5262POPC   C1B68071  39.772  20.016   6.164
 5262POPC   C2B68072  39.721  20.150   6.610
 5262POPC   C3B68073  39.753  20.124   7.062
 5262POPC   C4B68074  40.148  20.208   7.228
 5263POPC   NC368075  44.057  43.778   5.488
 5263POPC   PO468076  43.337  43.643   5.462
 5263POPC   GL168077  43.614  43.808   5.814
 5263POPC   GL268078  43.874  43.558   5.934
 5263POPC   C1A68079  43.889  44.040   6.138
 5263POPC   D2A68080  43.847  43.865   6.561
 5263POPC   C3A68081  43.585  44.026   6.894
 5263POPC   C4A68082  43.677  44.081   7.354
 5263POPC   C1B68083  44.212  43.650   6.260
 5263POPC   C2B68084  44.222  43.544   6.725
 5263POPC   C3B68085  44.285  43.596   7.168
 5263POPC   C4B68086  43.971  43.577   7.493
 5264POPC   NC368087   4.172  21.043   5.277
 5264POPC   PO468088   4.054  21.714   5.414
 5264POPC   GL168089   4.229  21.390   5.677
 5264POPC   GL268090   4.391  21.633   5.829
 5264POPC   C1A68091   4.142  21.236   6.106
 5264POPC   D2A68092   3.935  21.102   6.510
 5264POPC   C3A68093   4.231  21.050   6.853
 5264POPC   C4A68094   4.298  21.128   7.298
 5264POPC   C1B68095   4.525  21.559   6.212
 5264POPC   C2B68096   4.315  21.505   6.603
 5264POPC   C3B68097   4.231  21.553   7.041
 5264POPC   C4B68098   4.534  21.584   7.380
 5265POPC   NC368099  28.029  43.561   5.500
 5265POPC   PO468100  27.947  44.233   5.417
 5265POPC   GL168101  27.716  44.217   5.784
 5265POPC   GL268102  27.670  43.857   5.837
 5265POPC   C1A68103  27.519  44.211   6.183
 5265POPC   D2A68104  27.677  44.007   6.542
 5265POPC   C3A68105  27.416  44.082   6.866
 5265POPC   C4A68106  27.431  44.384   7.153
 5265POPC   C1B68107  27.439  43.687   6.217
 5265POPC   C2B68108  27.437  43.579   6.695
 5265POPC   C3B68109  27.492  43.668   7.149
 5265POPC   C4B68110  27.586  43.541   7.566
 5266POPC   NC368111  30.805   6.751   5.519
 5266POPC   PO468112  30.858   6.073   5.401
 5266POPC   GL168113  30.849   6.325   5.809
 5266POPC   GL268114  30.529   6.494   5.845
 5266POPC   C1A68115  30.854   6.512   6.242
 5266POPC   D2A68116  31.026   6.786   6.556
 5266POPC   C3A68117  30.987   6.640   6.971
 5266POPC   C4A68118  30.708   6.712   7.275
 5266POPC   C1B68119  30.357   6.621   6.226
 5266POPC   C2B68120  30.526   6.665   6.638
 5266POPC   C3B68121  30.278   6.702   7.001
 5266POPC   C4B68122  30.189   7.018   7.221
 5267POPC   NC368123   6.239  17.100   5.290
 5267POPC   PO468124   5.868  16.558   5.435
 5267POPC   GL168125   6.040  16.736   5.822
 5267POPC   GL268126   6.149  17.099   5.777
 5267POPC   C1A68127   5.976  16.731   6.310
 5267POPC   D2A68128   6.121  16.628   6.751
 5267POPC   C3A68129   5.812  16.483   7.116
 5267POPC   C4A68130   5.568  16.391   7.545
 5267POPC   C1B68131   6.071  17.218   6.142
 5267POPC   C2B68132   6.258  17.147   6.504
 5267POPC   C3B68133   6.306  17.182   6.913
 5267POPC   C4B68134   6.126  16.898   7.203
 5268POPC   NC368135  18.047  40.567   5.049
 5268POPC   PO468136  18.391  40.062   5.459
 5268POPC   GL168137  18.443  40.033   5.853
 5268POPC   GL268138  18.442  40.380   5.932
 5268POPC   C1A68139  18.320  39.845   6.208
 5268POPC   D2A68140  18.205  40.035   6.559
 5268POPC   C3A68141  18.245  39.888   6.946
 5268POPC   C4A68142  18.175  39.928   7.337
 5268POPC   C1B68143  18.628  40.254   6.328
 5268POPC   C2B68144  18.614  40.235   6.772
 5268POPC   C3B68145  18.450  40.323   7.145
 5268POPC   C4B68146  18.680  40.326   7.543
 5269POPC   NC368147  22.489  14.447   5.354
 5269POPC   PO468148  21.810  14.419   5.365
 5269POPC   GL168149  22.078  14.319   5.724
 5269POPC   GL268150  22.266  14.636   5.760
 5269POPC   C1A68151  22.037  14.277   6.204
 5269POPC   D2A68152  22.016  14.126   6.670
 5269POPC   C3A68153  22.077  14.330   7.123
 5269POPC   C4A68154  22.362  14.369   7.539
 5269POPC   C1B68155  22.405  14.630   6.172
 5269POPC   C2B68156  22.298  14.556   6.568
 5269POPC   C3B68157  22.441  14.660   6.931
 5269POPC   C4B68158  22.255  14.796   7.266
 5270POPC   NC368159  24.636  13.642   5.598
 5270POPC   PO468160  24.151  13.268   5.622
 5270POPC   GL168161  24.221  13.597   5.903
 5270POPC   GL268162  24.237  13.956   5.776
 5270POPC   C1A68163  24.383  13.519   6.262
 5270POPC   D2A68164  24.596  13.704   6.579
 5270POPC   C3A68165  24.449  13.508   6.907
 5270POPC   C4A68166  24.494  13.605   7.302
 5270POPC   C1B68167  24.461  14.014   6.170
 5270POPC   C2B68168  24.345  14.148   6.595
 5270POPC   C3B68169  24.474  14.049   7.002
 5270POPC   C4B68170  24.331  14.132   7.416
 5271POPC   NC368171   1.214  27.450   5.390
 5271POPC   PO468172   1.676  27.947   5.451
 5271POPC   GL168173   1.389  27.681   5.826
 5271POPC   GL268174   1.288  27.332   5.891
 5271POPC   C1A68175   1.352  27.582   6.312
 5271POPC   D2A68176   1.093  27.464   6.651
 5271POPC   C3A68177   1.208  27.598   7.085
 5271POPC   C4A68178   1.223  27.307   7.463
 5271POPC   C1B68179   0.894  27.384   6.162
 5271POPC   C2B68180   0.663  27.142   6.501
 5271POPC   C3B68181   0.557  27.148   6.952
 5271POPC   C4B68182   0.325  27.262   7.359
 5272POPC   NC368183  31.364  10.315   5.138
 5272POPC   PO468184  31.328  10.933   5.422
 5272POPC   GL168185  31.427  10.585   5.731
 5272POPC   GL268186  31.743  10.426   5.639
 5272POPC   C1A68187  31.214  10.526   6.150
 5272POPC   D2A68188  31.236  10.785   6.508
 5272POPC   C3A68189  31.271  10.706   6.936
 5272POPC   C4A68190  31.342  10.514   7.352
 5272POPC   C1B68191  31.694  10.390   6.108
 5272POPC   C2B68192  31.490  10.308   6.552
 5272POPC   C3B68193  31.590  10.296   6.974
 5272POPC   C4B68194  31.651  10.101   7.401
 5273POPC   NC368195  35.515  40.693   5.338
 5273POPC   PO468196  34.966  40.839   5.219
 5273POPC   GL168197  35.130  40.884   5.661
 5273POPC   GL268198  34.983  41.183   5.827
 5273POPC   C1A68199  35.369  40.894   6.082
 5273POPC   D2A68200  35.336  40.916   6.557
 5273POPC   C3A68201  35.349  40.560   6.867
 5273POPC   C4A68202  35.657  40.524   7.192
 5273POPC   C1B68203  35.085  41.293   6.280
 5273POPC   C2B68204  34.873  41.125   6.662
 5273POPC   C3B68205  35.078  40.971   7.008
 5273POPC   C4B68206  35.534  41.011   7.074
 5274POPC   NC368207  12.135  13.866   5.361
 5274POPC   PO468208  12.457  13.251   5.397
 5274POPC   GL168209  12.200  13.517   5.752
 5274POPC   GL268210  11.972  13.849   5.821
 5274POPC   C1A68211  11.941  13.437   6.128
 5274POPC   D2A68212  12.101  13.465   6.554
 5274POPC   C3A68213  11.867  13.584   6.927
 5274POPC   C4A68214  12.030  13.441   7.326
 5274POPC   C1B68215  12.208  13.882   6.190
 5274POPC   C2B68216  12.051  13.984   6.582
 5274POPC   C3B68217  12.197  14.151   6.958
 5274POPC   C4B68218  12.240  13.906   7.295
 5275POPC   NC368219  14.822   5.900   5.321
 5275POPC   PO468220  15.476   5.683   5.243
 5275POPC   GL168221  15.392   5.748   5.688
 5275POPC   GL268222  15.028   5.814   5.795
 5275POPC   C1A68223  15.480   5.544   6.090
 5275POPC   D2A68224  15.294   5.463   6.506
 5275POPC   C3A68225  15.373   5.774   6.837
 5275POPC   C4A68226  15.201   5.827   7.254
 5275POPC   C1B68227  15.171   5.918   6.218
 5275POPC   C2B68228  15.175   6.215   6.561
 5275POPC   C3B68229  15.032   6.183   6.957
 5275POPC   C4B68230  14.812   6.138   7.365
 5276POPC   NC368231  33.991  26.208   5.456
 5276POPC   PO468232  34.341  25.573   5.427
 5276POPC   GL168233  34.089  25.589   5.837
 5276POPC   GL268234  33.798  25.823   5.818
 5276POPC   C1A68235  34.043  25.886   6.241
 5276POPC   D2A68236  33.803  26.042   6.584
 5276POPC   C3A68237  33.948  25.905   6.988
 5276POPC   C4A68238  34.034  26.211   7.271
 5276POPC   C1B68239  33.488  25.919   6.183
 5276POPC   C2B68240  33.358  25.791   6.627
 5276POPC   C3B68241  33.430  25.811   7.108
 5276POPC   C4B68242  33.370  26.019   7.523
 5277POPC   NC368243  24.009  34.616   5.140
 5277POPC   PO468244  24.686  34.535   5.323
 5277POPC   GL168245  24.653  34.635   5.744
 5277POPC   GL268246  24.576  34.303   5.859
 5277POPC   C1A68247  24.571  34.733   6.174
 5277POPC   D2A68248  24.652  34.563   6.586
 5277POPC   C3A68249  24.497  34.793   6.939
 5277POPC   C4A68250  24.566  34.820   7.366
 5277POPC   C1B68251  24.275  34.297   6.229
 5277POPC   C2B68252  24.330  34.061   6.631
 5277POPC   C3B68253  24.517  34.262   6.991
 5277POPC   C4B68254  24.182  34.482   7.191
 5278POPC   NC368255  22.386  38.961   5.448
 5278POPC   PO468256  21.753  39.061   5.173
 5278POPC   GL168257  21.970  39.242   5.628
 5278POPC   GL268258  22.066  38.941   5.846
 5278POPC   C1A68259  22.055  39.350   6.129
 5278POPC   D2A68260  22.022  39.092   6.567
 5278POPC   C3A68261  22.065  39.257   7.005
 5278POPC   C4A68262  22.062  39.637   7.218
 5278POPC   C1B68263  22.349  38.908   6.216
 5278POPC   C2B68264  22.487  38.837   6.671
 5278POPC   C3B68265  22.508  38.989   7.126
 5278POPC   C4B68266  22.568  38.806   7.560
 5279POPC   NC368267  14.553  34.000   5.436
 5279POPC   PO468268  14.825  33.420   5.364
 5279POPC   GL168269  14.681  33.620   5.772
 5279POPC   GL268270  14.312  33.695   5.810
 5279POPC   C1A68271  14.624  33.810   6.196
 5279POPC   D2A68272  14.556  33.648   6.608
 5279POPC   C3A68273  14.383  33.795   7.010
 5279POPC   C4A68274  14.602  33.697   7.397
 5279POPC   C1B68275  14.189  33.490   6.245
 5279POPC   C2B68276  14.095  33.435   6.721
 5279POPC   C3B68277  14.001  33.495   7.182
 5279POPC   C4B68278  14.052  33.717   7.619
 5280POPC   NC368279   2.616  19.081   5.642
 5280POPC   PO468280   2.766  19.633   5.220
 5280POPC   GL168281   3.021  19.444   5.623
 5280POPC   GL268282   3.083  19.087   5.815
 5280POPC   C1A68283   2.957  19.493   6.095
 5280POPC   D2A68284   2.894  19.492   6.506
 5280POPC   C3A68285   3.015  19.182   6.800
 5280POPC   C4A68286   2.808  19.186   7.204
 5280POPC   C1B68287   2.941  18.996   6.276
 5280POPC   C2B68288   2.580  19.056   6.570
 5280POPC   C3B68289   2.382  19.043   6.946
 5280POPC   C4B68290   2.468  18.776   7.261
 5281POPC   NC368291  12.850  13.717   5.421
 5281POPC   PO468292  13.195  13.252   5.702
 5281POPC   GL168293  12.904  13.529   5.927
 5281POPC   GL268294  12.694  13.851   5.887
 5281POPC   C1A68295  12.922  13.659   6.353
 5281POPC   D2A68296  13.118  13.500   6.720
 5281POPC   C3A68297  12.782  13.456   6.982
 5281POPC   C4A68298  12.555  13.284   7.341
 5281POPC   C1B68299  13.151  13.983   6.019
 5281POPC   C2B68300  13.292  14.011   6.473
 5281POPC   C3B68301  13.091  13.978   6.896
 5281POPC   C4B68302  12.763  13.869   7.255
 5282POPC   NC368303  13.615  40.220   5.367
 5282POPC   PO468304  14.122  40.414   5.371
 5282POPC   GL168305  13.942  40.223   5.812
 5282POPC   GL268306  13.660  39.956   5.834
 5282POPC   C1A68307  13.782  40.181   6.290
 5282POPC   D2A68308  13.623  40.387   6.707
 5282POPC   C3A68309  13.718  40.235   7.136
 5282POPC   C4A68310  13.554  40.305   7.573
 5282POPC   C1B68311  13.387  39.847   6.225
 5282POPC   C2B68312  13.335  39.956   6.696
 5282POPC   C3B68313  13.229  40.078   7.154
 5282POPC   C4B68314  13.126  39.988   7.607
 5283POPC   NC368315  39.302  33.244   5.373
 5283POPC   PO468316  38.855  32.682   5.448
 5283POPC   GL168317  39.087  32.693   5.851
 5283POPC   GL268318  39.421  32.843   5.834
 5283POPC   C1A68319  39.099  32.984   6.212
 5283POPC   D2A68320  38.862  33.005   6.584
 5283POPC   C3A68321  39.117  32.973   6.956
 5283POPC   C4A68322  39.094  33.098   7.364
 5283POPC   C1B68323  39.582  32.887   6.296
 5283POPC   C2B68324  39.529  33.131   6.675
 5283POPC   C3B68325  39.560  33.166   7.135
 5283POPC   C4B68326  39.474  32.767   7.393
 5284POPC   NC368327  27.655  22.465   5.281
 5284POPC   PO468328  27.316  21.879   5.444
 5284POPC   GL168329  27.491  21.961   5.856
 5284POPC   GL268330  27.723  22.230   5.767
 5284POPC   C1A68331  27.489  22.055   6.330
 5284POPC   D2A68332  27.410  22.368   6.627
 5284POPC   C3A68333  27.336  22.153   6.980
 5284POPC   C4A68334  27.554  21.808   7.058
 5284POPC   C1B68335  27.850  22.356   6.189
 5284POPC   C2B68336  27.905  22.214   6.619
 5284POPC   C3B68337  27.808  22.367   7.028
 5284POPC   C4B68338  28.003  22.495   7.459
 5285POPC   NC368339   5.786  12.521   5.472
 5285POPC   PO468340   5.627  13.120   5.228
 5285POPC   GL168341   5.891  13.041   5.763
 5285POPC   GL268342   6.069  12.685   5.882
 5285POPC   C1A68343   5.969  12.995   6.245
 5285POPC   D2A68344   6.166  13.057   6.659
 5285POPC   C3A68345   5.867  12.887   6.992
 5285POPC   C4A68346   5.484  12.682   7.204
 5285POPC   C1B68347   6.122  12.476   6.327
 5285POPC   C2B68348   6.097  12.399   6.786
 5285POPC   C3B68349   5.972  12.425   7.234
 5285POPC   C4B68350   6.187  12.444   7.644
 5286POPC   NC368351   1.019  21.961   5.091
 5286POPC   PO468352   1.516  22.217   5.423
 5286POPC   GL168353   1.220  21.995   5.762
 5286POPC   GL268354   1.176  22.235   6.024
 5286POPC   C1A68355   0.996  21.807   6.186
 5286POPC   D2A68356   1.152  22.146   6.534
 5286POPC   C3A68357   1.153  22.210   6.986
 5286POPC   C4A68358   0.987  22.511   7.283
 5286POPC   C1B68359   1.475  21.923   6.206
 5286POPC   C2B68360   1.747  21.858   6.509
 5286POPC   C3B68361   1.630  22.018   6.887
 5286POPC   C4B68362   1.486  21.934   7.286
 5287POPC   NC368363  37.157  32.614   4.947
 5287POPC   PO468364  36.836  32.146   5.335
 5287POPC   GL168365  36.936  32.183   5.768
 5287POPC   GL268366  36.730  32.426   5.841
 5287POPC   C1A68367  36.930  32.074   6.206
 5287POPC   D2A68368  36.725  32.058   6.607
 5287POPC   C3A68369  37.058  32.043   6.879
 5287POPC   C4A68370  37.124  31.789   7.207
 5287POPC   C1B68371  36.513  32.411   6.255
 5287POPC   C2B68372  36.608  32.562   6.649
 5287POPC   C3B68373  36.634  32.542   7.053
 5287POPC   C4B68374  36.991  32.424   7.207
 5288POPC   NC368375  14.630  23.046   5.181
 5288POPC   PO468376  14.069  22.815   5.535
 5288POPC   GL168377  14.131  22.899   5.944
 5288POPC   GL268378  14.485  22.969   5.982
 5288POPC   C1A68379  14.167  22.805   6.381
 5288POPC   D2A68380  14.536  22.906   6.602
 5288POPC   C3A68381  14.402  23.055   7.000
 5288POPC   C4A68382  14.159  22.978   7.394
 5288POPC   C1B68383  14.727  23.221   6.226
 5288POPC   C2B68384  14.754  23.392   6.633
 5288POPC   C3B68385  14.829  23.304   7.095
 5288POPC   C4B68386  14.681  23.015   7.463
 5289POPC   NC368387  16.489  40.260   5.416
 5289POPC   PO468388  17.133  39.996   5.460
 5289POPC   GL168389  16.844  40.209   5.776
 5289POPC   GL268390  16.558  40.014   5.885
 5289POPC   C1A68391  16.887  40.312   6.199
 5289POPC   D2A68392  16.807  40.043   6.541
 5289POPC   C3A68393  16.785  40.235   6.933
 5289POPC   C4A68394  16.917  40.169   7.350
 5289POPC   C1B68395  16.313  40.042   6.291
 5289POPC   C2B68396  16.350  39.989   6.770
 5289POPC   C3B68397  16.514  39.860   7.197
 5289POPC   C4B68398  16.532  40.007   7.631
 5290POPC   NC368399   2.965  40.369   5.354
 5290POPC   PO468400   3.055  39.697   5.218
 5290POPC   GL168401   2.880  39.765   5.669
 5290POPC   GL268402   2.964  40.049   5.789
 5290POPC   C1A68403   2.951  39.642   6.158
 5290POPC   D2A68404   2.834  39.466   6.617
 5290POPC   C3A68405   2.815  39.780   6.973
 5290POPC   C4A68406   2.954  40.143   7.220
 5290POPC   C1B68407   3.117  40.136   6.234
 5290POPC   C2B68408   2.963  40.179   6.664
 5290POPC   C3B68409   2.676  40.427   6.904
 5290POPC   C4B68410   2.927  40.701   7.152
 5291POPC   NC368411  36.464  32.413   5.395
 5291POPC   PO468412  35.877  32.650   5.491
 5291POPC   GL168413  35.896  32.366   5.811
 5291POPC   GL268414  36.222  32.494   5.849
 5291POPC   C1A68415  36.030  32.163   6.212
 5291POPC   D2A68416  35.985  31.953   6.625
 5291POPC   C3A68417  36.068  32.140   7.017
 5291POPC   C4A68418  35.886  32.019   7.440
 5291POPC   C1B68419  36.027  32.685   6.206
 5291POPC   C2B68420  36.070  32.504   6.606
 5291POPC   C3B68421  36.135  32.659   6.999
 5291POPC   C4B68422  36.184  32.450   7.400
 5292POPC   NC368423  18.297  38.717   5.124
 5292POPC   PO468424  18.267  38.409   5.704
 5292POPC   GL168425  18.371  38.554   6.007
 5292POPC   GL268426  18.524  38.857   5.891
 5292POPC   C1A68427  18.291  38.276   6.328
 5292POPC   D2A68428  17.962  38.226   6.620
 5292POPC   C3A68429  18.173  38.308   6.975
 5292POPC   C4A68430  18.606  38.258   7.112
 5292POPC   C1B68431  18.247  38.952   6.262
 5292POPC   C2B68432  18.277  38.685   6.617
 5292POPC   C3B68433  18.459  38.747   7.002
 5292POPC   C4B68434  18.158  39.020   7.162
 5293POPC   NC368435  38.431  29.020   5.491
 5293POPC   PO468436  39.114  29.162   5.538
 5293POPC   GL168437  38.769  29.180   5.843
 5293POPC   GL268438  38.489  29.440   5.815
 5293POPC   C1A68439  38.551  28.914   6.149
 5293POPC   D2A68440  38.230  28.989   6.445
 5293POPC   C3A68441  38.292  29.085   6.840
 5293POPC   C4A68442  38.533  28.929   7.151
 5293POPC   C1B68443  38.581  29.430   6.279
 5293POPC   C2B68444  38.577  29.530   6.727
 5293POPC   C3B68445  38.487  29.452   7.141
 5293POPC   C4B68446  38.847  29.321   7.306
 5294POPC   NC368447  18.096  40.425   5.544
 5294POPC   PO468448  18.492  40.917   5.365
 5294POPC   GL168449  18.289  40.875   5.785
 5294POPC   GL268450  17.986  40.709   5.934
 5294POPC   C1A68451  18.344  40.902   6.246
 5294POPC   D2A68452  18.527  40.708   6.587
 5294POPC   C3A68453  18.385  40.858   6.968
 5294POPC   C4A68454  18.589  40.781   7.312
 5294POPC   C1B68455  18.094  40.463   6.311
 5294POPC   C2B68456  18.083  40.464   6.775
 5294POPC   C3B68457  17.967  40.608   7.175
 5294POPC   C4B68458  18.127  40.862   7.491
 5295POPC   NC368459  12.860  44.246   5.311
 5295POPC   PO468460  13.060  43.639   5.396
 5295POPC   GL168461  13.056  43.741   5.859
 5295POPC   GL268462  13.067  44.089   5.890
 5295POPC   C1A68463  12.852  43.822   6.301
 5295POPC   D2A68464  12.559  44.030   6.597
 5295POPC   C3A68465  12.592  43.997   7.028
 5295POPC   C4A68466  12.972  44.074   7.266
 5295POPC   C1B68467  13.282  44.244   6.246
 5295POPC   C2B68468  13.093  44.186   6.621
 5295POPC   C3B68469  13.074  43.798   6.835
 5295POPC   C4B68470  13.307  43.717   7.230
 5296POPC   NC368471   9.144  35.231   5.208
 5296POPC   PO468472   8.501  35.463   5.254
 5296POPC   GL168473   8.783  35.417   5.637
 5296POPC   GL268474   9.091  35.202   5.719
 5296POPC   C1A68475   8.765  35.505   6.082
 5296POPC   D2A68476   9.010  35.663   6.418
 5296POPC   C3A68477   8.905  35.624   6.830
 5296POPC   C4A68478   8.800  35.462   7.221
 5296POPC   C1B68479   9.156  35.191   6.173
 5296POPC   C2B68480   9.324  35.276   6.568
 5296POPC   C3B68481   9.207  35.217   6.975
 5296POPC   C4B68482   9.414  34.967   7.250
 5297POPC   NC368483  27.548  16.172   5.344
 5297POPC   PO468484  28.007  15.679   5.448
 5297POPC   GL168485  27.805  15.995   5.766
 5297POPC   GL268486  27.423  16.024   5.834
 5297POPC   C1A68487  27.734  16.242   6.177
 5297POPC   D2A68488  27.586  16.082   6.596
 5297POPC   C3A68489  27.524  16.192   7.014
 5297POPC   C4A68490  27.910  16.163   7.234
 5297POPC   C1B68491  27.481  15.763   6.210
 5297POPC   C2B68492  27.412  15.548   6.626
 5297POPC   C3B68493  27.509  15.660   7.053
 5297POPC   C4B68494  27.677  15.775   7.448
 5298POPC   NC368495  43.733   0.620   5.151
 5298POPC   PO468496  43.629   0.093   5.536
 5298POPC   GL168497  43.922   0.248   5.808
 5298POPC   GL268498  43.900   0.601   5.699
 5298POPC   C1A68499  43.832   0.204   6.247
 5298POPC   D2A68500  43.707   0.417   6.608
 5298POPC   C3A68501  43.781   0.271   7.033
 5298POPC   C4A68502  43.867   0.523   7.390
 5298POPC   C1B68503  43.867   0.752   6.123
 5298POPC   C2B68504  44.027   0.852   6.522
 5298POPC   C3B68505  44.038   0.740   6.942
 5298POPC   C4B68506  44.228   0.878   7.312
 5299POPC   NC368507  16.752  19.146   4.927
 5299POPC   PO468508  16.966  18.811   5.461
 5299POPC   GL168509  16.833  19.010   5.838
 5299POPC   GL268510  16.480  18.903   5.915
 5299POPC   C1A68511  16.667  19.323   6.158
 5299POPC   D2A68512  16.743  19.569   6.531
 5299POPC   C3A68513  16.782  19.423   6.900
 5299POPC   C4A68514  16.626  19.239   7.218
 5299POPC   C1B68515  16.715  18.828   6.312
 5299POPC   C2B68516  16.885  18.938   6.710
 5299POPC   C3B68517  16.775  18.773   7.128
 5299POPC   C4B68518  16.788  18.927   7.573
 5300POPC   NC368519  36.969  21.724   5.304
 5300POPC   PO468520  36.457  22.247   5.407
 5300POPC   GL168521  36.715  22.253   5.827
 5300POPC   GL268522  36.938  21.945   5.848
 5300POPC   C1A68523  36.678  22.110   6.301
 5300POPC   D2A68524  36.688  22.305   6.723
 5300POPC   C3A68525  36.868  22.166   7.129
 5300POPC   C4A68526  36.783  22.212   7.588
 5300POPC   C1B68527  37.148  22.183   6.205
 5300POPC   C2B68528  37.178  22.333   6.598
 5300POPC   C3B68529  37.364  22.146   6.942
 5300POPC   C4B68530  37.291  21.861   7.253
 5301POPC   NC368531  37.711  28.021   5.446
 5301POPC   PO468532  37.687  27.363   5.633
 5301POPC   GL168533  37.923  27.455   5.938
 5301POPC   GL268534  37.924  27.813   5.881
 5301POPC   C1A68535  37.888  27.563   6.361
 5301POPC   D2A68536  37.661  27.902   6.563
 5301POPC   C3A68537  37.484  27.706   6.899
 5301POPC   C4A68538  37.715  27.373   7.124
 5301POPC   C1B68539  38.236  27.900   6.167
 5301POPC   C2B68540  38.292  28.048   6.583
 5301POPC   C3B68541  38.216  27.974   7.006
 5301POPC   C4B68542  37.854  27.849   7.211
 5302POPC   NC368543  34.115  27.180   5.675
 5302POPC   PO468544  33.955  26.645   5.300
 5302POPC   GL168545  34.018  26.677   5.750
 5302POPC   GL268546  34.050  26.366   5.916
 5302POPC   C1A68547  34.041  26.781   6.206
 5302POPC   D2A68548  34.077  26.642   6.640
 5302POPC   C3A68549  33.802  26.911   6.911
 5302POPC   C4A68550  33.641  26.994   7.322
 5302POPC   C1B68551  33.706  26.383   6.167
 5302POPC   C2B68552  33.563  26.533   6.561
 5302POPC   C3B68553  33.684  26.399   6.958
 5302POPC   C4B68554  33.536  26.472   7.367
 5303POPC   NC368555  12.776  21.102   5.304
 5303POPC   PO468556  13.167  21.688   5.245
 5303POPC   GL168557  12.911  21.496   5.626
 5303POPC   GL268558  12.973  21.641   5.952
 5303POPC   C1A68559  12.654  21.246   5.994
 5303POPC   D2A68560  12.617  21.236   6.492
 5303POPC   C3A68561  12.802  21.166   6.968
 5303POPC   C4A68562  12.844  20.993   7.441
 5303POPC   C1B68563  12.629  21.737   6.224
 5303POPC   C2B68564  12.665  21.867   6.639
 5303POPC   C3B68565  12.932  21.673   6.945
 5303POPC   C4B68566  12.986  21.462   7.339
 5304POPC   NC368567  26.300  17.664   5.415
 5304POPC   PO468568  25.961  18.306   5.524
 5304POPC   GL168569  26.220  18.247   5.868
 5304POPC   GL268570  26.157  17.879   5.870
 5304POPC   C1A68571  26.168  18.262   6.317
 5304POPC   D2A68572  25.776  18.141   6.563
 5304POPC   C3A68573  25.900  18.197   6.990
 5304POPC   C4A68574  26.314  18.462   7.069
 5304POPC   C1B68575  26.069  17.767   6.294
 5304POPC   C2B68576  26.215  17.905   6.707
 5304POPC   C3B68577  26.128  17.722   7.097
 5304POPC   C4B68578  26.276  17.699   7.530
 5305POPC   NC368579   4.228  10.676   5.137
 5305POPC   PO468580   4.769  10.277   5.437
 5305POPC   GL168581   4.392  10.315   5.673
 5305POPC   GL268582   4.315  10.665   5.696
 5305POPC   C1A68583   4.260  10.279   6.124
 5305POPC   D2A68584   4.132  10.382   6.547
 5305POPC   C3A68585   4.265  10.222   6.967
 5305POPC   C4A68586   4.154  10.345   7.375
 5305POPC   C1B68587   4.138  10.797   6.093
 5305POPC   C2B68588   4.216  10.893   6.526
 5305POPC   C3B68589   4.157  10.727   6.923
 5305POPC   C4B68590   3.899  10.772   7.263
 5306POPC   NC368591  36.404   2.700   5.563
 5306POPC   PO468592  37.025   2.631   5.260
 5306POPC   GL168593  36.922   2.780   5.728
 5306POPC   GL268594  36.626   2.878   5.958
 5306POPC   C1A68595  37.043   2.717   6.202
 5306POPC   D2A68596  37.090   2.380   6.555
 5306POPC   C3A68597  37.068   2.609   6.975
 5306POPC   C4A68598  37.035   2.785   7.393
 5306POPC   C1B68599  36.679   3.071   6.328
 5306POPC   C2B68600  36.798   2.972   6.738
 5306POPC   C3B68601  36.642   3.002   7.164
 5306POPC   C4B68602  36.690   3.090   7.655
 5307POPC   NC368603  37.024  39.066   5.350
 5307POPC   PO468604  36.457  38.818   5.529
 5307POPC   GL168605  36.491  39.024   5.914
 5307POPC   GL268606  36.703  39.273   5.836
 5307POPC   C1A68607  36.801  39.018   6.254
 5307POPC   D2A68608  36.886  38.798   6.617
 5307POPC   C3A68609  37.039  39.030   6.946
 5307POPC   C4A68610  36.938  39.281   7.297
 5307POPC   C1B68611  36.948  39.517   6.147
 5307POPC   C2B68612  36.989  39.418   6.583
 5307POPC   C3B68613  36.741  39.576   6.919
 5307POPC   C4B68614  36.494  39.530   7.294
 5308POPC   NC368615   3.834   9.834   5.395
 5308POPC   PO468616   3.123   9.701   5.316
 5308POPC   GL168617   3.415   9.591   5.681
 5308POPC   GL268618   3.658   9.349   5.562
 5308POPC   C1A68619   3.538   9.821   6.094
 5308POPC   D2A68620   3.718  10.029   6.483
 5308POPC   C3A68621   3.675   9.918   6.938
 5308POPC   C4A68622   3.859   9.927   7.360
 5308POPC   C1B68623   3.664   9.316   6.041
 5308POPC   C2B68624   3.524   9.446   6.464
 5308POPC   C3B68625   3.727   9.418   6.845
 5308POPC   C4B68626   3.793   9.442   7.282
 5309POPC   NC368627  14.811  43.262   5.458
 5309POPC   PO468628  15.463  43.170   5.563
 5309POPC   GL168629  15.132  43.183   5.846
 5309POPC   GL268630  14.928  42.917   5.838
 5309POPC   C1A68631  15.025  43.236   6.274
 5309POPC   D2A68632  15.311  43.122   6.585
 5309POPC   C3A68633  15.221  43.288   6.980
 5309POPC   C4A68634  15.189  43.041   7.366
 5309POPC   C1B68635  14.739  42.810   6.219
 5309POPC   C2B68636  14.839  42.885   6.636
 5309POPC   C3B68637  14.898  42.773   7.064
 5309POPC   C4B68638  14.698  42.927   7.454
 5310POPC   NC368639  38.994  43.702   5.535
 5310POPC   PO468640  39.646  43.997   5.463
 5310POPC   GL168641  39.459  43.793   5.854
 5310POPC   GL268642  39.106  43.835   6.027
 5310POPC   C1A68643  39.426  43.502   6.232
 5310POPC   D2A68644  39.137  43.631   6.577
 5310POPC   C3A68645  39.254  43.805   6.972
 5310POPC   C4A68646  39.086  43.910   7.357
 5310POPC   C1B68647  39.433  44.020   6.349
 5310POPC   C2B68648  39.507  44.224   6.781
 5310POPC   C3B68649  39.535  44.158   7.256
 5310POPC   C4B68650  39.543  44.244   7.743
 5311POPC   NC368651  35.181  23.867   5.367
 5311POPC   PO468652  35.738  23.729   5.506
 5311POPC   GL168653  35.431  23.899   5.833
 5311POPC   GL268654  35.111  23.704   5.843
 5311POPC   C1A68655  35.266  23.893   6.286
 5311POPC   D2A68656  35.297  23.978   6.734
 5311POPC   C3A68657  35.433  23.667   7.026
 5311POPC   C4A68658  35.689  23.311   7.189
 5311POPC   C1B68659  35.018  23.455   6.232
 5311POPC   C2B68660  35.098  23.456   6.670
 5311POPC   C3B68661  34.868  23.582   7.024
 5311POPC   C4B68662  34.990  23.370   7.385
 5312POPC   NC368663  37.258  25.130   5.300
 5312POPC   PO468664  37.825  25.293   5.502
 5312POPC   GL168665  37.475  25.251   5.765
 5312POPC   GL268666  37.467  25.603   5.791
 5312POPC   C1A68667  37.402  25.157   6.211
 5312POPC   D2A68668  37.718  25.043   6.546
 5312POPC   C3A68669  37.564  25.011   6.973
 5312POPC   C4A68670  37.782  25.144   7.349
 5312POPC   C1B68671  37.778  25.479   6.139
 5312POPC   C2B68672  37.822  25.584   6.557
 5312POPC   C3B68673  37.825  25.469   6.973
 5312POPC   C4B68674  37.998  25.604   7.383
 5313POPC   NC368675  15.979  29.312   5.397
 5313POPC   PO468676  15.647  28.746   5.529
 5313POPC   GL168677  15.862  29.053   5.853
 5313POPC   GL268678  15.779  29.422   5.892
 5313POPC   C1A68679  16.200  29.301   6.148
 5313POPC   D2A68680  16.436  29.255   6.559
 5313POPC   C3A68681  16.157  29.229   6.909
 5313POPC   C4A68682  15.965  28.952   7.162
 5313POPC   C1B68683  15.735  29.232   6.319
 5313POPC   C2B68684  15.669  29.135   6.747
 5313POPC   C3B68685  15.704  29.421   7.090
 5313POPC   C4B68686  15.661  29.373   7.558
 5314POPC   NC368687  39.793  40.289   5.001
 5314POPC   PO468688  40.036  40.855   5.295
 5314POPC   GL168689  40.086  40.905   5.784
 5314POPC   GL268690  40.321  40.654   5.934
 5314POPC   C1A68691  40.114  40.940   6.274
 5314POPC   D2A68692  40.149  40.776   6.713
 5314POPC   C3A68693  39.980  41.010   7.044
 5314POPC   C4A68694  39.855  40.865   7.455
 5314POPC   C1B68695  39.987  40.444   6.240
 5314POPC   C2B68696  39.843  40.353   6.678
 5314POPC   C3B68697  39.916  40.456   7.120
 5314POPC   C4B68698  40.076  40.422   7.569
 5315POPC   NC368699  27.859  36.295   5.493
 5315POPC   PO468700  27.517  35.754   5.349
 5315POPC   GL168701  27.537  35.971   5.768
 5315POPC   GL268702  27.397  36.275   5.792
 5315POPC   C1A68703  27.761  35.987   6.189
 5315POPC   D2A68704  27.926  36.049   6.618
 5315POPC   C3A68705  27.773  35.849   7.000
 5315POPC   C4A68706  27.381  36.014   7.190
 5315POPC   C1B68707  27.503  36.426   6.182
 5315POPC   C2B68708  27.457  36.241   6.565
 5315POPC   C3B68709  27.469  36.453   6.923
 5315POPC   C4B68710  27.543  36.693   7.293
 5316POPC   NC368711  28.346  25.749   5.458
 5316POPC   PO468712  28.021  25.143   5.558
 5316POPC   GL168713  28.344  25.250   5.875
 5316POPC   GL268714  28.558  25.541   5.878
 5316POPC   C1A68715  28.389  25.036   6.274
 5316POPC   D2A68716  28.378  24.764   6.643
 5316POPC   C3A68717  28.318  24.953   7.050
 5316POPC   C4A68718  28.212  25.174   7.433
 5316POPC   C1B68719  28.608  25.518   6.314
 5316POPC   C2B68720  28.575  25.286   6.693
 5316POPC   C3B68721  28.656  25.312   7.114
 5316POPC   C4B68722  28.683  25.634   7.398
 5317POPC   NC368723  42.493  26.536   5.448
 5317POPC   PO468724  42.119  27.080   5.337
 5317POPC   GL168725  42.368  27.079   5.745
 5317POPC   GL268726  42.097  27.237   5.925
 5317POPC   C1A68727  42.463  26.794   6.135
 5317POPC   D2A68728  42.144  26.554   6.430
 5317POPC   C3A68729  42.229  26.482   6.901
 5317POPC   C4A68730  42.242  26.773   7.256
 5317POPC   C1B68731  42.105  27.065   6.367
 5317POPC   C2B68732  42.448  26.938   6.658
 5317POPC   C3B68733  42.465  27.182   7.026
 5317POPC   C4B68734  42.150  27.441   7.200
 5318POPC   NC368735  43.371  25.541   5.518
 5318POPC   PO468736  43.083  24.920   5.458
 5318POPC   GL168737  43.214  25.053   5.892
 5318POPC   GL268738  43.136  25.416   5.955
 5318POPC   C1A68739  43.202  25.118   6.360
 5318POPC   D2A68740  43.153  25.537   6.597
 5318POPC   C3A68741  42.815  25.550   6.892
 5318POPC   C4A68742  42.774  25.282   7.246
 5318POPC   C1B68743  43.311  25.799   6.148
 5318POPC   C2B68744  43.490  25.939   6.542
 5318POPC   C3B68745  43.563  25.734   6.925
 5318POPC   C4B68746  43.248  25.564   7.205
 5319POPC   NC368747  22.213  25.989   5.353
 5319POPC   PO468748  22.770  26.079   5.440
 5319POPC   GL168749  22.482  25.949   5.807
 5319POPC   GL268750  22.093  25.963   5.832
 5319POPC   C1A68751  22.358  25.859   6.256
 5319POPC   D2A68752  22.373  25.965   6.703
 5319POPC   C3A68753  22.422  25.960   7.163
 5319POPC   C4A68754  22.275  26.346   7.423
 5319POPC   C1B68755  21.962  26.209   6.180
 5319POPC   C2B68756  21.860  26.191   6.623
 5319POPC   C3B68757  21.949  25.992   7.011
 5319POPC   C4B68758  21.995  25.547   7.162
 5320POPC   NC368759   5.026  23.980   5.548
 5320POPC   PO468760   4.932  23.318   5.463
 5320POPC   GL168761   5.165  23.561   5.779
 5320POPC   GL268762   4.812  23.665   5.876
 5320POPC   C1A68763   5.228  23.774   6.199
 5320POPC   D2A68764   5.097  23.723   6.657
 5320POPC   C3A68765   5.243  23.742   7.092
 5320POPC   C4A68766   5.371  23.423   7.373
 5320POPC   C1B68767   4.730  23.745   6.295
 5320POPC   C2B68768   4.594  24.000   6.603
 5320POPC   C3B68769   4.700  23.836   6.988
 5320POPC   C4B68770   4.801  23.627   7.356
 5321POPC   NC368771   0.120  21.220   5.593
 5321POPC   PO468772  44.498  21.342   5.361
 5321POPC   GL168773  44.657  21.449   5.775
 5321POPC   GL268774  44.561  21.142   5.917
 5321POPC   C1A68775  44.859  21.467   6.218
 5321POPC   D2A68776  44.768  21.659   6.655
 5321POPC   C3A68777  44.824  21.392   7.040
 5321POPC   C4A68778  44.633  21.397   7.486
 5321POPC   C1B68779  44.277  21.008   6.248
 5321POPC   C2B68780  44.407  21.034   6.662
 5321POPC   C3B68781  44.371  21.157   7.087
 5321POPC   C4B68782  44.183  21.165   7.498
 5322POPC   NC368783  10.106  35.278   5.478
 5322POPC   PO468784   9.500  35.508   5.272
 5322POPC   GL168785   9.629  35.300   5.707
 5322POPC   GL268786   9.842  35.560   5.848
 5322POPC   C1A68787   9.703  35.228   6.190
 5322POPC   D2A68788   9.840  35.429   6.591
 5322POPC   C3A68789   9.981  35.097   6.862
 5322POPC   C4A68790   9.911  34.934   7.293
 5322POPC   C1B68791   9.463  35.666   6.165
 5322POPC   C2B68792   9.440  35.788   6.644
 5322POPC   C3B68793   9.322  35.747   7.100
 5322POPC   C4B68794   9.294  35.453   7.434
 5323POPC   NC368795  32.941  36.807   5.404
 5323POPC   PO468796  32.720  37.324   5.762
 5323POPC   GL168797  33.088  36.990   5.860
 5323POPC   GL268798  32.896  36.681   5.914
 5323POPC   C1A68799  33.328  36.655   6.169
 5323POPC   D2A68800  33.371  36.708   6.601
 5323POPC   C3A68801  33.250  37.098   6.793
 5323POPC   C4A68802  32.889  37.229   7.051
 5323POPC   C1B68803  32.931  36.920   6.345
 5323POPC   C2B68804  32.849  36.764   6.750
 5323POPC   C3B68805  32.786  36.647   7.174
 5323POPC   C4B68806  32.679  36.984   7.464
 5324POPC   NC368807   7.819  39.115   5.064
 5324POPC   PO468808   8.284  39.188   5.509
 5324POPC   GL168809   8.243  39.221   5.893
 5324POPC   GL268810   8.004  39.029   6.033
 5324POPC   C1A68811   8.406  39.215   6.273
 5324POPC   D2A68812   8.371  38.958   6.640
 5324POPC   C3A68813   8.403  39.282   6.940
 5324POPC   C4A68814   8.233  39.394   7.324
 5324POPC   C1B68815   7.771  39.300   6.261
 5324POPC   C2B68816   7.670  39.291   6.674
 5324POPC   C3B68817   7.896  39.133   6.997
 5324POPC   C4B68818   7.793  39.126   7.415
 5325POPC   NC368819  17.565   9.885   5.439
 5325POPC   PO468820  17.419   9.350   5.162
 5325POPC   GL168821  17.443   9.455   5.704
 5325POPC   GL268822  17.289   9.790   5.879
 5325POPC   C1A68823  17.670   9.592   6.133
 5325POPC   D2A68824  17.471   9.724   6.527
 5325POPC   C3A68825  17.592   9.737   6.938
 5325POPC   C4A68826  17.790   9.376   7.087
 5325POPC   C1B68827  17.074   9.924   6.286
 5325POPC   C2B68828  17.143  10.052   6.719
 5325POPC   C3B68829  17.127   9.827   7.151
 5325POPC   C4B68830  17.162  10.017   7.600
 5326POPC   NC368831  28.398  16.463   5.347
 5326POPC   PO468832  27.926  16.988   5.450
 5326POPC   GL168833  28.203  16.795   5.777
 5326POPC   GL268834  28.506  16.963   5.863
 5326POPC   C1A68835  28.228  16.466   6.107
 5326POPC   D2A68836  28.360  16.359   6.561
 5326POPC   C3A68837  28.116  16.542   6.894
 5326POPC   C4A68838  28.238  16.606   7.301
 5326POPC   C1B68839  28.380  16.953   6.268
 5326POPC   C2B68840  28.587  17.108   6.613
 5326POPC   C3B68841  28.506  16.913   6.981
 5326POPC   C4B68842  28.438  17.080   7.377
 5327POPC   NC368843   6.761  39.437   5.556
 5327POPC   PO468844   6.465  38.894   5.449
 5327POPC   GL168845   6.552  39.046   5.842
 5327POPC   GL268846   6.831  38.831   5.902
 5327POPC   C1A68847   6.694  39.282   6.232
 5327POPC   D2A68848   6.680  39.594   6.578
 5327POPC   C3A68849   6.685  39.416   6.988
 5327POPC   C4A68850   6.371  39.171   7.169
 5327POPC   C1B68851   6.559  38.768   6.282
 5327POPC   C2B68852   6.611  38.975   6.709
 5327POPC   C3B68853   6.779  38.884   7.139
 5327POPC   C4B68854   6.523  38.836   7.555
 5328POPC   NC368855   4.553  39.060   5.408
 5328POPC   PO468856   3.943  39.380   5.227
 5328POPC   GL168857   4.190  39.350   5.696
 5328POPC   GL268858   4.382  39.101   5.877
 5328POPC   C1A68859   4.369  39.505   6.151
 5328POPC   D2A68860   4.473  39.344   6.557
 5328POPC   C3A68861   4.114  39.177   6.764
 5328POPC   C4A68862   4.025  39.178   7.205
 5328POPC   C1B68863   4.282  38.957   6.276
 5328POPC   C2B68864   4.514  38.834   6.637
 5328POPC   C3B68865   4.494  39.003   7.051
 5328POPC   C4B68866   4.328  38.774   7.382
 5329POPC   NC368867  44.686  24.479   5.371
 5329POPC   PO468868   0.078  24.881   5.739
 5329POPC   GL168869  44.755  24.595   5.903
 5329POPC   GL268870  44.897  24.267   5.826
 5329POPC   C1A68871  44.424  24.535   6.253
 5329POPC   D2A68872  44.110  24.522   6.626
 5329POPC   C3A68873  44.377  24.527   7.020
 5329POPC   C4A68874  44.785  24.480   7.172
 5329POPC   C1B68875   0.045  24.329   6.238
 5329POPC   C2B68876  44.903  24.333   6.653
 5329POPC   C3B68877   0.110  24.152   6.983
 5329POPC   C4B68878  44.989  23.982   7.340
 5330POPC   NC368879   0.946  42.318   5.368
 5330POPC   PO468880   1.406  42.727   5.133
 5330POPC   GL168881   1.351  42.519   5.662
 5330POPC   GL268882   1.543  42.206   5.779
 5330POPC   C1A68883   1.205  42.388   6.096
 5330POPC   D2A68884   1.398  42.447   6.498
 5330POPC   C3A68885   1.116  42.459   6.850
 5330POPC   C4A68886   0.928  42.531   7.255
 5330POPC   C1B68887   1.668  42.129   6.164
 5330POPC   C2B68888   1.773  42.109   6.573
 5330POPC   C3B68889   1.500  42.060   6.866
 5330POPC   C4B68890   1.238  42.122   7.218
 5331POPC   NC368891  21.726  33.947   5.595
 5331POPC   PO468892  21.053  34.068   5.517
 5331POPC   GL168893  21.277  33.898   5.835
 5331POPC   GL268894  21.374  33.554   5.721
 5331POPC   C1A68895  21.411  33.973   6.234
 5331POPC   D2A68896  21.227  33.843   6.584
 5331POPC   C3A68897  21.519  33.970   6.850
 5331POPC   C4A68898  21.394  33.935   7.224
 5331POPC   C1B68899  21.420  33.462   6.187
 5331POPC   C2B68900  21.645  33.532   6.575
 5331POPC   C3B68901  21.502  33.482   6.996
 5331POPC   C4B68902  21.498  33.514   7.473
 5332POPC   NC368903  40.386  23.893   5.457
 5332POPC   PO468904  41.110  23.742   5.426
 5332POPC   GL168905  40.821  23.791   5.777
 5332POPC   GL268906  40.568  23.540   5.824
 5332POPC   C1A68907  40.731  23.881   6.215
 5332POPC   D2A68908  40.564  23.994   6.629
 5332POPC   C3A68909  40.762  23.789   7.033
 5332POPC   C4A68910  40.966  23.788   7.459
 5332POPC   C1B68911  40.764  23.364   6.164
 5332POPC   C2B68912  40.681  23.490   6.582
 5332POPC   C3B68913  40.677  23.272   6.953
 5332POPC   C4B68914  40.703  23.330   7.374
 5333POPC   NC368915  22.491   7.956   5.564
 5333POPC   PO468916  23.056   8.322   5.521
 5333POPC   GL168917  22.968   8.085   5.847
 5333POPC   GL268918  22.677   8.274   5.903
 5333POPC   C1A68919  23.084   8.188   6.281
 5333POPC   D2A68920  23.164   8.540   6.545
 5333POPC   C3A68921  23.213   8.401   6.978
 5333POPC   C4A68922  23.299   8.564   7.391
 5333POPC   C1B68923  22.627   7.963   6.232
 5333POPC   C2B68924  22.656   8.168   6.635
 5333POPC   C3B68925  22.826   8.054   7.027
 5333POPC   C4B68926  22.818   7.847   7.453
 5334POPC   NC368927  17.752  41.262   5.380
 5334POPC   PO468928  17.095  41.466   5.275
 5334POPC   GL168929  17.367  41.432   5.700
 5334POPC   GL268930  17.500  41.763   5.828
 5334POPC   C1A68931  17.486  41.388   6.184
 5334POPC   D2A68932  17.383  41.526   6.627
 5334POPC   C3A68933  17.611  41.467   7.057
 5334POPC   C4A68934  17.717  41.709   7.418
 5334POPC   C1B68935  17.617  41.880   6.269
 5334POPC   C2B68936  17.466  42.051   6.658
 5334POPC   C3B68937  17.382  41.929   7.067
 5334POPC   C4B68938  17.184  41.825   7.471
 5335POPC   NC368939  34.869  27.508   5.558
 5335POPC   PO468940  34.128  27.618   5.445
 5335POPC   GL168941  34.348  27.754   5.846
 5335POPC   GL268942  34.151  27.579   6.055
 5335POPC   C1A68943  34.520  27.841   6.276
 5335POPC   D2A68944  34.448  27.616   6.675
 5335POPC   C3A68945  34.763  27.491   6.971
 5335POPC   C4A68946  34.712  27.710   7.342
 5335POPC   C1B68947  34.190  27.266   6.357
 5335POPC   C2B68948  34.218  27.142   6.732
 5335POPC   C3B68949  34.291  27.338   7.095
 5335POPC   C4B68950  34.212  27.594   7.398
 5336POPC   NC368951  24.537  15.514   5.412
 5336POPC   PO468952  24.184  14.865   5.473
 5336POPC   GL168953  24.428  15.130   5.754
 5336POPC   GL268954  24.261  15.448   5.839
 5336POPC   C1A68955  24.552  15.205   6.190
 5336POPC   D2A68956  24.696  15.255   6.614
 5336POPC   C3A68957  24.456  15.018   6.903
 5336POPC   C4A68958  24.684  14.916   7.287
 5336POPC   C1B68959  24.238  15.619   6.234
 5336POPC   C2B68960  24.177  15.410   6.630
 5336POPC   C3B68961  24.105  15.512   7.080
 5336POPC   C4B68962  24.108  15.520   7.534
 5337POPC   NC368963  33.397  31.410   5.402
 5337POPC   PO468964  32.774  31.247   5.448
 5337POPC   GL168965  32.993  31.272   5.833
 5337POPC   GL268966  33.273  31.071   5.798
 5337POPC   C1A68967  32.907  31.419   6.272
 5337POPC   D2A68968  32.761  31.460   6.712
 5337POPC   C3A68969  32.891  31.464   7.161
 5337POPC   C4A68970  32.724  31.731   7.515
 5337POPC   C1B68971  33.299  31.110   6.234
 5337POPC   C2B68972  33.292  31.335   6.628
 5337POPC   C3B68973  33.258  31.095   6.988
 5337POPC   C4B68974  33.352  31.183   7.418
 5338POPC   NC368975  30.285  36.654   5.442
 5338POPC   PO468976  29.845  37.062   5.322
 5338POPC   GL168977  29.925  36.966   5.728
 5338POPC   GL268978  29.950  36.613   5.807
 5338POPC   C1A68979  29.808  37.102   6.123
 5338POPC   D2A68980  29.960  37.015   6.524
 5338POPC   C3A68981  29.716  37.001   6.900
 5338POPC   C4A68982  29.667  37.223   7.300
 5338POPC   C1B68983  29.824  36.572   6.197
 5338POPC   C2B68984  30.035  36.498   6.549
 5338POPC   C3B68985  29.888  36.528   6.945
 5338POPC   C4B68986  29.929  36.771   7.309
 5339POPC   NC368987  30.277  14.474   5.398
 5339POPC   PO468988  29.690  14.293   5.499
 5339POPC   GL168989  29.918  14.526   5.796
 5339POPC   GL268990  30.100  14.233   5.860
 5339POPC   C1A68991  30.058  14.565   6.241
 5339POPC   D2A68992  30.047  14.231   6.549
 5339POPC   C3A68993  29.870  14.305   6.955
 5339POPC   C4A68994  30.050  14.619   7.209
 5339POPC   C1B68995  30.394  14.102   6.150
 5339POPC   C2B68996  30.451  13.922   6.546
 5339POPC   C3B68997  30.448  14.176   6.919
 5339POPC   C4B68998  30.323  14.174   7.335
 5340POPC   NC368999  20.479  27.117   5.584
 5340POPC   PO469000  20.388  27.854   5.376
 5340POPC   GL169001  20.405  27.630   5.804
 5340POPC   GL269002  20.706  27.505   5.837
 5340POPC   C1A69003  20.418  27.411   6.252
 5340POPC   D2A69004  20.675  27.427   6.643
 5340POPC   C3A69005  20.546  27.246   7.013
 5340POPC   C4A69006  20.228  27.378   7.288
 5340POPC   C1B69007  20.805  27.734   6.209
 5340POPC   C2B69008  20.551  27.907   6.555
 5340POPC   C3B69009  20.476  27.752   7.004
 5340POPC   C4B69010  20.667  27.548   7.440
 5341POPC   NC369011   4.479   1.650   5.362
 5341POPC   PO469012   4.019   2.230   5.364
 5341POPC   GL169013   4.129   2.243   5.818
 5341POPC   GL269014   4.365   1.932   5.815
 5341POPC   C1A69015   4.342   2.274   6.199
 5341POPC   D2A69016   4.588   2.023   6.485
 5341POPC   C3A69017   4.386   2.008   6.883
 5341POPC   C4A69018   4.550   1.960   7.300
 5341POPC   C1B69019   4.052   1.858   6.159
 5341POPC   C2B69020   3.986   2.053   6.553
 5341POPC   C3B69021   3.881   1.852   6.934
 5341POPC   C4B69022   4.040   2.040   7.275
 5342POPC   NC369023  28.398  30.685   5.286
 5342POPC   PO469024  28.472  31.173   5.669
 5342POPC   GL169025  28.182  30.944   5.918
 5342POPC   GL269026  28.235  30.607   5.759
 5342POPC   C1A69027  28.179  30.876   6.379
 5342POPC   D2A69028  28.468  30.679   6.693
 5342POPC   C3A69029  28.438  30.843   7.099
 5342POPC   C4A69030  28.476  30.697   7.561
 5342POPC   C1B69031  28.003  30.463   6.084
 5342POPC   C2B69032  28.139  30.341   6.471
 5342POPC   C3B69033  28.054  30.375   6.877
 5342POPC   C4B69034  28.309  30.369   7.211
 5343POPC   NC369035  41.898  37.188   5.230
 5343POPC   PO469036  42.365  36.704   5.395
 5343POPC   GL169037  42.513  36.762   5.804
 5343POPC   GL269038  42.616  37.081   5.843
 5343POPC   C1A69039  42.397  36.824   6.229
 5343POPC   D2A69040  42.614  36.964   6.565
 5343POPC   C3A69041  42.495  36.751   6.918
 5343POPC   C4A69042  42.552  36.772   7.323
 5343POPC   C1B69043  42.495  37.336   6.204
 5343POPC   C2B69044  42.262  37.375   6.608
 5343POPC   C3B69045  42.384  37.273   7.038
 5343POPC   C4B69046  42.757  37.262   7.280
 5344POPC   NC369047  40.804  32.823   5.305
 5344POPC   PO469048  40.358  33.249   5.528
 5344POPC   GL169049  40.600  33.258   5.904
 5344POPC   GL269050  40.823  32.958   5.846
 5344POPC   C1A69051  40.568  33.315   6.376
 5344POPC   D2A69052  40.781  33.291   6.755
 5344POPC   C3A69053  40.610  33.061   7.104
 5344POPC   C4A69054  40.772  33.067   7.553
 5344POPC   C1B69055  40.926  32.955   6.305
 5344POPC   C2B69056  41.011  32.810   6.751
 5344POPC   C3B69057  41.061  32.816   7.213
 5344POPC   C4B69058  40.933  32.580   7.610
 5345POPC   NC369059  19.188  35.705   5.518
 5345POPC   PO469060  18.886  35.055   5.526
 5345POPC   GL169061  19.045  35.293   5.792
 5345POPC   GL269062  19.397  35.209   5.692
 5345POPC   C1A69063  18.870  35.400   6.205
 5345POPC   D2A69064  18.837  35.577   6.648
 5345POPC   C3A69065  18.822  35.311   7.003
 5345POPC   C4A69066  18.972  35.463   7.380
 5345POPC   C1B69067  19.406  35.349   6.143
 5345POPC   C2B69068  19.221  35.250   6.550
 5345POPC   C3B69069  19.276  35.495   6.938
 5345POPC   C4B69070  19.401  35.237   7.236
 5346POPC   NC369071  39.270   8.805   5.615
 5346POPC   PO469072  38.971   9.280   5.265
 5346POPC   GL169073  38.862   9.246   5.735
 5346POPC   GL269074  38.904   8.938   5.941
 5346POPC   C1A69075  39.004   9.368   6.194
 5346POPC   D2A69076  39.311   9.374   6.551
 5346POPC   C3A69077  39.284   9.021   6.838
 5346POPC   C4A69078  38.957   9.092   7.122
 5346POPC   C1B69079  39.202   8.899   6.304
 5346POPC   C2B69080  39.496   8.636   6.515
 5346POPC   C3B69081  39.383   8.483   6.879
 5346POPC   C4B69082  39.176   8.583   7.213
 5347POPC   NC369083  23.171  13.018   5.258
 5347POPC   PO469084  23.781  12.646   5.201
 5347POPC   GL169085  23.659  12.658   5.695
 5347POPC   GL269086  23.519  12.366   5.859
 5347POPC   C1A69087  23.865  12.785   6.125
 5347POPC   D2A69088  24.179  12.719   6.460
 5347POPC   C3A69089  24.037  12.734   6.890
 5347POPC   C4A69090  23.885  12.808   7.299
 5347POPC   C1B69091  23.411  12.600   6.236
 5347POPC   C2B69092  23.603  12.803   6.608
 5347POPC   C3B69093  23.440  12.821   7.040
 5347POPC   C4B69094  23.407  12.492   7.374
 5348POPC   NC369095  11.777   0.977   5.630
 5348POPC   PO469096  12.415   1.084   5.611
 5348POPC   GL169097  12.178   0.938   5.957
 5348POPC   GL269098  11.974   1.269   6.019
 5348POPC   C1A69099  12.133   0.966   6.390
 5348POPC   D2A69100  12.073   1.383   6.552
 5348POPC   C3A69101  12.434   1.417   6.854
 5348POPC   C4A69102  12.557   1.450   7.272
 5348POPC   C1B69103  11.630   1.150   6.307
 5348POPC   C2B69104  11.604   1.171   6.742
 5348POPC   C3B69105  11.960   1.193   7.005
 5348POPC   C4B69106  12.145   0.995   7.350
 5349POPC   NC369107   4.501  38.318   5.332
 5349POPC   PO469108   4.168  38.813   5.511
 5349POPC   GL169109   4.477  38.617   5.755
 5349POPC   GL269110   4.450  38.259   5.838
 5349POPC   C1A69111   4.647  38.610   6.152
 5349POPC   D2A69112   4.647  38.319   6.481
 5349POPC   C3A69113   4.349  38.359   6.802
 5349POPC   C4A69114   4.464  38.310   7.227
 5349POPC   C1B69115   4.200  38.354   6.214
 5349POPC   C2B69116   3.910  38.177   6.503
 5349POPC   C3B69117   3.974  38.002   6.895
 5349POPC   C4B69118   3.840  38.187   7.263
 5350POPC   NC369119  33.635  13.010   5.341
 5350POPC   PO469120  33.945  12.429   5.312
 5350POPC   GL169121  33.785  12.663   5.688
 5350POPC   GL269122  33.914  13.002   5.803
 5350POPC   C1A69123  33.548  12.738   6.071
 5350POPC   D2A69124  33.474  12.610   6.500
 5350POPC   C3A69125  33.570  12.952   6.798
 5350POPC   C4A69126  33.703  12.850   7.214
 5350POPC   C1B69127  33.937  13.016   6.300
 5350POPC   C2B69128  34.109  12.952   6.757
 5350POPC   C3B69129  34.049  13.212   7.164
 5350POPC   C4B69130  33.911  13.142   7.590
 5351POPC   NC369131  27.186  23.854   5.006
 5351POPC   PO469132  27.653  23.572   5.352
 5351POPC   GL169133  27.764  23.453   5.783
 5351POPC   GL269134  27.461  23.239   5.903
 5351POPC   C1A69135  27.698  23.593   6.201
 5351POPC   D2A69136  27.564  23.390   6.580
 5351POPC   C3A69137  27.590  23.627   6.956
 5351POPC   C4A69138  27.526  23.676   7.366
 5351POPC   C1B69139  27.200  23.501   6.238
 5351POPC   C2B69140  27.224  23.797   6.643
 5351POPC   C3B69141  27.296  24.042   7.080
 5351POPC   C4B69142  27.460  24.171   7.510
 5352POPC   NC369143   7.076  33.438   5.526
 5352POPC   PO469144   7.416  32.872   5.606
 5352POPC   GL169145   7.187  33.073   5.902
 5352POPC   GL269146   7.412  33.319   5.896
 5352POPC   C1A69147   7.243  33.147   6.341
 5352POPC   D2A69148   7.102  32.920   6.672
 5352POPC   C3A69149   7.189  33.239   6.953
 5352POPC   C4A69150   7.157  33.182   7.382
 5352POPC   C1B69151   7.732  33.470   6.155
 5352POPC   C2B69152   7.663  33.547   6.575
 5352POPC   C3B69153   7.690  33.326   6.933
 5352POPC   C4B69154   7.614  33.396   7.333
 5353POPC   NC369155   9.060  37.434   5.491
 5353POPC   PO469156   8.670  38.011   5.458
 5353POPC   GL169157   8.839  37.819   5.828
 5353POPC   GL269158   8.635  37.487   5.863
 5353POPC   C1A69159   9.204  37.857   6.159
 5353POPC   D2A69160   9.331  37.710   6.581
 5353POPC   C3A69161   9.185  37.913   6.978
 5353POPC   C4A69162   8.943  37.918   7.403
 5353POPC   C1B69163   8.821  37.549   6.282
 5353POPC   C2B69164   8.909  37.442   6.714
 5353POPC   C3B69165   8.758  37.568   7.100
 5353POPC   C4B69166   8.429  37.355   7.376
 5354POPC   NC369167  41.659  39.649   5.407
 5354POPC   PO469168  41.439  38.893   5.428
 5354POPC   GL169169  41.613  39.203   5.696
 5354POPC   GL269170  41.264  39.351   5.606
 5354POPC   C1A69171  41.814  39.250   6.132
 5354POPC   D2A69172  41.751  39.447   6.552
 5354POPC   C3A69173  41.868  39.274   6.967
 5354POPC   C4A69174  41.635  39.104   7.340
 5354POPC   C1B69175  41.274  39.303   6.069
 5354POPC   C2B69176  41.227  39.404   6.507
 5354POPC   C3B69177  41.351  39.280   6.904
 5354POPC   C4B69178  41.151  39.132   7.272
 5355POPC   NC369179   1.082  36.396   5.562
 5355POPC   PO469180   1.644  35.999   5.552
 5355POPC   GL169181   1.422  35.986   5.896
 5355POPC   GL269182   1.102  35.901   5.766
 5355POPC   C1A69183   1.479  36.183   6.289
 5355POPC   D2A69184   1.258  36.113   6.657
 5355POPC   C3A69185   1.318  36.350   7.007
 5355POPC   C4A69186   1.462  36.223   7.408
 5355POPC   C1B69187   0.980  35.892   6.222
 5355POPC   C2B69188   0.834  35.848   6.656
 5355POPC   C3B69189   0.874  36.093   7.068
 5355POPC   C4B69190   1.024  35.998   7.528
 5356POPC   NC369191   7.648  31.556   5.489
 5356POPC   PO469192   7.174  31.080   5.506
 5356POPC   GL169193   7.323  31.300   5.881
 5356POPC   GL269194   7.241  31.645   5.812
 5356POPC   C1A69195   7.143  31.497   6.285
 5356POPC   D2A69196   7.071  31.440   6.727
 5356POPC   C3A69197   7.471  31.295   6.898
 5356POPC   C4A69198   7.540  31.272   7.340
 5356POPC   C1B69199   7.613  31.708   6.107
 5356POPC   C2B69200   7.647  31.960   6.470
 5356POPC   C3B69201   7.280  31.938   6.734
 5356POPC   C4B69202   7.396  31.740   7.105
 5357POPC   NC369203  25.884  30.268   5.016
 5357POPC   PO469204  25.633  29.785   5.407
 5357POPC   GL169205  25.842  29.810   5.801
 5357POPC   GL269206  26.158  29.901   5.706
 5357POPC   C1A69207  25.672  29.897   6.217
 5357POPC   D2A69208  25.461  29.978   6.584
 5357POPC   C3A69209  25.672  29.897   6.969
 5357POPC   C4A69210  25.804  29.950   7.423
 5357POPC   C1B69211  26.176  29.926   6.193
 5357POPC   C2B69212  26.087  29.851   6.660
 5357POPC   C3B69213  26.156  30.096   7.086
 5357POPC   C4B69214  26.313  29.888   7.510
 5358POPC   NC369215  38.525  18.602   5.568
 5358POPC   PO469216  38.077  18.166   5.500
 5358POPC   GL169217  38.230  18.266   5.888
 5358POPC   GL269218  38.570  18.138   5.863
 5358POPC   C1A69219  38.231  18.058   6.309
 5358POPC   D2A69220  38.367  17.860   6.694
 5358POPC   C3A69221  38.566  18.035   7.075
 5358POPC   C4A69222  38.248  18.339   7.242
 5358POPC   C1B69223  38.566  18.435   6.248
 5358POPC   C2B69224  38.450  18.373   6.713
 5358POPC   C3B69225  38.700  18.526   7.101
 5358POPC   C4B69226  38.495  18.712   7.479
 5359POPC   NC369227   9.703  36.854   5.326
 5359POPC   PO469228  10.213  36.665   5.643
 5359POPC   GL169229   9.890  36.820   5.896
 5359POPC   GL269230   9.508  36.776   5.809
 5359POPC   C1A69231   9.982  36.863   6.341
 5359POPC   D2A69232  10.191  36.759   6.718
 5359POPC   C3A69233  10.033  36.794   7.130
 5359POPC   C4A69234   9.635  36.651   7.211
 5359POPC   C1B69235   9.479  36.872   6.251
 5359POPC   C2B69236   9.600  36.909   6.702
 5359POPC   C3B69237   9.365  37.048   7.048
 5359POPC   C4B69238   9.208  36.812   7.446
 5360POPC   NC369239  19.911  33.873   5.377
 5360POPC   PO469240  19.317  33.795   5.122
 5360POPC   GL169241  19.551  34.147   5.536
 5360POPC   GL269242  19.701  33.825   5.819
 5360POPC   C1A69243  19.759  34.272   6.014
 5360POPC   D2A69244  19.716  34.188   6.474
 5360POPC   C3A69245  19.840  34.051   6.879
 5360POPC   C4A69246  19.454  33.855   7.040
 5360POPC   C1B69247  19.703  33.667   6.253
 5360POPC   C2B69248  19.544  33.512   6.655
 5360POPC   C3B69249  19.614  33.377   7.065
 5360POPC   C4B69250  19.945  33.675   7.224
 5361POPC   NC369251  36.668  25.877   5.383
 5361POPC   PO469252  36.799  25.146   5.293
 5361POPC   GL169253  36.957  25.260   5.710
 5361POPC   GL269254  36.959  25.621   5.769
 5361POPC   C1A69255  36.866  25.296   6.153
 5361POPC   D2A69256  37.031  25.233   6.556
 5361POPC   C3A69257  36.754  25.167   6.857
 5361POPC   C4A69258  36.729  25.278   7.257
 5361POPC   C1B69259  37.184  25.703   6.202
 5361POPC   C2B69260  37.323  25.634   6.644
 5361POPC   C3B69261  37.189  25.432   7.046
 5361POPC   C4B69262  37.101  25.507   7.506
 5362POPC   NC369263  44.340  34.639   5.128
 5362POPC   PO469264  44.754  34.348   5.589
 5362POPC   GL169265  44.751  34.467   5.970
 5362POPC   GL269266  44.652  34.777   5.961
 5362POPC   C1A69267   0.004  34.600   6.293
 5362POPC   D2A69268  44.858  34.715   6.649
 5362POPC   C3A69269   0.015  34.777   7.010
 5362POPC   C4A69270  44.670  34.975   7.162
 5362POPC   C1B69271  44.437  34.660   6.317
 5362POPC   C2B69272  44.542  34.311   6.565
 5362POPC   C3B69273  44.618  34.422   6.996
 5362POPC   C4B69274  44.523  34.191   7.350
 5363POPC   NC369275  12.400  34.677   5.263
 5363POPC   PO469276  12.529  34.136   5.369
 5363POPC   GL169277  12.602  34.315   5.779
 5363POPC   GL269278  12.578  34.660   5.834
 5363POPC   C1A69279  12.658  34.262   6.236
 5363POPC   D2A69280  13.016  34.349   6.554
 5363POPC   C3A69281  12.971  34.517   6.990
 5363POPC   C4A69282  12.970  34.458   7.453
 5363POPC   C1B69283  12.764  34.741   6.273
 5363POPC   C2B69284  12.559  34.562   6.678
 5363POPC   C3B69285  12.492  34.628   7.150
 5363POPC   C4B69286  12.622  34.800   7.593
 5364POPC   NC369287  20.501  34.176   5.316
 5364POPC   PO469288  20.848  34.735   5.164
 5364POPC   GL169289  20.766  34.666   5.640
 5364POPC   GL269290  20.470  34.530   5.713
 5364POPC   C1A69291  20.780  34.620   6.118
 5364POPC   D2A69292  20.519  34.568   6.505
 5364POPC   C3A69293  20.513  34.835   6.877
 5364POPC   C4A69294  20.698  34.575   7.175
 5364POPC   C1B69295  20.301  34.308   6.101
 5364POPC   C2B69296  20.245  34.129   6.529
 5364POPC   C3B69297  20.421  34.209   6.946
 5364POPC   C4B69298  20.228  34.098   7.304
 5365POPC   NC369299  31.796  28.687   5.302
 5365POPC   PO469300  32.517  28.582   5.482
 5365POPC   GL169301  32.372  28.324   5.729
 5365POPC   GL269302  32.047  28.318   5.602
 5365POPC   C1A69303  32.432  28.236   6.127
 5365POPC   D2A69304  32.248  28.142   6.486
 5365POPC   C3A69305  32.409  28.422   6.777
 5365POPC   C4A69306  32.576  28.310   7.148
 5365POPC   C1B69307  31.938  28.365   6.074
 5365POPC   C2B69308  31.865  28.503   6.512
 5365POPC   C3B69309  31.935  28.284   6.885
 5365POPC   C4B69310  32.107  28.115   7.253
 5366POPC   NC369311   1.979   3.660   5.427
 5366POPC   PO469312   1.532   3.265   5.426
 5366POPC   GL169313   1.770   3.306   5.784
 5366POPC   GL269314   1.641   3.056   5.977
 5366POPC   C1A69315   1.719   3.577   6.165
 5366POPC   D2A69316   1.796   3.746   6.610
 5366POPC   C3A69317   2.195   3.668   6.811
 5366POPC   C4A69318   2.212   3.702   7.233
 5366POPC   C1B69319   1.950   3.094   6.289
 5366POPC   C2B69320   1.921   3.233   6.692
 5366POPC   C3B69321   1.786   3.430   7.051
 5366POPC   C4B69322   2.017   3.261   7.363
 5367POPC   NC369323  17.748   9.157   5.423
 5367POPC   PO469324  18.188   8.658   5.427
 5367POPC   GL169325  18.240   9.006   5.729
 5367POPC   GL269326  18.449   9.324   5.700
 5367POPC   C1A69327  18.174   9.157   6.152
 5367POPC   D2A69328  18.203   8.956   6.550
 5367POPC   C3A69329  18.226   9.133   6.943
 5367POPC   C4A69330  18.495   8.978   7.289
 5367POPC   C1B69331  18.566   9.498   6.114
 5367POPC   C2B69332  18.366   9.478   6.530
 5367POPC   C3B69333  18.557   9.546   6.932
 5367POPC   C4B69334  18.352   9.463   7.302
 5368POPC   NC369335   0.365   8.104   4.889
 5368POPC   PO469336   0.693   8.011   5.394
 5368POPC   GL169337   0.591   8.093   5.867
 5368POPC   GL269338   0.624   8.443   5.963
 5368POPC   C1A69339   0.572   8.059   6.351
 5368POPC   D2A69340   0.503   7.853   6.769
 5368POPC   C3A69341   0.682   8.042   7.142
 5368POPC   C4A69342   0.494   7.974   7.549
 5368POPC   C1B69343   0.443   8.552   6.377
 5368POPC   C2B69344   0.421   8.358   6.795
 5368POPC   C3B69345   0.212   8.206   7.171
 5368POPC   C4B69346   0.220   8.421   7.557
 5369POPC   NC369347  23.329  23.257   5.385
 5369POPC   PO469348  22.899  22.751   5.512
 5369POPC   GL169349  22.830  22.730   5.962
 5369POPC   GL269350  22.647  23.020   6.098
 5369POPC   C1A69351  22.940  22.716   6.401
 5369POPC   D2A69352  22.867  23.048   6.708
 5369POPC   C3A69353  22.882  22.899   7.130
 5369POPC   C4A69354  23.111  22.831   7.524
 5369POPC   C1B69355  22.436  22.728   6.386
 5369POPC   C2B69356  22.550  22.660   6.796
 5369POPC   C3B69357  22.372  22.906   7.153
 5369POPC   C4B69358  22.599  22.938   7.556
 5370POPC   NC369359   2.330  41.675   5.456
 5370POPC   PO469360   1.791  41.151   5.368
 5370POPC   GL169361   1.890  41.403   5.741
 5370POPC   GL269362   1.805  41.763   5.728
 5370POPC   C1A69363   2.116  41.359   6.141
 5370POPC   D2A69364   1.945  41.250   6.543
 5370POPC   C3A69365   2.147  41.291   6.939
 5370POPC   C4A69366   2.129  41.493   7.373
 5370POPC   C1B69367   2.091  41.871   6.077
 5370POPC   C2B69368   2.103  41.739   6.510
 5370POPC   C3B69369   1.959  41.779   6.940
 5370POPC   C4B69370   1.676  41.817   7.260
 5371POPC   NC369371  20.410  40.846   5.519
 5371POPC   PO469372  21.077  40.811   5.443
 5371POPC   GL169373  20.867  40.689   5.826
 5371POPC   GL269374  20.514  40.623   5.944
 5371POPC   C1A69375  20.854  40.846   6.234
 5371POPC   D2A69376  20.702  41.019   6.598
 5371POPC   C3A69377  20.741  40.805   6.964
 5371POPC   C4A69378  20.759  41.135   7.278
 5371POPC   C1B69379  20.340  40.905   6.244
 5371POPC   C2B69380  20.207  40.860   6.665
 5371POPC   C3B69381  20.265  40.998   7.064
 5371POPC   C4B69382  20.195  40.717   7.390
 5372POPC   NC369383  35.134  36.159   5.283
 5372POPC   PO469384  35.577  35.824   5.658
 5372POPC   GL169385  35.288  36.110   5.830
 5372POPC   GL269386  34.937  36.068   5.756
 5372POPC   C1A69387  35.221  36.318   6.226
 5372POPC   D2A69388  35.447  36.379   6.607
 5372POPC   C3A69389  35.528  36.065   6.912
 5372POPC   C4A69390  35.488  36.228   7.306
 5372POPC   C1B69391  35.020  35.835   6.159
 5372POPC   C2B69392  35.166  35.852   6.598
 5372POPC   C3B69393  35.051  35.838   7.037
 5372POPC   C4B69394  35.010  36.077   7.438
 5373POPC   NC369395  38.006   5.377   5.597
 5373POPC   PO469396  37.918   4.708   5.508
 5373POPC   GL169397  37.834   4.959   5.848
 5373POPC   GL269398  38.156   5.019   5.936
 5373POPC   C1A69399  37.778   5.147   6.280
 5373POPC   D2A69400  37.710   4.937   6.683
 5373POPC   C3A69401  37.631   5.037   7.103
 5373POPC   C4A69402  37.930   4.861   7.376
 5373POPC   C1B69403  38.264   5.317   6.233
 5373POPC   C2B69404  38.074   5.429   6.621
 5373POPC   C3B69405  38.088   5.226   7.002
 5373POPC   C4B69406  38.071   5.351   7.441
 5374POPC   NC369407  31.091  26.852   5.463
 5374POPC   PO469408  30.511  27.074   5.458
 5374POPC   GL169409  30.673  26.748   5.765
 5374POPC   GL269410  31.016  26.592   5.881
 5374POPC   C1A69411  30.548  26.652   6.150
 5374POPC   D2A69412  30.613  26.428   6.515
 5374POPC   C3A69413  30.667  26.694   6.843
 5374POPC   C4A69414  30.524  26.810   7.239
 5374POPC   C1B69415  31.067  26.703   6.306
 5374POPC   C2B69416  31.031  27.028   6.605
 5374POPC   C3B69417  30.923  27.102   7.029
 5374POPC   C4B69418  31.040  26.735   7.241
 5375POPC   NC369419  32.085  42.031   5.444
 5375POPC   PO469420  32.467  41.444   5.430
 5375POPC   GL169421  32.274  41.492   5.844
 5375POPC   GL269422  31.955  41.349   5.854
 5375POPC   C1A69423  32.034  41.748   6.165
 5375POPC   D2A69424  31.840  41.641   6.566
 5375POPC   C3A69425  32.173  41.356   6.743
 5375POPC   C4A69426  32.329  41.413   7.157
 5375POPC   C1B69427  31.930  41.177   6.288
 5375POPC   C2B69428  31.673  41.169   6.680
 5375POPC   C3B69429  31.795  41.296   7.076
 5375POPC   C4B69430  31.821  41.729   7.168
 5376POPC   NC369431  37.538  17.289   5.370
 5376POPC   PO469432  37.964  16.692   5.385
 5376POPC   GL169433  37.835  16.744   5.797
 5376POPC   GL269434  37.552  16.959   5.798
 5376POPC   C1A69435  37.713  16.615   6.217
 5376POPC   D2A69436  37.912  16.727   6.607
 5376POPC   C3A69437  37.742  16.638   7.040
 5376POPC   C4A69438  37.938  16.842   7.401
 5376POPC   C1B69439  37.407  17.066   6.209
 5376POPC   C2B69440  37.416  16.898   6.661
 5376POPC   C3B69441  37.344  17.086   7.073
 5376POPC   C4B69442  37.328  17.014   7.521
 5377POPC   NC369443  22.509  13.486   5.479
 5377POPC   PO469444  21.786  13.514   5.546
 5377POPC   GL169445  22.145  13.548   5.831
 5377POPC   GL269446  22.109  13.199   5.934
 5377POPC   C1A69447  22.276  13.804   6.216
 5377POPC   D2A69448  22.373  13.689   6.662
 5377POPC   C3A69449  22.109  13.772   7.023
 5377POPC   C4A69450  22.178  13.926   7.425
 5377POPC   C1B69451  22.477  13.336   6.181
 5377POPC   C2B69452  22.713  13.314   6.592
 5377POPC   C3B69453  22.535  13.295   7.005
 5377POPC   C4B69454  22.295  13.432   7.346
 5378POPC   NC369455  38.787   5.339   5.378
 5378POPC   PO469456  38.796   4.650   5.360
 5378POPC   GL169457  38.614   4.822   5.758
 5378POPC   GL269458  38.635   5.192   5.846
 5378POPC   C1A69459  38.518   4.810   6.228
 5378POPC   D2A69460  38.189   4.878   6.530
 5378POPC   C3A69461  38.224   4.715   6.961
 5378POPC   C4A69462  38.434   4.973   7.292
 5378POPC   C1B69463  38.769   5.371   6.242
 5378POPC   C2B69464  38.576   5.383   6.677
 5378POPC   C3B69465  38.523   5.450   7.133
 5378POPC   C4B69466  38.570   5.391   7.589
 5379POPC   NC369467   4.819  28.777   5.467
 5379POPC   PO469468   4.774  29.441   5.398
 5379POPC   GL169469   4.968  29.178   5.764
 5379POPC   GL269470   5.302  28.968   5.733
 5379POPC   C1A69471   4.993  28.964   6.181
 5379POPC   D2A69472   5.154  28.775   6.563
 5379POPC   C3A69473   5.003  28.920   6.966
 5379POPC   C4A69474   5.030  29.137   7.332
 5379POPC   C1B69475   5.491  28.889   6.168
 5379POPC   C2B69476   5.559  29.103   6.583
 5379POPC   C3B69477   5.465  29.148   7.030
 5379POPC   C4B69478   5.465  28.903   7.442
 5380POPC   NC369479  41.259   1.731   5.473
 5380POPC   PO469480  41.832   2.138   5.494
 5380POPC   GL169481  41.595   2.179   5.864
 5380POPC   GL269482  41.263   2.325   5.760
 5380POPC   C1A69483  41.592   1.908   6.238
 5380POPC   D2A69484  41.615   1.658   6.604
 5380POPC   C3A69485  41.745   1.782   7.004
 5380POPC   C4A69486  41.479   2.078   7.162
 5380POPC   C1B69487  41.168   2.185   6.193
 5380POPC   C2B69488  41.299   2.167   6.651
 5380POPC   C3B69489  41.155   2.430   7.017
 5380POPC   C4B69490  41.100   2.401   7.475
 5381POPC   NC369491  37.745  30.484   5.415
 5381POPC   PO469492  37.594  29.873   5.275
 5381POPC   GL169493  37.623  29.781   5.718
 5381POPC   GL269494  37.784  30.069   5.825
 5381POPC   C1A69495  37.624  29.755   6.174
 5381POPC   D2A69496  37.818  29.900   6.554
 5381POPC   C3A69497  37.553  29.842   6.912
 5381POPC   C4A69498  37.628  29.855   7.327
 5381POPC   C1B69499  37.933  30.271   6.218
 5381POPC   C2B69500  38.051  30.358   6.656
 5381POPC   C3B69501  37.975  30.139   7.042
 5381POPC   C4B69502  37.958  30.227   7.481
 5382POPC   NC369503  38.910  23.612   5.314
 5382POPC   PO469504  39.496  23.755   5.493
 5382POPC   GL169505  39.199  23.574   5.735
 5382POPC   GL269506  39.376  23.719   6.005
 5382POPC   C1A69507  38.988  23.407   6.103
 5382POPC   D2A69508  39.202  23.349   6.528
 5382POPC   C3A69509  39.272  23.641   6.873
 5382POPC   C4A69510  38.947  23.758   7.172
 5382POPC   C1B69511  39.734  23.488   6.157
 5382POPC   C2B69512  39.730  23.370   6.588
 5382POPC   C3B69513  39.778  23.522   7.007
 5382POPC   C4B69514  39.459  23.513   7.333
 5383POPC   NC369515   3.368  44.258   5.309
 5383POPC   PO469516   3.430  44.893   5.411
 5383POPC   GL169517   3.498  44.857   5.821
 5383POPC   GL269518   3.540  44.506   5.826
 5383POPC   C1A69519   3.668  44.846   6.245
 5383POPC   D2A69520   3.573  44.566   6.596
 5383POPC   C3A69521   3.664  44.694   6.995
 5383POPC   C4A69522   3.414  44.800   7.307
 5383POPC   C1B69523   3.834  44.353   6.174
 5383POPC   C2B69524   4.001  44.311   6.622
 5383POPC   C3B69525   3.735  44.164   7.020
 5383POPC   C4B69526   3.736  44.355   7.450
 5384POPC   NC369527  22.929   9.414   5.470
 5384POPC   PO469528  23.218  10.058   5.403
 5384POPC   GL169529  23.056   9.816   5.793
 5384POPC   GL269530  22.747   9.601   5.921
 5384POPC   C1A69531  23.092   9.756   6.259
 5384POPC   D2A69532  22.886   9.608   6.624
 5384POPC   C3A69533  23.010   9.772   7.003
 5384POPC   C4A69534  23.146   9.629   7.417
 5384POPC   C1B69535  22.670  10.011   6.152
 5384POPC   C2B69536  22.838  10.128   6.572
 5384POPC   C3B69537  22.652  10.139   6.996
 5384POPC   C4B69538  22.719   9.950   7.389
 5385POPC   NC369539   7.200  16.928   5.150
 5385POPC   PO469540   7.527  16.309   5.311
 5385POPC   GL169541   7.465  16.694   5.565
 5385POPC   GL269542   7.109  16.822   5.632
 5385POPC   C1A69543   7.476  16.798   6.014
 5385POPC   D2A69544   7.673  16.755   6.410
 5385POPC   C3A69545   7.578  16.813   6.849
 5385POPC   C4A69546   7.548  16.587   7.234
 5385POPC   C1B69547   6.974  16.847   6.066
 5385POPC   C2B69548   7.162  16.624   6.441
 5385POPC   C3B69549   7.147  16.524   6.883
 5385POPC   C4B69550   7.037  16.730   7.262
 5386POPC   NC369551  25.983  16.148   5.459
 5386POPC   PO469552  26.428  15.773   5.427
 5386POPC   GL169553  26.085  15.755   5.767
 5386POPC   GL269554  25.695  15.798   5.712
 5386POPC   C1A69555  25.984  16.074   6.128
 5386POPC   D2A69556  26.215  16.147   6.544
 5386POPC   C3A69557  26.164  15.842   6.895
 5386POPC   C4A69558  25.842  15.968   7.178
 5386POPC   C1B69559  25.739  15.628   6.148
 5386POPC   C2B69560  25.725  15.811   6.576
 5386POPC   C3B69561  25.562  15.610   6.935
 5386POPC   C4B69562  25.794  15.482   7.268
 5387POPC   NC369563  38.970  19.473   5.403
 5387POPC   PO469564  38.308  19.831   5.534
 5387POPC   GL169565  38.417  19.623   5.893
 5387POPC   GL269566  38.515  19.930   6.035
 5387POPC   C1A69567  38.661  19.515   6.269
 5387POPC   D2A69568  38.774  19.698   6.711
 5387POPC   C3A69569  38.570  19.686   7.129
 5387POPC   C4A69570  38.215  19.628   7.455
 5387POPC   C1B69571  38.224  20.057   6.333
 5387POPC   C2B69572  38.232  19.999   6.774
 5387POPC   C3B69573  38.225  20.097   7.190
 5387POPC   C4B69574  38.458  20.391   7.440
 5388POPC   NC369575   1.266   3.663   5.382
 5388POPC   PO469576   0.966   3.058   5.352
 5388POPC   GL169577   1.103   3.175   5.788
 5388POPC   GL269578   1.281   3.462   5.844
 5388POPC   C1A69579   1.229   3.143   6.240
 5388POPC   D2A69580   1.448   3.358   6.537
 5388POPC   C3A69581   1.325   3.227   6.914
 5388POPC   C4A69582   1.349   3.408   7.341
 5388POPC   C1B69583   1.154   3.716   6.167
 5388POPC   C2B69584   1.279   3.856   6.561
 5388POPC   C3B69585   1.358   3.740   6.960
 5388POPC   C4B69586   1.358   3.901   7.404
 5389POPC   NC369587   2.914  38.077   5.263
 5389POPC   PO469588   2.886  37.440   5.387
 5389POPC   GL169589   2.714  37.734   5.658
 5389POPC   GL269590   2.640  37.415   5.844
 5389POPC   C1A69591   2.680  37.842   6.114
 5389POPC   D2A69592   2.953  37.635   6.426
 5389POPC   C3A69593   2.909  37.686   6.871
 5389POPC   C4A69594   2.767  37.835   7.259
 5389POPC   C1B69595   2.706  37.240   6.213
 5389POPC   C2B69596   2.791  37.155   6.625
 5389POPC   C3B69597   2.627  37.255   6.992
 5389POPC   C4B69598   2.865  37.334   7.308
 5390POPC   NC369599   1.697  16.168   5.434
 5390POPC   PO469600   1.175  15.653   5.458
 5390POPC   GL169601   1.465  15.693   5.762
 5390POPC   GL269602   1.339  16.035   5.774
 5390POPC   C1A69603   1.304  15.557   6.158
 5390POPC   D2A69604   1.364  15.722   6.560
 5390POPC   C3A69605   1.279  15.604   6.989
 5390POPC   C4A69606   1.133  15.889   7.290
 5390POPC   C1B69607   1.538  16.039   6.155
 5390POPC   C2B69608   1.421  16.216   6.538
 5390POPC   C3B69609   1.434  16.092   6.923
 5390POPC   C4B69610   1.619  16.117   7.253
 5391POPC   NC369611  17.903   6.770   5.721
 5391POPC   PO469612  17.336   6.515   5.534
 5391POPC   GL169613  17.515   6.514   5.956
 5391POPC   GL269614  17.752   6.265   5.924
 5391POPC   C1A69615  17.532   6.483   6.417
 5391POPC   D2A69616  17.316   6.789   6.676
 5391POPC   C3A69617  17.475   6.845   7.076
 5391POPC   C4A69618  17.461   6.618   7.432
 5391POPC   C1B69619  18.016   6.405   6.269
 5391POPC   C2B69620  17.947   6.241   6.682
 5391POPC   C3B69621  17.730   6.380   7.039
 5391POPC   C4B69622  17.988   6.633   7.324
 5392POPC   NC369623  33.542  26.586   5.493
 5392POPC   PO469624  32.887  26.887   5.492
 5392POPC   GL169625  33.073  26.836   5.876
 5392POPC   GL269626  32.887  26.587   5.965
 5392POPC   C1A69627  33.025  26.941   6.308
 5392POPC   D2A69628  32.726  26.779   6.583
 5392POPC   C3A69629  32.918  26.661   6.971
 5392POPC   C4A69630  33.322  26.766   6.997
 5392POPC   C1B69631  33.183  26.361   6.194
 5392POPC   C2B69632  33.129  26.248   6.624
 5392POPC   C3B69633  33.187  26.250   7.065
 5392POPC   C4B69634  32.975  26.338   7.459
 5393POPC   NC369635  38.466  16.145   5.187
 5393POPC   PO469636  38.380  15.684   5.537
 5393POPC   GL169637  38.215  15.779   5.908
 5393POPC   GL269638  38.424  16.068   5.904
 5393POPC   C1A69639  38.156  15.652   6.335
 5393POPC   D2A69640  38.224  15.840   6.730
 5393POPC   C3A69641  38.223  15.618   7.112
 5393POPC   C4A69642  38.275  15.929   7.428
 5393POPC   C1B69643  38.511  16.053   6.337
 5393POPC   C2B69644  38.725  15.908   6.712
 5393POPC   C3B69645  38.725  15.949   7.167
 5393POPC   C4B69646  38.726  16.197   7.536
 5394POPC   NC369647   2.666  33.426   5.263
 5394POPC   PO469648   3.064  33.928   5.385
 5394POPC   GL169649   2.655  33.811   5.607
 5394POPC   GL269650   2.567  34.048   5.855
 5394POPC   C1A69651   2.651  33.533   5.979
 5394POPC   D2A69652   2.722  33.672   6.421
 5394POPC   C3A69653   2.546  33.470   6.790
 5394POPC   C4A69654   2.670  33.660   7.175
 5394POPC   C1B69655   2.961  33.973   6.058
 5394POPC   C2B69656   3.188  33.987   6.443
 5394POPC   C3B69657   3.050  33.841   6.848
 5394POPC   C4B69658   3.061  34.021   7.264
 5395POPC   NC369659   7.609  40.676   5.397
 5395POPC   PO469660   6.947  40.792   5.233
 5395POPC   GL169661   7.170  40.728   5.717
 5395POPC   GL269662   7.150  40.972   5.955
 5395POPC   C1A69663   7.497  40.634   6.077
 5395POPC   D2A69664   7.377  40.687   6.493
 5395POPC   C3A69665   7.389  40.431   6.846
 5395POPC   C4A69666   7.678  40.536   7.197
 5395POPC   C1B69667   7.384  41.208   6.292
 5395POPC   C2B69668   7.622  41.073   6.682
 5395POPC   C3B69669   7.371  40.911   7.032
 5395POPC   C4B69670   7.091  40.964   7.397
 5396POPC   NC369671   6.369  11.055   5.134
 5396POPC   PO469672   6.866  11.154   5.532
 5396POPC   GL169673   6.647  11.285   5.882
 5396POPC   GL269674   6.309  11.215   5.772
 5396POPC   C1A69675   6.575  11.063   6.276
 5396POPC   D2A69676   6.633  11.122   6.721
 5396POPC   C3A69677   6.697  11.269   7.134
 5396POPC   C4A69678   6.673  11.230   7.595
 5396POPC   C1B69679   6.097  10.979   6.113
 5396POPC   C2B69680   5.971  10.864   6.540
 5396POPC   C3B69681   6.222  10.878   6.910
 5396POPC   C4B69682   6.275  11.039   7.321
 5397POPC   NC369683  31.882  29.477   5.366
 5397POPC   PO469684  31.428  28.981   5.396
 5397POPC   GL169685  31.348  29.132   5.788
 5397POPC   GL269686  31.684  29.242   5.778
 5397POPC   C1A69687  31.391  29.167   6.242
 5397POPC   D2A69688  31.181  29.215   6.662
 5397POPC   C3A69689  31.411  29.127   7.048
 5397POPC   C4A69690  31.340  29.122   7.510
 5397POPC   C1B69691  31.792  29.492   6.117
 5397POPC   C2B69692  31.588  29.544   6.511
 5397POPC   C3B69693  31.753  29.497   6.908
 5397POPC   C4B69694  31.743  29.402   7.331
 5398POPC   NC369695  14.636   6.729   5.441
 5398POPC   PO469696  13.944   6.619   5.426
 5398POPC   GL169697  14.285   6.426   5.730
 5398POPC   GL269698  14.643   6.280   5.733
 5398POPC   C1A69699  14.381   6.507   6.209
 5398POPC   D2A69700  14.372   6.696   6.675
 5398POPC   C3A69701  14.124   6.552   7.096
 5398POPC   C4A69702  14.097   6.788   7.511
 5398POPC   C1B69703  14.841   6.298   6.137
 5398POPC   C2B69704  14.648   6.222   6.561
 5398POPC   C3B69705  14.571   6.351   6.977
 5398POPC   C4B69706  14.605   6.749   7.171
 5399POPC   NC369707  25.400  13.496   4.969
 5399POPC   PO469708  25.048  13.475   5.483
 5399POPC   GL169709  25.060  13.728   5.858
 5399POPC   GL269710  25.375  13.742   5.847
 5399POPC   C1A69711  25.003  13.585   6.277
 5399POPC   D2A69712  24.950  13.347   6.666
 5399POPC   C3A69713  24.951  13.625   7.057
 5399POPC   C4A69714  24.914  13.744   7.522
 5399POPC   C1B69715  25.474  13.781   6.246
 5399POPC   C2B69716  25.403  13.613   6.648
 5399POPC   C3B69717  25.602  13.610   7.024
 5399POPC   C4B69718  25.665  13.861   7.380
 5400POPC   NC369719  29.284  24.850   5.636
 5400POPC   PO469720  28.804  25.397   5.455
 5400POPC   GL169721  28.874  25.127   5.793
 5400POPC   GL269722  29.187  25.303   5.881
 5400POPC   C1A69723  28.888  25.083   6.248
 5400POPC   D2A69724  28.896  24.894   6.660
 5400POPC   C3A69725  29.132  25.134   6.959
 5400POPC   C4A69726  29.092  25.303   7.371
 5400POPC   C1B69727  29.408  25.143   6.268
 5400POPC   C2B69728  29.549  25.325   6.678
 5400POPC   C3B69729  29.500  25.469   7.135
 5400POPC   C4B69730  29.480  25.525   7.634
 5401POPC   NC369731  24.317  32.189   5.631
 5401POPC   PO469732  23.577  32.307   5.428
 5401POPC   GL169733  23.809  32.278   5.791
 5401POPC   GL269734  23.753  31.921   5.845
 5401POPC   C1A69735  23.952  32.462   6.183
 5401POPC   D2A69736  24.119  32.328   6.578
 5401POPC   C3A69737  23.775  32.202   6.812
 5401POPC   C4A69738  23.570  32.439   7.138
 5401POPC   C1B69739  24.046  31.953   6.203
 5401POPC   C2B69740  24.141  31.731   6.585
 5401POPC   C3B69741  24.065  31.828   7.017
 5401POPC   C4B69742  23.753  31.999   7.292
 5402POPC   NC369743  35.659  27.088   5.364
 5402POPC   PO469744  34.899  26.975   5.334
 5402POPC   GL169745  35.089  27.071   5.734
 5402POPC   GL269746  35.406  26.920   5.768
 5402POPC   C1A69747  35.096  26.950   6.183
 5402POPC   D2A69748  35.336  26.857   6.583
 5402POPC   C3A69749  35.142  26.948   6.991
 5402POPC   C4A69750  34.923  26.690   7.277
 5402POPC   C1B69751  35.667  26.975   6.103
 5402POPC   C2B69752  35.795  26.709   6.434
 5402POPC   C3B69753  35.747  26.683   6.864
 5402POPC   C4B69754  35.626  27.035   7.101
 5403POPC   NC369755  40.553  33.690   5.547
 5403POPC   PO469756  41.192  33.606   5.569
 5403POPC   GL169757  40.948  33.918   5.833
 5403POPC   GL269758  40.632  33.757   6.035
 5403POPC   C1A69759  40.961  34.054   6.261
 5403POPC   D2A69760  40.691  33.807   6.583
 5403POPC   C3A69761  40.658  33.976   7.013
 5403POPC   C4A69762  40.720  34.168   7.423
 5403POPC   C1B69763  41.006  33.550   6.226
 5403POPC   C2B69764  41.197  33.733   6.603
 5403POPC   C3B69765  41.044  33.658   6.991
 5403POPC   C4B69766  40.730  33.525   7.249
 5404POPC   NC369767  30.073  25.049   5.404
 5404POPC   PO469768  29.455  25.347   5.426
 5404POPC   GL169769  29.734  25.282   5.806
 5404POPC   GL269770  30.111  25.258   5.855
 5404POPC   C1A69771  29.845  25.421   6.244
 5404POPC   D2A69772  30.053  25.167   6.590
 5404POPC   C3A69773  29.966  25.342   6.977
 5404POPC   C4A69774  29.933  25.445   7.414
 5404POPC   C1B69775  30.388  25.118   6.182
 5404POPC   C2B69776  30.583  25.211   6.607
 5404POPC   C3B69777  30.503  25.490   6.921
 5404POPC   C4B69778  30.382  25.162   7.174
 5405POPC   NC369779  28.860   3.120   5.528
 5405POPC   PO469780  29.315   3.669   5.622
 5405POPC   GL169781  29.093   3.768   5.992
 5405POPC   GL269782  28.757   3.895   5.913
 5405POPC   C1A69783  29.092   3.629   6.413
 5405POPC   D2A69784  29.131   3.244   6.587
 5405POPC   C3A69785  29.421   3.268   6.926
 5405POPC   C4A69786  29.362   3.527   7.239
 5405POPC   C1B69787  28.717   3.457   6.117
 5405POPC   C2B69788  28.578   3.415   6.538
 5405POPC   C3B69789  28.779   3.436   6.936
 5405POPC   C4B69790  28.899   3.362   7.358
 5406POPC   NC369791  13.250  14.363   5.345
 5406POPC   PO469792  12.598  14.121   5.391
 5406POPC   GL169793  12.815  14.340   5.725
 5406POPC   GL269794  13.110  14.484   5.813
 5406POPC   C1A69795  12.769  14.275   6.177
 5406POPC   D2A69796  12.514  14.223   6.545
 5406POPC   C3A69797  12.691  14.304   6.957
 5406POPC   C4A69798  12.573  14.314   7.376
 5406POPC   C1B69799  13.235  14.484   6.211
 5406POPC   C2B69800  13.030  14.430   6.599
 5406POPC   C3B69801  13.197  14.467   7.001
 5406POPC   C4B69802  13.080  14.258   7.340
 5407POPC   NC369803  40.160  32.771   5.570
 5407POPC   PO469804  39.719  33.129   5.142
 5407POPC   GL169805  39.795  33.164   5.644
 5407POPC   GL269806  40.088  33.111   5.920
 5407POPC   C1A69807  39.694  33.329   6.099
 5407POPC   D2A69808  40.016  33.139   6.426
 5407POPC   C3A69809  40.014  33.176   6.850
 5407POPC   C4A69810  40.077  33.048   7.245
 5407POPC   C1B69811  40.407  32.867   6.166
 5407POPC   C2B69812  40.488  32.828   6.599
 5407POPC   C3B69813  40.289  32.669   6.964
 5407POPC   C4B69814  40.460  32.666   7.394
 5408POPC   NC369815  12.233  40.128   5.365
 5408POPC   PO469816  11.649  40.546   5.365
 5408POPC   GL169817  11.819  40.331   5.745
 5408POPC   GL269818  12.189  40.362   5.808
 5408POPC   C1A69819  11.846  40.286   6.205
 5408POPC   D2A69820  12.119  40.422   6.552
 5408POPC   C3A69821  12.041  40.292   6.938
 5408POPC   C4A69822  11.865  40.014   7.207
 5408POPC   C1B69823  12.384  40.177   6.194
 5408POPC   C2B69824  12.441  40.042   6.676
 5408POPC   C3B69825  12.396  39.991   7.168
 5408POPC   C4B69826  12.574  40.093   7.599
 5409POPC   NC369827  33.212  27.214   5.574
 5409POPC   PO469828  32.988  27.785   5.381
 5409POPC   GL169829  32.970  27.604   5.826
 5409POPC   GL269830  32.765  27.287   5.870
 5409POPC   C1A69831  33.236  27.634   6.212
 5409POPC   D2A69832  33.145  27.710   6.664
 5409POPC   C3A69833  33.232  27.540   7.089
 5409POPC   C4A69834  32.895  27.554   7.428
 5409POPC   C1B69835  32.793  27.406   6.339
 5409POPC   C2B69836  32.897  27.249   6.755
 5409POPC   C3B69837  32.968  27.113   7.170
 5409POPC   C4B69838  32.769  27.077   7.565
 5410POPC   NC369839   2.408  19.994   5.531
 5410POPC   PO469840   1.791  19.686   5.434
 5410POPC   GL169841   2.046  19.723   5.805
 5410POPC   GL269842   1.999  20.049   5.849
 5410POPC   C1A69843   2.107  19.806   6.264
 5410POPC   D2A69844   1.849  19.847   6.576
 5410POPC   C3A69845   1.938  19.658   6.953
 5410POPC   C4A69846   1.921  19.551   7.370
 5410POPC   C1B69847   1.815  20.250   6.196
 5410POPC   C2B69848   1.914  20.418   6.590
 5410POPC   C3B69849   1.902  20.178   6.952
 5410POPC   C4B69850   2.232  19.996   7.181
 5411POPC   NC369851   3.441  33.773   5.171
 5411POPC   PO469852   4.051  34.047   5.281
 5411POPC   GL169853   3.784  33.912   5.681
 5411POPC   GL269854   3.516  33.624   5.674
 5411POPC   C1A69855   3.669  33.984   6.161
 5411POPC   D2A69856   3.821  34.050   6.609
 5411POPC   C3A69857   3.531  34.017   6.968
 5411POPC   C4A69858   3.546  33.976   7.426
 5411POPC   C1B69859   3.314  33.587   6.111
 5411POPC   C2B69860   3.499  33.611   6.545
 5411POPC   C3B69861   3.505  33.484   6.970
 5411POPC   C4B69862   3.186  33.531   7.263
 5412POPC   NC369863  14.164  30.330   5.322
 5412POPC   PO469864  14.663  29.874   5.386
 5412POPC   GL169865  14.503  29.892   5.783
 5412POPC   GL269866  14.430  30.220   5.765
 5412POPC   C1A69867  14.378  29.794   6.219
 5412POPC   D2A69868  14.595  29.695   6.604
 5412POPC   C3A69869  14.411  29.815   6.993
 5412POPC   C4A69870  14.186  29.991   7.317
 5412POPC   C1B69871  14.567  30.260   6.189
 5412POPC   C2B69872  14.395  30.202   6.603
 5412POPC   C3B69873  14.476  30.341   7.026
 5412POPC   C4B69874  14.675  30.122   7.351
 5413POPC   NC369875  32.042  41.270   5.320
 5413POPC   PO469876  32.065  40.553   5.359
 5413POPC   GL169877  32.371  40.650   5.703
 5413POPC   GL269878  32.179  40.901   5.845
 5413POPC   C1A69879  32.441  40.612   6.164
 5413POPC   D2A69880  32.228  40.578   6.552
 5413POPC   C3A69881  32.441  40.528   6.976
 5413POPC   C4A69882  32.498  40.647   7.435
 5413POPC   C1B69883  31.892  40.668   6.132
 5413POPC   C2B69884  31.735  40.661   6.579
 5413POPC   C3B69885  32.014  40.863   6.912
 5413POPC   C4B69886  32.115  40.968   7.320
 5414POPC   NC369887  39.535  29.369   5.512
 5414POPC   PO469888  39.653  28.648   5.360
 5414POPC   GL169889  39.543  28.908   5.762
 5414POPC   GL269890  39.204  28.809   5.944
 5414POPC   C1A69891  39.493  29.184   6.140
 5414POPC   D2A69892  39.349  29.328   6.536
 5414POPC   C3A69893  39.453  29.096   6.884
 5414POPC   C4A69894  39.381  29.255   7.298
 5414POPC   C1B69895  39.000  29.090   6.284
 5414POPC   C2B69896  38.913  29.134   6.757
 5414POPC   C3B69897  39.044  28.898   7.140
 5414POPC   C4B69898  38.825  28.839   7.559
 5415POPC   NC369899  25.634  19.090   5.512
 5415POPC   PO469900  26.311  19.038   5.376
 5415POPC   GL169901  26.239  18.960   5.785
 5415POPC   GL269902  25.953  18.734   5.816
 5415POPC   C1A69903  26.067  19.110   6.159
 5415POPC   D2A69904  25.837  19.056   6.481
 5415POPC   C3A69905  26.010  19.112   6.886
 5415POPC   C4A69906  26.334  18.964   7.182
 5415POPC   C1B69907  25.790  18.591   6.247
 5415POPC   C2B69908  25.964  18.614   6.697
 5415POPC   C3B69909  25.858  18.704   7.157
 5415POPC   C4B69910  25.667  18.704   7.608
 5416POPC   NC369911  25.227   9.407   5.414
 5416POPC   PO469912  25.141   8.736   5.508
 5416POPC   GL169913  25.185   9.015   5.861
 5416POPC   GL269914  25.497   9.194   5.848
 5416POPC   C1A69915  25.248   8.804   6.268
 5416POPC   D2A69916  25.379   8.546   6.637
 5416POPC   C3A69917  25.332   8.744   7.037
 5416POPC   C4A69918  25.155   8.782   7.481
 5416POPC   C1B69919  25.679   9.062   6.272
 5416POPC   C2B69920  25.518   9.130   6.717
 5416POPC   C3B69921  25.490   9.194   7.184
 5416POPC   C4B69922  25.503   9.149   7.638
 5417POPC   NC369923  19.437   5.157   5.374
 5417POPC   PO469924  19.922   4.923   5.757
 5417POPC   GL169925  19.754   5.302   5.945
 5417POPC   GL269926  19.433   5.266   5.884
 5417POPC   C1A69927  19.763   5.575   6.309
 5417POPC   D2A69928  19.623   5.537   6.730
 5417POPC   C3A69929  19.883   5.396   7.059
 5417POPC   C4A69930  20.076   5.320   7.452
 5417POPC   C1B69931  19.533   5.100   6.337
 5417POPC   C2B69932  19.566   5.026   6.794
 5417POPC   C3B69933  19.712   4.865   7.187
 5417POPC   C4B69934  19.540   4.657   7.556
 5418POPC   NC369935  28.336   6.023   5.384
 5418POPC   PO469936  28.337   5.466   5.852
 5418POPC   GL169937  28.497   5.864   5.846
 5418POPC   GL269938  28.197   6.047   5.868
 5418POPC   C1A69939  28.635   6.063   6.207
 5418POPC   D2A69940  28.662   5.807   6.591
 5418POPC   C3A69941  28.607   6.059   6.948
 5418POPC   C4A69942  28.297   6.038   7.258
 5418POPC   C1B69943  28.128   5.937   6.311
 5418POPC   C2B69944  28.153   5.867   6.743
 5418POPC   C3B69945  28.365   5.578   7.009
 5418POPC   C4B69946  28.142   5.569   7.383
 5419POPC   NC369947  23.633  38.411   5.455
 5419POPC   PO469948  24.182  38.025   5.428
 5419POPC   GL169949  23.907  38.206   5.836
 5419POPC   GL269950  23.525  38.132   5.856
 5419POPC   C1A69951  23.672  38.562   6.099
 5419POPC   D2A69952  23.510  38.578   6.543
 5419POPC   C3A69953  23.806  38.456   6.900
 5419POPC   C4A69954  24.152  38.586   7.151
 5419POPC   C1B69955  23.445  38.135   6.283
 5419POPC   C2B69956  23.544  38.076   6.694
 5419POPC   C3B69957  23.502  38.097   7.109
 5419POPC   C4B69958  23.340  38.267   7.470
 5420POPC   NC369959   7.746   2.947   5.620
 5420POPC   PO469960   7.309   2.528   5.340
 5420POPC   GL169961   7.299   2.711   5.792
 5420POPC   GL269962   7.166   2.996   5.961
 5420POPC   C1A69963   7.260   2.462   6.194
 5420POPC   D2A69964   7.294   2.435   6.641
 5420POPC   C3A69965   7.308   2.746   6.979
 5420POPC   C4A69966   7.308   2.538   7.375
 5420POPC   C1B69967   7.525   2.889   6.268
 5420POPC   C2B69968   7.741   2.763   6.653
 5420POPC   C3B69969   7.798   2.909   7.073
 5420POPC   C4B69970   7.564   2.957   7.434
 5421POPC   NC369971  10.589  31.697   5.421
 5421POPC   PO469972  10.212  31.094   5.569
 5421POPC   GL169973  10.330  31.412   5.881
 5421POPC   GL269974  10.543  31.711   5.922
 5421POPC   C1A69975  10.446  31.418   6.319
 5421POPC   D2A69976  10.532  31.563   6.715
 5421POPC   C3A69977  10.229  31.564   7.061
 5421POPC   C4A69978  10.201  31.447   7.546
 5421POPC   C1B69979  10.831  31.771   6.278
 5421POPC   C2B69980  10.979  31.860   6.712
 5421POPC   C3B69981  10.810  31.724   7.090
 5421POPC   C4B69982  10.630  31.363   7.293
 5422POPC   NC369983   5.892  30.995   5.340
 5422POPC   PO469984   5.740  30.369   5.519
 5422POPC   GL169985   5.818  30.707   5.789
 5422POPC   GL269986   5.514  30.929   5.754
 5422POPC   C1A69987   6.040  30.776   6.213
 5422POPC   D2A69988   6.087  30.981   6.644
 5422POPC   C3A69989   6.088  30.674   6.967
 5422POPC   C4A69990   5.938  30.577   7.370
 5422POPC   C1B69991   5.498  30.733   6.204
 5422POPC   C2B69992   5.653  30.686   6.669
 5422POPC   C3B69993   5.687  30.967   7.075
 5422POPC   C4B69994   5.707  30.993   7.560
 5423POPC   NC369995  27.352   2.813   5.103
 5423POPC   PO469996  28.112   2.839   5.119
 5423POPC   GL169997  27.836   2.743   5.686
 5423POPC   GL269998  27.513   2.696   5.753
 5423POPC   C1A69999  27.818   2.913   6.119
 5423POPC   D2A70000  27.842   2.737   6.541
 5423POPC   C3A70001  27.803   2.944   6.906
 5423POPC   C4A70002  27.624   2.861   7.262
 5423POPC   C1B70003  27.446   2.540   6.170
 5423POPC   C2B70004  27.498   2.365   6.563
 5423POPC   C3B70005  27.473   2.460   6.974
 5423POPC   C4B70006  27.073   2.535   7.153
 5424POPC   NC370007  34.878  33.426   5.450
 5424POPC   PO470008  35.442  33.088   5.420
 5424POPC   GL170009  35.404  33.081   5.858
 5424POPC   GL270010  35.103  33.227   5.847
 5424POPC   C1A70011  35.557  32.943   6.258
 5424POPC   D2A70012  35.837  32.961   6.615
 5424POPC   C3A70013  35.636  32.798   6.982
 5424POPC   C4A70014  35.438  32.959   7.337
 5424POPC   C1B70015  35.041  33.412   6.201
 5424POPC   C2B70016  35.229  33.229   6.571
 5424POPC   C3B70017  35.128  32.965   6.909
 5424POPC   C4B70018  34.936  33.094   7.277
 5425POPC   NC370019  26.553  23.143   5.335
 5425POPC   PO470020  25.971  22.829   5.293
 5425POPC   GL170021  25.984  22.675   5.717
 5425POPC   GL270022  26.242  22.819   5.912
 5425POPC   C1A70023  25.897  22.493   6.132
 5425POPC   D2A70024  25.724  22.655   6.550
 5425POPC   C3A70025  26.042  22.788   6.869
 5425POPC   C4A70026  25.979  23.006   7.300
 5425POPC   C1B70027  26.145  22.892   6.359
 5425POPC   C2B70028  26.191  23.233   6.660
 5425POPC   C3B70029  26.359  23.268   7.092
 5425POPC   C4B70030  26.284  23.361   7.547
 5426POPC   NC370031  10.658  14.392   5.346
 5426POPC   PO470032  10.008  14.499   5.359
 5426POPC   GL170033  10.237  14.350   5.726
 5426POPC   GL270034  10.575  14.490   5.846
 5426POPC   C1A70035  10.231  14.284   6.177
 5426POPC   D2A70036  10.450  14.568   6.451
 5426POPC   C3A70037  10.395  14.608   6.858
 5426POPC   C4A70038  10.245  14.288   7.135
 5426POPC   C1B70039  10.751  14.286   6.188
 5426POPC   C2B70040  10.982  14.430   6.540
 5426POPC   C3B70041  10.858  14.403   6.951
 5426POPC   C4B70042  10.674  14.615   7.264
 5427POPC   NC370043   3.038  18.234   5.319
 5427POPC   PO470044   2.564  18.674   5.419
 5427POPC   GL170045   2.812  18.423   5.752
 5427POPC   GL270046   2.583  18.129   5.824
 5427POPC   C1A70047   3.061  18.095   6.001
 5427POPC   D2A70048   2.941  17.883   6.428
 5427POPC   C3A70049   2.892  18.160   6.799
 5427POPC   C4A70050   2.667  18.311   7.181
 5427POPC   C1B70051   2.687  18.299   6.274
 5427POPC   C2B70052   2.584  18.541   6.644
 5427POPC   C3B70053   2.855  18.720   6.934
 5427POPC   C4B70054   2.967  18.716   7.358
 5428POPC   NC370055  30.190  18.330   5.531
 5428POPC   PO470056  29.500  18.365   5.435
 5428POPC   GL170057  29.612  18.282   5.820
 5428POPC   GL270058  29.769  17.979   5.736
 5428POPC   C1A70059  29.784  18.278   6.209
 5428POPC   D2A70060  29.645  18.368   6.622
 5428POPC   C3A70061  29.911  18.339   6.969
 5428POPC   C4A70062  30.183  18.510   7.292
 5428POPC   C1B70063  29.643  17.780   6.131
 5428POPC   C2B70064  29.789  17.878   6.559
 5428POPC   C3B70065  30.112  17.850   6.894
 5428POPC   C4B70066  30.055  17.989   7.303
 5429POPC   NC370067  13.475  28.917   5.429
 5429POPC   PO470068  14.029  29.257   5.572
 5429POPC   GL170069  13.673  29.138   5.892
 5429POPC   GL270070  13.432  28.889   5.931
 5429POPC   C1A70071  13.414  29.376   6.198
 5429POPC   D2A70072  13.547  29.403   6.592
 5429POPC   C3A70073  13.333  29.359   6.949
 5429POPC   C4A70074  13.646  29.321   7.210
 5429POPC   C1B70075  13.564  28.930   6.386
 5429POPC   C2B70076  13.488  28.898   6.826
 5429POPC   C3B70077  13.501  28.848   7.298
 5429POPC   C4B70078  13.495  28.792   7.754
 5430POPC   NC370079   5.221  39.793   5.538
 5430POPC   PO470080   5.047  40.456   5.492
 5430POPC   GL170081   4.875  40.192   5.865
 5430POPC   GL270082   4.755  39.817   5.874
 5430POPC   C1A70083   5.061  40.064   6.288
 5430POPC   D2A70084   5.256  39.980   6.708
 5430POPC   C3A70085   5.224  40.271   7.060
 5430POPC   C4A70086   5.074  40.309   7.491
 5430POPC   C1B70087   4.863  39.593   6.280
 5430POPC   C2B70088   4.819  39.679   6.732
 5430POPC   C3B70089   4.921  39.872   7.128
 5430POPC   C4B70090   5.289  39.853   7.456
 5431POPC   NC370091  15.414  10.288   5.172
 5431POPC   PO470092  15.066  10.840   5.459
 5431POPC   GL170093  15.236  10.661   5.829
 5431POPC   GL270094  15.389  10.372   5.809
 5431POPC   C1A70095  15.076  10.545   6.232
 5431POPC   D2A70096  15.233  10.458   6.646
 5431POPC   C3A70097  15.147  10.685   7.001
 5431POPC   C4A70098  14.970  10.622   7.370
 5431POPC   C1B70099  15.571  10.402   6.223
 5431POPC   C2B70100  15.723  10.300   6.638
 5431POPC   C3B70101  15.545  10.359   7.055
 5431POPC   C4B70102  15.428  10.458   7.485
 5432POPC   NC370103   6.917  23.887   5.544
 5432POPC   PO470104   7.372  23.319   5.469
 5432POPC   GL170105   7.338  23.684   5.830
 5432POPC   GL270106   7.067  23.895   6.015
 5432POPC   C1A70107   7.555  23.925   6.178
 5432POPC   D2A70108   7.568  23.774   6.604
 5432POPC   C3A70109   7.495  23.903   7.042
 5432POPC   C4A70110   7.681  23.557   7.328
 5432POPC   C1B70111   7.166  23.603   6.332
 5432POPC   C2B70112   7.096  23.631   6.774
 5432POPC   C3B70113   7.159  23.558   7.171
 5432POPC   C4B70114   6.915  23.561   7.465
 5433POPC   NC370115  29.520  27.354   5.407
 5433POPC   PO470116  29.374  27.939   5.153
 5433POPC   GL170117  29.111  27.630   5.558
 5433POPC   GL270118  29.346  27.500   5.840
 5433POPC   C1A70119  28.909  27.475   6.038
 5433POPC   D2A70120  29.049  27.483   6.496
 5433POPC   C3A70121  28.930  27.302   6.901
 5433POPC   C4A70122  28.960  27.572   7.259
 5433POPC   C1B70123  29.347  27.784   6.165
 5433POPC   C2B70124  29.427  27.878   6.567
 5433POPC   C3B70125  29.400  27.589   6.919
 5433POPC   C4B70126  29.402  27.815   7.295
 5434POPC   NC370127   9.650  16.981   5.327
 5434POPC   PO470128  10.226  17.032   5.554
 5434POPC   GL170129   9.893  16.708   5.720
 5434POPC   GL270130   9.544  16.598   5.756
 5434POPC   C1A70131   9.886  16.529   6.143
 5434POPC   D2A70132  10.114  16.775   6.438
 5434POPC   C3A70133   9.998  16.795   6.854
 5434POPC   C4A70134   9.784  16.738   7.243
 5434POPC   C1B70135   9.376  16.719   6.196
 5434POPC   C2B70136   9.255  16.768   6.690
 5434POPC   C3B70137   9.281  16.766   7.178
 5434POPC   C4B70138   9.411  16.842   7.622
 5435POPC   NC370139  38.640  33.057   5.578
 5435POPC   PO470140  38.102  33.352   5.556
 5435POPC   GL170141  38.316  33.202   5.941
 5435POPC   GL270142  38.696  33.223   6.038
 5435POPC   C1A70143  38.342  33.122   6.371
 5435POPC   D2A70144  38.368  33.090   6.775
 5435POPC   C3A70145  38.161  32.923   7.101
 5435POPC   C4A70146  38.247  33.260   7.378
 5435POPC   C1B70147  38.637  32.755   6.180
 5435POPC   C2B70148  38.473  32.617   6.591
 5435POPC   C3B70149  38.670  32.735   6.972
 5435POPC   C4B70150  38.626  32.908   7.363
 5436POPC   NC370151  24.588   2.966   5.592
 5436POPC   PO470152  24.927   2.491   5.463
 5436POPC   GL170153  24.745   2.529   5.880
 5436POPC   GL270154  24.378   2.586   5.884
 5436POPC   C1A70155  24.717   2.775   6.268
 5436POPC   D2A70156  24.890   2.847   6.691
 5436POPC   C3A70157  24.581   2.920   7.043
 5436POPC   C4A70158  24.436   2.626   7.368
 5436POPC   C1B70159  24.370   2.392   6.308
 5436POPC   C2B70160  24.507   2.484   6.746
 5436POPC   C3B70161  24.841   2.492   7.064
 5436POPC   C4B70162  24.867   2.321   7.447
 5437POPC   NC370163  29.877  40.213   5.623
 5437POPC   PO470164  30.433  40.583   5.540
 5437POPC   GL170165  30.130  40.631   5.879
 5437POPC   GL270166  29.755  40.673   5.833
 5437POPC   C1A70167  29.999  40.883   6.244
 5437POPC   D2A70168  29.817  40.808   6.636
 5437POPC   C3A70169  29.993  41.030   6.953
 5437POPC   C4A70170  30.314  41.012   7.258
 5437POPC   C1B70171  29.663  40.478   6.249
 5437POPC   C2B70172  29.614  40.360   6.714
 5437POPC   C3B70173  29.790  40.556   7.115
 5437POPC   C4B70174  29.872  40.444   7.577
 5438POPC   NC370175  31.812  14.553   5.568
 5438POPC   PO470176  32.524  14.644   5.558
 5438POPC   GL170177  32.254  14.355   5.786
 5438POPC   GL270178  31.883  14.256   5.960
 5438POPC   C1A70179  32.202  14.610   6.138
 5438POPC   D2A70180  31.949  14.488   6.441
 5438POPC   C3A70181  32.021  14.604   6.851
 5438POPC   C4A70182  32.126  14.354   7.186
 5438POPC   C1B70183  32.224  14.099   6.228
 5438POPC   C2B70184  32.574  13.947   6.524
 5438POPC   C3B70185  32.598  14.080   6.958
 5438POPC   C4B70186  32.484  14.049   7.389
 5439POPC   NC370187  16.507   9.412   5.671
 5439POPC   PO470188  16.702   8.806   5.371
 5439POPC   GL170189  16.693   8.975   5.812
 5439POPC   GL270190  16.950   9.204   5.948
 5439POPC   C1A70191  16.544   9.005   6.239
 5439POPC   D2A70192  16.726   8.813   6.582
 5439POPC   C3A70193  16.858   9.066   6.871
 5439POPC   C4A70194  16.751   8.974   7.288
 5439POPC   C1B70195  17.231   9.319   6.332
 5439POPC   C2B70196  17.359   9.288   6.795
 5439POPC   C3B70197  17.173   9.303   7.207
 5439POPC   C4B70198  16.989   9.541   7.549
 5440POPC   NC370199  33.159   2.387   5.341
 5440POPC   PO470200  32.695   2.862   5.169
 5440POPC   GL170201  32.953   2.700   5.649
 5440POPC   GL270202  32.825   2.434   5.780
 5440POPC   C1A70203  32.893   2.755   6.161
 5440POPC   D2A70204  33.137   2.825   6.530
 5440POPC   C3A70205  32.944   2.796   6.922
 5440POPC   C4A70206  33.156   2.772   7.283
 5440POPC   C1B70207  32.968   2.264   6.208
 5440POPC   C2B70208  32.959   2.348   6.622
 5440POPC   C3B70209  33.102   2.327   7.034
 5440POPC   C4B70210  32.862   2.394   7.426
 5441POPC   NC370211  25.533  14.864   5.491
 5441POPC   PO470212  24.881  15.196   5.441
 5441POPC   GL170213  25.185  15.148   5.771
 5441POPC   GL270214  25.090  14.844   5.961
 5441POPC   C1A70215  25.365  15.262   6.190
 5441POPC   D2A70216  25.507  15.158   6.632
 5441POPC   C3A70217  25.216  15.212   6.991
 5441POPC   C4A70218  25.044  15.650   7.023
 5441POPC   C1B70219  25.519  14.764   6.152
 5441POPC   C2B70220  25.714  14.703   6.562
 5441POPC   C3B70221  25.565  14.777   6.983
 5441POPC   C4B70222  25.566  15.040   7.370
 5442POPC   NC370223  29.473  39.739   5.456
 5442POPC   PO470224  29.444  39.136   5.422
 5442POPC   GL170225  29.371  39.307   5.836
 5442POPC   GL270226  29.136  39.597   5.831
 5442POPC   C1A70227  29.435  39.109   6.271
 5442POPC   D2A70228  29.319  39.320   6.644
 5442POPC   C3A70229  29.347  39.166   7.041
 5442POPC   C4A70230  29.256  39.362   7.395
 5442POPC   C1B70231  28.990  39.366   6.225
 5442POPC   C2B70232  28.814  39.241   6.654
 5442POPC   C3B70233  28.823  39.149   7.099
 5442POPC   C4B70234  28.738  39.433   7.462
 5443POPC   NC370235  37.222  43.484   5.527
 5443POPC   PO470236  36.915  44.072   5.435
 5443POPC   GL170237  37.016  43.872   5.851
 5443POPC   GL270238  36.798  43.587   5.815
 5443POPC   C1A70239  37.149  43.850   6.319
 5443POPC   D2A70240  37.250  43.822   6.767
 5443POPC   C3A70241  36.945  43.892   7.074
 5443POPC   C4A70242  36.642  44.196   7.204
 5443POPC   C1B70243  36.791  43.452   6.227
 5443POPC   C2B70244  36.777  43.604   6.645
 5443POPC   C3B70245  36.807  43.398   7.023
 5443POPC   C4B70246  36.673  43.415   7.431
 5444POPC   NC370247  17.470  22.672   5.217
 5444POPC   PO470248  18.158  22.946   5.265
 5444POPC   GL170249  18.195  22.962   5.747
 5444POPC   GL270250  18.270  23.296   5.811
 5444POPC   C1A70251  18.281  22.757   6.198
 5444POPC   D2A70252  18.531  22.688   6.614
 5444POPC   C3A70253  18.305  22.671   7.026
 5444POPC   C4A70254  18.502  22.612   7.418
 5444POPC   C1B70255  18.549  23.223   6.174
 5444POPC   C2B70256  18.651  23.221   6.629
 5444POPC   C3B70257  18.348  23.197   6.968
 5444POPC   C4B70258  17.934  23.269   7.110
 5445POPC   NC370259   9.153  44.255   5.489
 5445POPC   PO470260   8.893  43.629   5.451
 5445POPC   GL170261   8.960  43.874   5.778
 5445POPC   GL270262   8.686  44.052   5.776
 5445POPC   C1A70263   9.105  43.847   6.169
 5445POPC   D2A70264   8.908  43.578   6.441
 5445POPC   C3A70265   8.987  43.697   6.823
 5445POPC   C4A70266   9.014  43.731   7.238
 5445POPC   C1B70267   8.599  43.979   6.203
 5445POPC   C2B70268   8.665  44.130   6.622
 5445POPC   C3B70269   8.522  44.232   7.038
 5445POPC   C4B70270   8.390  44.024   7.403
 5446POPC   NC370271  14.902  22.242   5.444
 5446POPC   PO470272  15.544  21.920   5.368
 5446POPC   GL170273  15.299  21.996   5.785
 5446POPC   GL270274  14.953  21.835   5.784
 5446POPC   C1A70275  15.332  22.205   6.235
 5446POPC   D2A70276  15.026  22.353   6.582
 5446POPC   C3A70277  15.231  22.331   6.988
 5446POPC   C4A70278  15.550  22.026   7.125
 5446POPC   C1B70279  14.850  22.051   6.172
 5446POPC   C2B70280  14.715  21.925   6.593
 5446POPC   C3B70281  14.795  22.024   7.034
 5446POPC   C4B70282  14.662  22.161   7.438
 5447POPC   NC370283  39.920  27.018   5.419
 5447POPC   PO470284  39.793  26.360   5.505
 5447POPC   GL170285  39.828  26.663   5.817
 5447POPC   GL270286  40.153  26.718   5.780
 5447POPC   C1A70287  39.923  26.709   6.247
 5447POPC   D2A70288  40.186  26.652   6.600
 5447POPC   C3A70289  39.970  26.652   7.007
 5447POPC   C4A70290  39.946  26.592   7.459
 5447POPC   C1B70291  40.253  27.079   6.041
 5447POPC   C2B70292  40.067  27.167   6.413
 5447POPC   C3B70293  40.132  27.110   6.832
 5447POPC   C4B70294  40.368  27.124   7.210
 5448POPC   NC370295  24.001  36.779   5.425
 5448POPC   PO470296  23.443  37.084   5.193
 5448POPC   GL170297  23.616  36.941   5.696
 5448POPC   GL270298  23.542  36.679   5.942
 5448POPC   C1A70299  23.901  36.983   6.127
 5448POPC   D2A70300  24.055  36.912   6.571
 5448POPC   C3A70301  23.923  36.834   7.001
 5448POPC   C4A70302  23.878  36.913   7.458
 5448POPC   C1B70303  23.483  36.761   6.343
 5448POPC   C2B70304  23.643  36.553   6.666
 5448POPC   C3B70305  23.413  36.754   6.950
 5448POPC   C4B70306  23.303  36.842   7.320
 5449POPC   NC370307   8.840  43.177   5.430
 5449POPC   PO470308   9.354  42.865   5.538
 5449POPC   GL170309   9.062  42.960   5.852
 5449POPC   GL270310   8.997  43.323   5.913
 5449POPC   C1A70311   9.223  42.925   6.257
 5449POPC   D2A70312   9.158  43.116   6.652
 5449POPC   C3A70313   9.271  42.851   6.994
 5449POPC   C4A70314   9.144  42.947   7.389
 5449POPC   C1B70315   8.755  43.128   6.260
 5449POPC   C2B70316   8.645  43.202   6.690
 5449POPC   C3B70317   8.836  43.256   7.074
 5449POPC   C4B70318   8.873  43.342   7.533
 5450POPC   NC370319   2.455  29.058   5.580
 5450POPC   PO470320   1.928  29.430   5.273
 5450POPC   GL170321   2.006  29.269   5.727
 5450POPC   GL270322   2.020  28.929   5.901
 5450POPC   C1A70323   2.239  29.342   6.135
 5450POPC   D2A70324   2.037  29.294   6.546
 5450POPC   C3A70325   2.228  29.342   6.952
 5450POPC   C4A70326   2.015  29.323   7.368
 5450POPC   C1B70327   2.270  28.851   6.297
 5450POPC   C2B70328   2.260  28.861   6.750
 5450POPC   C3B70329   1.939  28.921   7.049
 5450POPC   C4B70330   1.958  28.833   7.501
 5451POPC   NC370331  22.169  40.678   5.405
 5451POPC   PO470332  21.871  41.266   5.432
 5451POPC   GL170333  22.107  41.065   5.827
 5451POPC   GL270334  22.297  40.765   5.872
 5451POPC   C1A70335  22.307  41.117   6.246
 5451POPC   D2A70336  22.093  41.040   6.632
 5451POPC   C3A70337  22.106  40.731   6.934
 5451POPC   C4A70338  22.042  40.876   7.333
 5451POPC   C1B70339  22.410  40.615   6.259
 5451POPC   C2B70340  22.523  40.756   6.640
 5451POPC   C3B70341  22.499  41.069   6.971
 5451POPC   C4B70342  22.618  40.922   7.363
 5452POPC   NC370343  23.762  35.380   5.476
 5452POPC   PO470344  23.465  35.845   5.164
 5452POPC   GL170345  23.252  35.523   5.582
 5452POPC   GL270346  23.452  35.241   5.816
 5452POPC   C1A70347  23.203  35.552   6.100
 5452POPC   D2A70348  23.568  35.531   6.414
 5452POPC   C3A70349  23.588  35.545   6.884
 5452POPC   C4A70350  23.827  35.353   7.231
 5452POPC   C1B70351  23.447  35.045   6.210
 5452POPC   C2B70352  23.312  34.959   6.616
 5452POPC   C3B70353  23.480  34.991   7.025
 5452POPC   C4B70354  23.377  34.918   7.465
 5453POPC   NC370355  10.663  19.300   5.061
 5453POPC   PO470356  10.364  18.916   5.643
 5453POPC   GL170357  10.446  19.153   5.947
 5453POPC   GL270358  10.216  19.426   5.823
 5453POPC   C1A70359  10.736  18.970   6.231
 5453POPC   D2A70360  10.675  18.632   6.520
 5453POPC   C3A70361  10.493  18.814   6.865
 5453POPC   C4A70362  10.674  18.864   7.247
 5453POPC   C1B70363  10.257  19.522   6.231
 5453POPC   C2B70364  10.349  19.187   6.499
 5453POPC   C3B70365  10.203  19.236   6.882
 5453POPC   C4B70366  10.276  19.208   7.281
 5454POPC   NC370367  29.494  12.656   5.596
 5454POPC   PO470368  29.143  13.186   5.433
 5454POPC   GL170369  29.049  13.033   5.838
 5454POPC   GL270370  29.028  12.661   5.854
 5454POPC   C1A70371  29.069  13.224   6.254
 5454POPC   D2A70372  29.156  13.053   6.670
 5454POPC   C3A70373  28.809  13.026   6.953
 5454POPC   C4A70374  28.733  13.111   7.385
 5454POPC   C1B70375  29.226  12.718   6.265
 5454POPC   C2B70376  29.510  12.675   6.643
 5454POPC   C3B70377  29.357  12.757   7.051
 5454POPC   C4B70378  28.999  12.656   7.268
 5455POPC   NC370379  10.421  21.133   5.509
 5455POPC   PO470380  10.130  21.767   5.465
 5455POPC   GL170381  10.249  21.562   5.842
 5455POPC   GL270382   9.961  21.321   5.823
 5455POPC   C1A70383  10.561  21.588   6.223
 5455POPC   D2A70384  10.742  21.689   6.669
 5455POPC   C3A70385  10.537  21.585   7.105
 5455POPC   C4A70386  10.479  21.424   7.547
 5455POPC   C1B70387  10.133  21.280   6.255
 5455POPC   C2B70388  10.262  20.959   6.533
 5455POPC   C3B70389  10.097  20.966   6.955
 5455POPC   C4B70390  10.097  21.319   7.226
 5456POPC   NC370391  31.183  35.218   5.073
 5456POPC   PO470392  31.726  35.519   5.541
 5456POPC   GL170393  31.463  35.507   5.900
 5456POPC   GL270394  31.542  35.209   5.922
 5456POPC   C1A70395  31.481  35.561   6.344
 5456POPC   D2A70396  31.812  35.427   6.610
 5456POPC   C3A70397  31.643  35.376   7.010
 5456POPC   C4A70398  31.223  35.512   7.128
 5456POPC   C1B70399  31.553  35.053   6.285
 5456POPC   C2B70400  31.355  35.120   6.656
 5456POPC   C3B70401  31.423  34.923   7.008
 5456POPC   C4B70402  31.521  35.025   7.372
 5457POPC   NC370403  29.293  14.541   5.564
 5457POPC   PO470404  28.735  14.254   5.455
 5457POPC   GL170405  28.914  14.250   5.887
 5457POPC   GL270406  29.090  14.578   6.030
 5457POPC   C1A70407  28.906  14.248   6.352
 5457POPC   D2A70408  29.189  14.510   6.589
 5457POPC   C3A70409  29.279  14.343   6.983
 5457POPC   C4A70410  29.119  14.067   7.306
 5457POPC   C1B70411  29.528  14.547   6.194
 5457POPC   C2B70412  29.699  14.681   6.590
 5457POPC   C3B70413  29.600  14.758   6.998
 5457POPC   C4B70414  29.549  14.535   7.369
 5458POPC   NC370415  13.366  27.107   5.434
 5458POPC   PO470416  13.825  26.638   5.538
 5458POPC   GL170417  13.807  26.753   5.937
 5458POPC   GL270418  13.467  26.867   5.942
 5458POPC   C1A70419  13.673  26.584   6.332
 5458POPC   D2A70420  13.801  26.655   6.737
 5458POPC   C3A70421  13.508  26.722   7.034
 5458POPC   C4A70422  13.378  26.572   7.391
 5458POPC   C1B70423  13.654  27.112   6.307
 5458POPC   C2B70424  13.647  27.135   6.755
 5458POPC   C3B70425  13.644  27.171   7.212
 5458POPC   C4B70426  13.274  27.077   7.424
 5459POPC   NC370427   1.733  20.815   5.214
 5459POPC   PO470428   2.132  20.362   5.479
 5459POPC   GL170429   1.908  20.564   5.808
 5459POPC   GL270430   1.831  20.903   5.769
 5459POPC   C1A70431   2.098  20.712   6.197
 5459POPC   D2A70432   2.259  20.860   6.589
 5459POPC   C3A70433   2.292  20.551   6.951
 5459POPC   C4A70434   2.060  20.467   7.330
 5459POPC   C1B70435   1.686  21.002   6.210
 5459POPC   C2B70436   1.724  20.891   6.655
 5459POPC   C3B70437   1.803  20.828   7.088
 5459POPC   C4B70438   1.714  20.777   7.554
 5460POPC   NC370439   4.521  17.207   5.194
 5460POPC   PO470440   4.137  16.627   5.307
 5460POPC   GL170441   4.268  16.467   5.719
 5460POPC   GL270442   4.455  16.155   5.688
 5460POPC   C1A70443   4.209  16.690   6.130
 5460POPC   D2A70444   4.037  16.899   6.509
 5460POPC   C3A70445   4.318  16.868   6.849
 5460POPC   C4A70446   4.159  16.914   7.263
 5460POPC   C1B70447   4.656  16.261   6.057
 5460POPC   C2B70448   4.620  16.511   6.394
 5460POPC   C3B70449   4.629  16.470   6.851
 5460POPC   C4B70450   4.427  16.501   7.237
 5461POPC   NC370451   9.119   0.022   5.506
 5461POPC   PO470452   8.744  44.473   5.448
 5461POPC   GL170453   8.887  44.511   5.852
 5461POPC   GL270454   9.179  44.337   5.992
 5461POPC   C1A70455   8.747  44.519   6.250
 5461POPC   D2A70456   8.753  44.922   6.441
 5461POPC   C3A70457   8.808  44.974   6.893
 5461POPC   C4A70458   8.782  44.723   7.273
 5461POPC   C1B70459   9.177  44.800   6.158
 5461POPC   C2B70460   9.228  44.957   6.593
 5461POPC   C3B70461   9.283  44.796   7.021
 5461POPC   C4B70462   9.299  44.979   7.411
 5462POPC   NC370463  32.823  32.217   5.261
 5462POPC   PO470464  33.347  32.529   5.410
 5462POPC   GL170465  33.034  32.461   5.703
 5462POPC   GL270466  32.992  32.109   5.745
 5462POPC   C1A70467  32.906  32.581   6.092
 5462POPC   D2A70468  32.914  32.322   6.459
 5462POPC   C3A70469  33.000  32.429   6.899
 5462POPC   C4A70470  32.777  32.179   7.196
 5462POPC   C1B70471  33.265  32.014   6.113
 5462POPC   C2B70472  33.132  31.820   6.487
 5462POPC   C3B70473  33.060  31.887   6.886
 5462POPC   C4B70474  33.191  31.858   7.291
 5463POPC   NC370475   3.602  23.399   5.259
 5463POPC   PO470476   3.150  23.879   5.358
 5463POPC   GL170477   3.485  23.679   5.682
 5463POPC   GL270478   3.445  23.304   5.749
 5463POPC   C1A70479   3.713  23.571   6.113
 5463POPC   D2A70480   3.500  23.624   6.526
 5463POPC   C3A70481   3.725  23.658   6.906
 5463POPC   C4A70482   3.647  23.658   7.352
 5463POPC   C1B70483   3.217  23.505   6.093
 5463POPC   C2B70484   3.067  23.362   6.498
 5463POPC   C3B70485   3.123  23.402   6.917
 5463POPC   C4B70486   3.154  23.668   7.246
 5464POPC   NC370487  10.287  13.707   5.584
 5464POPC   PO470488  10.899  13.995   5.424
 5464POPC   GL170489  10.875  13.777   5.857
 5464POPC   GL270490  10.669  13.456   5.869
 5464POPC   C1A70491  10.678  13.788   6.285
 5464POPC   D2A70492  10.454  14.044   6.610
 5464POPC   C3A70493  10.620  13.944   7.008
 5464POPC   C4A70494  10.656  14.126   7.413
 5464POPC   C1B70495  10.430  13.346   6.281
 5464POPC   C2B70496  10.387  13.502   6.726
 5464POPC   C3B70497  10.492  13.474   7.177
 5464POPC   C4B70498  10.323  13.257   7.544
 5465POPC   NC370499  43.213  27.231   5.422
 5465POPC   PO470500  42.934  26.627   5.559
 5465POPC   GL170501  42.979  26.988   5.846
 5465POPC   GL270502  43.346  26.942   5.829
 5465POPC   C1A70503  42.903  27.046   6.308
 5465POPC   D2A70504  42.994  26.732   6.615
 5465POPC   C3A70505  43.110  26.827   7.045
 5465POPC   C4A70506  42.753  26.857   7.303
 5465POPC   C1B70507  43.411  27.083   6.238
 5465POPC   C2B70508  43.380  27.049   6.645
 5465POPC   C3B70509  43.427  27.228   6.988
 5465POPC   C4B70510  43.466  27.086   7.403
 5466POPC   NC370511  21.717  13.975   5.502
 5466POPC   PO470512  21.139  13.706   5.566
 5466POPC   GL170513  21.452  13.653   5.941
 5466POPC   GL270514  21.767  13.840   5.997
 5466POPC   C1A70515  21.394  13.452   6.361
 5466POPC   D2A70516  21.300  13.415   6.807
 5466POPC   C3A70517  21.298  13.778   7.095
 5466POPC   C4A70518  21.248  13.865   7.567
 5466POPC   C1B70519  21.886  13.486   6.285
 5466POPC   C2B70520  21.807  13.495   6.722
 5466POPC   C3B70521  21.702  13.439   7.146
 5466POPC   C4B70522  21.710  13.783   7.389
 5467POPC   NC370523   0.869  25.641   5.191
 5467POPC   PO470524   0.269  25.663   5.460
 5467POPC   GL170525   0.515  25.529   5.821
 5467POPC   GL270526   0.315  25.793   5.959
 5467POPC   C1A70527   0.551  25.266   6.190
 5467POPC   D2A70528   0.748  25.099   6.549
 5467POPC   C3A70529   0.618  25.280   6.931
 5467POPC   C4A70530   0.574  25.132   7.327
 5467POPC   C1B70531   0.319  25.686   6.356
 5467POPC   C2B70532   0.309  25.670   6.790
 5467POPC   C3B70533   0.241  25.706   7.184
 5467POPC   C4B70534   0.222  25.488   7.564
 5468POPC   NC370535   3.768  25.216   5.368
 5468POPC   PO470536   3.352  24.722   5.233
 5468POPC   GL170537   3.357  24.928   5.710
 5468POPC   GL270538   3.442  25.270   5.769
 5468POPC   C1A70539   3.431  24.974   6.193
 5468POPC   D2A70540   3.717  25.146   6.561
 5468POPC   C3A70541   3.580  25.001   7.010
 5468POPC   C4A70542   3.553  25.148   7.465
 5468POPC   C1B70543   3.458  25.509   6.154
 5468POPC   C2B70544   3.320  25.456   6.565
 5468POPC   C3B70545   3.513  25.490   6.939
 5468POPC   C4B70546   3.434  25.640   7.307
 5469POPC   NC370547   1.455  12.245   5.496
 5469POPC   PO470548   0.810  12.124   5.388
 5469POPC   GL170549   1.056  11.965   5.750
 5469POPC   GL270550   1.379  11.798   5.769
 5469POPC   C1A70551   1.226  12.241   6.098
 5469POPC   D2A70552   1.043  12.303   6.500
 5469POPC   C3A70553   1.057  12.228   6.936
 5469POPC   C4A70554   1.370  12.324   7.255
 5469POPC   C1B70555   1.241  11.764   6.223
 5469POPC   C2B70556   1.411  11.949   6.607
 5469POPC   C3B70557   1.330  11.814   7.042
 5469POPC   C4B70558   0.923  11.756   7.257
 5470POPC   NC370559   5.346   6.144   5.662
 5470POPC   PO470560   5.997   6.167   5.440
 5470POPC   GL170561   5.987   5.992   5.868
 5470POPC   GL270562   5.873   5.635   5.869
 5470POPC   C1A70563   5.930   6.180   6.297
 5470POPC   D2A70564   6.140   6.046   6.671
 5470POPC   C3A70565   6.062   6.091   7.082
 5470POPC   C4A70566   6.014   5.692   7.270
 5470POPC   C1B70567   5.620   5.764   6.223
 5470POPC   C2B70568   5.636   5.884   6.662
 5470POPC   C3B70569   5.549   5.793   7.084
 5470POPC   C4B70570   5.644   6.082   7.376
 5471POPC   NC370571  11.062  24.311   5.324
 5471POPC   PO470572  11.337  24.897   5.306
 5471POPC   GL170573  11.314  24.667   5.716
 5471POPC   GL270574  11.150  24.329   5.816
 5471POPC   C1A70575  11.292  24.680   6.161
 5471POPC   D2A70576  10.994  24.638   6.486
 5471POPC   C3A70577  11.114  24.526   6.918
 5471POPC   C4A70578  11.223  24.673   7.340
 5471POPC   C1B70579  11.262  24.167   6.213
 5471POPC   C2B70580  11.454  24.130   6.621
 5471POPC   C3B70581  11.239  24.035   6.984
 5471POPC   C4B70582  11.064  24.202   7.334
 5472POPC   NC370583  16.398   1.127   5.400
 5472POPC   PO470584  15.684   1.442   5.411
 5472POPC   GL170585  15.734   1.125   5.761
 5472POPC   GL270586  16.091   1.012   5.799
 5472POPC   C1A70587  15.794   1.140   6.225
 5472POPC   D2A70588  15.909   1.439   6.554
 5472POPC   C3A70589  15.926   1.285   6.972
 5472POPC   C4A70590  15.838   1.381   7.390
 5472POPC   C1B70591  16.192   0.792   6.187
 5472POPC   C2B70592  16.106   0.919   6.618
 5472POPC   C3B70593  16.137   0.825   7.061
 5472POPC   C4B70594  15.964   0.803   7.510
 5473POPC   NC370595  11.557  22.265   5.122
 5473POPC   PO470596  10.955  22.331   5.489
 5473POPC   GL170597  11.082  22.195   5.885
 5473POPC   GL270598  11.294  21.932   5.821
 5473POPC   C1A70599  11.317  22.249   6.255
 5473POPC   D2A70600  11.504  22.340   6.677
 5473POPC   C3A70601  11.293  22.306   7.084
 5473POPC   C4A70602  11.473  22.371   7.516
 5473POPC   C1B70603  11.089  21.776   6.218
 5473POPC   C2B70604  11.202  21.937   6.638
 5473POPC   C3B70605  11.450  21.823   6.998
 5473POPC   C4B70606  11.360  21.881   7.413
 5474POPC   NC370607  15.778   9.834   5.615
 5474POPC   PO470608  16.386   9.663   5.307
 5474POPC   GL170609  16.310   9.879   5.764
 5474POPC   GL270610  16.273  10.224   5.747
 5474POPC   C1A70611  16.326   9.753   6.244
 5474POPC   D2A70612  16.368   9.498   6.649
 5474POPC   C3A70613  16.049   9.512   6.949
 5474POPC   C4A70614  16.118   9.476   7.352
 5474POPC   C1B70615  16.058  10.174   6.162
 5474POPC   C2B70616  16.238  10.231   6.595
 5474POPC   C3B70617  16.184  10.068   7.040
 5474POPC   C4B70618  15.782   9.941   7.246
 5475POPC   NC370619  35.720   0.768   5.447
 5475POPC   PO470620  35.907   1.421   5.293
 5475POPC   GL170621  35.964   1.226   5.715
 5475POPC   GL270622  35.869   0.957   5.951
 5475POPC   C1A70623  36.158   1.351   6.105
 5475POPC   D2A70624  36.226   1.400   6.549
 5475POPC   C3A70625  36.122   1.080   6.834
 5475POPC   C4A70626  36.142   1.189   7.253
 5475POPC   C1B70627  36.189   0.866   6.313
 5475POPC   C2B70628  36.417   0.653   6.685
 5475POPC   C3B70629  36.445   0.763   7.157
 5475POPC   C4B70630  36.219   0.844   7.577
 5476POPC   NC370631  39.120  18.694   5.314
 5476POPC   PO470632  39.400  19.284   5.249
 5476POPC   GL170633  39.310  19.187   5.702
 5476POPC   GL270634  39.247  18.863   5.776
 5476POPC   C1A70635  39.101  19.238   6.148
 5476POPC   D2A70636  38.926  19.239   6.599
 5476POPC   C3A70637  39.091  19.411   6.989
 5476POPC   C4A70638  39.251  19.172   7.312
 5476POPC   C1B70639  39.092  18.722   6.163
 5476POPC   C2B70640  39.205  18.835   6.560
 5476POPC   C3B70641  39.086  18.837   6.976
 5476POPC   C4B70642  39.246  18.630   7.356
 5477POPC   NC370643   6.775   7.096   5.347
 5477POPC   PO470644   6.543   7.687   5.411
 5477POPC   GL170645   6.588   7.416   5.727
 5477POPC   GL270646   6.886   7.575   5.821
 5477POPC   C1A70647   6.431   7.433   6.161
 5477POPC   D2A70648   6.454   7.698   6.547
 5477POPC   C3A70649   6.535   7.415   6.889
 5477POPC   C4A70650   6.673   7.193   7.271
 5477POPC   C1B70651   6.841   7.741   6.217
 5477POPC   C2B70652   6.945   7.636   6.644
 5477POPC   C3B70653   7.014   7.534   7.058
 5477POPC   C4B70654   7.105   7.558   7.487
 5478POPC   NC370655  28.024  23.847   5.482
 5478POPC   PO470656  28.649  23.526   5.423
 5478POPC   GL170657  28.628  23.515   5.877
 5478POPC   GL270658  28.491  23.857   5.955
 5478POPC   C1A70659  28.721  23.594   6.329
 5478POPC   D2A70660  28.460  23.581   6.677
 5478POPC   C3A70661  28.570  23.863   6.998
 5478POPC   C4A70662  28.721  23.843   7.405
 5478POPC   C1B70663  28.205  23.632   6.222
 5478POPC   C2B70664  27.968  23.715   6.611
 5478POPC   C3B70665  28.082  23.677   7.037
 5478POPC   C4B70666  28.283  23.624   7.391
 5479POPC   NC370667  36.758  28.303   5.335
 5479POPC   PO470668  37.103  28.895   5.229
 5479POPC   GL170669  36.988  28.620   5.675
 5479POPC   GL270670  37.124  28.266   5.760
 5479POPC   C1A70671  36.803  28.434   6.111
 5479POPC   D2A70672  36.804  28.549   6.586
 5479POPC   C3A70673  36.900  28.411   7.037
 5479POPC   C4A70674  36.821  28.367   7.519
 5479POPC   C1B70675  37.212  28.121   6.234
 5479POPC   C2B70676  37.206  28.125   6.719
 5479POPC   C3B70677  37.333  28.143   7.170
 5479POPC   C4B70678  37.278  28.156   7.635
 5480POPC   NC370679  22.953   7.151   5.363
 5480POPC   PO470680  22.846   7.790   5.311
 5480POPC   GL170681  22.972   7.576   5.715
 5480POPC   GL270682  22.710   7.370   5.821
 5480POPC   C1A70683  23.083   7.676   6.159
 5480POPC   D2A70684  22.904   7.717   6.593
 5480POPC   C3A70685  22.910   7.556   7.019
 5480POPC   C4A70686  23.199   7.516   7.383
 5480POPC   C1B70687  22.866   7.234   6.234
 5480POPC   C2B70688  22.842   7.102   6.650
 5480POPC   C3B70689  23.002   7.071   7.045
 5480POPC   C4B70690  22.769   7.196   7.388
 5481POPC   NC370691   9.140  30.662   5.372
 5481POPC   PO470692   8.528  30.485   5.324
 5481POPC   GL170693   8.783  30.545   5.761
 5481POPC   GL270694   8.979  30.858   5.846
 5481POPC   C1A70695   8.851  30.561   6.251
 5481POPC   D2A70696   9.001  30.470   6.708
 5481POPC   C3A70697   8.871  30.697   7.148
 5481POPC   C4A70698   8.667  30.654   7.610
 5481POPC   C1B70699   9.077  31.072   6.264
 5481POPC   C2B70700   9.315  30.960   6.631
 5481POPC   C3B70701   9.470  30.605   6.834
 5481POPC   C4B70702   9.339  30.436   7.226
 5482POPC   NC370703  42.955  38.325   5.543
 5482POPC   PO470704  43.093  38.876   5.510
 5482POPC   GL170705  43.405  38.717   5.828
 5482POPC   GL270706  43.411  38.340   5.934
 5482POPC   C1A70707  43.284  38.742   6.265
 5482POPC   D2A70708  43.057  38.548   6.616
 5482POPC   C3A70709  43.283  38.557   7.010
 5482POPC   C4A70710  43.390  38.899   7.314
 5482POPC   C1B70711  43.045  38.187   6.199
 5482POPC   C2B70712  42.772  38.134   6.561
 5482POPC   C3B70713  42.957  38.131   6.964
 5482POPC   C4B70714  42.730  38.161   7.325
 5483POPC   NC370715  16.221  31.064   5.609
 5483POPC   PO470716  16.665  31.508   5.285
 5483POPC   GL170717  16.471  31.546   5.760
 5483POPC   GL270718  16.425  31.237   6.037
 5483POPC   C1A70719  16.740  31.622   6.139
 5483POPC   D2A70720  16.873  31.574   6.581
 5483POPC   C3A70721  16.679  31.631   6.989
 5483POPC   C4A70722  16.910  31.738   7.361
 5483POPC   C1B70723  16.805  31.064   6.264
 5483POPC   C2B70724  17.049  31.075   6.647
 5483POPC   C3B70725  16.835  30.994   7.015
 5483POPC   C4B70726  16.619  31.228   7.301
 5484POPC   NC370727  32.034  30.104   5.351
 5484POPC   PO470728  32.391  29.569   5.382
 5484POPC   GL170729  32.161  29.727   5.764
 5484POPC   GL270730  31.998  30.057   5.854
 5484POPC   C1A70731  32.371  29.906   6.155
 5484POPC   D2A70732  32.561  30.058   6.531
 5484POPC   C3A70733  32.408  29.918   6.901
 5484POPC   C4A70734  32.161  29.674   7.211
 5484POPC   C1B70735  32.046  30.302   6.252
 5484POPC   C2B70736  32.193  30.415   6.660
 5484POPC   C3B70737  32.215  30.343   7.092
 5484POPC   C4B70738  32.069  30.147   7.395
 5485POPC   NC370739   6.982   8.069   5.447
 5485POPC   PO470740   6.574   8.540   5.151
 5485POPC   GL170741   6.432   8.344   5.619
 5485POPC   GL270742   6.658   8.088   5.842
 5485POPC   C1A70743   6.363   8.398   6.130
 5485POPC   D2A70744   6.512   8.422   6.600
 5485POPC   C3A70745   6.494   8.062   6.918
 5485POPC   C4A70746   6.224   8.012   7.273
 5485POPC   C1B70747   6.877   8.248   6.251
 5485POPC   C2B70748   6.972   8.140   6.700
 5485POPC   C3B70749   6.970   8.071   7.160
 5485POPC   C4B70750   6.995   8.471   7.429
 5486POPC   NC370751  22.729  43.914   5.060
 5486POPC   PO470752  23.095  43.618   5.533
 5486POPC   GL170753  23.076  43.867   5.876
 5486POPC   GL270754  23.377  44.076   5.907
 5486POPC   C1A70755  22.915  43.776   6.279
 5486POPC   D2A70756  23.152  43.742   6.641
 5486POPC   C3A70757  22.934  43.920   6.958
 5486POPC   C4A70758  22.927  43.854   7.363
 5486POPC   C1B70759  23.268  44.159   6.338
 5486POPC   C2B70760  23.372  44.201   6.790
 5486POPC   C3B70761  23.360  44.083   7.231
 5486POPC   C4B70762  23.265  44.181   7.660
 5487POPC   NC370763   8.059   1.608   5.592
 5487POPC   PO470764   8.464   1.199   5.245
 5487POPC   GL170765   8.482   1.157   5.700
 5487POPC   GL270766   8.139   1.161   5.818
 5487POPC   C1A70767   8.493   1.367   6.136
 5487POPC   D2A70768   8.194   1.475   6.486
 5487POPC   C3A70769   8.292   1.452   6.945
 5487POPC   C4A70770   8.326   1.258   7.364
 5487POPC   C1B70771   7.835   1.314   6.128
 5487POPC   C2B70772   7.740   1.213   6.535
 5487POPC   C3B70773   7.778   1.357   6.945
 5487POPC   C4B70774   7.811   1.300   7.367
 5488POPC   NC370775  17.868   5.887   5.559
 5488POPC   PO470776  18.460   5.570   5.403
 5488POPC   GL170777  18.442   5.792   5.812
 5488POPC   GL270778  18.223   6.050   5.898
 5488POPC   C1A70779  18.546   5.903   6.264
 5488POPC   D2A70780  18.639   5.785   6.695
 5488POPC   C3A70781  18.603   6.066   7.046
 5488POPC   C4A70782  18.587   6.006   7.521
 5488POPC   C1B70783  18.033   5.899   6.283
 5488POPC   C2B70784  17.869   5.718   6.660
 5488POPC   C3B70785  17.912   5.869   7.070
 5488POPC   C4B70786  18.147   6.143   7.240
 5489POPC   NC370787  24.811  19.396   5.555
 5489POPC   PO470788  24.265  18.965   5.461
 5489POPC   GL170789  24.365  19.265   5.782
 5489POPC   GL270790  24.648  19.073   5.894
 5489POPC   C1A70791  24.415  19.450   6.197
 5489POPC   D2A70792  24.610  19.272   6.558
 5489POPC   C3A70793  24.510  19.393   6.983
 5489POPC   C4A70794  24.516  19.158   7.372
 5489POPC   C1B70795  24.380  18.924   6.195
 5489POPC   C2B70796  24.351  18.798   6.581
 5489POPC   C3B70797  24.522  18.851   6.958
 5489POPC   C4B70798  24.392  18.643   7.316
 5490POPC   NC370799  26.623  20.175   5.608
 5490POPC   PO470800  26.943  19.615   5.362
 5490POPC   GL170801  26.871  19.747   5.795
 5490POPC   GL270802  27.075  20.003   5.873
 5490POPC   C1A70803  26.749  19.709   6.251
 5490POPC   D2A70804  26.889  19.742   6.703
 5490POPC   C3A70805  26.728  19.745   7.125
 5490POPC   C4A70806  26.795  19.725   7.586
 5490POPC   C1B70807  27.045  20.138   6.290
 5490POPC   C2B70808  27.290  20.059   6.656
 5490POPC   C3B70809  27.183  20.014   7.101
 5490POPC   C4B70810  26.848  20.173   7.376
 5491POPC   NC370811   5.795  31.678   5.455
 5491POPC   PO470812   6.258  31.223   5.476
 5491POPC   GL170813   5.959  31.201   5.835
 5491POPC   GL270814   5.676  31.430   5.860
 5491POPC   C1A70815   5.800  31.215   6.275
 5491POPC   D2A70816   5.711  31.506   6.587
 5491POPC   C3A70817   6.072  31.483   6.862
 5491POPC   C4A70818   6.156  31.156   7.167
 5491POPC   C1B70819   5.513  31.765   6.142
 5491POPC   C2B70820   5.419  31.969   6.550
 5491POPC   C3B70821   5.524  31.802   6.964
 5491POPC   C4B70822   5.743  31.488   7.239
 5492POPC   NC370823  19.087  29.568   5.475
 5492POPC   PO470824  19.522  29.031   5.487
 5492POPC   GL170825  19.226  29.064   5.836
 5492POPC   GL270826  18.864  29.180   5.849
 5492POPC   C1A70827  19.204  29.172   6.245
 5492POPC   D2A70828  19.172  29.239   6.652
 5492POPC   C3A70829  18.907  28.986   6.857
 5492POPC   C4A70830  18.858  28.985   7.273
 5492POPC   C1B70831  18.790  29.483   6.229
 5492POPC   C2B70832  18.803  29.594   6.692
 5492POPC   C3B70833  18.597  29.389   7.064
 5492POPC   C4B70834  18.394  28.947   7.072
 5493POPC   NC370835  36.231  42.523   5.330
 5493POPC   PO470836  35.839  41.932   5.488
 5493POPC   GL170837  36.036  42.254   5.781
 5493POPC   GL270838  35.926  42.630   5.735
 5493POPC   C1A70839  36.033  42.225   6.249
 5493POPC   D2A70840  35.883  41.996   6.619
 5493POPC   C3A70841  36.021  42.187   6.999
 5493POPC   C4A70842  36.264  42.009   7.302
 5493POPC   C1B70843  36.250  42.666   6.038
 5493POPC   C2B70844  36.252  42.682   6.471
 5493POPC   C3B70845  36.471  42.679   6.859
 5493POPC   C4B70846  36.482  42.457   7.247
 5494POPC   NC370847  33.634  18.242   5.456
 5494POPC   PO470848  34.244  18.190   5.461
 5494POPC   GL170849  33.974  18.245   5.832
 5494POPC   GL270850  33.795  18.578   5.867
 5494POPC   C1A70851  33.946  18.319   6.281
 5494POPC   D2A70852  33.593  18.183   6.571
 5494POPC   C3A70853  33.726  18.012   6.972
 5494POPC   C4A70854  34.076  18.035   7.275
 5494POPC   C1B70855  33.539  18.635   6.274
 5494POPC   C2B70856  33.533  18.658   6.743
 5494POPC   C3B70857  33.600  18.465   7.185
 5494POPC   C4B70858  33.336  18.391   7.569
 5495POPC   NC370859  36.207  14.148   5.320
 5495POPC   PO470860  36.208  13.431   5.189
 5495POPC   GL170861  36.070  13.568   5.640
 5495POPC   GL270862  36.255  13.867   5.780
 5495POPC   C1A70863  35.901  13.509   6.090
 5495POPC   D2A70864  36.153  13.486   6.490
 5495POPC   C3A70865  36.037  13.641   6.916
 5495POPC   C4A70866  35.967  13.434   7.296
 5495POPC   C1B70867  36.120  13.956   6.217
 5495POPC   C2B70868  36.319  13.971   6.625
 5495POPC   C3B70869  36.285  14.108   7.046
 5495POPC   C4B70870  36.392  14.003   7.454
 5496POPC   NC370871  31.912  38.899   5.347
 5496POPC   PO470872  31.251  39.070   5.444
 5496POPC   GL170873  31.196  39.252   5.847
 5496POPC   GL270874  31.541  39.339   5.997
 5496POPC   C1A70875  31.205  39.188   6.304
 5496POPC   D2A70876  31.524  39.160   6.596
 5496POPC   C3A70877  31.405  39.275   7.002
 5496POPC   C4A70878  31.569  39.550   7.298
 5496POPC   C1B70879  31.807  38.991   6.188
 5496POPC   C2B70880  31.931  38.787   6.588
 5496POPC   C3B70881  31.712  38.845   6.976
 5496POPC   C4B70882  31.814  39.106   7.316
 5497POPC   NC370883  13.165  22.124   5.095
 5497POPC   PO470884  13.601  21.933   5.587
 5497POPC   GL170885  13.654  22.250   5.889
 5497POPC   GL270886  13.346  22.303   5.939
 5497POPC   C1A70887  13.929  22.363   6.242
 5497POPC   D2A70888  13.955  22.259   6.663
 5497POPC   C3A70889  13.755  22.269   7.031
 5497POPC   C4A70890  13.731  22.063   7.399
 5497POPC   C1B70891  13.428  22.274   6.350
 5497POPC   C2B70892  13.471  22.498   6.681
 5497POPC   C3B70893  13.318  22.494   7.104
 5497POPC   C4B70894  13.463  22.560   7.518
 5498POPC   NC370895  16.726  31.919   5.488
 5498POPC   PO470896  17.101  32.490   5.526
 5498POPC   GL170897  16.895  32.303   5.878
 5498POPC   GL270898  17.041  31.970   5.889
 5498POPC   C1A70899  16.533  32.120   6.112
 5498POPC   D2A70900  16.451  31.871   6.489
 5498POPC   C3A70901  16.698  32.100   6.809
 5498POPC   C4A70902  16.618  32.146   7.268
 5498POPC   C1B70903  16.999  32.049   6.333
 5498POPC   C2B70904  17.145  32.319   6.647
 5498POPC   C3B70905  17.074  32.303   7.103
 5498POPC   C4B70906  17.154  32.169   7.510
 5499POPC   NC370907   4.077  32.867   5.344
 5499POPC   PO470908   4.562  33.295   5.205
 5499POPC   GL170909   4.292  33.252   5.643
 5499POPC   GL270910   4.237  32.883   5.827
 5499POPC   C1A70911   4.320  33.254   6.154
 5499POPC   D2A70912   4.509  32.945   6.492
 5499POPC   C3A70913   4.469  33.057   6.952
 5499POPC   C4A70914   4.348  33.031   7.422
 5499POPC   C1B70915   4.031  32.813   6.272
 5499POPC   C2B70916   4.065  32.846   6.750
 5499POPC   C3B70917   3.957  33.182   7.112
 5499POPC   C4B70918   3.866  33.062   7.584
 5500POPC   NC370919  32.908  25.859   5.228
 5500POPC   PO470920  33.486  26.086   5.502
 5500POPC   GL170921  33.119  25.960   5.807
 5500POPC   GL270922  32.748  26.096   5.867
 5500POPC   C1A70923  32.972  25.874   6.251
 5500POPC   D2A70924  32.661  25.836   6.547
 5500POPC   C3A70925  32.883  25.862   6.894
 5500POPC   C4A70926  32.915  25.877   7.301
 5500POPC   C1B70927  32.685  26.301   6.322
 5500POPC   C2B70928  32.627  26.311   6.771
 5500POPC   C3B70929  32.500  26.140   7.144
 5500POPC   C4B70930  32.495  26.164   7.594
 5501POPC   NC370931  36.072   0.081   5.641
 5501POPC   PO470932  36.075  44.570   5.218
 5501POPC   GL170933  36.197  44.460   5.739
 5501POPC   GL270934  36.285  44.787   5.982
 5501POPC   C1A70935  36.009  44.457   6.211
 5501POPC   D2A70936  36.151  44.667   6.619
 5501POPC   C3A70937  35.979  44.500   6.995
 5501POPC   C4A70938  36.133  44.153   7.249
 5501POPC   C1B70939  35.921  44.978   6.287
 5501POPC   C2B70940  35.715  44.920   6.738
 5501POPC   C3B70941  35.703  44.917   7.198
 5501POPC   C4B70942  35.986  44.944   7.547
 5502POPC   NC370943  42.023   4.140   5.241
 5502POPC   PO470944  41.457   4.544   5.435
 5502POPC   GL170945  41.539   4.348   5.802
 5502POPC   GL270946  41.381   4.007   5.878
 5502POPC   C1A70947  41.444   4.492   6.209
 5502POPC   D2A70948  41.376   4.271   6.607
 5502POPC   C3A70949  41.410   4.518   6.958
 5502POPC   C4A70950  41.709   4.698   7.228
 5502POPC   C1B70951  41.679   4.031   6.195
 5502POPC   C2B70952  41.850   4.007   6.597
 5502POPC   C3B70953  41.630   3.983   6.982
 5502POPC   C4B70954  41.450   4.192   7.337
 5503POPC   NC370955   4.370  22.048   5.522
 5503POPC   PO470956   3.693  22.278   5.443
 5503POPC   GL170957   3.908  22.062   5.780
 5503POPC   GL270958   4.083  22.360   5.841
 5503POPC   C1A70959   4.123  21.910   6.161
 5503POPC   D2A70960   4.444  22.000   6.463
 5503POPC   C3A70961   4.314  22.013   6.863
 5503POPC   C4A70962   4.249  22.007   7.305
 5503POPC   C1B70963   4.195  22.425   6.266
 5503POPC   C2B70964   4.365  22.504   6.664
 5503POPC   C3B70965   4.575  22.396   7.058
 5503POPC   C4B70966   4.439  22.514   7.450
 5504POPC   NC370967  10.241  36.252   5.417
 5504POPC   PO470968  10.798  36.557   5.384
 5504POPC   GL170969  10.561  36.336   5.830
 5504POPC   GL270970  10.212  36.152   5.898
 5504POPC   C1A70971  10.575  36.065   6.254
 5504POPC   D2A70972  10.775  36.046   6.689
 5504POPC   C3A70973  10.551  36.023   7.086
 5504POPC   C4A70974  10.668  36.243   7.464
 5504POPC   C1B70975  10.181  36.380   6.270
 5504POPC   C2B70976  10.306  36.269   6.673
 5504POPC   C3B70977  10.084  36.283   7.041
 5504POPC   C4B70978  10.180  36.155   7.449
 5505POPC   NC370979  21.157  30.211   5.151
 5505POPC   PO470980  21.587  29.923   5.565
 5505POPC   GL170981  21.374  29.965   5.925
 5505POPC   GL270982  21.161  30.277   5.857
 5505POPC   C1A70983  21.504  30.011   6.353
 5505POPC   D2A70984  21.376  29.795   6.724
 5505POPC   C3A70985  21.514  29.862   7.132
 5505POPC   C4A70986  21.249  29.886   7.514
 5505POPC   C1B70987  21.142  30.372   6.311
 5505POPC   C2B70988  21.056  30.202   6.723
 5505POPC   C3B70989  21.153  30.232   7.153
 5505POPC   C4B70990  21.344  30.423   7.535
 5506POPC   NC370991  16.051  34.124   5.441
 5506POPC   PO470992  15.730  34.633   5.413
 5506POPC   GL170993  15.808  34.413   5.829
 5506POPC   GL270994  16.147  34.474   5.831
 5506POPC   C1A70995  15.905  34.504   6.295
 5506POPC   D2A70996  15.883  34.304   6.731
 5506POPC   C3A70997  15.891  34.497   7.151
 5506POPC   C4A70998  15.799  34.259   7.516
 5506POPC   C1B70999  16.413  34.376   6.206
 5506POPC   C2B71000  16.402  34.301   6.680
 5506POPC   C3B71001  16.431  34.494   7.115
 5506POPC   C4B71002  16.547  34.858   7.396
 5507POPC   NC371003  30.939  15.366   5.437
 5507POPC   PO471004  30.517  14.854   5.464
 5507POPC   GL171005  30.650  15.093   5.790
 5507POPC   GL271006  30.972  14.954   5.770
 5507POPC   C1A71007  30.553  15.336   6.160
 5507POPC   D2A71008  30.735  15.260   6.572
 5507POPC   C3A71009  30.506  15.326   6.937
 5507POPC   C4A71010  30.685  15.406   7.310
 5507POPC   C1B71011  30.983  15.039   6.191
 5507POPC   C2B71012  30.979  14.815   6.590
 5507POPC   C3B71013  30.936  15.039   7.002
 5507POPC   C4B71014  30.994  14.982   7.441
 5508POPC   NC371015  13.896  32.611   5.416
 5508POPC   PO471016  13.709  31.950   5.294
 5508POPC   GL171017  13.454  32.068   5.691
 5508POPC   GL271018  13.714  32.293   5.772
 5508POPC   C1A71019  13.450  32.182   6.189
 5508POPC   D2A71020  13.595  31.995   6.602
 5508POPC   C3A71021  13.558  32.209   7.015
 5508POPC   C4A71022  13.612  32.213   7.428
 5508POPC   C1B71023  13.933  32.038   6.073
 5508POPC   C2B71024  14.115  31.954   6.465
 5508POPC   C3B71025  14.015  32.232   6.794
 5508POPC   C4B71026  14.088  32.305   7.207
 5509POPC   NC371027  10.624  11.897   5.392
 5509POPC   PO471028  10.928  12.480   5.589
 5509POPC   GL171029  10.596  12.458   5.913
 5509POPC   GL271030  10.510  12.111   5.879
 5509POPC   C1A71031  10.344  12.388   6.346
 5509POPC   D2A71032  10.198  12.066   6.671
 5509POPC   C3A71033  10.448  11.986   7.077
 5509POPC   C4A71034  10.394  12.013   7.576
 5509POPC   C1B71035  10.780  12.135   6.273
 5509POPC   C2B71036  10.848  12.105   6.740
 5509POPC   C3B71037  10.917  11.799   7.070
 5509POPC   C4B71038  10.866  11.882   7.483
 5510POPC   NC371039  39.642  16.358   5.449
 5510POPC   PO471040  40.116  16.011   5.619
 5510POPC   GL171041  39.732  15.883   5.831
 5510POPC   GL271042  39.647  16.172   5.910
 5510POPC   C1A71043  39.674  15.860   6.308
 5510POPC   D2A71044  40.040  15.934   6.572
 5510POPC   C3A71045  39.923  15.936   6.997
 5510POPC   C4A71046  39.684  15.637   7.187
 5510POPC   C1B71047  39.834  16.348   6.285
 5510POPC   C2B71048  39.804  16.351   6.718
 5510POPC   C3B71049  39.944  16.428   7.142
 5510POPC   C4B71050  40.341  16.200   7.210
 5511POPC   NC371051  36.204  20.394   5.501
 5511POPC   PO471052  36.092  19.875   5.914
 5511POPC   GL171053  36.191  20.311   6.022
 5511POPC   GL271054  36.503  20.463   5.930
 5511POPC   C1A71055  36.141  20.603   6.385
 5511POPC   D2A71056  35.937  20.803   6.751
 5511POPC   C3A71057  36.024  20.533   7.092
 5511POPC   C4A71058  36.215  20.154   7.152
 5511POPC   C1B71059  36.469  20.872   6.109
 5511POPC   C2B71060  36.534  20.908   6.573
 5511POPC   C3B71061  36.355  20.908   7.026
 5511POPC   C4B71062  36.007  21.025   7.341
 5512POPC   NC371063  28.663  13.185   5.419
 5512POPC   PO471064  28.321  12.629   5.368
 5512POPC   GL171065  28.353  12.827   5.806
 5512POPC   GL271066  28.540  13.150   5.915
 5512POPC   C1A71067  28.281  12.652   6.237
 5512POPC   D2A71068  28.515  12.672   6.648
 5512POPC   C3A71069  28.285  12.682   7.037
 5512POPC   C4A71070  28.489  12.673   7.460
 5512POPC   C1B71071  28.200  13.153   6.215
 5512POPC   C2B71072  28.162  13.085   6.660
 5512POPC   C3B71073  28.316  13.193   7.092
 5512POPC   C4B71074  28.233  13.243   7.532
 5513POPC   NC371075  16.139  14.309   5.053
 5513POPC   PO471076  15.810  14.310   5.381
 5513POPC   GL171077  15.853  14.519   5.798
 5513POPC   GL271078  16.183  14.384   5.895
 5513POPC   C1A71079  15.904  14.614   6.269
 5513POPC   D2A71080  16.163  14.425   6.624
 5513POPC   C3A71081  15.957  14.346   7.026
 5513POPC   C4A71082  15.554  14.253   7.214
 5513POPC   C1B71083  15.957  14.112   6.186
 5513POPC   C2B71084  16.080  13.920   6.575
 5513POPC   C3B71085  16.203  13.907   7.012
 5513POPC   C4B71086  15.929  13.873   7.361
 5514POPC   NC371087  39.988  40.460   5.520
 5514POPC   PO471088  39.974  39.877   5.094
 5514POPC   GL171089  40.005  39.782   5.605
 5514POPC   GL271090  40.151  40.070   5.829
 5514POPC   C1A71091  39.958  39.703   6.114
 5514POPC   D2A71092  40.131  39.947   6.505
 5514POPC   C3A71093  40.007  39.933   6.968
 5514POPC   C4A71094  39.861  40.000   7.389
 5514POPC   C1B71095  40.440  40.216   6.159
 5514POPC   C2B71096  40.444  40.396   6.512
 5514POPC   C3B71097  40.347  40.314   6.878
 5514POPC   C4B71098  40.376  40.166   7.264
 5515POPC   NC371099  23.419  37.526   5.355
 5515POPC   PO471100  22.702  37.700   5.459
 5515POPC   GL171101  22.876  37.613   5.802
 5515POPC   GL271102  23.152  37.824   5.711
 5515POPC   C1A71103  22.742  37.621   6.232
 5515POPC   D2A71104  22.616  37.831   6.594
 5515POPC   C3A71105  22.787  37.565   6.887
 5515POPC   C4A71106  22.932  37.595   7.279
 5515POPC   C1B71107  23.260  37.690   6.124
 5515POPC   C2B71108  23.149  37.762   6.549
 5515POPC   C3B71109  23.316  37.654   6.904
 5515POPC   C4B71110  23.425  37.647   7.304
 5516POPC   NC371111  15.466  30.819   5.423
 5516POPC   PO471112  16.133  30.472   5.453
 5516POPC   GL171113  15.812  30.611   5.751
 5516POPC   GL271114  15.775  30.933   5.897
 5516POPC   C1A71115  15.747  30.478   6.180
 5516POPC   D2A71116  16.063  30.374   6.508
 5516POPC   C3A71117  15.956  30.357   6.939
 5516POPC   C4A71118  15.875  30.655   7.250
 5516POPC   C1B71119  15.906  30.960   6.333
 5516POPC   C2B71120  15.924  30.879   6.779
 5516POPC   C3B71121  16.116  31.084   7.164
 5516POPC   C4B71122  15.910  31.040   7.585
 5517POPC   NC371123  14.161   1.557   5.381
 5517POPC   PO471124  14.618   2.098   5.394
 5517POPC   GL171125  14.392   1.953   5.675
 5517POPC   GL271126  14.578   1.654   5.695
 5517POPC   C1A71127  14.354   1.840   6.100
 5517POPC   D2A71128  14.451   1.746   6.480
 5517POPC   C3A71129  14.334   2.070   6.760
 5517POPC   C4A71130  14.323   2.099   7.171
 5517POPC   C1B71131  14.837   1.610   6.082
 5517POPC   C2B71132  14.965   1.840   6.476
 5517POPC   C3B71133  14.764   1.816   6.886
 5517POPC   C4B71134  14.855   1.921   7.334
 5518POPC   NC371135  20.469   6.411   5.127
 5518POPC   PO471136  20.904   6.936   5.162
 5518POPC   GL171137  20.694   6.714   5.614
 5518POPC   GL271138  20.423   6.451   5.671
 5518POPC   C1A71139  20.671   6.789   6.128
 5518POPC   D2A71140  20.704   6.933   6.611
 5518POPC   C3A71141  20.556   6.720   6.995
 5518POPC   C4A71142  20.718   6.482   7.346
 5518POPC   C1B71143  20.259   6.485   6.129
 5518POPC   C2B71144  20.484   6.450   6.529
 5518POPC   C3B71145  20.557   6.207   6.907
 5518POPC   C4B71146  20.279   6.214   7.235
 5519POPC   NC371147  13.766  25.551   5.129
 5519POPC   PO471148  13.463  25.023   5.458
 5519POPC   GL171149  13.548  25.085   5.857
 5519POPC   GL271150  13.829  25.259   5.893
 5519POPC   C1A71151  13.437  25.289   6.232
 5519POPC   D2A71152  13.251  25.132   6.586
 5519POPC   C3A71153  13.554  25.144   6.856
 5519POPC   C4A71154  13.464  25.471   7.094
 5519POPC   C1B71155  13.850  24.930   6.236
 5519POPC   C2B71156  13.968  24.685   6.597
 5519POPC   C3B71157  13.998  24.782   7.021
 5519POPC   C4B71158  13.932  25.188   7.195
 5520POPC   NC371159  37.817  25.708   5.289
 5520POPC   PO471160  37.832  26.390   5.454
 5520POPC   GL171161  37.712  26.067   5.760
 5520POPC   GL271162  37.963  25.782   5.772
 5520POPC   C1A71163  37.526  26.108   6.186
 5520POPC   D2A71164  37.424  26.479   6.470
 5520POPC   C3A71165  37.321  26.451   6.898
 5520POPC   C4A71166  37.453  26.303   7.288
 5520POPC   C1B71167  38.014  25.926   6.204
 5520POPC   C2B71168  37.872  26.144   6.574
 5520POPC   C3B71169  37.861  25.975   6.976
 5520POPC   C4B71170  37.528  25.784   7.247
 5521POPC   NC371171  14.691  13.648   5.452
 5521POPC   PO471172  14.036  13.489   5.491
 5521POPC   GL171173  14.270  13.564   5.834
 5521POPC   GL271174  14.483  13.299   5.762
 5521POPC   C1A71175  14.341  13.764   6.252
 5521POPC   D2A71176  14.574  13.899   6.619
 5521POPC   C3A71177  14.341  13.961   6.986
 5521POPC   C4A71178  14.015  13.771   7.172
 5521POPC   C1B71179  14.449  13.222   6.212
 5521POPC   C2B71180  14.353  13.205   6.656
 5521POPC   C3B71181  14.405  13.448   7.058
 5521POPC   C4B71182  14.661  13.408   7.397
 5522POPC   NC371183  23.033  33.346   5.314
 5522POPC   PO471184  22.691  32.762   5.515
 5522POPC   GL171185  22.845  33.081   5.792
 5522POPC   GL271186  23.227  33.145   5.777
 5522POPC   C1A71187  22.676  33.004   6.214
 5522POPC   D2A71188  22.690  33.203   6.612
 5522POPC   C3A71189  22.903  33.017   6.932
 5522POPC   C4A71190  22.846  33.224   7.326
 5522POPC   C1B71191  23.106  33.288   6.209
 5522POPC   C2B71192  23.147  33.445   6.645
 5522POPC   C3B71193  23.296  33.325   7.029
 5522POPC   C4B71194  23.419  32.911   7.076
 5523POPC   NC371195  26.467  20.689   5.399
 5523POPC   PO471196  27.054  20.386   5.501
 5523POPC   GL171197  26.926  20.515   5.897
 5523POPC   GL271198  26.600  20.616   5.902
 5523POPC   C1A71199  26.876  20.652   6.330
 5523POPC   D2A71200  27.157  20.541   6.653
 5523POPC   C3A71201  26.932  20.547   7.010
 5523POPC   C4A71202  26.973  20.643   7.434
 5523POPC   C1B71203  26.496  20.991   6.142
 5523POPC   C2B71204  26.533  21.107   6.588
 5523POPC   C3B71205  26.456  20.976   7.039
 5523POPC   C4B71206  26.475  20.569   7.255
 5524POPC   NC371207  43.076  28.840   5.140
 5524POPC   PO471208  43.212  29.318   5.572
 5524POPC   GL171209  43.198  29.111   5.953
 5524POPC   GL271210  42.873  28.987   5.955
 5524POPC   C1A71211  43.133  29.137   6.392
 5524POPC   D2A71212  42.809  29.077   6.640
 5524POPC   C3A71213  42.985  28.938   7.040
 5524POPC   C4A71214  43.371  29.198   7.194
 5524POPC   C1B71215  42.858  29.445   6.114
 5524POPC   C2B71216  42.836  29.577   6.548
 5524POPC   C3B71217  42.953  29.449   6.970
 5524POPC   C4B71218  42.911  29.294   7.391
 5525POPC   NC371219   4.087  20.334   5.535
 5525POPC   PO471220   4.584  20.867   5.449
 5525POPC   GL171221   4.386  20.808   5.853
 5525POPC   GL271222   4.407  20.446   5.971
 5525POPC   C1A71223   4.352  20.817   6.326
 5525POPC   D2A71224   4.145  20.570   6.650
 5525POPC   C3A71225   4.181  20.604   7.106
 5525POPC   C4A71226   3.871  20.869   7.284
 5525POPC   C1B71227   4.500  20.260   6.399
 5525POPC   C2B71228   4.716  20.162   6.819
 5525POPC   C3B71229   4.713  20.305   7.275
 5525POPC   C4B71230   4.637  20.337   7.760
 5526POPC   NC371231  21.560  22.522   5.546
 5526POPC   PO471232  21.053  22.155   5.269
 5526POPC   GL171233  21.304  22.097   5.706
 5526POPC   GL271234  21.261  21.823   5.920
 5526POPC   C1A71235  21.385  22.226   6.200
 5526POPC   D2A71236  21.166  22.293   6.611
 5526POPC   C3A71237  21.294  22.105   6.982
 5526POPC   C4A71238  21.680  22.314   7.114
 5526POPC   C1B71239  21.590  21.759   6.229
 5526POPC   C2B71240  21.672  21.991   6.604
 5526POPC   C3B71241  21.725  21.805   6.998
 5526POPC   C4B71242  21.579  21.879   7.372
 5527POPC   NC371243   3.563   2.045   5.284
 5527POPC   PO471244   4.035   1.624   5.512
 5527POPC   GL171245   3.743   1.906   5.747
 5527POPC   GL271246   3.621   2.290   5.726
 5527POPC   C1A71247   3.532   1.725   6.109
 5527POPC   D2A71248   3.559   1.757   6.553
 5527POPC   C3A71249   3.329   2.000   6.887
 5527POPC   C4A71250   3.504   1.927   7.287
 5527POPC   C1B71251   3.684   2.220   6.163
 5527POPC   C2B71252   3.550   2.323   6.579
 5527POPC   C3B71253   3.705   2.326   7.022
 5527POPC   C4B71254   3.460   2.396   7.444
 5528POPC   NC371255  12.680   0.742   5.432
 5528POPC   PO471256  12.876   0.067   5.189
 5528POPC   GL171257  12.751   0.239   5.653
 5528POPC   GL271258  13.022   0.206   5.913
 5528POPC   C1A71259  12.616   0.475   6.072
 5528POPC   D2A71260  12.948   0.570   6.395
 5528POPC   C3A71261  12.961   0.624   6.830
 5528POPC   C4A71262  12.645   0.596   7.153
 5528POPC   C1B71263  13.289   0.176   6.302
 5528POPC   C2B71264  13.300   0.222   6.750
 5528POPC   C3B71265  13.071   0.247   7.154
 5528POPC   C4B71266  13.204   0.270   7.606
 5529POPC   NC371267  22.091   5.520   5.538
 5529POPC   PO471268  22.394   5.011   5.362
 5529POPC   GL171269  22.253   5.116   5.820
 5529POPC   GL271270  22.412   5.420   5.948
 5529POPC   C1A71271  22.215   5.084   6.290
 5529POPC   D2A71272  21.931   5.088   6.645
 5529POPC   C3A71273  22.136   5.023   7.063
 5529POPC   C4A71274  22.463   4.953   7.403
 5529POPC   C1B71275  22.365   5.558   6.394
 5529POPC   C2B71276  22.211   5.482   6.811
 5529POPC   C3B71277  22.369   5.457   7.241
 5529POPC   C4B71278  22.400   5.394   7.720
 5530POPC   NC371279  15.048  29.647   5.247
 5530POPC   PO471280  15.306  30.301   5.292
 5530POPC   GL171281  15.129  29.992   5.644
 5530POPC   GL271282  15.335  29.709   5.760
 5530POPC   C1A71283  14.930  29.885   6.061
 5530POPC   D2A71284  15.072  29.904   6.489
 5530POPC   C3A71285  14.895  30.035   6.893
 5530POPC   C4A71286  15.166  30.034   7.282
 5530POPC   C1B71287  15.374  29.582   6.184
 5530POPC   C2B71288  15.500  29.615   6.603
 5530POPC   C3B71289  15.235  29.652   6.924
 5530POPC   C4B71290  15.251  29.528   7.308
 5531POPC   NC371291  39.506  42.031   5.037
 5531POPC   PO471292  39.088  42.482   5.377
 5531POPC   GL171293  39.250  42.312   5.754
 5531POPC   GL271294  38.901  42.308   5.886
 5531POPC   C1A71295  39.310  42.362   6.202
 5531POPC   D2A71296  39.179  42.543   6.608
 5531POPC   C3A71297  39.220  42.345   7.015
 5531POPC   C4A71298  39.449  42.034   7.276
 5531POPC   C1B71299  38.846  42.226   6.340
 5531POPC   C2B71300  38.808  42.127   6.747
 5531POPC   C3B71301  38.689  42.388   7.043
 5531POPC   C4B71302  38.867  42.560   7.408
 5532POPC   NC371303  43.999  27.431   5.433
 5532POPC   PO471304  43.912  28.072   5.201
 5532POPC   GL171305  43.790  27.923   5.701
 5532POPC   GL271306  44.034  28.034   5.975
 5532POPC   C1A71307  43.629  27.828   6.196
 5532POPC   D2A71308  43.656  27.479   6.476
 5532POPC   C3A71309  43.774  27.572   6.868
 5532POPC   C4A71310  43.883  27.295   7.236
 5532POPC   C1B71311  44.109  27.647   6.170
 5532POPC   C2B71312  44.182  27.465   6.568
 5532POPC   C3B71313  44.271  27.536   7.026
 5532POPC   C4B71314  43.977  27.798   7.270
 5533POPC   NC371315  39.432  21.659   5.152
 5533POPC   PO471316  39.159  21.136   5.443
 5533POPC   GL171317  39.255  21.259   5.881
 5533POPC   GL271318  39.074  21.580   5.978
 5533POPC   C1A71319  39.474  21.060   6.232
 5533POPC   D2A71320  39.406  20.875   6.644
 5533POPC   C3A71321  39.343  21.189   6.964
 5533POPC   C4A71322  39.330  21.140   7.437
 5533POPC   C1B71323  39.365  21.601   6.324
 5533POPC   C2B71324  39.327  21.677   6.769
 5533POPC   C3B71325  39.104  21.765   7.179
 5533POPC   C4B71326  39.132  21.567   7.590
 5534POPC   NC371327  20.727  11.779   5.096
 5534POPC   PO471328  20.245  12.187   5.192
 5534POPC   GL171329  20.371  12.068   5.694
 5534POPC   GL271330  20.695  11.929   5.772
 5534POPC   C1A71331  20.546  12.127   6.208
 5534POPC   D2A71332  20.839  12.164   6.621
 5534POPC   C3A71333  20.757  12.190   7.097
 5534POPC   C4A71334  20.871  12.534   7.412
 5534POPC   C1B71335  20.784  11.664   6.147
 5534POPC   C2B71336  20.959  11.689   6.545
 5534POPC   C3B71337  20.759  11.695   6.922
 5534POPC   C4B71338  20.848  11.631   7.331
 5535POPC   NC371339  10.796  32.512   5.323
 5535POPC   PO471340  10.313  32.062   5.362
 5535POPC   GL171341  10.370  32.173   5.766
 5535POPC   GL271342  10.091  31.981   5.932
 5535POPC   C1A71343  10.644  32.365   6.090
 5535POPC   D2A71344  10.489  32.548   6.489
 5535POPC   C3A71345  10.691  32.540   6.882
 5535POPC   C4A71346  10.551  32.453   7.268
 5535POPC   C1B71347  10.376  31.993   6.309
 5535POPC   C2B71348  10.478  32.071   6.754
 5535POPC   C3B71349  10.298  32.034   7.185
 5535POPC   C4B71350  10.500  31.856   7.520
 5536POPC   NC371351  21.336  31.848   5.479
 5536POPC   PO471352  21.641  31.190   5.447
 5536POPC   GL171353  21.290  31.261   5.715
 5536POPC   GL271354  21.423  31.581   5.895
 5536POPC   C1A71355  21.073  31.310   6.120
 5536POPC   D2A71356  21.153  31.532   6.504
 5536POPC   C3A71357  21.206  31.368   6.912
 5536POPC   C4A71358  21.598  31.406   7.151
 5536POPC   C1B71359  21.398  31.888   6.237
 5536POPC   C2B71360  21.351  31.995   6.690
 5536POPC   C3B71361  21.363  31.871   7.145
 5536POPC   C4B71362  21.578  31.743   7.566
 5537POPC   NC371363  34.079  43.141   4.976
 5537POPC   PO471364  33.758  42.796   5.518
 5537POPC   GL171365  33.762  43.087   5.862
 5537POPC   GL271366  33.498  43.376   5.871
 5537POPC   C1A71367  33.949  42.909   6.236
 5537POPC   D2A71368  34.102  42.716   6.627
 5537POPC   C3A71369  34.174  42.900   7.019
 5537POPC   C4A71370  34.054  43.226   7.291
 5537POPC   C1B71371  33.773  43.485   6.213
 5537POPC   C2B71372  33.956  43.275   6.573
 5537POPC   C3B71373  33.690  43.139   6.898
 5537POPC   C4B71374  33.591  43.035   7.316
 5538POPC   NC371375  13.566   2.519   5.165
 5538POPC   PO471376  13.660   1.812   5.365
 5538POPC   GL171377  13.846   2.093   5.710
 5538POPC   GL271378  13.941   1.789   5.812
 5538POPC   C1A71379  13.926   2.110   6.202
 5538POPC   D2A71380  13.943   2.354   6.590
 5538POPC   C3A71381  13.816   2.134   6.966
 5538POPC   C4A71382  13.586   2.006   7.319
 5538POPC   C1B71383  13.563   1.753   6.085
 5538POPC   C2B71384  13.305   1.687   6.445
 5538POPC   C3B71385  13.417   1.757   6.872
 5538POPC   C4B71386  13.404   1.541   7.256
 5539POPC   NC371387  28.284  18.117   5.351
 5539POPC   PO471388  28.061  18.699   5.562
 5539POPC   GL171389  28.238  18.369   5.829
 5539POPC   GL271390  28.057  18.027   5.797
 5539POPC   C1A71391  28.327  18.477   6.272
 5539POPC   D2A71392  28.099  18.613   6.658
 5539POPC   C3A71393  28.378  18.519   7.009
 5539POPC   C4A71394  28.712  18.494   7.332
 5539POPC   C1B71395  28.308  17.973   6.200
 5539POPC   C2B71396  28.246  18.116   6.654
 5539POPC   C3B71397  28.361  17.941   7.048
 5539POPC   C4B71398  28.772  17.725   7.058
 5540POPC   NC371399   5.589  29.938   5.426
 5540POPC   PO471400   6.238  29.917   5.386
 5540POPC   GL171401   6.177  29.798   5.835
 5540POPC   GL271402   5.823  29.721   5.829
 5540POPC   C1A71403   6.042  29.859   6.303
 5540POPC   D2A71404   5.998  30.225   6.618
 5540POPC   C3A71405   5.951  30.155   7.063
 5540POPC   C4A71406   5.958  29.758   7.288
 5540POPC   C1B71407   5.551  29.818   6.175
 5540POPC   C2B71408   5.564  29.613   6.593
 5540POPC   C3B71409   5.523  29.671   7.045
 5540POPC   C4B71410   5.479  30.076   7.276
 5541POPC   NC371411  30.098  16.703   5.292
 5541POPC   PO471412  29.502  16.673   5.671
 5541POPC   GL171413  29.828  16.591   5.922
 5541POPC   GL271414  30.161  16.667   5.785
 5541POPC   C1A71415  29.717  16.665   6.330
 5541POPC   D2A71416  29.816  17.016   6.582
 5541POPC   C3A71417  29.716  16.886   6.973
 5541POPC   C4A71418  29.686  16.452   7.085
 5541POPC   C1B71419  30.181  16.843   6.191
 5541POPC   C2B71420  30.138  16.629   6.602
 5541POPC   C3B71421  30.205  16.752   6.980
 5541POPC   C4B71422  30.305  16.983   7.332
 5542POPC   NC371423  19.285   7.709   5.513
 5542POPC   PO471424  18.794   7.242   5.446
 5542POPC   GL171425  18.930   7.441   5.804
 5542POPC   GL271426  19.261   7.293   5.905
 5542POPC   C1A71427  18.900   7.529   6.237
 5542POPC   D2A71428  18.675   7.588   6.627
 5542POPC   C3A71429  18.750   7.190   6.841
 5542POPC   C4A71430  19.104   7.274   7.122
 5542POPC   C1B71431  19.253   6.990   6.288
 5542POPC   C2B71432  19.268   6.915   6.766
 5542POPC   C3B71433  19.503   6.961   7.168
 5542POPC   C4B71434  19.311   7.087   7.591
 5543POPC   NC371435  17.322  33.280   5.490
 5543POPC   PO471436  17.877  33.631   5.329
 5543POPC   GL171437  17.629  33.768   5.707
 5543POPC   GL271438  17.504  33.493   5.926
 5543POPC   C1A71439  17.553  33.975   6.115
 5543POPC   D2A71440  17.501  33.713   6.476
 5543POPC   C3A71441  17.501  33.937   6.839
 5543POPC   C4A71442  17.517  34.037   7.243
 5543POPC   C1B71443  17.198  33.264   6.194
 5543POPC   C2B71444  17.137  33.373   6.615
 5543POPC   C3B71445  17.395  33.419   6.979
 5543POPC   C4B71446  17.093  33.286   7.286
 5544POPC   NC371447  20.943  43.540   5.557
 5544POPC   PO471448  21.325  44.089   5.406
 5544POPC   GL171449  21.306  44.017   5.823
 5544POPC   GL271450  21.469  43.742   5.831
 5544POPC   C1A71451  21.517  44.039   6.252
 5544POPC   D2A71452  21.596  43.871   6.694
 5544POPC   C3A71453  21.429  44.138   7.024
 5544POPC   C4A71454  21.296  44.183   7.473
 5544POPC   C1B71455  21.316  43.558   6.175
 5544POPC   C2B71456  21.297  43.446   6.588
 5544POPC   C3B71457  21.301  43.537   7.023
 5544POPC   C4B71458  21.559  43.753   7.304
 5545POPC   NC371459  12.378  30.430   5.455
 5545POPC   PO471460  12.333  31.140   5.414
 5545POPC   GL171461  12.207  30.831   5.761
 5545POPC   GL271462  11.843  30.781   5.814
 5545POPC   C1A71463  12.271  30.711   6.208
 5545POPC   D2A71464  12.098  30.787   6.646
 5545POPC   C3A71465  12.359  30.545   6.886
 5545POPC   C4A71466  12.356  30.303   7.250
 5545POPC   C1B71467  11.769  30.684   6.256
 5545POPC   C2B71468  11.529  30.511   6.615
 5545POPC   C3B71469  11.592  30.660   7.017
 5545POPC   C4B71470  12.014  30.744   7.208
 5546POPC   NC371471   5.331  38.199   5.378
 5546POPC   PO471472   4.833  38.670   5.359
 5546POPC   GL171473   4.982  38.454   5.713
 5546POPC   GL271474   5.335  38.524   5.813
 5546POPC   C1A71475   4.988  38.217   6.099
 5546POPC   D2A71476   5.143  38.149   6.517
 5546POPC   C3A71477   4.932  38.234   6.911
 5546POPC   C4A71478   5.241  38.310   7.238
 5546POPC   C1B71479   5.144  38.714   6.151
 5546POPC   C2B71480   5.003  38.670   6.547
 5546POPC   C3B71481   5.242  38.674   6.884
 5546POPC   C4B71482   5.420  38.837   7.257
 5547POPC   NC371483  42.575  20.585   5.022
 5547POPC   PO471484  43.119  20.500   5.401
 5547POPC   GL171485  43.144  20.605   5.813
 5547POPC   GL271486  43.132  20.254   5.893
 5547POPC   C1A71487  43.265  20.767   6.203
 5547POPC   D2A71488  43.314  20.655   6.640
 5547POPC   C3A71489  43.037  20.891   6.885
 5547POPC   C4A71490  42.777  20.805   7.244
 5547POPC   C1B71491  43.119  20.273   6.332
 5547POPC   C2B71492  43.033  20.212   6.748
 5547POPC   C3B71493  43.094  20.424   7.096
 5547POPC   C4B71494  43.367  20.303   7.377
 5548POPC   NC371495  31.065  29.363   5.395
 5548POPC   PO471496  31.595  29.883   5.303
 5548POPC   GL171497  31.570  29.784   5.740
 5548POPC   GL271498  31.457  30.129   5.889
 5548POPC   C1A71499  31.272  29.711   6.101
 5548POPC   D2A71500  31.224  30.091   6.417
 5548POPC   C3A71501  31.410  29.915   6.795
 5548POPC   C4A71502  31.255  29.610   7.143
 5548POPC   C1B71503  31.680  29.973   6.236
 5548POPC   C2B71504  31.988  29.878   6.525
 5548POPC   C3B71505  31.911  29.984   6.904
 5548POPC   C4B71506  31.657  29.897   7.236
 5549POPC   NC371507  25.128  19.941   5.375
 5549POPC   PO471508  25.667  19.511   5.329
 5549POPC   GL171509  25.451  19.661   5.725
 5549POPC   GL271510  25.098  19.709   5.837
 5549POPC   C1A71511  25.501  19.873   6.162
 5549POPC   D2A71512  25.447  20.100   6.565
 5549POPC   C3A71513  25.395  19.818   6.883
 5549POPC   C4A71514  25.354  19.663   7.280
 5549POPC   C1B71515  24.868  19.707   6.226
 5549POPC   C2B71516  24.903  19.901   6.634
 5549POPC   C3B71517  24.928  19.829   7.065
 5549POPC   C4B71518  24.951  20.052   7.461
 5550POPC   NC371519   3.352   4.452   5.381
 5550POPC   PO471520   3.993   4.275   5.197
 5550POPC   GL171521   3.786   4.167   5.655
 5550POPC   GL271522   3.419   4.182   5.808
 5550POPC   C1A71523   3.788   4.183   6.158
 5550POPC   D2A71524   3.967   4.229   6.606
 5550POPC   C3A71525   3.670   4.388   6.936
 5550POPC   C4A71526   3.452   4.157   7.259
 5550POPC   C1B71527   3.184   4.372   6.173
 5550POPC   C2B71528   3.257   4.571   6.584
 5550POPC   C3B71529   3.113   4.430   6.970
 5550POPC   C4B71530   3.111   4.612   7.396
 5551POPC   NC371531  16.588  10.079   5.354
 5551POPC   PO471532  16.949   9.550   5.589
 5551POPC   GL171533  16.778   9.708   5.955
 5551POPC   GL271534  16.794  10.015   5.820
 5551POPC   C1A71535  16.762   9.497   6.337
 5551POPC   D2A71536  16.946   9.563   6.738
 5551POPC   C3A71537  16.682   9.489   7.090
 5551POPC   C4A71538  16.523   9.771   7.341
 5551POPC   C1B71539  16.611  10.174   6.187
 5551POPC   C2B71540  16.648   9.943   6.580
 5551POPC   C3B71541  16.708  10.043   6.978
 5551POPC   C4B71542  16.751  10.242   7.388
 5552POPC   NC371543  28.423  22.406   5.480
 5552POPC   PO471544  27.888  22.077   5.254
 5552POPC   GL171545  28.153  21.965   5.679
 5552POPC   GL271546  28.246  22.248   5.912
 5552POPC   C1A71547  28.381  21.816   6.117
 5552POPC   D2A71548  28.350  21.968   6.557
 5552POPC   C3A71549  28.580  21.807   6.910
 5552POPC   C4A71550  28.543  21.617   7.274
 5552POPC   C1B71551  28.524  22.348   6.265
 5552POPC   C2B71552  28.384  22.455   6.690
 5552POPC   C3B71553  28.279  22.214   7.016
 5552POPC   C4B71554  28.372  22.085   7.403
 5553POPC   NC371555  16.766  41.287   5.545
 5553POPC   PO471556  16.835  40.604   5.363
 5553POPC   GL171557  16.784  40.748   5.780
 5553POPC   GL271558  16.434  40.900   5.800
 5553POPC   C1A71559  16.743  40.836   6.241
 5553POPC   D2A71560  16.487  40.982   6.591
 5553POPC   C3A71561  16.658  40.847   6.980
 5553POPC   C4A71562  16.985  40.629   7.194
 5553POPC   C1B71563  16.425  40.484   6.041
 5553POPC   C2B71564  16.473  40.461   6.519
 5553POPC   C3B71565  16.329  40.463   6.952
 5553POPC   C4B71566  16.519  40.473   7.326
 5554POPC   NC371567  37.622  34.280   5.110
 5554POPC   PO471568  37.774  34.843   5.460
 5554POPC   GL171569  37.556  34.583   5.811
 5554POPC   GL271570  37.717  34.258   5.925
 5554POPC   C1A71571  37.519  34.650   6.279
 5554POPC   D2A71572  37.426  34.320   6.589
 5554POPC   C3A71573  37.543  34.397   6.988
 5554POPC   C4A71574  37.486  34.776   7.194
 5554POPC   C1B71575  37.998  34.461   6.268
 5554POPC   C2B71576  37.987  34.411   6.722
 5554POPC   C3B71577  37.988  34.615   7.121
 5554POPC   C4B71578  37.764  34.434   7.472
 5555POPC   NC371579   2.863   3.497   5.400
 5555POPC   PO471580   2.337   3.908   5.558
 5555POPC   GL171581   2.741   3.726   5.835
 5555POPC   GL271582   2.945   3.349   5.861
 5555POPC   C1A71583   2.948   3.663   6.238
 5555POPC   D2A71584   2.923   3.405   6.605
 5555POPC   C3A71585   2.973   3.659   6.980
 5555POPC   C4A71586   2.697   3.678   7.346
 5555POPC   C1B71587   2.560   3.305   6.114
 5555POPC   C2B71588   2.429   3.261   6.558
 5555POPC   C3B71589   2.550   3.302   7.015
 5555POPC   C4B71590   2.942   3.263   7.297
 5556POPC   NC371591  22.625  20.672   5.221
 5556POPC   PO471592  22.945  20.221   5.527
 5556POPC   GL171593  22.879  20.406   5.876
 5556POPC   GL271594  22.769  20.728   5.773
 5556POPC   C1A71595  23.120  20.384   6.251
 5556POPC   D2A71596  23.397  20.359   6.597
 5556POPC   C3A71597  23.099  20.339   6.944
 5556POPC   C4A71598  22.841  20.364   7.332
 5556POPC   C1B71599  23.013  20.877   6.169
 5556POPC   C2B71600  23.141  20.806   6.642
 5556POPC   C3B71601  22.932  20.815   7.077
 5556POPC   C4B71602  22.981  21.132   7.447
 5557POPC   NC371603  43.571  32.552   4.969
 5557POPC   PO471604  43.713  32.029   5.437
 5557POPC   GL171605  43.801  31.885   5.851
 5557POPC   GL271606  44.153  31.833   5.948
 5557POPC   C1A71607  43.807  32.142   6.221
 5557POPC   D2A71608  43.700  32.528   6.459
 5557POPC   C3A71609  43.605  32.415   6.864
 5557POPC   C4A71610  43.713  32.404   7.277
 5557POPC   C1B71611  44.336  31.904   6.329
 5557POPC   C2B71612  44.004  31.874   6.605
 5557POPC   C3B71613  43.953  32.023   7.003
 5557POPC   C4B71614  44.247  31.845   7.243
 5558POPC   NC371615  14.294  17.026   5.465
 5558POPC   PO471616  14.486  16.371   5.439
 5558POPC   GL171617  14.512  16.661   5.755
 5558POPC   GL271618  14.164  16.630   5.855
 5558POPC   C1A71619  14.541  16.958   6.093
 5558POPC   D2A71620  14.445  17.031   6.530
 5558POPC   C3A71621  14.573  16.891   6.933
 5558POPC   C4A71622  14.580  16.864   7.396
 5558POPC   C1B71623  14.370  16.518   6.269
 5558POPC   C2B71624  14.499  16.434   6.681
 5558POPC   C3B71625  14.307  16.479   7.081
 5558POPC   C4B71626  14.165  16.593   7.494
 5559POPC   NC371627  30.688   1.895   5.470
 5559POPC   PO471628  30.263   2.436   5.389
 5559POPC   GL171629  30.370   2.224   5.789
 5559POPC   GL271630  30.265   1.877   5.916
 5559POPC   C1A71631  30.712   2.268   6.095
 5559POPC   D2A71632  30.813   2.002   6.440
 5559POPC   C3A71633  30.953   2.098   6.850
 5559POPC   C4A71634  30.910   1.775   7.116
 5559POPC   C1B71635  30.267   2.145   6.329
 5559POPC   C2B71636  30.495   2.333   6.708
 5559POPC   C3B71637  30.580   2.266   7.187
 5559POPC   C4B71638  30.443   2.286   7.673
 5560POPC   NC371639  17.406  17.798   5.520
 5560POPC   PO471640  17.294  17.183   5.610
 5560POPC   GL171641  17.453  17.470   5.898
 5560POPC   GL271642  17.807  17.506   5.853
 5560POPC   C1A71643  17.538  17.681   6.260
 5560POPC   D2A71644  17.664  17.507   6.641
 5560POPC   C3A71645  17.698  17.773   6.984
 5560POPC   C4A71646  17.338  17.955   7.137
 5560POPC   C1B71647  17.757  17.185   6.227
 5560POPC   C2B71648  17.666  17.002   6.659
 5560POPC   C3B71649  17.709  17.231   7.090
 5560POPC   C4B71650  17.798  17.344   7.557
 5561POPC   NC371651   9.727  31.193   5.480
 5561POPC   PO471652   9.526  31.817   5.464
 5561POPC   GL171653   9.618  31.536   5.833
 5561POPC   GL271654   9.385  31.208   5.837
 5561POPC   C1A71655   9.921  31.532   6.177
 5561POPC   D2A71656  10.053  31.699   6.571
 5561POPC   C3A71657   9.755  31.670   6.884
 5561POPC   C4A71658   9.752  31.540   7.320
 5561POPC   C1B71659   9.599  31.125   6.198
 5561POPC   C2B71660   9.781  31.218   6.573
 5561POPC   C3B71661   9.667  31.163   6.967
 5561POPC   C4B71662   9.347  30.983   7.181
 5562POPC   NC371663  18.208  37.166   5.444
 5562POPC   PO471664  18.393  36.499   5.375
 5562POPC   GL171665  18.292  36.690   5.796
 5562POPC   GL271666  18.089  37.004   5.897
 5562POPC   C1A71667  18.363  36.794   6.246
 5562POPC   D2A71668  18.424  37.064   6.625
 5562POPC   C3A71669  18.282  36.840   6.992
 5562POPC   C4A71670  18.175  36.420   7.056
 5562POPC   C1B71671  18.050  37.240   6.311
 5562POPC   C2B71672  17.934  37.160   6.771
 5562POPC   C3B71673  17.922  37.147   7.244
 5562POPC   C4B71674  17.820  37.273   7.673
 5563POPC   NC371675  13.668  23.092   5.451
 5563POPC   PO471676  13.213  22.531   5.335
 5563POPC   GL171677  13.424  22.729   5.692
 5563POPC   GL271678  13.264  23.022   5.821
 5563POPC   C1A71679  13.637  22.764   6.110
 5563POPC   D2A71680  13.580  22.975   6.524
 5563POPC   C3A71681  13.772  22.834   6.911
 5563POPC   C4A71682  13.658  22.962   7.288
 5563POPC   C1B71683  13.243  23.221   6.217
 5563POPC   C2B71684  13.219  23.339   6.641
 5563POPC   C3B71685  13.536  23.330   6.961
 5563POPC   C4B71686  13.528  23.449   7.410
 5564POPC   NC371687  34.496  33.983   5.287
 5564POPC   PO471688  34.470  33.481   5.646
 5564POPC   GL171689  34.681  33.758   5.867
 5564POPC   GL271690  34.800  34.095   5.751
 5564POPC   C1A71691  34.388  34.026   6.102
 5564POPC   D2A71692  34.401  34.164   6.521
 5564POPC   C3A71693  34.410  33.858   6.829
 5564POPC   C4A71694  34.372  33.946   7.247
 5564POPC   C1B71695  34.886  34.055   6.226
 5564POPC   C2B71696  34.880  34.059   6.657
 5564POPC   C3B71697  34.866  33.976   7.066
 5564POPC   C4B71698  34.875  34.244   7.355
 5565POPC   NC371699  44.238  33.380   5.259
 5565POPC   PO471700  43.778  32.923   5.158
 5565POPC   GL171701  43.820  32.996   5.625
 5565POPC   GL271702  44.098  33.203   5.769
 5565POPC   C1A71703  43.847  32.862   6.076
 5565POPC   D2A71704  43.987  32.999   6.490
 5565POPC   C3A71705  43.726  32.917   6.845
 5565POPC   C4A71706  43.820  32.900   7.275
 5565POPC   C1B71707  44.291  33.320   6.181
 5565POPC   C2B71708  44.229  33.492   6.602
 5565POPC   C3B71709  44.161  33.215   6.956
 5565POPC   C4B71710  44.140  33.275   7.390
 5566POPC   NC371711  29.819  42.851   5.399
 5566POPC   PO471712  30.305  43.129   5.500
 5566POPC   GL171713  30.290  43.091   5.946
 5566POPC   GL271714  29.963  43.042   5.892
 5566POPC   C1A71715  30.107  43.308   6.339
 5566POPC   D2A71716  29.874  43.122   6.696
 5566POPC   C3A71717  29.910  43.086   7.142
 5566POPC   C4A71718  30.109  43.253   7.480
 5566POPC   C1B71719  29.872  42.827   6.285
 5566POPC   C2B71720  29.549  42.752   6.619
 5566POPC   C3B71721  29.618  42.672   7.064
 5566POPC   C4B71722  29.485  42.649   7.483
 5567POPC   NC371723  20.974  43.904   5.177
 5567POPC   PO471724  20.412  43.684   5.465
 5567POPC   GL171725  20.565  43.662   5.868
 5567POPC   GL271726  20.782  43.986   5.790
 5567POPC   C1A71727  20.532  43.648   6.327
 5567POPC   D2A71728  20.258  43.708   6.708
 5567POPC   C3A71729  20.530  43.706   7.079
 5567POPC   C4A71730  20.954  43.873   7.225
 5567POPC   C1B71731  20.404  44.100   6.045
 5567POPC   C2B71732  20.196  44.237   6.420
 5567POPC   C3B71733  20.384  44.219   6.831
 5567POPC   C4B71734  20.537  44.192   7.246
 5568POPC   NC371735  44.789  39.744   5.768
 5568POPC   PO471736  44.590  39.235   5.404
 5568POPC   GL171737  44.438  39.346   5.815
 5568POPC   GL271738  44.680  39.109   5.916
 5568POPC   C1A71739  44.491  39.413   6.277
 5568POPC   D2A71740  44.384  39.220   6.652
 5568POPC   C3A71741  44.450  39.477   6.982
 5568POPC   C4A71742  44.845  39.582   7.140
 5568POPC   C1B71743  44.619  38.897   6.308
 5568POPC   C2B71744  44.807  38.918   6.706
 5568POPC   C3B71745  44.721  39.082   7.091
 5568POPC   C4B71746  44.626  38.935   7.459
 5569POPC   NC371747   0.909   1.222   5.377
 5569POPC   PO471748   1.462   1.104   5.191
 5569POPC   GL171749   1.311   1.167   5.684
 5569POPC   GL271750   1.091   1.461   5.767
 5569POPC   C1A71751   1.352   1.285   6.172
 5569POPC   D2A71752   1.498   1.286   6.623
 5569POPC   C3A71753   1.238   1.179   6.978
 5569POPC   C4A71754   1.362   1.221   7.422
 5569POPC   C1B71755   0.877   1.507   6.138
 5569POPC   C2B71756   0.978   1.382   6.547
 5569POPC   C3B71757   0.780   1.441   6.924
 5569POPC   C4B71758   0.972   1.520   7.280
 5570POPC   NC371759   6.416  34.750   5.354
 5570POPC   PO471760   7.108  34.675   5.361
 5570POPC   GL171761   6.835  34.700   5.740
 5570POPC   GL271762   6.474  34.813   5.863
 5570POPC   C1A71763   6.845  34.608   6.183
 5570POPC   D2A71764   6.785  34.794   6.574
 5570POPC   C3A71765   6.681  34.605   6.943
 5570POPC   C4A71766   6.972  34.424   7.216
 5570POPC   C1B71767   6.357  34.968   6.306
 5570POPC   C2B71768   6.354  35.011   6.782
 5570POPC   C3B71769   6.275  34.807   7.211
 5570POPC   C4B71770   6.332  34.919   7.679
 5571POPC   NC371771  42.555  44.123   5.519
 5571POPC   PO471772  41.898  43.979   5.331
 5571POPC   GL171773  42.048  44.012   5.780
 5571POPC   GL271774  42.342  43.816   5.862
 5571POPC   C1A71775  41.988  43.926   6.240
 5571POPC   D2A71776  41.828  43.928   6.666
 5571POPC   C3A71777  42.101  43.837   6.995
 5571POPC   C4A71778  42.071  43.545   7.335
 5571POPC   C1B71779  42.422  44.165   6.165
 5571POPC   C2B71780  42.438  43.954   6.585
 5571POPC   C3B71781  42.596  43.755   6.982
 5571POPC   C4B71782  42.439  43.881   7.413
 5572POPC   NC371783  10.113  33.102   5.631
 5572POPC   PO471784   9.596  33.337   5.272
 5572POPC   GL171785   9.538  33.038   5.629
 5572POPC   GL271786   9.572  33.327   5.806
 5572POPC   C1A71787   9.665  32.872   6.080
 5572POPC   D2A71788   9.980  32.812   6.430
 5572POPC   C3A71789   9.827  32.809   6.816
 5572POPC   C4A71790   9.631  32.736   7.181
 5572POPC   C1B71791   9.372  33.519   6.141
 5572POPC   C2B71792   9.560  33.401   6.516
 5572POPC   C3B71793   9.678  33.279   6.922
 5572POPC   C4B71794   9.545  33.250   7.356
 5573POPC   NC371795  22.987  15.312   5.295
 5573POPC   PO471796  22.581  15.053   5.721
 5573POPC   GL171797  22.893  15.324   5.854
 5573POPC   GL271798  23.215  15.457   5.739
 5573POPC   C1A71799  22.856  15.439   6.276
 5573POPC   D2A71800  22.643  15.510   6.661
 5573POPC   C3A71801  22.716  15.111   6.882
 5573POPC   C4A71802  22.725  14.939   7.296
 5573POPC   C1B71803  23.330  15.269   6.140
 5573POPC   C2B71804  23.154  15.067   6.502
 5573POPC   C3B71805  23.324  15.108   6.902
 5573POPC   C4B71806  23.204  15.104   7.313
 5574POPC   NC371807  44.743  21.716   5.221
 5574POPC   PO471808  44.756  22.306   5.431
 5574POPC   GL171809  44.647  21.983   5.734
 5574POPC   GL271810  44.327  22.166   5.757
 5574POPC   C1A71811  44.713  21.953   6.203
 5574POPC   D2A71812  44.739  22.302   6.521
 5574POPC   C3A71813  44.891  22.430   6.940
 5574POPC   C4A71814  44.808  22.304   7.378
 5574POPC   C1B71815  44.236  22.111   6.201
 5574POPC   C2B71816  44.348  21.975   6.609
 5574POPC   C3B71817  44.483  22.127   6.987
 5574POPC   C4B71818  44.290  22.167   7.388
 5575POPC   NC371819  43.426  20.878   5.457
 5575POPC   PO471820  44.067  20.559   5.408
 5575POPC   GL171821  43.801  20.668   5.749
 5575POPC   GL271822  43.599  20.389   5.713
 5575POPC   C1A71823  43.771  20.882   6.144
 5575POPC   D2A71824  43.811  20.761   6.587
 5575POPC   C3A71825  43.979  20.825   7.022
 5575POPC   C4A71826  44.116  20.459   7.263
 5575POPC   C1B71827  43.606  20.381   6.164
 5575POPC   C2B71828  43.656  20.205   6.580
 5575POPC   C3B71829  43.645  20.425   6.964
 5575POPC   C4B71830  43.438  20.771   7.195
 5576POPC   NC371831  33.014  37.494   5.461
 5576POPC   PO471832  32.663  38.065   5.392
 5576POPC   GL171833  32.920  37.895   5.783
 5576POPC   GL271834  33.314  37.921   5.755
 5576POPC   C1A71835  32.958  37.813   6.255
 5576POPC   D2A71836  33.062  37.576   6.656
 5576POPC   C3A71837  32.994  37.776   7.052
 5576POPC   C4A71838  32.684  37.893   7.347
 5576POPC   C1B71839  33.476  37.909   6.199
 5576POPC   C2B71840  33.436  37.998   6.671
 5576POPC   C3B71841  33.474  37.900   7.127
 5576POPC   C4B71842  33.392  37.436   7.172
 5577POPC   NC371843  14.965  27.150   5.433
 5577POPC   PO471844  15.349  26.637   5.431
 5577POPC   GL171845  15.205  26.874   5.798
 5577POPC   GL271846  14.857  26.998   5.897
 5577POPC   C1A71847  15.318  27.136   6.141
 5577POPC   D2A71848  15.474  27.064   6.562
 5577POPC   C3A71849  15.297  26.783   6.870
 5577POPC   C4A71850  15.378  26.907   7.289
 5577POPC   C1B71851  14.917  26.666   6.193
 5577POPC   C2B71852  14.720  26.630   6.598
 5577POPC   C3B71853  14.682  26.931   6.905
 5577POPC   C4B71854  14.884  26.859   7.297
 5578POPC   NC371855  37.973  20.968   5.426
 5578POPC   PO471856  37.571  20.353   5.202
 5578POPC   GL171857  37.692  20.586   5.638
 5578POPC   GL271858  37.896  20.335   5.804
 5578POPC   C1A71859  37.730  20.938   6.030
 5578POPC   D2A71860  37.703  20.873   6.515
 5578POPC   C3A71861  37.472  20.988   6.916
 5578POPC   C4A71862  37.727  20.947   7.289
 5578POPC   C1B71863  37.958  20.500   6.202
 5578POPC   C2B71864  37.852  20.384   6.595
 5578POPC   C3B71865  37.929  20.607   6.949
 5578POPC   C4B71866  37.895  20.460   7.350
 5579POPC   NC371867   2.183  25.805   5.397
 5579POPC   PO471868   1.719  26.374   5.377
 5579POPC   GL171869   1.954  26.156   5.718
 5579POPC   GL271870   1.847  25.814   5.815
 5579POPC   C1A71871   2.139  26.151   6.137
 5579POPC   D2A71872   2.128  26.332   6.561
 5579POPC   C3A71873   2.271  26.153   6.961
 5579POPC   C4A71874   2.193  26.294   7.367
 5579POPC   C1B71875   1.813  25.769   6.238
 5579POPC   C2B71876   2.100  25.824   6.583
 5579POPC   C3B71877   2.051  25.693   7.002
 5579POPC   C4B71878   1.955  25.815   7.413
 5580POPC   NC371879  21.951  12.792   5.203
 5580POPC   PO471880  22.441  13.022   5.584
 5580POPC   GL171881  22.460  12.811   5.970
 5580POPC   GL271882  22.156  12.669   5.833
 5580POPC   C1A71883  22.496  12.882   6.418
 5580POPC   D2A71884  22.197  13.194   6.595
 5580POPC   C3A71885  22.062  13.095   7.007
 5580POPC   C4A71886  22.380  12.789   7.156
 5580POPC   C1B71887  22.027  12.778   6.241
 5580POPC   C2B71888  22.068  12.695   6.664
 5580POPC   C3B71889  21.847  12.638   7.040
 5580POPC   C4B71890  21.923  12.560   7.471
 5581POPC   NC371891   9.452  23.848   5.482
 5581POPC   PO471892  10.020  24.007   5.486
 5581POPC   GL171893   9.828  23.823   5.841
 5581POPC   GL271894   9.978  23.537   5.940
 5581POPC   C1A71895   9.688  23.871   6.264
 5581POPC   D2A71896   9.889  23.872   6.718
 5581POPC   C3A71897   9.527  23.769   7.039
 5581POPC   C4A71898   9.511  23.642   7.482
 5581POPC   C1B71899   9.986  23.497   6.387
 5581POPC   C2B71900   9.580  23.499   6.620
 5581POPC   C3B71901   9.863  23.393   6.942
 5581POPC   C4B71902  10.017  23.316   7.354
 5582POPC   NC371903  10.740  22.745   5.441
 5582POPC   PO471904  10.365  23.181   5.269
 5582POPC   GL171905  10.446  23.044   5.736
 5582POPC   GL271906  10.436  23.346   5.861
 5582POPC   C1A71907  10.648  23.030   6.214
 5582POPC   D2A71908  10.505  23.181   6.634
 5582POPC   C3A71909  10.652  22.964   7.025
 5582POPC   C4A71910  10.574  23.206   7.380
 5582POPC   C1B71911  10.164  23.100   6.153
 5582POPC   C2B71912  10.154  22.825   6.522
 5582POPC   C3B71913  10.135  22.958   6.962
 5582POPC   C4B71914  10.208  22.858   7.398
 5583POPC   NC371915   4.524  15.277   5.473
 5583POPC   PO471916   4.191  14.661   5.590
 5583POPC   GL171917   4.199  15.053   5.867
 5583POPC   GL271918   4.000  15.330   5.776
 5583POPC   C1A71919   4.310  15.253   6.277
 5583POPC   D2A71920   4.494  15.412   6.670
 5583POPC   C3A71921   4.489  15.032   6.935
 5583POPC   C4A71922   4.431  14.894   7.372
 5583POPC   C1B71923   3.877  15.471   6.206
 5583POPC   C2B71924   3.959  15.359   6.675
 5583POPC   C3B71925   4.091  15.351   7.134
 5583POPC   C4B71926   3.915  15.358   7.582
 5584POPC   NC371927  12.297  31.978   5.325
 5584POPC   PO471928  12.145  32.673   5.309
 5584POPC   GL171929  12.181  32.356   5.667
 5584POPC   GL271930  11.895  32.129   5.712
 5584POPC   C1A71931  12.240  32.183   6.097
 5584POPC   D2A71932  12.159  32.441   6.490
 5584POPC   C3A71933  12.261  32.269   6.893
 5584POPC   C4A71934  12.271  32.302   7.327
 5584POPC   C1B71935  11.789  32.005   6.168
 5584POPC   C2B71936  11.932  31.926   6.621
 5584POPC   C3B71937  11.880  32.010   7.112
 5584POPC   C4B71938  11.904  31.997   7.576
 5585POPC   NC371939   4.703   9.821   5.344
 5585POPC   PO471940   4.093   9.460   5.272
 5585POPC   GL171941   4.071   9.542   5.780
 5585POPC   GL271942   4.271   9.839   5.872
 5585POPC   C1A71943   4.000   9.639   6.250
 5585POPC   D2A71944   4.188   9.868   6.598
 5585POPC   C3A71945   4.168   9.715   7.025
 5585POPC   C4A71946   4.421   9.874   7.386
 5585POPC   C1B71947   4.530   9.684   6.248
 5585POPC   C2B71948   4.703   9.452   6.591
 5585POPC   C3B71949   4.593   9.446   7.018
 5585POPC   C4B71950   4.866   9.625   7.275
 5586POPC   NC371951  10.926  15.135   5.361
 5586POPC   PO471952  11.400  15.600   5.269
 5586POPC   GL171953  11.266  15.430   5.681
 5586POPC   GL271954  10.928  15.308   5.845
 5586POPC   C1A71955  11.347  15.326   6.117
 5586POPC   D2A71956  11.038  15.357   6.488
 5586POPC   C3A71957  11.245  15.323   6.891
 5586POPC   C4A71958  11.568  15.024   7.042
 5586POPC   C1B71959  11.023  14.936   6.170
 5586POPC   C2B71960  11.263  14.872   6.591
 5586POPC   C3B71961  11.091  14.862   7.045
 5586POPC   C4B71962  11.033  15.160   7.368
 5587POPC   NC371963  30.152  15.972   5.318
 5587POPC   PO471964  29.621  16.332   5.249
 5587POPC   GL171965  29.736  16.150   5.680
 5587POPC   GL271966  30.110  16.165   5.777
 5587POPC   C1A71967  29.801  16.083   6.167
 5587POPC   D2A71968  29.724  16.218   6.624
 5587POPC   C3A71969  29.787  15.930   7.000
 5587POPC   C4A71970  30.083  15.582   7.087
 5587POPC   C1B71971  30.248  16.335   6.175
 5587POPC   C2B71972  30.359  16.170   6.590
 5587POPC   C3B71973  30.175  16.253   6.982
 5587POPC   C4B71974  30.105  16.486   7.388
 5588POPC   NC371975   9.017  34.193   5.206
 5588POPC   PO471976   9.116  34.788   5.381
 5588POPC   GL171977   8.960  34.502   5.709
 5588POPC   GL271978   8.792  34.796   5.849
 5588POPC   C1A71979   8.669  34.355   6.071
 5588POPC   D2A71980   8.554  34.598   6.466
 5588POPC   C3A71981   8.642  34.471   6.900
 5588POPC   C4A71982   8.627  34.095   7.151
 5588POPC   C1B71983   9.026  34.691   6.225
 5588POPC   C2B71984   9.085  34.785   6.651
 5588POPC   C3B71985   9.131  34.598   7.041
 5588POPC   C4B71986   8.853  34.589   7.368
 5589POPC   NC371987   9.931   0.924   5.512
 5589POPC   PO471988   9.923   1.557   5.389
 5589POPC   GL171989   9.684   1.328   5.721
 5589POPC   GL271990  10.001   1.313   5.864
 5589POPC   C1A71991   9.595   1.124   6.147
 5589POPC   D2A71992   9.451   1.172   6.586
 5589POPC   C3A71993   9.660   1.020   6.952
 5589POPC   C4A71994   9.642   1.143   7.369
 5589POPC   C1B71995  10.027   1.314   6.304
 5589POPC   C2B71996  10.039   1.220   6.688
 5589POPC   C3B71997  10.225   1.329   7.054
 5589POPC   C4B71998  10.048   1.512   7.443
 5590POPC   NC371999  41.821  21.025   5.227
 5590POPC   PO472000  41.443  20.534   5.454
 5590POPC   GL172001  41.608  20.785   5.770
 5590POPC   GL272002  41.801  20.462   5.816
 5590POPC   C1A72003  41.569  20.975   6.201
 5590POPC   D2A72004  41.607  20.770   6.621
 5590POPC   C3A72005  41.523  20.939   7.043
 5590POPC   C4A72006  41.574  20.857   7.491
 5590POPC   C1B72007  41.624  20.444   6.208
 5590POPC   C2B72008  41.704  20.250   6.601
 5590POPC   C3B72009  41.620  20.403   7.005
 5590POPC   C4B72010  41.838  20.438   7.381
 5591POPC   NC372011  32.744  12.400   5.013
 5591POPC   PO472012  33.084  11.968   5.435
 5591POPC   GL172013  33.049  11.978   5.851
 5591POPC   GL272014  32.757  11.823   5.869
 5591POPC   C1A72015  33.225  11.915   6.286
 5591POPC   D2A72016  33.166  11.694   6.700
 5591POPC   C3A72017  33.170  11.981   7.066
 5591POPC   C4A72018  33.151  12.009   7.516
 5591POPC   C1B72019  32.724  12.119   6.208
 5591POPC   C2B72020  32.819  12.061   6.612
 5591POPC   C3B72021  32.692  11.799   6.929
 5591POPC   C4B72022  32.686  12.062   7.270
 5592POPC   NC372023  35.313  42.197   5.542
 5592POPC   PO472024  35.475  42.858   5.393
 5592POPC   GL172025  35.412  42.653   5.769
 5592POPC   GL272026  35.130  42.708   5.931
 5592POPC   C1A72027  35.546  42.537   6.185
 5592POPC   D2A72028  35.353  42.565   6.593
 5592POPC   C3A72029  35.470  42.212   6.894
 5592POPC   C4A72030  35.622  42.226   7.330
 5592POPC   C1B72031  34.999  42.359   6.210
 5592POPC   C2B72032  34.958  42.234   6.629
 5592POPC   C3B72033  35.053  42.493   7.009
 5592POPC   C4B72034  35.109  42.236   7.326
 5593POPC   NC372035   6.100  26.087   5.359
 5593POPC   PO472036   5.475  25.867   5.423
 5593POPC   GL172037   5.709  26.158   5.704
 5593POPC   GL272038   5.982  25.894   5.803
 5593POPC   C1A72039   5.759  26.208   6.148
 5593POPC   D2A72040   5.655  25.893   6.463
 5593POPC   C3A72041   5.806  25.920   6.895
 5593POPC   C4A72042   5.589  26.014   7.295
 5593POPC   C1B72043   6.262  26.064   6.099
 5593POPC   C2B72044   6.128  26.095   6.497
 5593POPC   C3B72045   6.206  26.261   6.911
 5593POPC   C4B72046   6.096  26.103   7.298
 5594POPC   NC372047  11.572   3.868   5.457
 5594POPC   PO472048  11.454   3.151   5.477
 5594POPC   GL172049  11.303   3.486   5.723
 5594POPC   GL272050  11.423   3.243   5.970
 5594POPC   C1A72051  11.160   3.613   6.161
 5594POPC   D2A72052  10.995   3.509   6.569
 5594POPC   C3A72053  11.070   3.665   6.982
 5594POPC   C4A72054  11.385   3.764   7.240
 5594POPC   C1B72055  11.366   3.187   6.395
 5594POPC   C2B72056  11.497   3.422   6.753
 5594POPC   C3B72057  11.493   3.280   7.132
 5594POPC   C4B72058  11.117   3.189   7.238
 5595POPC   NC372059   8.325  30.083   5.328
 5595POPC   PO472060   7.872  29.632   5.587
 5595POPC   GL172061   8.267  29.800   5.788
 5595POPC   GL272062   8.536  30.091   5.837
 5595POPC   C1A72063   8.432  29.651   6.169
 5595POPC   D2A72064   8.185  29.415   6.471
 5595POPC   C3A72065   8.097  29.566   6.898
 5595POPC   C4A72066   8.319  29.890   7.173
 5595POPC   C1B72067   8.477  30.175   6.258
 5595POPC   C2B72068   8.620  30.022   6.648
 5595POPC   C3B72069   8.607  30.288   6.963
 5595POPC   C4B72070   8.396  30.374   7.282
 5596POPC   NC372071   0.951  43.899   5.372
 5596POPC   PO472072   1.556  43.620   5.520
 5596POPC   GL172073   1.380  43.940   5.825
 5596POPC   GL272074   1.629  44.207   5.911
 5596POPC   C1A72075   1.055  43.878   6.175
 5596POPC   D2A72076   0.924  43.757   6.617
 5596POPC   C3A72077   1.243  43.874   6.927
 5596POPC   C4A72078   1.168  44.073   7.343
 5596POPC   C1B72079   1.551  44.091   6.328
 5596POPC   C2B72080   1.783  44.029   6.704
 5596POPC   C3B72081   1.648  44.129   7.123
 5596POPC   C4B72082   1.618  44.179   7.570
 5597POPC   NC372083   2.464   0.922   5.540
 5597POPC   PO472084   2.953   1.397   5.323
 5597POPC   GL172085   2.836   1.303   5.748
 5597POPC   GL272086   2.865   0.949   5.860
 5597POPC   C1A72087   2.827   1.564   6.119
 5597POPC   D2A72088   2.623   1.497   6.534
 5597POPC   C3A72089   2.882   1.426   6.907
 5597POPC   C4A72090   2.660   1.515   7.250
 5597POPC   C1B72091   2.659   1.087   6.209
 5597POPC   C2B72092   2.796   1.009   6.625
 5597POPC   C3B72093   2.563   1.054   7.017
 5597POPC   C4B72094   2.662   0.984   7.438
 5598POPC   NC372095  36.629  16.759   5.586
 5598POPC   PO472096  37.242  16.941   5.387
 5598POPC   GL172097  37.118  16.684   5.805
 5598POPC   GL272098  36.784  16.519   5.994
 5598POPC   C1A72099  37.188  16.596   6.264
 5598POPC   D2A72100  36.866  16.508   6.588
 5598POPC   C3A72101  36.922  16.772   6.942
 5598POPC   C4A72102  37.237  16.612   7.225
 5598POPC   C1B72103  36.548  16.252   6.273
 5598POPC   C2B72104  36.350  16.371   6.638
 5598POPC   C3B72105  36.564  16.300   7.027
 5598POPC   C4B72106  36.713  16.562   7.354
 5599POPC   NC372107  39.943  32.702   5.115
 5599POPC   PO472108  40.257  32.308   5.617
 5599POPC   GL172109  39.987  32.362   5.931
 5599POPC   GL272110  39.867  32.648   5.957
 5599POPC   C1A72111  39.849  32.155   6.273
 5599POPC   D2A72112  40.027  32.124   6.667
 5599POPC   C3A72113  39.800  32.186   7.048
 5599POPC   C4A72114  40.132  32.114   7.353
 5599POPC   C1B72115  40.016  32.619   6.376
 5599POPC   C2B72116  39.721  32.536   6.649
 5599POPC   C3B72117  39.769  32.721   6.989
 5599POPC   C4B72118  39.952  32.588   7.368
 5600POPC   NC372119  10.327  16.556   5.491
 5600POPC   PO472120  10.780  17.127   5.326
 5600POPC   GL172121  10.670  16.950   5.818
 5600POPC   GL272122  10.354  16.769   5.957
 5600POPC   C1A72123  10.618  16.949   6.327
 5600POPC   D2A72124  10.453  17.002   6.745
 5600POPC   C3A72125  10.508  16.665   7.055
 5600POPC   C4A72126  10.727  16.932   7.320
 5600POPC   C1B72127  10.458  16.449   6.247
 5600POPC   C2B72128  10.328  16.348   6.683
 5600POPC   C3B72129  10.085  16.346   7.081
 5600POPC   C4B72130  10.203  16.563   7.489
 5601POPC   NC372131   0.491  12.492   5.399
 5601POPC   PO472132   0.185  11.954   5.525
 5601POPC   GL172133   0.527  12.041   5.853
 5601POPC   GL272134   0.726  12.344   5.842
 5601POPC   C1A72135   0.788  11.957   6.219
 5601POPC   D2A72136   0.892  11.804   6.667
 5601POPC   C3A72137   0.564  11.965   6.979
 5601POPC   C4A72138   0.401  12.030   7.413
 5601POPC   C1B72139   0.618  12.450   6.265
 5601POPC   C2B72140   0.613  12.426   6.740
 5601POPC   C3B72141   0.520  12.506   7.187
 5601POPC   C4B72142   0.530  12.521   7.655
 5602POPC   NC372143  33.421  29.582   5.571
 5602POPC   PO472144  33.919  29.168   5.472
 5602POPC   GL172145  33.827  29.217   5.869
 5602POPC   GL272146  34.062  29.510   5.862
 5602POPC   C1A72147  33.719  28.955   6.245
 5602POPC   D2A72148  33.587  29.093   6.647
 5602POPC   C3A72149  33.797  28.916   6.992
 5602POPC   C4A72150  33.664  29.138   7.338
 5602POPC   C1B72151  34.106  29.326   6.276
 5602POPC   C2B72152  34.102  29.180   6.689
 5602POPC   C3B72153  34.023  29.395   7.077
 5602POPC   C4B72154  34.225  29.692   7.373
 5603POPC   NC372155  22.907  29.395   5.289
 5603POPC   PO472156  23.153  28.833   5.461
 5603POPC   GL172157  23.105  29.115   5.799
 5603POPC   GL272158  23.209  29.475   5.740
 5603POPC   C1A72159  22.913  29.020   6.215
 5603POPC   D2A72160  22.652  29.127   6.579
 5603POPC   C3A72161  22.688  28.939   7.012
 5603POPC   C4A72162  23.012  28.944   7.349
 5603POPC   C1B72163  23.137  29.477   6.186
 5603POPC   C2B72164  23.153  29.259   6.596
 5603POPC   C3B72165  22.998  29.342   7.004
 5603POPC   C4B72166  23.254  29.404   7.347
 5604POPC   NC372167  23.989  11.352   5.280
 5604POPC   PO472168  23.378  11.600   5.292
 5604POPC   GL172169  23.484  11.370   5.651
 5604POPC   GL272170  23.802  11.318   5.773
 5604POPC   C1A72171  23.399  11.267   6.091
 5604POPC   D2A72172  23.606  11.419   6.461
 5604POPC   C3A72173  23.549  11.245   6.861
 5604POPC   C4A72174  23.616  11.165   7.287
 5604POPC   C1B72175  24.037  11.506   6.164
 5604POPC   C2B72176  24.122  11.458   6.646
 5604POPC   C3B72177  24.009  11.465   7.103
 5604POPC   C4B72178  23.972  11.725   7.483
 5605POPC   NC372179  14.710  19.736   5.459
 5605POPC   PO472180  14.127  20.093   5.458
 5605POPC   GL172181  14.375  19.967   5.766
 5605POPC   GL272182  14.646  20.197   5.665
 5605POPC   C1A72183  14.429  19.759   6.156
 5605POPC   D2A72184  14.296  19.877   6.561
 5605POPC   C3A72185  14.072  19.643   6.841
 5605POPC   C4A72186  14.354  19.672   7.174
 5605POPC   C1B72187  14.610  20.259   6.107
 5605POPC   C2B72188  14.618  20.264   6.564
 5605POPC   C3B72189  14.617  20.114   7.019
 5605POPC   C4B72190  14.634  20.183   7.532
 5606POPC   NC372191   1.577   5.261   5.592
 5606POPC   PO472192   2.052   5.101   5.105
 5606POPC   GL172193   2.077   5.230   5.630
 5606POPC   GL272194   2.231   5.535   5.720
 5606POPC   C1A72195   2.157   5.014   6.101
 5606POPC   D2A72196   2.360   4.900   6.545
 5606POPC   C3A72197   2.103   4.885   6.948
 5606POPC   C4A72198   1.801   5.145   7.142
 5606POPC   C1B72199   2.000   5.485   6.109
 5606POPC   C2B72200   1.954   5.244   6.506
 5606POPC   C3B72201   2.214   5.369   6.817
 5606POPC   C4B72202   2.207   5.469   7.231
 5607POPC   NC372203  16.829  29.140   5.440
 5607POPC   PO472204  16.187  28.952   5.213
 5607POPC   GL172205  16.346  29.081   5.700
 5607POPC   GL272206  16.542  29.389   5.784
 5607POPC   C1A72207  16.541  28.932   6.157
 5607POPC   D2A72208  16.718  28.808   6.590
 5607POPC   C3A72209  16.589  28.981   7.014
 5607POPC   C4A72210  16.389  28.860   7.445
 5607POPC   C1B72211  16.759  29.457   6.188
 5607POPC   C2B72212  16.728  29.666   6.608
 5607POPC   C3B72213  16.975  29.617   6.941
 5607POPC   C4B72214  17.037  29.313   7.205
 5608POPC   NC372215   3.130   2.703   5.324
 5608POPC   PO472216   2.550   3.052   5.408
 5608POPC   GL172217   2.734   2.878   5.784
 5608POPC   GL272218   2.814   2.527   5.739
 5608POPC   C1A72219   2.922   2.947   6.189
 5608POPC   D2A72220   2.780   2.803   6.565
 5608POPC   C3A72221   2.934   2.961   6.898
 5608POPC   C4A72222   2.703   2.837   7.245
 5608POPC   C1B72223   2.828   2.448   6.183
 5608POPC   C2B72224   2.993   2.336   6.617
 5608POPC   C3B72225   2.814   2.395   7.047
 5608POPC   C4B72226   2.919   2.425   7.518
 5609POPC   NC372227  37.818   0.945   5.355
 5609POPC   PO472228  37.432   0.366   5.297
 5609POPC   GL172229  37.633   0.548   5.666
 5609POPC   GL272230  37.330   0.639   5.751
 5609POPC   C1A72231  37.692   0.458   6.133
 5609POPC   D2A72232  37.926   0.269   6.507
 5609POPC   C3A72233  37.755   0.459   6.888
 5609POPC   C4A72234  37.982   0.395   7.258
 5609POPC   C1B72235  37.210   0.649   6.179
 5609POPC   C2B72236  37.388   0.721   6.568
 5609POPC   C3B72237  37.284   0.753   6.995
 5609POPC   C4B72238  37.442   0.542   7.353
 5610POPC   NC372239  38.715   9.965   5.400
 5610POPC   PO472240  38.182   9.605   5.173
 5610POPC   GL172241  38.439   9.586   5.609
 5610POPC   GL272242  38.389   9.893   5.843
 5610POPC   C1A72243  38.522   9.471   6.054
 5610POPC   D2A72244  38.395   9.652   6.449
 5610POPC   C3A72245  38.427   9.589   6.873
 5610POPC   C4A72246  38.415   9.529   7.309
 5610POPC   C1B72247  38.426  10.118   6.240
 5610POPC   C2B72248  38.555  10.072   6.688
 5610POPC   C3B72249  38.509  10.032   7.133
 5610POPC   C4B72250  38.354   9.951   7.551
 5611POPC   NC372251   7.739  24.492   5.444
 5611POPC   PO472252   7.110  24.306   5.461
 5611POPC   GL172253   7.335  24.368   5.828
 5611POPC   GL272254   7.433  24.719   5.801
 5611POPC   C1A72255   7.218  24.320   6.247
 5611POPC   D2A72256   7.136  24.089   6.576
 5611POPC   C3A72257   7.280  24.352   6.890
 5611POPC   C4A72258   7.460  24.385   7.281
 5611POPC   C1B72259   7.185  24.819   6.182
 5611POPC   C2B72260   7.176  24.848   6.647
 5611POPC   C3B72261   7.236  24.814   7.102
 5611POPC   C4B72262   7.217  24.744   7.589
 5612POPC   NC372263  36.477  44.334   5.304
 5612POPC   PO472264  36.016  43.766   5.369
 5612POPC   GL172265  36.033  43.942   5.778
 5612POPC   GL272266  36.385  43.900   5.821
 5612POPC   C1A72267  35.866  43.968   6.195
 5612POPC   D2A72268  36.057  44.113   6.588
 5612POPC   C3A72269  35.853  43.926   6.905
 5612POPC   C4A72270  35.594  44.089   7.199
 5612POPC   C1B72271  36.325  43.699   6.246
 5612POPC   C2B72272  36.238  43.644   6.703
 5612POPC   C3B72273  36.435  43.739   7.088
 5612POPC   C4B72274  36.366  43.788   7.542
 5613POPC   NC372275  28.331  33.237   5.570
 5613POPC   PO472276  28.411  32.551   5.399
 5613POPC   GL172277  28.327  32.763   5.778
 5613POPC   GL272278  27.981  32.847   5.686
 5613POPC   C1A72279  28.537  32.892   6.181
 5613POPC   D2A72280  28.605  33.150   6.555
 5613POPC   C3A72281  28.707  32.991   6.947
 5613POPC   C4A72282  28.491  32.790   7.247
 5613POPC   C1B72283  27.907  32.760   6.109
 5613POPC   C2B72284  28.186  32.650   6.456
 5613POPC   C3B72285  28.226  32.888   6.803
 5613POPC   C4B72286  28.080  33.080   7.139
 5614POPC   NC372287   9.316  13.043   5.537
 5614POPC   PO472288   8.732  12.758   5.414
 5614POPC   GL172289   8.807  12.991   5.775
 5614POPC   GL272290   8.609  13.318   5.821
 5614POPC   C1A72291   9.039  12.879   6.147
 5614POPC   D2A72292   9.069  12.621   6.495
 5614POPC   C3A72293   9.166  12.772   6.894
 5614POPC   C4A72294   9.022  12.805   7.295
 5614POPC   C1B72295   8.690  13.295   6.244
 5614POPC   C2B72296   8.827  13.062   6.602
 5614POPC   C3B72297   8.708  13.083   7.014
 5614POPC   C4B72298   8.645  13.135   7.453
 5615POPC   NC372299  22.020   9.650   5.217
 5615POPC   PO472300  22.594   9.822   5.476
 5615POPC   GL172301  22.276   9.802   5.819
 5615POPC   GL272302  21.933   9.928   5.833
 5615POPC   C1A72303  22.307   9.643   6.245
 5615POPC   D2A72304  22.432   9.834   6.611
 5615POPC   C3A72305  22.478   9.617   6.992
 5615POPC   C4A72306  22.267   9.724   7.377
 5615POPC   C1B72307  21.806   9.774   6.274
 5615POPC   C2B72308  21.783   9.611   6.717
 5615POPC   C3B72309  21.982   9.345   7.042
 5615POPC   C4B72310  21.926   9.326   7.488
 5616POPC   NC372311  32.592  15.085   5.445
 5616POPC   PO472312  31.948  15.120   5.320
 5616POPC   GL172313  32.139  15.168   5.715
 5616POPC   GL272314  32.152  15.512   5.745
 5616POPC   C1A72315  32.323  15.146   6.141
 5616POPC   D2A72316  32.309  14.914   6.531
 5616POPC   C3A72317  32.303  15.067   6.934
 5616POPC   C4A72318  32.278  14.840   7.321
 5616POPC   C1B72319  31.947  15.514   6.163
 5616POPC   C2B72320  32.134  15.571   6.586
 5616POPC   C3B72321  32.027  15.510   7.024
 5616POPC   C4B72322  32.334  15.368   7.351
 5617POPC   NC372323  35.045  13.095   5.415
 5617POPC   PO472324  34.414  12.946   5.500
 5617POPC   GL172325  34.745  12.911   5.782
 5617POPC   GL272326  34.843  12.558   5.839
 5617POPC   C1A72327  34.829  12.980   6.198
 5617POPC   D2A72328  34.595  12.769   6.510
 5617POPC   C3A72329  34.677  12.907   6.912
 5617POPC   C4A72330  34.368  12.830   7.177
 5617POPC   C1B72331  35.086  12.541   6.214
 5617POPC   C2B72332  35.099  12.761   6.619
 5617POPC   C3B72333  35.047  12.549   7.001
 5617POPC   C4B72334  35.299  12.501   7.353
 5618POPC   NC372335  30.480  23.583   5.403
 5618POPC   PO472336  30.718  24.178   5.368
 5618POPC   GL172337  30.600  23.950   5.742
 5618POPC   GL272338  30.853  23.701   5.736
 5618POPC   C1A72339  30.515  23.711   6.134
 5618POPC   D2A72340  30.323  23.815   6.541
 5618POPC   C3A72341  30.476  23.689   6.933
 5618POPC   C4A72342  30.479  23.778   7.367
 5618POPC   C1B72343  30.967  23.948   6.111
 5618POPC   C2B72344  30.846  23.850   6.543
 5618POPC   C3B72345  30.892  23.965   6.994
 5618POPC   C4B72346  31.036  24.155   7.367
 5619POPC   NC372347  20.171   9.226   5.329
 5619POPC   PO472348  19.633   8.787   5.385
 5619POPC   GL172349  19.730   8.995   5.755
 5619POPC   GL272350  20.081   8.919   5.738
 5619POPC   C1A72351  19.693   8.848   6.177
 5619POPC   D2A72352  19.554   8.877   6.597
 5619POPC   C3A72353  19.712   8.998   6.983
 5619POPC   C4A72354  19.529   9.017   7.393
 5619POPC   C1B72355  20.198   8.981   6.155
 5619POPC   C2B72356  20.086   8.864   6.578
 5619POPC   C3B72357  20.227   9.044   6.964
 5619POPC   C4B72358  20.059   9.047   7.400
 5620POPC   NC372359  28.185  34.762   5.092
 5620POPC   PO472360  28.304  34.367   5.737
 5620POPC   GL172361  28.448  34.677   6.025
 5620POPC   GL272362  28.331  34.374   6.246
 5620POPC   C1A72363  28.479  34.807   6.480
 5620POPC   D2A72364  28.314  34.522   6.740
 5620POPC   C3A72365  28.415  34.647   7.114
 5620POPC   C4A72366  28.698  34.835   7.326
 5620POPC   C1B72367  28.020  34.739   6.262
 5620POPC   C2B72368  27.906  34.873   6.640
 5620POPC   C3B72369  27.803  34.499   6.798
 5620POPC   C4B72370  28.037  34.300   7.107
 5621POPC   NC372371   4.938   6.354   5.221
 5621POPC   PO472372   5.181   5.751   5.485
 5621POPC   GL172373   4.875   5.892   5.771
 5621POPC   GL272374   4.818   6.231   5.715
 5621POPC   C1A72375   4.814   5.742   6.210
 5621POPC   D2A72376   5.160   5.785   6.497
 5621POPC   C3A72377   5.164   6.040   6.861
 5621POPC   C4A72378   5.053   5.876   7.274
 5621POPC   C1B72379   4.820   6.252   6.185
 5621POPC   C2B72380   4.716   6.111   6.604
 5621POPC   C3B72381   4.706   6.177   7.044
 5621POPC   C4B72382   4.623   6.132   7.465
 5622POPC   NC372383  38.830   6.087   5.583
 5622POPC   PO472384  38.422   5.557   5.552
 5622POPC   GL172385  38.520   5.747   5.920
 5622POPC   GL272386  38.364   6.067   5.839
 5622POPC   C1A72387  38.444   5.781   6.382
 5622POPC   D2A72388  38.351   5.976   6.794
 5622POPC   C3A72389  38.148   5.780   7.134
 5622POPC   C4A72390  38.285   5.816   7.556
 5622POPC   C1B72391  38.571   6.222   6.170
 5622POPC   C2B72392  38.741   6.208   6.570
 5622POPC   C3B72393  38.766   6.332   7.013
 5622POPC   C4B72394  38.766   6.158   7.420
 5623POPC   NC372395  24.528  12.183   5.145
 5623POPC   PO472396  24.057  12.273   5.582
 5623POPC   GL172397  24.215  12.432   5.918
 5623POPC   GL272398  24.549  12.361   5.813
 5623POPC   C1A72399  24.301  12.252   6.294
 5623POPC   D2A72400  24.361  11.862   6.431
 5623POPC   C3A72401  24.460  11.839   6.860
 5623POPC   C4A72402  24.313  12.004   7.218
 5623POPC   C1B72403  24.782  12.157   6.161
 5623POPC   C2B72404  24.871  12.012   6.570
 5623POPC   C3B72405  24.924  12.180   6.990
 5623POPC   C4B72406  24.746  12.266   7.403
 5624W        W72407  23.780  16.729   4.231
 5625W        W72408  21.210   5.050   1.015
 5626W        W72409  36.252  30.555  11.625
 5627W        W72410  11.799  44.125  14.999
 5628W        W72411  40.533  19.118  14.115
 5629W        W72412   6.116   6.208  12.487
 5630W        W72413  21.071  19.554   4.185
 5631W        W72414   7.874  44.055  12.995
 5632W        W72415  23.053  28.961  12.864
 5633W        W72416   5.898  16.636   3.219
 5634W        W72417  24.460  41.532   5.074
 5635W        W72418  15.579  35.108  13.361
 5636W        W72419  30.469  25.817   1.843
 5637W        W72420  15.981  40.001  11.393
 5638W        W72421  40.367  36.355   4.568
 5639W        W72422  38.002   9.845  11.994
 5640W        W72423  42.737  30.925   0.938
 5641W        W72424  28.602  26.113   4.266
 5642W        W72425   8.251  22.004   2.422
 5643W        W72426  32.434   4.940  12.909
 5644W        W72427  44.730   7.710  11.984
 5645W        W72428  22.659   9.112  12.358
 5646W        W72429  42.301  40.764   2.866
 5647W        W72430  44.409   2.764   1.270
 5648W        W72431  30.688  27.434   0.347
 5649W        W72432   5.435  10.740  14.030
 5650W        W72433  35.918  32.760   0.069
 5651W        W72434   0.758  35.907   0.405
 5652W        W72435  31.706   6.911   4.644
 5653W        W72436  25.942  21.976   0.552
 5654W        W72437  39.019  10.128   1.360
 5655W        W72438   7.695  31.317   1.346
 5656W        W72439   0.689  26.844  10.446
 5657W        W72440   2.304  33.930   2.667
 5658W        W72441  27.128   4.905   2.116
 5659W        W72442   9.884   3.401   2.774
 5660W        W72443   1.840  22.224  10.934
 5661W        W72444   4.693  25.659  14.262
 5662W        W72445  12.162  10.242   0.788
 5663W        W72446  13.613  29.695  12.426
 5664W        W72447  40.373  26.471  13.584
 5665W        W72448  26.553  12.684   4.089
 5666W        W72449  12.378  15.640   2.378
 5667W        W72450  44.263  40.527  14.564
 5668W        W72451  39.312  25.058  13.774
 5669W        W72452   3.500  44.565  12.958
 5670W        W72453   8.721  44.421  14.861
 5671W        W72454  43.519  44.986  11.441
 5672W        W72455  12.083  44.562  11.166
 5673W        W72456  41.465   1.684  12.532
 5674W        W72457  32.071  41.405   2.643
 5675W        W72458  10.677  19.528   1.946
 5676W        W72459   6.287  26.751   2.196
 5677W        W72460   1.304  18.691   0.983
 5678W        W72461  34.625  35.123  13.993
 5679W        W72462  13.696   0.527   0.308
 5680W        W72463  11.261   7.857   0.093
 5681W        W72464  43.093   8.496  14.927
 5682W        W72465  38.585   4.222   4.419
 5683W        W72466  35.645  24.197  14.904
 5684W        W72467   1.881   4.530  11.357
 5685W        W72468  15.587   4.941  13.321
 5686W        W72469   6.762  24.154   4.070
 5687W        W72470  35.949  10.659   0.432
 5688W        W72471  25.068  43.781  12.804
 5689W        W72472  10.410  22.140  14.994
 5690W        W72473  35.823  27.541   1.820
 5691W        W72474  28.541  22.942  12.035
 5692W        W72475  16.592  22.542   0.834
 5693W        W72476  42.580  28.093  13.721
 5694W        W72477   6.244  22.016  11.919
 5695W        W72478  41.935   7.273  12.975
 5696W        W72479  24.482  21.110  10.616
 5697W        W72480  29.700  20.251   0.977
 5698W        W72481  39.497  35.045  11.094
 5699W        W72482  13.590  24.342   0.869
 5700W        W72483  32.638  19.723   2.501
 5701W        W72484  37.061  28.874  11.113
 5702W        W72485  11.947  12.739   2.860
 5703W        W72486  36.894  26.562  11.116
 5704W        W72487  34.782  19.727  11.684
 5705W        W72488   1.691  30.559  12.465
 5706W        W72489  42.278   2.040  11.382
 5707W        W72490  23.049   8.644   0.918
 5708W        W72491  13.219  23.781   2.860
 5709W        W72492   6.947  29.418   4.850
 5710W        W72493  23.793  10.376  13.356
 5711W        W72494   5.668   5.404   0.388
 5712W        W72495  24.883  25.595  11.357
 5713W        W72496   5.229  19.363  14.465
 5714W        W72497  10.191  22.881  14.341
 5715W        W72498  41.318  20.980  12.126
 5716W        W72499  44.391   9.053   2.363
 5717W        W72500  16.452  10.626   3.320
 5718W        W72501  17.358  27.455  12.517
 5719W        W72502   9.578  17.043  14.762
 5720W        W72503   8.760  29.884   1.001
 5721W        W72504   5.364  24.241  14.981
 5722W        W72505  24.954   9.058   1.702
 5723W        W72506   9.816   7.955   3.090
 5724W        W72507  36.716   9.391   1.492
 5725W        W72508   8.425   3.837  13.018
 5726W        W72509  29.155  19.284  13.141
 5727W        W72510   6.549  14.433  10.450
 5728W        W72511  35.037  29.449   0.683
 5729W        W72512  20.327   9.119   0.287
 5730W        W72513  39.000   2.496   4.114
 5731W        W72514  34.995  33.187  14.899
 5732W        W72515  44.395  12.339  13.321
 5733W        W72516  30.527  16.675   4.055
 5734W        W72517  21.135  29.920   0.798
 5735W        W72518   2.113  28.835  10.321
 5736W        W72519  24.662   9.195  12.198
 5737W        W72520  23.169  36.807   4.757
 5738W        W72521  18.056  32.939   0.363
 5739W        W72522  44.207  39.119   4.472
 5740W        W72523  23.988  38.427  12.523
 5741W        W72524   4.084  13.706  12.413
 5742W        W72525  24.372  10.989   4.334
 5743W        W72526  39.430  28.338  12.371
 5744W        W72527  31.124  41.962   0.318
 5745W        W72528   8.841   5.705   1.296
 5746W        W72529  21.648  35.898   4.660
 5747W        W72530  19.712  35.334   0.298
 5748W        W72531  18.010   0.460  12.503
 5749W        W72532   3.636  37.588  11.157
 5750W        W72533   8.094   7.150   4.082
 5751W        W72534  32.485  32.577   0.322
 5752W        W72535  43.771  10.243  13.465
 5753W        W72536  43.800  18.107   1.507
 5754W        W72537  39.114  38.359  12.042
 5755W        W72538  21.123  17.564  11.418
 5756W        W72539  37.769  18.281  13.072
 5757W        W72540  27.722   3.411   3.125
 5758W        W72541  39.718  14.141   4.978
 5759W        W72542  30.529  14.143  10.743
 5760W        W72543   1.896   4.793   3.724
 5761W        W72544  21.234  34.848  13.530
 5762W        W72545  31.038  44.550  13.375
 5763W        W72546  26.571  33.670  11.874
 5764W        W72547  14.271  43.373  13.951
 5765W        W72548  20.109  18.456   2.269
 5766W        W72549   8.115  30.639  10.853
 5767W        W72550  23.807  24.226  14.846
 5768W        W72551  35.786  38.493  12.463
 5769W        W72552  33.096   1.192   0.890
 5770W        W72553  12.905   2.452  11.130
 5771W        W72554  43.390  18.066   1.164
 5772W        W72555  38.700  19.702   0.775
 5773W        W72556  11.097  19.731  14.602
 5774W        W72557  20.026  14.447   0.173
 5775W        W72558  20.880   9.480   0.928
 5776W        W72559  22.816  33.322   0.936
 5777W        W72560  37.109  31.306  12.035
 5778W        W72561  18.882  39.170   2.281
 5779W        W72562   4.010  23.611   2.406
 5780W        W72563  30.146   3.421  14.490
 5781W        W72564  20.138  12.307  12.594
 5782W        W72565   3.901   5.251  12.795
 5783W        W72566  13.315   2.964   5.022
 5784W        W72567  13.664  14.233   4.745
 5785W        W72568  11.771  16.169  14.852
 5786W        W72569   5.396  38.056  14.434
 5787W        W72570  21.307  29.144   2.645
 5788W        W72571  27.602  34.436  12.692
 5789W        W72572  11.527  16.616   2.748
 5790W        W72573  42.758  18.248   3.278
 5791W        W72574   6.360  20.986   4.203
 5792W        W72575  32.613  30.029  13.411
 5793W        W72576  27.644   4.961   3.756
 5794W        W72577   3.294  28.016   3.759
 5795W        W72578  18.689  34.525   4.314
 5796W        W72579  23.050  13.318  11.545
 5797W        W72580  19.491  13.068   3.731
 5798W        W72581  10.953   8.197   3.220
 5799W        W72582  30.218  26.127  11.066
 5800W        W72583  34.663   2.051   4.636
 5801W        W72584  36.442  23.062   4.065
 5802W        W72585   7.216   6.797   4.342
 5803W        W72586   2.266  24.687   3.692
 5804W        W72587  43.393  31.546  13.329
 5805W        W72588   9.913  12.535   5.020
 5806W        W72589   6.681   6.351   1.803
 5807W        W72590  28.822  13.385  11.946
 5808W        W72591  18.175  17.132  12.689
 5809W        W72592  20.687  25.083  10.564
 5810W        W72593  22.004  20.573   4.686
 5811W        W72594  32.867  32.634  14.896
 5812W        W72595  24.088  17.677  11.969
 5813W        W72596   6.687   0.046   3.444
 5814W        W72597  10.405   6.281  14.850
 5815W        W72598   5.317  34.057  11.656
 5816W        W72599  13.813  43.828  13.325
 5817W        W72600  30.669  16.097   0.856
 5818W        W72601  38.922  26.201  10.847
 5819W        W72602  37.359  23.468  13.966
 5820W        W72603  38.463  13.351  14.955
 5821W        W72604  11.100  29.239  14.802
 5822W        W72605  10.792  13.042   2.329
 5823W        W72606  36.128  18.470   0.346
 5824W        W72607  24.063  11.061   0.006
 5825W        W72608  44.065  38.453  13.352
 5826W        W72609  10.806  29.805   3.463
 5827W        W72610  20.221  19.328   3.652
 5828W        W72611  30.920  12.339  11.572
 5829W        W72612  19.245  20.108   2.400
 5830W        W72613  25.643  22.704  14.467
 5831W        W72614   2.759  18.684   1.312
 5832W        W72615  44.510   3.813   0.824
 5833W        W72616  36.781  20.101   0.883
 5834W        W72617   8.141  24.519  11.503
 5835W        W72618   3.404   1.575   3.352
 5836W        W72619   5.924  25.864   3.628
 5837W        W72620   1.162  13.672  11.131
 5838W        W72621   4.297  42.966  12.201
 5839W        W72622  34.652  37.283  11.937
 5840W        W72623  44.757  31.092   3.300
 5841W        W72624  26.960  17.230  12.993
 5842W        W72625  22.175  44.388  10.711
 5843W        W72626  14.231  11.692   4.226
 5844W        W72627  38.621  36.792   1.774
 5845W        W72628  44.482  13.212  14.383
 5846W        W72629  42.823  24.463   0.389
 5847W        W72630  36.309  26.046   3.408
 5848W        W72631  24.694  16.504  14.713
 5849W        W72632   5.754   2.973  12.462
 5850W        W72633  30.233  18.730  14.270
 5851W        W72634  31.508   2.787   1.119
 5852W        W72635   6.128  43.308  11.166
 5853W        W72636  30.074  23.815  12.993
 5854W        W72637  29.566  37.438  14.397
 5855W        W72638  38.488  34.954  10.765
 5856W        W72639  36.505  31.217  11.169
 5857W        W72640   6.761   5.470   4.608
 5858W        W72641  42.857  19.155   2.902
 5859W        W72642   5.208   5.800   0.862
 5860W        W72643   3.138  22.755  12.665
 5861W        W72644  44.967  28.444   2.304
 5862W        W72645  38.568  25.612   4.074
 5863W        W72646  44.544  42.791   0.774
 5864W        W72647  31.421  23.503  12.969
 5865W        W72648  43.103   2.059  13.291
 5866W        W72649  37.780  19.509   1.219
 5867W        W72650  29.976  31.686   3.642
 5868W        W72651  33.404  42.990   2.242
 5869W        W72652  16.240  33.102  14.983
 5870W        W72653  28.538  38.847  10.309
 5871W        W72654  30.595  26.589  13.071
 5872W        W72655  36.850  20.015   3.258
 5873W        W72656  32.678   4.271   0.832
 5874W        W72657  30.911   4.281   1.719
 5875W        W72658  29.044   0.720   1.357
 5876W        W72659  30.587  16.831   2.576
 5877W        W72660  32.141  19.000   2.317
 5878W        W72661  43.021  31.806  13.607
 5879W        W72662   9.130  40.240   3.650
 5880W        W72663  28.958  11.894   0.365
 5881W        W72664  10.473  14.350   2.751
 5882W        W72665  32.533   8.838  12.934
 5883W        W72666  36.022  31.630  13.768
 5884W        W72667  33.363  35.602   1.334
 5885W        W72668   3.498   5.767  14.280
 5886W        W72669  34.188  27.573  11.065
 5887W        W72670  19.191   0.876  12.972
 5888W        W72671  19.533  38.855  10.638
 5889W        W72672  19.954  42.215  14.755
 5890W        W72673  30.824  17.792   1.308
 5891W        W72674  11.618   5.841   3.674
 5892W        W72675   5.787  12.947  12.561
 5893W        W72676   6.283  18.492  12.525
 5894W        W72677  39.917  21.972   4.515
 5895W        W72678   2.774  14.933  11.587
 5896W        W72679   4.161  24.626  12.421
 5897W        W72680  34.704  24.996   2.323
 5898W        W72681  44.460   8.417  12.113
 5899W        W72682  27.483  13.537   0.041
 5900W        W72683  44.208  33.445   4.689
 5901W        W72684  33.696  16.764  12.636
 5902W        W72685  29.975  33.530   2.753
 5903W        W72686  41.350  33.125   0.704
 5904W        W72687  28.077  35.190   0.942
 5905W        W72688   4.911  39.795  11.348
 5906W        W72689  14.847  23.501   4.830
 5907W        W72690  18.581   1.849   3.849
 5908W        W72691  22.986   9.153   3.705
 5909W        W72692  36.582  11.888  11.435
 5910W        W72693   3.478  33.473   2.317
 5911W        W72694  28.849  15.214  10.670
 5912W        W72695  19.882  28.057  12.740
 5913W        W72696  19.551  26.354   3.766
 5914W        W72697  19.067   0.306   2.014
 5915W        W72698   1.207   1.721  11.040
 5916W        W72699  32.826  42.558   3.137
 5917W        W72700  27.226  41.845  12.979
 5918W        W72701  30.873  19.861   4.023
 5919W        W72702  35.315  13.637   0.886
 5920W        W72703  11.557  17.717   2.788
 5921W        W72704  40.098  30.475  11.114
 5922W        W72705   9.092  33.398  13.742
 5923W        W72706   8.853  39.435  11.136
 5924W        W72707  44.737  18.641  11.239
 5925W        W72708  28.640   0.803   0.056
 5926W        W72709   1.730  34.879  10.710
 5927W        W72710  26.130  43.054  12.113
 5928W        W72711  22.814  19.930  11.121
 5929W        W72712  30.843   9.353   3.732
 5930W        W72713  39.493  30.061   4.185
 5931W        W72714  42.420  15.865   3.002
 5932W        W72715  25.443  44.020  11.945
 5933W        W72716  34.557  39.417  14.314
 5934W        W72717  40.557  21.220  14.323
 5935W        W72718  26.488  36.895   3.827
 5936W        W72719  39.237  21.225   2.685
 5937W        W72720  26.677   9.258   4.794
 5938W        W72721  18.305  22.864  11.956
 5939W        W72722  17.074  17.191  14.512
 5940W        W72723  33.185   1.719   1.396
 5941W        W72724  31.395  21.126  14.941
 5942W        W72725   0.404  27.584  10.446
 5943W        W72726  23.805  12.695   1.313
 5944W        W72727  43.078  26.084  12.970
 5945W        W72728  22.719   1.906   4.504
 5946W        W72729   1.325  25.003  14.050
 5947W        W72730  22.178  37.038  12.601
 5948W        W72731  26.412  28.569  11.211
 5949W        W72732   7.328  22.461  14.988
 5950W        W72733  24.320  22.134  13.896
 5951W        W72734  30.277   0.752  10.806
 5952W        W72735  37.932  10.894  14.324
 5953W        W72736  22.624  22.233  10.982
 5954W        W72737  20.658   8.613  12.639
 5955W        W72738  29.207  24.961  10.699
 5956W        W72739   1.566  12.620   0.190
 5957W        W72740  28.317   0.048   0.719
 5958W        W72741  22.309   0.717   3.702
 5959W        W72742  32.876   3.905  11.993
 5960W        W72743   7.738  14.354  12.022
 5961W        W72744  43.267   2.363  10.596
 5962W        W72745  16.904  37.805  10.632
 5963W        W72746  43.357  23.310  13.878
 5964W        W72747  23.853   1.260   0.323
 5965W        W72748  10.285  29.068  10.629
 5966W        W72749  10.116  25.640   1.668
 5967W        W72750  38.088  27.115   0.751
 5968W        W72751  32.155  10.798  11.069
 5969W        W72752  13.573   7.399  12.304
 5970W        W72753   1.671  36.901   3.098
 5971W        W72754   3.697  12.670   1.908
 5972W        W72755  23.781  14.705  12.378
 5973W        W72756  34.862  19.814  14.115
 5974W        W72757  35.433  41.826  14.875
 5975W        W72758  33.160   7.744   1.104
 5976W        W72759  21.557  37.449  10.618
 5977W        W72760  16.678  21.636  12.801
 5978W        W72761  29.706   0.317   0.826
 5979W        W72762  12.071  30.439  13.866
 5980W        W72763  33.284  44.762   4.186
 5981W        W72764   9.632  28.772  12.545
 5982W        W72765  13.598  13.357  14.879
 5983W        W72766  25.215  38.072   0.970
 5984W        W72767  33.558  34.398   2.497
 5985W        W72768  15.342  13.361  11.016
 5986W        W72769  33.479  43.835  11.329
 5987W        W72770  23.310  41.424   4.091
 5988W        W72771   2.035  37.376   3.734
 5989W        W72772   6.217  25.691   3.229
 5990W        W72773  43.518  23.655  12.938
 5991W        W72774  18.671  15.309  14.102
 5992W        W72775   3.369  24.176  12.592
 5993W        W72776  26.445  42.039   1.452
 5994W        W72777   4.817  18.667   4.621
 5995W        W72778  33.341  32.007   2.773
 5996W        W72779   6.139  35.977   4.412
 5997W        W72780  25.250  42.819   4.456
 5998W        W72781  40.315  42.332  14.739
 5999W        W72782   3.937  21.952   1.914
 6000W        W72783  35.555  34.830  11.364
 6001W        W72784  11.823  40.946  11.221
 6002W        W72785  22.047  10.657   3.688
 6003W        W72786  26.828   6.399   2.463
 6004W        W72787  21.598  27.975  10.496
 6005W        W72788   3.758  35.403   1.523
 6006W        W72789  36.340  35.962   4.069
 6007W        W72790  25.090  17.711   3.118
 6008W        W72791  39.436   2.305  10.743
 6009W        W72792  44.305  40.614   2.175
 6010W        W72793  22.784  38.893  10.349
 6011W        W72794  21.073  43.095  14.784
 6012W        W72795  21.354  21.927   2.181
 6013W        W72796  12.310  14.311  11.417
 6014W        W72797  21.072  32.032  10.697
 6015W        W72798  32.030  34.272  10.756
 6016W        W72799   2.651   7.119  11.572
 6017W        W72800  32.395  18.354  14.819
 6018W        W72801  10.246  21.234   2.834
 6019W        W72802  41.322  34.398   3.212
 6020W        W72803  23.438  33.727  11.536
 6021W        W72804  11.077  34.570  14.993
 6022W        W72805  35.332  29.129   3.663
 6023W        W72806  32.321  38.099   2.868
 6024W        W72807  32.522  13.754  11.994
 6025W        W72808  17.376  24.260  12.480
 6026W        W72809  34.170  26.792   3.258
 6027W        W72810  29.977  43.106   3.536
 6028W        W72811   0.243  27.188   1.215
 6029W        W72812   7.877  42.195  13.544
 6030W        W72813  22.181  16.737  11.610
 6031W        W72814  31.719  41.019  13.081
 6032W        W72815   8.127  30.974  10.436
 6033W        W72816  27.264   6.561   0.366
 6034W        W72817   5.392   8.369  14.204
 6035W        W72818  26.937  21.814  11.633
 6036W        W72819  37.058  14.281  11.125
 6037W        W72820  12.056  12.274  11.953
 6038W        W72821  12.106  40.046  12.992
 6039W        W72822  24.061   9.399   1.693
 6040W        W72823  35.095  23.979  14.514
 6041W        W72824  12.101  30.373   3.543
 6042W        W72825  41.982  25.209   3.328
 6043W        W72826  43.263  44.368  14.978
 6044W        W72827   1.760  23.691   3.805
 6045W        W72828  32.509   9.161  14.860
 6046W        W72829  36.947  36.380  14.414
 6047W        W72830  24.833  31.586  13.771
 6048W        W72831  40.237  30.701   3.852
 6049W        W72832  41.879  37.472   4.138
 6050W        W72833  30.639  23.225  10.696
 6051W        W72834  44.697  31.011  14.327
 6052W        W72835  28.390   5.673  14.379
 6053W        W72836  33.848  32.367  14.891
 6054W        W72837  38.466  27.875   3.104
 6055W        W72838  43.011  22.635  11.233
 6056W        W72839   3.272   1.939  14.156
 6057W        W72840  42.292  11.948   3.766
 6058W        W72841   4.927   1.214  10.698
 6059W        W72842  33.346  39.227   3.737
 6060W        W72843  22.909  40.518  13.989
 6061W        W72844   2.791  15.380   1.242
 6062W        W72845  18.571  15.818  12.404
 6063W        W72846   8.437  17.565  12.000
 6064W        W72847  19.639  20.652   1.731
 6065W        W72848  10.564  15.623  13.001
 6066W        W72849  22.045   2.923  14.275
 6067W        W72850  24.587   3.022  12.083
 6068W        W72851  40.768  21.999   3.632
 6069W        W72852  21.070  15.589  10.282
 6070W        W72853  15.309  27.271  14.448
 6071W        W72854  29.077  15.934   2.150
 6072W        W72855  18.555  28.394  11.570
 6073W        W72856   8.886  40.620  14.561
 6074W        W72857  19.844  31.644  11.114
 6075W        W72858  29.404  16.012  13.534
 6076W        W72859  21.325   9.877  11.245
 6077W        W72860  22.647  20.788   0.323
 6078W        W72861  12.091  25.502   1.886
 6079W        W72862  19.361  13.667   4.543
 6080W        W72863   8.489  33.527  12.962
 6081W        W72864  10.800  12.532  10.602
 6082W        W72865  15.414  24.975  11.230
 6083W        W72866   2.740  15.822  12.045
 6084W        W72867  38.040  16.231  13.282
 6085W        W72868  26.687  25.602   3.119
 6086W        W72869  13.122  30.894  10.732
 6087W        W72870  22.820  39.092   2.344
 6088W        W72871  41.537  28.661   3.227
 6089W        W72872  17.482  11.246  13.542
 6090W        W72873  17.538  36.383   0.506
 6091W        W72874  36.598  32.862   2.887
 6092W        W72875  29.480  38.258   2.616
 6093W        W72876   4.823   2.185  11.569
 6094W        W72877  23.758  19.861  12.863
 6095W        W72878  32.431  14.162  14.986
 6096W        W72879  24.232  32.647  14.425
 6097W        W72880   5.858  16.725  14.560
 6098W        W72881  21.158  34.136   0.004
 6099W        W72882  32.364  27.488  11.573
 6100W        W72883  14.039  34.346  11.508
 6101W        W72884  17.209  12.931  10.520
 6102W        W72885  22.293  19.563  13.993
 6103W        W72886   1.819  32.948  14.323
 6104W        W72887   0.347  40.622  13.193
 6105W        W72888  16.231  24.899  11.832
 6106W        W72889  40.841  44.476  11.675
 6107W        W72890  34.054  38.728  14.335
 6108W        W72891  31.638  30.376   2.333
 6109W        W72892  37.678  14.969   0.992
 6110W        W72893   6.835  41.916   3.817
 6111W        W72894  37.841  16.590   0.274
 6112W        W72895   7.760  27.683  14.859
 6113W        W72896  34.625   0.261  11.283
 6114W        W72897  44.639  33.960  11.992
 6115W        W72898  28.673  30.978  12.487
 6116W        W72899  11.209  25.452   0.927
 6117W        W72900  44.861   0.317   2.235
 6118W        W72901  39.324  36.877   1.955
 6119W        W72902  40.362  34.524   4.270
 6120W        W72903  25.434   1.952   2.715
 6121W        W72904  18.172  11.870  12.513
 6122W        W72905  34.029  16.054  12.881
 6123W        W72906   8.384  44.280   0.261
 6124W        W72907  18.898  15.251  11.144
 6125W        W72908   7.191  37.428   4.052
 6126W        W72909  31.793  19.487  12.528
 6127W        W72910  40.963  38.616  10.755
 6128W        W72911   6.807  21.715   2.312
 6129W        W72912   3.513   4.186   0.295
 6130W        W72913   0.077  15.588   1.429
 6131W        W72914  11.993  21.618  11.567
 6132W        W72915  10.176  20.963  13.933
 6133W        W72916  43.874  16.844   3.699
 6134W        W72917  14.612  34.393  13.442
 6135W        W72918  24.432  39.425  10.621
 6136W        W72919   0.738  14.631   5.048
 6137W        W72920  33.055  19.497   2.209
 6138W        W72921  26.379  15.947  14.755
 6139W        W72922  33.642  38.425   3.832
 6140W        W72923   0.093   5.554  14.206
 6141W        W72924  29.858   0.062  12.623
 6142W        W72925  32.573  18.749   2.126
 6143W        W72926  19.393  11.578   0.076
 6144W        W72927  10.098  10.277   2.747
 6145W        W72928  19.108  13.534   5.000
 6146W        W72929  38.946  33.401  14.033
 6147W        W72930  25.542   0.050   4.549
 6148W        W72931  18.916   4.122   1.884
 6149W        W72932  28.003   4.537  14.902
 6150W        W72933  14.687  23.118  10.743
 6151W        W72934  12.422  25.959   3.238
 6152W        W72935  13.029  23.885  12.614
 6153W        W72936  31.751  25.093   1.249
 6154W        W72937  32.574  35.812   2.381
 6155W        W72938  10.252  43.792   0.307
 6156W        W72939  30.723  18.003  12.455
 6157W        W72940  11.347   5.370  10.678
 6158W        W72941  27.618  22.404  11.644
 6159W        W72942  33.601  16.747  14.599
 6160W        W72943  32.672  38.265  12.317
 6161W        W72944  22.081   6.871   9.516
 6162W        W72945   2.381  14.047  11.520
 6163W        W72946  25.073  41.896  13.717
 6164W        W72947  31.597   6.485   3.662
 6165W        W72948  11.906   1.789  10.768
 6166W        W72949  11.928  16.712  11.596
 6167W        W72950  11.596  16.094  14.042
 6168W        W72951  18.098  16.531   4.226
 6169W        W72952  27.625  13.596  12.100
 6170W        W72953   8.874  19.802   1.620
 6171W        W72954  12.304  19.076   0.761
 6172W        W72955  35.510  41.923   2.427
 6173W        W72956  38.405   7.325   0.641
 6174W        W72957  30.133  35.193  10.765
 6175W        W72958  10.476  24.099  12.492
 6176W        W72959  20.729  24.999  13.681
 6177W        W72960  21.218  34.815  11.163
 6178W        W72961  41.521  36.869   4.321
 6179W        W72962   2.797  10.685  12.536
 6180W        W72963   9.722  24.290   2.368
 6181W        W72964   0.260  39.336  12.797
 6182W        W72965  44.195  42.019  10.451
 6183W        W72966  16.644  14.219  11.983
 6184W        W72967  23.033  12.262   0.702
 6185W        W72968  37.559  13.098  14.783
 6186W        W72969  20.996   9.720  11.605
 6187W        W72970   5.890  44.017   4.487
 6188W        W72971  41.250   9.732  11.413
 6189W        W72972  24.615  13.281   1.382
 6190W        W72973  17.595   9.224  13.281
 6191W        W72974  23.209  37.151  11.456
 6192W        W72975  35.141  40.156   3.309
 6193W        W72976  29.190  22.207   4.118
 6194W        W72977  40.963   2.821  10.744
 6195W        W72978  14.482  33.528  13.955
 6196W        W72979  27.162  16.744  13.046
 6197W        W72980   7.267  41.426  13.280
 6198W        W72981  37.025  34.643   2.394
 6199W        W72982  28.487   4.790  11.957
 6200W        W72983  10.566  38.036   2.778
 6201W        W72984  27.492  28.507  13.408
 6202W        W72985  10.127  20.606   0.544
 6203W        W72986   5.055  15.670  13.082
 6204W        W72987  28.506  26.967   0.533
 6205W        W72988  29.458  40.389   0.447
 6206W        W72989  43.790  38.411  13.804
 6207W        W72990  42.212  32.627   0.837
 6208W        W72991  21.312  22.603  11.008
 6209W        W72992   6.138   0.505  11.071
 6210W        W72993  41.756  28.762   1.904
 6211W        W72994  29.390  36.500   0.962
 6212W        W72995  40.953  32.543  14.125
 6213W        W72996  12.501  36.244  13.705
 6214W        W72997   4.955  23.264   3.245
 6215W        W72998   6.929   0.778   0.473
 6216W        W72999   9.611   0.447   0.690
 6217W        W73000  24.439  40.096   4.090
 6218W        W73001  43.432  15.126  13.412
 6219W        W73002  29.167  12.085   4.572
 6220W        W73003  17.583   8.272   1.439
 6221W        W73004  36.476   4.466   3.597
 6222W        W73005  14.253  42.853   0.764
 6223W        W73006  39.611  29.975  14.679
 6224W        W73007  32.866   3.637  12.449
 6225W        W73008  42.319  43.814   4.611
 6226W        W73009  19.869   0.875  13.973
 6227W        W73010  26.427   5.200   3.422
 6228W        W73011  42.509   3.868  11.230
 6229W        W73012  42.373  26.162   0.861
 6230W        W73013  29.080   3.546  12.466
 6231W        W73014  44.372  27.438   4.583
 6232W        W73015  33.558   5.203  13.032
 6233W        W73016  31.393  20.531  12.084
 6234W        W73017  13.339  38.581  11.848
 6235W        W73018   6.138  22.972   3.774
 6236W        W73019  10.773  12.822  11.990
 6237W        W73020   0.082  10.740   3.631
 6238W        W73021  42.289  38.937  12.514
 6239W        W73022  16.719  35.806  10.346
 6240W        W73023  14.677  38.866   2.837
 6241W        W73024   4.737   6.938  13.480
 6242W        W73025  18.583   7.871   4.485
 6243W        W73026  38.928  26.212   3.688
 6244W        W73027  22.595   9.929   3.757
 6245W        W73028  13.800  13.851  13.065
 6246W        W73029  16.756  15.366   2.531
 6247W        W73030  10.186  31.682  13.873
 6248W        W73031  23.933  39.366  14.998
 6249W        W73032  19.312  44.300  12.511
 6250W        W73033  37.873  15.267  14.258
 6251W        W73034  15.005  18.351  11.212
 6252W        W73035  29.230  23.656  10.680
 6253W        W73036  44.455  24.158   0.962
 6254W        W73037  25.582  13.523  11.564
 6255W        W73038  10.400  25.599   1.220
 6256W        W73039  44.970   6.322   2.424
 6257W        W73040  28.093  12.288   2.217
 6258W        W73041  18.269  23.070   4.730
 6259W        W73042  29.659  17.064   3.362
 6260W        W73043  37.002  16.790  13.164
 6261W        W73044  20.128   9.956  14.808
 6262W        W73045  32.111  31.015  10.701
 6263W        W73046  13.951  21.030   4.730
 6264W        W73047  44.390  34.293  13.601
 6265W        W73048   8.413   7.411  13.597
 6266W        W73049  10.852  36.379  12.693
 6267W        W73050  12.443  27.368  12.024
 6268W        W73051  18.948  10.102   5.303
 6269W        W73052  25.711  33.535   4.197
 6270W        W73053  37.337  10.367   0.492
 6271W        W73054  31.550  16.344   2.338
 6272W        W73055  34.400   8.319   4.085
 6273W        W73056  38.029   1.469   1.387
 6274W        W73057  17.498   7.857  13.072
 6275W        W73058   4.091   9.667  11.508
 6276W        W73059  41.298  27.000  14.758
 6277W        W73060  25.954   7.186  13.040
 6278W        W73061  34.876  17.507   2.851
 6279W        W73062  33.847   7.258   0.005
 6280W        W73063  42.205  13.309  11.278
 6281W        W73064  33.914  22.685  12.963
 6282W        W73065  38.608  11.188   2.706
 6283W        W73066  27.883  24.574   0.259
 6284W        W73067  18.623  39.271  11.927
 6285W        W73068   2.988  13.560  12.109
 6286W        W73069  37.101  38.588  14.948
 6287W        W73070  20.660  32.395   4.178
 6288W        W73071   1.536  25.505   2.271
 6289W        W73072  14.289  32.518   0.526
 6290W        W73073  10.190  44.732  13.952
 6291W        W73074  25.717  38.953   0.811
 6292W        W73075   5.947   9.391   0.782
 6293W        W73076   0.299  19.159   4.141
 6294W        W73077  25.004  41.888  12.381
 6295W        W73078  38.143  15.435   4.209
 6296W        W73079   9.095  15.593   4.116
 6297W        W73080  39.887  33.464   4.650
 6298W        W73081  15.708   8.685   1.143
 6299W        W73082  37.871  17.005  14.965
 6300W        W73083  27.403  23.718   1.783
 6301W        W73084  26.819  37.910   5.071
 6302W        W73085   4.707   3.483   4.725
 6303W        W73086  31.891  30.549  14.096
 6304W        W73087  39.827  37.078   0.839
 6305W        W73088  41.667  12.091  10.228
 6306W        W73089  37.813   4.593  14.804
 6307W        W73090  44.025  44.379   1.477
 6308W        W73091  34.207   3.845   1.766
 6309W        W73092  30.983  41.517   4.507
 6310W        W73093  17.213  25.960   0.590
 6311W        W73094  10.784  22.665  11.221
 6312W        W73095  43.076   9.301   4.511
 6313W        W73096  12.609  21.823   1.856
 6314W        W73097  19.726  13.155  12.491
 6315W        W73098   9.244  35.334  13.330
 6316W        W73099  24.101   1.649  13.279
 6317W        W73100   5.500  25.238  14.116
 6318W        W73101  38.145  37.800  13.994
 6319W        W73102  42.311  15.530   0.614
 6320W        W73103  27.175  24.070   0.556
 6321W        W73104   4.211  29.039  10.856
 6322W        W73105   3.401  12.719  12.122
 6323W        W73106  19.203   9.312  14.821
 6324W        W73107  29.845  41.367  12.631
 6325W        W73108  11.607  13.165   1.031
 6326W        W73109  12.761  15.425   2.102
 6327W        W73110  38.476   4.959  11.076
 6328W        W73111   4.205   4.627   4.022
 6329W        W73112  25.277  29.757  12.950
 6330W        W73113  29.081  31.882   0.908
 6331W        W73114  43.367  16.518   2.807
 6332W        W73115  18.075  26.735  11.044
 6333W        W73116   1.296  32.582   1.939
 6334W        W73117  17.046  19.382   2.015
 6335W        W73118  37.905  31.492   4.588
 6336W        W73119  26.119  43.223  10.664
 6337W        W73120   9.067  34.499   2.577
 6338W        W73121  20.227  14.361   0.653
 6339W        W73122  41.333   6.729   2.786
 6340W        W73123  15.422  23.135   1.711
 6341W        W73124  23.248   8.357  10.778
 6342W        W73125  33.004  40.406   2.684
 6343W        W73126  39.049  26.456  12.847
 6344W        W73127  36.615  33.930   2.913
 6345W        W73128  19.345  28.011  11.047
 6346W        W73129  14.391   5.164   1.341
 6347W        W73130   9.942  43.707  11.669
 6348W        W73131   8.222  26.008   1.467
 6349W        W73132  44.322  19.052  10.204
 6350W        W73133  31.689  41.928   4.795
 6351W        W73134  22.042  39.889   2.640
 6352W        W73135  28.215  32.500   3.183
 6353W        W73136  31.083  37.644  14.546
 6354W        W73137  32.709  39.888   4.501
 6355W        W73138  19.276   6.936  12.766
 6356W        W73139   6.794  20.998   0.942
 6357W        W73140  31.032   1.988   3.185
 6358W        W73141  31.539  40.380   1.414
 6359W        W73142  33.568  10.103  11.949
 6360W        W73143  36.481  29.356  13.493
 6361W        W73144   8.183   7.305  14.784
 6362W        W73145   5.446  32.468  13.873
 6363W        W73146  23.963   8.200   0.180
 6364W        W73147  37.313  19.659   1.919
 6365W        W73148  19.346  43.952   3.202
 6366W        W73149   2.759  32.636  12.842
 6367W        W73150  24.993  36.897   1.894
 6368W        W73151  34.903  15.572  11.714
 6369W        W73152  33.002  28.492  11.197
 6370W        W73153  13.317  17.662   0.411
 6371W        W73154  35.270   8.638   9.945
 6372W        W73155  17.248  34.014  14.490
 6373W        W73156   4.758  37.876  12.942
 6374W        W73157  32.253  14.157   4.563
 6375W        W73158  43.403  21.263   2.318
 6376W        W73159   2.968  19.138  12.636
 6377W        W73160   5.397  44.847  10.953
 6378W        W73161  25.651  20.837   0.875
 6379W        W73162   4.203  16.333  12.161
 6380W        W73163  29.633  39.277  11.944
 6381W        W73164   1.749  10.968   0.128
 6382W        W73165  39.452  22.671   1.305
 6383W        W73166   6.770  23.640   1.933
 6384W        W73167  29.499   7.371   1.875
 6385W        W73168  43.439   5.647   1.874
 6386W        W73169  18.660   8.707   1.238
 6387W        W73170  26.307   4.777  10.307
 6388W        W73171  12.049  20.060  12.112
 6389W        W73172  31.560   4.953  12.000
 6390W        W73173  26.880  36.143  10.710
 6391W        W73174  33.345  28.664   0.752
 6392W        W73175   0.434  11.281  11.124
 6393W        W73176  41.737   4.916  10.517
 6394W        W73177  41.520  16.670  14.127
 6395W        W73178   8.126  28.067   0.889
 6396W        W73179  21.047  40.307   1.303
 6397W        W73180   3.335  14.366  10.030
 6398W        W73181  15.835  43.501  10.880
 6399W        W73182  26.721  27.423  12.101
 6400W        W73183  43.007  13.408   2.424
 6401W        W73184  30.606  27.736  14.488
 6402W        W73185  21.523  23.926   3.264
 6403W        W73186  20.736  38.124  11.318
 6404W        W73187   1.033  19.617   0.413
 6405W        W73188  18.740   3.161  10.044
 6406W        W73189  17.570  23.470  13.846
 6407W        W73190   7.853   9.851   0.903
 6408W        W73191  13.833   2.613  12.131
 6409W        W73192   4.210  20.041   1.867
 6410W        W73193  13.195   2.331   2.791
 6411W        W73194   8.643   4.109   3.240
 6412W        W73195  37.034  29.999  13.232
 6413W        W73196   2.725  44.789  13.977
 6414W        W73197  33.634  35.504  14.350
 6415W        W73198   1.349   4.475   4.593
 6416W        W73199  37.447  40.846   1.197
 6417W        W73200  19.967   5.763   1.311
 6418W        W73201   1.069  27.960   0.510
 6419W        W73202  22.634  22.720  14.445
 6420W        W73203  38.802  25.782  11.620
 6421W        W73204  42.991  12.572   3.059
 6422W        W73205  20.129  10.677  12.524
 6423W        W73206  44.874  13.178   4.742
 6424W        W73207  16.136  26.945  14.780
 6425W        W73208  18.649  18.872  12.562
 6426W        W73209  24.210  36.624   3.723
 6427W        W73210  13.307  41.923   0.708
 6428W        W73211  11.363  27.075  13.189
 6429W        W73212  11.601  32.349   0.747
 6430W        W73213  44.044  35.060  11.171
 6431W        W73214  42.910  13.494   0.863
 6432W        W73215   3.218  34.898  13.868
 6433W        W73216   3.315  42.610  12.999
 6434W        W73217  13.284   7.161  11.531
 6435W        W73218  23.758  37.966  10.526
 6436W        W73219  42.465  30.674   3.973
 6437W        W73220  12.624  28.021  13.423
 6438W        W73221  43.752  39.926  10.818
 6439W        W73222  32.152  39.888   2.777
 6440W        W73223  39.056   9.797   2.822
 6441W        W73224   1.821  16.305   3.639
 6442W        W73225  25.750  10.767   1.881
 6443W        W73226  35.829  17.524  14.697
 6444W        W73227   1.764   0.966   0.469
 6445W        W73228  15.805  31.147   2.495
 6446W        W73229  11.217  41.058  11.668
 6447W        W73230  25.166  14.669  14.239
 6448W        W73231  12.768  12.748  14.508
 6449W        W73232  27.652   5.457   3.891
 6450W        W73233  16.223   6.307   1.662
 6451W        W73234   5.821  11.813   1.881
 6452W        W73235   6.410  44.296  12.876
 6453W        W73236  11.445   4.970  13.018
 6454W        W73237  35.683  11.814  11.073
 6455W        W73238  15.117  15.099  10.709
 6456W        W73239  40.858   9.376   2.147
 6457W        W73240  38.827  33.615   2.348
 6458W        W73241  37.076   5.704   3.728
 6459W        W73242  43.623   0.896   4.297
 6460W        W73243  43.337  21.276   5.112
 6461W        W73244  23.200  24.527  12.595
 6462W        W73245   4.289  13.649   0.896
 6463W        W73246   6.712   3.713   1.865
 6464W        W73247  39.091  36.595   4.188
 6465W        W73248  32.109  15.544   3.697
 6466W        W73249   8.180   2.461   0.437
 6467W        W73250  40.028  18.016  12.414
 6468W        W73251   1.615  34.908   0.488
 6469W        W73252  35.125   8.350  11.992
 6470W        W73253  43.467   4.270  14.474
 6471W        W73254  16.652  42.666  14.865
 6472W        W73255   7.238  29.654  10.890
 6473W        W73256  23.512  38.814  11.549
 6474W        W73257  20.065   2.819  12.480
 6475W        W73258  21.897  12.494  13.541
 6476W        W73259   6.122   6.285  14.908
 6477W        W73260  18.042  16.374  11.987
 6478W        W73261  18.215  25.923   0.920
 6479W        W73262   4.315  30.554   0.381
 6480W        W73263  11.907  29.495   2.352
 6481W        W73264  33.181  11.850  13.334
 6482W        W73265   7.762  19.520  10.723
 6483W        W73266  36.472  28.380   2.829
 6484W        W73267  35.961  20.955   2.785
 6485W        W73268  21.465   0.513  11.713
 6486W        W73269   2.220  42.006  11.602
 6487W        W73270  19.139  11.435  12.033
 6488W        W73271  44.581  16.284   1.271
 6489W        W73272  24.845  22.374  12.069
 6490W        W73273   1.523  37.885  13.930
 6491W        W73274  17.051  42.568   1.737
 6492W        W73275   5.494  29.733   0.439
 6493W        W73276  29.768  14.076  11.076
 6494W        W73277  10.604   3.318   0.178
 6495W        W73278   5.321  11.792  11.705
 6496W        W73279   1.400  40.279   2.632
 6497W        W73280  37.379  23.460   0.284
 6498W        W73281   5.308  43.225   3.328
 6499W        W73282  25.540  37.511  12.455
 6500W        W73283   4.661  24.636   4.143
 6501W        W73284  16.134  39.131  11.359
 6502W        W73285   9.086   5.156   1.396
 6503W        W73286   4.794  37.308  13.732
 6504W        W73287   9.521  23.857  10.748
 6505W        W73288  16.267   0.253  10.751
 6506W        W73289  18.506  18.295   4.351
 6507W        W73290   8.382  44.311  12.701
 6508W        W73291  22.682  36.591   4.954
 6509W        W73292  31.357  17.826  11.143
 6510W        W73293  29.732  40.807   4.107
 6511W        W73294  36.323  25.340  13.432
 6512W        W73295  41.844  24.955   0.250
 6513W        W73296  37.162  42.412  10.963
 6514W        W73297  18.807  35.034   0.765
 6515W        W73298  20.358  27.903  11.994
 6516W        W73299   8.239   1.668   4.218
 6517W        W73300  12.684  15.305  11.966
 6518W        W73301  44.975   4.730   4.385
 6519W        W73302  40.075   6.360   1.936
 6520W        W73303  16.306  22.621  10.989
 6521W        W73304   8.671  17.713  12.890
 6522W        W73305   2.237  38.788  13.527
 6523W        W73306  31.030  28.658  14.267
 6524W        W73307  40.630  23.221  12.495
 6525W        W73308  39.519  10.186   0.634
 6526W        W73309  32.019  34.913  13.503
 6527W        W73310  10.849  31.662  11.528
 6528W        W73311  28.141  15.372  14.966
 6529W        W73312  27.925  41.212   3.075
 6530W        W73313  37.987  42.575   3.584
 6531W        W73314  40.743  41.937  10.538
 6532W        W73315  29.521  22.286  10.754
 6533W        W73316  33.494  37.516  12.604
 6534W        W73317  31.532  24.552   2.807
 6535W        W73318  12.158  20.622  12.946
 6536W        W73319  17.049  18.035  14.973
 6537W        W73320  23.108  13.998  12.902
 6538W        W73321  26.620  41.775   1.865
 6539W        W73322  29.690   0.756   2.617
 6540W        W73323  23.479   2.115  12.146
 6541W        W73324  37.610  12.852  12.526
 6542W        W73325  17.760   6.725  14.770
 6543W        W73326  18.006  20.277  14.702
 6544W        W73327   6.792  24.508  11.055
 6545W        W73328  29.531  29.689   0.992
 6546W        W73329  24.575   4.973  12.276
 6547W        W73330  31.875   4.730  13.489
 6548W        W73331  17.058  24.203   2.696
 6549W        W73332  44.917   2.238   2.279
 6550W        W73333  36.721   0.770  10.779
 6551W        W73334  38.670  13.766  10.702
 6552W        W73335   7.798  39.815   0.409
 6553W        W73336  19.684  37.541  14.945
 6554W        W73337  39.197  10.736  11.360
 6555W        W73338  23.050  13.799   2.425
 6556W        W73339   0.337  33.868   4.500
 6557W        W73340  26.955  44.505  11.256
 6558W        W73341  12.054  15.680  11.314
 6559W        W73342  38.328  12.137  11.629
 6560W        W73343  16.021   7.788   3.429
 6561W        W73344  34.477  28.638  10.604
 6562W        W73345  29.435  14.600  12.163
 6563W        W73346  27.160  15.829  11.477
 6564W        W73347   3.901  41.945   3.226
 6565W        W73348  22.172   0.396   9.722
 6566W        W73349  40.770   7.633  14.681
 6567W        W73350   7.606  16.106   2.291
 6568W        W73351  13.221  23.715  14.774
 6569W        W73352  37.530  38.388  13.016
 6570W        W73353  33.557  41.277   4.746
 6571W        W73354  26.108   8.727  13.960
 6572W        W73355  30.932  25.479   4.566
 6573W        W73356  10.211  44.061  10.104
 6574W        W73357  13.269   1.521  10.289
 6575W        W73358  33.986  31.086   3.753
 6576W        W73359  35.915   4.943   0.724
 6577W        W73360  30.769  40.340   4.899
 6578W        W73361  34.872  38.283  12.887
 6579W        W73362  10.933  27.519   0.277
 6580W        W73363  10.198  15.926   1.379
 6581W        W73364  14.107  44.433   4.937
 6582W        W73365  28.267  17.744  12.917
 6583W        W73366  35.383  11.651  14.566
 6584W        W73367  16.651   8.175  11.630
 6585W        W73368  42.491  43.184  11.940
 6586W        W73369   6.540  22.834  14.479
 6587W        W73370  27.578  13.667   2.302
 6588W        W73371  28.022  22.077   3.860
 6589W        W73372   1.729  42.837   4.578
 6590W        W73373  33.985  38.349   4.744
 6591W        W73374  19.279   6.360  11.163
 6592W        W73375   1.728  17.929   3.241
 6593W        W73376  11.577  39.906  13.857
 6594W        W73377  21.786  29.923   3.840
 6595W        W73378  24.949  34.613   3.900
 6596W        W73379  29.584  37.831   1.874
 6597W        W73380   1.299  15.023   2.768
 6598W        W73381  31.802  37.334   2.866
 6599W        W73382   6.160   4.276  13.289
 6600W        W73383  39.354   0.467  11.064
 6601W        W73384  21.969  17.990  11.143
 6602W        W73385  36.024   4.137  11.001
 6603W        W73386   0.048   9.865   3.756
 6604W        W73387  20.729  23.655   3.780
 6605W        W73388   3.155  25.008   3.176
 6606W        W73389  11.461   5.607  13.437
 6607W        W73390  41.832   7.733   0.733
 6608W        W73391  34.639  33.597  14.880
 6609W        W73392  27.105  34.919   2.394
 6610W        W73393  24.040  33.147  12.078
 6611W        W73394  19.029  33.397  14.049
 6612W        W73395   0.383  41.084   0.109
 6613W        W73396  39.364  28.214  14.220
 6614W        W73397   4.974  41.051   4.928
 6615W        W73398  11.105  42.797  13.806
 6616W        W73399  21.548  33.277  10.575
 6617W        W73400  36.562  23.245  12.107
 6618W        W73401  39.831  35.951  13.738
 6619W        W73402  36.902  18.658  11.003
 6620W        W73403  42.342  30.885   4.505
 6621W        W73404   6.570  25.659  14.382
 6622W        W73405  19.697  15.758  11.988
 6623W        W73406   7.385  28.497   3.309
 6624W        W73407  38.122   4.485   2.183
 6625W        W73408  20.213   7.832  12.188
 6626W        W73409  43.178  34.886   2.721
 6627W        W73410   3.367  37.340   2.912
 6628W        W73411   8.058  44.060   4.121
 6629W        W73412  24.981  44.295  11.942
 6630W        W73413  28.453   5.766   4.431
 6631W        W73414  44.255  18.027   0.977
 6632W        W73415   6.738  29.122   0.250
 6633W        W73416  40.410  27.724   1.410
 6634W        W73417  32.382  16.166  12.201
 6635W        W73418  37.578   3.297  13.468
 6636W        W73419  20.461  40.215   3.163
 6637W        W73420  36.028  39.621   1.754
 6638W        W73421  27.928  33.518   0.757
 6639W        W73422  13.676  13.629   0.340
 6640W        W73423  12.258   3.825   0.877
 6641W        W73424  19.135  16.641  12.590
 6642W        W73425  37.071  25.794   4.575
 6643W        W73426  18.746  26.094   3.146
 6644W        W73427  15.367  12.481  14.736
 6645W        W73428  37.963   3.794   0.029
 6646W        W73429  42.997  32.698   0.322
 6647W        W73430  33.544   9.372   0.835
 6648W        W73431  11.059  32.787   2.211
 6649W        W73432  42.409   3.870  13.373
 6650W        W73433  27.243   7.979   3.590
 6651W        W73434  15.656   3.901   1.241
 6652W        W73435  23.701  14.565  10.742
 6653W        W73436  14.760   5.306   4.334
 6654W        W73437  23.530  29.806   1.820
 6655W        W73438   0.452  41.949   0.738
 6656W        W73439  17.248  34.065   0.481
 6657W        W73440  13.548  17.077   4.917
 6658W        W73441  36.064   3.723   5.036
 6659W        W73442  27.435   5.126   0.350
 6660W        W73443  27.072   6.831   3.732
 6661W        W73444   4.973  27.259   4.841
 6662W        W73445  16.758  37.622  11.085
 6663W        W73446  13.251  42.535  11.192
 6664W        W73447   4.313  41.164  10.687
 6665W        W73448  12.733  26.978  10.649
 6666W        W73449  38.136  20.501  12.458
 6667W        W73450   1.213  42.876  12.984
 6668W        W73451   1.792  41.022   1.751
 6669W        W73452   5.793  44.850  14.374
 6670W        W73453  26.538  43.882  10.949
 6671W        W73454  32.154  33.775  10.875
 6672W        W73455  38.973   5.620   3.306
 6673W        W73456  29.938   7.879   3.724
 6674W        W73457  24.224   8.061  11.674
 6675W        W73458  12.535  38.966   0.875
 6676W        W73459  29.683  43.271  12.617
 6677W        W73460   6.468   1.451   3.628
 6678W        W73461  29.491   0.146   0.363
 6679W        W73462   1.139  28.643  11.993
 6680W        W73463  26.069  38.087   4.585
 6681W        W73464  31.473  30.149   2.796
 6682W        W73465  20.822  24.722  12.506
 6683W        W73466   2.476  24.215   1.640
 6684W        W73467   7.564  24.720  10.459
 6685W        W73468  24.679  23.579   0.510
 6686W        W73469   6.857   8.794  13.492
 6687W        W73470  40.831  33.986  11.664
 6688W        W73471  26.609  13.703  13.409
 6689W        W73472  18.968  37.953  14.368
 6690W        W73473  44.286  44.208   4.762
 6691W        W73474  37.760  21.274  10.463
 6692W        W73475  20.842   2.327   4.826
 6693W        W73476  21.779  13.744   1.346
 6694W        W73477  40.272  27.690  13.797
 6695W        W73478  18.614  23.359   0.956
 6696W        W73479  28.621  40.747  11.844
 6697W        W73480  28.167  34.432  10.786
 6698W        W73481  15.419   1.006   3.826
 6699W        W73482  35.071   1.460  12.036
 6700W        W73483  21.832  16.141   1.077
 6701W        W73484   1.027  18.268  11.178
 6702W        W73485  30.473  23.130  14.743
 6703W        W73486  40.058  14.728   1.762
 6704W        W73487  33.594  35.018  12.653
 6705W        W73488  14.253  29.408  10.748
 6706W        W73489  12.695   2.197   3.641
 6707W        W73490   8.374  15.298  14.494
 6708W        W73491  12.420   1.580   1.307
 6709W        W73492  23.626  26.525   3.473
 6710W        W73493  24.311   5.978  10.079
 6711W        W73494  19.131  19.748  11.150
 6712W        W73495  17.174  11.081  11.278
 6713W        W73496  22.482  21.161   5.248
 6714W        W73497  16.714  37.877   2.769
 6715W        W73498  24.000  35.972  13.767
 6716W        W73499  35.375  27.541  14.827
 6717W        W73500   3.779  37.476   2.644
 6718W        W73501  40.498  22.824  11.558
 6719W        W73502  28.159  28.543  13.860
 6720W        W73503  36.017  19.035  13.348
 6721W        W73504   9.888  19.114  11.986
 6722W        W73505  29.936  19.051   2.853
 6723W        W73506   7.684   8.446  11.616
 6724W        W73507  28.188  11.933   4.476
 6725W        W73508  24.200  33.716  14.253
 6726W        W73509  33.099  19.346  11.989
 6727W        W73510   7.487   9.336   0.328
 6728W        W73511  25.222  36.901   4.129
 6729W        W73512   3.499  40.017  12.443
 6730W        W73513  31.871  19.173   1.879
 6731W        W73514  16.130  26.497   2.260
 6732W        W73515  25.168  10.962  12.156
 6733W        W73516  21.084   6.257  12.850
 6734W        W73517  44.536   0.500   5.026
 6735W        W73518  22.724  40.889   3.223
 6736W        W73519  33.987  34.282   2.219
 6737W        W73520   8.681  42.120  12.495
 6738W        W73521  28.726  23.186   2.674
 6739W        W73522  24.668  13.275   2.408
 6740W        W73523  34.175   9.195   0.253
 6741W        W73524  39.479  14.593  14.723
 6742W        W73525  25.293  38.614  14.504
 6743W        W73526  14.781  24.739   4.121
 6744W        W73527   7.702  19.134   1.659
 6745W        W73528  17.203  23.432  12.520
 6746W        W73529  41.473  38.299   4.625
 6747W        W73530  39.960   7.609  11.786
 6748W        W73531  18.705  14.649   3.740
 6749W        W73532  12.274  13.249  11.441
 6750W        W73533  29.124  10.607   0.751
 6751W        W73534  36.505   5.970   1.590
 6752W        W73535  36.403  31.886   3.127
 6753W        W73536   5.438  17.058   0.290
 6754W        W73537  32.187   7.065   5.558
 6755W        W73538  17.233   0.451  12.262
 6756W        W73539   9.925  26.138   1.842
 6757W        W73540   8.212  23.534  14.336
 6758W        W73541   8.312   7.457  11.566
 6759W        W73542  39.809  23.042   3.813
 6760W        W73543  40.001  29.198   0.204
 6761W        W73544  10.699  21.753  12.152
 6762W        W73545  12.252  31.156   3.288
 6763W        W73546  23.636  26.286   2.065
 6764W        W73547  23.688   6.536   5.188
 6765W        W73548  38.532  35.989   4.458
 6766W        W73549  10.414  12.377  14.874
 6767W        W73550  27.029   1.420   2.617
 6768W        W73551  34.829  22.628   0.292
 6769W        W73552  25.105  12.272  11.668
 6770W        W73553  37.875  15.573   1.126
 6771W        W73554   6.264  38.858  13.999
 6772W        W73555  44.458   4.611   1.315
 6773W        W73556   7.685   9.286   4.574
 6774W        W73557   1.586  34.546   4.211
 6775W        W73558  15.102  35.809   5.015
 6776W        W73559  33.637  44.842   1.235
 6777W        W73560   6.680  31.277  14.171
 6778W        W73561  18.597  35.826   0.260
 6779W        W73562  36.114   5.946  11.972
 6780W        W73563  38.041  23.467  12.038
 6781W        W73564   7.808  19.759   0.106
 6782W        W73565  42.406  40.556  14.552
 6783W        W73566   9.754   4.917   1.753
 6784W        W73567   5.247  29.718  12.620
 6785W        W73568  20.883  33.317  10.944
 6786W        W73569  19.349  21.351   0.412
 6787W        W73570  41.522   4.245   4.422
 6788W        W73571  32.026  19.660   4.642
 6789W        W73572  12.683  37.122  13.341
 6790W        W73573  20.566  13.102  12.839
 6791W        W73574  18.564  33.006  10.616
 6792W        W73575  27.439  30.976   0.294
 6793W        W73576  23.616  22.594  13.247
 6794W        W73577  20.322  34.244   4.216
 6795W        W73578  44.761  40.858   2.194
 6796W        W73579  11.771  30.944  14.952
 6797W        W73580   6.414  33.070   1.348
 6798W        W73581  31.019   2.180   3.677
 6799W        W73582   7.495   8.316  12.475
 6800W        W73583   9.217  17.567   4.903
 6801W        W73584  10.747  41.259  14.902
 6802W        W73585  30.320  15.670  13.879
 6803W        W73586   8.767  10.138   0.696
 6804W        W73587  27.725  38.001  12.910
 6805W        W73588  40.235   9.800  11.052
 6806W        W73589  38.548  16.254  13.132
 6807W        W73590  43.999   8.639   2.758
 6808W        W73591  40.554  41.887   1.627
 6809W        W73592  43.279   5.777  14.467
 6810W        W73593  10.272  41.256  10.782
 6811W        W73594  30.976  16.155  11.653
 6812W        W73595  16.871   4.576  12.073
 6813W        W73596  15.250  44.395   1.710
 6814W        W73597   4.709  32.028   4.657
 6815W        W73598  18.961  31.072  14.576
 6816W        W73599  33.454  42.294   4.598
 6817W        W73600  14.755  31.729   0.213
 6818W        W73601   9.529  23.732   3.119
 6819W        W73602   8.729  33.401   2.841
 6820W        W73603  25.372  16.696  11.325
 6821W        W73604  24.049   8.900  10.673
 6822W        W73605  25.149   1.228   4.300
 6823W        W73606  14.286  26.454   2.302
 6824W        W73607  37.162  40.676  14.978
 6825W        W73608   1.269  37.542   1.210
 6826W        W73609  20.713  32.374  13.022
 6827W        W73610   2.516   3.878   3.703
 6828W        W73611  32.939   6.758  13.560
 6829W        W73612   3.131   7.157  11.314
 6830W        W73613   5.693  24.488   1.242
 6831W        W73614  11.843  39.503  14.075
 6832W        W73615  19.554   0.476   4.929
 6833W        W73616  41.407  33.378  13.780
 6834W        W73617  24.521  29.376  14.028
 6835W        W73618   0.037  33.527  11.122
 6836W        W73619  41.280  12.661  13.390
 6837W        W73620  34.748  41.255  10.949
 6838W        W73621  19.447   1.945  10.272
 6839W        W73622  36.840  26.045  13.671
 6840W        W73623  15.138  34.389  13.417
 6841W        W73624  19.354   4.959   2.150
 6842W        W73625  36.636  22.521  10.203
 6843W        W73626  42.518  36.915   2.142
 6844W        W73627  31.474   3.545  14.873
 6845W        W73628  32.030  15.136  14.029
 6846W        W73629  32.066  10.887  12.485
 6847W        W73630   8.209  14.193  11.898
 6848W        W73631   4.980   6.332   4.531
 6849W        W73632  44.719  18.302  11.673
 6850W        W73633  18.526   8.899  14.824
 6851W        W73634   8.792  32.966  13.886
 6852W        W73635  16.706  33.981  11.916
 6853W        W73636  25.033  41.784   1.314
 6854W        W73637  27.538  10.352   1.479
 6855W        W73638  21.555  22.592   0.744
 6856W        W73639  27.506  16.646  13.960
 6857W        W73640  16.183  28.664  11.655
 6858W        W73641  42.168  19.896   0.340
 6859W        W73642  24.608  18.225  12.600
 6860W        W73643  25.548  41.299  12.677
 6861W        W73644  31.516  34.212   1.320
 6862W        W73645  28.467  22.240   3.613
 6863W        W73646  23.211  33.067  10.797
 6864W        W73647  27.273  16.621   2.697
 6865W        W73648  15.709   8.855  14.151
 6866W        W73649  29.098  12.200  10.393
 6867W        W73650  12.793  31.996   1.015
 6868W        W73651  32.472   8.574  12.467
 6869W        W73652  41.835  14.662   0.229
 6870W        W73653  44.393   1.349  12.124
 6871W        W73654  19.192  15.867  11.918
 6872W        W73655  33.872  37.136  10.376
 6873W        W73656  21.275   5.688   1.629
 6874W        W73657  20.613  33.632  11.255
 6875W        W73658  11.002   1.407   1.205
 6876W        W73659  29.774  34.127  12.027
 6877W        W73660  43.360  23.837   0.779
 6878W        W73661  44.811  39.778   3.686
 6879W        W73662   3.843  18.178  12.341
 6880W        W73663  23.428  20.253   3.592
 6881W        W73664   5.839  26.460  13.029
 6882W        W73665  34.499  19.057  14.553
 6883W        W73666  17.288  13.426  10.663
 6884W        W73667  24.073  22.055   0.411
 6885W        W73668  25.601   4.029   2.894
 6886W        W73669  14.380  43.398  13.079
 6887W        W73670   4.621  23.562  14.718
 6888W        W73671  30.900  27.534  11.456
 6889W        W73672   4.971  41.123   2.690
 6890W        W73673   4.388  42.033  11.255
 6891W        W73674  30.230  39.982   4.802
 6892W        W73675   3.177  28.528   3.730
 6893W        W73676  38.927  21.593  12.735
 6894W        W73677  37.619  37.462  12.173
 6895W        W73678   9.713  42.079  12.428
 6896W        W73679  25.869  33.027   2.366
 6897W        W73680   9.736  35.931  10.339
 6898W        W73681  43.606  10.762  10.959
 6899W        W73682  31.558   8.671   2.566
 6900W        W73683  17.041  44.974  10.963
 6901W        W73684  32.981   6.914  12.510
 6902W        W73685  15.169  33.625   4.353
 6903W        W73686  29.248  27.233  12.673
 6904W        W73687  42.316  40.909  10.690
 6905W        W73688  43.403   6.826  12.576
 6906W        W73689   2.168  42.125  13.800
 6907W        W73690  40.937   3.698  12.352
 6908W        W73691   9.975  28.520   1.824
 6909W        W73692  29.579  18.693   2.823
 6910W        W73693  11.372  15.084  12.213
 6911W        W73694  25.437   2.938   0.317
 6912W        W73695  39.964  32.724   1.232
 6913W        W73696   4.730  43.299   2.694
 6914W        W73697  20.406   7.288   4.584
 6915W        W73698   9.294  42.782   4.514
 6916W        W73699  17.376  29.496  10.578
 6917W        W73700  44.727   1.524   2.754
 6918W        W73701  19.672  16.662  12.493
 6919W        W73702  10.346  33.214   3.851
 6920W        W73703  43.276   3.585   2.050
 6921W        W73704  13.789  10.506   0.338
 6922W        W73705  37.940  41.334   4.540
 6923W        W73706  16.482  27.365   1.823
 6924W        W73707  20.501  29.072   4.320
 6925W        W73708  19.050  19.642   2.220
 6926W        W73709   5.662  22.558  12.279
 6927W        W73710  15.266   3.957   1.589
 6928W        W73711   4.442  37.458  12.911
 6929W        W73712  14.723  33.467   4.569
 6930W        W73713  10.393   7.278  13.936
 6931W        W73714  23.817  35.540   4.941
 6932W        W73715  24.591  16.794  12.929
 6933W        W73716  32.466  20.122  12.356
 6934W        W73717  23.567  35.891  11.966
 6935W        W73718  26.156  38.473   0.749
 6936W        W73719  37.156  38.801  12.981
 6937W        W73720  35.117  24.223  14.962
 6938W        W73721  16.585  21.206   2.259
 6939W        W73722  15.623   7.392   0.298
 6940W        W73723   4.009  36.959   3.215
 6941W        W73724  16.036  37.055   2.243
 6942W        W73725  43.031  25.529   1.186
 6943W        W73726  28.268  41.805   0.904
 6944W        W73727  24.251  20.301  13.403
 6945W        W73728   1.560  36.863   0.746
 6946W        W73729  39.752  31.376   4.372
 6947W        W73730  39.031  43.882   1.909
 6948W        W73731  17.955  22.494   0.602
 6949W        W73732  31.546  19.498   4.559
 6950W        W73733   8.138   6.125  14.053
 6951W        W73734   6.634  40.474   1.365
 6952W        W73735  33.972  10.857   0.911
 6953W        W73736  40.837  42.962   0.340
 6954W        W73737  24.504  21.995   2.727
 6955W        W73738  28.192  14.285   4.266
 6956W        W73739   1.179  25.411  14.427
 6957W        W73740   3.583  23.747   2.851
 6958W        W73741  40.429  10.413  12.477
 6959W        W73742  26.082  13.802   2.366
 6960W        W73743  35.694   3.410   1.691
 6961W        W73744   8.360  13.758   2.193
 6962W        W73745  42.283  44.897  13.532
 6963W        W73746  42.954  33.232   4.970
 6964W        W73747  43.280   7.226   2.159
 6965W        W73748  20.033  35.549   2.340
 6966W        W73749  34.002  42.813  11.119
 6967W        W73750  24.737   8.047  12.980
 6968W        W73751   5.991  43.020   2.510
 6969W        W73752  20.066  30.921   4.552
 6970W        W73753   7.829  34.545   0.539
 6971W        W73754  40.177   1.204   3.706
 6972W        W73755  40.913  43.039   5.086
 6973W        W73756  39.506   4.821  14.538
 6974W        W73757  35.660  21.188  14.250
 6975W        W73758  25.530  21.086  12.627
 6976W        W73759  44.923   2.934  10.480
 6977W        W73760  35.830  37.300   4.230
 6978W        W73761  20.745  42.494  10.395
 6979W        W73762  24.049   8.231   3.659
 6980W        W73763  36.121  30.924  10.418
 6981W        W73764  41.970  27.468  10.689
 6982W        W73765  23.548  14.328  13.149
 6983W        W73766   5.176  14.652   3.520
 6984W        W73767  26.671  42.752   0.392
 6985W        W73768   4.815   5.645  13.101
 6986W        W73769   1.255   1.787   0.485
 6987W        W73770  21.718  23.970  13.841
 6988W        W73771  33.321  22.890   3.280
 6989W        W73772   0.331  36.506   2.653
 6990W        W73773  44.032  26.689   4.036
 6991W        W73774  22.613  32.458   3.287
 6992W        W73775   4.994  32.682  14.123
 6993W        W73776   7.194   2.215  11.871
 6994W        W73777   1.896  14.965   3.177
 6995W        W73778  43.724  44.851  13.829
 6996W        W73779  11.075  17.138   1.310
 6997W        W73780  28.433  17.975  11.524
 6998W        W73781  17.817  28.342   4.077
 6999W        W73782   9.285  30.755  13.288
 7000W        W73783  33.338  26.988   3.132
 7001W        W73784  41.928  31.019   1.312
 7002W        W73785   3.692  36.378   4.316
 7003W        W73786  36.269  13.783   4.324
 7004W        W73787  25.052  35.331   2.618
 7005W        W73788  34.581  19.285  12.034
 7006W        W73789  35.795  33.494  11.073
 7007W        W73790  34.371   9.375  10.471
 7008W        W73791   0.871  27.440   0.495
 7009W        W73792  35.095   5.839   0.036
 7010W        W73793  34.004   2.228   0.864
 7011W        W73794  30.948  30.993  12.607
 7012W        W73795  26.084  44.998   2.211
 7013W        W73796  44.260   2.880  10.995
 7014W        W73797  34.975  28.968  11.632
 7015W        W73798  38.313  19.247   3.635
 7016W        W73799  20.561  25.210   2.719
 7017W        W73800   5.484   0.714  12.038
 7018W        W73801  41.989  19.416   1.557
 7019W        W73802  23.505  17.075  11.516
 7020W        W73803  33.607  15.162   2.128
 7021W        W73804   5.363   9.377   2.415
 7022W        W73805   1.826   7.830   4.904
 7023W        W73806   8.747  11.680  11.009
 7024W        W73807  33.213   2.942  12.003
 7025W        W73808  33.900  41.717  14.931
 7026W        W73809  17.142   6.868  11.556
 7027W        W73810  23.634  28.717  10.954
 7028W        W73811  18.212  34.685  11.924
 7029W        W73812   7.351  32.922   3.719
 7030W        W73813  19.223  39.655  14.610
 7031W        W73814   0.933  30.921  12.866
 7032W        W73815  27.625  19.018   1.346
 7033W        W73816   3.679   5.389   1.759
 7034W        W73817  42.399  35.645  11.224
 7035W        W73818  39.870  17.035  11.810
 7036W        W73819  29.574   7.510  13.421
 7037W        W73820  13.251   7.218  10.634
 7038W        W73821  23.893   2.758   3.444
 7039W        W73822  10.899  31.732   4.541
 7040W        W73823  12.057   3.757   3.233
 7041W        W73824  35.253  37.777  14.006
 7042W        W73825  35.409   9.120  12.526
 7043W        W73826  20.833  12.386   4.123
 7044W        W73827   8.044  12.557  11.599
 7045W        W73828  38.258  20.775   3.252
 7046W        W73829  29.957  41.858   5.584
 7047W        W73830  19.850  26.245  11.651
 7048W        W73831  22.865  42.060  14.661
 7049W        W73832  20.320  42.347  11.578
 7050W        W73833   6.006   6.698  11.102
 7051W        W73834  39.082  22.256   4.090
 7052W        W73835  41.355  40.507   1.530
 7053W        W73836  11.564   1.306   2.841
 7054W        W73837  15.079   1.846   4.374
 7055W        W73838  17.631  22.063  11.168
 7056W        W73839  21.052   0.814  12.069
 7057W        W73840  17.727  10.392  14.485
 7058W        W73841  41.456  26.928  11.088
 7059W        W73842  17.581   7.135   1.907
 7060W        W73843   4.630  12.172   1.336
 7061W        W73844  27.778  42.979   3.444
 7062W        W73845  23.009  35.468  14.058
 7063W        W73846  35.756  16.671   2.300
 7064W        W73847  40.512  39.866   1.803
 7065W        W73848  31.545   2.804  11.192
 7066W        W73849  38.529   8.632  12.589
 7067W        W73850  24.420   2.807   3.560
 7068W        W73851  22.027  23.783  11.939
 7069W        W73852  30.550  28.907   0.350
 7070W        W73853  14.834  29.536   4.763
 7071W        W73854  27.510  10.496   0.966
 7072W        W73855   5.699   2.058  12.176
 7073W        W73856  23.734  33.397  14.298
 7074W        W73857  25.002  31.167   5.026
 7075W        W73858   8.914  37.016  11.093
 7076W        W73859   8.207  26.604   4.133
 7077W        W73860   2.352  24.299   1.133
 7078W        W73861   1.387  22.204   3.532
 7079W        W73862  41.525   5.974   0.722
 7080W        W73863  41.688  13.394  11.684
 7081W        W73864  13.173  41.590  11.476
 7082W        W73865   7.531  13.679   3.857
 7083W        W73866   2.076  13.181  14.572
 7084W        W73867  15.469  13.336   0.704
 7085W        W73868  34.077  11.714  10.949
 7086W        W73869  31.044  11.798  13.529
 7087W        W73870   3.528  13.221  13.317
 7088W        W73871  36.299  44.999   1.423
 7089W        W73872  38.445  38.971   3.098
 7090W        W73873  33.234  20.118  11.761
 7091W        W73874  22.091  11.634  11.922
 7092W        W73875  33.329   9.949  11.251
 7093W        W73876  32.320  10.735  14.804
 7094W        W73877   7.119  37.987  11.582
 7095W        W73878  12.258   4.727  13.907
 7096W        W73879  10.859   9.100   4.566
 7097W        W73880  40.370  32.845  14.490
 7098W        W73881  31.158  43.650   1.287
 7099W        W73882  23.183  44.629  13.488
 7100W        W73883   5.516  23.458  11.717
 7101W        W73884  13.806   9.318  11.112
 7102W        W73885  42.495  11.072   2.670
 7103W        W73886  30.153  22.491  11.401
 7104W        W73887  14.367   4.730   0.929
 7105W        W73888   6.769  42.182   1.756
 7106W        W73889  28.069   0.003   2.651
 7107W        W73890  25.571  16.808   3.693
 7108W        W73891  44.973   1.821   4.045
 7109W        W73892  30.419  24.473  13.812
 7110W        W73893  10.159  14.984  12.688
 7111W        W73894   6.858  28.078   4.541
 7112W        W73895   0.723  14.496  14.059
 7113W        W73896  33.928  23.719  10.658
 7114W        W73897  22.510  39.912  14.245
 7115W        W73898  29.110   3.874  14.952
 7116W        W73899  42.209   3.879   3.586
 7117W        W73900   8.532  27.125  10.705
 7118W        W73901  11.258   3.072  14.455
 7119W        W73902  23.438  35.479  14.344
 7120W        W73903   7.638  18.280  11.957
 7121W        W73904  29.745  42.972   0.577
 7122W        W73905  38.043  36.551  12.509
 7123W        W73906   6.830  20.178   2.238
 7124W        W73907   4.733   9.761   0.418
 7125W        W73908  18.950   0.980  11.493
 7126W        W73909  44.160  14.881   2.254
 7127W        W73910  26.029  29.155   4.738
 7128W        W73911  39.964   0.193  13.026
 7129W        W73912  23.726  12.442  14.937
 7130W        W73913  42.801   4.229  11.006
 7131W        W73914  18.319  29.143   3.238
 7132W        W73915  38.538  23.083   2.209
 7133W        W73916  24.676  35.310   3.335
 7134W        W73917  36.410  44.688   4.194
 7135W        W73918   3.978  43.955   0.009
 7136W        W73919  40.063  10.074  14.308
 7137W        W73920   6.223  37.461  10.381
 7138W        W73921  38.878  31.471   4.270
 7139W        W73922  13.855  36.477   0.731
 7140W        W73923  37.311  34.837   3.042
 7141W        W73924  33.899  34.877  10.760
 7142W        W73925   9.102  14.021   1.736
 7143W        W73926  41.069  24.623  12.116
 7144W        W73927  24.242   8.333   1.285
 7145W        W73928  17.061  16.292   2.241
 7146W        W73929  22.208  12.876  13.342
 7147W        W73930  29.510  21.197   2.398
 7148W        W73931  42.282  31.687  12.099
 7149W        W73932  33.569  33.128   4.087
 7150W        W73933   3.245  33.434  10.532
 7151W        W73934  23.018  19.201  13.480
 7152W        W73935  13.102  18.124   0.231
 7153W        W73936  13.616   1.894  13.984
 7154W        W73937  28.174  35.918   1.694
 7155W        W73938  40.103   4.251  14.854
 7156W        W73939   7.409  27.714  12.057
 7157W        W73940  44.376   3.902   2.840
 7158W        W73941  21.528  34.724   4.799
 7159W        W73942  39.331  18.465   0.023
 7160W        W73943  31.154   1.232  11.129
 7161W        W73944   3.705  43.509  11.176
 7162W        W73945   0.471  28.591   2.252
 7163W        W73946   2.806  16.197  10.947
 7164W        W73947  11.449  29.782  13.833
 7165W        W73948  39.850  12.358   4.703
 7166W        W73949   9.296  37.068   4.488
 7167W        W73950  22.021  15.985   1.638
 7168W        W73951  35.958  27.001  12.379
 7169W        W73952  30.224  38.297   3.245
 7170W        W73953  41.495  28.383   0.563
 7171W        W73954  28.054   4.675  10.721
 7172W        W73955  43.289  33.469  12.940
 7173W        W73956   3.371  27.489  13.035
 7174W        W73957  36.664   6.934   1.323
 7175W        W73958   6.912  37.419   1.243
 7176W        W73959   8.703  23.936   2.725
 7177W        W73960  34.289   2.277   2.075
 7178W        W73961  39.981   2.099  14.780
 7179W        W73962  43.835  12.105   1.185
 7180W        W73963  41.425  22.739  11.502
 7181W        W73964  35.891  15.247   2.811
 7182W        W73965  24.616  38.315  11.226
 7183W        W73966  13.679  30.427   0.750
 7184W        W73967  36.160   8.315   1.815
 7185W        W73968  32.490   5.252   4.853
 7186W        W73969  34.885  24.461   5.276
 7187W        W73970   0.257  23.258   0.598
 7188W        W73971  30.671  28.883   4.752
 7189W        W73972  23.049  15.735   4.969
 7190W        W73973  30.432  24.530   4.654
 7191W        W73974  22.494   0.772  10.676
 7192W        W73975  42.774  16.338   0.373
 7193W        W73976  32.966  34.413  11.206
 7194W        W73977   0.573  29.492  10.563
 7195W        W73978  35.488  13.986  14.271
 7196W        W73979   5.743  32.466  12.377
 7197W        W73980   3.747  39.493   4.264
 7198W        W73981  35.653  29.759   0.150
 7199W        W73982  37.785  12.129   2.408
 7200W        W73983   0.780  41.215   3.639
 7201W        W73984   0.349  23.597   1.625
 7202W        W73985  18.678  20.169  13.110
 7203W        W73986  19.255  34.324  10.910
 7204W        W73987  16.621  26.677   0.456
 7205W        W73988   8.658   3.309   3.802
 7206W        W73989  11.669   2.894   3.117
 7207W        W73990  35.702   7.472  11.161
 7208W        W73991  33.490   5.937  11.897
 7209W        W73992  39.875  29.531  10.574
 7210W        W73993  16.775  18.822  13.859
 7211W        W73994  27.176  38.816  14.871
 7212W        W73995  41.259  12.836  11.162
 7213W        W73996  27.017  10.398   0.709
 7214W        W73997  40.383   7.842   1.161
 7215W        W73998  34.285  13.608   3.602
 7216W        W73999  41.451  32.890  13.919
 7217W        W74000  35.317   8.120  12.534
 7218W        W74001  35.500   9.238   4.596
 7219W        W74002  37.213  10.287  14.991
 7220W        W74003  19.731  32.497   0.217
 7221W        W74004  43.121  17.281   5.396
 7222W        W74005   6.212  35.023   4.947
 7223W        W74006  26.498   7.839  12.133
 7224W        W74007   3.426  12.360  10.358
 7225W        W74008  15.362  12.107   2.469
 7226W        W74009  32.401  26.024   3.210
 7227W        W74010  33.556  28.037   3.738
 7228W        W74011   5.286  31.571   0.454
 7229W        W74012  19.043  26.075  12.401
 7230W        W74013  42.006  28.473   3.155
 7231W        W74014  40.506   5.906   3.206
 7232W        W74015  16.709  38.778   3.688
 7233W        W74016   8.948  22.925   4.545
 7234W        W74017  23.489  38.737   0.301
 7235W        W74018  12.402   6.360   0.928
 7236W        W74019   3.353  41.294  13.366
 7237W        W74020  21.363  13.269   0.476
 7238W        W74021  16.390  18.276   0.264
 7239W        W74022  15.820  13.059  11.347
 7240W        W74023  43.258  12.862  14.254
 7241W        W74024   4.705  22.269   0.344
 7242W        W74025   5.583  31.327  11.949
 7243W        W74026  23.081   4.684  12.096
 7244W        W74027   4.226  32.948   3.855
 7245W        W74028  36.497  14.125   1.720
 7246W        W74029  31.412  10.106  11.101
 7247W        W74030   0.887   0.888   2.189
 7248W        W74031  33.091  38.022   1.534
 7249W        W74032  27.565  44.700  12.044
 7250W        W74033  31.303  28.184  13.388
 7251W        W74034  10.411  38.507  11.183
 7252W        W74035  40.108  34.340   2.331
 7253W        W74036   4.912   3.447  14.523
 7254W        W74037  19.787  13.796   1.011
 7255W        W74038  14.516  29.042   0.372
 7256W        W74039  40.780  28.539   0.956
 7257W        W74040  16.815  26.939  13.394
 7258W        W74041  13.660  11.979   2.727
 7259W        W74042   9.422  43.825  11.672
 7260W        W74043   0.756  32.105  11.197
 7261W        W74044  15.186  19.198   1.857
 7262W        W74045  20.754  15.690  11.575
 7263W        W74046  43.050  26.022  13.915
 7264W        W74047  43.058  18.336  12.738
 7265W        W74048  38.388  26.525   3.799
 7266W        W74049   7.538   6.041   1.616
 7267W        W74050  16.885  27.495   2.634
 7268W        W74051  15.285  31.609   1.892
 7269W        W74052  21.542   2.666   2.602
 7270W        W74053   2.326  22.087  13.584
 7271W        W74054   9.731  39.743  12.696
 7272W        W74055  12.436  24.083   3.188
 7273W        W74056  15.076  10.386   3.334
 7274W        W74057  40.118  39.506  14.267
 7275W        W74058  31.720   1.012   3.587
 7276W        W74059  28.105  32.608  11.999
 7277W        W74060  27.619  25.731  13.096
 7278W        W74061   7.973   0.850  12.098
 7279W        W74062  16.387  32.213  13.142
 7280W        W74063  38.024  33.009  13.805
 7281W        W74064   3.626  14.085   3.485
 7282W        W74065  11.238   2.878   3.410
 7283W        W74066  21.149  35.601  13.147
 7284W        W74067  37.294  18.653  12.002
 7285W        W74068  23.436  17.112  13.879
 7286W        W74069  35.332   8.219  11.527
 7287W        W74070   9.234  40.859  13.558
 7288W        W74071   0.441  20.994   2.697
 7289W        W74072  11.309  31.074   3.069
 7290W        W74073  15.201  19.139   0.426
 7291W        W74074  13.314  44.953  11.962
 7292W        W74075  40.516  25.962  13.549
 7293W        W74076   1.551  28.339  12.120
 7294W        W74077   1.360   2.215  12.057
 7295W        W74078  37.032  37.094  11.965
 7296W        W74079  41.293   6.782  10.587
 7297W        W74080   4.286  18.964  13.060
 7298W        W74081  23.486  37.313   4.259
 7299W        W74082  27.421  24.231   2.401
 7300W        W74083  13.166  44.029   1.499
 7301W        W74084   8.071  21.578   0.518
 7302W        W74085   6.090  27.999  13.930
 7303W        W74086  32.920   9.848   2.327
 7304W        W74087  37.581  42.801   1.808
 7305W        W74088  10.677   1.056   4.076
 7306W        W74089  12.680  27.086   0.901
 7307W        W74090  14.395  35.443   1.901
 7308W        W74091   7.904  29.049  14.015
 7309W        W74092  39.940  15.089  14.090
 7310W        W74093   3.335  43.338  14.799
 7311W        W74094  39.879  43.971  13.417
 7312W        W74095  13.717   9.106   1.041
 7313W        W74096  17.309  21.596   4.230
 7314W        W74097  30.051  20.603   2.822
 7315W        W74098  34.550  14.219   4.951
 7316W        W74099  18.075  36.848  11.968
 7317W        W74100  39.958  28.333   0.998
 7318W        W74101  14.860  19.663   1.876
 7319W        W74102  36.821  34.849   4.586
 7320W        W74103  15.362  41.749   0.785
 7321W        W74104  10.722  33.642   2.293
 7322W        W74105   6.146  24.503   2.365
 7323W        W74106  35.016  36.403  10.748
 7324W        W74107  16.372  16.138   3.805
 7325W        W74108   1.171   8.835   1.825
 7326W        W74109  44.632  13.744  13.922
 7327W        W74110  24.502   8.764  14.960
 7328W        W74111  22.620  42.083  13.495
 7329W        W74112  28.066   6.515   1.221
 7330W        W74113   8.189   0.186  14.771
 7331W        W74114  20.128  12.576  12.161
 7332W        W74115   8.328   5.024  14.822
 7333W        W74116  36.359  18.524  11.038
 7334W        W74117   2.471  36.759   0.675
 7335W        W74118  26.202   2.810   0.674
 7336W        W74119  40.421  31.999   2.843
 7337W        W74120   7.320  42.100  12.037
 7338W        W74121  26.932  11.329   2.138
 7339W        W74122  13.842  44.495   3.639
 7340W        W74123  30.913  31.419   2.752
 7341W        W74124  43.353  24.077   4.849
 7342W        W74125  37.062  19.005  11.661
 7343W        W74126   4.200  29.695   1.803
 7344W        W74127  12.261  16.162   3.639
 7345W        W74128  43.397  37.557   0.288
 7346W        W74129  21.176  13.584   0.863
 7347W        W74130  41.754  44.694  12.558
 7348W        W74131  17.570  23.754  14.285
 7349W        W74132   3.142   4.384  13.580
 7350W        W74133  39.858  44.797  11.157
 7351W        W74134   0.341  16.610  14.092
 7352W        W74135  20.267  16.490  13.990
 7353W        W74136   4.921  21.614  13.000
 7354W        W74137  40.761  33.280  13.020
 7355W        W74138  32.147  35.531  10.537
 7356W        W74139   0.765  12.591  14.137
 7357W        W74140  32.625  34.777  11.034
 7358W        W74141   4.490  25.943  12.033
 7359W        W74142  39.048  19.295  12.605
 7360W        W74143  25.442  23.121   3.173
 7361W        W74144  17.163  29.957   2.728
 7362W        W74145  27.619  23.587  12.798
 7363W        W74146  23.317   3.337   1.364
 7364W        W74147  26.614   9.820  12.683
 7365W        W74148  28.100  13.076  13.679
 7366W        W74149  42.331  35.501  13.615
 7367W        W74150  37.463  34.562  11.526
 7368W        W74151  36.593  39.773  12.146
 7369W        W74152  11.312   6.969  13.006
 7370W        W74153  30.156  17.770  14.844
 7371W        W74154  28.071  26.427   2.712
 7372W        W74155  26.564  10.294  12.934
 7373W        W74156   2.908   4.764   1.840
 7374W        W74157  21.240  38.272   3.625
 7375W        W74158   0.553  44.694   0.662
 7376W        W74159  30.798  41.513  11.542
 7377W        W74160   4.140  28.590  13.100
 7378W        W74161   4.421  15.502  12.433
 7379W        W74162  11.019   7.481  13.493
 7380W        W74163   0.739  28.716   2.672
 7381W        W74164  14.248   4.348  14.511
 7382W        W74165  38.266  26.893  14.883
 7383W        W74166  34.077   8.454   3.689
 7384W        W74167   5.787  19.623   0.844
 7385W        W74168  27.487  43.335   4.367
 7386W        W74169  38.924  40.929   4.546
 7387W        W74170  36.124   7.484  14.570
 7388W        W74171   0.708  43.039  10.047
 7389W        W74172  42.797  20.752  14.549
 7390W        W74173  33.805  41.826  12.687
 7391W        W74174   8.043  30.957   3.646
 7392W        W74175  15.877  13.810  14.806
 7393W        W74176  31.027  30.056  10.988
 7394W        W74177  19.465  39.871  13.303
 7395W        W74178  19.664  25.234  13.494
 7396W        W74179   8.802   5.672  14.303
 7397W        W74180  29.828  21.645  14.520
 7398W        W74181  38.504  22.425   0.816
 7399W        W74182  19.998   5.288  12.516
 7400W        W74183  38.533  15.288  12.973
 7401W        W74184   0.404  34.343  13.529
 7402W        W74185  24.255   2.350  11.709
 7403W        W74186  36.807  17.192  12.882
 7404W        W74187  31.445  11.072   4.227
 7405W        W74188   7.800  14.340   0.569
 7406W        W74189  39.235  43.801   4.752
 7407W        W74190   5.713  30.532  11.629
 7408W        W74191   3.731  21.712   2.810
 7409W        W74192  36.825   3.706  11.420
 7410W        W74193  39.416  13.234   4.826
 7411W        W74194  10.543  24.336  11.827
 7412W        W74195   7.596  28.605   3.774
 7413W        W74196  17.276  26.307   0.976
 7414W        W74197  40.110  16.408  12.954
 7415W        W74198  26.751  27.101  13.840
 7416W        W74199  29.189   7.728  11.977
 7417W        W74200  39.006   0.983  12.600
 7418W        W74201  42.097  19.861   3.761
 7419W        W74202   7.905   6.385   0.788
 7420W        W74203   5.252   1.061  14.947
 7421W        W74204  33.484  16.183   0.219
 7422W        W74205  31.643   9.677  13.943
 7423W        W74206   6.424  13.733   3.117
 7424W        W74207   5.681  18.301   2.329
 7425W        W74208   1.941  20.377   1.640
 7426W        W74209  22.772  19.103  10.173
 7427W        W74210  23.946  13.633   4.518
 7428W        W74211  34.587   6.692  12.512
 7429W        W74212  42.840  23.185   4.203
 7430W        W74213   2.268  25.955  14.820
 7431W        W74214  19.147   1.758  13.722
 7432W        W74215   0.372  25.570  13.990
 7433W        W74216  12.860  18.559   1.880
 7434W        W74217   2.456  38.795   4.514
 7435W        W74218   5.439  30.434  12.857
 7436W        W74219   7.176   7.209   4.629
 7437W        W74220   7.175  31.560   0.382
 7438W        W74221   4.894  22.628  13.917
 7439W        W74222  21.757  38.829   3.131
 7440W        W74223  14.179   4.075   4.676
 7441W        W74224   5.645  10.499  11.812
 7442W        W74225  24.656  38.391  13.912
 7443W        W74226   5.879   6.320  10.743
 7444W        W74227   1.553  19.187   3.642
 7445W        W74228   8.872   5.755   2.665
 7446W        W74229  30.262  12.810   4.023
 7447W        W74230  17.338  31.680   3.287
 7448W        W74231  17.040  41.969  12.443
 7449W        W74232  36.781  11.961  13.940
 7450W        W74233  35.495  13.262  11.919
 7451W        W74234  14.170  16.372  11.902
 7452W        W74235  12.261   9.754  11.439
 7453W        W74236  35.782  34.535   0.706
 7454W        W74237   2.553  31.778  12.609
 7455W        W74238  28.953  37.463   0.794
 7456W        W74239   7.984  26.509  11.512
 7457W        W74240  14.013  30.888   1.655
 7458W        W74241  34.744   5.611  13.286
 7459W        W74242  12.248  44.818   3.087
 7460W        W74243  14.115  19.573   2.228
 7461W        W74244  33.846   1.669  14.555
 7462W        W74245  34.425  31.827   3.779
 7463W        W74246  43.897  13.384   2.238
 7464W        W74247  44.654  39.760  14.422
 7465W        W74248  44.452  12.602   4.266
 7466W        W74249  21.462  31.531   5.071
 7467W        W74250  31.271  36.604   3.303
 7468W        W74251  33.296  14.090  13.427
 7469W        W74252   0.512  31.549   0.988
 7470W        W74253   9.594  44.407  11.030
 7471W        W74254  26.086  24.954   2.608
 7472W        W74255  19.996  20.089  13.934
 7473W        W74256  20.771  38.916  10.722
 7474W        W74257  44.493   4.456  10.264
 7475W        W74258  43.452  10.186  13.892
 7476W        W74259   6.612   4.083   0.472
 7477W        W74260  23.563  42.760  10.226
 7478W        W74261  35.270  16.295   0.214
 7479W        W74262   0.508  42.955   3.247
 7480W        W74263   2.620  14.750  13.493
 7481W        W74264   0.411  37.833   3.620
 7482W        W74265  40.918  27.708  14.469
 7483W        W74266  44.522   3.266  10.087
 7484W        W74267  44.427  27.383  13.929
 7485W        W74268  28.682   2.238  14.807
 7486W        W74269  35.007  12.906  11.029
 7487W        W74270  34.885  24.109   2.889
 7488W        W74271  27.717  26.517   0.931
 7489W        W74272  32.068  32.987   2.268
 7490W        W74273  35.387  32.864  12.002
 7491W        W74274   7.115  44.336   1.749
 7492W        W74275   8.938   0.087  13.093
 7493W        W74276  15.073  21.964  13.556
 7494W        W74277  32.901  16.209  10.576
 7495W        W74278  20.562  37.153  11.170
 7496W        W74279  40.048   6.429   0.435
 7497W        W74280  29.124  44.971  12.121
 7498W        W74281   4.978  39.864  10.391
 7499W        W74282  43.938  32.409   2.249
 7500W        W74283  28.415  11.293  12.563
 7501W        W74284  11.862  17.684   1.399
 7502W        W74285   6.752  32.903   4.117
 7503W        W74286   1.474  40.777  14.407
 7504W        W74287   1.301   9.938   4.158
 7505W        W74288  42.804   2.829   2.842
 7506W        W74289  20.309  12.278  13.963
 7507W        W74290   3.727   9.862   4.873
 7508W        W74291   8.821   9.603  12.475
 7509W        W74292  42.743  43.548   0.835
 7510W        W74293  23.494  33.530   3.783
 7511W        W74294  15.044   8.709   1.743
 7512W        W74295  38.939  44.056   1.390
 7513W        W74296  25.509  34.976  11.543
 7514W        W74297  37.953  22.216  12.451
 7515W        W74298   9.194  34.323   1.258
 7516W        W74299  16.191  22.516  12.989
 7517W        W74300  42.569  12.775   0.380
 7518W        W74301  43.384  28.272  11.447
 7519W        W74302  28.674  26.122   0.152
 7520W        W74303  37.580   1.052  10.580
 7521W        W74304  33.495  38.005   0.236
 7522W        W74305  34.412  16.715   2.934
 7523W        W74306  19.238  28.560  11.012
 7524W        W74307  30.629  17.092  14.391
 7525W        W74308  31.850  27.616   4.945
 7526W        W74309   8.612  18.655  13.505
 7527W        W74310  16.636   1.881  14.032
 7528W        W74311  39.490  31.877  10.517
 7529W        W74312  29.893   1.707  11.114
 7530W        W74313  41.513  25.971   3.639
 7531W        W74314  12.742   9.939   3.205
 7532W        W74315  11.253  35.896  12.099
 7533W        W74316  14.358  31.406  13.412
 7534W        W74317  17.507  25.983  14.760
 7535W        W74318   9.147   4.828  13.417
 7536W        W74319  18.109  28.901  13.129
 7537W        W74320  31.082  37.307   1.713
 7538W        W74321  20.495  17.269  12.000
 7539W        W74322  15.665  29.211  14.887
 7540W        W74323   0.916  15.363   1.234
 7541W        W74324  23.595  43.263  10.388
 7542W        W74325  12.191  12.520   1.289
 7543W        W74326  29.924  27.530  14.907
 7544W        W74327  33.962  13.194  12.996
 7545W        W74328   1.305  11.885   4.186
 7546W        W74329  26.986   8.656   2.831
 7547W        W74330  44.980   5.737   0.071
 7548W        W74331  19.726  22.015  10.518
 7549W        W74332   6.426  43.967  10.983
 7550W        W74333  36.468  38.509   0.898
 7551W        W74334  37.046  40.483   0.439
 7552W        W74335  21.516  13.952  13.434
 7553W        W74336  40.859   4.385   0.418
 7554W        W74337  17.834  33.890   1.344
 7555W        W74338   3.284  19.096  14.650
 7556W        W74339  40.411  27.055   2.055
 7557W        W74340   8.169   7.263   2.821
 7558W        W74341  35.849   3.251  10.981
 7559W        W74342  19.007  25.907  11.640
 7560W        W74343  40.911  26.056   2.197
 7561W        W74344  39.805  34.619  12.852
 7562W        W74345  16.666  17.574  13.361
 7563W        W74346  23.224  17.123  14.375
 7564W        W74347  12.589  18.549   1.427
 7565W        W74348  10.444  24.235  10.333
 7566W        W74349  33.425  39.756  14.853
 7567W        W74350  15.802  13.200   5.030
 7568W        W74351  33.505   9.711   0.302
 7569W        W74352  19.135  10.776   2.098
 7570W        W74353   2.454  13.255  11.513
 7571W        W74354  24.019  19.211  11.714
 7572W        W74355  28.537  43.568   2.200
 7573W        W74356  34.433  30.194  12.504
 7574W        W74357  32.826   2.568   3.348
 7575W        W74358   1.407  36.506   3.366
 7576W        W74359  42.561   7.877   1.847
 7577W        W74360  33.372  15.670  11.539
 7578W        W74361  31.348  23.694   2.333
 7579W        W74362   2.746  19.783   3.762
 7580W        W74363  14.306   1.338   3.963
 7581W        W74364  25.187  14.906  13.716
 7582W        W74365  13.310   8.855   2.634
 7583W        W74366  15.182  11.440   1.787
 7584W        W74367   8.081  44.302   1.811
 7585W        W74368  32.239  33.617  11.377
 7586W        W74369  32.122   7.156  14.074
 7587W        W74370  33.849  18.983   4.725
 7588W        W74371  10.765  28.208  13.720
 7589W        W74372  21.725  20.474   2.354
 7590W        W74373  28.349  29.881   0.428
 7591W        W74374  17.025  25.041  13.372
 7592W        W74375  41.821   3.703  10.643
 7593W        W74376   0.450  25.483   0.139
 7594W        W74377   2.853  11.022  13.437
 7595W        W74378  40.536  20.486  14.895
 7596W        W74379  18.079  39.777   0.731
 7597W        W74380  12.733  36.516   2.751
 7598W        W74381  34.279  19.247   2.340
 7599W        W74382   1.948   4.842  14.764
 7600W        W74383  27.017  33.294   4.956
 7601W        W74384  10.615  25.512   2.665
 7602W        W74385   5.835  19.844   4.705
 7603W        W74386  21.032  19.505  14.375
 7604W        W74387  16.660   3.851   2.665
 7605W        W74388  38.456  27.436   2.307
 7606W        W74389   6.926  41.264   3.711
 7607W        W74390  10.281  12.213   2.640
 7608W        W74391  12.144  43.094  10.271
 7609W        W74392  39.396   8.999   5.102
 7610W        W74393  40.289  28.223   3.651
 7611W        W74394   4.963  36.584   1.424
 7612W        W74395  26.999  22.298  13.391
 7613W        W74396  44.232  28.514  14.501
 7614W        W74397   2.694   6.480   4.176
 7615W        W74398  31.690  19.778   2.568
 7616W        W74399  36.605  44.586   1.232
 7617W        W74400  35.346   0.797  11.497
 7618W        W74401  12.112  13.628  10.523
 7619W        W74402  28.678  38.727   2.503
 7620W        W74403  13.155  41.978  14.701
 7621W        W74404   6.046  20.943   5.045
 7622W        W74405  20.297  17.079   1.221
 7623W        W74406  15.784  38.070  14.911
 7624W        W74407  32.795   8.171  12.535
 7625W        W74408  33.444  39.253   2.977
 7626W        W74409  14.354  20.632   0.674
 7627W        W74410  10.399  28.851  14.188
 7628W        W74411  38.991   6.690  10.376
 7629W        W74412  15.644  22.281   0.847
 7630W        W74413  29.950  10.128  14.045
 7631W        W74414  29.992   4.851   2.724
 7632W        W74415   0.159   5.878  11.365
 7633W        W74416  24.154   2.200  13.493
 7634W        W74417  10.383  37.812  14.959
 7635W        W74418  18.591  22.043   0.373
 7636W        W74419   7.672  26.376   4.867
 7637W        W74420  37.704  20.647   4.107
 7638W        W74421  27.146  35.540  14.898
 7639W        W74422   5.012  26.327   1.817
 7640W        W74423  30.883   8.322   2.272
 7641W        W74424  31.057   7.201  13.883
 7642W        W74425   0.266   0.912   0.388
 7643W        W74426  43.730  33.482  13.225
 7644W        W74427  12.968  30.818  14.343
 7645W        W74428  33.218  20.593  13.871
 7646W        W74429  20.120   2.239   0.862
 7647W        W74430  14.705  10.606  11.162
 7648W        W74431  30.491   8.189   4.548
 7649W        W74432   8.912  33.294  12.049
 7650W        W74433  36.020   4.645   0.323
 7651W        W74434   1.546  33.098   4.172
 7652W        W74435  39.321  27.924  13.791
 7653W        W74436  15.134  16.576   4.361
 7654W        W74437   6.716  26.750  14.922
 7655W        W74438  21.733  11.414   0.511
 7656W        W74439  26.604   0.448  12.873
 7657W        W74440  12.783  23.392  14.968
 7658W        W74441   9.914  23.203  12.391
 7659W        W74442  10.061   3.217  12.883
 7660W        W74443  39.935   6.321  12.663
 7661W        W74444  26.573  22.429   2.347
 7662W        W74445  22.007  38.365   1.291
 7663W        W74446  41.994  17.672   2.191
 7664W        W74447  12.875  43.352   4.894
 7665W        W74448  30.428  42.252   4.529
 7666W        W74449  32.015  40.057  14.710
 7667W        W74450  36.153  25.607  11.750
 7668W        W74451  18.406  20.178   2.803
 7669W        W74452  17.062  32.086  12.630
 7670W        W74453  41.410  21.100   2.275
 7671W        W74454  26.039  14.245   4.619
 7672W        W74455  11.415  23.584  10.373
 7673W        W74456   0.737  31.510   3.961
 7674W        W74457  44.828  31.431  13.968
 7675W        W74458  15.711  21.829  11.954
 7676W        W74459  24.469  25.500   1.323
 7677W        W74460   0.474  11.177   1.805
 7678W        W74461  30.611  44.728  12.639
 7679W        W74462  21.944  27.604  11.120
 7680W        W74463   0.984  32.346  11.802
 7681W        W74464  10.598  22.036   4.504
 7682W        W74465  44.462  18.991   2.149
 7683W        W74466  31.848  33.855   0.810
 7684W        W74467  17.161  14.818   2.118
 7685W        W74468  32.883  32.492   1.561
 7686W        W74469  19.191  11.726  14.635
 7687W        W74470  31.361   7.801   2.822
 7688W        W74471  15.103  37.910   1.555
 7689W        W74472  33.615  39.304   0.474
 7690W        W74473  37.936  11.849   1.390
 7691W        W74474  14.696   2.551  14.852
 7692W        W74475  27.919  15.230   0.453
 7693W        W74476   0.815   2.359   2.784
 7694W        W74477   6.064   1.783  11.425
 7695W        W74478  40.757  43.834   4.500
 7696W        W74479  22.053  19.500   4.733
 7697W        W74480  23.307  42.616   3.620
 7698W        W74481  42.984   8.676   1.793
 7699W        W74482  14.512   7.215  12.016
 7700W        W74483  35.879  24.663  10.884
 7701W        W74484   1.399  18.632  12.805
 7702W        W74485  28.434  11.334   3.794
 7703W        W74486  15.301  44.357   2.738
 7704W        W74487  22.479  28.121  10.095
 7705W        W74488   8.762  13.603   1.884
 7706W        W74489  44.058  35.540  13.827
 7707W        W74490  32.181   1.333   0.046
 7708W        W74491   3.439  21.781  12.444
 7709W        W74492   6.009  33.309   3.681
 7710W        W74493  41.362   3.959  12.012
 7711W        W74494  30.818  20.547   3.265
 7712W        W74495  15.876   7.850   1.290
 7713W        W74496  44.892  26.524  13.756
 7714W        W74497  38.910  12.365  10.603
 7715W        W74498  18.372   4.103  13.932
 7716W        W74499  29.359   1.904   1.345
 7717W        W74500  22.990   5.960   3.184
 7718W        W74501  31.592  29.112  10.415
 7719W        W74502  36.862   4.080   2.804
 7720W        W74503  36.352  25.847  13.469
 7721W        W74504  27.865   2.524   2.741
 7722W        W74505  23.658  39.099   2.500
 7723W        W74506  17.126   6.404   3.239
 7724W        W74507   9.312  34.178   4.705
 7725W        W74508  21.556  23.939   4.127
 7726W        W74509  33.398  24.891  10.301
 7727W        W74510  18.582  17.745   0.446
 7728W        W74511  15.815  27.620   1.346
 7729W        W74512  25.677  11.785   3.806
 7730W        W74513  40.943  11.355  13.405
 7731W        W74514  13.934  39.805  12.384
 7732W        W74515  42.831  34.488  12.033
 7733W        W74516  20.991  39.438   4.241
 7734W        W74517  28.021  15.835   2.843
 7735W        W74518  15.872  27.251   4.407
 7736W        W74519   8.187  44.104   0.848
 7737W        W74520  32.438  31.204  11.073
 7738W        W74521  21.630  19.342  13.492
 7739W        W74522  37.687  11.652   3.338
 7740W        W74523  17.276   7.872  13.566
 7741W        W74524  38.890  33.060   4.642
 7742W        W74525  32.137   4.583  11.128
 7743W        W74526  31.489  33.582  13.410
 7744W        W74527  36.046  34.903  11.229
 7745W        W74528  31.541  42.544  14.844
 7746W        W74529  38.781  44.500   0.783
 7747W        W74530  11.535   6.934   3.598
 7748W        W74531   2.456  17.619  13.486
 7749W        W74532   9.591   9.274  12.410
 7750W        W74533  35.612  32.379   4.087
 7751W        W74534   6.750  20.488  13.805
 7752W        W74535   2.136  25.285  13.576
 7753W        W74536   7.218  15.239  11.168
 7754W        W74537  25.074  36.733  12.545
 7755W        W74538  34.984  42.197  13.901
 7756W        W74539  40.107  22.164  13.340
 7757W        W74540   3.323  37.354   0.981
 7758W        W74541  19.531   0.306   1.795
 7759W        W74542  40.278  27.187  14.802
 7760W        W74543  43.753  17.655  13.863
 7761W        W74544   1.732   7.153  13.787
 7762W        W74545  28.960   5.267   0.329
 7763W        W74546  37.347  43.305   2.754
 7764W        W74547  17.505  16.634   3.665
 7765W        W74548   9.937  19.558  14.895
 7766W        W74549  13.260  16.876   1.094
 7767W        W74550  41.982  15.887   0.771
 7768W        W74551  34.090  38.799  11.371
 7769W        W74552  28.952  19.960  10.975
 7770W        W74553  12.838  24.735   1.266
 7771W        W74554  23.354  41.290  13.596
 7772W        W74555  30.329   6.209  14.543
 7773W        W74556  36.910  19.214  14.788
 7774W        W74557  22.497  16.770   3.331
 7775W        W74558  16.969  44.921   9.993
 7776W        W74559  25.231   2.328   1.896
 7777W        W74560  20.745  28.670  11.792
 7778W        W74561  43.761  27.884   1.365
 7779W        W74562  16.882  19.092  14.993
 7780W        W74563   3.391  21.714  11.094
 7781W        W74564  23.833  29.677  11.064
 7782W        W74565  35.731   2.809   2.869
 7783W        W74566  30.729   1.064   4.575
 7784W        W74567   5.132  35.458  10.273
 7785W        W74568  20.684  30.034   2.454
 7786W        W74569   4.743  43.326  12.373
 7787W        W74570   0.039   1.657   3.175
 7788W        W74571  27.164   0.743  14.035
 7789W        W74572  15.866   0.565   3.222
 7790W        W74573  31.822   0.016   1.574
 7791W        W74574  15.184  19.592   1.459
 7792W        W74575   4.343  25.130  10.933
 7793W        W74576   0.536  11.763   2.751
 7794W        W74577  22.628  39.818   0.233
 7795W        W74578  36.704  40.521  11.638
 7796W        W74579  36.476  22.155  13.970
 7797W        W74580  42.352  42.473   0.192
 7798W        W74581  32.997  12.866  11.512
 7799W        W74582   6.651  33.925   1.321
 7800W        W74583  13.148  10.277   3.836
 7801W        W74584   1.794  38.856  13.022
 7802W        W74585  41.901  19.475  12.505
 7803W        W74586  15.640  35.706   4.890
 7804W        W74587  32.407  42.956  13.441
 7805W        W74588  17.269  35.156  10.959
 7806W        W74589  16.904  16.174   4.031
 7807W        W74590  12.077  33.879  11.569
 7808W        W74591  15.727  18.138  11.996
 7809W        W74592  28.958  25.382   1.738
 7810W        W74593  21.303   0.407  14.289
 7811W        W74594  24.192  25.774   1.791
 7812W        W74595  27.805  40.083   1.789
 7813W        W74596  11.367  29.524   1.140
 7814W        W74597  13.144  31.414   1.857
 7815W        W74598  38.335  17.236  14.931
 7816W        W74599  13.171  35.044  10.668
 7817W        W74600   4.617  12.292   4.659
 7818W        W74601  21.238  27.003   0.484
 7819W        W74602  20.089   7.728   0.908
 7820W        W74603   5.641  21.163   0.055
 7821W        W74604  15.214  37.418  11.169
 7822W        W74605   4.410  28.248  12.395
 7823W        W74606  17.441  22.420   0.434
 7824W        W74607  40.990  43.718  13.426
 7825W        W74608   1.848  37.500  12.340
 7826W        W74609  19.547   6.639   1.930
 7827W        W74610   6.878  27.928   1.391
 7828W        W74611   7.128  17.791   1.462
 7829W        W74612   5.960   4.764  13.494
 7830W        W74613  43.418   9.623  14.922
 7831W        W74614  18.136  37.346   3.575
 7832W        W74615   7.731  24.519   1.252
 7833W        W74616  17.833  41.084  12.579
 7834W        W74617  12.785  19.833   0.292
 7835W        W74618  31.953   6.780  12.499
 7836W        W74619  42.426  39.646  12.211
 7837W        W74620  43.005  38.997  10.689
 7838W        W74621  36.472  16.999  11.056
 7839W        W74622  26.982  41.830  13.628
 7840W        W74623   0.885  40.518   2.524
 7841W        W74624  14.638  37.529   0.137
 7842W        W74625  37.805  34.909   2.853
 7843W        W74626  30.737  41.044  13.636
 7844W        W74627  11.044  11.776  13.930
 7845W        W74628  31.715  30.772  11.118
 7846W        W74629  33.531  41.185  10.701
 7847W        W74630   5.182  30.075  10.719
 7848W        W74631   7.972  33.679  12.910
 7849W        W74632  25.215  30.722   4.558
 7850W        W74633  23.585  30.869  13.091
 7851W        W74634  40.032  37.773   1.424
 7852W        W74635  18.781   9.719   1.318
 7853W        W74636   4.594  13.533  12.498
 7854W        W74637  13.670  30.486  11.475
 7855W        W74638  34.998  40.664   3.318
 7856W        W74639  39.455   1.489  10.790
 7857W        W74640  31.686  37.443   4.614
 7858W        W74641  16.336  22.693   1.284
 7859W        W74642  27.913  25.088  11.728
 7860W        W74643  40.880  28.628  11.098
 7861W        W74644   0.065  29.462  10.679
 7862W        W74645  28.446  34.964   2.337
 7863W        W74646  17.236  16.171  12.581
 7864W        W74647  18.887  44.678  11.369
 7865W        W74648  31.839  17.206  12.891
 7866W        W74649  26.385  14.144  13.558
 7867W        W74650  22.068  18.527   0.688
 7868W        W74651  14.203   3.756  12.377
 7869W        W74652  17.807  17.896  12.537
 7870W        W74653  30.937   0.560  12.467
 7871W        W74654  30.565   2.825  14.869
 7872W        W74655  20.512  19.184  11.916
 7873W        W74656  38.257   3.935   3.179
 7874W        W74657   4.450  10.595   3.589
 7875W        W74658  32.580  27.152   4.583
 7876W        W74659  19.660  12.654  10.531
 7877W        W74660  25.094  11.708   4.636
 7878W        W74661  27.528   2.200   3.654
 7879W        W74662   1.741  40.651  13.731
 7880W        W74663  20.909  23.629  14.951
 7881W        W74664  34.892  40.507  13.377
 7882W        W74665  36.583  29.364   3.267
 7883W        W74666   3.400  36.879   0.783
 7884W        W74667  37.974  41.525   0.236
 7885W        W74668  41.599  23.415   2.071
 7886W        W74669  35.070  39.913  14.857
 7887W        W74670   6.147   4.472   1.346
 7888W        W74671  40.342   6.401   1.420
 7889W        W74672  16.029   3.152  11.820
 7890W        W74673   0.241  18.250   4.096
 7891W        W74674  34.507  41.476  11.725
 7892W        W74675   2.323  23.639   0.912
 7893W        W74676  10.361  24.232  14.948
 7894W        W74677  23.126   0.227   1.031
 7895W        W74678  31.556  32.627   3.119
 7896W        W74679  13.180   9.591  11.014
 7897W        W74680  18.301  11.571  13.366
 7898W        W74681  36.068  14.658  14.744
 7899W        W74682  18.662   0.061   0.763
 7900W        W74683  13.301  36.929  11.676
 7901W        W74684  42.247   4.924  10.562
 7902W        W74685  17.588  27.651  12.094
 7903W        W74686  38.458  13.842   1.709
 7904W        W74687   0.510  22.830   0.680
 7905W        W74688   2.009  39.544  10.826
 7906W        W74689  34.873  33.651   2.617
 7907W        W74690  43.096  31.879   3.638
 7908W        W74691  21.057  41.094   0.901
 7909W        W74692   4.282  23.794   1.737
 7910W        W74693   8.330  23.272  11.030
 7911W        W74694   8.322  39.793  12.536
 7912W        W74695  17.861  26.796   4.195
 7913W        W74696  17.090  41.298   1.471
 7914W        W74697  22.588  37.946  11.650
 7915W        W74698  44.297  37.459   0.751
 7916W        W74699   4.880  26.831   1.941
 7917W        W74700  41.635  23.502  10.377
 7918W        W74701  42.792  13.275   1.328
 7919W        W74702  15.919  12.945   2.623
 7920W        W74703  44.245  25.212  10.748
 7921W        W74704  13.516  26.850   3.224
 7922W        W74705  33.613  25.669   2.735
 7923W        W74706   7.401  26.358   3.998
 7924W        W74707  34.120  10.766  12.009
 7925W        W74708  10.324  27.597  10.713
 7926W        W74709  35.508  27.445   3.147
 7927W        W74710  32.609   3.071  11.147
 7928W        W74711  18.336  25.844  14.592
 7929W        W74712  23.674  18.744   3.724
 7930W        W74713   4.364  42.537  11.130
 7931W        W74714  29.291  33.340   1.777
 7932W        W74715  42.567   9.718   0.452
 7933W        W74716  41.452  22.983   2.852
 7934W        W74717  26.182  17.367   1.760
 7935W        W74718  13.898  25.510   0.192
 7936W        W74719  15.035  29.193   2.785
 7937W        W74720  33.012  26.771   1.802
 7938W        W74721  42.942  10.863  10.304
 7939W        W74722  32.232  43.005  14.390
 7940W        W74723  42.543  12.451   3.356
 7941W        W74724   4.909  39.460   1.814
 7942W        W74725   8.267  37.716  12.889
 7943W        W74726  15.180  22.410  13.298
 7944W        W74727  33.476   1.284   3.802
 7945W        W74728  36.334   7.647  11.704
 7946W        W74729  29.345  43.070  10.687
 7947W        W74730   0.232   5.945  13.491
 7948W        W74731  24.702  10.841  10.658
 7949W        W74732  17.376  25.732  11.523
 7950W        W74733  33.310  16.530  12.390
 7951W        W74734   1.374   5.556   1.665
 7952W        W74735   5.657  10.425   3.878
 7953W        W74736  16.319   8.496  14.030
 7954W        W74737  16.105  19.622   2.938
 7955W        W74738  29.905   2.299   4.912
 7956W        W74739  42.591  23.690  12.088
 7957W        W74740  34.124  36.420   0.525
 7958W        W74741  20.624  34.259  11.585
 7959W        W74742  17.413  42.599  12.990
 7960W        W74743  19.450  24.311   3.367
 7961W        W74744  19.218  28.637  12.625
 7962W        W74745  28.617  23.481   3.432
 7963W        W74746  15.077   1.584  10.759
 7964W        W74747  37.403  19.011  11.261
 7965W        W74748  19.503  25.053  11.853
 7966W        W74749  23.999  35.513   1.649
 7967W        W74750  44.046   4.817   4.823
 7968W        W74751  14.130  40.024   4.635
 7969W        W74752  26.429  40.835  11.241
 7970W        W74753  14.119   9.433   4.078
 7971W        W74754  28.035  34.514  10.292
 7972W        W74755  11.648   0.944   4.617
 7973W        W74756   2.879  42.636  13.285
 7974W        W74757  37.358  19.161   1.836
 7975W        W74758  11.442  28.150  12.693
 7976W        W74759  36.489  44.590  11.572
 7977W        W74760  20.496   5.642   3.174
 7978W        W74761  29.141  26.989  14.854
 7979W        W74762  13.003   1.706  10.712
 7980W        W74763  26.929  40.468   2.810
 7981W        W74764  44.885  13.141   0.280
 7982W        W74765  24.663  32.317  14.347
 7983W        W74766  43.267  27.104  13.610
 7984W        W74767   2.280   2.277  12.010
 7985W        W74768   5.327  16.345  13.268
 7986W        W74769  24.169  44.957   1.794
 7987W        W74770   3.417  28.453   0.011
 7988W        W74771  43.367  43.900   0.256
 7989W        W74772  10.836   8.000  12.301
 7990W        W74773  37.540  18.178  12.170
 7991W        W74774  39.481  34.757   3.785
 7992W        W74775  23.838  39.406  12.536
 7993W        W74776  33.165   6.377  13.251
 7994W        W74777  15.612  31.106  12.114
 7995W        W74778  38.553  40.350  10.977
 7996W        W74779  37.999  13.113   2.265
 7997W        W74780  22.205  12.357  12.153
 7998W        W74781  15.350  22.564  10.529
 7999W        W74782  38.975  41.385  12.634
 8000W        W74783  10.521  34.774   0.797
 8001W        W74784  44.207  14.049  13.871
 8002W        W74785  20.519  43.513  12.955
 8003W        W74786  16.187  27.462   4.053
 8004W        W74787  40.854  26.052  10.330
 8005W        W74788   8.978   4.295  11.639
 8006W        W74789  43.774  41.243   2.535
 8007W        W74790  38.992  36.125  12.436
 8008W        W74791  32.611  32.461   4.162
 8009W        W74792   4.244  24.737   1.966
 8010W        W74793  25.029  39.120   4.554
 8011W        W74794   5.890   8.236   4.670
 8012W        W74795   7.377   7.326   3.285
 8013W        W74796  21.026  31.144  13.391
 8014W        W74797  31.371  14.160  10.402
 8015W        W74798  34.133  19.842   0.685
 8016W        W74799  14.285  40.498  13.734
 8017W        W74800  33.541  22.702  14.354
 8018W        W74801  30.835  37.454  12.235
 8019W        W74802  19.853  16.445   4.804
 8020W        W74803  14.158   8.187  11.718
 8021W        W74804   6.715  14.031   2.690
 8022W        W74805  27.188  38.081  11.659
 8023W        W74806  18.806  15.884  14.304
 8024W        W74807  16.499   5.137   2.461
 8025W        W74808   6.448  22.639   2.396
 8026W        W74809   9.105  32.444   0.305
 8027W        W74810   7.326  22.184   4.229
 8028W        W74811  35.120  44.676  12.586
 8029W        W74812  15.318   3.749  13.338
 8030W        W74813  33.013  41.450  13.123
 8031W        W74814  44.408  13.079   3.252
 8032W        W74815  18.733  21.792  12.241
 8033W        W74816   9.673  42.034   4.905
 8034W        W74817  15.784  25.487   3.726
 8035W        W74818  40.313  16.394   2.012
 8036W        W74819  18.562  35.461  10.718
 8037W        W74820  35.975  31.101   0.697
 8038W        W74821  18.322  38.454   3.222
 8039W        W74822  28.353   9.258  11.144
 8040W        W74823  34.063  33.107   0.348
 8041W        W74824  28.937  41.050   4.268
 8042W        W74825  24.060  31.626   1.780
 8043W        W74826  30.157  10.376   4.640
 8044W        W74827  16.897  23.409   4.646
 8045W        W74828  15.889  28.210   4.124
 8046W        W74829   1.759  40.154  14.856
 8047W        W74830   6.157  37.906   2.208
 8048W        W74831  24.616  33.565   1.881
 8049W        W74832  17.562  39.545   4.025
 8050W        W74833  32.555  33.353  12.174
 8051W        W74834  32.322  37.871  13.452
 8052W        W74835  43.559  25.892  13.166
 8053W        W74836   5.742  22.414  13.894
 8054W        W74837  43.810   4.259  11.022
 8055W        W74838  36.058  37.422  10.860
 8056W        W74839  32.257  31.212  11.576
 8057W        W74840  31.897  18.283   3.958
 8058W        W74841  43.260  35.029   1.818
 8059W        W74842  14.727   3.294   0.467
 8060W        W74843   4.229  34.868   4.748
 8061W        W74844  42.014  25.990   4.910
 8062W        W74845  17.630   1.451   3.879
 8063W        W74846  40.495  10.152   1.843
 8064W        W74847   9.460  33.868   1.166
 8065W        W74848  29.184   7.427  11.542
 8066W        W74849   1.807  43.353   3.391
 8067W        W74850  36.079  41.704   1.759
 8068W        W74851   7.867  13.337  12.049
 8069W        W74852  10.926  20.203   2.111
 8070W        W74853  32.839  41.697   5.155
 8071W        W74854   9.667   6.504  14.780
 8072W        W74855  35.324  27.922   5.560
 8073W        W74856   1.524   8.223   4.730
 8074W        W74857  39.279  14.204   0.297
 8075W        W74858  15.020  14.351  12.038
 8076W        W74859  13.365  42.294   4.154
 8077W        W74860  29.718  22.223  14.955
 8078W        W74861   9.763  18.993   3.366
 8079W        W74862  17.202  22.338  11.122
 8080W        W74863   9.326  20.911   1.259
 8081W        W74864  43.958  17.699   4.588
 8082W        W74865  23.813  13.724   1.183
 8083W        W74866  11.369  29.217  13.864
 8084W        W74867  35.488  18.692   9.777
 8085W        W74868  33.992   7.422   1.541
 8086W        W74869   6.311  41.609  11.635
 8087W        W74870  12.433  38.202  10.265
 8088W        W74871  36.507  28.174   0.586
 8089W        W74872  35.814   1.083  13.096
 8090W        W74873  22.959  43.423   3.404
 8091W        W74874  25.319   9.724   2.853
 8092W        W74875   3.799  13.653  13.182
 8093W        W74876  33.825   4.354  12.499
 8094W        W74877  36.428  37.195  13.060
 8095W        W74878   3.990  20.370   3.310
 8096W        W74879  31.624  33.609   1.789
 8097W        W74880  24.672  24.125  11.913
 8098W        W74881  13.712   4.295  11.837
 8099W        W74882   5.725  15.664   4.347
 8100W        W74883  19.985   5.483  12.028
 8101W        W74884  28.436  25.581   2.571
 8102W        W74885  17.562  39.440   0.762
 8103W        W74886   5.412  27.500  11.680
 8104W        W74887  26.070  34.594   0.880
 8105W        W74888  28.124  25.203  10.659
 8106W        W74889  44.918   1.706   2.301
 8107W        W74890   7.178  39.604  13.519
 8108W        W74891  13.589  33.539  10.454
 8109W        W74892  23.164  22.593   4.625
 8110W        W74893   2.201  12.788   4.595
 8111W        W74894  14.748  20.742   1.847
 8112W        W74895  22.026   9.503  11.575
 8113W        W74896  22.460  17.419  14.009
 8114W        W74897  20.854  37.123   3.211
 8115W        W74898  43.383  26.868   1.493
 8116W        W74899  14.259  21.302   1.454
 8117W        W74900   3.278  23.227   3.654
 8118W        W74901  33.622  17.103   3.194
 8119W        W74902  35.376   5.346   3.655
 8120W        W74903   9.608  25.647  10.794
 8121W        W74904  36.150   7.796  13.575
 8122W        W74905  30.797   0.549  13.310
 8123W        W74906  26.460  13.161  11.226
 8124W        W74907  12.301  22.690   2.737
 8125W        W74908  15.872  39.626  14.076
 8126W        W74909   9.701  12.832   3.766
 8127W        W74910  22.480  35.108  13.021
 8128W        W74911  14.147  40.029  10.782
 8129W        W74912   0.272  26.474   3.728
 8130W        W74913  29.718  16.718  11.518
 8131W        W74914  27.383  21.079   0.246
 8132W        W74915  26.765  25.476  14.912
 8133W        W74916  25.985  17.665  11.636
 8134W        W74917  34.711   8.482   3.245
 8135W        W74918   5.776  41.302  12.426
 8136W        W74919  43.720   9.190   1.905
 8137W        W74920  11.636  28.957   1.465
 8138W        W74921  21.074  32.935   0.712
 8139W        W74922  21.790   0.214  13.019
 8140W        W74923  42.400  25.612  12.281
 8141W        W74924  14.306  32.687   1.800
 8142W        W74925  17.737  26.841  10.651
 8143W        W74926  17.790   2.357   4.218
 8144W        W74927  39.314  34.055   4.503
 8145W        W74928  28.044   4.219  11.675
 8146W        W74929  15.296  13.719  13.765
 8147W        W74930   0.903  27.567  10.614
 8148W        W74931  35.517  32.661  11.540
 8149W        W74932  20.492  24.120  10.430
 8150W        W74933  41.431  11.637   3.351
 8151W        W74934   3.619   1.903   1.704
 8152W        W74935  44.119  13.231   0.817
 8153W        W74936  33.241   8.415   4.100
 8154W        W74937   1.402   5.994  13.900
 8155W        W74938  32.018  27.672   0.538
 8156W        W74939  33.088  26.783   4.190
 8157W        W74940   8.331  23.178  11.550
 8158W        W74941  37.019  22.701   2.107
 8159W        W74942  32.223   2.292  11.045
 8160W        W74943  22.945  26.506  10.974
 8161W        W74944   9.566  25.710   2.897
 8162W        W74945  23.517  33.996   0.814
 8163W        W74946  13.022  20.345  11.166
 8164W        W74947  42.269   6.199  12.526
 8165W        W74948   0.854  10.633   3.233
 8166W        W74949   7.886  35.984  13.034
 8167W        W74950   9.663  14.759   4.301
 8168W        W74951  35.162   4.187  11.956
 8169W        W74952  23.493   1.889  10.653
 8170W        W74953  13.639   2.906  14.028
 8171W        W74954   4.780  22.461   3.685
 8172W        W74955   4.347  37.726   1.207
 8173W        W74956   5.025  35.625  13.031
 8174W        W74957   7.751   4.106  12.897
 8175W        W74958  39.810   9.955   3.762
 8176W        W74959  17.267  32.777  10.859
 8177W        W74960  14.737  22.759   0.725
 8178W        W74961  26.103  26.631  13.354
 8179W        W74962  31.503  29.188  11.888
 8180W        W74963  39.989  27.008  14.393
 8181W        W74964   7.553  38.773  11.128
 8182W        W74965  10.738  27.470   2.522
 8183W        W74966  39.573   4.275  12.124
 8184W        W74967  16.820   5.801   0.575
 8185W        W74968  10.366   9.913   1.848
 8186W        W74969  16.869  28.644  10.805
 8187W        W74970  44.286  17.995  11.677
 8188W        W74971  35.363  38.144   2.067
 8189W        W74972  24.270  38.700   4.966
 8190W        W74973  20.305  19.816   0.907
 8191W        W74974  27.902  39.187   3.709
 8192W        W74975   4.289  18.129  11.264
 8193W        W74976  21.235  25.598  10.246
 8194W        W74977  11.312  11.846  13.490
 8195W        W74978  41.841  14.121  11.157
 8196W        W74979   5.777  38.112   3.048
 8197W        W74980   4.676  20.632  13.668
 8198W        W74981  20.771  21.478  11.860
 8199W        W74982   3.811   7.163   2.791
 8200W        W74983  36.023  38.221   0.830
 8201W        W74984   1.938  41.757   0.841
 8202W        W74985  19.086  12.650   1.148
 8203W        W74986  18.047  33.803  11.356
 8204W        W74987  37.019  44.283  12.487
 8205W        W74988  24.712  23.501  12.517
 8206W        W74989   6.384  35.855   2.258
 8207W        W74990  37.377  34.998   2.539
 8208W        W74991   6.804  27.908   2.785
 8209W        W74992   9.670  31.088   4.067
 8210W        W74993  17.468  13.186  10.144
 8211W        W74994  17.749  36.851  11.099
 8212W        W74995  37.920   1.527   0.028
 8213W        W74996   1.728  31.999   2.729
 8214W        W74997  31.145  25.575  12.009
 8215W        W74998  27.468  40.487   1.806
 8216W        W74999  37.550  28.432   3.699
 8217W        W75000  28.435  37.508   0.849
 8218W        W75001  30.027  36.189  10.831
 8219W        W75002  35.617  34.429  14.535
 8220W        W75003  35.007  20.601  13.351
 8221W        W75004  15.764  11.766   2.269
 8222W        W75005  33.101  13.499   0.858
 8223W        W75006  21.649  30.089  13.896
 8224W        W75007  26.720   9.886   2.775
 8225W        W75008  10.214  27.496   2.634
 8226W        W75009  21.702  14.311   3.114
 8227W        W75010  24.476  38.489   2.489
 8228W        W75011  29.852  28.080   4.944
 8229W        W75012  21.863  34.277   3.159
 8230W        W75013  34.129  15.168  11.552
 8231W        W75014   5.171  37.519   1.745
 8232W        W75015   8.659  10.333  13.912
 8233W        W75016  39.102  28.075   0.565
 8234W        W75017  37.796  38.650  12.651
 8235W        W75018  16.880   5.348  11.710
 8236W        W75019  21.714   0.254  10.739
 8237W        W75020  41.626  24.510   4.471
 8238W        W75021  29.500  36.501  12.440
 8239W        W75022  11.391   1.972   4.692
 8240W        W75023  14.790   0.935   0.708
 8241W        W75024  21.272  44.584  13.358
 8242W        W75025  31.814   2.311  14.396
 8243W        W75026  27.273   4.207  12.345
 8244W        W75027   8.292  40.419   1.803
 8245W        W75028  27.585  39.251   5.132
 8246W        W75029  35.994  34.981   0.904
 8247W        W75030  40.060  29.254   0.767
 8248W        W75031  28.532   1.786   5.096
 8249W        W75032   2.974  27.892  14.333
 8250W        W75033  40.851  19.492  13.520
 8251W        W75034  37.828  43.486   2.670
 8252W        W75035  20.999   3.112  11.701
 8253W        W75036   2.788   4.251   1.855
 8254W        W75037   9.919  26.523  11.587
 8255W        W75038  25.528  37.693   1.736
 8256W        W75039  41.297  34.050   0.433
 8257W        W75040  30.526  41.786  13.422
 8258W        W75041   7.191   0.858   1.945
 8259W        W75042  11.743  21.615   1.762
 8260W        W75043  16.458   0.298  13.508
 8261W        W75044  18.615  18.109  14.230
 8262W        W75045   4.389  27.489   2.824
 8263W        W75046  37.589  37.475  14.469
 8264W        W75047  25.979  35.462   2.650
 8265W        W75048  14.040   2.587   1.725
 8266W        W75049  24.205   7.249  14.920
 8267W        W75050  30.975  37.085   0.401
 8268W        W75051  11.678  18.552   1.214
 8269W        W75052  11.403  11.361   4.111
 8270W        W75053  41.819  12.688   2.655
 8271W        W75054  37.468  35.045  10.636
 8272W        W75055   6.398   6.438   1.389
 8273W        W75056  18.942  34.958   4.204
 8274W        W75057  12.282  10.895  12.403
 8275W        W75058  18.625   3.812   2.184
 8276W        W75059  39.175  27.717  14.258
 8277W        W75060  23.768  27.252  13.464
 8278W        W75061   6.001  17.486   3.643
 8279W        W75062  16.172  39.366   4.432
 8280W        W75063  21.724   4.630   4.459
 8281W        W75064  17.250  41.909   2.790
 8282W        W75065   7.777  37.793  14.484
 8283W        W75066  31.418  19.747  13.443
 8284W        W75067  39.318  31.610   3.504
 8285W        W75068  13.707  44.774  13.106
 8286W        W75069   4.643  41.840  10.363
 8287W        W75070   7.854  34.587   4.551
 8288W        W75071  22.959  39.273   3.168
 8289W        W75072  25.403  40.042   2.682
 8290W        W75073  36.929  34.810   3.783
 8291W        W75074  19.652  41.639   4.189
 8292W        W75075  17.029  39.436  12.055
 8293W        W75076  23.558  22.285   3.798
 8294W        W75077  18.337  26.650  11.475
 8295W        W75078  38.994   2.038   4.411
 8296W        W75079   3.554  42.096   0.118
 8297W        W75080  42.399  15.125  14.852
 8298W        W75081   8.253  33.809  14.987
 8299W        W75082   9.294  14.825   1.314
 8300W        W75083  38.658  35.934  10.144
 8301W        W75084  33.849   6.452   2.616
 8302W        W75085  25.878  11.887   3.354
 8303W        W75086  16.080  10.410   0.251
 8304W        W75087  44.991  22.581   1.469
 8305W        W75088  37.728  28.615   4.791
 8306W        W75089  13.089  17.233  10.785
 8307W        W75090  28.103   0.124  14.940
 8308W        W75091  10.123  29.478  11.986
 8309W        W75092  25.917  32.574  12.556
 8310W        W75093  36.533  11.218   1.605
 8311W        W75094  38.809  24.458   3.272
 8312W        W75095  13.235  17.742   2.927
 8313W        W75096  12.273   0.804  14.142
 8314W        W75097  15.700  38.496  11.516
 8315W        W75098  32.647  32.949  11.237
 8316W        W75099  19.467   2.465   4.526
 8317W        W75100  29.385  44.407   0.862
 8318W        W75101   1.580  40.095   1.409
 8319W        W75102  28.216  11.228   0.491
 8320W        W75103  19.069  32.402   4.622
 8321W        W75104   2.795  39.547   2.158
 8322W        W75105  28.058  34.974   4.571
 8323W        W75106  30.002  32.422  11.678
 8324W        W75107  26.394   7.369  10.681
 8325W        W75108   6.114  11.259   3.352
 8326W        W75109  31.585  32.924  12.743
 8327W        W75110  21.235  24.096   0.981
 8328W        W75111  37.041   7.878  13.276
 8329W        W75112   4.835  41.727  13.998
 8330W        W75113   3.644  24.620  14.908
 8331W        W75114  10.255  27.999   1.871
 8332W        W75115  25.719   8.296  14.984
 8333W        W75116  11.589  34.617  12.060
 8334W        W75117   6.736  37.416   4.280
 8335W        W75118   7.259  15.363  13.707
 8336W        W75119   1.846  12.401   4.657
 8337W        W75120  40.471  12.209   2.295
 8338W        W75121  20.047  32.351   1.022
 8339W        W75122   0.934  23.444  11.216
 8340W        W75123  18.521   7.129   4.151
 8341W        W75124  28.151  24.791   4.256
 8342W        W75125  12.795  42.820   1.418
 8343W        W75126   4.901  13.711   3.166
 8344W        W75127   8.188  43.851  10.970
 8345W        W75128  22.043  38.381   3.550
 8346W        W75129   8.647   3.835   2.227
 8347W        W75130   9.292  43.264  14.869
 8348W        W75131  41.664  26.880  11.593
 8349W        W75132  17.570  18.473  11.508
 8350W        W75133  37.747   0.902  13.945
 8351W        W75134  37.126   1.265   4.128
 8352W        W75135  22.168  17.228   2.299
 8353W        W75136  40.282   7.027   2.398
 8354W        W75137  18.569   3.880   1.158
 8355W        W75138  22.125   0.472  14.764
 8356W        W75139  31.860  20.230  14.760
 8357W        W75140  38.151  43.583  12.020
 8358W        W75141  10.513  42.482  12.566
 8359W        W75142  17.660   2.209   1.262
 8360W        W75143   1.833  37.846   1.589
 8361W        W75144  29.643   6.597   1.270
 8362W        W75145   8.105  14.590   2.868
 8363W        W75146  34.136  39.529  10.727
 8364W        W75147  34.148  29.010   0.393
 8365W        W75148  39.362  23.771   2.069
 8366W        W75149  41.856  12.620  14.263
 8367W        W75150  14.912  30.929  12.929
 8368W        W75151  31.503  14.445   1.496
 8369W        W75152   0.649  32.572  10.809
 8370W        W75153  28.284  19.727  11.888
 8371W        W75154  11.386   7.252  11.558
 8372W        W75155  33.116   1.249  10.833
 8373W        W75156  29.653   2.997  14.238
 8374W        W75157  10.278   8.439   3.658
 8375W        W75158   8.407  25.401  14.240
 8376W        W75159  15.577  19.577  14.351
 8377W        W75160   2.897  24.270  10.725
 8378W        W75161  38.365  38.029  14.415
 8379W        W75162  25.942  29.942  12.432
 8380W        W75163  30.603  18.124  14.396
 8381W        W75164  41.884   0.925  11.970
 8382W        W75165  17.515   1.379  13.847
 8383W        W75166   5.187  40.228   1.837
 8384W        W75167   3.308  30.475  14.604
 8385W        W75168   7.359  24.185  11.646
 8386W        W75169  10.873  36.559   1.863
 8387W        W75170  23.986   2.799   2.735
 8388W        W75171  32.947  14.113   0.105
 8389W        W75172  15.434  43.038   5.058
 8390W        W75173  33.437  15.113   1.630
 8391W        W75174  24.128  41.897   3.829
 8392W        W75175  39.100  44.969  11.631
 8393W        W75176  23.357  42.187  14.452
 8394W        W75177   5.784  39.642   2.408
 8395W        W75178   3.771   4.381   1.747
 8396W        W75179  13.259   0.664  13.264
 8397W        W75180   4.539  13.636  11.187
 8398W        W75181  10.818  24.104   0.876
 8399W        W75182  10.134  10.419  10.732
 8400W        W75183   4.314  16.358   0.275
 8401W        W75184   1.111  15.128   2.001
 8402W        W75185   3.830  24.448  10.794
 8403W        W75186  31.690  35.505   1.730
 8404W        W75187  15.881  38.620  13.895
 8405W        W75188  20.995  21.751   1.334
 8406W        W75189  32.475   3.555  13.953
 8407W        W75190  22.524  33.521  13.174
 8408W        W75191  32.019  35.663  11.888
 8409W        W75192  41.081   0.793  14.798
 8410W        W75193  18.510  22.990   1.891
 8411W        W75194  26.228  25.518  11.696
 8412W        W75195  42.837   3.220   4.813
 8413W        W75196  21.247  27.456  14.475
 8414W        W75197  40.078  18.680  12.863
 8415W        W75198   5.937  41.516  11.987
 8416W        W75199  24.272  23.906  14.347
 8417W        W75200  25.248   1.568  12.538
 8418W        W75201  31.038  40.124   0.415
 8419W        W75202  39.777  28.870  14.258
 8420W        W75203  27.861  26.022  12.137
 8421W        W75204   5.788   8.757   3.639
 8422W        W75205   8.793  40.832   3.385
 8423W        W75206  19.461  32.785  14.869
 8424W        W75207  28.000  25.194  14.400
 8425W        W75208   7.902  30.650   2.708
 8426W        W75209   9.219  38.348   2.763
 8427W        W75210  41.521   0.656  12.578
 8428W        W75211   2.024  34.648  13.917
 8429W        W75212  11.184  16.596   0.537
 8430W        W75213  26.894  15.090   3.838
 8431W        W75214  26.710  13.686  11.991
 8432W        W75215  18.624   1.225   4.163
 8433W        W75216  24.691  12.802   2.176
 8434W        W75217  18.178  29.681  11.685
 8435W        W75218  42.097   0.864   2.052
 8436W        W75219  24.383  10.865   3.571
 8437W        W75220  38.780  13.589  10.193
 8438W        W75221  37.463  40.901   3.199
 8439W        W75222   6.532   9.333   3.733
 8440W        W75223   2.765  39.693  12.476
 8441W        W75224  12.279  21.461  14.783
 8442W        W75225  28.608  31.423   0.894
 8443W        W75226  36.836   9.598  12.923
 8444W        W75227  24.698  42.354  11.948
 8445W        W75228  39.126   2.082  11.581
 8446W        W75229   3.064  32.639  10.935
 8447W        W75230  17.002   7.751  13.130
 8448W        W75231  36.732  30.468  12.400
 8449W        W75232   4.178  27.353  11.475
 8450W        W75233   1.824  38.383   2.282
 8451W        W75234   7.842  20.474  12.973
 8452W        W75235  20.574  29.443   0.351
 8453W        W75236  43.545  10.323   3.255
 8454W        W75237  16.557  42.193  12.446
 8455W        W75238  27.590   7.681  11.171
 8456W        W75239  37.957   9.625  12.950
 8457W        W75240   1.803  39.748  12.731
 8458W        W75241   7.477  26.624  10.292
 8459W        W75242  38.515  32.483   1.606
 8460W        W75243  38.777  26.949  13.970
 8461W        W75244  28.178  24.484  11.698
 8462W        W75245  36.502  19.970  12.933
 8463W        W75246  13.230  36.863  12.666
 8464W        W75247   5.392  38.446   1.017
 8465W        W75248  35.989  23.032   2.912
 8466W        W75249   8.785  36.916   0.002
 8467W        W75250   6.411  22.200   4.349
 8468W        W75251  11.202  10.176  14.117
 8469W        W75252  20.461  11.977   1.252
 8470W        W75253  34.288  36.473  11.871
 8471W        W75254  28.362  35.015  11.976
 8472W        W75255  14.801  15.720   2.895
 8473W        W75256  21.487  30.450  13.105
 8474W        W75257   0.965  31.074  12.370
 8475W        W75258  11.753  18.402   3.551
 8476W        W75259   4.723  18.138  14.442
 8477W        W75260  22.002  12.170   3.158
 8478W        W75261  35.522  22.668  12.582
 8479W        W75262   7.398  38.778   5.117
 8480W        W75263   2.866  33.973   0.170
 8481W        W75264  21.811  36.672  12.579
 8482W        W75265  10.728  44.409  10.601
 8483W        W75266  44.727  30.493   4.602
 8484W        W75267   1.332  16.069  11.208
 8485W        W75268  43.791  11.293   3.598
 8486W        W75269  44.637  39.900  12.934
 8487W        W75270  23.126  37.384   1.323
 8488W        W75271   0.333  21.984   0.329
 8489W        W75272  18.357   3.492  12.025
 8490W        W75273  10.842  11.191  10.652
 8491W        W75274  17.152  41.655   3.813
 8492W        W75275  26.951  14.940  14.372
 8493W        W75276   3.885  25.820  14.936
 8494W        W75277  15.657  36.625   1.073
 8495W        W75278  32.852  13.802   1.240
 8496W        W75279  33.835  40.518  12.602
 8497W        W75280   1.140   9.049  14.898
 8498W        W75281  41.367  34.956  10.809
 8499W        W75282  17.341  38.817   4.495
 8500W        W75283  35.866   5.446  12.056
 8501W        W75284   6.636  40.307  10.610
 8502W        W75285  15.466  33.119  13.818
 8503W        W75286   2.504   0.680   3.771
 8504W        W75287  22.599   3.518  13.936
 8505W        W75288  39.639  14.867  10.732
 8506W        W75289  42.909  12.818  12.391
 8507W        W75290   4.731  36.492  11.329
 8508W        W75291  18.575  39.809   3.452
 8509W        W75292  25.077  28.124   3.698
 8510W        W75293  38.878  20.116   1.003
 8511W        W75294  18.358  43.498   0.232
 8512W        W75295  38.551  20.359   3.565
 8513W        W75296   8.604  29.254   3.796
 8514W        W75297  19.248  13.954  14.759
 8515W        W75298  12.846  40.455  12.110
 8516W        W75299   1.726   2.004  12.378
 8517W        W75300  36.967  34.109   2.535
 8518W        W75301   3.423   6.417  11.599
 8519W        W75302  31.369  19.211  14.928
 8520W        W75303  16.496  42.281  11.782
 8521W        W75304   8.482   1.172  12.550
 8522W        W75305  40.233  21.322   5.150
 8523W        W75306  43.347  40.496   2.183
 8524W        W75307  18.755  18.753  13.047
 8525W        W75308  44.500  10.583  14.874
 8526W        W75309  20.635  11.564  12.623
 8527W        W75310  39.569  36.482   0.074
 8528W        W75311  43.872  44.517  13.021
 8529W        W75312  21.144  14.587   2.661
 8530W        W75313   9.885  36.515   1.880
 8531W        W75314   4.409  15.115   1.863
 8532W        W75315  34.431  12.174  12.403
 8533W        W75316  43.330  39.982  14.471
 8534W        W75317  23.435  20.239   4.496
 8535W        W75318  31.207  26.634   5.001
 8536W        W75319   2.004  44.710  14.813
 8537W        W75320  11.733  36.135  12.876
 8538W        W75321  25.409   0.398   4.170
 8539W        W75322   6.803  14.552   2.633
 8540W        W75323  43.060  10.265  11.591
 8541W        W75324  24.895  28.363  14.958
 8542W        W75325  44.903  36.092  14.574
 8543W        W75326  43.584   9.744  12.982
 8544W        W75327   9.702   7.800  11.762
 8545W        W75328  34.600  41.087  11.412
 8546W        W75329  34.777  37.694  14.975
 8547W        W75330  34.579  43.278   3.247
 8548W        W75331  11.234  35.131   3.657
 8549W        W75332  37.552  43.327   5.136
 8550W        W75333   6.394  36.970  12.602
 8551W        W75334  23.691   6.855   0.395
 8552W        W75335  27.887   5.694  10.741
 8553W        W75336  29.501  42.070  10.719
 8554W        W75337  36.426  22.090   4.632
 8555W        W75338   1.876  37.659  11.821
 8556W        W75339  39.988  22.317   3.153
 8557W        W75340  15.518  40.908  11.593
 8558W        W75341  38.384  30.719  13.316
 8559W        W75342  39.849  10.015  11.437
 8560W        W75343  19.073  36.385   1.344
 8561W        W75344  11.968  10.426  10.260
 8562W        W75345  14.216   0.925  13.883
 8563W        W75346  28.519  14.162   3.803
 8564W        W75347  41.374   8.708   4.012
 8565W        W75348  25.032  31.367   2.247
 8566W        W75349  39.620   3.573  12.445
 8567W        W75350  23.066  20.024  11.553
 8568W        W75351  15.238  14.730  14.261
 8569W        W75352  34.461  27.027  12.007
 8570W        W75353  13.319   8.321  14.227
 8571W        W75354  38.367  22.526  13.881
 8572W        W75355   4.333  29.151  10.369
 8573W        W75356   2.371  18.569   1.842
 8574W        W75357  21.997   2.812   2.842
 8575W        W75358  41.770   8.683  11.700
 8576W        W75359  41.778  17.993   3.417
 8577W        W75360  12.407  23.232   0.818
 8578W        W75361  16.230   3.802   3.004
 8579W        W75362  31.587  29.271   4.953
 8580W        W75363  34.874  25.444  14.384
 8581W        W75364  30.171  37.769   3.319
 8582W        W75365  24.686  19.093   4.102
 8583W        W75366  43.471  39.972   2.213
 8584W        W75367  23.062   5.981  10.613
 8585W        W75368  20.508  14.114  12.017
 8586W        W75369  14.316   2.224  13.016
 8587W        W75370  13.104  41.930   1.176
 8588W        W75371  20.994  19.594   0.225
 8589W        W75372   0.407  34.672   0.819
 8590W        W75373  22.832  16.117   1.325
 8591W        W75374  24.606  11.062   1.220
 8592W        W75375   1.820   5.258  14.483
 8593W        W75376   3.790  35.527   3.758
 8594W        W75377   9.579  11.146   1.678
 8595W        W75378   9.122  14.597   2.796
 8596W        W75379  18.587  18.220  11.496
 8597W        W75380  19.765   0.523   1.370
 8598W        W75381  19.106   0.321   4.201
 8599W        W75382  24.825  44.548   3.065
 8600W        W75383   8.906  41.184  11.582
 8601W        W75384  23.916  40.038   2.353
 8602W        W75385   5.355  42.853   0.861
 8603W        W75386  26.861  42.952  11.056
 8604W        W75387  20.512   9.098   2.260
 8605W        W75388  10.975  25.633   3.179
 8606W        W75389  12.421   6.662  11.121
 8607W        W75390  28.625  32.652   0.239
 8608W        W75391  17.253  22.071  10.674
 8609W        W75392   8.392   5.791  10.437
 8610W        W75393  35.479  12.045   4.918
 8611W        W75394  15.584  39.837   0.863
 8612W        W75395  21.798  22.469  14.826
 8613W        W75396  26.601   8.684  14.123
 8614W        W75397  37.556  25.007  11.462
 8615W        W75398  14.843  26.012  14.421
 8616W        W75399  42.921  39.648  12.489
 8617W        W75400   8.111  16.466   0.261
 8618W        W75401  18.770  40.996   3.326
 8619W        W75402  29.639  36.387   2.333
 8620W        W75403   5.649  29.913  12.861
 8621W        W75404  25.265  39.504   0.358
 8622W        W75405  44.478  17.879   3.216
 8623W        W75406  35.058  25.984   2.797
 8624W        W75407  36.085  27.072   0.927
 8625W        W75408  27.052  13.635  14.763
 8626W        W75409   0.877  42.905  14.311
 8627W        W75410  18.792   6.339  13.251
 8628W        W75411   6.130   3.775  12.504
 8629W        W75412  41.956   9.242  12.500
 8630W        W75413   6.189  30.640  14.469
 8631W        W75414  27.491  34.853  13.462
 8632W        W75415  44.393   5.818  12.467
 8633W        W75416  20.696   3.694   3.303
 8634W        W75417  38.967  34.871  11.007
 8635W        W75418   7.747  23.131  10.642
 8636W        W75419  11.232  31.346   4.286
 8637W        W75420   0.298  12.805   0.177
 8638W        W75421  28.817  11.135   4.768
 8639W        W75422  28.331  21.033  13.001
 8640W        W75423  33.815  40.039   1.707
 8641W        W75424   1.583  13.471  11.621
 8642W        W75425  32.576  29.161  13.382
 8643W        W75426   0.956   4.754   3.549
 8644W        W75427  19.175  18.430  12.170
 8645W        W75428   9.769   7.184  12.410
 8646W        W75429  10.837  13.415  12.916
 8647W        W75430   4.584  39.100  12.048
 8648W        W75431   7.923  19.622  12.510
 8649W        W75432  14.165  32.985   1.415
 8650W        W75433   8.792  42.100  14.756
 8651W        W75434  23.441  23.465  13.030
 8652W        W75435  34.849  17.446  14.317
 8653W        W75436  36.434   9.950  12.861
 8654W        W75437  26.964  16.108   0.749
 8655W        W75438   8.237  14.202  13.860
 8656W        W75439   4.545  44.565  11.794
 8657W        W75440  15.036   7.698  11.667
 8658W        W75441  32.986  23.728   3.774
 8659W        W75442  30.286   0.582  13.390
 8660W        W75443  28.447  25.121   3.307
 8661W        W75444  32.152  10.738  14.322
 8662W        W75445  27.279  34.587   1.501
 8663W        W75446  31.962  29.965  11.570
 8664W        W75447  30.218  21.574   1.993
 8665W        W75448  10.341  25.636   0.313
 8666W        W75449  23.626  21.160   2.707
 8667W        W75450  44.363  42.037   4.881
 8668W        W75451  44.205   8.905  11.309
 8669W        W75452  31.521  29.559   3.628
 8670W        W75453  36.012  11.074   2.344
 8671W        W75454  14.371  38.902   5.380
 8672W        W75455  36.541  30.050  14.708
 8673W        W75456  31.427   0.076  14.770
 8674W        W75457  18.295   6.807  13.059
 8675W        W75458  36.547  31.028  10.702
 8676W        W75459  15.787  30.176   2.135
 8677W        W75460  34.817  34.185  13.435
 8678W        W75461   3.367   8.924   1.410
 8679W        W75462  29.447   8.855  13.397
 8680W        W75463  10.628   6.713  10.771
 8681W        W75464   3.780  30.525  10.496
 8682W        W75465  18.545   4.861  12.666
 8683W        W75466   3.999  37.699  12.853
 8684W        W75467  44.885  18.089   1.771
 8685W        W75468  31.050  17.770   4.302
 8686W        W75469  43.866  41.890   2.576
 8687W        W75470  42.807  14.401  14.320
 8688W        W75471  35.880   8.760  12.016
 8689W        W75472  29.323   3.926  13.130
 8690W        W75473  41.859  28.731   2.731
 8691W        W75474  11.546  43.628   0.067
 8692W        W75475  42.857  10.881   2.313
 8693W        W75476  30.050  40.972   3.741
 8694W        W75477  15.342  14.658  13.303
 8695W        W75478  20.680  28.539  13.379
 8696W        W75479  12.717  30.656  12.627
 8697W        W75480  37.077  31.001   0.921
 8698W        W75481  24.042  14.437  13.335
 8699W        W75482  23.118  27.304  13.982
 8700W        W75483   1.460   4.109   1.716
 8701W        W75484  17.790  28.131  12.157
 8702W        W75485   0.837  41.341   0.001
 8703W        W75486   8.711  11.872  14.014
 8704W        W75487  41.829   2.265   3.254
 8705W        W75488  32.495  43.094   4.283
 8706W        W75489  36.564   4.287  12.519
 8707W        W75490  25.532   4.377  10.490
 8708W        W75491  15.240  36.454  12.349
 8709W        W75492  31.439  31.688  13.922
 8710W        W75493  34.108  18.727  14.305
 8711W        W75494  20.639  20.081  13.479
 8712W        W75495  42.910  38.977   4.464
 8713W        W75496  29.441  37.880   3.821
 8714W        W75497  40.948  37.453  13.583
 8715W        W75498  35.518  36.318   2.442
 8716W        W75499  34.900  31.579  12.976
 8717W        W75500  42.552  33.995   0.854
 8718W        W75501  32.460   8.749   4.201
 8719W        W75502  19.078   0.474   2.882
 8720W        W75503  11.196  20.765   2.310
 8721W        W75504  40.991  41.475   0.969
 8722W        W75505  43.789  35.492   3.623
 8723W        W75506   7.939  31.143   4.528
 8724W        W75507  32.233  14.872  13.378
 8725W        W75508  15.109  29.935   2.815
 8726W        W75509  44.272  15.682   1.788
 8727W        W75510  15.733  30.008   4.071
 8728W        W75511  25.739  17.806  13.019
 8729W        W75512  22.669  25.251  11.596
 8730W        W75513  20.882  16.672   4.067
 8731W        W75514  28.918  23.332   2.212
 8732W        W75515  42.254  14.212  13.736
 8733W        W75516  26.751  31.714  12.069
 8734W        W75517  40.907  13.672   0.509
 8735W        W75518  13.883  39.914   1.965
 8736W        W75519  13.807   7.015  12.574
 8737W        W75520  34.986  22.964   4.548
 8738W        W75521  39.881  25.430  14.240
 8739W        W75522   0.230   3.761  14.796
 8740W        W75523  21.746  30.049  11.951
 8741W        W75524   6.438  35.080  11.527
 8742W        W75525  21.671  29.022  13.939
 8743W        W75526  17.295  18.509   1.120
 8744W        W75527  18.318  33.458  12.617
 8745W        W75528  42.316   0.241   3.699
 8746W        W75529  38.039  34.913  13.110
 8747W        W75530   7.655  38.748  14.071
 8748W        W75531  30.080  42.026   0.240
 8749W        W75532   2.059   2.720   4.669
 8750W        W75533  22.861  27.298  13.531
 8751W        W75534  12.209  20.736   2.451
 8752W        W75535  13.085  22.731  14.852
 8753W        W75536  14.825  14.860   0.443
 8754W        W75537  33.065  40.066  10.411
 8755W        W75538  21.004  14.217  11.940
 8756W        W75539  30.925  35.593   2.358
 8757W        W75540  14.086  11.636  10.642
 8758W        W75541  35.871  36.415  14.488
 8759W        W75542  10.599  15.090  10.607
 8760W        W75543  18.053   3.834   4.826
 8761W        W75544  38.153   5.726  12.452
 8762W        W75545  36.312  35.878   1.339
 8763W        W75546  41.417  29.247   4.868
 8764W        W75547  13.821   5.784  11.237
 8765W        W75548  19.919   6.796  11.644
 8766W        W75549  31.673  20.793   2.448
 8767W        W75550   7.310  44.028   1.086
 8768W        W75551  22.286  12.245   1.351
 8769W        W75552   4.478  16.364  13.504
 8770W        W75553  39.085   6.772  13.571
 8771W        W75554  39.313  41.314  14.872
 8772W        W75555  31.104   0.703  11.136
 8773W        W75556  14.083  12.103   3.339
 8774W        W75557  30.514   3.920   1.373
 8775W        W75558  29.094  16.789  13.459
 8776W        W75559  39.461  22.251   4.455
 8777W        W75560  40.883   6.480   2.585
 8778W        W75561  11.208  41.810   2.728
 8779W        W75562   7.948  23.744  14.731
 8780W        W75563  23.755  42.414   2.138
 8781W        W75564  30.055  39.395   1.094
 8782W        W75565   5.361  13.242  12.856
 8783W        W75566  41.032  41.031  14.837
 8784W        W75567   8.785  42.203   4.129
 8785W        W75568  35.717  40.530   0.437
 8786W        W75569  13.512  21.208  14.597
 8787W        W75570  43.485  35.082   1.291
 8788W        W75571  38.490  32.523  11.937
 8789W        W75572  40.997  37.281   1.470
 8790W        W75573  21.746  36.387   1.834
 8791W        W75574  28.037   9.427   3.696
 8792W        W75575  11.837  16.171  11.429
 8793W        W75576   4.918  28.039   3.998
 8794W        W75577  26.668  12.155   0.764
 8795W        W75578  30.533  31.801   3.620
 8796W        W75579  44.880  33.510  13.410
 8797W        W75580  18.600  44.906  14.957
 8798W        W75581  31.550  37.839   2.320
 8799W        W75582  37.092   0.494   2.272
 8800W        W75583  32.940  14.572  11.942
 8801W        W75584   5.970  24.473  14.299
 8802W        W75585  27.165  13.328   4.604
 8803W        W75586  24.551  38.220   3.418
 8804W        W75587  28.061  15.174   0.952
 8805W        W75588  26.692  19.667  11.929
 8806W        W75589  23.117  43.832  11.043
 8807W        W75590  24.631  39.055  11.679
 8808W        W75591  40.407  41.855  11.517
 8809W        W75592   4.096   1.420   2.306
 8810W        W75593  16.364  25.678   1.363
 8811W        W75594  36.546  29.227  10.955
 8812W        W75595  27.730  13.710   1.365
 8813W        W75596  11.916  27.916   4.496
 8814W        W75597  39.093  12.265  13.232
 8815W        W75598  38.366  33.528   1.245
 8816W        W75599  14.511  13.762   4.947
 8817W        W75600  21.968  40.559   3.640
 8818W        W75601  23.127   9.838  11.666
 8819W        W75602  36.119  35.457   3.159
 8820W        W75603  19.555  44.589   3.310
 8821W        W75604  41.300  41.007   4.558
 8822W        W75605  43.799  27.775  12.055
 8823W        W75606  13.408   5.431  11.614
 8824W        W75607  37.098  24.559   0.316
 8825W        W75608  40.376   2.272   4.495
 8826W        W75609  21.902  10.115   4.949
 8827W        W75610   1.079  31.108  11.885
 8828W        W75611  25.337  17.231  12.466
 8829W        W75612   2.813  32.382   2.801
 8830W        W75613   0.196  32.883   4.143
 8831W        W75614   0.148  43.479   2.865
 8832W        W75615  37.354  36.764   0.150
 8833W        W75616  16.358  16.696  13.952
 8834W        W75617  23.961  18.159  11.086
 8835W        W75618   4.488  29.562  12.133
 8836W        W75619  44.726  20.775  11.960
 8837W        W75620  22.535  42.325   4.647
 8838W        W75621  33.328  34.837  13.611
 8839W        W75622  26.225  20.547   3.696
 8840W        W75623  22.244   4.269  12.071
 8841W        W75624  16.168  21.223   1.710
 8842W        W75625  13.036  19.759   4.547
 8843W        W75626   9.689  32.354  10.870
 8844W        W75627  44.617   7.875  11.486
 8845W        W75628  33.498  38.932  10.282
 8846W        W75629  18.492  39.853  11.632
 8847W        W75630  31.549   9.395  11.592
 8848W        W75631  26.738  13.861   2.788
 8849W        W75632  10.753  16.617   3.336
 8850W        W75633  29.501  21.859   0.267
 8851W        W75634  10.686  12.239   3.835
 8852W        W75635  37.616  35.639  12.821
 8853W        W75636   4.954   9.533   1.810
 8854W        W75637  24.964  19.658   0.985
 8855W        W75638  24.973  40.901   3.505
 8856W        W75639  37.471  11.208   3.076
 8857W        W75640  23.420  22.271   9.936
 8858W        W75641   1.083  25.724   1.261
 8859W        W75642  11.237  29.936  10.647
 8860W        W75643  33.897  44.474  12.260
 8861W        W75644  15.407  21.706  11.113
 8862W        W75645  18.594  15.094   1.006
 8863W        W75646  43.391  42.553   4.149
 8864W        W75647  38.095  16.138   1.253
 8865W        W75648  13.428   6.996  11.047
 8866W        W75649   7.294  25.160  13.433
 8867W        W75650  35.447   8.144   2.140
 8868W        W75651  38.328  25.913  14.258
 8869W        W75652  41.043  27.512   2.207
 8870W        W75653   9.154  16.268  12.923
 8871W        W75654  16.814   0.566   1.254
 8872W        W75655  40.258   9.199   4.073
 8873W        W75656  23.371   4.878  12.495
 8874W        W75657  18.565  16.703   3.444
 8875W        W75658  12.058  31.581  11.886
 8876W        W75659  13.308  10.077  11.003
 8877W        W75660  10.369  40.788   3.600
 8878W        W75661  22.647  40.959   3.766
 8879W        W75662  35.557   8.388   2.886
 8880W        W75663  28.159  35.784   4.096
 8881W        W75664  28.210  11.747   1.287
 8882W        W75665  40.038  11.627  14.227
 8883W        W75666  27.639  32.533  13.400
 8884W        W75667  18.175  37.546  11.123
 8885W        W75668  12.993  26.099  14.325
 8886W        W75669  22.149   4.019  14.292
 8887W        W75670   9.637  37.936   4.554
 8888W        W75671  34.368  24.586   4.741
 8889W        W75672  21.235  20.023   1.787
 8890W        W75673  33.948   5.922   2.640
 8891W        W75674  17.799  12.145  11.608
 8892W        W75675  22.564  44.270   0.253
 8893W        W75676  23.538   6.139  10.479
 8894W        W75677   0.484  34.377   4.528
 8895W        W75678  21.147  37.551   0.809
 8896W        W75679  39.297  19.277   1.364
 8897W        W75680  13.294  30.981  14.923
 8898W        W75681  16.333   3.917  13.614
 8899W        W75682   3.359  37.662   0.541
 8900W        W75683   4.835   0.193  10.544
 8901W        W75684   8.113  13.629  12.421
 8902W        W75685  17.585  37.889   0.521
 8903W        W75686   3.571  11.124   0.149
 8904W        W75687  18.141  26.152   1.493
 8905W        W75688  39.069  11.706   4.534
 8906W        W75689  28.616  25.553   2.088
 8907W        W75690  32.488  41.007  13.859
 8908W        W75691  27.396  44.520  11.544
 8909W        W75692  37.549  19.173  14.040
 8910W        W75693   9.004  30.669   1.141
 8911W        W75694  20.493  40.099   2.654
 8912W        W75695  38.972  13.439  11.900
 8913W        W75696  35.569  39.879   3.654
 8914W        W75697  16.615   7.838   4.679
 8915W        W75698  39.953   2.475  13.243
 8916W        W75699  20.504  42.896  13.055
 8917W        W75700  32.616  33.622   0.526
 8918W        W75701   8.818   7.260  12.883
 8919W        W75702   3.982  27.759   0.674
 8920W        W75703  24.450  15.450   1.786
 8921W        W75704  34.022  28.981  11.699
 8922W        W75705  33.363  12.477  11.570
 8923W        W75706  33.456  31.555  12.371
 8924W        W75707   8.598  25.969  12.012
 8925W        W75708  27.016  22.292   4.947
 8926W        W75709  29.040  11.207   1.471
 8927W        W75710  17.124  31.589   1.423
 8928W        W75711  34.878  15.527  14.755
 8929W        W75712  39.308  32.583  13.161
 8930W        W75713  21.019  19.493   1.375
 8931W        W75714  27.781  31.669   1.273
 8932W        W75715  22.331  43.799   4.761
 8933W        W75716  42.100  21.482  10.608
 8934W        W75717   5.697  28.906  14.715
 8935W        W75718  16.850  34.990  12.241
 8936W        W75719  21.750   2.214   2.681
 8937W        W75720   3.414  38.868  13.585
 8938W        W75721  14.869  24.494   2.337
 8939W        W75722  37.470   0.200   1.488
 8940W        W75723  32.852  39.068  11.990
 8941W        W75724  20.250   6.778  11.223
 8942W        W75725  21.042  10.233  11.470
 8943W        W75726  19.790   0.765   0.891
 8944W        W75727  14.139  19.092  14.034
 8945W        W75728  38.043   9.621  11.098
 8946W        W75729  21.737  30.549  11.594
 8947W        W75730  19.449  25.025   3.845
 8948W        W75731  41.546   9.580   3.848
 8949W        W75732  44.455   6.973  11.683
 8950W        W75733  32.287  42.939  10.204
 8951W        W75734  29.571  36.552   3.212
 8952W        W75735  20.538  36.432  10.710
 8953W        W75736  30.654  37.542   4.618
 8954W        W75737  38.048   9.345  14.508
 8955W        W75738  41.256  42.365   0.827
 8956W        W75739  26.188  21.026  13.847
 8957W        W75740  38.668   7.128  10.054
 8958W        W75741   9.615  21.653  14.222
 8959W        W75742  12.392  22.987   0.344
 8960W        W75743  22.100   9.729   4.666
 8961W        W75744  30.954  13.662   3.415
 8962W        W75745   7.187   1.223  12.878
 8963W        W75746   0.814  41.363  12.938
 8964W        W75747  42.348  26.638   3.367
 8965W        W75748   9.392  22.656   4.687
 8966W        W75749   3.731  29.193   3.386
 8967W        W75750  44.729   8.385   0.772
 8968W        W75751  12.130  34.365   0.843
 8969W        W75752  13.440  33.595  13.964
 8970W        W75753  24.072  37.465   3.711
 8971W        W75754  14.280  22.997  14.240
 8972W        W75755  11.028  36.882  12.866
 8973W        W75756   0.853  41.488  12.129
 8974W        W75757   0.731  32.183   1.294
 8975W        W75758  22.459   7.808   0.704
 8976W        W75759  28.067  30.472   4.926
 8977W        W75760   4.807   3.218   0.924
 8978W        W75761  43.299  34.913  14.919
 8979W        W75762  31.145  36.335  14.935
 8980W        W75763  16.760  32.422  12.356
 8981W        W75764  17.521   5.287   0.003
 8982W        W75765  32.204  43.695   0.411
 8983W        W75766  11.238   2.323   4.276
 8984W        W75767  36.533  14.311  11.024
 8985W        W75768  42.972  27.836  13.962
 8986W        W75769  21.541  22.674   3.540
 8987W        W75770  23.540  20.843   2.297
 8988W        W75771  10.765  43.482  10.621
 8989W        W75772  17.690  21.499   0.269
 8990W        W75773  29.939  17.699  12.401
 8991W        W75774  17.956   3.746  12.221
 8992W        W75775  11.310  25.547  14.518
 8993W        W75776  42.190  28.156   1.282
 8994W        W75777  34.401  44.740  10.640
 8995W        W75778   4.021  13.239  13.426
 8996W        W75779  32.918  13.082   2.628
 8997W        W75780   7.442   4.820  11.563
 8998W        W75781  22.950  42.349   4.350
 8999W        W75782  36.646  33.348   2.736
 9000W        W75783  40.937  27.995  10.416
 9001W        W75784  19.751  39.051   4.935
 9002W        W75785  42.423  25.755  14.397
 9003W        W75786   8.272  13.190   3.759
 9004W        W75787  16.228  32.053  11.557
 9005W        W75788  18.043   8.403   4.621
 9006W        W75789  28.082  44.518   3.575
 9007W        W75790   9.884  33.002   3.702
 9008W        W75791  17.154  40.535   1.024
 9009W        W75792  32.944  20.253   2.619
 9010W        W75793  13.471  43.701  12.394
 9011W        W75794  11.329  32.857  10.644
 9012W        W75795  42.964  34.971   1.279
 9013W        W75796   4.455  44.528  13.312
 9014W        W75797   8.347  10.780  13.885
 9015W        W75798   4.560  26.514  12.095
 9016W        W75799   3.210  31.558  12.004
 9017W        W75800  23.847   3.831   3.702
 9018W        W75801  42.243  44.041   4.076
 9019W        W75802  39.574  33.195  13.906
 9020W        W75803   1.340  21.038   0.479
 9021W        W75804  10.615  38.021   4.160
 9022W        W75805  18.218  43.578   2.778
 9023W        W75806  18.241  34.205   0.473
 9024W        W75807  31.581  16.354  12.525
 9025W        W75808  17.419  25.452  10.684
 9026W        W75809  33.186   2.925   0.835
 9027W        W75810  40.844  23.308  14.008
 9028W        W75811  24.120  32.721   0.930
 9029W        W75812   8.670  30.489   3.297
 9030W        W75813   1.306  13.234   1.388
 9031W        W75814  43.264  10.353  14.377
 9032W        W75815  26.602  43.801   3.109
 9033W        W75816  18.403  25.377  10.490
 9034W        W75817  13.280  22.057  14.002
 9035W        W75818  33.266  28.927  12.143
 9036W        W75819  17.972   6.376   3.603
 9037W        W75820  28.902  11.128  12.836
 9038W        W75821   7.826  13.846  12.043
 9039W        W75822  44.499  36.952  11.080
 9040W        W75823  30.534  18.590   0.866
 9041W        W75824  24.187  42.740  12.812
 9042W        W75825  42.439  37.301   0.794
 9043W        W75826  33.234  15.603   1.383
 9044W        W75827  33.077  41.449   0.847
 9045W        W75828  28.773  12.357  14.522
 9046W        W75829  31.950  37.548   1.862
 9047W        W75830  42.029  21.230  14.573
 9048W        W75831  16.646  38.425   2.442
 9049W        W75832  11.120  14.322  13.044
 9050W        W75833  10.590  20.396  14.371
 9051W        W75834  43.949   9.382   3.230
 9052W        W75835   6.481   9.929  14.042
 9053W        W75836  25.800  31.347  11.197
 9054W        W75837   2.309  15.649  13.383
 9055W        W75838   0.687  27.072  11.276
 9056W        W75839  31.789  36.373  12.894
 9057W        W75840  22.964  12.225  12.483
 9058W        W75841  21.221  21.296  10.611
 9059W        W75842  17.310  36.267   3.275
 9060W        W75843  22.106  44.252   2.814
 9061W        W75844  20.162  21.360  13.413
 9062W        W75845  41.983  24.591  13.946
 9063W        W75846  25.098  32.064  14.680
 9064W        W75847  17.620  25.683  14.328
 9065W        W75848  13.240  42.521   2.566
 9066W        W75849   8.142  39.418   2.222
 9067W        W75850   8.924  16.250   3.360
 9068W        W75851  24.177  18.697   2.440
 9069W        W75852  10.154  23.990  11.155
 9070W        W75853  44.344   8.500  14.250
 9071W        W75854   4.204   4.646  14.201
 9072W        W75855  25.987  37.233  12.554
 9073W        W75856  31.372  19.254   1.908
 9074W        W75857  16.015  43.936  12.993
 9075W        W75858  35.323   7.267   2.173
 9076W        W75859  32.220   8.307  10.748
 9077W        W75860  17.139  32.841   2.332
 9078W        W75861  18.081  42.997   4.955
 9079W        W75862  20.514  24.971  12.854
 9080W        W75863  28.211  30.930  14.984
 9081W        W75864   8.888  12.107  13.159
 9082W        W75865   2.277  38.046  13.017
 9083W        W75866  10.598   1.911   0.030
 9084W        W75867   5.474  17.605  14.391
 9085W        W75868  36.294  14.395   2.451
 9086W        W75869  39.933  20.704   2.700
 9087W        W75870   7.670   5.330  11.947
 9088W        W75871  44.757   8.740   3.678
 9089W        W75872  21.299  41.500  12.309
 9090W        W75873  39.827  35.181  10.739
 9091W        W75874  33.508  14.767   2.451
 9092W        W75875   6.957  25.218   3.170
 9093W        W75876  23.524  26.723  11.865
 9094W        W75877   6.978   9.320  10.636
 9095W        W75878  15.081  24.728   0.418
 9096W        W75879   9.379  14.214   2.548
 9097W        W75880   8.708   6.838   0.301
 9098W        W75881   4.834  34.518  10.551
 9099W        W75882  21.258   5.934   3.728
 9100W        W75883   0.064   0.249   0.780
 9101W        W75884  43.242  42.099   1.339
 9102W        W75885  30.537  16.245   4.316
 9103W        W75886  32.213  38.857  14.866
 9104W        W75887  30.134  17.599  10.571
 9105W        W75888  41.118  44.800   3.265
 9106W        W75889  19.087  38.508  11.240
 9107W        W75890  37.992  43.992  14.788
 9108W        W75891   4.121  17.965  13.130
 9109W        W75892  29.390  26.716  13.529
 9110W        W75893  20.134  36.809   4.244
 9111W        W75894   0.686  17.830   1.109
 9112W        W75895  24.923  33.617   2.696
 9113W        W75896   6.894   8.397   0.079
 9114W        W75897  28.240  28.503  12.083
 9115W        W75898  42.574   2.465   2.109
 9116W        W75899  33.880  17.623   4.763
 9117W        W75900  11.225  12.784   2.153
 9118W        W75901  38.289  33.135   0.924
 9119W        W75902  40.477  30.350  13.964
 9120W        W75903   7.365  19.510  13.786
 9121W        W75904   5.465  38.501  14.041
 9122W        W75905  15.278  25.624   3.689
 9123W        W75906  35.251  41.980  12.939
 9124W        W75907  28.154  16.186  10.525
 9125W        W75908  15.474  28.018   1.418
 9126W        W75909  11.256  36.919   0.189
 9127W        W75910   1.988  40.523  11.140
 9128W        W75911  24.171  41.374  11.308
 9129W        W75912   2.395   6.507   4.751
 9130W        W75913  28.763  20.489  12.202
 9131W        W75914   3.995  43.347  12.867
 9132W        W75915  26.927  10.510  14.385
 9133W        W75916   9.781  27.191   4.164
 9134W        W75917  30.198  13.271  13.898
 9135W        W75918   6.049  18.101   2.662
 9136W        W75919  43.216  17.705   0.243
 9137W        W75920  15.886   5.855   4.254
 9138W        W75921  24.922  33.138  14.949
 9139W        W75922  33.436  25.429   4.095
 9140W        W75923  17.276  16.674  14.776
 9141W        W75924  25.417  37.308   2.052
 9142W        W75925  40.288  22.279   1.819
 9143W        W75926  31.180  20.968   0.403
 9144W        W75927  10.574  28.326   0.896
 9145W        W75928   6.447  42.551  13.052
 9146W        W75929  32.007  11.161   2.687
 9147W        W75930  29.122   1.218   1.556
 9148W        W75931  35.965  32.022   3.861
 9149W        W75932  16.547  11.107  10.721
 9150W        W75933  40.943  41.072  11.539
 9151W        W75934   1.261   6.227  10.699
 9152W        W75935  10.337  21.126  13.274
 9153W        W75936  41.759  23.494   4.526
 9154W        W75937  12.595   8.811  11.338
 9155W        W75938  15.061  15.858  11.984
 9156W        W75939  20.327  10.449  12.946
 9157W        W75940  15.652  19.775   0.777
 9158W        W75941   4.337   0.581   2.664
 9159W        W75942  32.720  34.471   0.826
 9160W        W75943  18.079  44.014   3.622
 9161W        W75944  33.500  31.946  10.614
 9162W        W75945   8.263  41.467   2.965
 9163W        W75946  18.937   1.395   2.705
 9164W        W75947   2.260  34.169   1.818
 9165W        W75948   8.774  42.451  14.111
 9166W        W75949  29.547  28.401  10.643
 9167W        W75950  17.030  28.469   1.830
 9168W        W75951  36.788   8.259   0.094
 9169W        W75952  15.728  25.036  12.550
 9170W        W75953  32.845  41.215   1.273
 9171W        W75954  41.499  40.340   0.764
 9172W        W75955  36.267  22.752   0.281
 9173W        W75956  31.939  32.358   1.520
 9174W        W75957  36.914  35.362   4.636
 9175W        W75958   6.139   3.319  11.177
 9176W        W75959  44.422  28.141   5.080
 9177W        W75960  31.425  35.522  12.439
 9178W        W75961   6.803  12.655  11.565
 9179W        W75962  27.678   7.321   2.375
 9180W        W75963  14.417  20.722   4.702
 9181W        W75964   3.402  35.177   3.176
 9182W        W75965   5.927  33.567   0.060
 9183W        W75966   6.953  17.584   1.925
 9184W        W75967  26.971   4.211  14.329
 9185W        W75968  31.860  41.065   1.765
 9186W        W75969  14.632  27.359  14.927
 9187W        W75970  37.893  35.425   1.166
 9188W        W75971  23.713  31.486  14.522
 9189W        W75972  10.343  36.254   2.699
 9190W        W75973  42.850   1.877  12.852
 9191W        W75974  11.252   4.580   0.451
 9192W        W75975  20.561  35.118  12.784
 9193W        W75976   7.290  43.563  10.525
 9194W        W75977  36.440  12.813   4.533
 9195W        W75978   5.364  40.581   3.670
 9196W        W75979  20.989  35.101  13.136
 9197W        W75980  40.455   2.998  10.657
 9198W        W75981  29.611  38.830   3.684
 9199W        W75982  44.840  15.124   3.676
 9200W        W75983   6.174  36.088  14.358
 9201W        W75984  37.903  11.769  11.129
 9202W        W75985   7.170   8.716  14.475
 9203W        W75986  30.418  41.448   2.933
 9204W        W75987  25.347  18.745   0.047
 9205W        W75988  19.921  25.121   0.879
 9206W        W75989   0.316  37.838   4.504
 9207W        W75990   6.080  26.616  11.746
 9208W        W75991  42.457   9.328  14.779
 9209W        W75992   3.835   4.329   4.680
 9210W        W75993  22.990   5.749   4.159
 9211W        W75994  42.074  25.186   2.362
 9212W        W75995  19.116  30.561  13.397
 9213W        W75996  35.587  23.533  12.077
 9214W        W75997  27.992  14.557  11.538
 9215W        W75998  43.861  28.515  13.899
 9216W        W75999  29.611  44.114   5.036
 9217W        W76000  21.105  38.296  14.455
 9218W        W76001   9.243  43.375  10.986
 9219W        W76002  18.736  17.667  10.615
 9220W        W76003   9.749  39.406   2.753
 9221W        W76004   3.697  16.548   2.709
 9222W        W76005  43.045   3.618  14.877
 9223W        W76006  36.037   5.719  11.050
 9224W        W76007  35.438  17.651   4.029
 9225W        W76008  29.103  22.193   3.089
 9226W        W76009  25.101  41.236   3.095
 9227W        W76010  36.440  26.381   2.136
 9228W        W76011  12.788  29.219   4.694
 9229W        W76012  15.531  25.074   4.539
 9230W        W76013  38.322  12.658  14.809
 9231W        W76014  33.271  25.974  13.860
 9232W        W76015  23.619  29.155  13.485
 9233W        W76016  44.072  39.896  12.388
 9234W        W76017  10.363  12.182   2.120
 9235W        W76018  43.723  25.256  10.832
 9236W        W76019  32.804   4.338  11.557
 9237W        W76020  40.341  19.185   2.405
 9238W        W76021  37.126   1.263  13.668
 9239W        W76022  17.169  19.454  10.346
 9240W        W76023   0.587  24.267  13.369
 9241W        W76024   2.746   5.788   2.001
 9242W        W76025  38.825  38.811  14.258
 9243W        W76026  35.096  21.330   1.824
 9244W        W76027   0.084  35.213   3.126
 9245W        W76028  29.648   5.470  14.527
 9246W        W76029  24.019   6.675   3.686
 9247W        W76030   4.244  37.943   0.192
 9248W        W76031  26.458  23.236   0.251
 9249W        W76032   9.283   1.947  10.656
 9250W        W76033  23.012  14.532   2.858
 9251W        W76034  19.247  42.703   0.053
 9252W        W76035  14.692  29.444  14.487
 9253W        W76036  44.933   3.957   4.944
 9254W        W76037   2.131  25.830  11.203
 9255W        W76038  40.878  38.777  12.034
 9256W        W76039  14.029  33.380  12.678
 9257W        W76040   6.022  27.228  12.584
 9258W        W76041   7.885  21.596  11.522
 9259W        W76042  40.984  39.660  13.199
 9260W        W76043  39.521  19.000  14.354
 9261W        W76044  15.104   8.279   4.599
 9262W        W76045  36.117   0.736   0.682
 9263W        W76046   3.919  28.945   2.681
 9264W        W76047  24.736  12.284  14.773
 9265W        W76048  10.133  43.921  14.778
 9266W        W76049  40.475  26.528  10.410
 9267W        W76050  23.980   2.902  12.546
 9268W        W76051  26.728  16.762   1.453
 9269W        W76052  28.419  42.404  13.963
 9270W        W76053  15.785  42.350   3.746
 9271W        W76054   7.716  29.030   0.528
 9272W        W76055  13.229  33.682  12.075
 9273W        W76056   7.663   5.829  12.546
 9274W        W76057  20.005  17.513   4.580
 9275W        W76058  21.262  14.236  12.954
 9276W        W76059  17.237  35.287  12.022
 9277W        W76060  13.442  26.052  11.127
 9278W        W76061  12.282   4.448  11.593
 9279W        W76062   0.305  19.192   1.890
 9280W        W76063  31.465  34.014   4.769
 9281W        W76064   3.703  14.103  12.369
 9282W        W76065  40.010  40.211  11.509
 9283W        W76066  38.621  31.657   1.355
 9284W        W76067  16.092  39.501   2.861
 9285W        W76068  16.581  41.066   4.167
 9286W        W76069  35.651  38.574  12.944
 9287W        W76070  18.807  25.972   1.752
 9288W        W76071  44.792  17.745  11.543
 9289W        W76072  38.372  29.653  12.591
 9290W        W76073  15.777  22.326  10.298
 9291W        W76074  40.265  36.090  14.875
 9292W        W76075  15.736   3.813  11.396
 9293W        W76076  39.789  41.465   2.330
 9294W        W76077   4.716  13.599   2.679
 9295W        W76078  21.072  13.361   1.322
 9296W        W76079  42.048  43.229   3.885
 9297W        W76080  16.312  22.603   3.329
 9298W        W76081  39.566  17.180   3.871
 9299W        W76082  14.830  29.026  11.608
 9300W        W76083   8.078  38.745  11.076
 9301W        W76084  26.748  32.876   5.116
 9302W        W76085   3.320  34.608  13.280
 9303W        W76086  35.969  13.739  14.747
 9304W        W76087  19.567  38.950   1.727
 9305W        W76088  22.763   6.418  11.165
 9306W        W76089  23.509  14.610  11.316
 9307W        W76090  39.100  31.034   4.101
 9308W        W76091  12.191  29.160   4.092
 9309W        W76092  28.941  16.692   4.402
 9310W        W76093  39.922  26.725  13.479
 9311W        W76094  35.860  41.312   1.498
 9312W        W76095   5.992  40.937  14.771
 9313W        W76096  18.306  30.944   0.792
 9314W        W76097  39.877  19.503   1.417
 9315W        W76098  31.505  31.928  14.433
 9316W        W76099  35.379  41.907   0.452
 9317W        W76100  28.397  27.649   9.993
 9318W        W76101  39.368   5.852   0.944
 9319W        W76102  38.546  21.100  12.850
 9320W        W76103  44.311  17.744   0.483
 9321W        W76104   7.823  37.374   1.328
 9322W        W76105  19.724  11.310   0.358
 9323W        W76106  20.211  41.213   3.224
 9324W        W76107   8.345  37.108   2.664
 9325W        W76108  33.166  29.718  11.139
 9326W        W76109  37.868  44.658   4.291
 9327W        W76110   6.173   2.435  12.874
 9328W        W76111  37.557  14.105  11.101
 9329W        W76112   5.711  37.362   1.749
 9330W        W76113  30.539   2.742  10.661
 9331W        W76114   9.125  35.538  12.501
 9332W        W76115  28.505  43.006   1.344
 9333W        W76116   6.659  40.480  11.378
 9334W        W76117   6.134  19.301   0.028
 9335W        W76118  13.121  24.768   4.234
 9336W        W76119   8.266   9.134   2.187
 9337W        W76120  10.250   9.718   2.310
 9338W        W76121  25.177  44.727   0.882
 9339W        W76122  35.383   0.278   3.619
 9340W        W76123  26.989  18.471  10.575
 9341W        W76124  31.265   5.480  13.467
 9342W        W76125  39.987  38.413   2.761
 9343W        W76126  37.908  44.189   0.751
 9344W        W76127  41.211  33.016   3.177
 9345W        W76128  40.565  40.755  14.665
 9346W        W76129   3.385  41.318  14.345
 9347W        W76130  38.061   0.542  11.877
 9348W        W76131  35.638  38.595   0.946
 9349W        W76132   9.338  26.569   2.208
 9350W        W76133  24.959  20.738   1.393
 9351W        W76134  27.561  11.938  13.012
 9352W        W76135  43.779  32.611   3.265
 9353W        W76136  24.709  17.992  10.661
 9354W        W76137  24.968  18.421  14.910
 9355W        W76138   5.931  39.363  12.964
 9356W        W76139  41.883  30.755  12.423
 9357W        W76140  32.967  30.197  13.082
 9358W        W76141  10.725  10.586   2.321
 9359W        W76142  32.422  16.702   3.296
 9360W        W76143  11.271  11.645   0.281
 9361W        W76144  41.919  27.396  13.822
 9362W        W76145  24.449  24.492  11.122
 9363W        W76146  15.652   0.974   2.322
 9364W        W76147  16.110  44.377   0.548
 9365W        W76148  44.900  32.125   0.458
 9366W        W76149   4.301  24.021   2.247
 9367W        W76150   1.363  37.062  12.004
 9368W        W76151  34.429  27.236   4.190
 9369W        W76152  40.036  27.561  14.565
 9370W        W76153  25.643   4.337   2.383
 9371W        W76154  35.409  38.498   2.907
 9372W        W76155  18.312  34.475   3.078
 9373W        W76156  35.844  34.302  13.621
 9374W        W76157   7.351  11.222  11.382
 9375W        W76158  30.574  31.615   4.563
 9376W        W76159   8.705   2.959  14.294
 9377W        W76160  18.612  30.159   0.325
 9378W        W76161  39.003  24.504  12.942
 9379W        W76162   0.430  27.419   3.588
 9380W        W76163   9.135   6.603   0.422
 9381W        W76164  37.551  23.757  12.682
 9382W        W76165  11.169  29.041   3.844
 9383W        W76166   0.937  15.715   0.228
 9384W        W76167   5.236  38.944  11.319
 9385W        W76168  40.606   2.749  12.416
 9386W        W76169  11.591  34.509  14.915
 9387W        W76170  37.288  20.019  12.575
 9388W        W76171   0.878  16.937  14.367
 9389W        W76172  17.343  29.173   0.624
 9390W        W76173  17.868   5.733   2.119
 9391W        W76174  28.951  28.608  13.561
 9392W        W76175  27.847   9.904   2.349
 9393W        W76176  44.194  35.076   2.783
 9394W        W76177  10.093  17.122  11.553
 9395W        W76178  25.620  44.383  11.408
 9396W        W76179  42.082  40.364  14.929
 9397W        W76180   2.335   3.815  13.389
 9398W        W76181  22.315  16.185   1.255
 9399W        W76182  10.407  38.319   3.307
 9400W        W76183  18.150   2.802   4.252
 9401W        W76184   4.414  42.076   0.390
 9402W        W76185  44.463  38.248  11.579
 9403W        W76186   0.931  13.702  10.639
 9404W        W76187  15.544   9.348  14.258
 9405W        W76188  13.162  21.420   0.742
 9406W        W76189  39.565  40.760   0.009
 9407W        W76190  29.961  37.847   3.787
 9408W        W76191  21.727  39.771  11.720
 9409W        W76192  15.649   0.402  12.937
 9410W        W76193  44.626  35.132   5.038
 9411W        W76194  31.568  40.900   1.323
 9412W        W76195   6.935  35.908  11.491
 9413W        W76196  14.604  13.313  10.695
 9414W        W76197  34.952  15.241   4.595
 9415W        W76198  25.018  15.671  10.608
 9416W        W76199  16.909  21.228  10.247
 9417W        W76200  21.885  40.536  12.012
 9418W        W76201  18.796  32.466  14.998
 9419W        W76202  36.549  34.792  11.203
 9420W        W76203  18.310   5.579  12.192
 9421W        W76204  23.720   3.947   0.247
 9422W        W76205  30.391   8.872  14.460
 9423W        W76206   8.492  35.900   4.554
 9424W        W76207  34.818  33.919   1.804
 9425W        W76208  33.521  31.124  14.513
 9426W        W76209  33.315  37.742  13.421
 9427W        W76210  33.289  43.452   3.235
 9428W        W76211  12.113  24.209   2.319
 9429W        W76212  44.575  10.201  11.579
 9430W        W76213   7.963   9.466  10.729
 9431W        W76214  22.645  31.140  13.119
 9432W        W76215  17.803  17.316  13.498
 9433W        W76216  37.963   9.348   3.988
 9434W        W76217  40.313   8.764   3.778
 9435W        W76218  44.768   3.242   4.281
 9436W        W76219  38.965  10.402   4.157
 9437W        W76220  10.947  30.153   3.092
 9438W        W76221  16.242  20.039   0.722
 9439W        W76222  11.687   6.101   3.182
 9440W        W76223   8.406  37.091   4.167
 9441W        W76224   8.608  14.594   2.769
 9442W        W76225  10.612  17.828   0.094
 9443W        W76226   2.294  26.216  14.363
 9444W        W76227  30.626  28.971   2.749
 9445W        W76228  32.481  28.405  11.149
 9446W        W76229  44.587  19.484  10.319
 9447W        W76230  39.158  16.647  10.050
 9448W        W76231  11.611  33.952   0.498
 9449W        W76232  14.847  41.027   3.719
 9450W        W76233  42.382  38.673  13.869
 9451W        W76234   6.933  19.100   2.774
 9452W        W76235  33.713  44.401  14.909
 9453W        W76236  28.549  37.007   2.490
 9454W        W76237  23.251  22.564  10.378
 9455W        W76238  35.922   8.383   5.085
 9456W        W76239  24.815   8.862   4.333
 9457W        W76240  40.089   8.964  10.294
 9458W        W76241  17.848  16.722  11.156
 9459W        W76242   1.778  23.885   0.154
 9460W        W76243  39.702  29.919  11.936
 9461W        W76244   3.447   8.129  14.275
 9462W        W76245   4.187  34.128  12.088
 9463W        W76246  10.751  18.667   4.061
 9464W        W76247  30.796   1.464   2.280
 9465W        W76248   6.057  31.336   4.659
 9466W        W76249  40.260  42.810  11.463
 9467W        W76250   7.216  32.113   3.218
 9468W        W76251   9.223  30.507   2.664
 9469W        W76252  11.421  37.097   1.410
 9470W        W76253  20.398  13.698   1.799
 9471W        W76254  32.555  34.014   3.365
 9472W        W76255  39.892  41.917  11.657
 9473W        W76256  44.037  42.336  12.563
 9474W        W76257   7.785  29.031   4.320
 9475W        W76258  38.656  13.837  12.005
 9476W        W76259  33.859  35.953  14.227
 9477W        W76260  39.840  38.053   4.749
 9478W        W76261  41.199  33.116  13.370
 9479W        W76262  25.022   2.750   2.698
 9480W        W76263  21.864  29.898   4.678
 9481W        W76264  26.060  32.126  14.008
 9482W        W76265  13.184  20.646   1.323
 9483W        W76266  42.229  41.407  12.535
 9484W        W76267   3.983   5.003   4.390
 9485W        W76268  32.501  32.059   4.575
 9486W        W76269  13.342  26.678  10.105
 9487W        W76270  22.450  42.965   1.475
 9488W        W76271  41.868  37.511  13.566
 9489W        W76272  13.256   1.284  13.326
 9490W        W76273  26.753  10.558   1.689
 9491W        W76274   0.061  11.367   0.830
 9492W        W76275   9.312  36.193  10.153
 9493W        W76276   3.470  42.014   2.297
 9494W        W76277   1.746   5.208  12.518
 9495W        W76278  43.473  24.254  12.048
 9496W        W76279  29.890   7.751   2.783
 9497W        W76280  18.214  24.414  10.616
 9498W        W76281   7.127  39.930  12.190
 9499W        W76282   0.754  40.602  11.002
 9500W        W76283   4.320  38.382   4.607
 9501W        W76284  41.946  29.854   2.270
 9502W        W76285  42.042  12.269   3.404
 9503W        W76286  17.634  17.612  12.135
 9504W        W76287  44.346  21.856   0.410
 9505W        W76288  39.526  37.236  13.026
 9506W        W76289  13.140   8.959   0.703
 9507W        W76290  21.668  18.793  14.316
 9508W        W76291  32.687  11.669  13.406
 9509W        W76292  32.926  26.258   1.780
 9510W        W76293  32.423  29.370  12.823
 9511W        W76294  29.428   2.253   2.742
 9512W        W76295  41.332  39.031   4.113
 9513W        W76296   4.281  25.616  10.793
 9514W        W76297  14.104  15.934   1.949
 9515W        W76298  36.905   0.814  12.280
 9516W        W76299  32.600  20.356  13.060
 9517W        W76300  29.775  20.024   5.152
 9518W        W76301  32.426  37.206  14.237
 9519W        W76302  19.168  26.788   0.689
 9520W        W76303   4.184  34.673  13.600
 9521W        W76304   9.895  41.956   0.358
 9522W        W76305   3.420  25.232   4.463
 9523W        W76306   1.800   9.642  14.471
 9524W        W76307  19.058   3.363   0.040
 9525W        W76308   9.056  41.661  11.820
 9526W        W76309   8.668   5.090  11.139
 9527W        W76310   8.219   2.167   4.311
 9528W        W76311  33.887  34.605  13.270
 9529W        W76312  42.210  33.644   4.548
 9530W        W76313  30.464  15.672   0.669
 9531W        W76314  14.373  44.934  10.472
 9532W        W76315   8.788   1.432   0.458
 9533W        W76316  16.991  36.380   0.593
 9534W        W76317  14.621  24.512  14.699
 9535W        W76318  17.560  12.775   0.403
 9536W        W76319   2.737  28.078  14.924
 9537W        W76320  13.181  12.012   3.620
 9538W        W76321  31.010  35.685   3.172
 9539W        W76322  32.911  14.879   2.712
 9540W        W76323  37.981  37.943   3.673
 9541W        W76324  35.359  43.079  11.078
 9542W        W76325  31.957   1.347  12.917
 9543W        W76326  30.136  28.573   0.421
 9544W        W76327  33.158   7.710   0.607
 9545W        W76328  16.294  35.464   3.151
 9546W        W76329  34.973   5.018  13.841
 9547W        W76330  37.034  37.257  12.850
 9548W        W76331  38.494  43.713   2.215
 9549W        W76332   9.359  32.959  13.916
 9550W        W76333  42.707  10.687   3.366
 9551W        W76334   2.901  17.061   4.274
 9552W        W76335  24.452  38.589   2.000
 9553W        W76336  35.464  21.549   1.348
 9554W        W76337  24.410  12.325   4.660
 9555W        W76338   5.721  36.013  10.806
 9556W        W76339  25.262  14.390   4.195
 9557W        W76340  13.123  15.617  13.806
 9558W        W76341  43.495   3.805  11.019
 9559W        W76342  38.950  43.971   3.476
 9560W        W76343   2.200  22.213  14.560
 9561W        W76344  32.474  15.297   3.387
 9562W        W76345  38.484  37.480  11.151
 9563W        W76346  37.563  35.815   2.687
 9564W        W76347  38.901   0.018  14.526
 9565W        W76348  36.606  43.651  14.856
 9566W        W76349   6.291  36.025  13.820
 9567W        W76350  38.840  17.263   0.908
 9568W        W76351  13.689  39.287  11.558
 9569W        W76352  13.342  14.611   4.899
 9570W        W76353  30.073   2.610   1.401
 9571W        W76354  29.029  19.883   3.156
 9572W        W76355  31.390   4.213   4.743
 9573W        W76356  13.684  43.055   1.827
 9574W        W76357  26.451  23.834   4.566
 9575W        W76358  22.697  21.514   3.482
 9576W        W76359  30.405  29.592  14.316
 9577W        W76360   1.326  32.644  12.982
 9578W        W76361  21.029   6.800   1.744
 9579W        W76362  30.154  36.585   4.680
 9580W        W76363  43.340  33.082  10.966
 9581W        W76364   4.682  44.228   5.093
 9582W        W76365  32.102   5.206  13.514
 9583W        W76366  30.681  43.286  14.868
 9584W        W76367   0.910  19.475  13.552
 9585W        W76368  10.354  31.836   1.690
 9586W        W76369  15.117  32.301  12.897
 9587W        W76370  39.907  29.933  14.249
 9588W        W76371  11.808  39.752  14.940
 9589W        W76372  41.389  40.943  13.751
 9590W        W76373   3.905  19.719  10.571
 9591W        W76374   1.328  28.254   3.219
 9592W        W76375  33.182  11.446   0.481
 9593W        W76376  32.118  21.821   0.475
 9594W        W76377  35.050  11.419  13.406
 9595W        W76378  25.736  34.316   4.094
 9596W        W76379  30.685  21.174  12.714
 9597W        W76380  19.952  38.458  10.713
 9598W        W76381  17.388  16.245   0.434
 9599W        W76382  44.876  12.159  13.426
 9600W        W76383  14.286  42.522   3.072
 9601W        W76384  17.313  33.380   1.735
 9602W        W76385  21.244  15.572  14.320
 9603W        W76386  37.570  37.780   0.350
 9604W        W76387  41.570  33.596  10.975
 9605W        W76388   9.787   2.350   0.537
 9606W        W76389   0.879  17.575   0.245
 9607W        W76390  12.915  32.356   2.276
 9608W        W76391  39.765  20.525  13.526
 9609W        W76392   2.873  33.048   3.265
 9610W        W76393  22.110  32.509  11.060
 9611W        W76394  38.956  25.111   2.841
 9612W        W76395  42.605  41.974   0.016
 9613W        W76396  16.811  16.791   0.512
 9614W        W76397  31.457   5.630  11.294
 9615W        W76398  20.620  27.992   0.742
 9616W        W76399  19.520  32.537   1.250
 9617W        W76400  23.067   0.958  12.050
 9618W        W76401  29.034  21.270   2.741
 9619W        W76402   2.759  27.687   0.983
 9620W        W76403  12.905  38.140  13.322
 9621W        W76404  39.714  16.593  12.019
 9622W        W76405  22.840  32.528  14.369
 9623W        W76406  12.607  25.598  12.644
 9624W        W76407  23.304  19.927   1.828
 9625W        W76408  29.093  14.210  12.250
 9626W        W76409  35.743   4.047   4.183
 9627W        W76410  19.325   2.353  11.449
 9628W        W76411  27.523  14.872  14.801
 9629W        W76412   9.723  36.308   3.241
 9630W        W76413  21.449  15.139   4.799
 9631W        W76414  37.987  29.243  11.148
 9632W        W76415  19.205  26.808   3.108
 9633W        W76416   6.840  11.774   3.623
 9634W        W76417   9.251  34.818  13.303
 9635W        W76418  13.874  27.629  12.396
 9636W        W76419  16.111  32.946  11.939
 9637W        W76420  29.906  21.095   0.714
 9638W        W76421  31.805  36.815   2.807
 9639W        W76422   8.906  32.899  11.184
 9640W        W76423  43.238  38.022   0.517
 9641W        W76424  36.313  27.216  12.709
 9642W        W76425  35.869  36.135  12.461
 9643W        W76426  31.049  44.225   1.995
 9644W        W76427  11.490   6.367  10.195
 9645W        W76428  41.428  30.444  13.138
 9646W        W76429  32.991   0.791  11.002
 9647W        W76430  21.656  25.926   1.423
 9648W        W76431  26.615  24.476   0.486
 9649W        W76432  43.540  23.915  11.214
 9650W        W76433  22.291  17.758  10.532
 9651W        W76434  27.366  17.132  11.633
 9652W        W76435  25.547  39.016   1.290
 9653W        W76436   2.410  34.647  12.762
 9654W        W76437  17.039  11.569  14.853
 9655W        W76438  29.677   2.791   0.735
 9656W        W76439   9.827  22.665   0.858
 9657W        W76440  16.056   0.988  12.502
 9658W        W76441  37.330  33.408  12.573
 9659W        W76442  13.626   7.452   1.882
 9660W        W76443  17.649  23.037   3.196
 9661W        W76444  23.280  43.448  11.890
 9662W        W76445  38.775   8.261  12.112
 9663W        W76446  27.647  35.133  10.448
 9664W        W76447  40.015  12.996   2.673
 9665W        W76448  12.850  14.736   0.397
 9666W        W76449  19.000  33.936  11.559
 9667W        W76450  36.162  17.449  11.751
 9668W        W76451  37.424  44.468  11.668
 9669W        W76452   7.140  36.955   1.679
 9670W        W76453  16.875  18.607   0.869
 9671W        W76454   3.898   4.275   0.661
 9672W        W76455  31.975  10.190   0.969
 9673W        W76456  27.107  18.106  14.840
 9674W        W76457  34.638   7.276  13.006
 9675W        W76458   3.083  12.825  14.013
 9676W        W76459  31.609  44.910  10.714
 9677W        W76460  28.176  39.439   5.017
 9678W        W76461   5.059  14.319  11.460
 9679W        W76462  30.191  16.669   1.677
 9680W        W76463  44.137  15.063  14.245
 9681W        W76464  40.468  38.537   1.322
 9682W        W76465  35.641  27.448   4.052
 9683W        W76466   2.427  25.382   4.282
 9684W        W76467  17.087  27.921   2.398
 9685W        W76468  24.022   7.661   2.702
 9686W        W76469  26.606   3.031   2.811
 9687W        W76470  10.973   8.679  14.347
 9688W        W76471  32.551  42.681  10.652
 9689W        W76472  15.806   3.801  12.405
 9690W        W76473  41.884  42.275  13.004
 9691W        W76474  12.240  35.808  13.805
 9692W        W76475  16.694  30.017   4.070
 9693W        W76476   0.476   4.499   3.608
 9694W        W76477  34.142  18.233   0.987
 9695W        W76478  19.142  44.271   2.262
 9696W        W76479   1.939  27.583   4.355
 9697W        W76480  30.543  17.630   4.387
 9698W        W76481   6.719  35.468   0.375
 9699W        W76482  19.557  29.283  11.085
 9700W        W76483  28.935  43.446  14.380
 9701W        W76484  23.647  39.623   2.500
 9702W        W76485  22.941  16.087  12.221
 9703W        W76486  19.083   5.083  10.631
 9704W        W76487  37.063  43.952   0.768
 9705W        W76488   8.638  36.986  14.279
 9706W        W76489  24.564  25.047  13.975
 9707W        W76490  28.965   0.546  14.486
 9708W        W76491  32.215   7.470   1.868
 9709W        W76492   5.546  20.582   4.043
 9710W        W76493  19.762  24.499  14.865
 9711W        W76494  35.612  32.468   2.169
 9712W        W76495  36.563  11.653  10.965
 9713W        W76496  24.390  29.775   4.936
 9714W        W76497  11.384  26.709  12.820
 9715W        W76498   6.858  14.801   2.184
 9716W        W76499   8.285  23.489   0.416
 9717W        W76500  22.160  30.389   2.293
 9718W        W76501  24.746  10.433   1.790
 9719W        W76502  16.092  22.687   1.743
 9720W        W76503  39.481  40.408  13.429
 9721W        W76504  30.469   7.037  14.993
 9722W        W76505  22.144  43.705   1.658
 9723W        W76506  15.477   9.815   0.510
 9724W        W76507  18.019  40.775  12.983
 9725W        W76508  28.394   4.288  12.046
 9726W        W76509   3.220  10.417   2.145
 9727W        W76510   3.945  25.260   4.282
 9728W        W76511  23.070  37.032  14.894
 9729W        W76512  23.481   4.004  12.572
 9730W        W76513  12.203  13.578   4.406
 9731W        W76514  11.635  30.090  14.532
 9732W        W76515  30.982  14.001  14.950
 9733W        W76516  24.009  24.563   3.854
 9734W        W76517  14.092  37.845   3.083
 9735W        W76518  40.795  20.963   3.628
 9736W        W76519  29.689   3.924  12.340
 9737W        W76520  10.620  11.355  14.999
 9738W        W76521  27.009  10.772   4.682
 9739W        W76522   8.077  39.667   2.791
 9740W        W76523  18.545  34.019  10.666
 9741W        W76524   0.506   7.307   3.280
 9742W        W76525  36.707  26.016   1.387
 9743W        W76526   5.295  25.716   2.421
 9744W        W76527  36.938  41.460   2.234
 9745W        W76528  25.106  35.842   1.661
 9746W        W76529  26.599  34.106  13.071
 9747W        W76530  27.110  36.579  13.483
 9748W        W76531  27.060  26.313  13.890
 9749W        W76532  44.016   4.717  13.936
 9750W        W76533  13.080  41.290  13.527
 9751W        W76534  35.343  34.563   1.562
 9752W        W76535   2.935  28.716  11.996
 9753W        W76536  26.495  31.282   2.562
 9754W        W76537   0.295  43.343   0.530
 9755W        W76538  31.939  14.110  14.822
 9756W        W76539  15.071  32.057  14.964
 9757W        W76540   8.307   1.856   4.739
 9758W        W76541   4.970  18.661   1.145
 9759W        W76542  16.710  39.294   3.716
 9760W        W76543  36.015  18.453  11.947
 9761W        W76544  35.398  39.024   4.204
 9762W        W76545  30.509  19.758   3.079
 9763W        W76546   7.811  25.752   3.796
 9764W        W76547  34.081   4.365   9.948
 9765W        W76548   9.828   3.638  13.059
 9766W        W76549  29.928  29.555  14.473
 9767W        W76550   6.218  30.606   2.464
 9768W        W76551  31.011  10.353   0.255
 9769W        W76552  24.172  10.781   1.276
 9770W        W76553  33.532  33.662   4.102
 9771W        W76554  36.883  24.120   0.474
 9772W        W76555  24.875   7.832  11.249
 9773W        W76556  42.188   8.475   3.512
 9774W        W76557   7.715  25.130   2.823
 9775W        W76558  31.413  32.539   0.240
 9776W        W76559  38.372   6.927  14.787
 9777W        W76560  32.642  38.907   4.171
 9778W        W76561   6.261  26.149  13.602
 9779W        W76562  30.132   0.192   3.203
 9780W        W76563   8.114  27.157   4.758
 9781W        W76564  15.782  40.082   0.024
 9782W        W76565  12.225  30.125  11.547
 9783W        W76566  29.042   2.311   4.121
 9784W        W76567  20.041  10.378  11.196
 9785W        W76568   2.110  24.570   0.693
 9786W        W76569   7.177  10.001   1.505
 9787W        W76570   2.203  29.637   1.300
 9788W        W76571  13.700  24.059  13.371
 9789W        W76572   4.912  36.879   0.930
 9790W        W76573   6.865   1.275   0.334
 9791W        W76574   8.814  38.459  13.389
 9792W        W76575  38.775  13.901   4.073
 9793W        W76576  13.123  25.037  11.534
 9794W        W76577  33.060  35.475   0.940
 9795W        W76578  43.452  29.622  13.118
 9796W        W76579  37.299  37.984   2.222
 9797W        W76580  35.935  33.547  10.570
 9798W        W76581   7.931  10.271  10.337
 9799W        W76582  42.542  10.519  12.915
 9800W        W76583  23.076  38.623   2.735
 9801W        W76584  14.112   6.124   1.211
 9802W        W76585  22.579  15.467  10.144
 9803W        W76586  24.313  37.459   2.748
 9804W        W76587  24.729  39.169   4.118
 9805W        W76588   3.327  40.081   1.014
 9806W        W76589  11.644  24.222   0.380
 9807W        W76590   3.256  19.133   3.276
 9808W        W76591  31.063  22.129  11.655
 9809W        W76592  34.793  41.599  11.315
 9810W        W76593  11.701  36.985  10.735
 9811W        W76594  42.901  41.546   3.163
 9812W        W76595   6.399  44.275   0.317
 9813W        W76596  23.737   1.835  12.481
 9814W        W76597  10.283  39.982   1.501
 9815W        W76598  10.739   9.957  14.897
 9816W        W76599  40.718  13.684   1.905
 9817W        W76600  44.337  10.308  11.134
 9818W        W76601   0.502   2.224  14.784
 9819W        W76602  40.426  17.142  10.589
 9820W        W76603  12.910   5.989  13.710
 9821W        W76604  31.410  24.626  12.630
 9822W        W76605   2.794  26.513   1.372
 9823W        W76606  25.974  41.631  11.160
 9824W        W76607   6.281  38.016   1.720
 9825W        W76608  34.582  35.484   3.293
 9826W        W76609  15.968  41.825  12.341
 9827W        W76610   3.262   9.285  14.881
 9828W        W76611  14.128  42.268   1.799
 9829W        W76612  24.570  22.917   1.295
 9830W        W76613   6.441  29.514   1.706
 9831W        W76614   5.886  16.136   3.005
 9832W        W76615   9.175   2.180   2.624
 9833W        W76616  24.653  26.303  12.888
 9834W        W76617  21.765  18.083  12.394
 9835W        W76618  44.092   4.961  13.470
 9836W        W76619  35.151  35.312   0.995
 9837W        W76620  11.150  31.899   2.122
 9838W        W76621   7.415  19.453  14.963
 9839W        W76622  43.537  35.443   2.655
 9840W        W76623  12.724  29.059  11.171
 9841W        W76624   0.365  38.609   1.788
 9842W        W76625  20.116  34.291   1.036
 9843W        W76626  33.654   4.135   4.516
 9844W        W76627   2.423  29.486  11.089
 9845W        W76628  23.456  24.691  13.511
 9846W        W76629  17.962  24.042   0.959
 9847W        W76630  42.252  25.655   3.284
 9848W        W76631  39.913  32.979  12.901
 9849W        W76632  18.030  10.189   4.408
 9850W        W76633   8.589  14.793   0.764
 9851W        W76634  11.260  41.695  10.551
 9852W        W76635  44.488   9.746   0.484
 9853W        W76636  27.390  11.846   3.282
 9854W        W76637  40.034  27.769   3.621
 9855W        W76638   9.143  41.823   4.143
 9856W        W76639  30.423   5.394   2.341
 9857W        W76640  39.834   4.789  14.140
 9858W        W76641  34.467  36.394   1.440
 9859W        W76642  34.397  34.844   3.288
 9860W        W76643   4.718   0.544   1.997
 9861W        W76644   8.241  24.492   3.194
 9862W        W76645  30.383  34.485  12.346
 9863W        W76646  17.898   1.420   2.565
 9864W        W76647  42.458  43.046   4.168
 9865W        W76648  16.344  28.509   4.179
 9866W        W76649  41.342  12.579   3.567
 9867W        W76650  15.287   2.909  10.547
 9868W        W76651   3.909  25.665   1.765
 9869W        W76652  34.880  37.845  10.725
 9870W        W76653  34.891  23.706   2.335
 9871W        W76654  27.758  36.340   3.331
 9872W        W76655   6.196  44.776   1.761
 9873W        W76656  29.712  39.836  11.684
 9874W        W76657   9.288   9.793  11.873
 9875W        W76658  33.405  35.119   0.826
 9876W        W76659  14.831  11.360  11.699
 9877W        W76660  39.454  39.021  12.503
 9878W        W76661  18.518  16.822  13.150
 9879W        W76662  21.089  30.573  14.389
 9880W        W76663   4.334  34.143   1.175
 9881W        W76664  22.194  28.827   2.306
 9882W        W76665  19.736  41.354   1.231
 9883W        W76666  23.652   3.432   1.784
 9884W        W76667  27.001  31.929   1.338
 9885W        W76668  12.675  40.662  14.311
 9886W        W76669  34.394  21.570  11.518
 9887W        W76670  11.156   8.660   0.425
 9888W        W76671  22.076  41.067   4.421
 9889W        W76672  28.218  43.386  12.574
 9890W        W76673  40.921   0.090   2.813
 9891W        W76674  14.310  34.065   3.776
 9892W        W76675  44.476  20.743  12.500
 9893W        W76676  15.330  17.990  14.220
 9894W        W76677  22.987  14.768   0.301
 9895W        W76678  37.968   7.702   3.261
 9896W        W76679  14.351  13.932  11.045
 9897W        W76680  12.683   9.312  14.530
 9898W        W76681  41.745  22.004   3.620
 9899W        W76682  15.827   7.866   0.343
 9900W        W76683  33.447  16.363   1.851
 9901W        W76684  32.093  42.523  10.461
 9902W        W76685   2.794  44.935   3.134
 9903W        W76686  31.176  26.087  14.953
 9904W        W76687  28.861  44.405   0.820
 9905W        W76688  12.389  28.669   2.287
 9906W        W76689  24.091  10.665  11.501
 9907W        W76690  20.538  38.302   0.314
 9908W        W76691  35.806  37.812  14.978
 9909W        W76692  35.460  40.090   0.595
 9910W        W76693  10.221  27.385  10.218
 9911W        W76694  28.369   4.182  13.907
 9912W        W76695   4.297  12.852   0.220
 9913W        W76696  23.127  15.243   3.518
 9914W        W76697  39.021  20.310  13.560
 9915W        W76698   4.348   1.931  11.454
 9916W        W76699  12.488   6.676  12.023
 9917W        W76700  10.719  40.828   0.685
 9918W        W76701  14.556  14.299   4.212
 9919W        W76702  25.395  41.869  11.096
 9920W        W76703  32.069  43.922   3.450
 9921W        W76704   1.891  20.579   4.253
 9922W        W76705  35.578  38.525  14.378
 9923W        W76706   2.793  31.327   1.764
 9924W        W76707   1.638  12.720  10.977
 9925W        W76708  25.686  37.081   0.669
 9926W        W76709  15.208  38.901  10.264
 9927W        W76710  31.990  31.864   1.308
 9928W        W76711  18.682   6.787  14.830
 9929W        W76712  34.665  21.236   2.885
 9930W        W76713   3.904  20.114  13.767
 9931W        W76714   7.711   9.789  10.397
 9932W        W76715  24.602  23.093   4.942
 9933W        W76716  33.111  20.283  14.682
 9934W        W76717   4.640   2.988   1.360
 9935W        W76718  30.717  34.466   2.948
 9936W        W76719   8.571  27.030   0.526
 9937W        W76720   8.673  12.328   3.679
 9938W        W76721   9.069  26.063  12.171
 9939W        W76722  37.616   7.375  11.089
 9940W        W76723  13.546  13.354  12.146
 9941W        W76724  11.736  25.646  12.378
 9942W        W76725  26.375  40.801  13.380
 9943W        W76726  32.106   1.922   3.283
 9944W        W76727  42.772  37.951  11.308
 9945W        W76728   4.244   6.962   2.324
 9946W        W76729  15.725   7.617  13.344
 9947W        W76730   0.720  36.899   3.779
 9948W        W76731   4.239   1.296  14.847
 9949W        W76732  11.337  17.570  13.411
 9950W        W76733  29.481   4.742   2.756
 9951W        W76734  27.186  13.849  12.209
 9952W        W76735  27.750  31.955   5.348
 9953W        W76736   7.031  38.323  12.921
 9954W        W76737  29.262   4.632   0.545
 9955W        W76738  43.600  43.052  12.628
 9956W        W76739  25.138   1.334   0.242
 9957W        W76740  19.263  22.587   1.932
 9958W        W76741  43.215  17.516  14.465
 9959W        W76742  31.871  22.660  12.932
 9960W        W76743  22.136  21.838   2.674
 9961W        W76744  18.247  13.725   3.716
 9962W        W76745  11.544   7.243  12.472
 9963W        W76746  32.598  22.404  10.748
 9964W        W76747  15.238  16.827   1.951
 9965W        W76748   6.653   7.948   0.168
 9966W        W76749  24.751  24.883  10.231
 9967W        W76750   9.604   6.381  12.037
 9968W        W76751  28.554  15.006   0.826
 9969W        W76752  17.180   8.441   0.365
 9970W        W76753  37.114  41.347  12.898
 9971W        W76754  18.765  28.695   4.057
 9972W        W76755  34.653  43.749   4.631
 9973W        W76756   9.442  21.720   2.324
 9974W        W76757  16.609  28.568  14.516
 9975W        W76758  21.057  13.280   2.384
 9976W        W76759  37.571  33.420  10.123
 9977W        W76760  30.677  41.149  14.124
 9978W        W76761  24.152   0.321   4.459
 9979W        W76762  23.542  28.019  11.545
 9980W        W76763  34.297  28.086   0.174
 9981W        W76764  17.558  30.709   3.633
 9982W        W76765  34.120  23.504   1.798
 9983W        W76766  33.979   4.652  10.817
 9984W        W76767  13.446  33.279  11.829
 9985W        W76768  12.894  24.974  14.751
 9986W        W76769  15.167  33.557   0.406
 9987W        W76770  20.821  21.293   1.477
 9988W        W76771  10.422  16.155   4.994
 9989W        W76772   3.496  17.080  12.034
 9990W        W76773  30.654  35.981  11.140
 9991W        W76774  38.498   0.846   3.062
 9992W        W76775  30.268   8.166  13.291
 9993W        W76776   1.771  10.993   0.914
 9994W        W76777  38.500  36.106   1.278
 9995W        W76778  44.767   3.798  14.536
 9996W        W76779  17.098  10.902  13.541
 9997W        W76780  22.499  26.913   0.269
 9998W        W76781  29.321  17.969   1.099
 9999W        W76782  39.338   6.991  12.653
10000W        W76783  10.655  24.039  13.692
10001W        W76784   4.078  30.198  10.781
10002W        W76785  24.394  35.896  12.409
10003W        W76786  40.279   0.338  12.394
10004W        W76787  19.466  33.784  14.762
10005W        W76788  34.070   0.440   4.046
10006W        W76789  14.800  35.305   5.347
10007W        W76790  36.498  14.427  11.526
10008W        W76791  44.337  25.936   0.366
10009W        W76792   0.292  24.047   2.398
10010W        W76793  22.492  16.095   1.865
10011W        W76794  36.330  18.210   2.738
10012W        W76795  12.717  11.452  13.290
10013W        W76796  18.862  26.206   2.229
10014W        W76797  38.817   3.965   4.033
10015W        W76798  18.542  42.968  13.769
10016W        W76799  30.525  16.418  11.656
10017W        W76800  17.775  13.225   2.341
10018W        W76801  15.785   0.034  11.307
10019W        W76802  27.440   4.469   2.166
10020W        W76803  31.565  29.612   4.524
10021W        W76804  12.824  29.174   0.758
10022W        W76805   2.746  15.109   2.335
10023W        W76806  17.321   7.934   0.447
10024W        W76807  18.527  30.883   3.623
10025W        W76808  36.930  41.467  14.437
10026W        W76809  20.951  30.199  11.531
10027W        W76810  20.626  29.435  12.516
10028W        W76811  34.119  40.897   0.215
10029W        W76812  11.646   1.847  14.746
10030W        W76813  27.934   0.322  13.403
10031W        W76814  27.911   5.166   0.559
10032W        W76815  35.819  12.220  13.058
10033W        W76816  28.515  39.938   3.203
10034W        W76817  15.485  44.356  11.898
10035W        W76818  34.367  12.840   4.219
10036W        W76819  35.204   1.969  12.052
10037W        W76820   2.748  27.127  10.631
10038W        W76821  14.329  30.098  14.977
10039W        W76822  32.484  16.274  13.574
10040W        W76823  31.520  15.776   4.782
10041W        W76824   3.507  27.803  14.332
10042W        W76825  16.655  11.204   1.365
10043W        W76826  22.109  25.559  13.136
10044W        W76827   2.604  13.866  12.457
10045W        W76828  15.273  43.549   2.584
10046W        W76829  16.847  26.752  10.216
10047W        W76830  10.294  13.117   0.571
10048W        W76831  15.740  37.944  13.169
10049W        W76832  26.737  39.116  14.827
10050W        W76833  29.337  37.524  13.479
10051W        W76834   6.288   5.295  11.397
10052W        W76835  30.480  40.893  12.126
10053W        W76836   8.004   5.367   2.807
10054W        W76837  22.198   1.808   0.670
10055W        W76838  43.135   3.583   3.880
10056W        W76839  10.899  36.032   0.743
10057W        W76840  16.501   4.276  12.427
10058W        W76841  42.598  18.773  14.927
10059W        W76842  28.526  20.973   0.049
10060W        W76843  42.058   9.714   2.187
10061W        W76844  31.408  17.305   2.829
10062W        W76845  19.324  32.855  13.412
10063W        W76846   0.462  25.500   3.801
10064W        W76847  40.096  26.697  14.844
10065W        W76848  35.159   3.478   4.644
10066W        W76849  10.656  36.772   3.600
10067W        W76850   4.446  38.949   1.955
10068W        W76851   0.396  18.173  13.419
10069W        W76852  26.509  25.593  12.116
10070W        W76853  13.754  33.110  14.397
10071W        W76854  21.519  25.881  10.614
10072W        W76855  38.489  15.926  14.964
10073W        W76856   0.674  28.131   2.081
10074W        W76857  43.943  27.620   1.778
10075W        W76858  31.804   8.979   0.344
10076W        W76859   3.976  15.675   0.698
10077W        W76860  40.666  25.712  13.076
10078W        W76861  19.087   1.934   3.865
10079W        W76862   0.437  32.136  11.605
10080W        W76863  25.564  18.204  12.733
10081W        W76864  17.175  11.775   2.577
10082W        W76865  31.120  35.321   4.100
10083W        W76866   8.312  22.722  13.808
10084W        W76867  22.595  33.784  13.754
10085W        W76868  16.918   8.790   2.226
10086W        W76869   3.988  13.825  13.661
10087W        W76870  23.991  41.217   1.754
10088W        W76871   5.613  23.767  14.976
10089W        W76872  17.296  14.051  14.793
10090W        W76873  38.926  28.049  14.552
10091W        W76874  20.801  27.706  14.207
10092W        W76875  40.406   2.766   4.251
10093W        W76876   8.918   7.433   3.238
10094W        W76877  16.587  32.530   2.269
10095W        W76878  12.791  37.058   1.456
10096W        W76879   4.396  27.877  13.373
10097W        W76880  28.705  34.979   3.238
10098W        W76881   2.551   8.348   1.175
10099W        W76882  37.412  44.390   5.059
10100W        W76883  31.092  38.421   4.099
10101W        W76884  38.274  26.189  12.019
10102W        W76885  26.959  28.431  13.223
10103W        W76886  13.628   5.528   4.997
10104W        W76887  15.953  42.902  12.564
10105W        W76888  14.885  10.185  13.460
10106W        W76889  14.145  20.796   1.474
10107W        W76890  21.213  31.560  10.565
10108W        W76891   8.711   2.268  12.193
10109W        W76892  19.939  22.999   2.083
10110W        W76893   9.883   9.340   3.762
10111W        W76894  44.194   2.906  13.842
10112W        W76895  20.583  13.276  10.674
10113W        W76896  14.672  39.510   1.743
10114W        W76897  13.175  42.129   2.907
10115W        W76898  38.112  31.860   0.839
10116W        W76899   6.961  25.871   3.689
10117W        W76900  19.469  35.111  13.489
10118W        W76901  18.059  15.571   1.632
10119W        W76902  12.496   3.318  11.191
10120W        W76903  35.888  27.439  12.075
10121W        W76904   1.222  29.628   4.580
10122W        W76905  34.330  27.613  10.363
10123W        W76906  38.806  29.018   0.258
10124W        W76907   3.843  36.560  11.067
10125W        W76908  33.818  26.713  10.907
10126W        W76909  27.455   6.679  11.094
10127W        W76910  34.570  37.113   4.590
10128W        W76911  43.509   0.040   3.265
10129W        W76912  30.719   4.227   2.802
10130W        W76913  22.663  40.387  10.910
10131W        W76914  28.062  31.052   3.844
10132W        W76915  22.619   4.263  14.421
10133W        W76916   0.309  40.179  13.493
10134W        W76917  16.729   1.456   0.206
10135W        W76918  20.260  28.269   4.011
10136W        W76919  36.908  10.465  10.117
10137W        W76920  30.509  23.332   3.413
10138W        W76921  10.118  36.146   2.236
10139W        W76922  38.734  39.876   4.699
10140W        W76923  44.968  38.534  12.139
10141W        W76924  32.331  43.958   4.584
10142W        W76925  27.135  21.252   4.474
10143W        W76926  15.378   1.340  12.112
10144W        W76927  18.509  14.318  11.962
10145W        W76928  20.508  33.498   2.471
10146W        W76929  29.469  12.675   0.276
10147W        W76930  23.519  31.010  11.525
10148W        W76931  20.626  41.877  10.741
10149W        W76932  43.490   6.655   4.943
10150W        W76933  39.187  22.996   0.284
10151W        W76934  37.854  41.357   2.169
10152W        W76935  13.024  38.928  11.036
10153W        W76936  15.074  29.161   3.563
10154W        W76937  13.088  43.385   0.364
10155W        W76938  43.581   0.848   2.674
10156W        W76939  11.853  27.037   0.697
10157W        W76940  21.342   6.282  13.911
10158W        W76941  40.070  13.712  13.954
10159W        W76942  19.701  29.744   2.372
10160W        W76943  26.474  37.303  11.668
10161W        W76944  39.047   8.396   0.812
10162W        W76945   0.771  13.766  12.865
10163W        W76946   5.792  37.123  13.905
10164W        W76947  12.653  43.101   1.851
10165W        W76948  12.829  17.529  11.120
10166W        W76949  24.004   3.476   0.209
10167W        W76950   5.954  23.501  12.039
10168W        W76951  29.532  16.959   1.168
10169W        W76952  44.457  16.526  14.000
10170W        W76953   7.346  13.606  12.009
10171W        W76954   0.849  21.260  10.773
10172W        W76955   7.144   5.784   4.437
10173W        W76956  14.049  14.287   3.637
10174W        W76957  19.937  21.705   1.250
10175W        W76958   1.662   0.515  13.447
10176W        W76959  37.921  27.628  13.833
10177W        W76960  39.333  29.070   2.901
10178W        W76961   0.006  21.209   3.340
10179W        W76962  15.223  28.561  11.216
10180W        W76963  36.214  18.626   4.307
10181W        W76964   7.758   9.416   5.653
10182W        W76965  36.979   2.259  12.853
10183W        W76966  27.418  24.632   1.201
10184W        W76967  16.830  16.748  11.592
10185W        W76968   5.500   8.188  12.234
10186W        W76969   2.747  13.158  11.923
10187W        W76970  36.840  26.090   3.365
10188W        W76971  27.959  11.160  14.465
10189W        W76972   6.191  11.186  10.877
10190W        W76973  26.488  44.809   0.290
10191W        W76974  32.416   8.055   3.150
10192W        W76975  21.757  10.456  12.034
10193W        W76976  16.351   0.846   0.799
10194W        W76977  12.791   3.409  13.900
10195W        W76978   9.868  34.083   1.417
10196W        W76979  36.441  17.246   2.261
10197W        W76980  15.580  19.696  13.008
10198W        W76981  17.707  22.473  14.982
10199W        W76982  10.403  34.533   2.150
10200W        W76983  15.042  32.363   1.403
10201W        W76984  14.629   9.706   3.287
10202W        W76985  23.358  10.068  14.408
10203W        W76986  28.149  10.227  14.916
10204W        W76987  32.440  27.429  13.384
10205W        W76988  31.946   8.390  10.309
10206W        W76989  27.827  43.931  13.293
10207W        W76990  15.058  25.608  12.886
10208W        W76991  21.821  10.596  14.980
10209W        W76992   0.210  29.311   3.780
10210W        W76993  12.513  23.546   3.252
10211W        W76994   8.198  36.626   4.103
10212W        W76995  18.164   8.776   1.433
10213W        W76996  21.753  20.180   0.793
10214W        W76997  43.009  37.171   4.836
10215W        W76998  35.885  36.322  11.967
10216W        W76999  20.949   1.406  11.469
10217W        W77000   6.746  44.296  12.109
10218W        W77001  10.669  21.095  14.096
10219W        W77002  20.841  28.956  12.617
10220W        W77003  27.591  32.559   0.301
10221W        W77004  29.647  20.689   4.574
10222W        W77005  25.687   6.464  11.074
10223W        W77006  11.179  17.960  13.020
10224W        W77007  38.865   1.498  10.387
10225W        W77008  18.014   7.776  12.975
10226W        W77009  35.072  39.410   0.234
10227W        W77010  15.362  13.626   1.846
10228W        W77011  18.235  17.632  13.435
10229W        W77012  31.370  12.067   4.441
10230W        W77013   4.266  16.067  12.607
10231W        W77014  21.601  14.469   9.655
10232W        W77015  40.359  40.312   3.630
10233W        W77016  18.566  24.262   2.578
10234W        W77017  23.505   8.561   4.903
10235W        W77018  10.150  31.324   4.165
10236W        W77019  19.565  23.881  13.891
10237W        W77020   5.620  17.598   0.270
10238W        W77021  29.959   6.685  10.756
10239W        W77022  44.412  23.670  11.291
10240W        W77023  23.305  37.363  13.022
10241W        W77024  15.864  21.968   1.228
10242W        W77025  39.442  10.940  14.924
10243W        W77026  30.197  19.888  14.818
10244W        W77027   6.452  30.510   4.230
10245W        W77028  31.529  31.650   4.417
10246W        W77029  19.948  37.802   2.851
10247W        W77030  10.393  35.320  13.051
10248W        W77031  19.561  21.244  14.366
10249W        W77032   5.984  29.430  13.755
10250W        W77033   5.203  39.437  14.392
10251W        W77034  34.135  42.346  13.843
10252W        W77035  31.387   7.649   0.552
10253W        W77036   4.935   6.645  13.929
10254W        W77037  25.349  43.739  14.478
10255W        W77038  38.552   5.087   0.217
10256W        W77039  12.314  38.444  13.960
10257W        W77040  34.529  28.965   2.301
10258W        W77041  29.391  42.895  14.605
10259W        W77042  26.089  20.417  13.969
10260W        W77043  19.347  13.253  13.930
10261W        W77044  35.033  29.600  14.718
10262W        W77045  38.576  15.052   2.233
10263W        W77046   5.365  27.072  12.041
10264W        W77047   7.444  17.357  11.181
10265W        W77048  26.858  44.701  13.127
10266W        W77049  39.576  20.677  11.600
10267W        W77050  13.392  11.169   4.277
10268W        W77051  22.968  12.909  11.993
10269W        W77052  22.257   6.949  12.884
10270W        W77053  26.175  24.131   1.772
10271W        W77054   4.718  21.552   4.323
10272W        W77055  17.165  37.809   4.621
10273W        W77056   8.731  11.024   4.666
10274W        W77057  30.085   7.091  14.322
10275W        W77058  43.383  22.167  13.056
10276W        W77059  30.912   9.248   2.210
10277W        W77060  14.640  44.036  10.481
10278W        W77061  44.733  26.001   4.190
10279W        W77062  26.836  19.081   2.411
10280W        W77063  33.087  42.846  11.223
10281W        W77064   3.895   1.753  13.002
10282W        W77065  11.108  32.063  12.604
10283W        W77066  30.317   5.417   1.244
10284W        W77067   6.091   6.954   2.315
10285W        W77068  17.845  31.542   2.414
10286W        W77069  38.659   3.290   2.312
10287W        W77070  44.770  24.730   3.139
10288W        W77071  12.115  28.370  14.872
10289W        W77072   4.613  25.394   4.558
10290W        W77073  33.714  22.623   2.116
10291W        W77074  10.855  13.553   4.498
10292W        W77075   6.703  35.838  11.041
10293W        W77076  39.949  35.155  12.880
10294W        W77077  17.249   4.537   4.550
10295W        W77078  33.546  35.172  13.966
10296W        W77079  31.723   4.234   2.554
10297W        W77080  14.872  20.040   2.899
10298W        W77081  15.846  43.812   3.784
10299W        W77082   5.200  26.612  12.383
10300W        W77083  15.788  24.517  12.673
10301W        W77084  18.233  38.785   1.454
10302W        W77085  42.295  10.614  11.624
10303W        W77086  41.556  14.641   1.411
10304W        W77087  22.382   2.568  12.525
10305W        W77088   4.258  28.774   0.852
10306W        W77089  16.530  11.683  14.834
10307W        W77090  29.536   2.174   4.099
10308W        W77091   3.355  32.917   1.176
10309W        W77092  36.317  28.235  13.078
10310W        W77093   2.370  28.980   3.766
10311W        W77094  33.003   2.544   1.447
10312W        W77095  10.695   8.808  12.350
10313W        W77096  15.159  20.143   3.314
10314W        W77097   6.384   7.402  12.920
10315W        W77098  23.219   2.654  14.027
10316W        W77099   5.068  42.867  13.328
10317W        W77100  25.671  22.818   0.884
10318W        W77101   3.770  16.760   4.709
10319W        W77102   6.222  44.697  14.603
10320W        W77103  16.074  20.021  12.145
10321W        W77104   0.249  41.392   2.747
10322W        W77105  17.075  26.977  10.641
10323W        W77106   5.324  13.232   0.262
10324W        W77107  13.743  19.543   2.612
10325W        W77108  14.305  12.406   4.797
10326W        W77109  10.933  27.035   2.757
10327W        W77110   2.255  15.185  14.346
10328W        W77111  23.602  14.620   0.917
10329W        W77112   2.890   3.460   1.444
10330W        W77113  16.778  16.032   1.744
10331W        W77114  41.169  32.803  10.721
10332W        W77115  28.482  16.130  11.625
10333W        W77116   9.385  23.480   1.828
10334W        W77117  42.316  42.719  12.013
10335W        W77118  26.537  36.754  11.522
10336W        W77119  36.341  37.414   2.828
10337W        W77120  28.155  36.320  13.894
10338W        W77121  30.400  24.708   1.057
10339W        W77122   9.693  30.042   3.730
10340W        W77123  34.715  40.276   1.772
10341W        W77124  37.944   5.934   2.902
10342W        W77125  30.878   4.692   4.143
10343W        W77126  39.684   0.727  10.378
10344W        W77127   4.783  31.941   4.164
10345W        W77128  16.762  44.412  13.920
10346W        W77129  30.657   7.892  12.007
10347W        W77130  41.984   7.771   0.226
10348W        W77131  14.200  14.520  12.575
10349W        W77132   0.242  16.835  11.853
10350W        W77133   2.436   4.290   3.164
10351W        W77134  23.551  16.167  14.248
10352W        W77135  11.782  39.935  11.797
10353W        W77136  36.029  27.420   3.267
10354W        W77137  29.481  40.421   4.550
10355W        W77138  42.975  42.416  13.842
10356W        W77139   0.063  17.066   1.235
10357W        W77140   1.910  33.616  12.629
10358W        W77141  24.245  35.143   3.718
10359W        W77142  21.576   6.290   2.281
10360W        W77143  10.059  17.079   2.258
10361W        W77144  22.528  13.222   3.529
10362W        W77145   7.570   8.590   5.136
10363W        W77146  35.927  34.644  14.087
10364W        W77147  29.620  41.740  12.998
10365W        W77148  10.857   7.632  11.924
10366W        W77149  38.827   0.460   3.400
10367W        W77150  16.760  43.264  10.703
10368W        W77151  43.943  28.988   2.172
10369W        W77152  15.196  31.812   0.498
10370W        W77153  15.605  32.509  12.041
10371W        W77154  41.536   3.221   3.388
10372W        W77155  33.864   2.942  14.051
10373W        W77156  33.405   9.732  13.911
10374W        W77157  13.844  19.599   1.797
10375W        W77158  10.696   5.439   4.546
10376W        W77159  44.954  12.694   4.581
10377W        W77160   4.493  37.012   4.560
10378W        W77161  25.721   2.874  12.621
10379W        W77162   4.496  31.232  14.159
10380W        W77163   8.914  14.879   3.703
10381W        W77164  25.095  25.686  12.406
10382W        W77165   9.183   0.266  11.391
10383W        W77166  22.524  44.503  12.341
10384W        W77167  18.371  17.659  14.329
10385W        W77168  10.354  18.147  13.120
10386W        W77169   3.882  29.220  11.506
10387W        W77170  15.235   9.738  13.484
10388W        W77171  33.445   1.561   0.960
10389W        W77172  40.352  30.932   0.640
10390W        W77173  10.324  32.421  14.446
10391W        W77174  22.205   0.762  12.376
10392W        W77175  41.409  37.388  13.355
10393W        W77176  16.755  21.588  13.896
10394W        W77177  20.134  12.284   2.818
10395W        W77178  11.953  42.943   0.695
10396W        W77179  32.153  42.689  12.168
10397W        W77180  14.837  30.195  14.799
10398W        W77181  37.614  15.109  12.233
10399W        W77182  43.582   6.896   2.406
10400W        W77183  39.205  42.334   2.795
10401W        W77184  14.695   3.278  14.508
10402W        W77185  18.771  26.418  12.666
10403W        W77186  10.416   3.803   0.976
10404W        W77187  12.503  30.763   1.610
10405W        W77188  33.613  17.944  12.438
10406W        W77189  42.891  15.546  10.717
10407W        W77190  20.669  31.711  13.951
10408W        W77191  28.972  10.848   0.296
10409W        W77192  23.173  21.796  12.504
10410W        W77193   9.880  32.407  12.364
10411W        W77194  16.249  12.873   3.349
10412W        W77195  37.536  14.825  13.564
10413W        W77196  16.317  33.965  12.524
10414W        W77197  31.898   1.365  12.078
10415W        W77198  23.449   9.828  12.479
10416W        W77199   6.785  42.761  11.957
10417W        W77200  19.298   8.415  12.855
10418W        W77201  11.701  34.552   4.145
10419W        W77202  31.056  44.351  10.340
10420W        W77203  19.869  21.179   1.283
10421W        W77204   3.340   4.455  11.212
10422W        W77205   4.730  26.413   3.726
10423W        W77206  40.452   2.760   2.692
10424W        W77207  44.428   4.954   2.735
10425W        W77208  27.084   0.267   0.861
10426W        W77209  29.644   2.844   0.231
10427W        W77210   4.648  30.853   3.099
10428W        W77211  36.062   9.918  14.872
10429W        W77212  32.507  29.588   4.579
10430W        W77213  32.587  11.144   4.910
10431W        W77214  37.577  25.611  10.704
10432W        W77215  30.360  14.775  12.441
10433W        W77216  34.331   7.347  13.408
10434W        W77217  37.021  41.367   4.081
10435W        W77218  43.809  13.295  14.885
10436W        W77219  34.011  39.262  14.032
10437W        W77220   0.139   2.654   3.331
10438W        W77221  38.530  17.631   2.948
10439W        W77222  36.341  10.273  11.884
10440W        W77223   5.885  42.061   4.563
10441W        W77224  27.455  24.737  12.847
10442W        W77225  43.351  35.534   4.407
10443W        W77226  42.400   8.099   3.184
10444W        W77227  27.856   2.026   2.779
10445W        W77228  20.958  31.689  14.929
10446W        W77229  42.602  41.832  11.559
10447W        W77230  18.784  37.854  11.692
10448W        W77231  29.844  37.000   3.945
10449W        W77232  35.293  17.241   2.704
10450W        W77233  27.142  38.410  12.977
10451W        W77234  18.880   8.307  11.048
10452W        W77235   1.697  31.540  14.109
10453W        W77236   8.653  43.388  11.674
10454W        W77237  11.730  38.844   3.146
10455W        W77238   8.394  37.509   0.451
10456W        W77239   3.890  11.863  12.838
10457W        W77240   5.882   7.466  12.152
10458W        W77241  35.555  32.958  12.504
10459W        W77242   7.765  26.141  13.971
10460W        W77243  15.594  14.972  12.454
10461W        W77244  13.679   7.392  11.791
10462W        W77245   4.878   6.292  10.849
10463W        W77246  12.781   6.802   4.598
10464W        W77247  39.668  21.455  14.453
10465W        W77248   6.970  40.985  13.158
10466W        W77249  26.878   2.453   2.786
10467W        W77250   5.965  30.705   2.033
10468W        W77251  34.956  18.295   4.551
10469W        W77252  42.932   1.209   3.214
10470W        W77253  42.708  26.948  14.122
10471W        W77254  14.260  30.864  12.382
10472W        W77255  33.507  34.214   1.118
10473W        W77256  32.251  40.167  12.855
10474W        W77257  18.470  21.082   4.724
10475W        W77258  29.706  29.367   5.007
10476W        W77259  17.367  26.223  13.876
10477W        W77260  25.637   9.182   4.169
10478W        W77261   6.935  27.364  11.935
10479W        W77262  33.417  17.723  13.759
10480W        W77263  31.358  16.834  14.929
10481W        W77264  42.484  25.473   2.105
10482W        W77265  14.948  40.057  14.309
10483W        W77266  30.578  24.085   0.248
10484W        W77267   5.241  39.454  11.532
10485W        W77268  36.582   8.563  13.396
10486W        W77269   3.720  23.764   1.260
10487W        W77270  30.707  31.499   1.180
10488W        W77271  21.180   8.371  12.528
10489W        W77272  10.738  26.492   2.831
10490W        W77273  26.373  40.981   2.337
10491W        W77274  32.426  22.332   0.600
10492W        W77275  21.392  43.037   4.705
10493W        W77276  33.415  11.224   0.062
10494W        W77277   3.905   2.608   4.582
10495W        W77278  26.084  44.713  10.551
10496W        W77279  38.101  17.098  11.123
10497W        W77280  28.770  16.797   1.665
10498W        W77281  19.170  30.345   3.223
10499W        W77282   3.283  24.473   1.326
10500W        W77283  35.287  19.000   2.366
10501W        W77284  26.843   1.569   0.092
10502W        W77285  12.031  19.482  13.390
10503W        W77286  34.874   9.750  11.555
10504W        W77287  40.276  29.934  13.313
10505W        W77288   0.991   4.666   0.942
10506W        W77289  26.594  16.062  10.987
10507W        W77290  14.222  23.106   1.601
10508W        W77291  25.801  10.099  12.556
10509W        W77292  43.118  14.967   0.505
10510W        W77293  37.505  27.147  13.284
10511W        W77294   7.862  20.208  12.020
10512W        W77295  16.813  36.408  11.012
10513W        W77296  37.793  16.802  13.956
10514W        W77297  22.235  10.166  13.286
10515W        W77298  32.701  30.950   2.488
10516W        W77299  11.617  19.318   1.951
10517W        W77300  33.577  33.983  12.265
10518W        W77301  19.561  10.715   1.779
10519W        W77302  17.572  41.059  10.597
10520W        W77303  16.342  36.904   2.679
10521W        W77304   9.361   0.752   2.871
10522W        W77305   8.276  43.538  12.210
10523W        W77306  42.068  25.376  11.957
10524W        W77307   8.362  44.427  11.706
10525W        W77308  21.540  40.319   0.048
10526W        W77309   0.394  38.531  11.833
10527W        W77310  37.803  44.988  13.894
10528W        W77311  27.202  40.970   2.729
10529W        W77312  39.412  29.644   0.861
10530W        W77313  19.815  33.013  14.528
10531W        W77314  20.621  24.114   5.047
10532W        W77315   6.776   1.818   0.192
10533W        W77316  22.721  36.375  12.578
10534W        W77317  13.527  35.059   4.475
10535W        W77318   2.792  35.438   0.483
10536W        W77319   7.158  16.639   4.552
10537W        W77320  38.428   6.874   1.850
10538W        W77321  10.806  34.950   3.384
10539W        W77322  39.133  38.425   4.038
10540W        W77323  16.033  17.588   2.782
10541W        W77324  22.768  19.132   0.732
10542W        W77325   6.267   8.815  10.538
10543W        W77326  44.994  19.869  14.380
10544W        W77327  22.431   2.311  14.953
10545W        W77328  34.127  20.694   1.709
10546W        W77329  34.193  19.624  12.575
10547W        W77330   7.894  39.242  14.122
10548W        W77331  38.515   7.656  14.200
10549W        W77332  36.899   3.662   3.719
10550W        W77333  25.208  44.182   1.252
10551W        W77334   3.186  12.726   3.768
10552W        W77335  28.187  38.063  11.297
10553W        W77336   7.442   0.354   4.919
10554W        W77337  28.682   6.910  12.088
10555W        W77338  44.369   7.225  14.801
10556W        W77339  14.209  34.676   4.975
10557W        W77340  43.921  24.882   2.240
10558W        W77341  13.353  31.416  11.630
10559W        W77342  37.914  27.673  13.252
10560W        W77343  42.795  33.838   2.176
10561W        W77344   1.421  10.112  11.985
10562W        W77345  34.031  29.744   4.784
10563W        W77346  15.341  16.260  11.046
10564W        W77347   9.794  20.878   1.865
10565W        W77348   6.629  19.100  11.723
10566W        W77349   4.211  17.962  14.402
10567W        W77350  15.979   4.289  12.472
10568W        W77351  44.959  21.219   4.317
10569W        W77352  40.525  13.116   9.816
10570W        W77353  15.307  29.391  11.221
10571W        W77354  11.403  17.640  11.737
10572W        W77355  27.052  36.610  11.601
10573W        W77356  12.095  41.892  14.068
10574W        W77357  22.049  38.911  13.405
10575W        W77358   5.734   7.134  11.202
10576W        W77359  34.871  41.204   4.165
10577W        W77360  12.426  40.893   0.357
10578W        W77361  29.391   0.760   1.735
10579W        W77362  19.541  28.387  14.991
10580W        W77363  16.180  15.154  11.969
10581W        W77364  19.019  41.077  10.696
10582W        W77365  32.250  36.026   4.959
10583W        W77366  19.002  30.228  11.733
10584W        W77367  21.679  17.184   4.888
10585W        W77368  34.353  23.267  14.544
10586W        W77369  23.688  24.553  14.429
10587W        W77370  29.518  10.192  13.105
10588W        W77371   3.456  29.148   1.725
10589W        W77372   4.878   0.038   3.147
10590W        W77373  34.048   5.134   4.234
10591W        W77374   1.866  35.300  11.675
10592W        W77375  10.787  21.487   4.597
10593W        W77376  43.913  29.384   1.215
10594W        W77377  37.046  22.344   0.243
10595W        W77378  34.888  16.594   1.146
10596W        W77379   8.901  20.109  12.085
10597W        W77380  17.861  21.053   1.436
10598W        W77381  35.390  13.682  13.867
10599W        W77382  22.781  31.063  11.206
10600W        W77383  36.358  24.840   3.920
10601W        W77384   5.848  39.703   4.055
10602W        W77385  42.323  33.980   3.327
10603W        W77386  31.173  26.496  10.802
10604W        W77387  24.262   2.972  13.911
10605W        W77388   3.908  23.068  10.412
10606W        W77389  10.230  31.546   0.293
10607W        W77390   3.448  32.992   2.551
10608W        W77391   7.482  27.996   2.314
10609W        W77392  33.113  35.415  10.718
10610W        W77393  21.087  22.163  13.318
10611W        W77394  20.547  20.758  12.922
10612W        W77395   0.231  19.107  13.050
10613W        W77396   0.537  32.051  12.668
10614W        W77397  29.998  27.652   4.167
10615W        W77398  20.328  17.798   1.959
10616W        W77399  28.434   2.691  13.895
10617W        W77400  40.018  39.767   0.741
10618W        W77401  25.685   3.617   1.906
10619W        W77402   0.925  26.057  11.062
10620W        W77403  27.201  43.261  14.868
10621W        W77404   8.842  19.161   2.918
10622W        W77405   0.438  30.343  11.077
10623W        W77406   0.869   4.246  13.360
10624W        W77407  20.844  10.442  12.994
10625W        W77408  34.283  27.741   4.203
10626W        W77409  22.302  44.679   1.944
10627W        W77410   4.242  33.799  13.825
10628W        W77411   8.978   0.173   1.439
10629W        W77412  22.665   6.092  12.170
10630W        W77413   5.885  19.285   2.681
10631W        W77414   7.008  35.446  13.927
10632W        W77415  20.092  14.814   3.444
10633W        W77416  19.273  20.819  14.483
10634W        W77417  20.482  41.829   2.259
10635W        W77418  15.389  23.474  13.421
10636W        W77419  33.810  38.258  13.902
10637W        W77420  20.139  43.422  11.466
10638W        W77421  28.360  13.415  14.441
10639W        W77422  14.677  43.519  10.534
10640W        W77423  11.131  19.062  12.420
10641W        W77424   8.085  20.536  14.497
10642W        W77425  39.247  30.128   3.301
10643W        W77426  11.966  19.294   1.521
10644W        W77427  37.428   1.035  12.402
10645W        W77428  13.059   3.455  10.341
10646W        W77429  19.121  32.971  12.442
10647W        W77430  30.693  14.042  12.941
10648W        W77431  23.118  36.906   1.813
10649W        W77432  10.087  22.173   3.701
10650W        W77433  33.743  20.838   0.807
10651W        W77434  17.294   0.192  14.699
10652W        W77435  42.790  29.347   1.726
10653W        W77436   0.792  39.566   3.252
10654W        W77437   7.902  23.555   1.393
10655W        W77438   9.575  17.122  11.506
10656W        W77439   5.202  20.028  11.171
10657W        W77440  20.745  40.286  12.428
10658W        W77441  26.239   7.587  12.928
10659W        W77442  17.835  44.064  14.312
10660W        W77443   0.434  40.499   4.906
10661W        W77444   8.946   0.334   1.945
10662W        W77445  13.167  29.749  11.576
10663W        W77446  34.891  38.854   4.523
10664W        W77447   7.302  33.264  10.816
10665W        W77448   2.777  18.469  14.379
10666W        W77449  15.013   3.430   9.992
10667W        W77450  16.350   9.878  11.431
10668W        W77451   8.386  13.380  11.149
10669W        W77452   9.124   1.437  13.987
10670W        W77453   2.903   8.749   2.852
10671W        W77454  30.972   8.750  11.643
10672W        W77455   2.387  17.190   2.436
10673W        W77456   1.436  38.433  13.844
10674W        W77457   4.394  19.329   3.067
10675W        W77458  26.031   8.337  10.644
10676W        W77459  30.052   8.402   1.278
10677W        W77460   4.721  29.110  12.022
10678W        W77461  27.586  35.894   3.118
10679W        W77462  17.858  11.952   3.637
10680W        W77463  34.613  14.152   2.783
10681W        W77464  14.990  21.465  10.920
10682W        W77465  39.535   0.094   0.746
10683W        W77466  23.922  25.258   3.900
10684W        W77467  25.124  26.522   4.069
10685W        W77468   1.887  33.405   3.258
10686W        W77469   3.070   2.957  14.290
10687W        W77470  12.583  21.300   1.437
10688W        W77471   8.068  40.951  12.062
10689W        W77472   5.244  10.174  13.005
10690W        W77473  22.014   1.135  13.411
10691W        W77474  40.812  30.052   0.297
10692W        W77475  41.174  10.120  11.108
10693W        W77476  20.514  29.672  11.066
10694W        W77477  37.723  31.935  14.994
10695W        W77478  18.418  14.011   4.562
10696W        W77479  30.376  22.497   3.740
10697W        W77480   6.360  31.102   0.840
10698W        W77481  44.853  27.463   4.299
10699W        W77482  17.213   1.404   2.345
10700W        W77483  26.672  30.873  14.809
10701W        W77484  36.121  42.320   3.621
10702W        W77485  10.528  13.133   0.089
10703W        W77486  44.594  39.276  10.692
10704W        W77487  14.427   3.982  13.834
10705W        W77488  28.920  16.995  10.700
10706W        W77489   1.521   6.354   2.849
10707W        W77490   8.274  36.575  10.731
10708W        W77491  11.596  18.327  11.790
10709W        W77492  35.773  15.517  13.499
10710W        W77493  30.234  41.022   2.673
10711W        W77494  31.340  23.200  11.607
10712W        W77495   8.297   9.370  14.096
10713W        W77496  19.207  27.541  10.745
10714W        W77497   4.644  27.386   4.020
10715W        W77498   5.820  32.043  10.188
10716W        W77499  25.078   1.001  13.103
10717W        W77500   2.732   1.388   2.128
10718W        W77501  36.091  37.857   0.423
10719W        W77502   0.248  23.400  14.773
10720W        W77503  21.036   6.856   3.214
10721W        W77504  19.681   7.734   1.252
10722W        W77505  36.864  37.477   1.882
10723W        W77506   2.497  33.565   0.230
10724W        W77507  29.972  19.207   0.441
10725W        W77508  14.373  34.629   4.494
10726W        W77509  17.796  29.075  13.516
10727W        W77510   0.860  23.127  13.043
10728W        W77511  30.326  38.915   4.138
10729W        W77512  19.546  18.324   2.437
10730W        W77513  12.309  15.504   2.893
10731W        W77514  41.303  27.253   1.615
10732W        W77515   1.897  24.762   2.950
10733W        W77516  15.251  10.358   0.398
10734W        W77517  23.954   4.442   3.210
10735W        W77518  40.032   9.679   4.192
10736W        W77519  14.085  17.209  11.596
10737W        W77520  38.321  36.483   3.685
10738W        W77521   1.027  29.952  14.805
10739W        W77522  13.897   8.289  12.282
10740W        W77523  20.877   5.352  11.860
10741W        W77524  15.166  31.354   1.452
10742W        W77525  23.102  28.983  13.379
10743W        W77526  32.605  17.699  14.407
10744W        W77527  24.054  30.638   2.177
10745W        W77528  28.366   9.813   3.191
10746W        W77529  27.162  32.589   2.784
10747W        W77530  38.071  21.969   3.344
10748W        W77531   5.652  10.244   2.943
10749W        W77532  33.125   4.109  14.878
10750W        W77533   6.202  30.089   4.395
10751W        W77534  24.299  14.860  14.217
10752W        W77535  35.963  26.418   2.390
10753W        W77536  34.583  36.807  12.124
10754W        W77537  17.218   5.926   3.385
10755W        W77538  30.668  15.823   2.317
10756W        W77539   9.973  25.755   3.259
10757W        W77540  42.113  12.561   5.514
10758W        W77541  40.021  35.019  11.184
10759W        W77542  27.955  36.004   2.342
10760W        W77543  43.084  34.904   4.095
10761W        W77544   8.229  38.908   3.105
10762W        W77545   0.296  31.702   2.373
10763W        W77546  24.048  34.001   3.179
10764W        W77547  22.250  41.859   3.753
10765W        W77548   2.969  12.741  14.947
10766W        W77549  15.574  10.383   3.739
10767W        W77550   7.198  14.463  13.075
10768W        W77551  14.061  27.187   3.323
10769W        W77552   4.126  36.068   1.594
10770W        W77553  35.551  15.017   3.321
10771W        W77554   2.152  29.993  11.297
10772W        W77555  20.115   0.920  11.939
10773W        W77556   0.852  44.408  11.861
10774W        W77557  35.139  34.111  12.047
10775W        W77558  29.867  24.995  14.289
10776W        W77559  39.046  13.176  13.314
10777W        W77560  13.704   7.766   3.271
10778W        W77561  35.985  14.398  12.700
10779W        W77562   9.805  16.062   4.268
10780W        W77563  19.812  44.855  11.154
10781W        W77564  27.226   7.902  11.447
10782W        W77565  18.238  19.676  10.618
10783W        W77566  31.586  33.000  12.237
10784W        W77567   9.832  35.938  13.812
10785W        W77568  42.881  36.994  10.948
10786W        W77569  27.365  43.717  11.051
10787W        W77570   0.525   9.629  12.933
10788W        W77571  43.396  25.563  14.474
10789W        W77572  14.747  30.578   1.175
10790W        W77573   3.762  32.340  14.262
10791W        W77574   8.869  32.596  14.872
10792W        W77575  27.196  44.470  12.417
10793W        W77576   6.252  20.581  12.394
10794W        W77577  22.478  18.526  12.016
10795W        W77578   5.250   9.731  13.286
10796W        W77579  20.267  33.894   4.654
10797W        W77580  24.495   6.646  10.661
10798W        W77581  35.169  28.566   0.317
10799W        W77582  29.177   2.439  13.167
10800W        W77583  17.729  16.547  13.145
10801W        W77584   0.289  13.088  13.430
10802W        W77585  33.867   5.148  11.863
10803W        W77586  37.338  33.315   0.145
10804W        W77587   6.226  12.799   2.061
10805W        W77588  17.202  19.576  13.776
10806W        W77589   1.633  17.321  10.768
10807W        W77590  12.324   8.430   2.265
10808W        W77591  32.636  27.437  11.131
10809W        W77592  31.099   2.009  11.514
10810W        W77593  28.679  43.064   5.250
10811W        W77594  14.320  42.878   0.250
10812W        W77595   4.831  26.167  14.923
10813W        W77596  15.296  29.856   4.288
10814W        W77597   3.746  17.014  14.354
10815W        W77598  19.573  35.834  12.518
10816W        W77599  26.492   0.524  10.679
10817W        W77600  14.920  37.832  13.372
10818W        W77601   0.595  14.385   1.845
10819W        W77602  11.874  32.860   1.588
10820W        W77603   1.701  23.506  13.860
10821W        W77604  41.623  40.535   1.970
10822W        W77605   7.721  25.807  12.984
10823W        W77606  32.993  14.713  12.935
10824W        W77607   3.836  41.112   0.864
10825W        W77608  39.570  20.034  13.450
10826W        W77609  29.549  31.152  12.971
10827W        W77610  28.437  11.768   3.307
10828W        W77611  19.146  38.301  12.964
10829W        W77612  33.900  34.087  10.332
10830W        W77613   6.461  25.695  11.448
10831W        W77614   9.761   2.864   2.819
10832W        W77615  34.414  35.241  10.965
10833W        W77616  42.929  11.504   1.265
10834W        W77617  43.069  17.705  11.648
10835W        W77618  40.846  13.998  13.601
10836W        W77619  22.199  19.542   0.844
10837W        W77620   5.975  36.376   1.217
10838W        W77621   7.994   7.886  11.398
10839W        W77622  41.006  39.544   4.910
10840W        W77623  41.555   1.935  12.969
10841W        W77624  34.876  33.309  13.718
10842W        W77625  11.600  17.191   2.358
10843W        W77626  31.317  20.085   4.138
10844W        W77627  15.006  27.426  11.938
10845W        W77628  34.879  31.812   2.365
10846W        W77629  39.939  43.391  11.683
10847W        W77630  16.494  29.978  12.391
10848W        W77631  27.559  11.735  12.539
10849W        W77632  35.903   4.303  14.292
10850W        W77633  42.162  36.106  11.191
10851W        W77634  21.603  27.495  10.253
10852W        W77635  44.903   4.300   4.019
10853W        W77636  43.943  41.760   3.050
10854W        W77637  10.396  42.697  10.838
10855W        W77638  29.856  22.133  13.886
10856W        W77639  23.039  16.129   2.230
10857W        W77640  34.781  39.809  12.143
10858W        W77641  39.189  12.755  13.852
10859W        W77642  11.089   9.097  10.712
10860W        W77643  19.346   4.867   3.588
10861W        W77644  30.540  41.606  10.253
10862W        W77645  29.719  29.232  11.210
10863W        W77646   2.692   1.400  10.677
10864W        W77647  36.538   2.023   3.735
10865W        W77648  10.214  11.319  13.876
10866W        W77649  17.128  16.290  12.084
10867W        W77650  18.573   1.773  11.425
10868W        W77651  18.137   9.772  12.340
10869W        W77652  13.167   8.184   0.431
10870W        W77653   9.272  22.665   0.006
10871W        W77654  24.893  22.203   3.420
10872W        W77655  36.979   8.996   4.700
10873W        W77656  11.560  20.043  11.087
10874W        W77657   9.476  38.843   3.718
10875W        W77658  24.862  43.735  13.660
10876W        W77659  24.841  22.374   2.392
10877W        W77660  26.027   5.599   9.477
10878W        W77661   7.954  26.174   0.538
10879W        W77662  36.002   6.516  14.329
10880W        W77663  41.565  19.206  12.827
10881W        W77664   7.414  40.817  14.891
10882W        W77665  21.614  24.253  13.079
10883W        W77666  21.696  16.118  14.075
10884W        W77667   4.031   6.702   0.667
10885W        W77668  13.243  21.554  13.845
10886W        W77669  17.094  25.401   0.896
10887W        W77670  42.291   6.218   2.714
10888W        W77671  10.130  33.905  11.532
10889W        W77672  25.155  30.222   4.660
10890W        W77673  41.474   2.105   0.218
10891W        W77674   2.467  28.053  12.154
10892W        W77675  32.572  28.914   2.692
10893W        W77676  21.025  21.824  11.527
10894W        W77677  27.155   0.358   1.400
10895W        W77678  22.613  11.913  13.497
10896W        W77679  16.818  39.683  10.160
10897W        W77680   5.443   1.470   1.210
10898W        W77681   6.919  28.270   3.167
10899W        W77682  15.420   5.178  11.634
10900W        W77683   2.481  20.276  13.030
10901W        W77684   5.899  42.416   1.877
10902W        W77685   6.859  39.507   0.997
10903W        W77686   8.417   1.790  11.938
10904W        W77687  40.530   3.991  14.782
10905W        W77688   7.365   3.316   2.346
10906W        W77689  26.409  15.221   2.922
10907W        W77690   1.272  22.005  13.386
10908W        W77691  10.847   1.328  14.768
10909W        W77692   0.228  32.905  12.699
10910W        W77693   4.537  43.089   0.261
10911W        W77694   7.421  11.692   3.017
10912W        W77695   1.321  34.105   4.222
10913W        W77696  38.001   6.222   1.414
10914W        W77697  25.704  31.972  12.310
10915W        W77698  35.982   7.222   0.340
10916W        W77699  32.922  40.573  14.510
10917W        W77700  43.225  19.232  14.961
10918W        W77701  17.984   8.067   0.861
10919W        W77702  27.066  37.869  11.226
10920W        W77703   3.454  18.361   4.164
10921W        W77704  11.418  43.260  11.374
10922W        W77705   5.763  33.687   1.441
10923W        W77706   0.554  22.043  13.955
10924W        W77707   8.374  28.483   1.985
10925W        W77708  29.962  14.525   0.831
10926W        W77709  28.213   6.666  12.909
10927W        W77710  28.516  36.646  12.083
10928W        W77711   2.810   0.997  12.162
10929W        W77712  20.796  18.231   1.470
10930W        W77713  41.939   7.672   2.538
10931W        W77714  33.402  14.377  13.001
10932W        W77715   1.536  25.739   1.803
10933W        W77716  22.401  29.997   4.602
10934W        W77717  19.615  30.871  10.795
10935W        W77718  15.073  33.051   0.877
10936W        W77719  29.964  31.618   0.260
10937W        W77720  36.751  41.791  14.022
10938W        W77721  38.728  41.308  11.172
10939W        W77722  19.765  19.342   3.262
10940W        W77723  35.909  26.349  14.038
10941W        W77724  30.962  39.742  14.081
10942W        W77725  31.489  10.882  10.551
10943W        W77726  42.989  40.544   0.832
10944W        W77727  13.498  42.874   0.886
10945W        W77728  41.343  18.530  14.272
10946W        W77729  26.143   1.402   0.332
10947W        W77730   8.559  22.769   1.907
10948W        W77731  30.216  20.641   1.917
10949W        W77732  14.417  38.546  13.852
10950W        W77733   2.431  23.064   3.055
10951W        W77734  19.513   0.192  13.582
10952W        W77735  12.298   4.947   2.892
10953W        W77736  12.262   5.869   1.028
10954W        W77737  18.793  10.770  11.636
10955W        W77738  13.389  31.853   1.781
10956W        W77739   8.120  36.078  10.746
10957W        W77740   4.256  37.388  10.571
10958W        W77741  14.297  32.871  10.677
10959W        W77742  13.367  15.632  11.574
10960W        W77743  23.011  24.996  13.445
10961W        W77744  23.440  10.529   0.112
10962W        W77745  30.339  15.783   4.178
10963W        W77746  11.807  22.022  11.861
10964W        W77747  18.473  15.858   2.336
10965W        W77748  35.583   2.506  14.940
10966W        W77749  31.305  11.597  13.082
10967W        W77750  10.620  16.288  14.072
10968W        W77751  16.581  13.040   1.953
10969W        W77752  40.534  10.814  14.431
10970W        W77753  21.483  26.107  12.499
10971W        W77754  13.660  41.081  14.832
10972W        W77755  28.559  12.216  12.986
10973W        W77756   9.591  15.325   2.434
10974W        W77757   9.356   7.324   9.848
10975W        W77758   4.773  32.354  12.281
10976W        W77759   3.393   0.645  13.792
10977W        W77760  17.665   5.847  12.866
10978W        W77761  25.063  33.012   2.233
10979W        W77762  40.729  13.865  13.102
10980W        W77763  33.580   3.265  13.579
10981W        W77764  28.968  28.106  12.572
10982W        W77765  16.607  42.470   4.338
10983W        W77766  19.258  26.639  11.747
10984W        W77767  24.583   2.481   2.737
10985W        W77768  13.203  28.531   2.831
10986W        W77769  30.503  15.739   1.290
10987W        W77770   5.625  23.297   2.174
10988W        W77771  18.094  33.436  13.107
10989W        W77772  26.650  34.390   2.866
10990W        W77773  39.113  27.157   0.837
10991W        W77774   7.964  18.618   0.883
10992W        W77775  12.232  22.545   3.211
10993W        W77776  34.395  12.681   3.628
10994W        W77777  28.241  30.079  11.682
10995W        W77778  28.146  43.362   1.250
10996W        W77779   7.332  44.617   3.666
10997W        W77780  13.775   7.423   0.379
10998W        W77781  15.134  34.119   4.171
10999W        W77782  10.182  39.452  14.674
11000W        W77783  44.673  19.825   1.277
11001W        W77784  39.281  39.904   2.785
11002W        W77785  14.788  32.687  11.506
11003W        W77786  32.754  23.290  12.143
11004W        W77787  11.143  19.627  13.682
11005W        W77788  19.994  34.685   2.354
11006W        W77789   7.919  35.560  13.862
11007W        W77790  18.155  10.010  14.198
11008W        W77791  29.955  40.948  12.319
11009W        W77792  10.210  39.957  12.958
11010W        W77793  36.381  24.316   2.422
11011W        W77794  40.907  10.837   4.563
11012W        W77795  36.434  34.217  14.979
11013W        W77796  17.664  31.424   4.150
11014W        W77797  40.053  17.775   4.323
11015W        W77798   9.737  24.970  13.616
11016W        W77799  15.049  41.102   4.259
11017W        W77800  36.157  22.030  11.681
11018W        W77801  37.874  31.688   1.851
11019W        W77802  33.124  17.128   1.848
11020W        W77803  16.014  43.557  11.903
11021W        W77804  24.458  26.677  13.978
11022W        W77805   9.202  26.563  13.884
11023W        W77806  19.685  43.833   2.236
11024W        W77807   5.375  19.611  11.500
11025W        W77808  42.218  10.733  11.132
11026W        W77809  29.108  28.303   1.878
11027W        W77810  39.421  16.762   2.460
11028W        W77811   3.421  37.748   2.103
11029W        W77812  15.127  20.461  14.427
11030W        W77813  24.059  25.727  13.862
11031W        W77814  10.906   7.764  14.718
11032W        W77815  39.882  39.600  12.948
11033W        W77816  37.603  28.656  14.007
11034W        W77817  34.041  21.701   1.795
11035W        W77818  32.149  13.664  10.670
11036W        W77819  32.433  15.589   0.716
11037W        W77820  44.840  32.269  13.042
11038W        W77821  13.124  37.631   0.885
11039W        W77822  18.678  22.532  12.935
11040W        W77823  44.046  14.270   1.851
11041W        W77824  32.697  19.778   3.358
11042W        W77825  39.129  43.655  10.050
11043W        W77826   8.007  25.803   2.901
11044W        W77827  11.813  30.047  13.404
11045W        W77828  22.533  37.342   2.728
11046W        W77829  14.361  34.095   1.732
11047W        W77830   1.343  27.751   1.688
11048W        W77831  22.737   1.073  12.990
11049W        W77832  27.855  43.207   0.785
11050W        W77833  37.939  11.237   3.857
11051W        W77834  11.157  41.847  14.471
11052W        W77835  11.807  44.324  11.995
11053W        W77836  11.692  19.514  13.854
11054W        W77837  22.918  39.136  12.172
11055W        W77838  13.781  21.651  14.519
11056W        W77839  11.639  19.754   1.662
11057W        W77840   5.324  18.546   2.647
11058W        W77841  44.960  35.846   0.009
11059W        W77842   8.843  13.948   4.611
11060W        W77843  13.262   9.471  10.513
11061W        W77844  44.251   2.278   1.483
11062W        W77845   3.781  23.663  11.894
11063W        W77846  25.749   3.088  10.909
11064W        W77847  24.581   7.262   3.302
11065W        W77848   4.359   2.401  11.642
11066W        W77849  29.209  29.833  14.003
11067W        W77850   1.888   3.562   2.242
11068W        W77851  17.043   1.286   1.864
11069W        W77852  12.549   6.958   2.144
11070W        W77853  14.318  27.545   5.163
11071W        W77854  27.386  29.004  14.714
11072W        W77855  38.328   3.682   0.646
11073W        W77856   3.772  19.520  12.528
11074W        W77857  43.313   9.539   0.836
11075W        W77858  28.056  14.018   3.565
11076W        W77859  29.977   1.530   2.773
11077W        W77860  30.274   7.424   0.873
11078W        W77861   6.693  28.432   4.138
11079W        W77862  31.154  34.552  11.992
11080W        W77863  41.273  28.477   0.060
11081W        W77864  40.995  19.237  10.569
11082W        W77865  10.212  24.535   2.364
11083W        W77866  33.531   3.854   3.260
11084W        W77867  27.646  16.631  12.433
11085W        W77868   8.742  28.567  13.622
11086W        W77869  44.417  26.195   1.861
11087W        W77870  17.125  22.561   3.549
11088W        W77871   6.178  27.413   0.935
11089W        W77872  30.699   6.255   2.331
11090W        W77873  16.206   7.873  12.667
11091W        W77874  33.795  34.530  11.843
11092W        W77875  41.733  38.367   2.353
11093W        W77876  16.805  28.259   4.108
11094W        W77877  27.568  40.424  14.961
11095W        W77878   4.865   5.952   4.878
11096W        W77879   9.449  39.775  11.417
11097W        W77880  44.413   7.849  12.352
11098W        W77881  37.890   0.757   1.922
11099W        W77882  43.399  33.007   1.740
11100W        W77883   8.120  11.740   4.289
11101W        W77884  30.437  39.119   1.817
11102W        W77885   2.951  11.167   1.444
11103W        W77886   0.736  33.632   2.715
11104W        W77887   7.252  23.914  12.063
11105W        W77888  43.988  18.752   3.352
11106W        W77889   0.181  28.533   1.816
11107W        W77890  35.115  30.069   1.500
11108W        W77891  43.064  20.713  11.166
11109W        W77892   6.704   9.104  14.474
11110W        W77893  18.658  36.522   4.625
11111W        W77894  37.604  30.446   2.859
11112W        W77895  39.025  24.712  10.789
11113W        W77896  38.532  38.156  13.933
11114W        W77897  16.995   9.919  14.511
11115W        W77898  11.644  28.733   2.795
11116W        W77899   1.305  32.842  14.107
11117W        W77900   8.334  41.373  14.827
11118W        W77901  24.053  12.600   3.773
11119W        W77902  10.124  16.665   4.242
11120W        W77903   7.454  29.373  14.130
11121W        W77904  39.559  10.340  10.627
11122W        W77905  11.969  25.854   4.182
11123W        W77906   0.710   1.916  11.052
11124W        W77907   6.026  19.780  14.795
11125W        W77908   0.383  38.887   1.298
11126W        W77909  40.585   0.681  14.721
11127W        W77910   4.894  18.829   1.899
11128W        W77911   1.491  33.935   2.226
11129W        W77912   7.779  41.340   3.734
11130W        W77913  38.177  22.029   2.195
11131W        W77914  16.295  38.234   1.234
11132W        W77915  22.892  29.827  14.403
11133W        W77916  31.719  25.474  12.873
11134W        W77917  21.592  15.195   3.295
11135W        W77918  30.332  11.300   1.833
11136W        W77919  17.032  35.303   0.769
11137W        W77920  39.839  15.280  13.575
11138W        W77921  19.142  11.330  10.711
11139W        W77922  29.937  32.546  14.723
11140W        W77923  41.976  26.297  13.978
11141W        W77924   6.896  27.577   1.777
11142W        W77925  18.685   8.678   2.742
11143W        W77926   2.703   9.703   2.143
11144W        W77927  32.182  33.470  13.085
11145W        W77928  17.641  20.025   3.995
11146W        W77929  12.868  30.212  13.498
11147W        W77930  33.017  43.431  10.734
11148W        W77931   9.162  40.616  12.967
11149W        W77932  11.737  19.256  12.992
11150W        W77933   6.838  17.014   4.717
11151W        W77934  29.898  42.903   1.079
11152W        W77935   7.358   7.250   4.154
11153W        W77936  27.570   5.244  13.830
11154W        W77937  44.838   6.993   3.659
11155W        W77938  28.162  10.023   3.604
11156W        W77939   5.496  33.584  14.682
11157W        W77940   7.347  21.064   4.444
11158W        W77941   8.878  15.986   1.584
11159W        W77942  27.524  42.723   2.261
11160W        W77943  13.544   3.277   3.228
11161W        W77944  13.275  22.038   4.225
11162W        W77945   6.855  14.555   1.731
11163W        W77946  44.500   0.029   4.838
11164W        W77947  23.209  15.375   2.607
11165W        W77948  43.277  30.519   5.059
11166W        W77949  13.732   9.117   2.797
11167W        W77950  11.222  24.435   4.601
11168W        W77951   0.766  24.776   3.343
11169W        W77952  26.945  40.613   0.189
11170W        W77953   6.958  14.387   3.566
11171W        W77954  42.529  27.535   1.885
11172W        W77955  19.525   8.155   4.574
11173W        W77956  41.342   9.105   3.642
11174W        W77957  35.357  35.364  12.424
11175W        W77958  31.842  30.007   3.653
11176W        W77959  31.470  28.407  14.361
11177W        W77960  17.831  24.553   0.962
11178W        W77961  33.581  28.693  12.511
11179W        W77962  12.778  42.466  12.098
11180W        W77963  18.729  33.525   1.283
11181W        W77964  23.459  24.524   0.763
11182W        W77965   7.729  17.113   5.023
11183W        W77966  29.373  20.171   1.807
11184W        W77967  16.617  33.420   4.534
11185W        W77968  41.744  23.590  13.385
11186W        W77969  26.260  28.306  14.548
11187W        W77970  16.031  22.780   2.693
11188W        W77971  39.263  41.843   4.631
11189W        W77972  22.211  34.179   0.411
11190W        W77973   4.909   6.743   4.837
11191W        W77974  20.402  44.972   3.408
11192W        W77975  18.711   8.957   5.444
11193W        W77976   3.282   7.226   2.803
11194W        W77977  35.693   0.935   4.952
11195W        W77978  11.351  44.496   2.645
11196W        W77979  17.611  24.045  11.528
11197W        W77980  12.846  23.504   2.420
11198W        W77981  10.573  25.301  10.713
11199W        W77982  21.479  12.817  10.864
11200W        W77983   9.166  34.834   1.176
11201W        W77984  12.731  22.506   3.389
11202W        W77985  16.606  34.155  12.915
11203W        W77986  31.070  15.096   0.862
11204W        W77987  28.828  14.630   0.359
11205W        W77988   2.366   9.234   2.258
11206W        W77989   1.320  16.550   3.701
11207W        W77990  40.426  15.552  14.076
11208W        W77991  31.691  20.972  11.977
11209W        W77992  18.690   6.216   3.301
11210W        W77993   0.945  42.715  13.417
11211W        W77994   4.166  16.768   2.637
11212W        W77995  41.162   3.957   0.453
11213W        W77996   4.273  25.042   1.419
11214W        W77997  35.443   3.898  10.098
11215W        W77998  21.897  43.092   1.455
11216W        W77999  27.038  37.447   5.588
11217W        W78000  10.421  16.268   1.988
11218W        W78001  13.856  33.229   0.311
11219W        W78002  40.379  12.662  10.075
11220W        W78003  10.327  26.488   0.694
11221W        W78004  24.803  23.936  13.460
11222W        W78005  26.999  14.910  11.547
11223W        W78006  24.172  32.093  14.341
11224W        W78007  25.464  17.350  12.967
11225W        W78008  15.620  13.163  14.361
11226W        W78009  39.846  44.421  10.560
11227W        W78010   8.925  24.929   1.773
11228W        W78011  43.515  16.999  12.428
11229W        W78012   0.952  11.494   4.673
11230W        W78013  38.559  10.719   4.256
11231W        W78014  31.177  40.060   3.703
11232W        W78015  18.823   3.925   3.658
11233W        W78016  16.255  29.643   1.375
11234W        W78017  16.804  38.969  14.087
11235W        W78018  16.993  13.726   0.154
11236W        W78019  15.157  15.601   4.160
11237W        W78020  13.926  14.311   2.690
11238W        W78021  12.259  23.338  10.588
11239W        W78022  42.540  24.963   2.150
11240W        W78023  24.237  21.113  14.208
11241W        W78024  28.397  16.670   3.115
11242W        W78025   5.008  22.986  11.175
11243W        W78026   4.953  40.018  10.889
11244W        W78027   1.803  35.920  10.853
11245W        W78028   5.749  26.570   0.856
11246W        W78029  17.664  20.562   0.514
11247W        W78030  31.967  43.375  14.663
11248W        W78031  42.291  30.125  11.580
11249W        W78032  32.520   1.235  10.805
11250W        W78033   9.908  21.786   0.642
11251W        W78034  36.362  21.193  10.716
11252W        W78035   7.417  39.526   4.223
11253W        W78036  44.338  20.718  13.813
11254W        W78037  24.571  41.965  13.849
11255W        W78038  18.138  14.837   1.221
11256W        W78039  14.849   6.839  11.158
11257W        W78040  16.875  11.690   3.561
11258W        W78041  21.173   6.218   0.290
11259W        W78042  21.283  21.750   3.248
11260W        W78043  41.465   6.238   2.352
11261W        W78044  24.028  30.687  13.608
11262W        W78045  17.790   6.213  14.930
11263W        W78046  15.764  11.907   4.195
11264W        W78047  20.942  26.696   2.173
11265W        W78048   5.673  21.758   4.623
11266W        W78049  40.469  39.063   1.411
11267W        W78050   6.165  21.756   4.490
11268W        W78051  32.519  17.659   4.662
11269W        W78052  39.430  40.973   4.168
11270W        W78053  42.258  20.199   1.945
11271W        W78054  38.264  13.728   4.057
11272W        W78055  28.631  15.129   3.323
11273W        W78056  43.034  30.002   3.854
11274W        W78057  33.639   5.738  14.323
11275W        W78058  15.040  27.583  13.364
11276W        W78059  39.005  10.466   2.308
11277W        W78060  40.762  32.456   2.703
11278W        W78061  32.249  10.709   4.145
11279W        W78062  42.794   2.892  11.105
11280W        W78063  27.401  40.843  14.264
11281W        W78064  11.127  34.660  13.483
11282W        W78065  22.556  36.653  13.045
11283W        W78066  26.020  34.528  12.018
11284W        W78067  43.027  15.529  11.616
11285W        W78068  27.204  37.116  10.845
11286W        W78069  31.665  27.721   4.467
11287W        W78070  28.612  23.113   1.768
11288W        W78071  10.437  22.738   5.000
11289W        W78072  30.261  42.364  11.664
11290W        W78073  26.159  40.711   1.805
11291W        W78074  30.308  23.207  11.640
11292W        W78075   1.985  28.193   0.951
11293W        W78076  27.543  44.288   4.882
11294W        W78077   6.842  39.373  11.645
11295W        W78078  37.512   4.096   0.961
11296W        W78079   7.935  31.064  13.962
11297W        W78080  38.343  42.306   2.881
11298W        W78081  38.831  27.058   3.084
11299W        W78082  44.887  17.173  13.580
11300W        W78083  18.335   0.294  11.515
11301W        W78084  20.850  24.509   1.779
11302W        W78085  17.697  42.339   2.760
11303W        W78086  39.883   4.829   1.774
11304W        W78087   1.504   2.676   3.112
11305W        W78088  19.010  15.257  14.892
11306W        W78089  43.336  21.247  14.032
11307W        W78090  30.034  18.583  10.905
11308W        W78091  24.955  21.474   0.173
11309W        W78092  18.384  20.527   3.982
11310W        W78093   2.933  38.860   2.749
11311W        W78094  11.388  32.151  13.047
11312W        W78095  21.265  24.385  13.904
11313W        W78096  28.060  24.149  14.403
11314W        W78097  38.699  41.995   1.937
11315W        W78098  28.171   1.844   0.473
11316W        W78099  37.083  24.018  10.543
11317W        W78100   2.217  41.096  14.011
11318W        W78101  11.470  26.417   0.141
11319W        W78102  24.762   3.425   1.825
11320W        W78103  25.170  28.510   1.730
11321W        W78104  24.190  26.956  13.554
11322W        W78105  38.994  10.077  14.898
11323W        W78106   0.452  32.098  10.739
11324W        W78107  29.339  44.504  12.045
11325W        W78108  41.415   7.406   4.076
11326W        W78109  42.130  44.293   4.529
11327W        W78110   0.495  15.215  11.120
11328W        W78111  15.680  27.660  14.600
11329W        W78112  34.498  31.331   0.301
11330W        W78113  41.861  42.334   4.454
11331W        W78114  13.903  25.144  12.512
11332W        W78115  33.000  11.064   0.830
11333W        W78116  30.162  28.119   2.006
11334W        W78117  15.072  26.184   2.813
11335W        W78118  17.100  10.114  10.942
11336W        W78119   5.178  26.860  10.751
11337W        W78120  11.682  32.131  13.505
11338W        W78121  14.459   3.922  12.903
11339W        W78122   5.367  15.992   4.132
11340W        W78123  29.827  28.605  11.471
11341W        W78124  27.501   8.363  11.415
11342W        W78125  22.251  23.795   0.010
11343W        W78126   4.010  22.237   4.136
11344W        W78127  19.817   7.306   3.029
11345W        W78128  27.868   2.804  12.000
11346W        W78129  42.525  41.843  12.487
11347W        W78130   6.932  40.576   2.350
11348W        W78131  40.718  10.851   0.682
11349W        W78132  26.355  17.367  11.789
11350W        W78133   2.507  36.313   3.817
11351W        W78134  12.807   8.453  13.390
11352W        W78135   9.401  43.988  10.735
11353W        W78136  33.550  21.953  13.873
11354W        W78137   4.816   3.171   2.570
11355W        W78138  26.181  21.014   3.418
11356W        W78139  42.519   4.882   2.575
11357W        W78140  15.656   6.639  12.494
11358W        W78141  28.574  32.690   0.770
11359W        W78142  43.955  44.776   2.356
11360W        W78143  39.303  13.554  13.596
11361W        W78144  23.788  22.121   4.668
11362W        W78145  24.044   6.741  11.932
11363W        W78146  24.559  30.340   1.095
11364W        W78147  34.783   8.470  10.215
11365W        W78148  26.914  38.515  11.547
11366W        W78149   6.676  22.338  14.346
11367W        W78150  40.592  39.473  14.484
11368W        W78151  28.735  30.174   0.259
11369W        W78152  27.595  39.877  12.523
11370W        W78153   1.939   5.147   4.582
11371W        W78154  18.561   0.037  11.150
11372W        W78155  21.431  39.465  14.937
11373W        W78156  17.812  30.849  12.177
11374W        W78157  44.538  33.149   0.085
11375W        W78158   1.960   3.299   1.786
11376W        W78159   9.933  34.460   0.257
11377W        W78160  35.914  42.493  11.427
11378W        W78161  28.809  22.871   0.897
11379W        W78162  23.442  35.076  14.033
11380W        W78163  20.671  42.239  13.451
11381W        W78164  25.233  18.688  11.938
11382W        W78165  30.559   5.506  12.149
11383W        W78166  31.952  34.135  13.962
11384W        W78167   7.675  28.623   1.276
11385W        W78168  33.613  29.958   5.064
11386W        W78169  17.804  21.497   4.096
11387W        W78170  12.160  35.631   1.325
11388W        W78171  28.656  29.661  12.158
11389W        W78172  28.102  21.571   3.786
11390W        W78173  14.391  43.851  14.813
11391W        W78174  32.153  40.641   1.714
11392W        W78175   2.986  42.311   1.396
11393W        W78176  33.589   5.823  12.409
11394W        W78177  44.122  33.104  13.900
11395W        W78178  18.212  25.103   0.220
11396W        W78179  36.296  44.952  11.224
11397W        W78180   1.911   0.297   2.784
11398W        W78181  30.568  33.050  13.536
11399W        W78182  10.724  23.457   2.882
11400W        W78183  19.690  27.901  11.919
11401W        W78184  37.151  40.415  12.872
11402W        W78185  44.938  38.915   2.743
11403W        W78186  29.288  13.140  14.387
11404W        W78187  31.545  28.514  12.962
11405W        W78188  15.972  11.062  10.662
11406W        W78189  33.027   4.251  13.126
11407W        W78190   6.292  38.093   1.191
11408W        W78191  40.850  19.459  12.604
11409W        W78192  25.134   0.678   0.829
11410W        W78193  31.965  25.161   1.777
11411W        W78194   4.625  37.243  11.898
11412W        W78195   7.445  42.303  14.828
11413W        W78196  37.889  18.724   3.757
11414W        W78197   3.388  40.539   2.379
11415W        W78198  12.744  44.191  12.346
11416W        W78199  33.713  39.777   1.276
11417W        W78200   2.667   4.464  14.877
11418W        W78201  20.263  30.876   3.244
11419W        W78202  44.393  14.757   2.683
11420W        W78203  31.695   6.133   5.052
11421W        W78204  22.953   5.451   3.245
11422W        W78205  44.748  19.730  11.253
11423W        W78206  24.486  11.339   0.234
11424W        W78207  41.064   7.845  13.589
11425W        W78208   9.337  28.140   5.209
11426W        W78209   7.911   8.024   4.244
11427W        W78210  38.359  17.184   2.704
11428W        W78211  36.782  17.793   4.633
11429W        W78212  27.156   6.511   4.228
11430W        W78213  14.279  39.453  11.236
11431W        W78214  27.099  30.110   0.395
11432W        W78215   5.267  36.909   0.206
11433W        W78216  21.599   4.913  12.198
11434W        W78217  38.027  18.083  10.950
11435W        W78218  19.337   5.473  14.354
11436W        W78219  20.075  32.856   0.945
11437W        W78220  21.658  14.738  11.552
11438W        W78221  19.332  39.421  12.407
11439W        W78222   2.413  21.868   4.108
11440W        W78223  40.566   4.621  10.132
11441W        W78224  13.177  40.567  14.353
11442W        W78225  13.000  41.920  14.216
11443W        W78226   8.860  12.098  12.646
11444W        W78227   9.348  22.038  12.004
11445W        W78228  43.365  32.249  11.566
11446W        W78229  29.567   9.291  13.616
11447W        W78230  18.130  21.237  11.918
11448W        W78231  39.479   8.635   0.711
11449W        W78232   6.776  16.375  14.266
11450W        W78233  35.482  25.005  12.852
11451W        W78234  34.945  39.844   4.544
11452W        W78235   5.375   7.439  14.010
11453W        W78236  44.375  34.594  10.460
11454W        W78237  28.031  35.096   2.800
11455W        W78238  18.748  15.892   3.218
11456W        W78239   6.721   7.887  12.455
11457W        W78240  24.542  15.611  14.836
11458W        W78241  23.631  30.468   4.411
11459W        W78242   9.181  26.072   1.393
11460W        W78243  14.332  19.813   4.168
11461W        W78244   4.212  42.376   0.812
11462W        W78245  28.061  27.060  10.586
11463W        W78246  17.851  31.214   0.926
11464W        W78247   3.561   9.447   0.238
11465W        W78248  15.605  15.223  11.955
11466W        W78249  26.414  27.477  13.920
11467W        W78250  22.476   7.500  13.254
11468W        W78251   3.729  37.605   4.587
11469W        W78252   4.824  23.104  10.702
11470W        W78253   3.827  42.105   1.036
11471W        W78254  42.363  29.197  13.114
11472W        W78255  16.755  17.752  12.312
11473W        W78256  25.413  43.514  11.958
11474W        W78257  36.872   7.973  14.699
11475W        W78258  35.048  23.498   0.542
11476W        W78259  40.459  34.022   2.049
11477W        W78260   3.401  19.727   2.698
11478W        W78261  32.970   5.322   3.678
11479W        W78262  30.978   8.332   4.683
11480W        W78263  31.247  13.313  14.539
11481W        W78264  23.642  38.507   2.149
11482W        W78265   3.729   3.785  14.519
11483W        W78266  29.492  18.838   2.295
11484W        W78267  10.905   9.343  13.211
11485W        W78268  34.309  38.347   0.733
11486W        W78269  11.707  20.340  13.147
11487W        W78270  27.012  31.527   4.116
11488W        W78271   4.390  26.456  11.336
11489W        W78272   9.112  23.268   0.847
11490W        W78273  31.903  34.553   1.504
11491W        W78274  41.351  32.723  14.410
11492W        W78275   9.248  16.705   4.850
11493W        W78276   0.595  10.782   3.661
11494W        W78277  31.156  37.002   1.301
11495W        W78278  15.851  35.921  13.002
11496W        W78279   3.941   3.489  10.814
11497W        W78280  30.829  37.696   0.737
11498W        W78281  10.893  11.363   4.136
11499W        W78282  37.406  42.023   3.834
11500W        W78283  15.137  29.445   4.002
11501W        W78284   1.415  36.495   2.832
11502W        W78285  24.112  14.490  10.393
11503W        W78286   6.435  18.051  11.742
11504W        W78287  12.822  21.525  14.613
11505W        W78288  24.118  12.376   4.229
11506W        W78289   8.907   4.934  10.652
11507W        W78290   8.791  26.454  11.073
11508W        W78291  22.082  40.263  14.321
11509W        W78292  17.768  30.370  11.965
11510W        W78293  35.521  10.393  12.889
11511W        W78294  40.071   7.201  12.148
11512W        W78295   5.979   4.190   2.854
11513W        W78296   9.738  21.676   3.850
11514W        W78297  21.689  36.949  14.461
11515W        W78298  25.578  21.750   2.371
11516W        W78299  36.223  40.768   3.646
11517W        W78300  44.373  28.143  12.656
11518W        W78301  22.076  21.170   0.291
11519W        W78302  17.867  16.538  13.930
11520W        W78303  40.504  41.078   4.050
11521W        W78304  20.216  32.065   1.828
11522W        W78305   4.644  41.921   4.137
11523W        W78306   6.847  43.877   1.867
11524W        W78307  35.788  31.616   3.585
11525W        W78308  43.454   6.819  14.400
11526W        W78309  19.562   0.421   4.372
11527W        W78310  23.694  32.421  14.854
11528W        W78311   7.516  42.103  13.895
11529W        W78312  26.890  14.006   1.207
11530W        W78313  10.165  25.234   3.397
11531W        W78314   6.900  31.825  11.565
11532W        W78315  31.430  29.599  13.197
11533W        W78316  26.455  39.422  11.537
11534W        W78317  11.319  13.339   3.132
11535W        W78318  41.810  24.109  14.241
11536W        W78319   0.520  18.243   2.741
11537W        W78320  15.603   9.143  11.558
11538W        W78321  42.041  36.344   0.864
11539W        W78322  44.862  11.397   2.810
11540W        W78323  35.949  19.499  13.575
11541W        W78324  42.289   2.290   3.017
11542W        W78325  39.014  42.105   2.341
11543W        W78326  37.488  13.102  12.021
11544W        W78327  27.576  31.830   2.672
11545W        W78328  33.475  25.925   0.964
11546W        W78329  33.980  33.913   3.177
11547W        W78330   8.712  36.527   3.391
11548W        W78331  21.242  41.768   2.886
11549W        W78332  30.821   9.851   3.778
11550W        W78333  18.818  24.042  12.381
11551W        W78334  19.099  11.927  11.035
11552W        W78335  31.041  42.531  13.352
11553W        W78336  28.570  25.122   4.211
11554W        W78337  30.638  38.376  14.059
11555W        W78338  22.520  13.497  10.783
11556W        W78339  23.175   0.655  13.122
11557W        W78340   7.468  39.190   1.517
11558W        W78341  41.397   8.265   1.220
11559W        W78342  41.871  35.009   2.391
11560W        W78343  20.540  40.495   0.043
11561W        W78344  13.848  33.863   2.587
11562W        W78345   8.907  36.317  11.898
11563W        W78346  25.099  27.048  12.596
11564W        W78347  12.993   3.431  11.220
11565W        W78348  11.827  13.842  10.962
11566W        W78349  32.032  38.603  13.577
11567W        W78350  24.136  40.842  12.091
11568W        W78351  21.968  10.280   1.775
11569W        W78352  16.727  23.763   1.325
11570W        W78353  30.167   8.240   0.183
11571W        W78354  29.101  36.948   1.000
11572W        W78355   2.733  15.762  13.905
11573W        W78356  30.728  42.123   1.400
11574W        W78357  29.549  23.716   0.746
11575W        W78358  41.476  12.231  13.111
11576W        W78359  31.539   0.350   3.282
11577W        W78360  27.211  12.329   1.866
11578W        W78361  33.914  30.366   3.128
11579W        W78362  40.954  16.108  11.015
11580W        W78363  27.594  38.726  11.161
11581W        W78364  37.284  18.539   4.143
11582W        W78365  24.793   2.768  11.539
11583W        W78366  44.339  38.569  12.900
11584W        W78367  19.257   0.393  13.179
11585W        W78368  29.011  23.793  12.149
11586W        W78369  36.565  18.766   0.462
11587W        W78370  21.104   2.134  12.613
11588W        W78371   5.482  31.154   0.680
11589W        W78372  15.911  35.229  11.153
11590W        W78373  39.374  31.152  12.570
11591W        W78374  12.402  24.148  13.290
11592W        W78375   2.508  27.545   1.433
11593W        W78376  11.541  33.551   4.385
11594W        W78377  27.377  25.572   4.735
11595W        W78378   8.914  21.234  10.923
11596W        W78379  24.227  21.140   4.517
11597W        W78380   9.264  22.240   4.252
11598W        W78381  29.920  19.799   1.191
11599W        W78382   7.289  18.549  12.245
11600W        W78383  36.382   3.514  12.133
11601W        W78384  44.512  21.539   0.848
11602W        W78385  17.147  13.159   0.741
11603W        W78386  38.062  16.591   3.693
11604W        W78387   0.951  35.960   3.841
11605W        W78388  16.139  32.233  14.447
11606W        W78389  11.131  22.544  13.487
11607W        W78390   0.797  25.224   4.075
11608W        W78391  26.626   0.355   1.492
11609W        W78392  16.622  34.921   0.740
11610W        W78393  31.994   7.815  13.820
11611W        W78394  11.831  28.278  14.314
11612W        W78395  43.546   6.400  14.712
11613W        W78396  42.837  36.303   0.439
11614W        W78397  40.788  13.215   0.291
11615W        W78398  25.922  32.906  14.071
11616W        W78399  29.344  14.903   2.617
11617W        W78400   7.628  32.429  14.988
11618W        W78401  29.367  27.948  11.901
11619W        W78402  11.770   9.589  12.214
11620W        W78403  15.221   0.638   0.752
11621W        W78404  19.350  37.648   3.072
11622W        W78405  28.052  30.674   2.090
11623W        W78406   5.137  19.738   3.989
11624W        W78407  35.951  15.731  10.703
11625W        W78408  15.678  22.309   0.024
11626W        W78409  24.332  43.351   2.257
11627W        W78410  15.765  10.286  13.057
11628W        W78411  36.101  16.096  11.306
11629W        W78412  19.208   1.121  11.898
11630W        W78413  23.947   7.842   4.554
11631W        W78414  26.602  15.017  13.585
11632W        W78415  40.095  35.180  13.379
11633W        W78416  24.416  39.290   4.988
11634W        W78417  18.369  23.907   2.223
11635W        W78418  39.939   9.746  10.638
11636W        W78419  21.942  43.303   2.760
11637W        W78420   3.876  21.535   3.299
11638W        W78421  34.177  22.163  11.390
11639W        W78422  39.088  36.845   3.240
11640W        W78423  24.109  19.974   0.259
11641W        W78424  34.827  10.840   3.358
11642W        W78425  32.872  26.571  14.545
11643W        W78426  39.452  23.420  10.763
11644W        W78427  22.125  15.817  14.029
11645W        W78428  19.864   5.849   0.823
11646W        W78429  40.236  35.465  11.088
11647W        W78430  19.476  11.118  13.523
11648W        W78431  23.578  18.674   1.254
11649W        W78432  12.144  24.166  11.150
11650W        W78433  24.313  30.634   0.743
11651W        W78434  39.210  22.472  10.817
11652W        W78435   5.776  37.812  12.712
11653W        W78436   7.897  23.990  12.474
11654W        W78437  20.309  14.228  13.967
11655W        W78438   8.259  25.580   3.322
11656W        W78439  24.990  32.589  13.977
11657W        W78440  23.893  28.995   4.510
11658W        W78441  13.819   6.366   4.870
11659W        W78442  33.108  39.530  13.377
11660W        W78443  28.422   8.104  14.530
11661W        W78444  28.305  14.726   0.352
11662W        W78445  18.547   7.240   2.353
11663W        W78446  26.640  21.606  13.878
11664W        W78447   0.616  35.328  13.580
11665W        W78448  22.588  18.699   4.533
11666W        W78449  38.824  28.945   2.960
11667W        W78450  26.792  29.893   4.263
11668W        W78451  28.709  16.265  12.084
11669W        W78452  37.016   5.043  10.205
11670W        W78453  23.119  34.295   1.606
11671W        W78454   9.304  19.178  13.823
11672W        W78455  22.571   3.757  13.048
11673W        W78456  44.282  14.677  14.563
11674W        W78457  44.178   9.735   0.996
11675W        W78458  22.513  33.517   4.000
11676W        W78459  19.460  34.124   4.211
11677W        W78460  34.415  20.604  11.767
11678W        W78461  11.782  24.917  11.953
11679W        W78462  28.375  28.126  13.123
11680W        W78463  37.822   6.439  12.511
11681W        W78464  43.202  15.736  13.453
11682W        W78465  29.458   8.837   5.068
11683W        W78466  27.161  27.624  13.460
11684W        W78467  22.104  22.956  14.406
11685W        W78468  41.580  25.868  14.973
11686W        W78469  13.818  34.249   0.399
11687W        W78470   7.292  37.949  12.450
11688W        W78471  30.104  41.894   2.628
11689W        W78472   4.633  40.822   2.899
11690W        W78473  17.699  29.622  14.326
11691W        W78474  11.214  20.778  12.502
11692W        W78475  29.890  16.985  10.294
11693W        W78476   3.843  42.833  10.805
11694W        W78477  26.388  20.145  10.977
11695W        W78478   2.549  44.316  13.901
11696W        W78479   4.773   9.120   1.388
11697W        W78480  28.465  38.885  14.482
11698W        W78481  21.805  19.482  13.950
11699W        W78482  13.212  44.559  12.467
11700W        W78483  23.107  21.110   2.937
11701W        W78484   6.245  36.521   4.579
11702W        W78485  31.118   9.224  12.443
11703W        W78486   7.758  36.802  14.584
11704W        W78487  37.120  36.966   2.872
11705W        W78488  40.841  25.211  13.244
11706W        W78489   9.761  13.088   1.396
11707W        W78490  41.379  38.800   0.402
11708W        W78491  15.556  30.157   1.630
11709W        W78492  21.610  39.989   1.920
11710W        W78493   8.868  18.038   4.925
11711W        W78494  32.007  23.726  13.855
11712W        W78495   8.918   1.045   5.043
11713W        W78496  39.865  28.925   3.007
11714W        W78497  40.867  23.678   3.839
11715W        W78498  21.654   2.186  14.321
11716W        W78499  38.112  21.953   4.371
11717W        W78500  20.466   1.933  12.599
11718W        W78501  29.668  37.384  10.936
11719W        W78502  41.960  21.586   1.691
11720W        W78503  32.428  24.497   1.860
11721W        W78504  40.924   0.948   4.525
11722W        W78505   2.607  36.891  11.227
11723W        W78506  16.173   6.253  11.669
11724W        W78507  13.667  39.897  10.605
11725W        W78508  18.307  27.632  12.375
11726W        W78509  34.063  31.835   3.199
11727W        W78510  26.601   9.796  13.195
11728W        W78511   6.167   3.773   1.968
11729W        W78512  28.933  34.371   0.057
11730W        W78513  37.610   3.359  11.651
11731W        W78514  16.348  24.920   0.309
11732W        W78515  35.050  43.569   3.337
11733W        W78516  41.449  22.753  13.494
11734W        W78517  12.807  27.958  14.333
11735W        W78518  26.751  35.915  14.374
11736W        W78519  28.109  19.344  13.511
11737W        W78520  34.120   3.201  10.761
11738W        W78521  35.358   2.725  13.464
11739W        W78522  18.848   2.420   3.686
11740W        W78523  35.549  42.871   2.810
11741W        W78524  44.279  32.025   1.169
11742W        W78525  20.029   8.272   4.669
11743W        W78526  29.706  15.078  14.903
11744W        W78527   7.168  27.176   3.749
11745W        W78528  42.811  40.608   4.541
11746W        W78529  18.585  32.951  12.452
11747W        W78530  22.546  39.220  11.624
11748W        W78531  30.093  22.531  14.207
11749W        W78532  43.004  15.183   2.773
11750W        W78533  23.700  38.528   1.276
11751W        W78534   6.471  36.317   1.325
11752W        W78535  43.930  42.586   4.969
11753W        W78536  40.934  42.673  13.554
11754W        W78537  34.557   2.339   3.341
11755W        W78538  33.929  16.402  10.661
11756W        W78539  15.743  14.180   3.243
11757W        W78540   0.295   0.210  13.972
11758W        W78541  36.379  32.493   2.614
11759W        W78542  41.452  29.543   1.903
11760W        W78543  38.239  37.125  11.441
11761W        W78544   0.792   8.149  13.253
11762W        W78545   4.892  43.499  14.952
11763W        W78546  28.793  40.256   1.712
11764W        W78547  39.244  20.969   1.377
11765W        W78548  29.914  13.592  14.844
11766W        W78549  13.323  19.263  11.949
11767W        W78550   2.791   9.454  14.969
11768W        W78551  31.626  15.109   0.776
11769W        W78552   4.673   0.746   5.007
11770W        W78553  24.094  12.920  11.289
11771W        W78554   0.719  25.665   2.801
11772W        W78555  43.815  14.149   1.401
11773W        W78556  42.929  10.239   0.580
11774W        W78557   0.812   7.322  12.031
11775W        W78558  31.526  15.838  14.824
11776W        W78559  42.871  44.017   5.118
11777W        W78560   2.456  18.624  13.346
11778W        W78561   1.064  28.129  12.104
11779W        W78562  44.837  31.934  14.989
11780W        W78563   0.289  42.771  12.134
11781W        W78564  27.643  33.809   3.742
11782W        W78565   8.245  29.652   1.050
11783W        W78566  33.821  37.273   2.117
11784W        W78567  15.613  18.099   0.543
11785W        W78568  17.589   7.885  11.947
11786W        W78569  42.248  33.740   0.091
11787W        W78570  23.317  33.407   0.844
11788W        W78571   8.756  11.303  13.838
11789W        W78572  41.877  27.014   3.346
11790W        W78573  40.763  23.010  11.148
11791W        W78574  13.662  22.973   2.850
11792W        W78575  21.128   4.142  12.452
11793W        W78576  34.575   8.658   3.704
11794W        W78577  20.190  42.556   3.500
11795W        W78578  42.814  39.815   0.341
11796W        W78579  33.981  15.190   1.752
11797W        W78580  39.602  22.820  13.526
11798W        W78581   7.425  14.549  10.765
11799W        W78582  21.124  11.619   1.188
11800W        W78583  32.803  41.014  14.920
11801W        W78584  43.868   3.647  13.090
11802W        W78585  21.026  41.191  11.447
11803W        W78586  22.797  16.976  12.260
11804W        W78587   4.391  25.963  11.512
11805W        W78588  28.077  22.264  12.471
11806W        W78589   5.020  27.468  12.047
11807W        W78590  17.335   2.981   3.296
11808W        W78591  10.754  34.021  12.958
11809W        W78592   9.668  10.807   1.263
11810W        W78593  15.118  10.376  14.291
11811W        W78594  26.359  35.971  10.464
11812W        W78595  37.745  34.730  12.335
11813W        W78596   5.264  12.612  14.305
11814W        W78597  23.256  10.828   3.148
11815W        W78598  15.708  15.194   1.414
11816W        W78599  13.555  31.386   0.077
11817W        W78600  36.469  34.423   1.286
11818W        W78601  31.394  37.636  11.106
11819W        W78602   0.847  44.382   1.995
11820W        W78603  34.359  12.642   1.173
11821W        W78604  13.097  23.623  11.612
11822W        W78605   7.305   7.185  10.960
11823W        W78606  30.229  31.935   3.241
11824W        W78607   2.038  31.224  13.892
11825W        W78608   0.794  37.955   4.797
11826W        W78609  36.779   1.746  13.871
11827W        W78610  33.538   4.934  10.806
11828W        W78611   4.157   2.068  13.505
11829W        W78612  44.722  30.326  11.889
11830W        W78613  11.872  34.429  14.461
11831W        W78614   6.680   7.662   3.661
11832W        W78615  32.445  30.430  14.323
11833W        W78616  28.074  20.624   4.994
11834W        W78617  25.552  44.454  14.196
11835W        W78618  15.937  24.944   3.036
11836W        W78619  24.089  43.768  10.952
11837W        W78620  29.471  30.307   5.039
11838W        W78621  12.472  32.404   0.336
11839W        W78622  22.226  13.339  14.095
11840W        W78623  42.843  35.981  14.745
11841W        W78624  33.857   6.334  14.974
11842W        W78625  43.028   6.980  11.535
11843W        W78626   6.742  19.139   3.753
11844W        W78627  41.016  37.387   4.481
11845W        W78628  28.513  40.466  11.405
11846W        W78629  32.857  25.686  13.925
11847W        W78630   0.389  30.981   1.779
11848W        W78631  37.321  25.913   4.093
11849W        W78632  39.676  28.460   3.132
11850W        W78633  33.067   6.244  11.859
11851W        W78634  22.024  31.403  10.214
11852W        W78635  12.568  33.112  12.360
11853W        W78636  42.347  22.297  13.563
11854W        W78637  21.123  30.424  11.090
11855W        W78638  31.017  27.376  13.166
11856W        W78639  18.055  32.210   0.534
11857W        W78640   1.426   2.190  14.858
11858W        W78641  23.673  19.477   3.161
11859W        W78642   1.467  21.928  10.776
11860W        W78643  11.330  34.592   4.528
11861W        W78644  20.347  10.936   4.242
11862W        W78645  26.606  18.138  10.696
11863W        W78646  14.380  18.240   2.779
11864W        W78647  41.989  11.615   4.939
11865W        W78648  43.358  34.407  11.122
11866W        W78649   7.107  44.607   4.633
11867W        W78650  19.168  41.464   4.293
11868W        W78651  39.956  21.661   1.432
11869W        W78652  33.413  27.038   2.255
11870W        W78653   1.368   8.082  12.806
11871W        W78654  42.697  24.136   3.181
11872W        W78655   2.599   5.880  11.958
11873W        W78656  10.423  40.121   4.179
11874W        W78657  29.608  41.213  11.093
11875W        W78658  33.075  29.107   2.384
11876W        W78659  18.290   4.886   1.301
11877W        W78660  35.469  14.535   1.920
11878W        W78661  33.932  14.632   4.114
11879W        W78662  34.958  44.299   0.383
11880W        W78663  40.373  21.736   4.885
11881W        W78664  28.533  16.339   1.445
11882W        W78665  16.674  10.623  10.880
11883W        W78666  28.088   7.346   2.760
11884W        W78667  10.244  12.894   4.114
11885W        W78668  33.891  25.948   0.602
11886W        W78669   1.908  19.238  13.711
11887W        W78670  40.842  11.770   3.592
11888W        W78671  11.195  13.231   4.719
11889W        W78672  29.742   5.196  13.298
11890W        W78673  27.933   6.817   1.650
11891W        W78674  38.890  18.501   2.637
11892W        W78675  32.333  39.005  14.316
11893W        W78676   0.728  22.872  11.690
11894W        W78677  18.823   0.049  13.098
11895W        W78678   4.522  13.849  13.820
11896W        W78679  21.598  27.448   2.413
11897W        W78680  10.716   0.820  12.852
11898W        W78681  27.734   5.049  11.372
11899W        W78682  13.253  34.667  12.393
11900W        W78683  39.024  16.811  11.528
11901W        W78684  16.461  27.633   3.621
11902W        W78685  32.136  39.787   2.262
11903W        W78686  28.908  18.489   3.663
11904W        W78687  16.432  14.229   4.099
11905W        W78688   6.752  39.985   1.149
11906W        W78689   0.651  41.969  12.866
11907W        W78690  29.479  34.360  10.552
11908W        W78691  26.886  28.602  10.915
11909W        W78692  21.470   6.198  13.411
11910W        W78693   1.234  13.227   4.514
11911W        W78694  21.576  23.470   2.361
11912W        W78695  30.988  30.626  14.527
11913W        W78696  12.860  19.073  11.907
11914W        W78697  33.675  32.679   1.332
11915W        W78698  23.812   6.455  10.190
11916W        W78699  35.446   0.359   4.157
11917W        W78700  18.545  29.865  12.446
11918W        W78701  29.415  39.907   4.327
11919W        W78702   5.379   1.391   0.335
11920W        W78703  12.748  31.778  11.076
11921W        W78704  40.091  26.747  10.714
11922W        W78705   5.389  24.223   0.894
11923W        W78706  27.583   7.843   1.753
11924W        W78707  16.285  24.590   2.912
11925W        W78708  29.045   8.251   0.684
11926W        W78709   9.441  30.530   3.787
11927W        W78710   6.222  29.616   4.648
11928W        W78711  44.208  41.629   1.310
11929W        W78712  44.384  30.738   3.391
11930W        W78713  16.812  14.164   2.626
11931W        W78714  14.752  31.090  12.471
11932W        W78715  33.366  41.971   2.089
11933W        W78716   8.243  35.928  12.469
11934W        W78717  43.121   1.710  11.406
11935W        W78718  27.918  33.699  12.798
11936W        W78719   6.410  29.484  13.003
11937W        W78720   4.287  11.722   0.725
11938W        W78721   9.847  32.489  13.306
11939W        W78722   7.748   6.457   1.301
11940W        W78723  37.957  30.445  14.732
11941W        W78724  21.384  13.402  14.284
11942W        W78725  25.460  28.614  11.125
11943W        W78726  43.971  30.929  14.715
11944W        W78727   3.591   7.652   2.851
11945W        W78728  29.505  29.612  14.770
11946W        W78729  36.589  30.930   0.736
11947W        W78730  12.153  37.445   0.107
11948W        W78731  11.157  15.344  11.414
11949W        W78732  29.944   0.406   2.258
11950W        W78733  43.807   1.289   2.566
11951W        W78734  20.216  24.470   1.702
11952W        W78735  21.252  24.587   0.800
11953W        W78736  44.788  39.010  11.124
11954W        W78737   4.920  26.937   2.922
11955W        W78738   3.296  35.635   1.263
11956W        W78739  10.139  16.876   1.321
11957W        W78740   9.357  12.696   3.132
11958W        W78741   5.308  30.345  11.195
11959W        W78742   1.005   5.524  11.581
11960W        W78743  16.168  40.980   2.750
11961W        W78744  40.882  36.822   1.277
11962W        W78745  10.051   0.520   0.943
11963W        W78746  28.761  27.998   2.136
11964W        W78747  36.376  28.505   4.182
11965W        W78748   7.973  20.723  12.015
11966W        W78749  11.324  38.978  13.409
11967W        W78750  11.328  28.451  14.385
11968W        W78751  13.630  23.560  13.488
11969W        W78752  37.428  20.542  13.566
11970W        W78753  36.670  18.257  10.741
11971W        W78754  21.029  24.671  10.474
11972W        W78755  30.861  22.635   3.783
11973W        W78756  19.318  10.738  12.703
11974W        W78757  30.405  37.034  14.263
11975W        W78758   2.840  18.171  14.839
11976W        W78759  11.325  42.929   3.594
11977W        W78760   7.696  40.585   0.755
11978W        W78761  23.663  11.909   0.961
11979W        W78762  19.980  27.470  11.203
11980W        W78763   4.001  39.809  10.760
11981W        W78764  12.196  43.442  12.031
11982W        W78765  26.054   1.501   1.234
11983W        W78766  21.966  36.408   4.069
11984W        W78767  27.290   7.878   4.503
11985W        W78768  20.455  26.412  11.126
11986W        W78769  14.350  27.444   4.609
11987W        W78770   0.007  13.189   2.428
11988W        W78771  15.358  27.332  13.074
11989W        W78772  17.601  28.982   4.097
11990W        W78773   3.464   3.956   0.782
11991W        W78774  12.839   1.896   0.924
11992W        W78775   7.476  36.515   2.736
11993W        W78776  17.335  29.056  10.309
11994W        W78777  20.682  17.922   0.073
11995W        W78778  44.502  35.489   1.182
11996W        W78779  23.047   0.505   1.976
11997W        W78780   4.831  32.145   2.805
11998W        W78781  24.766   5.426   2.783
11999W        W78782  10.164  29.883   2.832
12000W        W78783  44.288  12.822  14.094
12001W        W78784  26.248  14.069  14.258
12002W        W78785   8.646  41.861  12.070
12003W        W78786   1.799  38.157   3.286
12004W        W78787  38.988  14.397  12.040
12005W        W78788  41.893  27.689  14.359
12006W        W78789  23.771  23.565  13.503
12007W        W78790   7.230   7.187   0.266
12008W        W78791  10.702  44.921  14.231
12009W        W78792   4.754   5.901  12.034
12010W        W78793  35.999  19.865   9.836
12011W        W78794  27.260   5.268  12.009
12012W        W78795  35.899  13.328  10.672
12013W        W78796  31.113  26.856  12.421
12014W        W78797  10.116  23.831  14.302
12015W        W78798  21.772   6.424  10.673
12016W        W78799  39.006  30.207   4.245
12017W        W78800  12.934  29.408   2.835
12018W        W78801  44.352  25.457  12.965
12019W        W78802  42.903   2.229   0.116
12020W        W78803  37.723  36.786   2.274
12021W        W78804   5.167  41.822   4.196
12022W        W78805  11.092   1.756  11.584
12023W        W78806  37.330   9.825   2.215
12024W        W78807  34.166   3.945   0.915
12025W        W78808   1.431  10.879  14.323
12026W        W78809  37.371  24.610   1.685
12027W        W78810  31.654  38.737   2.616
12028W        W78811  34.683  43.922   2.322
12029W        W78812  41.771  21.682  14.686
12030W        W78813  36.400  36.028   0.246
12031W        W78814  27.154  34.060  11.376
12032W        W78815  30.436  17.603   0.282
12033W        W78816  13.583  24.679  11.998
12034W        W78817  39.493  10.292   1.124
12035W        W78818   9.783   7.136   3.694
12036W        W78819  19.281   5.906  12.529
12037W        W78820   2.292   4.677  13.207
12038W        W78821   1.218  28.895   1.075
12039W        W78822  13.118  27.707   2.397
12040W        W78823   2.494  26.776  12.951
12041W        W78824  30.002  37.060  12.040
12042W        W78825  11.619  15.995   3.335
12043W        W78826  37.088   1.004   1.323
12044W        W78827   5.404   7.101   4.108
12045W        W78828  16.618  16.296  11.412
12046W        W78829  37.561  34.140   1.730
12047W        W78830  32.345  41.270  14.774
12048W        W78831  40.992   5.404  10.866
12049W        W78832  22.932  35.063   3.234
12050W        W78833  19.391  29.072   0.966
12051W        W78834  30.173  25.978   2.808
12052W        W78835  19.632  38.413   3.629
12053W        W78836  36.580  30.168   2.697
12054W        W78837   3.839  22.230   4.610
12055W        W78838  12.144  42.073  11.444
12056W        W78839  34.096  22.011   1.381
12057W        W78840  17.075  23.758   1.760
12058W        W78841  19.203  19.692   2.713
12059W        W78842  29.588  43.424   0.814
12060W        W78843   5.741  44.902   0.364
12061W        W78844  22.388   7.935  12.035
12062W        W78845  21.451   8.869   0.530
12063W        W78846  15.267  15.320   2.180
12064W        W78847   5.324   1.965   1.237
12065W        W78848  23.602  40.845  12.838
12066W        W78849  40.810  32.451  13.637
12067W        W78850  30.727   4.924   3.132
12068W        W78851  23.252  10.123  10.316
12069W        W78852   0.487  16.093   4.126
12070W        W78853  36.071  32.104   0.881
12071W        W78854   9.383  44.974  12.852
12072W        W78855  36.262  33.434  14.403
12073W        W78856  41.931  39.526  10.822
12074W        W78857  29.944   7.228  12.900
12075W        W78858  44.442  19.496  12.956
12076W        W78859  28.961   6.765  14.894
12077W        W78860   2.982  33.896   1.205
12078W        W78861  41.491  15.660   2.933
12079W        W78862  14.475  27.567  14.419
12080W        W78863  20.657  24.441   4.205
12081W        W78864  38.901  21.660  13.874
12082W        W78865  14.402  40.032  13.483
12083W        W78866  28.619   8.940   3.145
12084W        W78867  11.711  30.523  12.619
12085W        W78868  30.106  39.615  12.815
12086W        W78869   7.890  17.124  12.453
12087W        W78870   1.344   4.624  14.900
12088W        W78871  37.643  37.478   1.374
12089W        W78872   3.890   6.831   4.941
12090W        W78873  17.275  39.898  14.851
12091W        W78874  11.803   4.201   3.302
12092W        W78875  19.714  13.294   0.069
12093W        W78876  32.542  27.709  13.810
12094W        W78877  12.902  14.937   2.021
12095W        W78878  37.295  10.274   4.530
12096W        W78879  23.145   0.478   3.370
12097W        W78880  13.720   0.864  14.022
12098W        W78881  43.418  11.710   1.285
12099W        W78882  16.971  21.197   5.031
12100W        W78883  41.967  15.883  11.672
12101W        W78884   6.915  26.015  13.502
12102W        W78885   3.705  43.376  13.806
12103W        W78886   7.888  37.482  14.105
12104W        W78887  19.112   2.532   0.050
12105W        W78888  10.744  34.337  13.375
12106W        W78889  35.903  32.471   3.623
12107W        W78890  30.479  18.098  13.562
12108W        W78891  32.865  18.092   3.731
12109W        W78892   1.687   8.966   2.799
12110W        W78893  38.512  11.197   3.212
12111W        W78894  12.863  11.767  14.386
12112W        W78895  29.567  16.569  14.781
12113W        W78896   6.633   3.861  12.535
12114W        W78897  25.956  26.602   2.230
12115W        W78898  26.428  32.999  10.680
12116W        W78899  32.876  11.471   3.636
12117W        W78900  35.013  31.669   3.239
12118W        W78901   9.731  13.434   0.425
12119W        W78902  19.857   5.779  12.556
12120W        W78903  22.037  21.207  13.499
12121W        W78904  19.773  35.122   0.773
12122W        W78905  31.551  16.650  14.325
12123W        W78906   0.242  42.931   4.601
12124W        W78907  17.752  30.928   4.057
12125W        W78908  33.152  27.494  11.089
12126W        W78909   7.226  43.502   3.343
12127W        W78910  42.250  38.977   0.379
12128W        W78911   3.140  36.519  11.608
12129W        W78912  33.577   8.724  10.691
12130W        W78913  18.081   9.322  13.131
12131W        W78914  29.951  32.866   2.924
12132W        W78915  29.140  18.279  12.835
12133W        W78916  15.782  41.764  11.554
12134W        W78917  42.135  24.446   4.676
12135W        W78918  19.145  40.266   1.142
12136W        W78919   5.464  12.748  12.958
12137W        W78920  12.839   5.672  11.145
12138W        W78921  11.242  27.976   3.378
12139W        W78922   8.168  36.827   2.228
12140W        W78923  16.921  31.495  11.615
12141W        W78924  23.259  35.138   1.674
12142W        W78925   6.708  15.206  11.128
12143W        W78926   0.195  21.586  11.602
12144W        W78927   2.195  29.206   4.634
12145W        W78928  25.250   2.941  10.969
12146W        W78929  38.834  10.764   3.815
12147W        W78930  44.203  15.794  13.561
12148W        W78931  14.450   7.051   5.101
12149W        W78932   5.660   6.624   2.258
12150W        W78933  13.712   1.478   1.795
12151W        W78934   0.443  10.760  14.741
12152W        W78935  40.985  33.058   4.650
12153W        W78936   5.182   0.723   0.861
12154W        W78937  41.751  40.905   3.732
12155W        W78938   8.890   0.841   4.519
12156W        W78939  20.617  31.117  12.591
12157W        W78940  33.604   3.892  12.358
12158W        W78941   6.249   6.842   0.435
12159W        W78942  36.011  35.638  12.523
12160W        W78943  29.416  39.458  11.502
12161W        W78944  17.086  36.531  12.765
12162W        W78945  10.987  36.474  13.962
12163W        W78946  12.254   9.745   3.034
12164W        W78947   5.154   0.046   2.695
12165W        W78948  32.888  42.960  12.106
12166W        W78949  14.093  13.276   0.684
12167W        W78950  30.110  37.089  12.906
12168W        W78951  20.612  26.050  12.844
12169W        W78952  10.379  18.519  12.095
12170W        W78953  19.477  34.258  14.948
12171W        W78954  31.953  14.120  13.907
12172W        W78955  24.503  21.627   1.300
12173W        W78956  18.250   3.943  14.430
12174W        W78957  26.555  33.286   4.697
12175W        W78958  41.801  14.312  11.622
12176W        W78959  10.049  10.379   0.437
12177W        W78960  37.448  17.802   3.682
12178W        W78961  28.629   9.327  14.052
12179W        W78962  37.172  18.547  14.377
12180W        W78963  27.657  37.863   3.057
12181W        W78964   8.188  24.031   3.452
12182W        W78965  43.225   6.222   4.999
12183W        W78966  41.540   8.173  13.083
12184W        W78967  22.149   3.286  13.745
12185W        W78968   6.115  18.085   0.846
12186W        W78969   8.199   9.343   4.918
12187W        W78970  17.002  43.460  12.000
12188W        W78971  16.200  30.313   4.731
12189W        W78972  31.986  23.755   2.709
12190W        W78973  22.227  17.507  11.317
12191W        W78974  43.160  33.060   0.693
12192W        W78975  13.285  30.469   2.236
12193W        W78976  27.998  38.069  10.828
12194W        W78977  40.013  18.677   2.372
12195W        W78978  21.722  38.509   2.679
12196W        W78979  40.919   1.113  12.207
12197W        W78980  26.320  35.603   4.896
12198W        W78981  34.733  36.045  13.669
12199W        W78982   0.577  11.279   2.333
12200W        W78983  27.428   1.013   4.126
12201W        W78984   4.332  14.064  12.699
12202W        W78985  17.020   9.313  11.464
12203W        W78986  19.717   1.498   3.241
12204W        W78987   6.023  11.594   2.859
12205W        W78988  42.724  39.954  10.800
12206W        W78989   8.811  18.666  10.640
12207W        W78990  15.677  35.579   0.805
12208W        W78991   7.662  24.792  12.902
12209W        W78992  24.921  36.087  10.614
12210W        W78993  18.571   5.295   1.997
12211W        W78994  21.135  42.810   1.991
12212W        W78995  20.437   6.417  13.819
12213W        W78996  43.892  36.946   1.921
12214W        W78997  34.088  35.611   3.127
12215W        W78998  28.702  41.823  14.958
12216W        W78999  28.573  16.906  12.921
12217W        W79000   4.425   6.851  10.962
12218W        W79001   4.644  32.476   0.011
12219W        W79002  40.524  43.289   2.552
12220W        W79003  40.483  16.259  12.094
12221W        W79004  34.090   5.879  11.696
12222W        W79005  25.664  27.394  10.707
12223W        W79006  35.616  33.907  11.997
12224W        W79007  23.196  10.098  14.921
12225W        W79008  11.208  34.540  13.986
12226W        W79009  17.774   0.870   1.923
12227W        W79010  18.190  41.827   4.163
12228W        W79011  40.500  22.144  14.945
12229W        W79012  44.031   9.283  13.596
12230W        W79013  12.830  34.726  14.295
12231W        W79014  38.566  11.753  13.092
12232W        W79015  20.108  19.519  10.670
12233W        W79016  37.956   0.389   2.285
12234W        W79017  15.125  31.841   3.365
12235W        W79018  17.360  38.508   0.380
12236W        W79019  19.614  15.025   3.495
12237W        W79020  36.397  34.877   2.999
12238W        W79021  25.160  30.695   3.831
12239W        W79022  33.007  28.658   1.326
12240W        W79023   7.383  44.489   1.336
12241W        W79024  23.028  42.905   3.243
12242W        W79025   1.017  19.188  11.681
12243W        W79026  27.393  12.295   0.444
12244W        W79027  22.566  29.544  12.196
12245W        W79028  29.595  38.041  11.418
12246W        W79029  17.520  38.265  14.755
12247W        W79030  35.992  34.999  12.937
12248W        W79031   5.548  20.369  14.400
12249W        W79032  26.652  36.574   5.051
12250W        W79033   4.522  29.519   4.937
12251W        W79034   2.391  18.979  12.536
12252W        W79035  26.326  16.542   4.587
12253W        W79036  40.620  24.536  11.221
12254W        W79037   7.731  13.481  14.381
12255W        W79038   5.841   5.526   0.867
12256W        W79039  43.972  23.019   1.134
12257W        W79040  28.517  44.748   4.875
12258W        W79041  44.886  24.338  12.208
12259W        W79042  40.448   5.392   3.137
12260W        W79043  10.620   7.789  13.716
12261W        W79044  31.746   6.963   3.781
12262W        W79045  13.496  26.125  14.187
12263W        W79046  29.117  37.748  11.486
12264W        W79047  35.350  42.793  10.649
12265W        W79048  39.272   0.279  14.796
12266W        W79049  24.976  37.400   5.030
12267W        W79050  22.719  37.068   4.724
12268W        W79051  42.072  27.700  12.457
12269W        W79052  17.590   0.899  14.908
12270W        W79053  40.272  14.083   1.246
12271W        W79054  29.961  42.243   3.775
12272W        W79055  42.515  35.889  10.789
12273W        W79056  20.167   1.761   3.172
12274W        W79057   0.423  27.967  13.507
12275W        W79058   8.273   7.918   4.567
12276W        W79059  32.473   8.762  11.578
12277W        W79060   2.530  32.997   2.345
12278W        W79061  32.536  34.010  11.576
12279W        W79062   8.426  15.624  12.853
12280W        W79063   0.400  27.854   2.842
12281W        W79064  14.317  34.457   0.986
12282W        W79065   7.683  44.550  12.902
12283W        W79066  19.718  30.378  12.134
12284W        W79067  42.704  22.568  12.232
12285W        W79068  23.664  17.281   4.287
12286W        W79069   1.448  41.353  14.390
12287W        W79070  42.853  17.792   1.465
12288W        W79071  43.268  36.240  10.206
12289W        W79072  43.812   9.647  12.529
12290W        W79073  41.948  10.954   3.040
12291W        W79074  22.227  29.078   1.066
12292W        W79075  16.773  34.377  13.356
12293W        W79076   1.873   7.373  10.410
12294W        W79077  40.749  33.081   3.363
12295W        W79078  22.715  22.149  12.507
12296W        W79079  44.991   0.792   0.794
12297W        W79080  28.548  28.158  11.298
12298W        W79081  35.362  26.878  12.937
12299W        W79082   3.204  43.220  14.317
12300W        W79083  23.744  22.650  10.213
12301W        W79084  31.582   0.043   4.150
12302W        W79085   5.888  39.863  10.451
12303W        W79086   2.412  15.680  14.366
12304W        W79087   4.247  32.413   0.969
12305W        W79088  32.943  15.171   1.477
12306W        W79089  31.565  33.539   4.588
12307W        W79090  20.137  30.393   3.251
12308W        W79091  31.693  10.236   3.676
12309W        W79092  24.667  23.151  10.641
12310W        W79093  40.860  15.852  13.284
12311W        W79094  26.633   1.756  14.616
12312W        W79095  33.079   7.774  12.635
12313W        W79096   1.464   0.979   0.911
12314W        W79097  43.402  17.573   1.034
12315W        W79098  12.967  28.690   3.841
12316W        W79099  14.699  16.132  14.210
12317W        W79100  38.174  16.791  14.302
12318W        W79101  14.229  34.538   1.968
12319W        W79102  19.310  33.500  10.723
12320W        W79103  33.488  15.398  13.852
12321W        W79104  28.677  29.159   2.838
12322W        W79105  30.083  39.798   1.992
12323W        W79106  12.151   1.508   4.107
12324W        W79107  12.085   0.459  10.757
12325W        W79108  13.555  31.510   2.155
12326W        W79109  15.258  16.963   2.880
12327W        W79110   3.563  19.577   3.230
12328W        W79111  41.721  13.452  13.500
12329W        W79112  10.781  37.801  12.482
12330W        W79113  17.266  16.161   3.648
12331W        W79114  10.420   5.463   4.994
12332W        W79115  41.613   3.732   4.609
12333W        W79116  21.241  26.453  14.274
12334W        W79117  25.512  36.132  13.595
12335W        W79118  32.966   3.402  11.917
12336W        W79119  25.590  32.422  10.548
12337W        W79120  32.316  37.000  12.525
12338W        W79121  20.112   9.560   0.467
12339W        W79122  22.840  32.494  12.119
12340W        W79123  31.183  12.076  14.860
12341W        W79124  36.263  16.767   2.187
12342W        W79125  30.720  18.633   3.585
12343W        W79126  11.237   6.636  12.598
12344W        W79127  24.756   9.709  11.939
12345W        W79128  17.428  43.132   4.943
12346W        W79129  30.035  19.938   2.971
12347W        W79130  32.720  25.715   1.327
12348W        W79131   2.174  29.086  14.915
12349W        W79132   5.296   1.720  12.065
12350W        W79133  20.126  20.273   3.784
12351W        W79134  17.841  37.931  11.612
12352W        W79135  31.256  19.516  13.030
12353W        W79136  42.995   8.925   4.162
12354W        W79137  27.075  30.503   3.752
12355W        W79138  16.127   1.077   3.347
12356W        W79139   1.316  29.137  14.306
12357W        W79140   6.467  15.624   4.016
12358W        W79141  36.817  20.129  13.898
12359W        W79142  28.964   1.061  14.432
12360W        W79143   7.234  28.357   1.382
12361W        W79144   0.517  44.334  14.856
12362W        W79145  30.519  21.284  11.469
12363W        W79146  42.162  24.446   0.845
12364W        W79147  22.244   7.639  14.458
12365W        W79148  16.267  14.936   3.069
12366W        W79149  36.510  22.596   4.576
12367W        W79150  41.983   6.613  14.290
12368W        W79151  14.102  30.107  11.244
12369W        W79152  17.465   6.108  12.457
12370W        W79153  33.227  13.695  14.877
12371W        W79154  31.403  31.059  12.906
12372W        W79155  26.960  32.840  10.686
12373W        W79156  38.050  19.891   2.463
12374W        W79157  14.380  29.693   2.213
12375W        W79158   0.193   0.054   2.869
12376W        W79159   2.753  43.271  10.812
12377W        W79160  42.312  21.952  10.646
12378W        W79161  41.579  12.303   0.033
12379W        W79162  34.720   2.722  10.744
12380W        W79163  29.707  39.741  11.171
12381W        W79164  12.315  35.374  12.897
12382W        W79165  32.876  34.423   3.336
12383W        W79166  37.043  34.397   3.437
12384W        W79167  35.589   3.207   4.600
12385W        W79168  26.512   4.237  11.103
12386W        W79169   1.239  16.558   1.908
12387W        W79170   7.830  22.806  13.966
12388W        W79171  17.111  36.902  13.103
12389W        W79172  25.619   5.202   5.515
12390W        W79173   5.757  18.801   2.463
12391W        W79174  33.738  40.740  10.484
12392W        W79175  22.802  44.811   2.869
12393W        W79176  29.200  34.909  11.644
12394W        W79177  30.706  14.112   4.572
12395W        W79178   6.234   7.647  12.478
12396W        W79179   4.079  38.473   4.152
12397W        W79180  22.567  22.146   0.296
12398W        W79181   8.422  23.283   4.138
12399W        W79182  31.113  20.591  13.117
12400W        W79183  15.207  40.675   5.215
12401W        W79184  26.187  21.786   2.646
12402W        W79185   0.913  39.455   2.750
12403W        W79186  23.969  43.117   0.828
12404W        W79187  33.411  16.850  11.235
12405W        W79188  31.011   6.840  11.499
12406W        W79189  22.752  44.311  14.764
12407W        W79190  10.592   1.895  10.245
12408W        W79191  34.870   9.298  13.138
12409W        W79192  34.998  37.770   2.810
12410W        W79193  29.211  36.102   2.925
12411W        W79194  29.164   9.792  12.954
12412W        W79195  34.153   5.828  11.192
12413W        W79196  25.688  14.323  10.255
12414W        W79197  18.135   6.370   0.736
12415W        W79198   4.751  11.691  14.994
12416W        W79199  27.061  27.005   1.866
12417W        W79200  35.614  24.189   4.182
12418W        W79201   2.443  21.525   4.985
12419W        W79202  33.384  20.197   1.874
12420W        W79203  40.309  38.934   0.943
12421W        W79204   7.889   4.269  14.283
12422W        W79205  17.698  12.917  14.502
12423W        W79206  22.085   4.115   3.366
12424W        W79207  22.530  24.218   4.062
12425W        W79208   8.364  20.265   0.936
12426W        W79209  18.110   0.466   0.465
12427W        W79210  35.863  29.622   2.841
12428W        W79211  18.507  21.628  11.805
12429W        W79212  36.016   2.093   4.494
12430W        W79213  19.847  27.346  12.647
12431W        W79214  24.531  33.959   3.349
12432W        W79215  44.352  14.826  11.518
12433W        W79216  35.657  25.495   0.735
12434W        W79217  19.085  15.242   2.333
12435W        W79218   1.020  24.575  10.447
12436W        W79219   3.409  40.100  11.546
12437W        W79220  32.506  15.796  13.748
12438W        W79221   0.813  36.518   4.653
12439W        W79222  24.866  30.481   1.472
12440W        W79223   0.182  29.251  13.289
12441W        W79224   6.922  13.982  11.286
12442W        W79225  12.313  14.094   3.085
12443W        W79226  28.753  22.922  13.358
12444W        W79227   2.675  44.291  11.551
12445W        W79228  37.399  42.436  12.525
12446W        W79229  24.004  13.297  12.915
12447W        W79230  30.577  22.717   1.124
12448W        W79231  23.445  23.014  11.117
12449W        W79232  25.767   2.350   1.957
12450W        W79233  31.640  28.937   4.409
12451W        W79234  20.684  30.175   4.300
12452W        W79235  35.022   4.192  12.440
12453W        W79236  24.033  27.267   3.680
12454W        W79237   9.806   9.626  11.045
12455W        W79238  26.069  34.424   0.371
12456W        W79239  15.229  23.056  10.685
12457W        W79240  36.057  36.814   3.567
12458W        W79241  31.107   2.270  11.956
12459W        W79242  38.954  15.711   2.145
12460W        W79243  29.226  33.027  10.716
12461W        W79244  19.197  42.288   1.214
12462W        W79245   7.332  25.951  11.256
12463W        W79246   1.786   2.625  13.600
12464W        W79247  28.373   9.234   2.734
12465W        W79248  13.379   4.838   4.502
12466W        W79249  35.449  41.486  14.442
12467W        W79250  30.969   7.875   3.729
12468W        W79251  42.291  12.345   0.409
12469W        W79252   7.922  34.977   0.262
12470W        W79253  40.389   6.132   3.749
12471W        W79254   6.193  14.824  10.423
12472W        W79255  37.538  15.355  10.564
12473W        W79256   1.479  18.176  10.782
12474W        W79257   9.776  18.687   0.438
12475W        W79258  19.199   4.736  14.955
12476W        W79259  37.293   8.409  14.846
12477W        W79260  32.702  14.779   1.259
12478W        W79261  38.330  15.365   5.145
12479W        W79262  21.964  29.305  12.845
12480W        W79263  36.920  36.247   2.299
12481W        W79264  39.559  13.764   0.431
12482W        W79265  41.814   5.669  12.021
12483W        W79266  25.607   3.296   2.315
12484W        W79267  11.014   6.441   4.928
12485W        W79268  35.082  33.585  12.916
12486W        W79269   7.765   9.711   4.852
12487W        W79270  29.350  15.772   4.120
12488W        W79271  22.842   1.864   1.873
12489W        W79272   7.061  43.858  13.349
12490W        W79273   0.340  36.397   4.479
12491W        W79274  17.858  15.820   3.486
12492W        W79275  12.365   4.167   3.258
12493W        W79276  44.474  28.549   2.191
12494W        W79277   2.059  20.481  11.209
12495W        W79278  32.135  13.707   1.874
12496W        W79279   2.571  13.768   4.133
12497W        W79280  32.406  27.020  13.077
12498W        W79281  23.863  24.051  13.545
12499W        W79282   1.689  12.593   3.241
12500W        W79283  27.412  30.937   1.172
12501W        W79284   7.141  19.139  11.700
12502W        W79285  37.567  17.708   2.833
12503W        W79286  14.752  17.616  12.882
12504W        W79287  30.870  28.465  10.485
12505W        W79288  16.777   9.249  13.886
12506W        W79289  24.586  25.354  12.841
12507W        W79290   9.236  43.736   4.552
12508W        W79291   7.172  43.799   4.142
12509W        W79292  33.019  10.829  12.178
12510W        W79293  26.013  33.602  14.396
12511W        W79294  28.345   3.733  14.381
12512W        W79295  12.814  44.728   0.466
12513W        W79296  20.662  13.379  11.672
12514W        W79297  14.486  18.484  11.166
12515W        W79298  40.435  12.112  13.402
12516W        W79299  33.477   1.405   2.693
12517W        W79300  27.089   2.713  11.599
12518W        W79301  26.974  41.148   0.218
12519W        W79302  28.059  20.329  12.558
12520W        W79303  13.390  39.297  11.137
12521W        W79304  41.952  24.688  11.465
12522W        W79305  20.032   6.614  14.741
12523W        W79306  37.752  28.182  12.851
12524W        W79307  41.249  39.176   3.629
12525W        W79308  21.505   4.697  13.176
12526W        W79309  30.965  24.648  12.363
12527W        W79310  23.576   1.986  11.169
12528W        W79311  43.482  19.010  11.544
12529W        W79312  23.939  39.365  10.655
12530W        W79313  34.112  29.498   3.121
12531W        W79314  34.208  15.871   1.356
12532W        W79315  11.087  20.147  11.944
12533W        W79316  17.020  36.283  11.989
12534W        W79317  23.162  22.538   4.104
12535W        W79318   4.538  17.649  11.154
12536W        W79319  16.143  27.409   2.220
12537W        W79320  11.558  43.106  10.911
12538W        W79321  40.894  38.120  12.960
12539W        W79322  26.990  27.820   1.280
12540W        W79323  27.406  23.272   1.482
12541W        W79324  26.065   3.062   1.182
12542W        W79325  24.202   1.755   1.306
12543W        W79326  34.172   4.884  12.165
12544W        W79327   8.594  10.569   3.470
12545W        W79328  34.890  13.643  11.614
12546W        W79329  35.395  40.558  11.844
12547W        W79330  27.989   6.905   5.011
12548W        W79331  11.749   5.906  13.774
12549W        W79332  12.388   7.286  13.854
12550W        W79333  12.257  28.836  12.033
12551W        W79334  36.287  26.680   3.739
12552W        W79335  41.316  30.738   2.893
12553W        W79336  25.132  19.368   4.100
12554W        W79337  39.239  44.242   0.958
12555W        W79338  43.396  18.485   4.962
12556W        W79339   2.219   3.474   3.734
12557W        W79340  38.028  14.776  14.716
12558W        W79341  27.561  17.608   2.894
12559W        W79342  17.532  30.003   0.059
12560W        W79343  35.510  26.548   1.789
12561W        W79344  10.391  12.862   3.315
12562W        W79345  21.970  26.087  14.889
12563W        W79346  39.862  17.680   3.839
12564W        W79347  11.311  13.070  11.274
12565W        W79348   4.690  25.479  12.881
12566W        W79349  44.906  20.061  13.005
12567W        W79350  21.828  15.780   4.066
12568W        W79351  24.634  17.720   2.865
12569W        W79352   8.039  16.413   3.569
12570W        W79353  16.213  13.312  11.118
12571W        W79354  32.846  40.475   0.046
12572W        W79355  25.697  36.491   3.746
12573W        W79356  37.134  44.765  10.750
12574W        W79357   5.795  20.103   4.050
12575W        W79358  38.342  11.819  13.572
12576W        W79359   6.399  30.950   4.962
12577W        W79360  33.993  24.753   5.170
12578W        W79361  24.558  26.004  14.900
12579W        W79362  14.316  26.779   3.126
12580W        W79363  10.677  39.423  11.587
12581W        W79364  17.653  37.133  11.945
12582W        W79365  31.376  31.923  11.657
12583W        W79366  27.412  20.664  11.707
12584W        W79367  42.253  14.482   3.145
12585W        W79368  39.426  39.934   1.858
12586W        W79369  37.536  11.172   3.567
12587W        W79370  12.612  11.836   1.426
12588W        W79371  35.826   4.860   4.535
12589W        W79372  11.145  42.677   2.564
12590W        W79373  18.412  42.888  11.599
12591W        W79374   2.811  10.317   3.771
12592W        W79375  20.458   0.831   3.401
12593W        W79376  15.320  31.115  13.906
12594W        W79377  11.175  35.858   0.301
12595W        W79378  42.958  10.417  10.561
12596W        W79379   7.369  33.410  12.991
12597W        W79380   8.170  39.832   0.792
12598W        W79381  23.532  11.180  13.036
12599W        W79382  12.981  19.078  10.818
12600W        W79383  10.617  38.855   1.903
12601W        W79384  20.991  21.113  13.432
12602W        W79385   3.912  34.790   3.165
12603W        W79386   3.960  29.058   4.387
12604W        W79387  19.193  16.001   0.472
12605W        W79388   1.173  34.957  12.825
12606W        W79389  35.645  35.604   3.267
12607W        W79390  21.755  37.784  11.939
12608W        W79391   7.634  34.733   2.075
12609W        W79392  19.503  22.253  14.415
12610W        W79393   7.869   8.899  11.428
12611W        W79394  16.206  41.367  12.415
12612W        W79395   2.218  31.965   1.220
12613W        W79396  31.407  30.875   3.225
12614W        W79397  12.330  14.553  14.533
12615W        W79398  17.439  35.826   2.428
12616W        W79399  27.038  41.973   5.663
12617W        W79400   9.918  32.158  13.975
12618W        W79401   7.112  31.509  13.991
12619W        W79402  14.426  39.898   4.247
12620W        W79403  36.346  25.667   0.296
12621W        W79404  22.652  38.026  13.175
12622W        W79405  29.807  27.728   3.703
12623W        W79406  11.119  35.173  13.509
12624W        W79407  23.075  27.069   0.865
12625W        W79408  32.427   3.220   2.176
12626W        W79409  20.578   0.801  13.126
12627W        W79410  40.300  30.550   4.654
12628W        W79411  16.552   6.412   1.204
12629W        W79412  32.526  19.475   2.941
12630W        W79413  25.228  13.762   0.522
12631W        W79414  21.162  18.573  11.467
12632W        W79415  28.953   4.888   1.370
12633W        W79416  25.759  30.601   2.270
12634W        W79417  41.011  19.623  12.160
12635W        W79418  23.139   9.190  13.039
12636W        W79419  26.751  17.387   5.086
12637W        W79420  33.720   0.932   2.551
12638W        W79421  15.157  36.999   0.334
12639W        W79422  16.514   8.228  12.422
12640W        W79423  32.933  12.733  13.742
12641W        W79424  38.769  21.729  11.817
12642W        W79425  14.198  37.424  11.660
12643W        W79426   5.875  11.585   1.411
12644W        W79427  27.666  15.196   3.367
12645W        W79428  34.025   1.233  12.492
12646W        W79429   0.567  29.675  14.566
12647W        W79430   8.129  10.663  11.447
12648W        W79431   1.825  30.596   3.223
12649W        W79432  12.154  20.798   3.897
12650W        W79433  25.527  42.849   2.378
12651W        W79434   0.773  17.196   2.234
12652W        W79435  28.536   7.074   0.047
12653W        W79436   9.640  16.737   3.025
12654W        W79437  13.383  19.151  14.921
12655W        W79438  27.976  25.909   1.350
12656W        W79439  32.904   7.748  13.938
12657W        W79440  14.107   0.012  12.502
12658W        W79441  23.919  43.500  14.546
12659W        W79442  15.545  18.209   3.304
12660W        W79443  39.052  38.585  12.522
12661W        W79444   2.205  14.944  11.610
12662W        W79445  26.092  37.887  14.971
12663W        W79446  32.894  28.864   3.112
12664W        W79447  36.678  23.605  12.459
12665W        W79448  13.122  28.594  11.275
12666W        W79449   2.008  24.503  12.929
12667W        W79450   0.334   9.742   3.322
12668W        W79451  12.174  43.791   1.289
12669W        W79452   3.940  37.080   0.010
12670W        W79453  24.751   2.870   2.261
12671W        W79454  29.505  19.146   0.217
12672W        W79455  35.533  28.532  11.921
12673W        W79456  24.246  20.330   1.691
12674W        W79457  16.682  37.381   3.397
12675W        W79458  13.650  24.685   1.935
12676W        W79459  20.770   4.378  14.288
12677W        W79460   3.004  25.092  12.654
12678W        W79461  36.952  19.150   0.309
12679W        W79462  25.186  33.836  11.150
12680W        W79463  12.237   3.100  12.621
12681W        W79464  35.975   8.470   0.934
12682W        W79465  17.738  41.901  12.071
12683W        W79466   8.783  16.696   4.610
12684W        W79467  26.163  27.746  12.403
12685W        W79468  34.395  36.051  11.574
12686W        W79469  11.317  41.707   0.345
12687W        W79470   9.992  42.573  11.152
12688W        W79471  17.596  32.115   3.262
12689W        W79472   3.310  12.065   0.987
12690W        W79473  42.079  40.649  12.869
12691W        W79474  31.052  10.035  14.329
12692W        W79475  41.251  14.801   2.852
12693W        W79476  28.142  39.094   3.278
12694W        W79477  26.567   4.410  10.621
12695W        W79478  20.575   7.498   0.290
12696W        W79479  11.666  37.935   4.379
12697W        W79480   1.444  11.405   1.824
12698W        W79481   5.099  17.468   0.300
12699W        W79482  19.640  23.600   0.304
12700W        W79483  27.174  33.114   2.132
12701W        W79484  43.895   6.756  14.669
12702W        W79485  19.079  31.601  10.653
12703W        W79486  11.842  27.810   5.026
12704W        W79487  11.737  24.746  11.470
12705W        W79488  41.315   7.818   0.928
12706W        W79489  23.774  11.860   1.786
12707W        W79490  16.805  24.537   3.530
12708W        W79491  28.210  25.923   0.029
12709W        W79492   5.203  12.100  12.439
12710W        W79493  13.842  28.987  12.546
12711W        W79494  16.278  41.679   4.654
12712W        W79495   8.916   9.274  13.309
12713W        W79496  32.571  25.012   0.422
12714W        W79497  18.527  29.135   4.123
12715W        W79498  44.687  34.215   1.217
12716W        W79499  21.820  24.769   3.689
12717W        W79500  39.374  22.927  11.434
12718W        W79501  23.119   9.648   2.933
12719W        W79502  34.175  11.819  13.210
12720W        W79503  42.438   0.349   1.304
12721W        W79504  42.796  27.665   0.464
12722W        W79505  20.684   3.003   0.105
12723W        W79506   8.001   0.052   1.211
12724W        W79507  28.435  15.810   3.636
12725W        W79508  37.108   2.324  12.364
12726W        W79509  17.860   8.736   3.278
12727W        W79510  17.331  16.198  13.516
12728W        W79511   8.414  29.540  14.293
12729W        W79512  43.513  11.914   1.779
12730W        W79513  19.308  35.557  14.395
12731W        W79514   8.501  18.080  12.128
12732W        W79515  39.989  27.684  11.775
12733W        W79516   7.248   4.877  14.830
12734W        W79517  37.500  24.154   2.449
12735W        W79518  24.518   1.947   4.047
12736W        W79519   5.713  27.930   2.193
12737W        W79520  37.338  23.972   0.218
12738W        W79521   1.898   0.826  12.002
12739W        W79522  38.998  41.251  13.675
12740W        W79523  11.380  17.542  14.428
12741W        W79524  40.557  21.979  12.894
12742W        W79525  41.569  28.858   0.285
12743W        W79526  12.254  19.694   2.796
12744W        W79527  18.723   6.641   4.161
12745W        W79528   0.544   2.777  12.739
12746W        W79529  11.685   5.195  14.474
12747W        W79530  16.358  10.695   1.777
12748W        W79531   9.322  34.943  11.871
12749W        W79532  38.526  36.742  11.667
12750W        W79533  25.758  32.052   0.503
12751W        W79534  33.877  36.853   0.658
12752W        W79535   5.384  30.061   1.209
12753W        W79536  16.757  39.453   1.448
12754W        W79537  42.477  32.690   1.280
12755W        W79538   7.653  43.001  13.908
12756W        W79539  27.525   7.815  14.983
12757W        W79540  15.843   2.993   1.315
12758W        W79541  27.813  33.487   5.031
12759W        W79542  14.192  31.970   2.355
12760W        W79543  12.799  25.487  14.450
12761W        W79544  24.559   3.664  14.476
12762W        W79545  15.214  19.076   1.328
12763W        W79546  36.612  10.677   3.816
12764W        W79547  43.097  29.422   0.820
12765W        W79548  41.008   5.691  14.798
12766W        W79549  23.734  13.378   2.811
12767W        W79550  20.420  36.779   0.645
12768W        W79551   7.860  11.735  11.403
12769W        W79552   2.217  10.546   2.895
12770W        W79553  28.395  22.526   4.490
12771W        W79554  27.632  20.055   4.408
12772W        W79555  24.104   5.140   1.802
12773W        W79556  36.281  36.256  13.798
12774W        W79557  12.651  12.660  12.478
12775W        W79558  31.539  24.791   0.893
12776W        W79559  11.981  35.884   0.772
12777W        W79560  25.463  14.758  11.587
12778W        W79561  35.582   4.316   3.714
12779W        W79562   0.330  22.559  11.870
12780W        W79563  23.750  13.897   3.753
12781W        W79564   7.743  18.515   4.337
12782W        W79565  42.298  27.102   3.630
12783W        W79566  18.074  11.734  13.869
12784W        W79567  30.506  36.335   2.646
12785W        W79568  42.809   6.465   2.737
12786W        W79569  35.050  44.106   3.290
12787W        W79570  41.477  19.318  13.973
12788W        W79571  21.001  31.092  10.528
12789W        W79572   2.797  31.766  13.123
12790W        W79573  41.076  38.545  14.842
12791W        W79574  29.670   5.793  13.089
12792W        W79575  20.920  14.729   1.242
12793W        W79576  18.656  29.630  13.429
12794W        W79577  16.627  36.671  12.962
12795W        W79578  14.549  30.554  12.911
12796W        W79579  30.001  22.570   0.319
12797W        W79580  21.584  13.245   0.953
12798W        W79581   9.870  43.794  10.432
12799W        W79582  13.690  20.756  14.024
12800W        W79583  34.553  10.369   2.275
12801W        W79584   8.017  44.440   4.931
12802W        W79585  33.160   6.846   0.555
12803W        W79586  27.213  29.532  12.239
12804W        W79587  20.707  38.587  14.296
12805W        W79588  25.482  25.611  12.076
12806W        W79589  37.732  38.860  13.609
12807W        W79590  42.306  38.822   4.856
12808W        W79591   1.737  44.236  12.411
12809W        W79592  28.095  44.924   4.630
12810W        W79593  34.547  37.513  13.640
12811W        W79594  33.035  29.616   4.606
12812W        W79595  16.678  14.292  14.818
12813W        W79596   0.922  21.674  12.863
12814W        W79597  15.116  21.149   4.413
12815W        W79598  27.564  27.409  14.128
12816W        W79599  24.415  39.719   2.382
12817W        W79600  18.722  36.873  10.694
12818W        W79601  31.474  32.661   4.136
12819W        W79602  19.005  12.728   0.168
12820W        W79603  12.557   3.359  10.256
12821W        W79604  11.311   1.452   4.631
12822W        W79605  39.402   6.507  12.514
12823W        W79606  30.749   3.343   2.388
12824W        W79607  12.263  44.933  12.546
12825W        W79608  19.675  12.589  14.294
12826W        W79609   0.481  23.712  11.117
12827W        W79610  23.516  31.850  10.495
12828W        W79611  17.349  24.722  12.204
12829W        W79612  42.855  23.135  11.543
12830W        W79613  22.668  10.808   4.496
12831W        W79614  25.182  19.898  10.772
12832W        W79615  15.752  12.697   4.618
12833W        W79616   0.321  44.517  11.099
12834W        W79617  24.064  38.084   3.268
12835W        W79618  31.884   5.913  12.985
12836W        W79619  17.008  41.009   0.484
12837W        W79620  22.184  11.483   0.796
12838W        W79621  13.765  32.929   1.777
12839W        W79622  26.883  11.075   1.213
12840W        W79623   8.267  32.863   0.952
12841W        W79624  24.860  17.342  11.909
12842W        W79625   8.291  12.570  10.524
12843W        W79626  34.475  31.500   1.808
12844W        W79627  30.100  14.882  13.299
12845W        W79628  21.566  16.129   5.665
12846W        W79629  12.313   8.414  12.577
12847W        W79630   4.761  18.486   3.351
12848W        W79631  30.937  30.045   3.450
12849W        W79632  38.505   6.478  11.889
12850W        W79633  33.132   6.365   1.441
12851W        W79634   5.791  23.878  13.329
12852W        W79635  28.541   3.308   1.483
12853W        W79636  38.965   7.908   2.877
12854W        W79637  25.704   9.826  11.673
12855W        W79638  16.194  42.025  10.625
12856W        W79639   9.881  18.070  10.752
12857W        W79640  44.103  30.091   0.221
12858W        W79641  36.932   2.455  11.403
12859W        W79642  32.559  37.042   2.339
12860W        W79643   5.645  23.459   1.506
12861W        W79644  34.040  33.226  12.197
12862W        W79645  32.579  22.777   0.901
12863W        W79646  22.111  40.539   0.949
12864W        W79647  27.839  11.554   4.526
12865W        W79648  25.050  21.792  12.382
12866W        W79649  36.735  18.633   4.238
12867W        W79650  24.631  24.496   4.728
12868W        W79651  24.734  18.639  11.783
12869W        W79652  31.915  26.080   1.759
12870W        W79653  40.994  29.432  11.591
12871W        W79654  20.746  13.619  13.728
12872W        W79655  41.077   8.306  12.901
12873W        W79656   3.851   8.709  12.413
12874W        W79657   2.760  28.565  11.483
12875W        W79658  44.778  13.181  13.393
12876W        W79659  31.324  28.678  10.625
12877W        W79660  31.648  30.114  13.909
12878W        W79661  13.093  35.355   0.947
12879W        W79662  13.824  25.226  14.560
12880W        W79663  11.269  21.601   4.423
12881W        W79664  21.002  12.830  11.077
12882W        W79665  20.035  15.713   3.599
12883W        W79666  27.663  31.420   4.620
12884W        W79667  35.486  32.123   3.627
12885W        W79668  29.613  33.881   0.148
12886W        W79669  18.308  25.559   2.686
12887W        W79670  43.267  22.721   2.321
12888W        W79671   0.503  15.843   0.517
12889W        W79672  39.065   4.347  13.992
12890W        W79673  25.493   7.364  11.161
12891W        W79674  39.516  17.121  10.643
12892W        W79675   2.271  10.352  13.433
12893W        W79676  38.337   5.827  10.914
12894W        W79677  41.680  36.144  11.042
12895W        W79678   2.466  25.615   0.651
12896W        W79679  31.741   5.408   1.842
12897W        W79680  14.741  18.076  14.965
12898W        W79681  11.346  32.409   3.115
12899W        W79682  33.916  32.025   4.597
12900W        W79683  22.863   4.825  12.571
12901W        W79684   8.700  30.628  11.477
12902W        W79685  17.773  24.163   4.656
12903W        W79686  16.572  20.343   0.458
12904W        W79687  36.812  21.649   2.220
12905W        W79688  25.062  33.520  10.473
12906W        W79689  44.397  32.488  12.130
12907W        W79690  16.737  41.945  10.556
12908W        W79691  26.557  19.775  12.809
12909W        W79692  19.000   0.177  13.569
12910W        W79693   1.182  30.566   4.907
12911W        W79694  19.965  39.330   3.069
12912W        W79695  20.761  20.563   5.027
12913W        W79696  34.946  18.045   2.349
12914W        W79697  31.519  10.288   1.370
12915W        W79698  33.893   8.107   4.028
12916W        W79699  25.063  44.344  10.602
12917W        W79700  34.684   9.132   0.411
12918W        W79701  13.776   7.298  11.299
12919W        W79702  12.557  19.103  11.137
12920W        W79703  32.961  27.205   3.712
12921W        W79704  16.609  30.016   4.593
12922W        W79705  18.937  18.139   3.366
12923W        W79706  25.895   4.536  14.344
12924W        W79707  17.589  41.875  13.483
12925W        W79708  15.218  28.542   0.275
12926W        W79709  43.514  38.611  11.176
12927W        W79710  33.145  18.167  10.587
12928W        W79711  41.560   7.921  13.526
12929W        W79712   5.761  29.531   2.882
12930W        W79713  21.743   6.860  12.779
12931W        W79714   1.877  19.289  10.601
12932W        W79715  36.030  20.183  12.981
12933W        W79716   5.728   8.368   1.828
12934W        W79717  19.996  41.819  11.142
12935W        W79718  24.495  38.940   3.706
12936W        W79719  13.781  10.598   4.991
12937W        W79720  43.798   1.153   3.087
12938W        W79721   0.979   9.749   0.841
12939W        W79722  11.897  42.191   1.882
12940W        W79723  11.788  19.063   3.591
12941W        W79724  28.534  43.759   3.593
12942W        W79725  32.603   6.099  11.491
12943W        W79726  36.775  12.041  13.110
12944W        W79727   9.878   3.511   0.776
12945W        W79728  23.323  37.209  10.451
12946W        W79729  38.264  37.152   3.040
12947W        W79730   4.695   2.698  10.714
12948W        W79731  32.870  30.758   1.454
12949W        W79732   2.228  24.052  14.079
12950W        W79733  43.965  44.220  11.088
12951W        W79734   9.259   0.942  13.982
12952W        W79735   6.525  27.123   3.125
12953W        W79736   1.462  35.697  11.580
12954W        W79737  42.821  41.786   0.471
12955W        W79738   2.273  34.570  14.680
12956W        W79739   3.710  30.678   3.217
12957W        W79740   8.309  30.773  11.793
12958W        W79741  26.046  23.469   0.520
12959W        W79742  34.338  41.718   1.821
12960W        W79743  13.659  34.718   1.812
12961W        W79744  14.853   2.390   3.446
12962W        W79745  39.203   5.854  10.642
12963W        W79746  42.302   5.370  12.178
12964W        W79747  36.638  34.542  10.762
12965W        W79748  34.596  22.690  11.623
12966W        W79749   5.810   5.279  13.560
12967W        W79750   4.551   4.738  11.644
12968W        W79751   8.735   5.598  12.125
12969W        W79752  15.780  22.263   3.914
12970W        W79753  15.489   1.015   4.835
12971W        W79754  36.594   7.493   2.738
12972W        W79755  32.419  12.113  11.802
12973W        W79756  44.812  28.433  10.661
12974W        W79757   9.931  16.090   1.921
12975W        W79758  34.050  16.833   1.301
12976W        W79759  27.153  42.847  13.869
12977W        W79760  19.189   2.231   1.785
12978W        W79761   5.251   2.381   0.457
12979W        W79762  38.794  33.984  10.754
12980W        W79763  32.617   1.354   0.984
12981W        W79764  39.797  43.821   0.305
12982W        W79765  37.821   4.979   2.817
12983W        W79766  31.085  20.101   2.274
12984W        W79767  37.598  37.044  12.837
12985W        W79768   1.991  26.577  12.027
12986W        W79769  20.564  10.529   2.071
12987W        W79770   2.037  39.602  11.727
12988W        W79771  31.128  14.219  13.669
12989W        W79772  32.606  15.088  11.250
12990W        W79773  17.491  12.439   2.715
12991W        W79774  42.019   0.421   4.745
12992W        W79775  43.768  38.542   3.406
12993W        W79776  20.775  18.071  13.885
12994W        W79777  35.461  38.156  11.282
12995W        W79778  18.325  18.296   1.342
12996W        W79779   5.782  32.689  11.913
12997W        W79780  31.418  12.192   2.266
12998W        W79781  38.477  13.286   3.843
12999W        W79782  16.657  15.850  12.780
13000W        W79783   7.712  21.520   0.883
13001W        W79784   3.992  23.508  14.452
13002W        W79785  38.819  14.933  12.191
13003W        W79786  23.635  31.219   1.229
13004W        W79787  28.092  14.321  12.612
13005W        W79788  27.616  31.693  12.270
13006W        W79789  30.445  33.165  14.116
13007W        W79790   6.714   6.780   3.568
13008W        W79791  39.991  12.779  11.450
13009W        W79792   4.333   1.186  13.315
13010W        W79793  27.044  26.523  11.849
13011W        W79794   0.007   3.857   0.814
13012W        W79795  37.010  39.201   3.311
13013W        W79796  25.967  36.844  12.154
13014W        W79797   4.194  40.288   1.753
13015W        W79798  34.991   2.717   1.486
13016W        W79799  21.304  19.688  14.780
13017W        W79800  21.969  36.885   2.226
13018W        W79801  20.692   5.507   3.633
13019W        W79802  40.033  34.927   3.066
13020W        W79803  22.754  42.058   1.799
13021W        W79804  23.646  39.039   3.351
13022W        W79805  44.996  41.423  11.199
13023W        W79806  32.574  21.509   0.303
13024W        W79807   5.901   2.363   1.785
13025W        W79808  33.813  16.747  11.616
13026W        W79809  28.447  42.558   4.567
13027W        W79810  24.990  13.383  12.446
13028W        W79811  29.081  22.757  12.104
13029W        W79812   5.767  44.237  10.384
13030W        W79813  21.744  17.593  12.555
13031W        W79814  44.789   6.270   0.441
13032W        W79815  38.339  18.357   4.156
13033W        W79816  36.384  27.238  14.113
13034W        W79817  17.527  21.745   3.744
13035W        W79818  21.907  33.108  11.159
13036W        W79819   4.426  11.763  11.099
13037W        W79820  43.855   3.303   2.830
13038W        W79821  35.862  15.954   1.691
13039W        W79822  36.678   6.127   1.068
13040W        W79823  36.283  15.417   4.571
13041W        W79824  24.516  22.499  13.567
13042W        W79825  25.310  30.894   2.337
13043W        W79826   3.494  11.222   1.878
13044W        W79827  42.936  20.304   0.736
13045W        W79828  31.021  38.001  14.135
13046W        W79829  20.749  25.991  11.861
13047W        W79830  15.027  23.157   3.294
13048W        W79831  26.395   6.188  14.312
13049W        W79832  15.842   9.857   3.235
13050W        W79833  31.651  13.564   1.691
13051W        W79834  44.194  38.694   3.166
13052W        W79835   8.853   2.747  14.750
13053W        W79836  27.757  30.130  11.845
13054W        W79837  43.204  21.240  12.409
13055W        W79838  39.119  34.672   0.417
13056W        W79839  41.460   6.890  13.416
13057W        W79840  40.203   7.607  13.636
13058W        W79841  38.889  13.281   3.526
13059W        W79842  15.178  40.826   2.313
13060W        W79843  39.085  24.116   1.814
13061W        W79844   9.395  41.470   4.986
13062W        W79845  12.746   9.788   1.362
13063W        W79846  44.535  41.354   0.071
13064W        W79847  40.244   5.317   2.663
13065W        W79848   8.582  34.064  11.627
13066W        W79849  35.424  44.336   3.630
13067W        W79850  34.507  43.552   1.367
13068W        W79851  18.855  30.593   2.260
13069W        W79852  42.092  44.478   5.031
13070W        W79853   3.395  38.037   1.646
13071W        W79854  38.876  29.777   3.358
13072W        W79855  20.804  15.333   2.801
13073W        W79856  26.869  21.630   4.723
13074W        W79857   9.610  18.243   3.812
13075W        W79858   0.424  18.718   4.657
13076W        W79859   1.460  19.811   4.109
13077W        W79860  41.503  25.343   0.249
13078W        W79861  28.099  24.704   3.341
13079W        W79862  32.487  35.310   2.198
13080W        W79863  18.158  35.360  14.008
13081W        W79864  21.012  28.180   3.211
13082W        W79865  44.280  13.271  10.266
13083W        W79866  37.100  43.958  10.748
13084W        W79867  41.005  23.727  10.722
13085W        W79868  40.008  23.294   0.285
13086W        W79869  42.542  35.358   2.390
13087W        W79870  32.728  22.760   2.347
13088W        W79871   0.815   1.814   2.751
13089W        W79872  23.962  17.757  10.679
13090W        W79873  14.604  24.745  12.996
13091W        W79874  39.467  13.203   2.097
13092W        W79875  32.174  26.299   2.798
13093W        W79876  20.841  12.551   3.642
13094W        W79877  25.566  11.992  11.628
13095W        W79878  30.852   9.226   2.726
13096W        W79879  37.852  21.766  13.844
13097W        W79880  44.674   1.953  14.864
13098W        W79881  13.374  32.997   0.356
13099W        W79882  39.049  13.882   2.676
13100W        W79883  19.128  27.625   3.443
13101W        W79884  32.120  31.109   1.853
13102W        W79885  16.353  23.030  14.549
13103W        W79886  36.420  33.971   2.450
13104W        W79887  23.189  24.695  14.392
13105W        W79888  25.039  19.836   4.296
13106W        W79889  25.520  18.122   0.756
13107W        W79890  12.830  31.848   3.345
13108W        W79891   1.425  20.494   1.425
13109W        W79892  10.659  31.832   2.312
13110W        W79893  26.148  14.649  12.075
13111W        W79894  27.851  41.256  13.021
13112W        W79895   2.314  42.287   3.210
13113W        W79896  18.492  17.254  14.938
13114W        W79897  40.549  42.010   4.124
13115W        W79898  38.157   5.366   1.682
13116W        W79899  31.447  38.378   2.283
13117W        W79900  24.209  27.661   1.374
13118W        W79901  43.983  28.365   1.257
13119W        W79902  44.444  10.295   1.691
13120W        W79903  37.378  21.467  14.907
13121W        W79904  24.574  29.493   2.229
13122W        W79905  32.181  10.934   4.637
13123W        W79906  14.530  21.698  11.104
13124W        W79907   1.780  27.099   0.364
13125W        W79908  22.049   0.577  11.396
13126W        W79909  37.427  41.047   4.140
13127W        W79910  16.303  13.089   0.262
13128W        W79911  11.614  11.228   3.654
13129W        W79912  26.048  34.686  14.416
13130W        W79913  33.151   4.810   4.390
13131W        W79914  42.834  18.068  11.326
13132W        W79915  22.817   0.769   3.665
13133W        W79916  12.418  20.569  13.991
13134W        W79917  40.853  39.431   0.241
13135W        W79918  34.560  29.875  11.227
13136W        W79919  31.070  38.922  10.944
13137W        W79920  17.888  18.142   3.654
13138W        W79921  44.565  44.216   4.275
13139W        W79922  34.683  18.239   1.920
13140W        W79923  31.477   0.979  14.013
13141W        W79924   1.436  12.183   4.962
13142W        W79925   7.254  44.149  14.877
13143W        W79926  32.537  20.053   1.184
13144W        W79927  27.211  15.181   2.485
13145W        W79928  38.276  37.925  11.846
13146W        W79929  13.246  32.975  14.395
13147W        W79930  11.704  24.783   1.250
13148W        W79931  18.311  30.473  14.984
13149W        W79932  37.887  19.285  14.423
13150W        W79933  36.393   4.796   0.867
13151W        W79934  36.510  36.030  10.705
13152W        W79935  39.916   3.754  10.885
13153W        W79936   3.920  42.978  13.526
13154W        W79937  33.011  18.184  10.104
13155W        W79938  18.613  12.051  13.455
13156W        W79939  27.165  18.129   1.973
13157W        W79940   4.218  26.650  12.472
13158W        W79941  26.020  29.515  13.014
13159W        W79942  32.806  44.519  11.513
13160W        W79943  38.330   8.359   1.326
13161W        W79944   4.314  10.002   0.537
13162W        W79945  26.726  30.693  11.932
13163W        W79946  25.491  33.326   2.173
13164W        W79947  43.253  24.935   3.716
13165W        W79948  26.626  11.060   1.772
13166W        W79949   0.759   4.338  13.853
13167W        W79950  40.927  34.498  13.325
13168W        W79951  36.796  39.820   0.966
13169W        W79952  43.513  30.844  11.128
13170W        W79953   5.838  21.568   4.150
13171W        W79954  36.538  44.865   2.922
13172W        W79955  16.124  40.278  10.770
13173W        W79956  26.223  15.661  14.335
13174W        W79957   5.830  40.558  12.917
13175W        W79958   4.631  28.681   4.628
13176W        W79959   9.211  30.011   2.820
13177W        W79960  43.265  38.411  13.773
13178W        W79961   2.285  22.537  13.355
13179W        W79962  29.859  43.546   3.790
13180W        W79963  26.507  38.444  12.813
13181W        W79964  39.594   6.584  14.470
13182W        W79965  30.838  12.304  13.762
13183W        W79966   0.064   4.782  13.727
13184W        W79967   1.902  30.122  12.155
13185W        W79968   7.338  20.447   0.453
13186W        W79969   3.935   7.970  14.363
13187W        W79970  16.167   9.212   4.222
13188W        W79971  10.099  11.281   4.563
13189W        W79972  41.816  41.824  10.509
13190W        W79973   9.082  26.146   2.341
13191W        W79974  39.469  18.809   1.491
13192W        W79975  28.068  36.616  10.646
13193W        W79976  10.846   6.351  14.045
13194W        W79977  31.330  16.689   4.770
13195W        W79978  19.816  18.720  12.890
13196W        W79979  39.573  32.685  14.111
13197W        W79980  31.943  26.513   4.732
13198W        W79981  29.572  31.707  14.793
13199W        W79982   7.848  30.701   4.759
13200W        W79983  38.830   8.617   1.208
13201W        W79984  14.810  40.984   2.826
13202W        W79985  41.155  39.917  13.651
13203W        W79986  13.065  22.640  12.471
13204W        W79987  12.478  19.725   3.265
13205W        W79988   2.871  12.842   0.462
13206W        W79989  17.156  15.694   3.934
13207W        W79990   0.853  17.634   3.152
13208W        W79991  38.915  25.243  14.036
13209W        W79992   4.363  34.622  12.095
13210W        W79993   3.802  32.669   1.359
13211W        W79994  34.655  15.347   2.939
13212W        W79995  35.566  24.083   3.628
13213W        W79996  34.714  23.714   0.896
13214W        W79997  21.836   7.855   2.319
13215W        W79998  18.760  38.870  11.118
13216W        W79999  21.564  15.283  12.439
13217W        W80000   0.077   1.888  14.559
13218W        W80001  28.871  19.532   0.170
13219W        W80002  21.013  37.422   1.357
13220W        W80003   4.957  17.227   0.986
13221W        W80004  14.996  12.505  12.967
13222W        W80005  17.331  21.079   0.354
13223W        W80006  38.034  35.471  11.406
13224W        W80007  33.089  19.402  11.004
13225W        W80008  22.343   3.169  12.983
13226W        W80009  25.755  38.264  11.073
13227W        W80010   9.809  11.374  10.583
13228W        W80011   7.959  44.506   3.172
13229W        W80012   6.513  12.775  13.583
13230W        W80013  11.564  38.375  14.774
13231W        W80014  17.131  27.583   0.252
13232W        W80015  12.281  37.525   4.849
13233W        W80016  37.601   5.858  14.850
13234W        W80017  36.421  20.009   1.234
13235W        W80018  30.688  11.019  13.373
13236W        W80019   0.405  26.899   2.978
13237W        W80020  30.510   2.888   1.380
13238W        W80021  21.568  25.024   0.280
13239W        W80022  23.123   0.240  12.798
13240W        W80023  35.616  33.182   2.880
13241W        W80024  44.820  17.284   2.550
13242W        W80025  38.108   4.923  12.219
13243W        W80026   4.319  41.012  11.651
13244W        W80027  38.453  30.820  14.340
13245W        W80028  43.531   2.251  14.070
13246W        W80029   9.249  37.571   4.594
13247W        W80030  27.519   4.257  14.214
13248W        W80031  25.422  21.596  14.869
13249W        W80032  13.238  31.133   0.980
13250W        W80033  13.036  15.332  13.367
13251W        W80034  29.946  35.800  12.576
13252W        W80035  15.701   7.130   4.033
13253W        W80036  41.753   6.832  13.868
13254W        W80037  36.358  33.482   0.367
13255W        W80038  26.899  42.494   9.603
13256W        W80039  37.382   8.176   4.491
13257W        W80040  12.016  40.458   3.651
13258W        W80041  24.771  27.390   3.357
13259W        W80042  23.533  40.491   4.561
13260W        W80043  21.524   2.208  12.968
13261W        W80044  44.430  14.780  13.277
13262W        W80045  21.505  37.155   2.212
13263W        W80046   1.304   2.594   4.017
13264W        W80047  24.541  36.971  10.911
13265W        W80048  24.524  25.230   0.370
13266W        W80049  13.707  13.299   2.863
13267W        W80050   0.888   3.484   5.042
13268W        W80051  19.766   6.738   0.547
13269W        W80052  19.774  24.863  13.880
13270W        W80053  40.991  12.398   2.241
13271W        W80054  16.293  21.607  10.684
13272W        W80055  39.766  16.140  14.902
13273W        W80056  33.624  24.222  11.529
13274W        W80057  29.095  35.405   0.635
13275W        W80058  18.739  28.545  14.026
13276W        W80059  18.049  22.720   4.405
13277W        W80060  43.452  42.463  14.725
13278W        W80061  15.648  19.255   3.318
13279W        W80062  21.843  27.865  13.411
13280W        W80063  28.134  17.054   1.171
13281W        W80064  12.669  18.746   3.328
13282W        W80065   2.811  21.781   2.894
13283W        W80066  11.676  29.144   3.723
13284W        W80067  38.337  41.884  14.525
13285W        W80068  13.195  40.842  12.084
13286W        W80069  16.339   9.727   3.204
13287W        W80070  32.694  32.035   1.846
13288W        W80071  30.162  21.782  14.152
13289W        W80072   1.794  11.309   2.640
13290W        W80073  38.820  36.652   3.741
13291W        W80074  20.535  15.100   3.252
13292W        W80075  12.359   5.906   2.509
13293W        W80076  35.488  23.684   2.328
13294W        W80077  34.673  40.996  14.359
13295W        W80078  14.837   6.937   3.351
13296W        W80079  20.876  28.935   2.815
13297W        W80080   1.762  31.621  10.719
13298W        W80081  18.761  34.975   2.222
13299W        W80082   9.228  43.295   4.849
13300W        W80083   9.257  20.676  10.717
13301W        W80084  43.802  28.548  10.703
13302W        W80085   6.103  10.483   1.169
13303W        W80086   8.144  15.574   0.798
13304W        W80087  11.530   0.895   1.778
13305W        W80088   7.118  28.010  10.487
13306W        W80089  40.932  22.869   2.261
13307W        W80090  14.138   6.807  12.921
13308W        W80091  14.199  21.261   4.318
13309W        W80092  35.531  13.173   0.871
13310W        W80093  35.764  28.989  11.225
13311W        W80094  43.153  14.494  11.122
13312W        W80095   7.151  30.554   3.265
13313W        W80096  42.762  10.384  12.049
13314W        W80097  34.292  11.906  11.389
13315W        W80098  21.390  35.142   3.110
13316W        W80099  43.517  13.593  11.471
13317W        W80100  29.773  36.525   3.714
13318W        W80101  32.953  24.493  13.422
13319W        W80102  30.972  24.626   4.326
13320W        W80103  16.552   6.988   2.865
13321W        W80104  27.595  37.409  10.699
13322W        W80105  34.902  41.877  10.821
13323W        W80106  27.908   7.748   2.167
13324W        W80107  16.184  43.553  13.758
13325W        W80108  29.536  21.396  11.263
13326W        W80109  36.117  19.888   5.371
13327W        W80110  14.773   3.803   3.857
13328W        W80111   9.363  44.486  10.560
13329W        W80112  17.144  10.360   4.949
13330W        W80113  38.438  27.623  11.368
13331W        W80114  40.864  14.578  11.868
13332W        W80115  27.571  22.341   2.245
13333W        W80116  15.769  14.445  13.988
13334W        W80117   5.422  37.401   3.188
13335W        W80118  41.144  37.338   4.970
13336W        W80119   4.197  13.256  10.970
13337W        W80120  37.210  20.987   0.052
13338W        W80121  23.283  40.886  10.523
13339W        W80122  32.154  27.013  13.531
13340W        W80123  27.685  21.319   1.188
13341W        W80124   7.407  32.031  11.435
13342W        W80125  29.899  13.208   0.932
13343W        W80126  20.047  11.814   2.338
13344W        W80127  13.114  30.424   4.935
13345W        W80128  12.858  13.203   2.199
13346W        W80129  40.154  12.202   4.312
13347W        W80130  37.072  24.535  10.639
13348W        W80131   4.900  26.703  14.775
13349W        W80132  15.851  14.398  10.675
13350W        W80133  35.335  10.605  10.549
13351W        W80134   3.960  19.899   3.078
13352W        W80135  20.073  16.888   4.651
13353W        W80136  42.850  38.596   4.143
13354W        W80137   0.971  36.024   4.751
13355W        W80138  25.974   2.098  12.714
13356W        W80139  21.716  11.107   0.088
13357W        W80140  20.628  28.675  14.332
13358W        W80141  11.745  21.548  11.108
13359W        W80142  23.467  10.492   3.770
13360W        W80143  42.011  12.722   9.873
13361W        W80144  12.575  14.397  14.102
13362W        W80145   4.337  31.855   2.741
13363W        W80146  26.250  14.133   2.772
13364W        W80147  16.312  13.093  14.713
13365W        W80148  16.208  37.519   3.659
13366W        W80149  18.183   9.277  14.036
13367W        W80150  33.125  24.584   5.057
13368W        W80151  12.371  36.133  14.223
13369W        W80152  37.906  22.114  11.437
13370W        W80153  25.022  27.164  13.424
13371W        W80154  36.613   0.322   1.697
13372W        W80155  40.527   4.428  11.170
13373W        W80156  13.875  42.059   4.199
13374W        W80157  42.800   4.295   0.964
13375W        W80158  13.550  43.333  10.710
13376W        W80159  26.736  27.415   4.068
13377W        W80160  37.675   7.383   2.837
13378W        W80161  13.107   1.832  14.063
13379W        W80162  20.505  35.601   2.127
13380W        W80163  18.601   5.822  13.976
13381W        W80164  29.480  31.704  13.884
13382W        W80165  30.362  18.617  13.525
13383W        W80166  22.255  19.226   2.894
13384W        W80167  20.150  26.273  12.928
13385W        W80168   2.041   0.377   0.503
13386W        W80169   0.290  13.432   3.586
13387W        W80170  41.278   7.789   1.440
13388W        W80171   0.966  11.171  11.245
13389W        W80172  23.504  35.597   3.375
13390W        W80173  25.491  43.190  11.029
13391W        W80174  18.806  32.253  11.114
13392W        W80175  34.666  18.308   1.014
13393W        W80176  23.103  40.398  11.229
13394W        W80177  12.702   4.852  11.568
13395W        W80178  34.499   3.268  13.052
13396W        W80179  36.339  33.915  14.578
13397W        W80180  34.585  28.931  14.462
13398W        W80181  15.853  29.638   2.240
13399W        W80182  40.569  44.055  11.856
13400W        W80183  43.429  10.772  13.135
13401W        W80184  19.044  16.490   4.571
13402W        W80185  13.754   7.444  13.601
13403W        W80186  23.422  40.936  13.988
13404W        W80187  42.555  13.321   2.688
13405W        W80188   5.762  34.929  10.722
13406W        W80189  10.670  41.005  10.549
13407W        W80190  43.756  23.539  14.826
13408W        W80191   0.916  23.420  13.497
13409W        W80192  35.339  29.170  13.008
13410W        W80193  37.612  36.415  11.181
13411W        W80194   4.515   9.249   3.119
13412W        W80195  44.132  16.790   2.400
13413W        W80196  22.802  18.244   4.666
13414W        W80197   5.628  30.714  14.999
13415W        W80198  23.218  40.424  12.169
13416W        W80199  41.284  31.508  12.891
13417W        W80200  43.812  40.786   2.249
13418W        W80201  35.933   0.634   4.108
13419W        W80202  15.614  16.389  11.461
13420W        W80203  33.591   8.940   2.813
13421W        W80204  41.760  16.703   1.159
13422W        W80205  14.018  43.205  14.369
13423W        W80206  18.657  31.881   3.686
13424W        W80207  29.838  34.306   0.707
13425W        W80208   2.679  26.001  11.033
13426W        W80209   6.245  32.533  12.140
13427W        W80210  43.370  26.549  10.493
13428W        W80211  34.442   5.310  14.891
13429W        W80212   4.754  11.734  13.978
13430W        W80213  19.845  41.309  11.995
13431W        W80214  28.815  19.086   2.870
13432W        W80215  10.790  15.071  11.606
13433W        W80216  18.857  14.691  11.857
13434W        W80217  40.437  39.892  11.702
13435W        W80218  28.019  40.412  11.696
13436W        W80219   1.224   7.671   4.133
13437W        W80220  42.012  40.934  12.409
13438W        W80221  28.755  21.122  11.611
13439W        W80222  18.539   2.753   2.779
13440W        W80223  21.653   2.618   3.661
13441W        W80224  10.842  21.807  14.677
13442W        W80225  15.827  33.421   0.813
13443W        W80226  16.776  29.219  12.161
13444W        W80227   4.496  33.383   3.915
13445W        W80228  36.024  19.448  11.141
13446W        W80229  30.997  44.291   3.484
13447W        W80230  34.079  34.586  10.350
13448W        W80231  18.616  12.530  12.347
13449W        W80232   6.965  29.159  13.892
13450W        W80233  21.206  31.852  13.923
13451W        W80234  29.023  17.108  13.055
13452W        W80235  31.134  16.606  12.415
13453W        W80236  27.659  42.808  13.697
13454W        W80237  20.620  35.286   1.742
13455W        W80238   8.254  19.227  12.773
13456W        W80239  26.599  33.689   3.657
13457W        W80240  10.143   9.726   3.172
13458W        W80241  43.467  16.904   0.691
13459W        W80242   1.486  11.574  10.654
13460W        W80243  34.142   3.436   2.490
13461W        W80244   0.078  30.746  11.036
13462W        W80245  38.310  20.567  12.951
13463W        W80246  28.932  20.486   3.227
13464W        W80247  17.196  29.902  14.013
13465W        W80248   9.811   1.696  10.729
13466W        W80249   9.571  42.953  13.832
13467W        W80250  15.831   8.324  13.961
13468W        W80251  19.202  38.425   1.044
13469W        W80252  11.896  25.883   3.262
13470W        W80253   6.587  13.566  12.529
13471W        W80254  12.663  30.328   3.354
13472W        W80255  17.054   2.179  13.879
13473W        W80256  12.353  29.132   2.564
13474W        W80257  29.466   5.326   3.858
13475W        W80258   9.239  17.265   1.478
13476W        W80259  11.879  17.629   2.367
13477W        W80260  17.965  26.581   0.192
13478W        W80261  14.613  27.026  11.403
13479W        W80262   0.442  42.773   4.144
13480W        W80263  40.011  31.685   2.738
13481W        W80264   0.481  18.200   0.747
13482W        W80265  24.224  19.682  14.142
13483W        W80266  21.122  33.123   3.778
13484W        W80267  15.847  38.171  13.609
13485W        W80268  36.830  12.070  10.781
13486W        W80269  30.153  22.855  11.040
13487W        W80270   8.964  35.833   1.726
13488W        W80271  39.099  40.407   2.823
13489W        W80272  24.531   1.943   0.852
13490W        W80273  31.151  11.155  10.280
13491W        W80274   1.937  12.272   0.029
13492W        W80275  30.196  19.775   4.425
13493W        W80276  36.403  20.977   0.749
13494W        W80277  30.840  17.317  13.925
13495W        W80278  36.852  32.264  11.947
13496W        W80279  17.291   1.717  11.771
13497W        W80280  30.160   0.826   2.413
13498W        W80281   0.883  22.039   0.922
13499W        W80282  27.363  11.372   0.790
13500W        W80283  10.132  38.116   4.051
13501W        W80284  23.204   9.228   4.178
13502W        W80285  37.619  24.703   2.600
13503W        W80286  14.053   3.774  11.035
13504W        W80287  27.705  36.629   2.102
13505W        W80288  11.536   8.738   1.969
13506W        W80289  21.156  13.661   4.220
13507W        W80290   2.697  12.739   4.575
13508W        W80291  20.577  14.269  12.500
13509W        W80292  35.518  35.734  11.186
13510W        W80293   9.708   6.411  10.735
13511W        W80294  20.379   4.952   2.278
13512W        W80295  21.019  30.790  12.497
13513W        W80296  19.779   4.524  11.870
13514W        W80297  29.147  37.091   4.689
13515W        W80298  42.886  10.297   4.995
13516W        W80299  40.194  28.658   2.195
13517W        W80300  17.824  32.204   3.717
13518W        W80301  14.668  11.733   1.488
13519W        W80302  43.005  17.767  13.537
13520W        W80303   1.723  38.472   1.282
13521W        W80304  40.342  21.609   0.081
13522W        W80305  14.822  23.519  12.879
13523W        W80306  38.768  24.977  13.075
13524W        W80307  22.969  36.975  13.040
13525W        W80308  15.796  17.976  10.698
13526W        W80309  11.638   0.452  10.507
13527W        W80310  21.454  35.446   1.902
13528W        W80311  44.791  39.425  11.419
13529W        W80312  26.205  32.857   3.658
13530W        W80313  18.692  30.412   4.573
13531W        W80314  43.348   8.136   0.208
13532W        W80315   9.865   2.780  13.215
13533W        W80316  35.190   1.684   3.268
13534W        W80317  20.163   9.835   4.824
13535W        W80318   3.456  24.127  13.606
13536W        W80319  10.553  11.359   2.732
13537W        W80320  40.322  17.110   4.551
13538W        W80321   6.042  37.349  12.728
13539W        W80322  31.861  11.877   3.569
13540W        W80323  22.089  13.758  12.364
13541W        W80324  15.761  10.164   2.682
13542W        W80325  40.614  15.387  13.410
13543W        W80326  20.665  39.268   0.625
13544W        W80327  10.304  30.461   0.313
13545W        W80328  29.108  13.140   4.494
13546W        W80329   7.676  32.536   3.761
13547W        W80330  44.406   5.788  10.658
13548W        W80331  23.232  37.083  10.947
13549W        W80332  13.643  42.045   1.916
13550W        W80333  12.746  31.659   2.063
13551W        W80334  28.062  39.616   3.292
13552W        W80335  44.398  15.390  13.305
13553W        W80336   2.217  33.413   2.276
13554W        W80337   4.545   5.018  12.547
13555W        W80338   4.247  27.998   2.856
13556W        W80339  29.328  25.714  11.113
13557W        W80340  44.345  14.165  14.709
13558W        W80341  43.973  30.629   2.299
13559W        W80342   3.359  23.120  11.050
13560W        W80343  37.366  42.161  14.727
13561W        W80344  19.185   8.209  10.654
13562W        W80345  28.174  18.652   4.123
13563W        W80346   6.944  42.523   3.061
13564W        W80347  20.591  24.690   4.875
13565W        W80348  11.231  42.314  14.265
13566W        W80349  41.983  37.616   0.465
13567W        W80350   9.245  15.790  13.450
13568W        W80351  35.939  20.255  14.920
13569W        W80352  40.095  14.132  14.629
13570W        W80353  20.030  37.503  13.387
13571W        W80354   5.875  24.193   4.131
13572W        W80355  15.186  19.049   3.344
13573W        W80356  15.584  19.949  11.884
13574W        W80357  17.885   0.914   0.734
13575W        W80358  32.167  21.699   2.825
13576W        W80359  43.322  36.046   3.647
13577W        W80360   5.704  38.128   2.162
13578W        W80361  37.292  23.046   2.864
13579W        W80362  27.668  35.367  11.628
13580W        W80363  13.083  35.325   3.272
13581W        W80364   5.084  28.588   4.880
13582W        W80365  40.864  42.964   2.823
13583W        W80366  36.836  12.272  11.648
13584W        W80367   6.949  20.135   0.268
13585W        W80368  33.977  31.905  12.625
13586W        W80369  17.662   5.407  13.837
13587W        W80370  17.231  14.083   1.450
13588W        W80371  43.316  25.072  14.303
13589W        W80372  30.202   0.627  11.815
13590W        W80373  27.197  22.207   1.428
13591W        W80374  26.582   9.462   3.105
13592W        W80375  25.540  10.373   3.666
13593W        W80376  22.532  42.043  10.983
13594W        W80377  32.038  15.253  12.034
13595W        W80378  11.686  20.278   4.858
13596W        W80379   3.250  24.718   2.608
13597W        W80380   5.152   8.898   2.356
13598W        W80381   1.429  15.876   0.307
13599W        W80382  37.666   5.298   3.225
13600W        W80383  42.570  27.215   0.393
13601W        W80384  31.577  30.472  11.554
13602W        W80385   5.141   0.232   0.993
13603W        W80386  43.731  44.373   4.710
13604W        W80387  23.785  17.707   3.359
13605W        W80388  44.527  24.616  13.893
13606W        W80389  15.254  21.015  11.035
13607W        W80390  27.908  17.515   3.326
13608W        W80391  25.384  43.679   2.172
13609W        W80392  18.843   5.873  13.494
13610W        W80393   3.689   9.185  12.349
13611W        W80394  32.023   2.363  14.845
13612W        W80395   8.428  19.725   4.647
13613W        W80396   8.315   7.365  10.015
13614W        W80397  25.041  39.933   3.439
13615W        W80398  41.012  44.693  12.131
13616W        W80399  13.841   2.999   4.434
13617W        W80400  27.993  18.844  10.736
13618W        W80401  14.390  35.407  11.125
13619W        W80402  41.054   8.695   0.446
13620W        W80403  10.607  17.963   3.286
13621W        W80404  17.771   3.919   1.941
13622W        W80405  14.046  23.619   0.858
13623W        W80406  12.567  43.345  14.443
13624W        W80407  43.564   8.127  12.027
13625W        W80408  40.260  41.939   0.657
13626W        W80409  41.609  14.317  13.008
13627W        W80410  28.290  22.980   0.869
13628W        W80411  36.442   6.375   0.531
13629W        W80412  25.118   1.526  13.904
13630W        W80413  13.738   6.608   1.438
13631W        W80414  22.170  18.158  13.966
13632W        W80415  12.850  12.760   1.481
13633W        W80416  41.387  23.253  13.517
13634W        W80417  20.945  37.351   0.365
13635W        W80418  40.033  15.543  13.093
13636W        W80419   3.809  37.323   4.145
13637W        W80420  25.124  38.883  11.582
13638W        W80421  40.771  43.255  14.919
13639W        W80422  43.246  11.701   3.258
13640W        W80423  16.858  18.249  12.125
13641W        W80424  23.139  14.500  12.892
13642W        W80425  11.653  31.990   1.415
13643W        W80426   9.869   0.250   3.415
13644W        W80427  36.444  41.585   0.777
13645W        W80428  14.955  14.294   4.521
13646W        W80429  38.093   7.659   4.143
13647W        W80430  12.012  18.709   3.899
13648W        W80431   7.321  39.082  14.304
13649W        W80432   1.068  11.799   5.094
13650W        W80433  18.428   7.696   3.379
13651W        W80434  10.719   8.127   0.923
13652W        W80435  33.099  34.606   3.770
13653W        W80436   1.784   1.602  12.857
13654W        W80437   7.147  39.562  14.362
13655W        W80438  30.962  12.653   3.725
13656W        W80439  10.220  25.631  10.502
13657W        W80440  35.952   2.242  11.082
13658W        W80441  30.348  29.877   3.670
13659W        W80442  42.371   7.814  11.353
13660W        W80443   1.044  43.212  13.344
13661W        W80444  16.087  28.240   3.644
13662W        W80445  36.703  23.669  11.145
13663W        W80446  26.629  25.588  13.125
13664W        W80447  28.459   6.063  10.751
13665W        W80448  40.165  33.161   1.454
13666W        W80449  33.917  32.888  11.830
13667W        W80450  19.113  25.494   1.831
13668W        W80451  15.526  35.614  13.275
13669W        W80452  32.381  43.161  11.985
13670W        W80453  24.977   6.412  10.518
13671W        W80454  32.087  41.798  11.626
13672W        W80455  29.624  35.476  14.472
13673W        W80456   5.316  11.116  14.399
13674W        W80457   2.851  34.298  13.976
13675W        W80458  43.039  21.643  12.122
13676W        W80459  23.032  33.087   0.512
13677W        W80460  21.562  16.601   3.306
13678W        W80461  25.436  27.080   0.900
13679W        W80462  40.446  18.908  11.992
13680W        W80463  27.158  37.072  14.404
13681W        W80464  11.248  15.615  11.009
13682W        W80465  26.976  27.094  14.347
13683W        W80466   8.967  16.683  14.322
13684W        W80467  19.381  25.432   1.232
13685W        W80468  27.033  26.107  12.115
13686W        W80469  23.166   7.737   0.417
13687W        W80470  23.889   9.072  13.071
13688W        W80471   6.820  21.236   1.388
13689W        W80472  25.118  25.697   1.732
13690W        W80473   4.334  26.945   0.409
13691W        W80474  37.419  22.538   1.811
13692W        W80475   0.380  38.608   2.625
13693W        W80476  33.075   3.344   0.540
13694W        W80477  33.683  14.611  10.460
13695W        W80478   3.445  44.284  10.128
13696W        W80479   3.317  13.740   1.290
13697W        W80480  41.458  26.404  11.048
13698W        W80481  30.238  16.621   2.896
13699W        W80482  24.695  32.003   1.930
13700W        W80483   8.385  34.520   1.707
13701W        W80484  24.942  16.569  12.070
13702W        W80485  25.547   5.280   2.407
13703W        W80486  38.274  25.808  13.426
13704W        W80487   8.142   1.166  14.911
13705W        W80488  32.827  34.100  13.066
13706W        W80489  39.428   4.310  14.403
13707W        W80490   8.480  36.360  11.583
13708W        W80491  10.167  41.688   9.894
13709W        W80492  20.189   3.915  11.208
13710W        W80493  27.174  35.394  11.601
13711W        W80494  35.834   7.169  12.475
13712W        W80495  42.324  28.144  13.225
13713W        W80496  19.651  13.761   4.087
13714W        W80497  23.658  44.630   4.491
13715W        W80498  29.557  28.418   3.694
13716W        W80499  44.265  12.937   2.272
13717W        W80500  43.722   9.438  14.487
13718W        W80501   2.826  43.023   0.436
13719W        W80502  34.583  36.873  14.901
13720W        W80503  18.203  23.434   1.288
13721W        W80504   6.616  27.156   0.858
13722W        W80505  42.244  24.915   1.220
13723W        W80506   0.955  23.934  13.442
13724W        W80507  22.291  23.649   0.493
13725W        W80508   0.287  32.898   3.629
13726W        W80509  43.391   5.386   3.219
13727W        W80510  43.418  25.113   0.895
13728W        W80511  36.532  28.615  14.517
13729W        W80512  39.612  16.060  13.057
13730W        W80513  23.519  12.354   2.660
13731W        W80514  19.952  16.129  11.725
13732W        W80515  40.313  20.138   2.269
13733W        W80516  20.676  17.566   0.938
13734W        W80517  12.726   0.564   2.680
13735W        W80518  25.514  12.420  14.240
13736W        W80519   9.412  28.815   3.266
13737W        W80520  25.601   3.610   3.706
13738W        W80521  13.990  25.276   4.161
13739W        W80522  44.391  34.029   1.911
13740W        W80523  36.137  13.273   3.589
13741W        W80524  35.105   9.824   1.674
13742W        W80525  24.491  33.487  10.486
13743W        W80526  18.933  15.731   3.700
13744W        W80527  22.202  40.244  13.460
13745W        W80528  17.077  29.867   1.773
13746W        W80529  39.571  13.982  11.799
13747W        W80530  11.695   0.355   2.641
13748W        W80531  26.621  40.275  12.117
13749W        W80532  37.405  41.793  12.776
13750W        W80533  34.681  13.207   3.436
13751W        W80534  26.574   9.127  14.399
13752W        W80535  35.178  12.447   1.316
13753W        W80536   0.920  17.909   0.657
13754W        W80537  23.260  41.329   2.263
13755W        W80538  35.058   5.930   9.688
13756W        W80539  30.559   6.353   3.900
13757W        W80540  24.341  35.905   2.845
13758W        W80541   9.750   2.488  11.141
13759W        W80542  40.450  20.893  11.048
13760W        W80543  35.466  18.505   2.366
13761W        W80544   9.214  10.544   2.811
13762W        W80545   2.676  39.094  11.145
13763W        W80546  39.395   1.294  14.528
13764W        W80547  10.277  32.130   1.293
13765W        W80548   3.299  42.294  12.015
13766W        W80549  34.877  37.267   4.200
13767W        W80550  15.438  21.614  14.435
13768W        W80551  41.629  21.707   0.700
13769W        W80552  38.975  22.672   1.507
13770W        W80553   5.014  26.902   0.427
13771W        W80554   5.651  17.049  11.428
13772W        W80555   8.823   9.663   2.732
13773W        W80556  14.736  39.592  10.111
13774W        W80557  31.393  39.234  14.295
13775W        W80558  18.653   7.669  14.558
13776W        W80559  30.631  42.892   0.295
13777W        W80560   3.661   1.373   2.562
13778W        W80561  21.228  21.812  10.630
13779W        W80562  14.886   4.809   2.658
13780W        W80563  19.224  17.859  10.554
13781W        W80564  16.083  19.760  13.016
13782W        W80565   1.326  37.234   2.840
13783W        W80566  31.039  35.088   2.268
13784W        W80567  21.887  23.905  14.660
13785W        W80568  26.238   8.970   1.751
13786W        W80569   5.331  19.723  12.748
13787W        W80570  38.258  36.383   0.568
13788W        W80571   5.102  43.868   2.714
13789W        W80572   2.268   8.896   1.682
13790W        W80573  24.341  27.945   2.616
13791W        W80574  20.734  25.953  10.898
13792W        W80575   6.617  14.417  12.929
13793W        W80576  37.921  29.458  12.437
13794W        W80577  21.478  29.173   2.159
13795W        W80578  21.031  11.720  13.831
13796W        W80579  12.733  27.257   3.707
13797W        W80580  35.666  15.704   2.936
13798W        W80581   5.233  16.660  13.949
13799W        W80582  26.654  30.169  11.200
13800W        W80583   2.476  16.671   3.234
13801W        W80584  36.909  33.530  10.779
13802W        W80585  35.867  20.296  14.031
13803W        W80586  38.659   2.413  13.815
13804W        W80587   3.403   1.045  11.603
13805W        W80588  44.947  27.123  10.813
13806W        W80589  12.375  18.341  11.207
13807W        W80590  22.673   5.483  11.010
13808W        W80591  44.017  38.807   1.185
13809W        W80592  14.666   1.392   4.354
13810W        W80593  43.022  36.785  11.901
13811W        W80594  11.694  39.415   2.254
13812W        W80595   0.971   7.183  13.939
13813W        W80596  38.508   9.580  14.383
13814W        W80597  23.190  35.501   0.830
13815W        W80598  10.831  29.291   3.236
13816W        W80599   2.449  23.928   4.191
13817W        W80600  41.254  38.084   1.590
13818W        W80601  35.629  13.086   4.440
13819W        W80602  42.907  24.654   2.383
13820W        W80603  15.521  10.752  13.013
13821W        W80604  34.670  27.952  10.573
13822W        W80605  31.863  24.417  12.078
13823W        W80606  38.946  41.740  13.543
13824W        W80607   8.382  20.202  12.070
13825W        W80608  39.362   3.420   1.516
13826W        W80609  14.158  28.633   0.445
13827W        W80610  14.358   4.496   4.338
13828W        W80611  23.999  36.339  14.475
13829W        W80612  21.650  14.055  12.543
13830W        W80613   5.218   2.041  13.036
13831W        W80614  34.123  28.487   3.592
13832W        W80615  14.815  28.326   3.383
13833W        W80616  38.207  14.130   0.328
13834W        W80617  21.569  42.993   2.872
13835W        W80618  32.681  30.719   3.823
13836W        W80619   1.468  28.469  11.628
13837W        W80620  10.684  42.833  12.907
13838W        W80621   6.620  25.943   2.781
13839W        W80622   9.394  41.769   2.631
13840W        W80623  44.812  42.284   2.905
13841W        W80624  34.555  38.320   3.093
13842W        W80625  16.992  25.111   2.822
13843W        W80626  43.094  40.352   3.576
13844W        W80627  36.548  13.885  14.392
13845W        W80628  22.717   7.269   4.924
13846W        W80629  25.089  39.738   2.926
13847W        W80630   7.704  18.295  11.092
13848W        W80631  15.081  32.433  13.995
13849W        W80632   7.856  30.526  10.417
13850W        W80633   7.689  32.686   0.454
13851W        W80634  25.594   1.406   0.484
13852W        W80635  35.914  19.653  13.091
13853W        W80636  19.051  22.151   1.646
13854W        W80637  29.396  12.856  13.874
13855W        W80638  20.893  21.288   2.785
13856W        W80639   7.148  27.433   1.331
13857W        W80640   5.000  37.415  12.806
13858W        W80641  20.671   2.312  12.852
13859W        W80642   7.126  44.176   3.793
13860W        W80643  10.602   4.157   3.245
13861W        W80644  43.727   8.110   0.963
13862W        W80645   9.651  25.664  12.558
13863W        W80646  30.550  12.137  14.222
13864W        W80647  28.679  34.670  13.567
13865W        W80648  22.403   6.833   4.916
13866W        W80649  39.194   0.439  14.279
13867W        W80650  38.765  12.219   3.749
13868W        W80651  33.737   9.690   4.726
13869W        W80652  22.483  27.266  11.157
13870W        W80653  28.078  41.247   5.496
13871W        W80654   3.388  16.543   1.729
13872W        W80655   3.893  31.447   3.931
13873W        W80656  44.526  40.045  11.968
13874W        W80657   3.423  18.776   0.733
13875W        W80658  19.602  15.821  11.483
13876W        W80659   8.925  30.029   3.259
13877W        W80660  32.430  15.193   1.483
13878W        W80661  31.849  24.728   3.798
13879W        W80662  12.846   7.457  11.575
13880W        W80663  38.937  25.245  11.709
13881W        W80664  38.493  30.694   3.349
13882W        W80665  14.440  28.253   1.371
13883W        W80666  28.670  30.868  13.423
13884W        W80667   8.168  42.940  13.939
13885W        W80668  11.375   9.791  13.830
13886W        W80669  17.749  37.627  12.882
13887W        W80670   7.598  37.493   3.298
13888W        W80671  15.532  28.998   0.393
13889W        W80672  32.128   6.703   0.543
13890W        W80673  42.867   9.111  12.529
13891W        W80674  13.766   9.837   1.429
13892W        W80675  19.265  22.182  13.450
13893W        W80676  11.068  42.980  11.670
13894W        W80677  23.418  43.619   0.348
13895W        W80678  20.269  43.211   2.312
13896W        W80679  11.218  16.903  10.454
13897W        W80680   4.554  34.431  12.532
13898W        W80681  20.084  44.913  14.019
13899W        W80682   5.403   8.406   4.623
13900W        W80683  13.352  39.895   3.760
13901W        W80684   5.238   0.536  14.139
13902W        W80685  26.790  32.480   3.138
13903W        W80686  30.963  39.538  12.173
13904W        W80687  41.985  34.498   0.539
13905W        W80688  42.995   3.743  13.971
13906W        W80689  17.807   8.548   1.002
13907W        W80690  34.835   9.340   0.941
13908W        W80691  14.801  28.922   0.963
13909W        W80692  37.028  33.031  12.843
13910W        W80693  20.544  44.931  12.869
13911W        W80694  12.042  21.347  13.513
13912W        W80695  44.492  19.046   4.605
13913W        W80696  29.621  23.197  14.764
13914W        W80697   5.271  25.710  12.923
13915W        W80698  14.384  37.486   3.334
13916W        W80699  27.616  33.835   1.721
13917W        W80700  30.322  29.585  14.835
13918W        W80701   6.960   0.383  11.353
13919W        W80702  37.489  26.713   0.442
13920W        W80703  34.637   2.212   0.733
13921W        W80704  40.233   3.998  11.857
13922W        W80705  43.266  20.172   3.150
13923W        W80706  40.373  31.484   3.055
13924W        W80707   2.199  33.389   3.812
13925W        W80708   3.789  12.164   4.176
13926W        W80709  39.425   3.852   0.045
13927W        W80710  13.054   0.964  11.962
13928W        W80711  43.789  12.780  13.610
13929W        W80712   0.922  17.179   4.159
13930W        W80713  11.033  25.449  14.952
13931W        W80714   0.321   8.853   3.654
13932W        W80715  20.688  39.782   3.003
13933W        W80716  26.671  19.201  12.520
13934W        W80717  18.613  17.562   3.634
13935W        W80718  10.176  37.276  10.002
13936W        W80719  43.083  25.927  12.462
13937W        W80720  40.011  34.158   2.810
13938W        W80721   2.364   6.603   2.422
13939W        W80722  19.237  26.261  12.868
13940W        W80723  10.335  31.194  14.769
13941W        W80724  43.442  25.461   2.114
13942W        W80725  27.247  41.343  14.850
13943W        W80726  31.199   6.297  13.747
13944W        W80727  40.218   1.248   4.564
13945W        W80728   9.149  21.257   0.855
13946W        W80729  39.774   8.993   2.920
13947W        W80730  41.364  26.106  10.624
13948W        W80731  37.689  18.642   3.269
13949W        W80732   5.428  43.693   4.802
13950W        W80733  28.580  37.965   2.893
13951W        W80734  38.563   8.432  11.155
13952W        W80735   5.884  11.155  14.327
13953W        W80736  23.036  30.564   2.469
13954W        W80737  20.232  24.560  12.154
13955W        W80738   6.092  34.782   1.175
13956W        W80739  29.370   4.541   3.257
13957W        W80740   5.936  17.020   2.870
13958W        W80741  20.118  25.518  14.903
13959W        W80742   0.713  23.648   1.231
13960W        W80743  41.302  43.492   1.900
13961W        W80744   0.800   3.142  12.993
13962W        W80745  29.984  42.503  10.720
13963W        W80746  39.357  24.460  11.665
13964W        W80747  25.560  41.366   2.871
13965W        W80748  11.597  30.260   1.931
13966W        W80749  36.389  10.621   9.987
13967W        W80750   6.704  11.635   2.235
13968W        W80751  10.840   4.125   0.978
13969W        W80752  17.138  32.469  13.863
13970W        W80753  44.440  28.693   3.177
13971W        W80754  24.740  42.577   3.763
13972W        W80755  30.670   8.790  12.111
13973W        W80756  26.565   1.042   1.801
13974W        W80757  20.669  33.313  11.681
13975W        W80758  25.487  27.014   2.687
13976W        W80759  33.000  20.326   1.191
13977W        W80760  39.622  30.949   4.103
13978W        W80761  39.902  42.388   0.637
13979W        W80762  36.134  20.117  10.275
13980W        W80763  13.261  21.494  13.340
13981W        W80764   8.272   0.547   2.412
13982W        W80765  31.395  42.388   3.576
13983W        W80766   3.738  38.358   2.874
13984W        W80767   5.225  36.719  14.724
13985W        W80768  35.890  15.925   0.766
13986W        W80769  39.424   2.674   2.140
13987W        W80770   2.434  26.319  12.093
13988W        W80771  44.585  13.640   4.057
13989W        W80772   6.037  34.874   2.907
13990W        W80773   8.825  38.681   0.867
13991W        W80774  21.849  29.515  13.939
13992W        W80775  13.280   6.845  14.046
13993W        W80776  13.348   1.479   2.425
13994W        W80777  30.389  18.390   2.272
13995W        W80778  19.928  25.949   3.774
13996W        W80779   4.740  32.427  14.512
13997W        W80780  36.300   1.200   0.796
13998W        W80781  28.517  24.416   3.154
13999W        W80782  41.285   5.924  12.906
14000W        W80783   2.179   1.695   2.488
14001W        W80784  40.346  31.365  14.327
14002W        W80785  13.415  13.853  12.261
14003W        W80786  12.899  36.370   3.237
14004W        W80787  44.764  22.746  13.837
14005W        W80788  20.067  22.458   3.728
14006W        W80789  23.649  39.607   4.633
14007W        W80790  34.895  26.444   3.610
14008W        W80791  13.529  30.507  12.910
14009W        W80792  36.743  17.144   1.831
14010W        W80793  36.795  33.969   2.055
14011W        W80794  29.231  12.277  12.458
14012W        W80795  11.208   4.961   2.189
14013W        W80796  34.623  12.295   3.372
14014W        W80797  36.402  19.710   4.920
14015W        W80798  26.450   3.709  11.136
14016W        W80799  32.590  31.681   2.825
14017W        W80800  23.285  32.262  14.327
14018W        W80801  17.418  41.183   5.012
14019W        W80802  24.676  33.333  14.512
14020W        W80803  34.947  15.849   3.287
14021W        W80804  26.375  23.693   1.466
14022W        W80805  31.589  21.082   1.271
14023W        W80806  37.320  12.352   0.161
14024W        W80807   7.284  14.921   1.908
14025W        W80808  27.198  33.896   0.914
14026W        W80809   3.529  27.600  10.723
14027W        W80810  39.271   3.224   3.758
14028W        W80811  38.420   6.666   2.907
14029W        W80812  23.062  38.282  12.375
14030W        W80813  40.941  16.256   4.165
14031W        W80814  38.878   2.944   0.623
14032W        W80815   9.610   3.809  13.982
14033W        W80816   5.280   8.673  10.903
14034W        W80817   9.272  29.539   4.584
14035W        W80818  37.232  38.482   2.117
14036W        W80819  25.541   9.703  13.456
14037W        W80820  27.701  32.346   1.761
14038W        W80821  43.791  39.413   0.802
14039W        W80822  15.354  24.213   4.128
14040W        W80823  28.025  16.859   9.971
14041W        W80824  28.023  43.979   3.530
14042W        W80825  27.991  16.132   0.376
14043W        W80826  20.226  12.128  11.669
14044W        W80827  39.905   3.707   0.844
14045W        W80828  24.242  16.648  14.950
14046W        W80829  38.536  27.371  10.935
14047W        W80830  15.883   5.283   1.232
14048W        W80831  20.133  22.596   4.584
14049W        W80832   6.611  38.910   1.607
14050W        W80833  28.270   3.777  12.167
14051W        W80834  18.973   3.676  11.239
14052W        W80835  23.707  30.239  12.099
14053W        W80836   8.378  34.558  12.045
14054W        W80837  31.832  32.501  12.948
14055W        W80838  15.243  40.999  11.157
14056W        W80839  35.372   5.501   3.151
14057W        W80840   3.350  27.018   0.411
14058W        W80841   5.857  12.345   0.466
14059W        W80842  31.188  34.781   4.233
14060W        W80843   1.563   9.712   3.745
14061W        W80844   5.917  21.274   4.617
14062W        W80845  14.693  13.276  11.438
14063W        W80846  35.434   0.727  13.002
14064W        W80847  40.540   3.292   0.437
14065W        W80848   8.657  23.197  14.760
14066W        W80849  28.572  24.715   3.600
14067W        W80850  26.781  18.243  12.440
14068W        W80851   9.453   9.047   3.626
14069W        W80852  21.885   0.193  11.724
14070W        W80853   0.829   6.621   2.844
14071W        W80854  34.524  29.688   5.012
14072W        W80855   4.156  36.358   1.169
14073W        W80856   2.454  42.890  11.168
14074W        W80857   6.320  34.631   3.858
14075W        W80858  16.122  42.542   2.031
14076W        W80859   4.147  28.605   3.628
14077W        W80860  41.911  15.361   0.885
14078W        W80861   7.570  21.806  11.921
14079W        W80862  35.960  32.042   3.351
14080W        W80863  37.871  14.007  11.618
14081W        W80864  35.061  32.546  14.322
14082W        W80865   9.876  37.092   2.802
14083W        W80866   1.701  35.436   3.527
14084W        W80867  31.972  16.308   0.056
14085W        W80868  29.908  22.990  13.930
14086W        W80869  32.461  40.184   4.148
14087W        W80870   3.508   5.394   5.028
14088W        W80871   3.338  17.826   1.733
14089W        W80872  25.046  30.737   1.885
14090W        W80873   8.632  29.973  13.443
14091W        W80874   3.908  39.584  13.866
14092W        W80875  41.654  28.840  10.749
14093W        W80876  22.458  17.826  11.005
14094W        W80877  40.994   2.386   3.135
14095W        W80878   4.182  38.858   0.146
14096W        W80879   6.853  38.176  13.366
14097W        W80880  33.388  41.075   2.295
14098W        W80881  30.930  40.385  12.405
14099W        W80882  19.011  35.043   1.746
14100W        W80883  31.681  24.216  14.782
14101W        W80884  20.529  23.953   4.176
14102W        W80885  42.928  44.846  14.893
14103W        W80886  22.623   9.235   0.376
14104W        W80887  29.684  13.573   2.731
14105W        W80888  21.536  37.122  13.885
14106W        W80889  23.216   3.745  13.211
14107W        W80890  32.479  11.175   2.913
14108W        W80891  14.858  34.470   4.560
14109W        W80892  40.849   0.237   0.900
14110W        W80893  15.364   6.653  14.881
14111W        W80894  33.194   4.366  11.098
14112W        W80895  34.587  34.632  13.742
14113W        W80896  16.861  35.335  14.815
14114W        W80897   7.973   8.063  12.504
14115W        W80898   3.680  36.529   2.430
14116W        W80899  11.263  43.434   3.700
14117W        W80900  10.584  23.096  14.703
14118W        W80901  43.682   0.696   0.264
14119W        W80902  43.569   1.055  11.155
14120W        W80903  21.305  10.021   9.923
14121W        W80904  23.510  17.077   1.254
14122W        W80905  24.725  24.479   1.195
14123W        W80906  27.661  29.532  13.326
14124W        W80907  23.496  23.152   3.056
14125W        W80908  17.723  18.445   4.058
14126W        W80909  42.697  19.723   0.431
14127W        W80910   6.223   9.327  12.648
14128W        W80911  39.034  19.804   3.081
14129W        W80912   9.757   1.242   1.894
14130W        W80913  41.895   4.924  11.375
14131W        W80914  23.573  37.950   3.272
14132W        W80915   6.430  24.586   4.718
14133W        W80916  27.165  31.345   0.549
14134W        W80917  41.051  26.531  14.928
14135W        W80918  32.390  28.484   1.923
14136W        W80919  21.586   5.115  11.185
14137W        W80920   0.188  16.333  10.642
14138W        W80921  17.811  17.841  14.882
14139W        W80922  44.684  11.082   4.985
14140W        W80923  28.421  35.683  13.421
14141W        W80924  18.467  28.744  13.616
14142W        W80925  34.878   0.558   1.621
14143W        W80926  18.591  24.955   4.120
14144W        W80927  30.890  22.790   0.406
14145W        W80928  25.839   3.798   9.796
14146W        W80929  16.794  10.664  14.764
14147W        W80930  31.285  32.207   2.930
14148W        W80931  21.728  33.238   3.364
14149W        W80932   8.622  37.886   1.828
14150W        W80933  15.346  14.193   1.332
14151W        W80934   6.922  33.104   2.891
14152W        W80935  40.511   5.953   4.580
14153W        W80936  32.240  15.149   4.787
14154W        W80937   3.608  28.542   2.686
14155W        W80938  30.199  37.518   1.182
14156W        W80939   3.332   3.622  12.351
14157W        W80940  11.319  24.808   1.917
14158W        W80941  38.346  25.026   1.180
14159W        W80942  30.380  18.259  14.853
14160W        W80943  18.072  41.011   4.587
14161W        W80944  41.949  13.610   4.023
14162W        W80945  42.510  15.548   0.151
14163W        W80946  37.966  36.226   3.389
14164W        W80947   4.751   6.247   1.346
14165W        W80948  14.833  43.933   4.437
14166W        W80949  37.111  30.274   2.851
14167W        W80950  20.805  38.305  12.306
14168W        W80951  31.899  33.693  12.228
14169W        W80952  20.554   8.802  11.636
14170W        W80953  28.134  14.164   1.809
14171W        W80954   3.473   5.553  12.814
14172W        W80955   2.404  11.628   0.383
14173W        W80956  31.970   3.978   1.211
14174W        W80957   6.438  17.562  13.041
14175W        W80958  29.797  13.130   0.100
14176W        W80959  39.955  20.030   2.631
14177W        W80960  24.909  30.589   2.745
14178W        W80961  21.513  33.818  11.493
14179W        W80962  43.275  42.863  13.840
14180W        W80963  13.362  34.318   3.268
14181W        W80964  13.489  25.778  13.298
14182W        W80965   1.531  27.066  14.851
14183W        W80966  22.740  29.060  11.425
14184W        W80967   7.788  35.084   4.736
14185W        W80968  18.711  26.734   1.975
14186W        W80969   7.172   9.805  13.134
14187W        W80970  29.983   9.219  13.907
14188W        W80971  40.527   6.159  13.302
14189W        W80972  38.356  32.091  11.079
14190W        W80973  30.968  12.795  12.500
14191W        W80974  12.307  15.029   2.668
14192W        W80975   5.254  32.566  12.459
14193W        W80976   6.997  40.021   2.669
14194W        W80977  41.569   0.078  12.839
14195W        W80978  25.446  21.529   3.244
14196W        W80979  23.029  43.294   4.238
14197W        W80980  23.228   1.188  13.091
14198W        W80981  30.571  39.451  12.941
14199W        W80982  31.493   5.956   2.671
14200W        W80983   7.056  39.249   4.487
14201W        W80984  11.959  23.925   3.268
14202W        W80985  14.625   9.751  13.308
14203W        W80986  36.014  10.629  13.905
14204W        W80987  41.088  23.728   0.362
14205W        W80988  22.731   1.925  14.779
14206W        W80989  15.233   8.904  14.369
14207W        W80990   7.431  35.414   3.957
14208W        W80991  23.710   5.013  14.383
14209W        W80992  40.849  19.081  12.267
14210W        W80993  34.091   2.234   4.559
14211W        W80994  21.079  11.154   1.388
14212W        W80995  16.802   3.869  12.494
14213W        W80996  30.049  30.916  13.048
14214W        W80997  39.431  16.202  13.530
14215W        W80998  28.346   8.215  13.147
14216W        W80999  10.661  12.963  14.596
14217W        W81000   7.971   0.510  13.004
14218W        W81001  29.662   7.633  11.608
14219W        W81002  11.426  22.619  10.524
14220W        W81003  19.511  15.028   0.570
14221W        W81004  22.008  44.803  12.050
14222W        W81005   8.618  10.667  13.441
14223W        W81006  44.693  40.858   1.280
14224W        W81007   8.894  40.427  11.200
14225W        W81008  39.524   6.415   0.352
14226W        W81009  28.444  42.521  11.504
14227W        W81010   3.424   1.873   0.174
14228W        W81011  11.888   7.543  12.750
14229W        W81012  37.250  18.081   3.087
14230W        W81013   6.355  16.288  11.571
14231W        W81014  16.143  15.814  13.983
14232W        W81015   7.756   0.606   4.562
14233W        W81016   9.271  11.635  11.413
14234W        W81017   0.810  23.790   4.139
14235W        W81018  43.460  12.736   3.296
14236W        W81019  11.874   2.505   3.433
14237W        W81020  25.693   1.794   3.558
14238W        W81021  28.678  44.318   4.065
14239W        W81022  25.223   2.027  13.969
14240W        W81023   4.926  37.026   4.201
14241W        W81024  26.158   9.088   4.322
14242W        W81025  26.107   5.235  10.461
14243W        W81026  22.012  27.073  11.084
14244W        W81027  15.977   0.321  13.722
14245W        W81028   0.953  41.528   2.275
14246W        W81029  17.360  40.902   2.868
14247W        W81030  33.519  26.168   4.664
14248W        W81031  23.743  31.892   0.593
14249W        W81032   0.401  16.858   0.339
14250W        W81033  37.512  32.940   2.828
14251W        W81034   4.759  12.130  11.170
14252W        W81035   6.985   8.816  11.621
14253W        W81036   1.431  27.695  10.646
14254W        W81037   5.833  31.886  11.547
14255W        W81038   7.289  41.619   3.824
14256W        W81039  29.024  20.295  13.930
14257W        W81040  11.083  31.517  10.697
14258W        W81041  18.627  42.352   2.012
14259W        W81042  20.507  26.523   4.393
14260W        W81043  37.097  26.929   0.698
14261W        W81044   2.659  11.741  11.287
14262W        W81045  40.840  34.793   2.614
14263W        W81046  42.810  24.974   0.380
14264W        W81047   6.483  42.992  14.556
14265W        W81048   7.775  43.811   0.959
14266W        W81049  34.891   0.441   3.381
14267W        W81050  11.779  27.891   3.189
14268W        W81051  20.956  25.474  13.452
14269W        W81052   0.724  10.044  13.346
14270W        W81053  10.331   0.284  12.037
14271W        W81054   5.339  16.577   4.842
14272W        W81055  19.533   4.143   4.202
14273W        W81056  20.449  19.824   0.030
14274W        W81057  30.857  42.409   0.322
14275W        W81058  29.564  31.439   1.680
14276W        W81059  20.130  28.471   4.481
14277W        W81060  44.959  13.827  12.978
14278W        W81061  43.288  11.674  10.781
14279W        W81062  11.101  13.794   0.225
14280W        W81063  32.128  14.819  11.169
14281W        W81064  43.993  37.380   4.723
14282W        W81065  15.687   4.742  11.535
14283W        W81066  16.656  44.032  11.304
14284W        W81067  29.007   7.227   0.302
14285W        W81068  36.020   1.943   3.067
14286W        W81069   4.946  12.152  14.263
14287W        W81070  35.980  12.829   4.805
14288W        W81071  33.441  40.943  11.165
14289W        W81072   8.172  13.777  11.402
14290W        W81073  43.184  19.505   2.690
14291W        W81074  36.433  41.478  10.828
14292W        W81075  44.172  29.972  11.480
14293W        W81076  12.458  25.997   4.153
14294W        W81077  30.407  32.703  14.854
14295W        W81078  30.464  24.413  10.380
14296W        W81079   1.486  19.213  14.016
14297W        W81080  15.707  32.824  10.668
14298W        W81081  38.601  18.572  11.875
14299W        W81082  10.452  43.566  11.624
14300W        W81083   9.414  37.449   5.107
14301W        W81084  10.195  19.545  14.368
14302W        W81085  21.818  17.300  12.109
14303W        W81086  25.986  43.031   0.918
14304W        W81087  11.558  26.657  13.789
14305W        W81088  44.303  30.176  14.745
14306W        W81089  24.961   1.420   3.332
14307W        W81090   4.774   1.863  13.732
14308W        W81091  39.019   2.499  11.893
14309W        W81092  34.251  19.407   5.408
14310W        W81093  13.806   9.033  10.670
14311W        W81094  17.738   8.360   1.928
14312W        W81095  13.153  10.286   4.376
14313W        W81096  43.424  44.814  14.719
14314W        W81097  10.672  29.201  11.142
14315W        W81098  27.382  23.961  11.670
14316W        W81099  43.306  16.465   2.047
14317W        W81100  34.289  28.721  13.320
14318W        W81101  41.297  11.079   2.256
14319W        W81102  39.596  15.690   0.869
14320W        W81103  23.785  40.431  14.242
14321W        W81104   9.554  15.216  14.970
14322W        W81105  13.365  12.870   1.548
14323W        W81106  37.414  28.763  10.732
14324W        W81107  17.029   9.593   0.835
14325W        W81108  36.947  19.644   0.097
14326W        W81109  43.057   1.233  12.585
14327W        W81110  22.142  28.223  11.057
14328W        W81111  40.823   2.921   4.567
14329W        W81112  23.684  30.195   3.712
14330W        W81113  34.857   5.020  11.085
14331W        W81114   4.386  38.558  11.349
14332W        W81115  35.937  22.986   4.733
14333W        W81116   6.930   0.275   2.610
14334W        W81117  17.546  21.042  14.183
14335W        W81118   4.716  33.664  11.075
14336W        W81119  28.274  16.303  14.994
14337W        W81120  34.384  24.392  14.861
14338W        W81121  36.014   8.962   1.008
14339W        W81122   6.154  34.228  11.390
14340W        W81123   8.629   9.774  13.405
14341W        W81124  42.793  10.590  13.871
14342W        W81125  13.385  34.445  14.503
14343W        W81126  31.665   3.774   2.275
14344W        W81127  29.018  37.439   1.778
14345W        W81128  18.949  24.933   3.729
14346W        W81129  42.011  28.206  11.426
14347W        W81130  20.508  36.084  12.911
14348W        W81131  22.632   6.264  14.386
14349W        W81132   4.762  12.672  10.543
14350W        W81133   6.212   1.050  11.043
14351W        W81134   2.698  28.917   2.550
14352W        W81135  30.081   4.889   4.537
14353W        W81136  34.181  21.385  11.943
14354W        W81137  15.526  29.826   5.304
14355W        W81138   5.678  33.591  13.122
14356W        W81139   4.768   0.040   1.842
14357W        W81140  38.382  28.247  13.773
14358W        W81141  31.428  14.814  14.887
14359W        W81142   2.866  18.495   4.295
14360W        W81143  21.147  13.594  11.558
14361W        W81144   7.303  27.862   5.078
14362W        W81145   8.574  25.249  13.137
14363W        W81146  21.742  22.028   1.223
14364W        W81147  11.358  28.496   3.246
14365W        W81148   8.402  31.347  13.395
14366W        W81149   8.833  39.626  14.761
14367W        W81150  19.460   6.340   0.381
14368W        W81151  31.564   7.830   3.878
14369W        W81152  28.608  14.290  12.403
14370W        W81153  11.427  18.946   2.277
14371W        W81154  32.296   4.519   1.873
14372W        W81155  44.056  27.547  11.642
14373W        W81156   8.866   2.196   2.215
14374W        W81157  10.698  38.542  13.064
14375W        W81158  20.303  40.253   2.004
14376W        W81159  17.008  10.752   3.213
14377W        W81160  21.063  35.866   4.848
14378W        W81161  44.879  12.365   4.053
14379W        W81162   0.151  24.469   2.136
14380W        W81163  44.340   3.309   3.109
14381W        W81164  23.596  11.670   4.547
14382W        W81165  21.786  12.858   1.271
14383W        W81166   3.481  14.711   2.955
14384W        W81167  25.290  16.210  11.133
14385W        W81168   5.045  43.456  11.899
14386W        W81169  42.357  31.053   2.702
14387W        W81170  34.942   0.915  12.990
14388W        W81171   0.315  11.627  14.249
14389W        W81172   8.600  15.302   0.807
14390W        W81173   7.194  37.487   4.556
14391W        W81174  38.533  22.099  10.677
14392W        W81175  42.938  43.176  10.729
14393W        W81176  31.960  25.070   0.745
14394W        W81177  14.564  40.352   2.983
14395W        W81178  15.660  20.961   1.361
14396W        W81179  21.181   8.114  14.757
14397W        W81180   4.455  15.012  14.783
14398W        W81181  12.803  44.526   4.377
14399W        W81182  13.083  24.635  11.948
14400W        W81183  39.272  12.598  14.885
14401W        W81184  42.432   3.507  12.377
14402W        W81185  26.598  43.946   1.411
14403W        W81186   9.875  30.475   0.867
14404W        W81187  29.580  14.212  12.472
14405W        W81188  18.700  43.610   2.508
14406W        W81189  34.912  17.850  13.686
14407W        W81190  10.895  39.384   2.580
14408W        W81191  24.685  30.018   4.569
14409W        W81192  17.837  44.115   0.515
14410W        W81193   8.820  25.161   3.144
14411W        W81194   3.205  40.044   0.499
14412W        W81195  16.203  31.783  11.113
14413W        W81196  39.361   4.734   1.822
14414W        W81197  26.288  28.715  12.312
14415W        W81198   2.908   8.183   2.932
14416W        W81199   6.170  26.161  14.874
14417W        W81200  29.633  43.943  12.932
14418W        W81201  41.998  42.735  12.428
14419W        W81202  19.007   0.571   5.023
14420W        W81203  41.520  40.426   3.739
14421W        W81204   5.734  25.699  14.047
14422W        W81205  44.986  29.199   1.713
14423W        W81206   1.489  20.028   2.657
14424W        W81207   4.968  23.491   2.783
14425W        W81208  18.867  40.150   0.099
14426W        W81209  16.287   7.412   3.175
14427W        W81210  20.639  19.582  13.612
14428W        W81211  19.809  30.534   3.658
14429W        W81212  14.239   0.477   2.183
14430W        W81213  20.983  22.490  14.600
14431W        W81214  41.324  24.399   3.596
14432W        W81215  42.978  30.473  13.417
14433W        W81216  15.519  16.634  12.648
14434W        W81217   5.154  41.901  12.099
14435W        W81218  33.009  23.265   0.514
14436W        W81219  20.309  35.553  13.480
14437W        W81220   3.771  41.842  10.754
14438W        W81221   3.179   8.461   3.291
14439W        W81222   0.085  39.893   1.218
14440W        W81223   9.144  23.751   3.517
14441W        W81224   4.749  43.780   0.400
14442W        W81225  19.224  41.369   2.365
14443W        W81226  23.186  30.190   0.301
14444W        W81227  32.163   8.212  13.466
14445W        W81228   7.453  42.299  11.574
14446W        W81229  31.858  36.558  14.428
14447W        W81230   9.906   4.596   2.183
14448W        W81231   6.890  20.750   4.560
14449W        W81232  14.608  20.882  10.383
14450W        W81233  10.753   4.874  12.005
14451W        W81234   6.352  31.628  10.728
14452W        W81235   2.241  29.141  12.593
14453W        W81236  34.570   0.345   2.832
14454W        W81237  42.937  27.928  12.081
14455W        W81238  20.467  26.093  10.459
14456W        W81239  21.838  28.199   0.525
14457W        W81240   0.361  32.977  12.214
14458W        W81241   8.249  18.863  11.894
14459W        W81242  17.971  21.898  12.937
14460W        W81243   4.357   1.377   1.879
14461W        W81244   3.293   3.596   5.094
14462W        W81245  41.254  27.511   0.456
14463W        W81246  40.104   2.456   1.849
14464W        W81247  39.713  43.610   3.008
14465W        W81248  40.508   3.183  13.586
14466W        W81249  38.177  18.615  14.494
14467W        W81250  16.084  20.519  12.300
14468W        W81251   2.780  44.873   1.306
14469W        W81252   8.196   4.440  10.511
14470W        W81253  39.776  31.240  14.846
14471W        W81254  39.135  10.302  10.035
14472W        W81255  31.228  23.360  13.449
14473W        W81256  25.197   3.967   4.995
14474W        W81257  24.170  36.768   0.357
14475W        W81258   3.195  29.969  12.923
14476W        W81259  22.337  36.860  11.779
14477W        W81260   2.955  25.171   4.686
14478W        W81261  35.896  32.108   1.807
14479W        W81262  11.578  17.301   5.076
14480W        W81263   9.907  29.575   3.751
14481W        W81264  21.652  18.919   2.093
14482W        W81265  21.521  32.220   3.195
14483W        W81266   3.134  18.531   2.528
14484W        W81267  28.378   2.996   2.315
14485W        W81268  31.989  24.275   2.773
14486W        W81269  12.196  36.424  12.984
14487W        W81270  43.571  34.165  14.353
14488W        W81271  22.220  29.704   1.684
14489W        W81272  32.593  17.289  11.137
14490W        W81273   4.727  33.707   2.595
14491W        W81274  26.415  26.018  12.909
14492W        W81275  42.578  33.446  11.114
14493W        W81276  38.160  41.468   0.748
14494W        W81277  13.911  26.548   3.320
14495W        W81278  28.977  23.465   3.087
14496W        W81279   7.297  27.398  12.464
14497W        W81280   6.835  43.281  11.943
14498W        W81281  24.974  44.536  12.401
14499W        W81282  35.428  16.110   3.137
14500W        W81283  28.534  13.518   0.841
14501W        W81284  35.537  11.254  13.249
14502W        W81285  26.674  31.156  11.111
14503W        W81286  10.621  36.391  12.230
14504W        W81287  12.364   3.225   0.022
14505W        W81288  15.146   1.915   3.383
14506W        W81289  19.666  17.297  11.093
14507W        W81290  21.757   0.342   3.225
14508W        W81291   2.697  23.788  10.600
14509W        W81292  43.308  22.750  14.988
14510W        W81293   4.216  26.160  10.530
14511W        W81294   2.115  19.603   4.655
14512W        W81295  28.033  43.685   0.855
14513W        W81296   0.238  10.250  13.494
14514W        W81297  11.201  10.163  12.984
14515W        W81298  33.863  32.035  11.634
14516W        W81299   5.883  20.798   3.703
14517W        W81300  41.727  12.649   1.643
14518W        W81301  22.123   8.183   3.475
14519W        W81302  31.655  44.523  13.841
14520W        W81303  19.107  21.592  14.915
14521W        W81304  19.968   3.215  14.455
14522W        W81305  32.464  20.257  14.497
14523W        W81306  11.325  28.266   0.001
14524W        W81307  13.162   4.452  13.062
14525W        W81308  27.513  27.435   1.883
14526W        W81309   1.584  37.422   2.448
14527W        W81310   0.277  24.939  10.682
14528W        W81311  29.454  33.690  14.681
14529W        W81312  37.036  14.146   4.410
14530W        W81313  19.555  34.122  12.515
14531W        W81314  17.561  11.634  13.925
14532W        W81315  35.325  25.077   2.600
14533W        W81316   0.835  22.446   5.092
14534W        W81317   1.446  39.280  14.433
14535W        W81318   8.301  44.313  10.725
14536W        W81319   3.472  39.564  14.795
14537W        W81320  39.567  42.084  13.943
14538W        W81321  11.820  11.796   2.246
14539W        W81322  21.247  34.141  10.630
14540W        W81323  42.210  33.014  11.805
14541W        W81324  33.615  15.209  11.643
14542W        W81325  43.824  32.547   3.788
14543W        W81326  32.670  13.858   1.741
14544W        W81327   4.898   1.504   1.032
14545W        W81328  30.698   6.129   0.451
14546W        W81329   9.339  35.152  12.846
14547W        W81330  10.757  14.662  13.407
14548W        W81331  28.694  30.618  10.427
14549W        W81332  30.488  34.541   0.015
14550W        W81333   4.488  16.642  10.902
14551W        W81334  25.917  33.942   2.672
14552W        W81335  16.624   2.227   4.173
14553W        W81336  10.305  23.287   3.322
14554W        W81337  32.765  38.571   3.479
14555W        W81338  19.612  25.387  14.936
14556W        W81339  42.927  36.980  14.198
14557W        W81340   9.132  16.720  10.186
14558W        W81341  10.877  16.239   4.133
14559W        W81342  24.994  34.310  13.323
14560W        W81343  27.842  34.058  10.103
14561W        W81344  18.134   5.763   4.926
14562W        W81345  40.269  34.837  11.597
14563W        W81346  27.707  43.323   1.528
14564W        W81347  15.462  30.109  10.622
14565W        W81348  30.455  19.866  13.607
14566W        W81349  18.276   9.742   2.290
14567W        W81350   2.430  43.267  14.669
14568W        W81351  27.348  41.944  14.275
14569W        W81352  24.752  29.966   1.442
14570W        W81353  27.252  35.012  11.221
14571W        W81354  39.926  23.287  12.586
14572W        W81355  31.149  14.833   1.509
14573W        W81356  43.657  21.721   2.332
14574W        W81357   8.745  31.242  14.472
14575W        W81358   8.970  17.762   0.767
14576W        W81359  40.774  20.455   3.628
14577W        W81360  25.964  12.242   3.861
14578W        W81361  13.789   1.412   3.152
14579W        W81362  35.635  34.206   0.276
14580W        W81363  23.696  32.580  13.359
14581W        W81364   2.331  21.969   1.267
14582W        W81365  34.360  21.098  12.311
14583W        W81366  34.357  10.759   4.556
14584W        W81367  14.168  11.064   1.789
14585W        W81368   8.828  23.504  13.002
14586W        W81369  22.351  30.978  10.234
14587W        W81370  29.202   6.553   4.505
14588W        W81371   0.569   5.494   4.580
14589W        W81372  44.061  23.089  12.075
14590W        W81373  34.440  25.943   2.424
14591W        W81374  22.440  31.745   2.725
14592W        W81375  11.008  35.146   2.379
14593W        W81376  10.829  26.796  10.583
14594W        W81377  24.487  34.844   3.384
14595W        W81378  42.832   2.327   3.066
14596W        W81379  11.760  36.555   5.674
14597W        W81380  31.588  14.298   5.012
14598W        W81381  39.548  11.628   3.785
14599W        W81382  32.479  33.888   1.967
14600W        W81383  27.537  24.515  13.340
14601W        W81384  24.507   2.724   1.310
14602W        W81385  28.910  13.738  14.840
14603W        W81386  39.442  26.414   0.784
14604W        W81387  25.727  23.003  14.893
14605W        W81388   7.649  11.677   1.948
14606W        W81389  32.308  33.992  13.053
14607W        W81390  24.171  15.440   4.161
14608W        W81391  13.176  27.595  14.542
14609W        W81392  32.181  24.954   3.184
14610W        W81393  11.622  40.575   2.643
14611W        W81394  30.831  36.460  11.106
14612W        W81395  28.924  38.561  11.067
14613W        W81396  17.056  15.101   0.776
14614W        W81397  19.071  33.347   2.952
14615W        W81398  40.515  42.350  11.508
14616W        W81399  43.195  34.798  10.171
14617W        W81400  25.398  32.876  11.251
14618W        W81401  35.997  44.472   2.374
14619W        W81402   6.235   0.444   0.983
14620W        W81403  22.224   7.329  11.603
14621W        W81404   2.345  29.084   0.768
14622W        W81405   8.691   8.796   1.383
14623W        W81406  41.387  16.169  11.360
14624W        W81407  12.019  39.088   0.825
14625W        W81408   1.444  24.524   2.180
14626W        W81409  19.276  40.896   3.193
14627W        W81410  14.618  21.285   3.071
14628W        W81411   4.245  38.810   2.426
14629W        W81412  42.274  17.714  14.837
14630W        W81413  12.193  30.988   0.828
14631W        W81414  23.538  25.163   2.918
14632W        W81415  41.534   9.257  14.778
14633W        W81416  33.509  19.740   2.169
14634W        W81417  25.405   7.064   1.280
14635W        W81418  11.650  11.936  14.375
14636W        W81419  34.365  35.572  12.082
14637W        W81420  31.610  36.398   4.166
14638W        W81421  39.851   9.900  11.973
14639W        W81422   8.589   8.912  10.291
14640W        W81423   9.338   4.730  14.899
14641W        W81424  37.049   2.393   2.423
14642W        W81425  29.517  20.590  14.066
14643W        W81426  18.236   6.442  12.023
14644W        W81427  15.225   1.473   0.229
14645W        W81428  33.449  43.009   1.231
14646W        W81429  17.790  41.356   2.250
14647W        W81430  24.938  14.595   3.279
14648W        W81431  41.459  15.302  13.443
14649W        W81432   7.333  10.835   4.565
14650W        W81433  11.746  20.174   0.301
14651W        W81434  28.885   2.841  12.971
14652W        W81435  31.169  11.613  10.536
14653W        W81436   6.900  27.382  11.261
14654W        W81437   8.681  19.650   3.001
14655W        W81438  22.612  38.177  12.174
14656W        W81439  41.006   0.486  13.906
14657W        W81440  44.272   4.487   0.035
14658W        W81441   5.410  26.435   4.222
14659W        W81442  10.139  39.802  10.945
14660W        W81443  15.737  14.893  14.245
14661W        W81444   8.872  41.909   1.261
14662W        W81445  43.864  17.191   2.115
14663W        W81446  32.811  43.479  11.219
14664W        W81447  18.119  29.538   0.926
14665W        W81448  19.354   3.727  13.912
14666W        W81449   0.434   8.778   4.860
14667W        W81450  36.994  43.863  12.903
14668W        W81451  18.290  35.548   2.887
14669W        W81452  40.407  40.115   3.128
14670W        W81453  31.853  29.566  11.986
14671W        W81454  27.581   9.683  10.818
14672W        W81455  26.702  44.433   1.621
14673W        W81456   1.884  30.624   0.247
14674W        W81457  22.231  35.529  12.419
14675W        W81458  26.490  39.172   9.848
14676W        W81459  25.043  42.813   3.329
14677W        W81460  23.129  40.799   3.726
14678W        W81461   0.999  44.372   1.515
14679W        W81462   9.427   4.228   2.792
14680W        W81463  36.681  17.384   0.336
14681W        W81464   8.836  21.613   1.658
14682W        W81465  43.306   8.833  12.489
14683W        W81466  23.667   4.489  12.679
14684W        W81467  44.764  30.545   0.920
14685W        W81468  44.714  39.385  12.833
14686W        W81469  18.590  14.172  11.483
14687W        W81470  12.187   8.673  13.025
14688W        W81471  11.415  24.148   4.988
14689W        W81472  31.877  22.121  12.913
14690W        W81473  23.512   4.383   0.441
14691W        W81474  28.450  42.747  13.549
14692W        W81475  41.478  31.980  13.128
14693W        W81476   8.641   7.763  10.651
14694W        W81477  23.204  25.493  13.404
14695W        W81478  33.396  16.884  13.624
14696W        W81479  42.295  22.653  10.460
14697W        W81480  28.000  44.890  12.406
14698W        W81481  35.877  18.470   2.706
14699W        W81482   1.818  13.873   4.743
14700W        W81483  20.176  24.507   2.759
14701W        W81484  19.527  40.539  12.665
14702W        W81485   0.749   1.888   3.551
14703W        W81486  15.346  41.273  10.628
14704W        W81487   3.892  16.240  14.924
14705W        W81488   3.655  28.052  14.795
14706W        W81489  25.656  39.220   5.494
14707W        W81490  18.977   7.869   3.697
14708W        W81491   5.717  22.825   1.304
14709W        W81492  34.973  25.081   3.849
14710W        W81493  23.295  10.178  12.987
14711W        W81494  25.043  43.487   1.682
14712W        W81495  20.332  42.131  13.943
14713W        W81496  22.965   8.859   0.457
14714W        W81497   4.177  10.555  11.112
14715W        W81498  21.747   3.485  14.001
14716W        W81499  22.650   0.365   9.928
14717W        W81500  20.769  44.933   0.946
14718W        W81501  26.152  18.204   2.220
14719W        W81502  18.465  38.058  13.966
14720W        W81503  16.803  29.567   0.488
14721W        W81504  33.169  23.249   3.647
14722W        W81505  18.070  24.637  12.994
14723W        W81506   1.384   4.910   4.863
14724W        W81507  31.141  13.715  12.034
14725W        W81508  16.085  34.223  12.909
14726W        W81509  21.505   7.728  14.726
14727W        W81510  11.269  10.174   3.186
14728W        W81511  23.660   1.681   1.341
14729W        W81512  30.322  43.299   2.614
14730W        W81513   0.968  30.017  13.322
14731W        W81514  32.885  12.098  11.048
14732W        W81515  32.071   2.810  11.210
14733W        W81516  38.102  23.705  14.897
14734W        W81517   3.494  33.938   1.217
14735W        W81518  15.523  12.116  11.178
14736W        W81519   5.727  13.160  11.944
14737W        W81520  39.096  38.251  13.964
14738W        W81521   5.916  29.457  12.882
14739W        W81522   1.970  40.495   0.181
14740W        W81523  18.529  13.343  10.994
14741W        W81524  38.368  29.943  13.027
14742W        W81525  31.187  27.994   3.615
14743W        W81526  11.622  25.298   1.214
14744W        W81527  40.786   2.137  11.910
14745W        W81528  32.011   5.797  13.487
14746W        W81529  41.442  39.978  14.071
14747W        W81530  42.436   3.707  12.886
14748W        W81531   1.614  39.461   0.845
14749W        W81532   5.233  22.775  12.115
14750W        W81533  29.710  22.978   2.750
14751W        W81534  23.839   0.686  11.723
14752W        W81535  14.625  24.529   2.819
14753W        W81536  10.390  13.851   2.131
14754W        W81537   8.772  16.540  13.451
14755W        W81538  39.632   5.125   3.931
14756W        W81539  17.224  32.578   0.438
14757W        W81540  19.449  23.120  11.130
14758W        W81541   1.861   9.197   2.333
14759W        W81542  18.809  11.324  13.995
14760W        W81543  11.669  19.040   4.261
14761W        W81544   6.771   5.743  13.977
14762W        W81545  22.563  19.278   5.212
14763W        W81546   8.865  33.098  14.719
14764W        W81547  44.447  34.940   4.177
14765W        W81548  21.968  27.483   4.090
14766W        W81549  29.065  31.401  11.915
14767W        W81550  11.397  43.848   0.877
14768W        W81551  31.075  23.559   3.689
14769W        W81552  14.111  23.118   2.277
14770W        W81553  15.266   5.104  12.594
14771W        W81554  22.434  43.910  14.910
14772W        W81555  32.432  26.099   1.809
14773W        W81556  44.870  36.824  13.267
14774W        W81557  16.679  41.997   0.999
14775W        W81558   2.704  24.107   4.604
14776W        W81559   3.001  37.869  12.694
14777W        W81560   9.095  18.572   2.252
14778W        W81561  19.804   5.434   2.547
14779W        W81562  17.062  24.356  12.009
14780W        W81563  41.374  26.650  10.622
14781W        W81564   6.795  36.823  14.317
14782W        W81565  34.677  42.473  11.126
14783W        W81566  33.451  40.009   2.410
14784W        W81567  30.154   5.563   4.258
14785W        W81568  35.876   2.442   3.294
14786W        W81569  16.813  23.789  14.886
14787W        W81570  41.551  39.523  14.333
14788W        W81571  19.163   7.385   3.675
14789W        W81572  34.589  33.582  10.678
14790W        W81573  38.971  22.689   0.986
14791W        W81574  18.085  19.544   3.650
14792W        W81575   4.477   3.198   4.211
14793W        W81576  37.475  43.669   2.340
14794W        W81577   2.688  18.749   0.273
14795W        W81578  28.977  34.414   2.776
14796W        W81579   3.690  43.816   2.792
14797W        W81580  28.117  41.362   0.211
14798W        W81581  22.594  22.580  11.805
14799W        W81582   3.345   8.303   2.206
14800W        W81583   2.382  30.928  11.173
14801W        W81584  28.072  19.837   4.595
14802W        W81585  44.753  25.066  14.056
14803W        W81586   2.181   1.843  11.157
14804W        W81587  17.219  41.903   1.181
14805W        W81588  28.898  37.654  14.960
14806W        W81589   9.748  28.042   1.776
14807W        W81590  43.947  42.069   0.711
14808W        W81591  39.883  28.530   4.046
14809W        W81592  27.859  20.646   0.787
14810W        W81593  15.184  44.378   4.559
14811W        W81594   5.675  22.775   2.215
14812W        W81595  38.277  40.273   3.773
14813W        W81596  16.190   1.984  12.402
14814W        W81597  40.908   2.099   0.814
14815W        W81598  24.474  37.998   2.651
14816W        W81599  25.090  43.278  13.536
14817W        W81600  20.506  25.000  12.001
14818W        W81601   0.340  36.517  11.456
14819W        W81602  35.334   5.451  12.060
14820W        W81603   4.254  44.784   0.748
14821W        W81604  37.380  40.879  12.713
14822W        W81605   5.387  38.149  12.654
14823W        W81606  27.711  10.239  12.528
14824W        W81607  10.883  42.530  10.977
14825W        W81608  34.939  13.630  12.576
14826W        W81609  10.626   1.912   0.582
14827W        W81610  26.897  25.213   0.379
14828W        W81611   0.330  34.561  12.864
14829W        W81612  33.641  28.157   1.740
14830W        W81613  20.753  20.079   0.953
14831W        W81614  34.111  22.698   3.730
14832W        W81615   1.724   5.127   1.520
14833W        W81616  32.907   2.532  11.858
14834W        W81617  44.333  43.590   3.144
14835W        W81618  34.462  34.226  14.554
14836W        W81619  17.133  43.884   0.917
14837W        W81620  16.307  29.118   1.234
14838W        W81621   6.276   7.268  13.938
14839W        W81622  21.217  28.130   1.407
14840W        W81623  36.912  11.259  14.718
14841W        W81624  44.973  22.584   0.848
14842W        W81625  30.940  23.747   5.202
14843W        W81626  31.069  14.791  14.488
14844W        W81627   2.162  39.795  13.397
14845W        W81628  28.614  27.793  12.788
14846W        W81629  19.543   5.389  11.792
14847W        W81630  36.992  13.033  12.907
14848W        W81631   9.875  36.984  14.980
14849W        W81632   8.208  37.028   1.269
14850W        W81633   0.372  23.179  12.486
14851W        W81634  17.176  41.263  14.294
14852W        W81635   0.791  26.716   2.642
14853W        W81636  36.057  42.943   3.325
14854W        W81637  36.188   2.343  12.563
14855W        W81638   1.320   7.770   5.004
14856W        W81639   7.720   6.186   3.010
14857W        W81640   9.416  42.555  13.514
14858W        W81641   7.622  37.945  14.019
14859W        W81642  36.609  38.382  12.004
14860W        W81643  12.910  42.821   3.711
14861W        W81644  20.561  25.957   0.585
14862W        W81645  43.331  29.201   2.438
14863W        W81646  23.259  15.852   9.785
14864W        W81647  10.336  36.012   1.441
14865W        W81648  27.763  28.226  11.182
14866W        W81649   1.667  14.718   0.737
14867W        W81650  13.753  15.132  13.152
14868W        W81651  36.523  44.798  12.079
14869W        W81652  12.243  11.564   4.505
14870W        W81653   0.289   6.285   3.702
14871W        W81654  44.899  23.688   2.387
14872W        W81655  20.705  34.995  14.155
14873W        W81656  25.928  38.207  12.246
14874W        W81657   2.921   6.383  10.714
14875W        W81658  23.347   9.186  14.494
14876W        W81659  19.271  24.527   3.805
14877W        W81660  23.642  18.399   0.755
14878W        W81661  19.854  13.133   3.224
14879W        W81662   4.269  29.010  13.361
14880W        W81663  35.390  40.959  10.405
14881W        W81664  36.194   8.913  12.421
14882W        W81665  17.066  28.844   2.808
14883W        W81666  19.998  31.615   4.090
14884W        W81667   0.801  34.361  10.880
14885W        W81668   1.282  15.701  13.764
14886W        W81669  27.618   4.847  10.476
14887W        W81670  40.008  33.224  11.137
14888W        W81671  24.483  20.118  11.521
14889W        W81672  14.171  27.063   2.706
14890W        W81673  32.041  28.715  11.089
14891W        W81674  13.173  29.904   1.041
14892W        W81675  18.738  27.384  12.617
14893W        W81676   9.120  12.776  14.914
14894W        W81677   1.872  19.156   4.518
14895W        W81678  23.652   7.644  10.604
14896W        W81679  42.281  39.079   3.755
14897W        W81680  34.643  26.916  12.455
14898W        W81681   9.354  38.451  10.662
14899W        W81682   8.883  35.845  10.943
14900W        W81683   2.357   6.753  10.972
14901W        W81684  24.068   1.331  11.308
14902W        W81685   7.409   3.155  14.986
14903W        W81686  17.673  33.363  10.699
14904W        W81687   9.288   2.963   3.110
14905W        W81688  27.414   2.287  14.296
14906W        W81689   8.646  29.033   4.265
14907W        W81690   3.544  39.455  10.435
14908W        W81691  31.156  42.402  11.933
14909W        W81692   8.397   7.674  14.033
14910W        W81693  14.618  35.328  14.846
14911W        W81694  19.273  11.163   1.675
14912W        W81695   1.595  20.099  11.216
14913W        W81696  24.066  26.719   4.321
14914W        W81697  43.922  27.075  10.948
14915W        W81698  38.130  24.170  14.647
14916W        W81699  35.781  10.640   2.161
14917W        W81700  12.559  40.455   2.845
14918W        W81701   7.863  17.936   2.732
14919W        W81702  11.169  28.989  11.135
14920W        W81703  21.089  15.077   3.161
14921W        W81704   3.357   0.197  14.979
14922W        W81705  17.191   3.479   4.541
14923W        W81706  13.172  21.265  10.351
14924W        W81707  25.170  26.539  13.340
14925W        W81708  12.333  44.125  11.141
14926W        W81709  41.365  24.955  14.910
14927W        W81710   9.715  23.565   1.320
14928W        W81711  37.957  30.909  13.907
14929W        W81712   6.255  40.501   0.994
14930W        W81713  28.829   2.395  14.087
14931W        W81714  43.302  34.559   1.176
14932W        W81715  19.134  13.666  11.648
14933W        W81716  22.524  44.978  11.178
14934W        W81717  40.345  15.094   2.222
14935W        W81718  18.559  11.167  11.385
14936W        W81719  10.642  30.142   1.474
14937W        W81720  40.696  12.810  14.987
14938W        W81721   3.109   8.772   2.331
14939W        W81722   5.707   7.810  14.432
14940W        W81723  23.584  40.626   3.601
14941W        W81724  17.317  34.341   3.270
14942W        W81725  35.322  30.552   2.274
14943W        W81726   9.273  40.430  13.872
14944W        W81727  38.259  36.934  13.309
14945W        W81728  20.051   7.705  10.855
14946W        W81729   9.877   2.214   3.099
14947W        W81730   7.936  11.804   0.085
14948W        W81731   3.473   2.355   4.434
14949W        W81732   2.000   5.440  13.505
14950W        W81733  43.738  14.975   4.879
14951W        W81734  14.839  24.873  12.272
14952W        W81735  18.252  18.813  10.203
14953W        W81736  41.530  18.293   0.651
14954W        W81737  15.884  34.905  11.568
14955W        W81738  28.092  42.316   1.725
14956W        W81739  39.814  16.838  13.312
14957W        W81740  16.525  32.605  10.979
14958W        W81741  33.585  17.602  10.577
14959W        W81742  14.064  19.591  14.205
14960W        W81743  42.245  31.201   0.950
14961W        W81744   4.293  12.063  10.395
14962W        W81745  26.130  41.238   0.434
14963W        W81746  19.426  19.247   2.860
14964W        W81747  20.222  14.323  12.881
14965W        W81748  22.950   8.715  13.102
14966W        W81749   2.836  28.574   0.182
14967W        W81750  14.224  37.388   2.842
14968W        W81751  33.221  20.745  12.640
14969W        W81752  30.396   6.459  12.492
14970W        W81753  40.084   9.701  13.337
14971W        W81754  40.340  14.575  11.206
14972W        W81755   2.667  31.631   3.196
14973W        W81756   3.421  19.443  12.906
14974W        W81757   3.768   2.217   2.844
14975W        W81758  26.961  27.721  10.905
14976W        W81759  16.442   7.435  14.352
14977W        W81760  29.949   7.428   2.165
14978W        W81761   4.266  37.163  11.030
14979W        W81762  25.567  15.223   4.449
14980W        W81763   2.640  23.796  12.518
14981W        W81764  20.009  27.235  14.767
14982W        W81765   6.922  23.902  13.869
14983W        W81766  35.148  13.556  14.335
14984W        W81767   6.019  41.782  12.438
14985W        W81768   7.837   9.167  12.604
14986W        W81769  11.763  34.568   1.906
14987W        W81770   4.694  14.736   3.338
14988W        W81771   5.746  42.263   0.428
14989W        W81772  10.189  13.797  10.731
14990W        W81773  37.558  29.915   2.728
14991W        W81774  23.584  30.544  14.784
14992W        W81775  40.998  11.419  14.437
14993W        W81776  26.720   4.376   4.940
14994W        W81777  38.153  29.497   2.282
14995W        W81778  33.768  25.974  13.924
14996W        W81779  14.646  34.378   4.098
14997W        W81780   6.188  24.204  13.474
14998W        W81781  14.333   6.274   4.091
14999W        W81782  19.061   8.389   4.457
15000W        W81783  10.332  31.192  10.984
15001W        W81784  22.796  41.857   3.680
15002W        W81785  33.174  29.866   3.259
15003W        W81786  37.572  31.431  14.955
15004W        W81787   6.132  26.234   0.375
15005W        W81788  27.145  19.803   4.928
15006W        W81789  38.916   3.286   4.600
15007W        W81790  22.468  31.059  11.642
15008W        W81791   6.923  40.416   3.725
15009W        W81792  13.759  39.234   0.302
15010W        W81793   1.590  42.632  13.203
15011W        W81794  20.083  25.239   1.784
15012W        W81795  14.320   7.693   5.062
15013W        W81796  12.572  20.574  12.129
15014W        W81797   5.909  19.983   1.759
15015W        W81798   1.219  36.080  14.509
15016W        W81799   2.367  30.382   1.814
15017W        W81800  39.311   2.736   4.935
15018W        W81801  18.736   0.429   4.570
15019W        W81802  21.785  25.231   0.709
15020W        W81803  13.254  23.009   0.678
15021W        W81804  18.135  30.139   2.626
15022W        W81805   4.405  39.302   3.701
15023W        W81806  33.705  16.771  10.321
15024W        W81807  28.680  40.503   1.290
15025W        W81808  44.412  14.196  13.412
15026W        W81809  40.939  11.118  11.557
15027W        W81810  13.011   3.949  11.261
15028W        W81811  19.180  13.773  12.172
15029W        W81812  27.669  14.040   4.166
15030W        W81813   7.788  25.177  10.257
15031W        W81814   9.830  42.472  13.061
15032W        W81815   4.267  12.257   3.178
15033W        W81816  22.198   8.303   3.984
15034W        W81817  39.373  17.658   3.971
15035W        W81818  43.330  18.535  14.391
15036W        W81819   0.539  17.812  11.960
15037W        W81820  19.389  17.295   0.458
15038W        W81821  37.289  19.129   1.320
15039W        W81822   2.161  11.684  12.964
15040W        W81823  23.676  19.925  14.405
15041W        W81824  42.301   0.972  11.655
15042W        W81825  11.310  29.488   4.611
15043W        W81826  18.245  19.447  14.958
15044W        W81827  23.419  42.734  14.483
15045W        W81828  40.036  13.739  14.958
15046W        W81829   7.327   0.237  14.864
15047W        W81830  23.209  20.348   0.314
15048W        W81831  28.300  21.719   0.431
15049W        W81832   4.034  30.688   4.644
15050W        W81833  36.330  35.684   2.362
15051W        W81834  41.128  34.019  14.939
15052W        W81835  11.859  23.349  11.355
15053W        W81836  12.670  23.714   0.894
15054W        W81837  41.244  20.463  10.776
15055W        W81838  41.079  43.448   0.408
15056W        W81839  38.773   5.974   5.094
15057W        W81840  39.863   3.750  10.372
15058W        W81841   4.469  12.288   2.170
15059W        W81842  41.019   0.754  11.843
15060W        W81843   2.517  37.008  10.563
15061W        W81844  23.698  15.279  13.535
15062W        W81845  15.669  33.926   1.483
15063W        W81846  14.493  39.498   5.092
15064W        W81847  34.690  20.466   0.969
15065W        W81848  10.277  23.696   2.874
15066W        W81849  16.311  12.119  11.656
15067W        W81850   2.966  31.789   4.037
15068W        W81851  19.666  27.337   2.635
15069W        W81852  30.037   2.554  13.383
15070W        W81853  39.300  15.702   1.298
15071W        W81854   0.543   4.989   1.885
15072W        W81855   2.925  12.961   1.479
15073W        W81856  23.424  39.339  14.903
15074W        W81857   2.888  23.013  10.704
15075W        W81858  18.575  39.107   2.699
15076W        W81859  12.998   6.316  12.774
15077W        W81860  37.303  19.647   3.367
15078W        W81861  25.062  12.977   2.635
15079W        W81862   9.401  10.793   3.702
15080W        W81863  12.595  18.220   0.236
15081W        W81864   0.278  28.473  12.152
15082W        W81865   1.290   7.860   1.341
15083W        W81866  35.462  16.747  13.087
15084W        W81867  44.908  38.604   1.533
15085W        W81868   7.343  21.162  13.409
15086W        W81869  20.641  15.891  13.484
15087W        W81870  38.750  22.160  12.142
15088W        W81871  29.750  20.117  12.915
15089W        W81872  22.683  40.791   1.345
15090W        W81873  39.984  37.934  11.238
15091W        W81874   5.696  15.659  14.999
15092W        W81875  41.079  28.772  13.378
15093W        W81876  41.415  42.718  14.293
15094W        W81877  12.396  17.747   0.393
15095W        W81878  23.057   2.709  12.558
15096W        W81879   4.271  32.030   2.215
15097W        W81880   7.231  29.555   0.915
15098W        W81881  33.006  12.296   0.087
15099W        W81882  20.688  23.136   1.220
15100W        W81883   3.884  28.116   4.589
15101W        W81884   9.799  31.189   0.339
15102W        W81885   4.161  38.987   3.315
15103W        W81886  12.244   9.651  10.919
15104W        W81887  16.659   8.513  12.030
15105W        W81888  30.721   8.795  13.828
15106W        W81889  10.776  10.507  12.933
15107W        W81890  27.114  23.211   3.671
15108W        W81891  19.726  11.217  14.848
15109W        W81892  34.691  17.052  11.514
15110W        W81893  41.754  34.886   3.813
15111W        W81894  38.951  23.228  14.798
15112W        W81895  15.302  10.719   4.371
15113W        W81896  13.534  27.979   3.638
15114W        W81897   4.858   0.494   2.812
15115W        W81898   0.238  26.095   3.371
15116W        W81899   1.465  38.378  14.898
15117W        W81900  10.587  38.425  13.574
15118W        W81901   0.369  31.556   3.576
15119W        W81902  27.191  18.504  11.072
15120W        W81903   9.944  43.047   3.636
15121W        W81904  26.194   9.621  10.403
15122W        W81905  27.188   7.290   4.664
15123W        W81906   8.006  17.879  12.024
15124W        W81907  38.012  17.255   0.408
15125W        W81908   0.346  31.876   0.311
15126W        W81909  17.045  36.428  13.311
15127W        W81910   3.157  10.908  14.876
15128W        W81911   7.808  38.784  13.545
15129W        W81912  23.118  12.936   3.068
15130W        W81913   0.673  33.846  11.709
15131W        W81914   8.999  32.096   4.864
15132W        W81915  35.920  39.345   2.251
15133W        W81916  35.446  23.016   1.252
15134W        W81917   7.824  10.112  14.979
15135W        W81918  23.760   7.671  11.095
15136W        W81919   5.912  19.544  11.135
15137W        W81920   1.033  10.921  12.226
15138W        W81921  21.994   7.895  14.826
15139W        W81922  22.744  16.838   2.888
15140W        W81923   5.910  42.443  10.800
15141W        W81924  34.851  39.280   1.707
15142W        W81925  43.722   8.527  12.486
15143W        W81926  16.697  30.453  11.450
15144W        W81927  40.558   5.970  13.793
15145W        W81928   3.265  10.187   2.651
15146W        W81929  15.112  26.736   0.419
15147W        W81930   9.954  16.702  14.931
15148W        W81931  18.046   9.916   3.592
15149W        W81932  41.787  39.998   3.726
15150W        W81933  13.071  11.122   4.670
15151W        W81934  10.672  44.895   2.064
15152W        W81935   3.544  32.261   5.071
15153W        W81936  18.744   4.900   3.628
15154W        W81937  16.073  20.165   0.255
15155W        W81938  36.494  25.321  10.603
15156W        W81939  11.276   5.547   1.387
15157W        W81940  28.161  29.956   4.901
15158W        W81941   4.485  35.422  11.578
15159W        W81942   3.737  29.609   0.927
15160W        W81943  24.356   8.995   1.874
15161W        W81944   6.222   3.089   0.417
15162W        W81945   7.176  32.673  12.078
15163W        W81946  27.017  14.749   1.708
15164W        W81947  15.760  35.726  11.138
15165W        W81948  40.530  24.146  13.839
15166W        W81949  30.961  39.205   2.741
15167W        W81950  44.256   9.833   2.823
15168W        W81951  28.093   1.962  14.509
15169W        W81952  19.709  22.012   2.874
15170W        W81953   8.151  40.503  13.030
15171W        W81954  32.028  38.206   4.365
15172W        W81955  20.180  21.754   0.779
15173W        W81956   2.035  19.141   2.694
15174W        W81957   8.770  22.767   0.037
15175W        W81958  10.609  36.796   1.314
15176W        W81959  16.093  23.742   4.162
15177W        W81960  14.554  12.206  14.325
15178W        W81961  24.045  44.004  10.500
15179W        W81962   1.305  29.896  11.055
15180W        W81963  38.261  12.975  10.234
15181W        W81964  20.512  14.738  12.980
15182W        W81965  19.813  26.864  10.646
15183W        W81966  23.486  10.229  11.173
15184W        W81967  24.050  44.861   4.765
15185W        W81968  17.667  20.174  12.486
15186W        W81969  23.115   4.195   1.629
15187W        W81970  40.261  39.868   4.629
15188W        W81971  16.050  24.163   0.903
15189W        W81972  42.866  26.749   1.328
15190W        W81973  43.368  28.777   3.787
15191W        W81974   0.351  42.050  13.293
15192W        W81975  11.292  20.986  14.828
15193W        W81976  25.482  14.825   0.383
15194W        W81977  37.225   7.747   0.958
15195W        W81978  26.543  38.812  14.444
15196W        W81979  23.460  15.869  11.965
15197W        W81980  30.144   7.890   1.342
15198W        W81981  27.229  29.502  14.560
15199W        W81982  35.712   8.709  12.506
15200W        W81983  16.716  32.906  12.617
15201W        W81984  11.578  14.875   1.396
15202W        W81985   8.910  32.879   2.782
15203W        W81986   8.855  21.129   0.008
15204W        W81987  43.410  17.444  13.564
15205W        W81988  27.572  28.748  11.878
15206W        W81989  23.522  14.398   2.789
15207W        W81990  33.577   9.501  11.231
15208W        W81991  33.349  18.199  13.568
15209W        W81992  19.080   8.429  11.516
15210W        W81993  33.065   1.231   3.417
15211W        W81994  30.628   7.674  12.907
15212W        W81995  30.545  16.476  13.928
15213W        W81996  10.154   5.933   5.088
15214W        W81997   5.176  12.425  14.812
15215W        W81998  39.718   5.828  12.024
15216W        W81999  37.554  17.145   1.423
15217W        W82000  13.245  13.348   0.300
15218W        W82001  26.007   9.696   4.159
15219W        W82002  35.420  15.553  10.875
15220W        W82003  15.186  18.560   3.231
15221W        W82004  39.754  38.365   2.256
15222W        W82005  38.482  10.123  11.567
15223W        W82006  32.432   7.188   0.771
15224W        W82007  13.338  39.110  14.439
15225W        W82008   2.244   2.220   3.710
15226W        W82009  40.310  42.074   4.574
15227W        W82010  29.412   1.837  14.986
15228W        W82011  20.285   2.623  12.028
15229W        W82012   4.478   3.335  14.189
15230W        W82013  14.442  27.490   2.852
15231W        W82014  10.243  14.623   0.760
15232W        W82015  30.426  25.211  13.117
15233W        W82016   3.470   2.664  14.123
15234W        W82017  22.077  19.831   3.450
15235W        W82018  36.534  35.553  12.525
15236W        W82019  31.994  40.893  12.348
15237W        W82020  18.244   4.475   4.320
15238W        W82021  37.434  36.625  10.714
15239W        W82022   6.312  22.155   3.404
15240W        W82023  29.054  36.054   3.538
15241W        W82024  41.369  13.313  13.833
15242W        W82025   0.818  11.320  10.783
15243W        W82026  21.377  14.601   2.210
15244W        W82027  40.308  30.564   2.927
15245W        W82028  20.923   3.925  10.726
15246W        W82029  29.641  22.465   2.628
15247W        W82030  12.789  44.045   1.878
15248W        W82031  22.137  15.812  13.086
15249W        W82032  26.695  41.314  12.144
15250W        W82033  13.042   3.676  11.692
15251W        W82034  25.135  35.970   3.405
15252W        W82035   4.435  42.353  14.387
15253W        W82036  37.523  19.588  13.715
15254W        W82037  13.223  31.261  14.435
15255W        W82038  25.907  20.063  10.801
15256W        W82039  32.692  10.352   3.668
15257W        W82040  41.010  27.564  10.690
15258W        W82041  13.835  30.712   0.315
15259W        W82042  12.866  39.832  14.864
15260W        W82043   7.232  13.894   2.152
15261W        W82044  15.670  17.387   5.095
15262W        W82045  24.243  33.513   3.244
15263W        W82046  24.473  18.133  13.494
15264W        W82047  13.512  37.512  12.803
15265W        W82048   8.460   4.342   0.555
15266W        W82049  12.238  34.868   0.841
15267W        W82050  23.683  20.226   0.447
15268W        W82051  34.531  12.306   0.546
15269W        W82052   6.926  43.790   0.812
15270W        W82053  12.568  14.253  11.923
15271W        W82054  12.345  15.609   4.618
15272W        W82055  44.576  40.264   3.704
15273W        W82056  36.597  40.765   0.559
15274W        W82057  16.169  30.430  11.593
15275W        W82058  17.091   5.867   1.598
15276W        W82059  25.497  26.644   4.561
15277W        W82060   5.319   1.475   4.134
15278W        W82061   3.669  19.678   1.339
15279W        W82062  43.480  19.364   3.743
15280W        W82063  38.923   1.471  12.417
15281W        W82064  27.905   3.214  10.828
15282W        W82065  15.757   5.759  14.076
15283W        W82066  11.335   3.736  13.214
15284W        W82067  32.116  36.919   3.233
15285W        W82068   5.008  21.832  11.995
15286W        W82069  17.850  43.108   2.178
15287W        W82070  27.653  40.792  12.916
15288W        W82071   0.020  16.055   2.307
15289W        W82072  22.522  36.822   4.301
15290W        W82073  33.448  36.587  14.941
15291W        W82074  21.545  10.917   1.327
15292W        W82075  31.855  12.743  12.632
15293W        W82076   2.286  34.596   3.338
15294W        W82077  34.550  32.327  12.063
15295W        W82078  26.918  25.989  12.955
15296W        W82079  13.786  38.713   3.599
15297W        W82080   5.363  32.605  13.340
15298W        W82081  20.370  33.422  10.817
15299W        W82082   0.082  25.415   4.575
15300W        W82083   6.629  30.751  11.457
15301W        W82084  41.268  21.969   2.733
15302W        W82085   5.912  10.733  14.998
15303W        W82086  20.234  36.958   0.187
15304W        W82087  32.468  19.546   3.750
15305W        W82088  44.036   5.738  14.004
15306W        W82089  29.055  11.531  13.091
15307W        W82090   8.801   6.952  12.314
15308W        W82091  18.459  34.536   2.280
15309W        W82092  44.710   8.700   0.293
15310W        W82093  39.068  11.426  14.117
15311W        W82094  31.628  19.009  12.265
15312W        W82095  24.327  20.613   2.172
15313W        W82096   1.955  32.879   3.878
15314W        W82097  40.455  31.681  13.927
15315W        W82098   7.669  43.177   4.105
15316W        W82099   1.426  29.111   0.330
15317W        W82100  10.783  39.289   3.587
15318W        W82101  38.810  30.343  14.893
15319W        W82102  18.991  25.232   0.968
15320W        W82103   0.544  22.429   4.125
15321W        W82104  10.653  27.824  12.879
15322W        W82105  15.563  32.184   0.051
15323W        W82106  36.043  43.896   0.734
15324W        W82107  28.906  38.395  13.960
15325W        W82108   6.923  32.789  13.883
15326W        W82109  38.204  15.989   4.265
15327W        W82110  12.595  30.074   1.746
15328W        W82111  23.014  38.566  11.002
15329W        W82112   5.288  23.106   1.431
15330W        W82113  12.517   7.436   0.461
15331W        W82114  29.091  36.587  14.085
15332W        W82115  36.935  10.093  13.056
15333W        W82116  44.791   4.964  10.651
15334W        W82117   1.586  40.854   0.344
15335W        W82118  40.372   6.378  14.956
15336W        W82119  43.835   6.737  13.763
15337W        W82120   2.810  44.512  14.433
15338W        W82121  16.430   0.473  14.536
15339W        W82122  44.670  11.722  12.161
15340W        W82123  20.246  18.539  11.630
15341W        W82124   7.519  29.957   0.309
15342W        W82125   7.689  25.541   4.646
15343W        W82126  27.068  18.556   0.817
15344W        W82127  11.991   6.829  12.048
15345W        W82128   9.270  11.103  13.027
15346W        W82129  25.459  14.619   4.620
15347W        W82130  20.278  15.236   3.691
15348W        W82131  17.819  20.192  13.837
15349W        W82132  24.715  24.465   0.335
15350W        W82133   1.296  27.493   2.137
15351W        W82134  42.855  14.464   2.131
15352W        W82135  31.190  40.234   4.239
15353W        W82136  10.778  14.797   2.809
15354W        W82137  43.421  23.084   4.076
15355W        W82138  11.263  20.644   4.439
15356W        W82139  25.782  14.769   3.651
15357W        W82140   4.975  27.346  13.298
15358W        W82141  36.466  25.587   3.186
15359W        W82142  30.050  13.231   4.800
15360W        W82143  44.774  28.232   1.869
15361W        W82144  14.542  37.587   9.830
15362W        W82145  11.352  10.131   1.311
15363W        W82146  43.044  34.495   3.364
15364W        W82147   1.895  16.303  13.851
15365W        W82148  33.091  26.160  14.760
15366W        W82149   0.353  20.501   2.096
15367W        W82150  15.505   9.753   2.863
15368W        W82151  44.922  13.823  14.900
15369W        W82152   8.623  36.088  14.271
15370W        W82153  16.894  28.984  14.329
15371W        W82154  23.555  27.026   2.142
15372W        W82155  43.745   7.880   2.275
15373W        W82156  27.126  21.971  12.447
15374W        W82157  32.966  42.422  10.481
15375W        W82158   6.310  37.090   0.878
15376W        W82159  43.415  37.605   4.722
15377W        W82160  23.282  15.027  12.003
15378W        W82161  21.584  10.403  10.746
15379W        W82162  16.624  32.347   3.731
15380W        W82163   6.854  29.889  13.512
15381W        W82164  29.595  13.073  11.455
15382W        W82165  15.963  42.824   3.722
15383W        W82166   9.404   7.076   0.410
15384W        W82167   1.504   5.371  13.366
15385W        W82168   7.719  21.935   1.240
15386W        W82169  15.802   7.257   3.151
15387W        W82170  41.797  31.053  10.959
15388W        W82171  14.355  24.287   1.438
15389W        W82172  44.505   7.445   3.147
15390W        W82173  25.575  44.683   2.288
15391W        W82174   3.783  25.587   3.906
15392W        W82175  10.179  17.518  14.407
15393W        W82176  40.966  38.260   4.419
15394W        W82177   1.373  11.702  14.046
15395W        W82178  30.461  38.976   0.967
15396W        W82179   1.441  15.256  14.035
15397W        W82180  17.271  40.480  13.030
15398W        W82181  22.832  37.131  10.618
15399W        W82182  28.034  23.260  14.520
15400W        W82183   7.749  36.448   2.278
15401W        W82184  30.056  13.806  10.715
15402W        W82185  43.753  30.979   0.170
15403W        W82186  24.964  29.009   0.954
15404W        W82187  21.198  27.195  14.964
15405W        W82188  33.508  29.477   3.058
15406W        W82189  29.497  44.277  14.416
15407W        W82190  41.793  39.928   2.645
15408W        W82191   2.415  21.007   4.950
15409W        W82192   1.270   7.379   0.400
15410W        W82193  31.364  11.684  14.335
15411W        W82194   2.482  40.812  11.598
15412W        W82195  41.923  23.167   0.085
15413W        W82196  36.605  32.607   2.129
15414W        W82197  37.064  18.773   4.590
15415W        W82198   7.732  32.188   0.486
15416W        W82199  37.877  23.322  13.981
15417W        W82200  34.489  37.580   4.367
15418W        W82201   6.962  41.759  11.066
15419W        W82202   8.119   1.528   2.399
15420W        W82203  34.700   9.617   4.007
15421W        W82204  22.211  37.848  13.450
15422W        W82205   5.882  29.892   1.328
15423W        W82206  32.235  22.205  14.762
15424W        W82207  15.151  21.340  11.417
15425W        W82208  28.487   4.142  11.040
15426W        W82209  15.173   0.055   2.396
15427W        W82210  41.779   6.928   4.596
15428W        W82211  10.847   5.072  11.525
15429W        W82212  13.765  38.254  10.797
15430W        W82213  12.636  12.050  14.762
15431W        W82214  43.544   8.400  11.585
15432W        W82215  34.120  17.252   4.467
15433W        W82216  10.782  27.134  14.944
15434W        W82217  32.924  44.865   4.542
15435W        W82218  29.436  28.072   4.615
15436W        W82219   3.010  32.120  11.769
15437W        W82220  25.342  33.413  14.823
15438W        W82221   4.330  41.820  14.146
15439W        W82222  15.597  33.446   3.286
15440W        W82223   7.779  41.476   3.211
15441W        W82224  36.652  39.996  10.369
15442W        W82225  33.948   4.288   0.310
15443W        W82226   0.709  17.411  14.552
15444W        W82227  28.749  12.560  11.242
15445W        W82228  17.524  39.460  12.132
15446W        W82229   0.236  32.286   1.201
15447W        W82230   2.533   4.899   5.071
15448W        W82231  36.008   6.744  14.804
15449W        W82232  28.057  17.953  11.153
15450W        W82233  44.787  32.330   3.763
15451W        W82234  21.048   9.132   1.319
15452W        W82235  31.875   7.307  11.201
15453W        W82236  26.109   5.372  10.943
15454W        W82237   7.263  12.209   2.793
15455W        W82238  13.811  30.603   3.794
15456W        W82239  29.485  14.140  11.513
15457W        W82240  42.448  37.712  12.800
15458W        W82241  17.671  38.883  13.882
15459W        W82242  10.390   1.864   3.854
15460W        W82243  33.182  43.027  14.442
15461W        W82244  34.923  29.989  13.818
15462W        W82245  44.281  32.297   3.615
15463W        W82246  32.515  34.274  10.997
15464W        W82247  21.752  38.889   0.730
15465W        W82248  34.359   1.866  10.760
15466W        W82249   6.332  35.153   4.468
15467W        W82250  21.703  35.371  14.688
15468W        W82251  26.499   7.546   3.275
15469W        W82252   4.327   6.169  13.495
15470W        W82253  41.798  30.472   3.745
15471W        W82254  25.257  21.189   1.595
15472W        W82255  17.003   6.375  11.578
15473W        W82256   8.862   5.822  12.970
15474W        W82257   5.258  32.239   2.211
15475W        W82258  35.549  26.732   2.308
15476W        W82259  30.113  43.323   0.788
15477W        W82260  35.055  14.079  14.538
15478W        W82261  14.800  31.407   2.736
15479W        W82262  18.174  44.707  10.386
15480W        W82263  44.056  39.440   3.951
15481W        W82264  19.633  32.694   2.672
15482W        W82265  11.275   4.862  14.499
15483W        W82266  34.152  40.820  13.000
15484W        W82267  40.474   4.763  13.533
15485W        W82268  42.931  17.244   0.306
15486W        W82269  37.339  29.144  14.033
15487W        W82270  39.989  24.949   2.838
15488W        W82271  15.781  10.771   4.653
15489W        W82272  31.914   7.782  12.441
15490W        W82273   4.513  42.859  14.490
15491W        W82274   2.447  11.711   3.626
15492W        W82275   4.824   5.915  13.540
15493W        W82276  29.132  38.990   2.446
15494W        W82277   7.725  22.867  12.580
15495W        W82278  37.637   7.383   9.733
15496W        W82279  13.075  29.363  13.274
15497W        W82280   8.963  21.849  12.541
15498W        W82281   8.630   9.134   0.907
15499W        W82282  15.567  34.744   2.095
15500W        W82283  43.324  17.004  14.426
15501W        W82284  14.137   5.870   3.848
15502W        W82285  14.168  21.992  13.341
15503W        W82286  24.415   9.137  14.423
15504W        W82287  24.626  37.879  14.806
15505W        W82288   1.885  14.228   2.926
15506W        W82289  28.193  42.788   2.891
15507W        W82290  16.718  24.675  12.927
15508W        W82291  23.157  34.079   3.010
15509W        W82292  34.687  24.248   4.149
15510W        W82293  11.626   2.522   4.525
15511W        W82294  23.674  44.114   4.537
15512W        W82295   8.788  14.165   1.343
15513W        W82296  26.762  33.208  10.996
15514W        W82297  41.884  24.125   0.282
15515W        W82298  12.554   6.442  12.977
15516W        W82299  22.193  20.512  11.514
15517W        W82300  25.076  43.830   0.367
15518W        W82301   6.218  38.837  12.354
15519W        W82302  13.878  32.451  13.530
15520W        W82303   2.016  42.798   2.041
15521W        W82304  37.007  22.022   0.664
15522W        W82305   0.800  41.187   0.967
15523W        W82306  37.625  33.320   0.920
15524W        W82307  41.021  36.430   0.717
15525W        W82308  18.581   1.993   4.583
15526W        W82309  23.497   0.841   0.352
15527W        W82310  16.037   8.264   0.649
15528W        W82311   6.797  28.213  12.447
15529W        W82312  34.079  11.714  14.331
15530W        W82313  16.677  33.040   2.438
15531W        W82314  24.742  39.934  11.361
15532W        W82315  39.479   2.491  11.679
15533W        W82316  27.450  15.681   2.101
15534W        W82317   3.055  12.774   2.371
15535W        W82318  17.725  44.495   3.628
15536W        W82319   5.953  14.711   4.159
15537W        W82320  37.482  16.797  10.930
15538W        W82321  41.056  41.694   1.774
15539W        W82322  25.017  22.212   1.713
15540W        W82323  11.776  24.112  12.106
15541W        W82324  41.527  27.967  13.391
15542W        W82325  30.621  20.566   1.549
15543W        W82326  41.087  37.344   2.902
15544W        W82327  33.954   4.694  11.637
15545W        W82328   1.259   2.494  14.391
15546W        W82329  14.813  27.294  10.543
15547W        W82330   2.345  11.348   1.649
15548W        W82331  18.289  31.104  11.982
15549W        W82332  29.112  37.594   4.656
15550W        W82333  43.372  16.583   3.703
15551W        W82334  24.566  10.379  11.542
15552W        W82335  11.105   4.269  13.440
15553W        W82336  13.832   0.863  11.526
15554W        W82337  25.548  13.229   1.902
15555W        W82338   4.985  44.590  14.100
15556W        W82339  11.048  44.710  11.126
15557W        W82340  22.566  11.429   3.235
15558W        W82341  41.728  41.011  12.830
15559W        W82342  27.948  37.326   4.310
15560W        W82343  24.910  30.212   3.109
15561W        W82344  28.069  10.503   1.730
15562W        W82345  29.243  10.742  12.000
15563W        W82346   9.888  19.832   4.628
15564W        W82347   6.342   7.320   4.658
15565W        W82348   8.792  10.102  12.573
15566W        W82349  33.899   1.223   2.955
15567W        W82350  44.136  17.389   9.858
15568W        W82351  26.804  29.594  13.367
15569W        W82352   4.630  10.118   3.744
15570W        W82353  11.744  38.974  10.397
15571W        W82354   2.489  43.786   1.431
15572W        W82355  22.033  10.180  14.752
15573W        W82356  30.572  28.076  10.720
15574W        W82357   4.446  11.416   1.713
15575W        W82358   1.294  26.573   1.323
15576W        W82359  19.720  44.367  14.996
15577W        W82360   5.972   7.690   4.636
15578W        W82361  42.765  25.334   4.729
15579W        W82362   3.990  15.169   4.595
15580W        W82363  10.528  40.869   4.860
15581W        W82364  24.525  36.394   0.363
15582W        W82365  30.631  34.164  13.432
15583W        W82366  40.883   9.704  13.845
15584W        W82367  44.873  21.513   2.924
15585W        W82368  37.606  41.408   9.727
15586W        W82369  20.050  22.667  12.126
15587W        W82370   3.892  44.360   0.881
15588W        W82371  17.096  40.970  10.736
15589W        W82372  29.767   0.775  10.760
15590W        W82373  36.312   8.181  11.588
15591W        W82374  31.630  31.195  10.740
15592W        W82375  31.048  24.527  11.867
15593W        W82376   9.656  23.261   2.248
15594W        W82377   4.782   0.097   0.016
15595W        W82378  25.704  31.513   1.312
15596W        W82379   2.438  19.479  11.640
15597W        W82380  36.121   9.676   2.911
15598W        W82381  20.598   4.165  13.308
15599W        W82382  40.990  11.180  13.940
15600W        W82383  25.101  34.692   0.346
15601W        W82384  41.920  27.406  13.278
15602W        W82385   4.825  39.930  11.874
15603W        W82386  16.859   0.949  14.471
15604W        W82387   4.880  20.232  14.390
15605W        W82388  15.646  41.537   0.308
15606W        W82389  31.967   5.940   0.927
15607W        W82390  26.751   3.416  11.437
15608W        W82391  42.335  40.524  14.034
15609W        W82392  44.746  31.851   2.196
15610W        W82393  35.115  27.520  13.493
15611W        W82394  31.106  44.586   1.622
15612W        W82395   8.883  44.715  10.582
15613W        W82396  18.214  28.096  11.858
15614W        W82397  13.819  37.642  14.471
15615W        W82398  37.214   9.855  10.802
15616W        W82399   7.731  14.479   1.249
15617W        W82400  22.783  44.998  11.638
15618W        W82401  18.812  34.110  11.106
15619W        W82402   0.535  15.768   3.214
15620W        W82403  17.781   9.429  12.331
15621W        W82404  37.128  15.776   3.531
15622W        W82405   1.849  10.955  14.620
15623W        W82406  42.709  28.380  12.081
15624W        W82407  41.829  38.569  11.596
15625W        W82408  23.056  38.490   0.412
15626W        W82409  44.478  22.777   0.969
15627W        W82410   0.672  31.997   3.734
15628W        W82411  44.087  41.216  13.673
15629W        W82412  14.173  29.658   0.790
15630W        W82413  10.904  37.073   1.729
15631W        W82414  26.679  17.241  13.715
15632W        W82415  19.301  33.453  12.695
15633W        W82416  25.243   0.819  14.942
15634W        W82417  26.718  31.511   1.377
15635W        W82418  13.321  11.837  14.615
15636W        W82419   3.201   8.348  13.866
15637W        W82420  42.780  11.846  12.587
15638W        W82421   8.627  23.157  14.244
15639W        W82422  34.917  39.805  11.661
15640W        W82423   1.696  13.646  11.163
15641W        W82424  26.034  28.639  14.899
15642W        W82425  33.930  31.115   4.798
15643W        W82426   1.375  25.096  11.418
15644W        W82427   2.740   4.827   0.270
15645W        W82428  17.585  43.731   4.114
15646W        W82429  23.320  30.607   2.894
15647W        W82430  25.131  28.194  11.154
15648W        W82431  35.655  44.727  14.903
15649W        W82432  22.749  26.051   0.340
15650W        W82433   0.989  22.966   1.884
15651W        W82434  34.391  31.557   2.355
15652W        W82435   6.821  24.259   3.182
15653W        W82436  10.689   7.155   1.977
15654W        W82437  16.268  15.334  11.499
15655W        W82438  22.060   1.322   5.375
15656W        W82439   5.280  36.126   2.107
15657W        W82440  10.090  35.411   4.958
15658W        W82441  24.712   3.902   3.083
15659W        W82442  34.389   0.450   1.373
15660W        W82443  34.427   0.916  12.520
15661W        W82444  24.502  24.588   9.822
15662W        W82445  20.446  16.113  11.568
15663W        W82446  14.584  14.935  14.827
15664W        W82447  44.391  33.986   0.411
15665W        W82448  28.596  30.623   4.830
15666W        W82449  24.156   9.860   1.484
15667W        W82450  34.406   1.855   0.997
15668W        W82451  14.604   0.218   1.185
15669W        W82452   8.847  19.402   2.009
15670W        W82453   6.892  42.982  11.524
15671W        W82454  10.413   4.982   1.480
15672W        W82455   3.220  33.122  11.092
15673W        W82456  14.171  39.537  13.497
15674W        W82457  26.427  35.305  11.129
15675W        W82458  40.240   1.627  14.742
15676W        W82459   0.472  37.590  13.508
15677W        W82460  14.894  17.811  10.510
15678W        W82461  24.682  31.720   4.414
15679W        W82462   4.440  20.548   2.178
15680W        W82463   1.853  26.597   2.793
15681W        W82464  41.526  23.982  10.569
15682W        W82465  39.051  38.347  14.839
15683W        W82466  30.987  40.624  11.955
15684W        W82467  36.094  37.425  14.277
15685W        W82468   3.821  21.095  14.793
15686W        W82469  29.515  21.302   1.009
15687W        W82470  13.667  12.151   3.660
15688W        W82471  18.751  39.432  13.299
15689W        W82472  16.088  37.562   2.337
15690W        W82473  29.105  26.597   4.065
15691W        W82474  31.614   7.841   4.905
15692W        W82475   5.487  12.840  13.839
15693W        W82476  39.992   3.113  14.954
15694W        W82477  13.121  21.574  11.311
15695W        W82478  28.503  30.914   2.151
15696W        W82479  21.767  27.013  13.758
15697W        W82480  43.595   4.512  10.616
15698W        W82481   2.448  31.443  10.969
15699W        W82482  43.933  42.417   2.434
15700W        W82483   1.795  15.799  13.821
15701W        W82484  31.541  40.251  14.541
15702W        W82485   0.832  24.676  13.026
15703W        W82486  21.187   9.236  11.634
15704W        W82487  18.130  17.710   3.792
15705W        W82488   7.963  42.584   3.310
15706W        W82489  33.372  10.263   1.142
15707W        W82490  24.780   8.392   3.052
15708W        W82491   2.716   7.472   0.780
15709W        W82492  21.561  43.523   4.581
15710W        W82493  17.828  34.306  11.968
15711W        W82494  10.168  40.912   4.467
15712W        W82495  11.050  36.765  10.173
15713W        W82496  29.784  33.221   1.927
15714W        W82497  20.347  14.650   4.366
15715W        W82498  15.328  33.523  14.910
15716W        W82499   4.210   4.820   0.224
15717W        W82500  29.331   6.128   4.211
15718W        W82501  41.066  33.047  11.530
15719W        W82502  13.944  43.173   2.566
15720W        W82503  30.862  41.358  12.400
15721W        W82504  42.552  35.197  10.556
15722W        W82505  13.794  25.050  13.001
15723W        W82506  40.481   0.886  14.242
15724W        W82507  41.845  19.982   4.610
15725W        W82508  24.779   9.089   0.747
15726W        W82509  16.515  35.364  12.448
15727W        W82510   4.281  20.974  11.700
15728W        W82511   0.609  37.816   2.244
15729W        W82512  16.121   0.835  12.007
15730W        W82513  29.407  31.469   4.936
15731W        W82514  36.876   2.884   2.305
15732W        W82515  19.243   5.691   1.777
15733W        W82516  44.026  40.549   0.824
15734W        W82517   8.325  14.101  12.384
15735W        W82518  37.133  16.233  13.052
15736W        W82519  42.067  28.020   3.728
15737W        W82520  34.772  21.558   3.995
15738W        W82521  35.294  24.970   0.017
15739W        W82522   4.480  32.565  14.074
15740W        W82523  24.219  16.318  14.531
15741W        W82524  43.326  37.281  14.856
15742W        W82525  18.146   0.620  12.010
15743W        W82526  43.318  34.066   4.117
15744W        W82527  19.223  12.715  12.564
15745W        W82528  30.663  32.391  12.541
15746W        W82529   5.550  14.613   1.479
15747W        W82530   0.950  37.550   4.535
15748W        W82531  16.362  18.005  13.388
15749W        W82532  34.763  11.552  11.865
15750W        W82533   0.979  14.064   1.999
15751W        W82534  40.986   3.078   3.661
15752W        W82535  30.891  32.681   0.247
15753W        W82536  36.137  13.858   0.208
15754W        W82537   6.194  31.765   2.225
15755W        W82538   3.282  32.111  14.053
15756W        W82539  32.951   1.773   0.042
15757W        W82540   9.852  43.015   1.342
15758W        W82541  37.594  24.397   0.352
15759W        W82542  42.556   1.507  10.890
15760W        W82543  19.089  34.207   3.406
15761W        W82544  37.013  42.589   3.321
15762W        W82545  31.527  24.259   4.548
15763W        W82546   1.426  10.157   4.626
15764W        W82547   4.679  21.102  14.272
15765W        W82548  19.146  39.963   2.702
15766W        W82549  36.786  22.772  11.958
15767W        W82550   0.356  20.508  13.982
15768W        W82551   3.130   1.377   0.359
15769W        W82552  39.829  28.005  14.400
15770W        W82553  23.796  12.719   2.291
15771W        W82554  19.166   4.492  11.561
15772W        W82555  42.862  31.443   0.099
15773W        W82556  15.316   5.351   2.002
15774W        W82557  17.679  30.049  11.103
15775W        W82558   7.754   1.297  13.746
15776W        W82559  30.621  22.649  11.131
15777W        W82560  42.884   2.686   4.795
15778W        W82561   1.152  41.556  10.228
15779W        W82562  25.924  41.573  10.328
15780W        W82563  29.922  26.942   0.418
15781W        W82564   6.342  42.771   2.863
15782W        W82565  25.532  33.118   3.292
15783W        W82566  20.105  17.316  13.356
15784W        W82567  21.091  34.523   4.582
15785W        W82568  14.949  25.596   0.854
15786W        W82569  15.813   0.460   2.164
15787W        W82570  44.269  35.331  12.011
15788W        W82571  24.613  28.575   0.317
15789W        W82572  29.708  16.101   4.825
15790W        W82573   3.420  43.792  11.886
15791W        W82574  34.617   3.042  14.295
15792W        W82575  36.458   4.359  10.799
15793W        W82576  23.145  11.645   2.459
15794W        W82577   2.914  27.139  12.968
15795W        W82578  31.404   4.600  10.071
15796W        W82579   9.101   1.475  13.052
15797W        W82580  21.265  29.631  11.554
15798W        W82581  42.728  17.649   0.552
15799W        W82582  43.559  10.337  12.447
15800W        W82583  28.425   0.988   2.812
15801W        W82584   1.880  25.753  12.516
15802W        W82585  41.442  10.319   4.166
15803W        W82586  34.217  21.005   2.121
15804W        W82587  18.119  14.380   0.406
15805W        W82588   3.765   9.610   2.198
15806W        W82589   7.701  24.291  12.836
15807W        W82590  17.626  25.130  12.058
15808W        W82591   2.028  19.569  11.007
15809W        W82592   4.529  35.003   1.924
15810W        W82593  22.660  17.359   2.181
15811W        W82594   9.497  14.293   2.018
15812W        W82595  19.257   8.820  12.495
15813W        W82596  27.058  25.523   1.208
15814W        W82597  23.321  31.463   2.647
15815W        W82598  20.149   1.389  10.342
15816W        W82599   7.574  16.633   4.875
15817W        W82600  43.843  27.253  13.041
15818W        W82601  37.440  14.787   0.069
15819W        W82602  41.808   9.889   4.658
15820W        W82603  23.775  35.538  13.970
15821W        W82604  16.662  29.534   3.817
15822W        W82605   6.400  37.869   4.228
15823W        W82606  15.423  27.152   0.406
15824W        W82607  30.089  44.164   2.199
15825W        W82608  15.151   4.735  11.599
15826W        W82609  14.537  39.615  12.960
15827W        W82610  12.339  17.978  11.651
15828W        W82611   0.526  12.157   1.829
15829W        W82612  39.815  12.849   1.878
15830W        W82613  16.835  13.650  11.830
15831W        W82614  14.774  35.886   1.862
15832W        W82615   2.807  23.613  12.066
15833W        W82616  12.791  22.746   2.933
15834W        W82617  31.924  27.950   3.194
15835W        W82618  20.120   5.844  11.207
15836W        W82619  27.524  43.559  10.587
15837W        W82620  32.100  41.811  14.001
15838W        W82621   4.879  28.183  14.540
15839W        W82622  28.002   9.248  10.736
15840W        W82623  21.331   1.295   2.972
15841W        W82624  44.938  22.420  13.426
15842W        W82625   0.929  42.529   4.138
15843W        W82626  12.270  44.051  14.731
15844W        W82627  35.823  24.620  11.695
15845W        W82628   5.249  42.002   3.738
15846W        W82629  34.034   9.320  13.913
15847W        W82630  31.396  13.211  10.527
15848W        W82631   5.021  14.005   9.598
15849W        W82632  34.391  18.505   3.795
15850W        W82633  30.645  35.325  10.722
15851W        W82634  21.121   1.346  13.037
15852W        W82635  34.435  16.224  12.594
15853W        W82636  14.635   7.435  13.474
15854W        W82637  31.398  23.202   3.211
15855W        W82638  38.946  35.578   2.325
15856W        W82639   3.795  30.905  11.365
15857W        W82640  28.071   4.022  14.881
15858W        W82641  26.498  43.751  12.422
15859W        W82642   8.634   6.329   1.835
15860W        W82643  44.901  38.487  14.019
15861W        W82644  37.851  30.730   1.855
15862W        W82645  30.685   7.180  10.669
15863W        W82646  22.754   8.112  11.629
15864W        W82647  33.974  10.318  12.253
15865W        W82648  18.321  24.464  12.555
15866W        W82649  44.350  16.673   1.929
15867W        W82650  41.019  33.822   4.221
15868W        W82651  27.728  29.515   2.300
15869W        W82652   4.805  32.636  12.685
15870W        W82653   6.636  43.546   1.161
15871W        W82654   4.700  21.993  12.688
15872W        W82655  30.058  19.115  10.875
15873W        W82656  41.885  26.486  13.391
15874W        W82657  29.725  38.955   4.984
15875W        W82658  37.711   6.280   3.198
15876W        W82659   4.347  41.582   3.892
15877W        W82660  27.567  22.525  13.024
15878W        W82661  38.475  34.244  12.484
15879W        W82662  44.169  24.973   4.183
15880W        W82663  20.372  12.133  12.154
15881W        W82664  41.606   9.103   0.746
15882W        W82665  17.500   0.032  11.543
15883W        W82666  40.806  34.989   3.625
15884W        W82667  32.648   4.483  11.107
15885W        W82668   1.768   8.910   1.872
15886W        W82669   9.871  41.388  10.485
15887W        W82670  42.081   6.406  12.081
15888W        W82671  35.588   8.356   4.255
15889W        W82672  33.712   7.271  14.508
15890W        W82673  23.593  31.053   0.754
15891W        W82674  24.192  13.931   0.219
15892W        W82675  19.070  34.833  10.946
15893W        W82676  27.588  37.140   1.209
15894W        W82677  40.585   6.248   1.828
15895W        W82678   1.193  26.828   3.998
15896W        W82679  14.062  43.805   0.283
15897W        W82680  43.792  32.960  11.254
15898W        W82681  13.828  39.532  14.811
15899W        W82682  24.540  19.699  12.357
15900W        W82683   9.718  19.126  10.676
15901W        W82684   1.316  20.977   3.746
15902W        W82685  35.487  25.414  13.198
15903W        W82686   7.251  40.027  11.693
15904W        W82687  37.033  38.053  13.418
15905W        W82688  38.164  16.452  12.795
15906W        W82689   5.134  10.627  14.480
15907W        W82690  22.601   7.417   4.408
15908W        W82691  16.610  44.880  11.238
15909W        W82692  19.611  27.762   3.544
15910W        W82693  20.795   2.350  13.345
15911W        W82694  44.240  25.558   2.942
15912W        W82695  22.222   7.346   4.836
15913W        W82696  29.516  29.275  13.309
15914W        W82697  18.813  11.406  12.885
15915W        W82698  33.575  26.009  14.744
15916W        W82699  29.704  12.122   3.224
15917W        W82700  32.942   9.719   4.134
15918W        W82701   6.392  10.329  11.459
15919W        W82702  10.343   1.387   2.280
15920W        W82703  42.540  16.081  13.428
15921W        W82704  13.946  28.452   1.307
15922W        W82705  27.743  18.529  13.890
15923W        W82706   0.726  18.211  11.599
15924W        W82707  39.581  41.450   1.875
15925W        W82708  30.944  35.153  13.289
15926W        W82709  29.030  16.190   1.328
15927W        W82710  26.821  38.586  12.398
15928W        W82711  29.369  37.516  12.534
15929W        W82712  21.103   9.754  10.782
15930W        W82713   3.319  35.782  12.013
15931W        W82714  41.150  32.631   0.541
15932W        W82715   7.650  26.988   2.507
15933W        W82716  11.760  43.871   0.469
15934W        W82717  33.390   0.926  13.606
15935W        W82718  24.349  20.586   4.032
15936W        W82719  37.472  29.186  11.008
15937W        W82720   2.422  40.459   2.813
15938W        W82721  26.181  36.495  14.731
15939W        W82722  36.187  22.517   0.746
15940W        W82723  18.036  34.425  14.675
15941W        W82724  39.464  21.673   3.374
15942W        W82725   7.361  11.719  12.612
15943W        W82726  35.054  27.820   4.621
15944W        W82727  16.019  24.165   2.863
15945W        W82728   0.888   5.394  12.953
15946W        W82729  34.102   8.236  13.078
15947W        W82730  31.394  44.175  12.486
15948W        W82731   4.893  38.786  12.833
15949W        W82732   6.767  44.029  12.598
15950W        W82733  28.574  27.942  14.481
15951W        W82734  25.148  17.107   3.876
15952W        W82735  33.132   8.836   0.693
15953W        W82736  32.617   2.453   2.044
15954W        W82737  27.397  42.783   3.719
15955W        W82738  28.626   8.841  10.459
15956W        W82739  36.897  38.566   2.834
15957W        W82740  19.009  29.573   2.747
15958W        W82741   5.484  17.126  13.850
15959W        W82742  32.198  12.327   1.404
15960W        W82743  43.551  15.440   4.982
15961W        W82744  10.888  12.869  12.921
15962W        W82745  12.599  31.989   2.441
15963W        W82746  29.023  34.972  13.817
15964W        W82747   2.896   6.875   1.915
15965W        W82748  25.748  20.780  13.002
15966W        W82749  42.062   4.449   4.178
15967W        W82750   4.751  27.656   3.137
15968W        W82751  15.682  41.376  10.999
15969W        W82752  30.597   3.290   3.321
15970W        W82753  29.051  25.409   4.052
15971W        W82754  37.889  25.129   2.754
15972W        W82755  34.522  41.028   4.735
15973W        W82756  39.479  34.420  12.419
15974W        W82757  33.605  26.747  14.092
15975W        W82758  32.436  23.999   2.728
15976W        W82759  16.208  43.817   4.637
15977W        W82760  41.083  29.688  12.027
15978W        W82761  40.939  36.155  12.656
15979W        W82762  17.740  35.698   2.015
15980W        W82763  15.718  28.213   3.281
15981W        W82764  25.315   8.574  12.935
15982W        W82765  33.343  41.564   5.151
15983W        W82766  11.206  25.671  12.844
15984W        W82767  34.330   8.137  13.814
15985W        W82768  33.009  44.473  10.632
15986W        W82769   5.560  12.982   2.254
15987W        W82770  35.879  31.236   1.424
15988W        W82771  37.163  19.681  14.626
15989W        W82772   5.701   3.815  12.968
15990W        W82773  10.186  32.122  11.991
15991W        W82774  31.351   1.237   4.795
15992W        W82775  37.167  24.460   2.735
15993W        W82776   5.939  21.030   1.804
15994W        W82777  15.179  22.532   0.924
15995W        W82778   6.221   7.529   2.803
15996W        W82779  14.773  21.675  12.533
15997W        W82780  25.053  40.250   3.011
15998W        W82781  32.546  41.556  12.870
15999W        W82782  40.484  39.558   4.196
16000W        W82783  17.998  34.494  12.908
16001W        W82784   1.724  30.129   0.419
16002W        W82785  18.086   5.360  13.508
16003W        W82786   2.255   4.201  12.044
16004W        W82787  42.803   0.316  12.422
16005W        W82788  27.602  16.136   2.825
16006W        W82789  14.587  43.715   3.083
16007W        W82790  44.705   9.448   0.842
16008W        W82791  25.013  10.662  13.936
16009W        W82792   1.498  42.587   3.738
16010W        W82793   8.872  32.244  11.530
16011W        W82794  29.910  21.991   2.181
16012W        W82795  41.810  18.715  11.494
16013W        W82796   8.110   4.332   4.135
16014W        W82797  42.730  29.004  10.976
16015W        W82798  39.087  44.908   2.504
16016W        W82799   7.805   5.895  10.826
16017W        W82800  13.446   4.359   4.247
16018W        W82801  23.001  36.411  13.159
16019W        W82802  36.476  31.995  11.719
16020W        W82803  22.168  31.588   3.709
16021W        W82804  43.787  30.972   4.180
16022W        W82805  16.816  41.427  13.482
16023W        W82806   4.737  33.494  13.556
16024W        W82807  22.408  33.339   1.890
16025W        W82808   0.862  21.022   4.300
16026W        W82809  37.265  43.525  13.317
16027W        W82810  17.104  14.914  11.458
16028W        W82811  29.609  36.911   2.389
16029W        W82812  11.827  39.909  10.813
16030W        W82813  39.808  44.555  12.505
16031W        W82814  11.613  30.467   1.460
16032W        W82815  20.814   1.920  12.221
16033W        W82816  41.852  26.113   0.807
16034W        W82817  12.691  34.919   3.346
16035W        W82818   6.480  42.347   3.150
16036W        W82819   4.246  11.229   1.268
16037W        W82820  23.118  21.712  11.531
16038W        W82821   0.742  29.462  13.474
16039W        W82822  26.047   4.072   0.194
16040W        W82823   1.816   1.198   1.807
16041W        W82824  33.600  16.678   0.416
16042W        W82825  22.634   2.476   2.686
16043W        W82826  11.515  24.989   3.954
16044W        W82827   0.264  39.396  11.884
16045W        W82828  22.079   2.074   2.207
16046W        W82829  12.169  26.436  12.133
16047W        W82830  39.769  37.061  12.344
16048W        W82831  33.101  10.366   4.602
16049W        W82832   6.133  31.259   2.305
16050W        W82833  28.969  27.782   2.623
16051W        W82834   7.861  38.792   0.529
16052W        W82835  38.929  37.983   4.242
16053W        W82836   4.848   0.772   3.632
16054W        W82837  25.452  40.861  12.360
16055W        W82838  42.834  20.067   5.229
16056W        W82839  14.698  14.673  12.353
16057W        W82840   7.662  32.839   3.279
16058W        W82841  13.694  36.448  13.951
16059W        W82842   7.410   0.979  14.517
16060W        W82843  29.184   1.403   0.199
16061W        W82844   0.552   9.125   4.103
16062W        W82845  28.529  43.851  11.522
16063W        W82846  12.084  21.796  14.445
16064W        W82847   2.478  26.584  10.795
16065W        W82848  16.784  44.443  14.459
16066W        W82849   5.843   0.255  12.054
16067W        W82850  31.854   5.738  14.976
16068W        W82851  16.659   6.653   3.260
16069W        W82852  25.639  39.994   2.238
16070W        W82853  20.985  20.127  12.076
16071W        W82854  32.194   5.675   1.326
16072W        W82855  21.061  36.663  12.007
16073W        W82856   2.066  28.563  10.780
16074W        W82857   4.683   2.418  12.052
16075W        W82858   6.732  42.053   2.784
16076W        W82859  34.273  23.774  14.557
16077W        W82860  18.033   2.719   2.717
16078W        W82861  28.044  43.495   2.338
16079W        W82862  44.822   4.193  11.192
16080W        W82863  44.476  10.604   2.393
16081W        W82864  11.737  42.536   0.444
16082W        W82865  41.423  11.035   4.591
16083W        W82866  39.748  43.887   4.444
16084W        W82867  40.514  22.197   3.180
16085W        W82868  37.099  28.520   1.287
16086W        W82869  16.364  44.018  12.593
16087W        W82870  31.915  30.250   0.894
16088W        W82871  23.046  15.073  11.146
16089W        W82872   3.666  28.889  14.902
16090W        W82873  33.158  38.956   4.154
16091W        W82874  24.936  37.428  13.896
16092W        W82875  11.132  30.629  10.987
16093W        W82876  43.854  30.648  11.903
16094W        W82877  27.281  28.509   4.477
16095W        W82878  32.530  27.101   0.714
16096W        W82879  18.743  34.938   3.729
16097W        W82880  15.212  18.979   4.857
16098W        W82881  38.489   6.360   1.752
16099W        W82882  13.816  44.237  11.102
16100W        W82883  14.127  43.422   4.830
16101W        W82884  41.536  40.014   1.732
16102W        W82885  11.378   2.130  12.924
16103W        W82886   0.537  34.570   1.747
16104W        W82887  43.096   1.828   4.314
16105W        W82888  12.372  18.765  12.451
16106W        W82889  26.914  33.385   0.994
16107W        W82890  36.068  34.087   2.854
16108W        W82891  10.085  24.303   1.761
16109W        W82892   0.290  27.907   3.688
16110W        W82893  25.981   2.497  12.371
16111W        W82894  35.982   2.581  12.959
16112W        W82895  23.296  15.098   3.025
16113W        W82896   3.609  37.967   4.928
16114W        W82897  35.732   5.777  11.679
16115W        W82898  39.911  21.815   3.142
16116W        W82899   1.751  25.088  10.721
16117W        W82900  14.831   7.981  14.854
16118W        W82901   7.760   6.102   4.634
16119W        W82902   3.378  40.293  14.219
16120W        W82903  31.167  39.496   2.281
16121W        W82904  32.166  34.394   2.368
16122W        W82905  36.044  26.629  13.618
16123W        W82906  22.597   8.610  12.559
16124W        W82907  23.258  27.013  13.380
16125W        W82908   6.150   7.303   1.457
16126W        W82909   8.587  44.356   1.752
16127W        W82910  27.478  10.871  11.640
16128W        W82911  40.022   6.885   0.783
16129W        W82912  26.937   1.656   1.363
16130W        W82913  39.004  14.728   3.644
16131W        W82914   9.387  36.114   1.898
16132W        W82915   9.181  14.233  12.350
16133W        W82916  26.518  21.447  14.852
16134W        W82917  19.156  21.214  13.591
16135W        W82918  39.502  30.345  13.537
16136W        W82919   9.404  28.923   4.069
16137W        W82920   9.983  43.438   4.046
16138W        W82921  24.647  19.851  11.901
16139W        W82922   8.856  16.723  12.958
16140W        W82923  23.483  32.983   4.437
16141W        W82924  35.820  34.238  13.067
16142W        W82925  14.603  30.118   2.876
16143W        W82926   7.434  39.814  13.061
16144W        W82927  35.582   8.877  10.327
16145W        W82928  33.142  43.622   3.708
16146W        W82929  43.942  35.080   0.951
16147W        W82930   6.408  34.976  13.446
16148W        W82931  14.286  28.103   2.079
16149W        W82932  30.544   9.845  12.567
16150W        W82933  41.486  34.995  12.831
16151W        W82934  12.685  14.917  14.034
16152W        W82935  37.863   7.197   3.268
16153W        W82936  11.661  41.792  12.756
16154W        W82937  39.651  10.247  10.085
16155W        W82938   0.467   8.691  13.372
16156W        W82939   4.357  35.646  14.845
16157W        W82940  22.830  11.388  10.767
16158W        W82941  37.871   1.263   1.842
16159W        W82942  39.841   0.548  12.636
16160W        W82943  19.337  23.585  14.835
16161W        W82944  25.540  37.367   3.987
16162W        W82945  41.822  23.998  11.112
16163W        W82946   2.739  33.159  12.908
16164W        W82947  26.574  24.586  13.419
16165W        W82948  22.420  35.968  14.924
16166W        W82949  27.026  44.896  12.693
16167W        W82950  36.391  21.693   1.386
16168W        W82951   0.833  34.384  14.632
16169W        W82952  31.592  14.974  12.942
16170W        W82953  35.906  27.417  12.921
16171W        W82954   7.207  14.504  13.927
16172W        W82955  30.417  36.940  12.322
16173W        W82956   0.414   5.853   4.955
16174W        W82957  13.629  39.614  14.296
16175W        W82958  10.921   2.885   1.226
16176W        W82959  37.371  40.309  10.515
16177W        W82960   2.401  36.487   2.869
16178W        W82961  30.014  28.433  11.027
16179W        W82962  21.226  17.297   3.224
16180W        W82963   7.350  12.141  13.005
16181W        W82964   3.867   2.908   2.318
16182W        W82965  10.637  34.645  14.752
16183W        W82966  13.321  19.374  11.073
16184W        W82967  31.958   1.110   2.796
16185W        W82968  14.539  40.323   4.000
16186W        W82969  29.004   5.048  12.458
16187W        W82970  39.346  10.669   3.739
16188W        W82971  26.707  17.350  12.546
16189W        W82972  28.618   7.514   2.502
16190W        W82973  35.374  36.785   2.225
16191W        W82974  10.844   2.008   4.111
16192W        W82975  41.498  24.236   4.055
16193W        W82976  33.275  15.095  13.470
16194W        W82977  42.872  10.688  14.369
16195W        W82978  13.585  43.036   2.933
16196W        W82979  25.990   7.691   3.258
16197W        W82980  17.679  24.128   2.250
16198W        W82981  42.332  24.020   2.477
16199W        W82982  12.540  44.007  10.652
16200W        W82983  41.219   8.685  13.977
16201W        W82984  19.038  34.882  10.395
16202W        W82985  38.393  18.474  10.878
16203W        W82986  20.057  35.751  10.065
16204W        W82987   6.399   5.014  13.528
16205W        W82988  22.984   4.947  11.657
16206W        W82989   4.394   5.759   4.778
16207W        W82990  36.113  15.066   4.162
16208W        W82991  30.886  12.155   1.033
16209W        W82992  14.183  28.662  12.914
16210W        W82993   7.355  10.463   1.264
16211W        W82994   0.052  25.496  13.571
16212W        W82995  38.283  25.738   0.282
16213W        W82996  28.216   2.824  14.387
16214W        W82997  43.721  33.415   4.851
16215W        W82998  27.947   0.389  12.516
16216W        W82999  42.004  15.674   0.239
16217W        W83000  14.799  14.153   1.331
16218W        W83001  10.181  34.885  12.850
16219W        W83002  11.775   0.697  11.532
16220W        W83003   0.332  26.844   2.484
16221W        W83004  21.652  42.788   2.080
16222W        W83005   8.981  38.386  11.467
16223W        W83006   7.198  13.130   2.699
16224W        W83007   4.748   8.600  12.011
16225W        W83008   5.252  20.816  10.690
16226W        W83009  35.082   9.291   0.113
16227W        W83010  18.986  25.098  11.693
16228W        W83011  13.054  44.239  11.588
16229W        W83012  26.508  43.448   0.479
16230W        W83013  16.096   4.841   1.582
16231W        W83014   5.783  25.131  14.887
16232W        W83015  31.817  13.201  11.502
16233W        W83016  43.472  12.225  10.819
16234W        W83017   7.063  14.755  13.492
16235W        W83018  25.527   0.066   0.542
16236W        W83019  41.760  20.587  13.008
16237W        W83020  18.069   5.911   3.391
16238W        W83021  28.915  41.227   1.954
16239W        W83022  15.344  44.926   1.410
16240W        W83023   8.703   0.136  11.224
16241W        W83024  23.609  24.055  12.114
16242W        W83025  22.316  25.068  12.637
16243W        W83026  26.995   5.615  11.742
16244W        W83027   1.691  43.981  12.859
16245W        W83028   0.413   6.066  10.941
16246W        W83029  17.010  11.979   1.050
16247W        W83030   3.749  40.990  14.509
16248W        W83031  13.697   4.000   0.314
16249W        W83032  43.352   6.243  13.000
16250W        W83033  17.360  11.688   4.812
16251W        W83034  24.583   3.550  13.554
16252W        W83035  23.126   4.963   9.919
16253W        W83036  20.642  22.128  12.491
16254W        W83037  29.726  41.784   4.462
16255W        W83038  44.987  22.044  14.802
16256W        W83039  15.894  40.257  12.820
16257W        W83040  42.061   8.594  14.903
16258W        W83041  42.704  29.920  10.712
16259W        W83042  41.466  32.900   0.222
16260W        W83043  25.072  39.442   1.837
16261W        W83044  11.366  44.072  12.649
16262W        W83045  22.944  41.374  13.285
16263W        W83046  38.093  37.696   0.329
16264W        W83047  39.804  22.018   3.589
16265W        W83048   3.632  42.398   3.165
16266W        W83049   7.034  25.962   0.285
16267W        W83050  31.339  17.294   0.487
16268W        W83051  35.569  41.249  13.147
16269W        W83052  33.443   7.437   0.278
16270W        W83053  21.420  28.954   1.710
16271W        W83054   3.396  28.802   9.883
16272W        W83055  16.637  35.513  11.533
16273W        W83056   2.228  21.615   1.778
16274W        W83057   0.399  40.701  12.675
16275W        W83058  20.189  19.826   3.548
16276W        W83059   1.324  32.491  14.508
16277W        W83060   4.711  12.714   1.899
16278W        W83061   1.734  10.312  11.113
16279W        W83062  21.628  20.922   4.835
16280W        W83063  41.534   3.832  11.124
16281W        W83064  30.447  24.010   1.290
16282W        W83065  40.555   5.877  12.426
16283W        W83066   0.284  44.431   0.312
16284W        W83067   4.953   4.318  12.051
16285W        W83068   8.282  28.144   2.950
16286W        W83069  43.246  26.514   4.123
16287W        W83070  32.525  14.144   0.975
16288W        W83071  27.910  12.705   3.251
16289W        W83072  31.370   3.404  10.739
16290W        W83073  11.757  35.034   0.701
16291W        W83074   7.708   2.209   0.404
16292W        W83075  14.249   0.226   0.715
16293W        W83076  29.886  37.600  14.780
16294W        W83077  16.066  34.431  11.556
16295W        W83078  20.823  10.062   3.760
16296W        W83079  33.490  29.383   4.591
16297W        W83080   9.214  11.608  14.392
16298W        W83081   3.139   2.381   2.277
16299W        W83082  29.545  16.619   2.320
16300W        W83083  20.942  25.232   3.717
16301W        W83084  36.468  33.017   2.389
16302W        W83085   2.282  21.823  12.045
16303W        W83086  30.963   8.567   0.755
16304W        W83087  11.096  14.351  10.778
16305W        W83088  42.778   4.731  12.103
16306W        W83089  25.701  31.940   3.601
16307W        W83090  29.197  21.965   0.716
16308W        W83091   9.310  17.639  14.503
16309W        W83092   5.676  20.341   3.593
16310W        W83093  35.615  34.905   1.253
16311W        W83094  34.595  38.789  11.139
16312W        W83095  36.295  15.890  13.474
16313W        W83096  39.289  36.852  12.359
16314W        W83097  27.927  34.550  13.052
16315W        W83098  39.488  43.861  11.043
16316W        W83099   6.837  31.328  11.515
16317W        W83100  36.919  44.730   0.325
16318W        W83101  20.723  10.138  10.678
16319W        W83102  33.526   7.848  13.470
16320W        W83103  24.646   2.450   4.140
16321W        W83104   6.925   1.806  11.986
16322W        W83105  43.006  12.133   4.241
16323W        W83106  43.057  35.316   2.467
16324W        W83107   8.730  28.885  14.775
16325W        W83108  12.924  12.557  10.265
16326W        W83109  36.882  30.163  12.776
16327W        W83110   7.868   6.315  12.484
16328W        W83111   7.224  27.682   0.026
16329W        W83112  10.899   3.600   0.961
16330W        W83113  32.584   3.701   2.319
16331W        W83114  33.445   8.119  13.938
16332W        W83115  27.718  30.651  14.965
16333W        W83116  43.233  19.293   4.211
16334W        W83117   7.414  35.110  12.000
16335W        W83118  34.927   4.694   1.362
16336W        W83119  18.674  30.433   1.799
16337W        W83120  15.334  12.968   1.903
16338W        W83121  17.653   6.305   0.475
16339W        W83122  20.968  34.863   3.242
16340W        W83123   8.848  12.915   4.684
16341W        W83124   5.785  19.824   3.424
16342W        W83125   8.433  25.768   1.898
16343W        W83126  16.813  32.532   1.640
16344W        W83127  35.369  36.125   3.806
16345W        W83128  27.032  23.113  11.270
16346W        W83129  37.501  27.723   4.716
16347W        W83130  44.475  40.925   1.768
16348W        W83131  34.713   5.878   1.442
16349W        W83132   6.201  36.559  12.039
16350W        W83133   1.069  23.782   3.297
16351W        W83134  22.713   7.219  11.521
16352W        W83135  15.133  15.997   2.594
16353W        W83136  32.601   1.772  11.585
16354W        W83137  43.895  28.181  13.047
16355W        W83138   6.496   1.749  14.535
16356W        W83139  24.672  20.342   3.660
16357W        W83140  26.433  21.005   5.010
16358W        W83141  33.995  33.888  13.876
16359W        W83142  31.247  34.843  12.401
16360W        W83143  27.212   8.956   4.226
16361W        W83144  30.130  28.924  11.203
16362W        W83145  21.245  39.487  13.521
16363W        W83146   6.495  12.839   3.239
16364W        W83147  37.730  42.211  12.937
16365W        W83148  19.134  32.088   3.649
16366W        W83149  26.036   2.541   1.152
16367W        W83150   7.160  11.364  14.870
16368W        W83151   0.805  35.764  13.379
16369W        W83152  14.782   1.785  14.396
16370W        W83153   6.560  15.844  14.859
16371W        W83154   3.770  26.272  12.104
16372W        W83155  15.556  10.234  10.741
16373W        W83156  36.764   0.033  14.030
16374W        W83157   7.855  32.061  11.707
16375W        W83158   8.120   5.350  10.443
16376W        W83159  33.142  18.045  11.637
16377W        W83160  17.190  35.868   1.341
16378W        W83161  38.810   9.429   4.074
16379W        W83162  40.820  11.710  10.729
16380W        W83163  31.695  20.152  11.856
16381W        W83164  40.623  15.933   1.338
16382W        W83165  14.623  31.384  12.059
16383W        W83166  33.965   5.662  10.453
16384W        W83167   8.161   9.877   1.470
16385W        W83168  24.752  40.391   0.815
16386W        W83169  44.681   9.124   5.404
16387W        W83170  10.751   4.379  12.146
16388W        W83171  37.376   8.398  10.484
16389W        W83172  16.311  15.831   1.534
16390W        W83173  16.825   9.849   0.359
16391W        W83174  25.037  23.046   0.488
16392W        W83175  17.185  40.479  12.024
16393W        W83176  33.022   0.246   0.914
16394W        W83177  36.652  42.465  10.852
16395W        W83178   6.672  18.133   4.105
16396W        W83179  41.540   3.333  11.260
16397W        W83180  42.853  30.571   1.298
16398W        W83181  27.138  27.587   2.661
16399W        W83182  33.967  42.758   3.242
16400W        W83183  17.218  32.609  12.564
16401W        W83184  21.229  42.587  10.578
16402W        W83185  31.366  11.076   3.188
16403W        W83186  18.992  29.200   1.848
16404W        W83187  21.690   1.765   2.307
16405W        W83188   4.526  43.432  12.874
16406W        W83189  13.383  22.660   0.273
16407W        W83190  35.792  28.453   3.292
16408W        W83191  21.921  24.453   9.975
16409W        W83192  29.694  33.045  10.913
16410W        W83193  12.352   8.222  13.461
16411W        W83194  44.731  20.156  10.718
16412W        W83195  43.768  29.063   2.663
16413W        W83196  21.720  25.086  14.491
16414W        W83197   2.688  33.366  14.407
16415W        W83198  43.986  26.785  12.117
16416W        W83199  17.301  35.874  13.484
16417W        W83200  10.195  10.840  10.309
16418W        W83201  43.287  30.103  13.206
16419W        W83202  30.064  36.960   0.516
16420W        W83203  37.564  25.189  12.411
16421W        W83204  13.546   4.882   2.370
16422W        W83205   4.370  41.565   0.340
16423W        W83206  21.865  42.589   1.287
16424W        W83207  34.538  25.985   3.718
16425W        W83208   8.177  19.247  13.307
16426W        W83209  38.226  34.593  12.232
16427W        W83210  15.876  33.813  13.275
16428W        W83211  35.156  40.100   1.439
16429W        W83212  41.107  30.281  14.585
16430W        W83213  25.465  34.591  12.873
16431W        W83214  36.539   5.690  11.239
16432W        W83215  17.611  16.107  13.961
16433W        W83216  30.658  43.540   1.153
16434W        W83217  19.546   3.655  11.640
16435W        W83218   5.868   7.361  14.260
16436W        W83219  14.269  10.232   0.298
16437W        W83220  25.186   6.715  12.827
16438W        W83221  18.153  34.053  14.317
16439W        W83222  28.268   9.183  13.249
16440W        W83223  35.013  41.621  12.564
16441W        W83224   2.920  44.210   0.771
16442W        W83225  40.034  44.921   0.879
16443W        W83226  26.506  13.883   1.527
16444W        W83227  36.820  43.381  13.056
16445W        W83228   2.910  25.607   2.412
16446W        W83229  15.250   4.218  14.391
16447W        W83230  12.575  17.228   1.483
16448W        W83231  43.301  36.581   0.500
16449W        W83232  30.972   3.691   3.795
16450W        W83233  20.975  43.678   2.773
16451W        W83234   1.847  42.260   3.959
16452W        W83235  30.545  32.493  13.438
16453W        W83236  17.053  40.231   5.027
16454W        W83237  33.471  29.734  12.553
16455W        W83238  15.485  25.561   0.014
16456W        W83239  38.078  42.912   0.852
16457W        W83240  24.561  16.169   3.449
16458W        W83241  18.515  17.654  11.057
16459W        W83242   0.839  33.983   4.322
16460W        W83243   0.485  41.309   2.301
16461W        W83244  14.121  44.698  14.376
16462W        W83245  20.818  15.888  14.379
16463W        W83246  40.083   7.405  10.929
16464W        W83247   6.227  33.573   1.681
16465W        W83248   1.258  28.101   3.725
16466W        W83249  30.650   8.950   4.088
16467W        W83250  38.884   1.613   3.583
16468W        W83251  19.156  26.668  11.228
16469W        W83252   5.364  30.216  14.054
16470W        W83253  21.833  31.842   4.851
16471W        W83254  14.274  19.580  12.425
16472W        W83255  40.539  30.521   0.364
16473W        W83256  19.322  31.196   3.294
16474W        W83257  19.793  25.319  11.510
16475W        W83258   2.449   5.418   3.328
16476W        W83259  38.895  36.138   0.497
16477W        W83260   4.264  14.571   3.597
16478W        W83261  40.578   1.510  11.136
16479W        W83262  11.412  17.041   0.434
16480W        W83263  26.855   7.856  11.093
16481W        W83264  30.356  21.569  11.904
16482W        W83265  30.722  40.545  13.504
16483W        W83266  12.071  41.692  12.424
16484W        W83267  15.180  25.290   2.715
16485W        W83268  41.877  34.643   4.665
16486W        W83269  42.884  26.817  14.990
16487W        W83270  26.626  29.950   3.122
16488W        W83271  39.788  44.320  14.789
16489W        W83272  43.828  35.404  12.357
16490W        W83273  44.457  21.394   4.378
16491W        W83274   6.758  32.767   0.695
16492W        W83275  35.147  28.129   1.915
16493W        W83276  12.438  11.713   0.480
16494W        W83277  43.004  40.855  12.458
16495W        W83278  12.080  16.774  11.118
16496W        W83279  40.576   9.364  14.980
16497W        W83280   9.987  11.765   2.784
16498W        W83281  12.391  22.703   1.200
16499W        W83282   0.465  21.621  12.046
16500W        W83283  26.627   3.443   5.032
16501W        W83284  25.690   9.893   4.548
16502W        W83285  20.542  39.037  11.813
16503W        W83286  17.368  18.248   3.708
16504W        W83287  18.222  12.874  12.064
16505W        W83288   5.825  33.904   3.657
16506W        W83289  40.135  32.173  12.539
16507W        W83290  42.980  13.309  12.871
16508W        W83291  29.128   0.977   3.693
16509W        W83292   5.570  20.765  12.923
16510W        W83293  25.747   7.730  12.961
16511W        W83294  42.439  37.586  14.815
16512W        W83295   4.417   7.092   0.702
16513W        W83296  15.816   8.805   1.659
16514W        W83297   4.174  19.846  12.596
16515W        W83298  43.822  20.057  12.927
16516W        W83299  44.253  22.026  11.510
16517W        W83300  23.175  44.806   1.748
16518W        W83301  26.090  16.939  12.452
16519W        W83302  16.344  34.347   0.657
16520W        W83303  22.804  25.576   5.581
16521W        W83304  28.191  10.370  12.402
16522W        W83305   7.939  28.532   4.137
16523W        W83306  38.770  15.171   4.958
16524W        W83307  33.413  22.458  10.752
16525W        W83308   6.880  34.404   1.355
16526W        W83309   8.280  24.924   0.009
16527W        W83310  28.965  37.215  12.496
16528W        W83311  39.240  26.139   1.571
16529W        W83312  23.835   3.223  13.750
16530W        W83313  29.645   0.213   2.632
16531W        W83314  34.296   3.914   2.721
16532W        W83315  23.655  19.730   0.336
16533W        W83316  37.475  23.682  10.622
16534W        W83317  41.721  33.586   4.773
16535W        W83318  15.562  21.167   4.683
16536W        W83319  14.800   3.260   3.784
16537W        W83320   4.271   3.699   4.240
16538W        W83321  15.637  17.387  11.496
16539W        W83322  43.347  19.644  12.121
16540W        W83323  43.954   5.755   1.812
16541W        W83324  18.343  41.632   0.512
16542W        W83325  21.731  38.377   4.482
16543W        W83326  12.769   5.820  12.894
16544W        W83327  28.109  23.232   1.726
16545W        W83328   4.394  43.423   1.699
16546W        W83329  30.057   6.266   3.128
16547W        W83330   1.125  25.529  11.155
16548W        W83331  40.064  16.814   4.170
16549W        W83332  19.701  28.790   3.702
16550W        W83333  32.559   0.762   4.503
16551W        W83334   0.401  36.880  10.621
16552W        W83335  19.888   4.855   3.598
16553W        W83336  40.312   0.596  12.877
16554W        W83337  39.695  33.050  10.743
16555W        W83338  23.703  25.522   1.791
16556W        W83339  15.297  41.854   4.059
16557W        W83340  30.618  38.299  10.784
16558W        W83341  39.768  13.739  13.487
16559W        W83342  19.603  12.012  11.108
16560W        W83343  37.414   9.459  11.159
16561W        W83344  21.728   1.908   4.591
16562W        W83345   8.920  23.982   4.201
16563W        W83346  43.938  13.805   0.545
16564W        W83347   3.661  25.029   0.306
16565W        W83348  41.350  16.041  14.779
16566W        W83349  41.443   6.485   1.869
16567W        W83350  16.258   9.267   3.706
16568W        W83351  36.595  43.976   2.897
16569W        W83352  18.358   7.582  10.474
16570W        W83353   3.822  12.407  12.129
16571W        W83354  13.907  39.223  10.613
16572W        W83355  17.217  40.015   1.908
16573W        W83356   3.791   9.208  11.492
16574W        W83357  20.763   3.970   0.983
16575W        W83358  14.315  39.801   2.744
16576W        W83359  31.023  33.498   2.736
16577W        W83360  29.808  27.661   2.874
16578W        W83361  14.808  37.966   4.181
16579W        W83362  32.535  20.964   0.281
16580W        W83363  24.564  24.092   2.013
16581W        W83364  12.840  25.741   1.309
16582W        W83365  37.113  24.503  12.145
16583W        W83366  39.224  24.110  11.199
16584W        W83367   3.868  18.599   3.918
16585W        W83368   9.345  21.688  10.731
16586W        W83369  14.503  20.137  13.087
16587W        W83370  29.579  23.565  12.978
16588W        W83371   5.938  42.871   1.432
16589W        W83372   7.704  26.000   1.487
16590W        W83373  19.249  18.710   4.886
16591W        W83374  40.524   2.843  14.793
16592W        W83375  33.631  17.658   0.449
16593W        W83376  44.543  25.833   1.224
16594W        W83377   2.865   8.838  13.074
16595W        W83378   2.723  30.744  13.365
16596W        W83379  11.807   9.454  14.363
16597W        W83380  32.048  22.531  11.416
16598W        W83381   2.904  36.997   0.790
16599W        W83382  13.802   0.767   2.100
16600W        W83383  16.634   6.258  11.896
16601W        W83384   4.410  15.110   3.654
16602W        W83385   7.444  12.010  11.155
16603W        W83386  21.119   6.385   3.950
16604W        W83387  21.760  41.321  11.557
16605W        W83388  18.106   3.249   3.578
16606W        W83389   1.374  38.045   1.335
16607W        W83390   7.995   3.480  13.752
16608W        W83391   8.680  37.311  12.042
16609W        W83392  22.619  43.819   1.893
16610W        W83393  34.817   7.382   2.324
16611W        W83394  43.748  27.224   2.555
16612W        W83395  43.793  35.596  13.387
16613W        W83396  31.573   7.794   4.387
16614W        W83397  43.569  35.034  10.459
16615W        W83398  21.692  27.438   3.322
16616W        W83399  34.079  42.003   3.678
16617W        W83400  30.989  19.491   3.665
16618W        W83401  27.690  10.762   5.021
16619W        W83402  41.899  30.690   3.222
16620W        W83403  10.748  41.275  11.567
16621W        W83404   9.857  33.903  11.965
16622W        W83405   7.868  26.684  12.649
16623W        W83406   3.303   9.813   0.461
16624W        W83407  30.763  30.521   2.215
16625W        W83408   3.381  19.374  14.221
16626W        W83409  27.568  23.990   4.611
16627W        W83410  25.099  24.641   1.706
16628W        W83411  15.303   7.850   0.325
16629W        W83412  10.797  32.568   0.230
16630W        W83413  44.890   1.036   4.514
16631W        W83414  29.954   3.188   4.186
16632W        W83415  26.701  23.931  10.228
16633W        W83416  19.108  39.297  14.951
16634W        W83417  35.486   3.283   3.765
16635W        W83418  24.193  19.843  13.163
16636W        W83419  37.789  42.406   4.529
16637W        W83420  39.163   7.712   4.192
16638W        W83421  20.701   0.852   9.892
16639W        W83422  33.453  27.999  13.244
16640W        W83423  43.347  14.091  12.507
16641W        W83424  14.792  11.246  14.035
16642W        W83425  36.604  31.390   3.318
16643W        W83426  36.937   8.925   3.774
16644W        W83427  31.216  44.527  11.586
16645W        W83428  18.630  26.735   4.270
16646W        W83429  40.532  13.696   1.424
16647W        W83430  34.176  24.236   1.359
16648W        W83431   0.213  13.979  12.353
16649W        W83432  27.501  37.992  12.049
16650W        W83433  14.438  12.950  11.043
16651W        W83434  34.973  34.176   2.662
16652W        W83435  19.526  40.157   3.033
16653W        W83436  26.120  29.215  13.848
16654W        W83437   0.731  24.532   0.971
16655W        W83438  11.204   3.148   1.812
16656W        W83439  18.797  39.806   0.484
16657W        W83440  39.936  44.791   0.022
16658W        W83441  20.141  38.290   2.785
16659W        W83442  20.690  34.041   3.678
16660W        W83443  41.555  30.598  14.514
16661W        W83444  25.954  21.110   4.884
16662W        W83445   8.664  39.724   0.732
16663W        W83446  20.279  15.623  12.805
16664W        W83447   1.801  25.244   4.205
16665W        W83448  28.714  39.906  10.161
16666W        W83449  16.068  25.775   3.418
16667W        W83450   6.210  29.897  13.948
16668W        W83451  39.077   2.371  14.984
16669W        W83452  44.654  14.541  11.167
16670W        W83453  40.119  40.744   0.912
16671W        W83454   9.732   7.657  13.938
16672W        W83455  24.408  38.597  11.608
16673W        W83456  44.879  41.747  14.580
16674W        W83457  37.034  20.539   0.227
16675W        W83458   4.794  25.014  13.681
16676W        W83459  26.097  38.065   2.366
16677W        W83460  25.122  30.421  12.543
16678W        W83461  18.458  27.092   3.326
16679W        W83462  22.123  27.740  14.101
16680W        W83463  38.576  10.422   0.640
16681W        W83464   3.715  12.836  12.561
16682W        W83465   5.054  32.799  12.056
16683W        W83466  21.838  14.358  13.493
16684W        W83467  30.924  22.694  12.964
16685W        W83468  27.962  29.438  12.491
16686W        W83469  24.066  43.886   0.262
16687W        W83470  22.756  24.171  11.720
16688W        W83471  42.478  21.497  11.511
16689W        W83472   0.231  30.563   4.468
16690W        W83473  37.259  35.496  11.862
16691W        W83474  11.686   9.148   4.093
16692W        W83475   4.066  38.306  11.652
16693W        W83476   0.726  24.350  11.936
16694W        W83477  16.844  10.895   1.809
16695W        W83478  22.746   0.746   5.002
16696W        W83479   2.371  15.242   4.567
16697W        W83480  34.932   3.153  13.383
16698W        W83481   2.437   3.467   4.202
16699W        W83482  21.590  11.446  12.079
16700W        W83483  14.422  19.302   0.003
16701W        W83484  16.249   0.222  11.283
16702W        W83485   9.403  33.527  12.803
16703W        W83486  36.923  22.530   3.522
16704W        W83487  11.604  22.271   4.599
16705W        W83488  36.958  29.466  12.446
16706W        W83489  34.820  15.216   3.584
16707W        W83490  32.213   4.431   1.071
16708W        W83491  30.157  26.765   1.715
16709W        W83492  27.329  43.387   2.957
16710W        W83493  41.905  32.604  12.721
16711W        W83494  13.656  30.570   2.614
16712W        W83495  18.197  16.170  12.503
16713W        W83496   4.327  13.832   1.840
16714W        W83497  30.455   8.385  14.620
16715W        W83498  42.887  44.834   0.871
16716W        W83499  12.839  28.956   4.264
16717W        W83500  24.282   3.884  10.625
16718W        W83501  21.577  35.257   1.383
16719W        W83502  10.871   9.804   9.972
16720W        W83503  40.764  31.234  14.603
16721W        W83504  29.670  40.875  13.410
16722W        W83505  44.786  42.271  14.860
16723W        W83506  16.606   7.653  11.681
16724W        W83507  27.205  23.047  12.245
16725W        W83508  26.559  23.601  14.861
16726W        W83509  37.707  12.785  13.477
16727W        W83510  19.585  42.487  12.916
16728W        W83511  36.168  24.663  11.320
16729W        W83512  40.464  13.010  11.543
16730W        W83513   1.185  35.355  12.469
16731W        W83514   3.960   7.334   3.263
16732W        W83515  15.600  29.712  14.825
16733W        W83516  43.739  16.463   0.805
16734W        W83517   5.776  43.987  13.955
16735W        W83518  28.931  33.621  12.033
16736W        W83519  26.397  29.886  11.609
16737W        W83520  23.214  29.189  11.610
16738W        W83521   0.925  21.081   2.922
16739W        W83522  31.515  38.844   0.446
16740W        W83523  44.334  41.043  10.879
16741W        W83524  44.811  30.533  14.129
16742W        W83525  29.905  18.180  12.200
16743W        W83526  42.897  34.159   2.574
16744W        W83527  25.212   6.697  13.340
16745W        W83528  18.534   5.739   4.144
16746W        W83529   7.434  44.461  12.226
16747W        W83530   2.839  33.895   4.378
16748W        W83531  32.827  42.154  13.637
16749W        W83532   0.827  31.553  14.137
16750W        W83533  29.631   9.459   3.267
16751W        W83534  14.231  34.459   5.441
16752W        W83535  38.108  32.356  10.692
16753W        W83536  21.473  29.079   0.465
16754W        W83537   2.241  41.479  11.536
16755W        W83538  13.197  26.047  12.840
16756W        W83539  26.906  42.278   0.111
16757W        W83540  15.515  29.141   4.183
16758W        W83541  21.519  33.157   1.472
16759W        W83542  12.331   6.314  14.896
16760W        W83543   1.827  26.293  11.070
16761W        W83544  18.582  23.545   4.460
16762W        W83545  36.807  10.215   4.063
16763W        W83546  29.919   1.479   1.885
16764W        W83547   5.118  20.814  13.857
16765W        W83548  44.516  15.152  11.892
16766W        W83549  38.436  39.518  12.962
16767W        W83550   1.886  13.648   1.701
16768W        W83551  21.734  27.456   1.914
16769W        W83552  28.644  38.955  13.988
16770W        W83553  31.512  10.241   3.180
16771W        W83554  24.683   7.665  14.108
16772W        W83555  14.282  10.343  11.001
16773W        W83556  30.076  29.016  12.199
16774W        W83557  39.024  21.607   3.628
16775W        W83558  34.536  32.092   3.227
16776W        W83559  22.184  20.240  13.515
16777W        W83560  29.664   1.928   1.798
16778W        W83561   4.228  11.019  12.850
16779W        W83562  21.462  14.759  14.566
16780W        W83563  23.739  15.795  12.387
16781W        W83564   3.721   0.346   4.037
16782W        W83565  10.662  44.187   3.922
16783W        W83566  31.555  23.430   4.184
16784W        W83567  26.599   1.256  14.756
16785W        W83568  13.087  17.828  13.031
16786W        W83569  26.793   4.471  11.464
16787W        W83570   8.706   3.033   0.170
16788W        W83571   5.870   8.997  12.458
16789W        W83572  28.959  11.995  11.285
16790W        W83573  37.369  23.243   2.374
16791W        W83574  13.727  14.634  12.387
16792W        W83575  34.503  42.471   4.268
16793W        W83576  22.751   9.567   3.317
16794W        W83577  29.372  31.140   2.622
16795W        W83578  18.301  24.016  12.277
16796W        W83579  25.977  30.006   3.698
16797W        W83580  42.329  23.451   0.804
16798W        W83581  18.553  26.666  14.390
16799W        W83582  10.340  28.610   2.268
16800W        W83583   2.934  28.032  11.490
16801W        W83584  39.296   9.281   2.771
16802W        W83585  43.551  31.651   3.150
16803W        W83586  22.708  27.705  11.340
16804W        W83587  12.116  27.901  11.212
16805W        W83588  27.424  44.736  14.483
16806W        W83589  15.584  26.464   0.830
16807W        W83590   0.330  31.302   1.396
16808W        W83591  16.557  27.667  12.950
16809W        W83592  12.847  21.015   3.908
16810W        W83593   5.274  12.612  13.423
16811W        W83594   1.536   9.758  10.616
16812W        W83595  36.396  41.698  11.296
16813W        W83596  14.921  20.816   4.790
16814W        W83597  43.385   4.341  12.839
16815W        W83598   4.308  21.299  14.823
16816W        W83599  33.445  33.916   4.559
16817W        W83600  26.372  27.986  13.759
16818W        W83601  21.867   2.718   1.051
16819W        W83602   2.817  27.936   4.354
16820W        W83603  14.397  39.049  10.715
16821W        W83604  27.929   3.339   3.614
16822W        W83605  11.349  22.570   2.163
16823W        W83606   5.539   8.367   0.816
16824W        W83607  10.801  23.595  11.035
16825W        W83608  42.935   6.959   2.878
16826W        W83609  36.088  22.125  12.195
16827W        W83610  18.111  21.816  11.076
16828W        W83611   0.937  30.410  10.352
16829W        W83612  43.841   1.529  10.708
16830W        W83613  24.046   3.875   2.843
16831W        W83614   7.434   5.497   4.070
16832W        W83615   7.993  24.983   3.238
16833W        W83616  44.477  41.490  13.466
16834W        W83617  11.464  31.652   0.757
16835W        W83618  11.262  17.192   3.610
16836W        W83619  18.703  36.898  11.205
16837W        W83620   0.336  14.414  10.711
16838W        W83621  40.504  42.780  14.968
16839W        W83622   0.924  37.410  12.006
16840W        W83623  38.927  41.981   1.008
16841W        W83624  13.576  28.153   2.762
16842W        W83625  24.969  41.002   1.746
16843W        W83626  25.154  27.095   2.189
16844W        W83627  28.699  38.361  10.470
16845W        W83628  14.109  19.464   4.533
16846W        W83629  18.162  33.919  12.876
16847W        W83630  33.599  32.594   4.088
16848W        W83631   3.972  38.805   2.858
16849W        W83632  30.172  25.642   2.302
16850W        W83633  22.160   1.501   4.030
16851W        W83634  15.867  15.356  13.976
16852W        W83635   3.466  31.368   4.272
16853W        W83636   8.320  22.516   2.298
16854W        W83637  13.762  29.492  13.992
16855W        W83638  13.804  41.779   3.359
16856W        W83639  20.608  37.973  14.922
16857W        W83640  33.861  13.961   2.357
16858W        W83641  36.610  40.018  14.813
16859W        W83642  15.385   5.390   1.355
16860W        W83643  32.892  44.691   0.050
16861W        W83644   3.816  18.333  13.366
16862W        W83645  40.474  37.552  12.005
16863W        W83646  11.724   9.232  14.861
16864W        W83647  33.102  33.589  10.736
16865W        W83648  18.426  26.448   2.930
16866W        W83649  32.627  27.075  12.519
16867W        W83650  22.543  27.472   3.723
16868W        W83651  34.626   3.442   0.336
16869W        W83652  43.547   1.003  12.513
16870W        W83653  16.683   8.716  12.512
16871W        W83654  21.724  41.231   1.451
16872W        W83655  42.497  36.002  13.423
16873W        W83656  13.882   2.881   3.921
16874W        W83657  22.865  40.000  13.868
16875W        W83658   8.756  15.710  11.560
16876W        W83659  18.643  12.184   3.249
16877W        W83660  17.753   0.120   0.396
16878W        W83661  18.199  40.012  11.176
16879W        W83662  23.686  31.701   1.380
16880W        W83663  21.695   3.674   2.750
16881W        W83664  16.612  20.285  12.787
16882W        W83665  37.011  27.210   4.155
16883W        W83666  29.712  41.920   1.960
16884W        W83667  29.691  43.819  14.292
16885W        W83668  44.233  38.502   3.653
16886W        W83669   3.689  18.089   3.701
16887W        W83670  31.291  10.104  10.233
16888W        W83671  39.638  44.774  12.972
16889W        W83672  19.913  22.688   9.694
16890W        W83673  21.362  33.386   4.135
16891W        W83674  13.782  14.211   3.192
16892W        W83675  18.671  21.241  13.837
16893W        W83676  33.548   9.733   1.745
16894W        W83677   0.967  12.802   1.353
16895W        W83678  19.176  22.589   0.680
16896W        W83679  16.570  32.153   1.852
16897W        W83680   5.927  23.257  12.598
16898W        W83681  20.951  18.263   3.343
16899W        W83682  11.776  41.619   1.900
16900W        W83683   8.279   3.228   2.331
16901W        W83684   6.654   2.489   1.250
16902W        W83685  37.932   9.462   0.416
16903W        W83686  40.687  12.078  12.932
16904W        W83687  12.174  37.076  13.271
16905W        W83688  17.310  21.743   1.536
16906W        W83689   7.004  30.116  10.967
16907W        W83690  39.797  24.237   0.304
16908W        W83691   0.452  25.607   3.290
16909W        W83692   6.698   3.191   2.744
16910W        W83693  20.623  29.690  14.101
16911W        W83694  18.947  40.987   1.775
16912W        W83695  27.503   7.782  14.009
16913W        W83696  13.567  34.370   4.214
16914W        W83697  43.018   3.824   0.754
16915W        W83698  39.959  43.416   4.679
16916W        W83699  38.851  22.727  11.077
16917W        W83700  43.497  19.040   1.327
16918W        W83701  12.288  42.383  14.181
16919W        W83702  34.532  16.298  12.095
16920W        W83703  34.392  23.781   1.289
16921W        W83704  23.596   9.804  11.462
16922W        W83705   9.172   3.660   1.382
16923W        W83706   5.243  14.231  11.929
16924W        W83707   2.923  25.669   2.917
16925W        W83708  31.866  35.142   3.021
16926W        W83709  23.034  18.691   4.811
16927W        W83710   1.754  42.533   0.288
16928W        W83711  14.146  27.491   2.401
16929W        W83712  30.697  11.669  10.789
16930W        W83713  14.222  35.647  14.903
16931W        W83714  38.953  26.875   1.799
16932W        W83715  29.895  12.674  14.819
16933W        W83716   1.555  33.307  12.450
16934W        W83717  35.392   0.332   2.071
16935W        W83718  18.436  30.863   4.561
16936W        W83719  18.731  31.783   2.244
16937W        W83720  43.185   0.780   0.329
16938W        W83721  10.539  11.781  13.853
16939W        W83722   9.883  13.867  12.082
16940W        W83723  25.743  43.047   0.460
16941W        W83724  25.124  30.730  13.007
16942W        W83725  35.130   8.232   4.429
16943W        W83726  27.107   8.711  13.968
16944W        W83727   8.414  26.484  14.242
16945W        W83728  39.381  22.944  14.804
16946W        W83729  15.114  29.623   0.818
16947W        W83730  41.240   1.892  14.810
16948W        W83731  18.114  39.280   3.305
16949W        W83732  16.294  39.834  13.108
16950W        W83733  11.449  21.094   3.169
16951W        W83734  27.542  20.487   1.473
16952W        W83735  44.422  36.332   0.291
16953W        W83736  26.184  42.209  13.002
16954W        W83737  37.322  22.866  10.937
16955W        W83738  27.137  26.494   1.954
16956W        W83739  20.206  27.712  12.946
16957W        W83740  43.222  30.912  12.573
16958W        W83741  24.416  11.767   3.223
16959W        W83742  11.307  38.505  11.501
16960W        W83743  11.632   8.167   4.018
16961W        W83744  42.322  30.246  12.928
16962W        W83745  30.432  14.713  13.683
16963W        W83746   5.298  30.976   2.223
16964W        W83747  21.467  14.817   0.446
16965W        W83748  31.627  22.314   0.788
16966W        W83749   3.800  26.061  13.637
16967W        W83750  27.878  25.710  10.943
16968W        W83751  25.746  11.296  12.926
16969W        W83752  31.381  21.449  10.157
16970W        W83753  14.398   2.103  11.060
16971W        W83754  32.047  38.644   0.413
16972W        W83755   1.504  39.970   4.132
16973W        W83756  40.537  32.343  12.000
16974W        W83757  31.958  44.733  11.097
16975W        W83758  35.644  30.894  11.211
16976W        W83759  37.794  10.826  10.746
16977W        W83760  30.614  33.409   5.324
16978W        W83761  20.547  37.263   1.438
16979W        W83762  19.023  30.056  10.457
16980W        W83763  28.092  44.289  12.661
16981W        W83764  14.117  15.127   2.333
16982W        W83765  11.832   1.765   4.894
16983W        W83766   1.026  22.062   2.691
16984W        W83767   5.617  20.088   0.428
16985W        W83768  43.314  33.785  13.412
16986W        W83769  44.325   8.193   2.697
16987W        W83770  24.497  13.220  14.970
16988W        W83771  43.793  23.868  12.540
16989W        W83772   0.517  12.303   2.781
16990W        W83773  31.218  14.345  11.241
16991W        W83774  42.260  29.601   0.410
16992W        W83775  17.727  39.937  10.915
16993W        W83776  17.524  34.816   2.144
16994W        W83777  21.101  31.057   0.247
16995W        W83778  25.224   5.457  10.173
16996W        W83779  40.803  32.587   3.201
16997W        W83780  32.729   4.204   2.787
16998W        W83781   7.120  19.627  12.001
16999W        W83782  25.109   2.518  13.926
17000W        W83783  26.506  24.994  14.839
17001W        W83784  38.428   5.318  12.338
17002W        W83785  36.053  21.424  14.969
17003W        W83786  44.272  21.580  14.971
17004W        W83787  21.569   7.321   3.578
17005W        W83788   7.436  41.980  11.139
17006W        W83789  36.212  24.660  13.010
17007W        W83790   3.263  31.423  10.488
17008W        W83791  36.985  11.182   1.915
17009W        W83792   4.463   1.797  12.441
17010W        W83793   9.593  15.644   2.833
17011W        W83794   8.256   0.574   3.361
17012W        W83795  38.033  15.808   5.158
17013W        W83796  40.749  40.020   2.670
17014W        W83797  11.054  17.690  14.828
17015W        W83798  37.810  26.112  13.484
17016W        W83799   2.211  23.053  12.622
17017W        W83800  28.722  18.330   2.693
17018W        W83801  25.423  35.636  14.816
17019W        W83802  24.931   0.197  10.910
17020W        W83803  37.518  43.950   3.344
17021W        W83804   6.864  25.407  12.790
17022W        W83805  32.991  11.332   1.280
17023W        W83806  24.564   2.999   2.728
17024W        W83807  38.195  19.660   0.916
17025W        W83808  23.215  37.779   0.586
17026W        W83809   0.452  20.305  12.218
17027W        W83810  21.417  26.700  12.862
17028W        W83811  14.265  10.745   1.342
17029W        W83812  28.653  25.406  11.917
17030W        W83813  41.707  14.117   3.959
17031W        W83814  11.862  35.627  12.876
17032W        W83815  39.442   3.910  10.680
17033W        W83816  31.063  12.866   0.306
17034W        W83817  20.803  35.636  13.517
17035W        W83818  43.848  21.281  11.604
17036W        W83819  33.683  20.674  12.891
17037W        W83820  35.490  27.293  13.202
17038W        W83821   9.430  33.819  14.935
17039W        W83822  12.107  34.069  13.862
17040W        W83823   5.130   1.194  12.085
17041W        W83824  20.600  19.891  14.504
17042W        W83825  20.102   9.120   3.516
17043W        W83826  42.401  29.145   3.626
17044W        W83827  12.854  17.664   1.212
17045W        W83828  41.010  28.970   1.283
17046W        W83829  26.374  17.436   4.032
17047W        W83830  41.064   9.654  10.842
17048W        W83831  30.396  32.504   0.336
17049W        W83832  27.114  39.685  12.540
17050W        W83833  27.678  17.276   3.735
17051W        W83834   7.148  22.073   0.347
17052W        W83835  21.128  17.613   1.328
17053W        W83836  19.714   9.262   0.335
17054W        W83837  19.617  23.606   0.837
17055W        W83838  11.274  31.630  12.873
17056W        W83839  19.825  10.800   2.751
17057W        W83840   7.390  42.335   2.213
17058W        W83841  15.165  29.128   2.223
17059W        W83842  19.306  39.305  13.090
17060W        W83843   6.770  23.651  13.045
17061W        W83844  21.674  25.923   3.675
17062W        W83845   3.923  32.884   0.042
17063W        W83846  14.735  31.988   0.656
17064W        W83847  36.926  28.597  13.488
17065W        W83848  16.585  28.633   2.833
17066W        W83849  14.594  18.660  11.964
17067W        W83850  19.673  27.486  13.348
17068W        W83851  24.618  44.746  14.431
17069W        W83852  25.227  11.326  10.780
17070W        W83853  25.655  16.262   0.447
17071W        W83854  41.504  44.218   0.398
17072W        W83855  31.642   8.280  14.963
17073W        W83856   3.657  39.925  12.956
17074W        W83857  29.014  13.644  10.934
17075W        W83858  30.179  38.579  10.862
17076W        W83859  18.072  38.390   0.770
17077W        W83860  17.698   2.716  11.147
17078W        W83861  25.088  23.677   4.621
17079W        W83862  40.701   4.303   3.786
17080W        W83863  14.755  28.107  11.625
17081W        W83864  31.053  18.294   1.753
17082W        W83865  21.381  37.467  11.989
17083W        W83866   0.912  28.711  11.505
17084W        W83867  44.897  33.895   2.202
17085W        W83868   1.040  33.061   4.608
17086W        W83869  44.565  34.599  14.927
17087W        W83870   7.258   0.489  14.381
17088W        W83871  21.466  10.375   2.281
17089W        W83872  11.361  39.452   1.639
17090W        W83873  30.882   7.200  12.973
17091W        W83874  40.108  26.688  13.994
17092W        W83875  15.924   9.080  13.299
17093W        W83876  12.750  43.758  11.943
17094W        W83877  28.058  34.057   3.898
17095W        W83878  17.108  26.506  11.963
17096W        W83879   6.283  41.972   4.102
17097W        W83880   1.516  31.160  11.611
17098W        W83881  23.364  26.535   1.662
17099W        W83882  40.582  28.531  14.153
17100W        W83883  41.822  40.951   2.795
17101W        W83884  20.052  23.014   2.617
17102W        W83885   9.969  40.446  11.104
17103W        W83886  35.773  16.337  13.038
17104W        W83887  15.343  26.650   1.288
17105W        W83888  23.085  31.740   4.545
17106W        W83889  43.094   0.745  12.460
17107W        W83890   4.887  21.046   1.805
17108W        W83891  25.109  12.165  10.668
17109W        W83892  35.002  31.513  11.257
17110W        W83893  44.284  20.543  13.334
17111W        W83894  25.808  35.845  10.310
17112W        W83895  36.158  14.582   3.531
17113W        W83896  17.314  33.488   0.265
17114W        W83897  29.985  44.852  11.269
17115W        W83898  35.266  38.515  12.615
17116W        W83899  17.742  35.853   0.229
17117W        W83900  38.725  39.530  13.829
17118W        W83901  25.607  13.102   2.404
17119W        W83902  10.599  24.605   0.821
17120W        W83903   5.393  29.200  12.533
17121W        W83904  40.305   9.362   2.696
17122W        W83905  13.883  29.669   0.348
17123W        W83906  10.297  10.774   2.068
17124W        W83907   8.194  43.235   0.478
17125W        W83908  37.029  21.454   3.852
17126W        W83909   4.873  16.092  13.319
17127W        W83910  21.121  38.428  11.878
17128W        W83911  13.720  43.685   3.237
17129W        W83912   7.567  35.367   1.021
17130W        W83913  13.351  43.402  14.893
17131W        W83914   6.744   3.877  13.041
17132W        W83915  44.304  38.025   4.597
17133W        W83916  43.318   7.248   2.684
17134W        W83917  18.195   3.311   4.485
17135W        W83918  28.262  40.968   2.776
17136W        W83919  18.629  34.338   0.174
17137W        W83920  12.228  43.538  10.528
17138W        W83921  10.764  39.870   0.888
17139W        W83922  22.611   3.210  12.026
17140W        W83923  44.102  21.006   0.364
17141W        W83924  28.163  18.496   3.254
17142W        W83925  24.718   1.699  10.297
17143W        W83926  17.767   3.239   0.437
17144W        W83927  18.732   8.201   2.969
17145W        W83928   6.905  18.775  14.552
17146W        W83929  35.478  14.534   0.448
17147W        W83930  26.568  11.079   4.625
17148W        W83931  38.742  12.085   2.342
17149W        W83932  24.495  43.417   4.249
17150W        W83933  22.048  16.257  10.255
17151W        W83934   5.901  13.276   1.979
17152W        W83935  35.900  34.563   2.731
17153W        W83936  10.648  13.635  14.979
17154W        W83937  19.165  38.253  14.759
17155W        W83938  11.668  29.909   0.018
17156W        W83939  42.771  20.677  10.714
17157W        W83940  32.828   8.791   2.229
17158W        W83941  36.392  10.649   0.882
17159W        W83942   8.393   7.048  12.673
17160W        W83943  31.001  11.927  14.055
17161W        W83944  30.590  23.029  12.072
17162W        W83945  28.574   8.133   3.760
17163W        W83946  33.080  27.001   1.342
17164W        W83947  36.128  44.075   2.077
17165W        W83948  15.769   2.269  14.382
17166W        W83949   0.767   4.231   2.847
17167W        W83950  41.482  41.873   2.424
17168W        W83951  30.914  29.774  13.015
17169W        W83952   0.176   7.437   3.690
17170W        W83953  36.858  30.261   4.475
17171W        W83954  12.809  20.013  13.346
17172W        W83955  35.554  38.537  10.737
17173W        W83956  26.462  29.211  10.667
17174W        W83957  16.688   9.582   4.149
17175W        W83958  36.070  16.627   2.718
17176W        W83959   4.716  42.246  13.958
17177W        W83960  43.343  41.014   2.364
17178W        W83961   2.287   0.789   0.353
17179W        W83962  40.001   3.513   3.209
17180W        W83963   8.338  16.311   1.346
17181W        W83964  29.554   9.794   1.421
17182W        W83965  27.915  22.758   2.652
17183W        W83966  10.325   2.999  13.332
17184W        W83967  36.659  37.937  13.772
17185W        W83968  37.987   8.753   1.403
17186W        W83969  34.804   0.489   4.689
17187W        W83970  33.395   4.929  13.817
17188W        W83971   7.592   1.264   0.797
17189W        W83972  44.297  33.122  10.547
17190W        W83973  44.829  26.628  10.880
17191W        W83974  25.113   1.220   2.860
17192W        W83975   2.078   2.823   0.421
17193W        W83976   8.666  19.181  11.187
17194W        W83977  22.232  16.019   3.262
17195W        W83978  13.737  33.825  12.629
17196W        W83979  22.090  23.044   4.104
17197W        W83980  44.340  25.970  14.258
17198W        W83981  35.069  38.536  13.324
17199W        W83982  24.892   5.370  13.139
17200W        W83983   1.180  19.930  13.498
17201W        W83984  40.555  36.231  10.774
17202W        W83985   8.745   7.141  11.372
17203W        W83986  12.033  40.379   2.908
17204W        W83987  29.562  41.560   3.109
17205W        W83988  41.162   0.550   2.832
17206W        W83989  27.678   0.182  14.583
17207W        W83990   8.406  13.822   1.121
17208W        W83991  24.131  27.157   1.323
17209W        W83992  40.509  22.216  10.743
17210W        W83993  12.666   1.990  13.881
17211W        W83994   8.340   7.728   0.024
17212W        W83995   8.083  24.268   0.950
17213W        W83996   9.720  10.787   2.747
17214W        W83997  20.559   8.689  10.649
17215W        W83998  19.511  28.161  14.536
17216W        W83999  35.577  30.401   4.177
17217W        W84000  24.511   9.225  13.531
17218W        W84001  12.881  22.620  13.084
17219W        W84002  37.985  35.495   2.724
17220W        W84003  10.623  43.523  11.123
17221W        W84004  43.855  36.042   3.624
17222W        W84005  35.555  16.581   4.845
17223W        W84006  18.520  19.672   1.311
17224W        W84007  11.365  33.190   0.823
17225W        W84008  32.280   2.857  12.647
17226W        W84009  13.791  11.248  14.544
17227W        W84010   1.119  28.354   5.082
17228W        W84011   7.282   6.406  13.027
17229W        W84012  15.886  37.518   0.744
17230W        W84013  43.451  21.586   1.871
17231W        W84014   1.398  17.285   1.394
17232W        W84015  31.278  10.602   2.177
17233W        W84016  44.707  33.596   1.830
17234W        W84017  21.536   0.827   3.125
17235W        W84018   9.619   8.389   2.902
17236W        W84019  13.670  28.626  13.479
17237W        W84020  38.566  16.385   4.207
17238W        W84021  40.860  12.629   5.248
17239W        W84022   8.650   6.786   0.836
17240W        W84023  40.423  28.233   1.200
17241W        W84024   8.882  21.273  11.446
17242W        W84025   1.946  29.113  13.479
17243W        W84026  38.825  27.988   3.445
17244W        W84027  32.514   8.764  10.692
17245W        W84028  29.883   7.345  11.116
17246W        W84029  41.669  27.966   2.356
17247W        W84030  35.521  23.172   3.976
17248W        W84031  28.095  44.814  13.457
17249W        W84032  15.254  16.524  10.612
17250W        W84033  43.035  21.233   4.663
17251W        W84034  28.591  41.317  14.999
17252W        W84035  44.247  27.348  11.222
17253W        W84036   1.556  22.424   1.947
17254W        W84037  28.121  36.315   4.122
17255W        W84038  38.704  43.521   3.381
17256W        W84039  27.160  22.586   0.153
17257W        W84040  33.479  34.910  13.133
17258W        W84041  26.302  39.900  11.620
17259W        W84042  13.940  31.128  12.684
17260W        W84043  25.084  30.211   3.666
17261W        W84044   6.519   8.690   1.810
17262W        W84045  36.908  39.678   1.591
17263W        W84046  37.079  41.070  10.766
17264W        W84047  31.341   4.841  12.488
17265W        W84048  23.100   9.121  13.554
17266W        W84049   2.783  16.004  14.941
17267W        W84050   6.402  33.129  13.135
17268W        W84051  17.353  39.035  12.935
17269W        W84052   2.804  11.391  13.827
17270W        W84053  12.150   6.750  14.649
17271W        W84054  19.272  24.636  11.678
17272W        W84055  35.952  38.941  14.306
17273W        W84056   0.865  41.946  12.387
17274W        W84057   9.282  20.498  14.451
17275W        W84058  35.571  22.009   2.229
17276W        W84059  11.183  34.127  13.573
17277W        W84060  18.523   1.823   2.004
17278W        W84061  18.995   0.312   1.508
17279W        W84062   8.801   7.295   2.043
17280W        W84063  25.940  43.547  11.094
17281W        W84064  28.505   8.819   4.026
17282W        W84065  42.895  44.790   4.690
17283W        W84066  14.847   7.390  10.481
17284W        W84067  12.112  23.000  10.979
17285W        W84068  37.012  17.045   2.269
17286W        W84069  34.854  30.387   1.213
17287W        W84070   6.958  26.658  14.020
17288W        W84071   4.863  31.643   2.701
17289W        W84072  35.748   5.402  13.489
17290W        W84073   4.615  29.240  11.539
17291W        W84074   8.689  21.107   0.568
17292W        W84075  10.187  31.441  14.351
17293W        W84076  10.568  15.674   0.700
17294W        W84077  44.449   4.643   2.338
17295W        W84078   4.414  21.244   1.851
17296W        W84079  22.295  25.771  14.051
17297W        W84080  16.624  40.841   1.777
17298W        W84081   2.247  10.361  11.672
17299W        W84082  42.909  41.112   4.888
17300W        W84083   6.179   1.898  11.937
17301W        W84084   8.271   0.684   1.278
17302W        W84085  26.699  17.541   4.430
17303W        W84086  30.389   2.427  13.779
17304W        W84087  16.166  19.739   2.434
17305W        W84088  22.361  44.463   0.693
17306W        W84089  23.600  31.857   1.884
17307W        W84090  23.113  41.003  12.471
17308W        W84091   8.894  24.152  12.425
17309W        W84092   6.104  20.638  10.419
17310W        W84093   2.172  14.189  12.405
17311W        W84094  30.941   5.631   3.898
17312W        W84095  30.911  36.832  12.427
17313W        W84096   1.650  36.174  11.874
17314W        W84097  26.884  32.691  12.502
17315W        W84098   7.394  26.584  11.214
17316W        W84099  38.286  19.181  14.781
17317W        W84100  35.655  12.658  14.319
17318W        W84101  39.949   2.395   4.174
17319W        W84102   4.401  41.500  14.561
17320W        W84103  43.518  28.324   3.601
17321W        W84104  23.087  17.107   3.163
17322W        W84105  15.058  11.770  11.495
17323W        W84106  19.694  37.959   4.172
17324W        W84107  41.063  27.730   3.072
17325W        W84108  33.684  33.512  14.885
17326W        W84109  31.931  27.765   2.703
17327W        W84110  32.353  41.799  10.979
17328W        W84111  27.875  26.115   2.261
17329W        W84112  10.178   4.987   3.364
17330W        W84113  17.770  34.571   1.611
17331W        W84114  23.731   5.758  13.170
17332W        W84115   7.279  14.156   3.904
17333W        W84116  24.557  20.979   4.939
17334W        W84117  20.492  26.616   3.876
17335W        W84118   1.792   5.745  14.681
17336W        W84119  12.573  25.598  11.231
17337W        W84120   7.923  37.648   1.768
17338W        W84121  36.164  43.274  10.868
17339W        W84122  41.473   0.450  14.790
17340W        W84123  27.598   7.114  12.992
17341W        W84124  13.772  35.682  12.954
17342W        W84125  24.676  37.063  10.436
17343W        W84126   0.390  28.660  13.953
17344W        W84127  38.592  18.106   3.227
17345W        W84128  33.091  30.580   1.023
17346W        W84129  21.254  38.439  11.378
17347W        W84130  31.881  38.081   3.692
17348W        W84131  11.731  12.689   0.505
17349W        W84132   0.137  24.656  12.553
17350W        W84133  21.242  35.117   3.603
17351W        W84134   6.476  15.209   4.582
17352W        W84135  36.624  24.292  10.504
17353W        W84136  29.565  11.544   3.223
17354W        W84137  41.258  15.707  11.049
17355W        W84138  24.809   4.175  12.475
17356W        W84139  15.049  24.487  12.008
17357W        W84140  25.723  15.565   3.270
17358W        W84141  36.437   4.873  11.545
17359W        W84142  13.405   4.116  14.890
17360W        W84143  42.829   6.901   3.688
17361W        W84144   3.200  38.810  14.575
17362W        W84145   1.947  28.032  13.478
17363W        W84146  23.330   3.754   3.621
17364W        W84147  13.186  18.106  11.496
17365W        W84148  18.939  10.542  11.087
17366W        W84149  12.513   6.152   0.470
17367W        W84150  16.338  38.840  12.155
17368W        W84151   6.809  43.535   4.556
17369W        W84152   6.540  37.412  12.872
17370W        W84153   3.362  40.293  12.017
17371W        W84154  39.376  29.179   1.736
17372W        W84155  10.324  30.998   0.245
17373W        W84156  35.861  39.717  10.807
17374W        W84157  28.974  40.183   3.190
17375W        W84158  39.941  32.349   1.601
17376W        W84159   4.732   8.716   1.063
17377W        W84160  25.486   3.902   0.923
17378W        W84161   4.757  26.282  11.689
17379W        W84162   9.661  40.299   2.656
17380W        W84163  36.883   1.683   2.739
17381W        W84164  34.457  43.046   1.425
17382W        W84165  21.088  32.107   0.254
17383W        W84166  23.566  32.069  13.521
17384W        W84167  33.670   9.100  14.848
17385W        W84168  30.575  27.028   3.874
17386W        W84169  12.054   6.971   2.300
17387W        W84170  42.037  43.343  12.130
17388W        W84171   2.230  44.284  12.149
17389W        W84172   3.947  35.298   3.274
17390W        W84173  14.521  26.480  12.207
17391W        W84174  36.627  14.444   3.679
17392W        W84175  27.016  41.155  14.401
17393W        W84176  26.750  26.102   1.899
17394W        W84177  22.633  35.971   0.403
17395W        W84178  25.697   6.540   4.179
17396W        W84179  40.103  21.251   1.762
17397W        W84180  23.737  33.940  14.333
17398W        W84181   5.663  29.883  12.016
17399W        W84182  29.289  42.265  10.263
17400W        W84183  33.896   3.708   4.648
17401W        W84184  19.176   1.812   5.236
17402W        W84185   2.952  38.546  13.910
17403W        W84186   7.670  29.305  13.639
17404W        W84187  18.425   1.379   2.631
17405W        W84188  42.633  10.521   1.397
17406W        W84189  39.344  12.818   3.288
17407W        W84190  16.793  29.584  11.248
17408W        W84191  41.251  37.807   4.704
17409W        W84192  26.936  44.887  14.401
17410W        W84193  10.803  12.686   0.033
17411W        W84194  13.608  13.586  12.655
17412W        W84195  27.719  39.575   2.731
17413W        W84196  11.421  12.425  14.391
17414W        W84197  34.996  33.918  10.718
17415W        W84198  35.474  44.699  12.988
17416W        W84199  30.438   2.223  13.288
17417W        W84200  38.609  25.155   3.245
17418W        W84201  27.084  10.317   2.016
17419W        W84202  22.732  29.960  11.880
17420W        W84203  24.803  19.562   2.722
17421W        W84204  39.099  26.556  11.909
17422W        W84205  14.843  31.129   2.288
17423W        W84206  38.572   7.233   0.156
17424W        W84207  42.083  14.313   2.667
17425W        W84208  26.206  30.914   1.866
17426W        W84209  26.274  33.213   2.104
17427W        W84210   5.818  44.243  13.523
17428W        W84211   6.897  34.831  11.282
17429W        W84212  12.356  21.608  11.921
17430W        W84213  38.174  32.875   2.802
17431W        W84214   4.378  39.792  13.567
17432W        W84215   1.006   3.418   1.516
17433W        W84216  41.517  34.693  11.505
17434W        W84217  37.909  36.817   3.701
17435W        W84218   9.390   6.471  11.580
17436W        W84219  29.979   3.543  12.602
17437W        W84220  33.113  22.235  12.891
17438W        W84221  21.061  10.752  13.372
17439W        W84222   0.394  39.369  13.971
17440W        W84223  34.801  43.417  11.056
17441W        W84224  38.853   6.868   0.999
17442W        W84225  30.849  43.843   2.294
17443W        W84226  42.042  23.575  11.302
17444W        W84227  12.750  21.951  11.947
17445W        W84228  39.291  32.384  11.765
17446W        W84229   5.707  20.051  11.996
17447W        W84230  25.282  13.846   4.165
17448W        W84231  37.609   4.164  14.985
17449W        W84232   6.117   5.909  12.056
17450W        W84233  42.392  24.043  12.422
17451W        W84234  23.551  23.920  13.933
17452W        W84235  10.707  34.540  10.421
17453W        W84236  12.305  26.654   4.776
17454W        W84237  25.699  34.410   2.223
17455W        W84238  35.050  29.518  13.265
17456W        W84239   2.288  30.711   2.220
17457W        W84240  41.388   0.732   2.202
17458W        W84241  12.419  35.062   2.151
17459W        W84242  37.915  24.922   0.888
17460W        W84243  10.380  39.503   2.748
17461W        W84244  38.407  36.668   2.826
17462W        W84245  29.519  15.707  14.971
17463W        W84246  23.569  21.807  11.732
17464W        W84247  11.312   3.302   3.097
17465W        W84248  24.214  26.653   3.688
17466W        W84249  26.155   4.369   2.433
17467W        W84250  17.472  27.781   3.251
17468W        W84251  12.041  20.356  13.651
17469W        W84252  28.092  30.188  13.055
17470W        W84253  14.869  36.571   3.272
17471W        W84254  19.737   5.870  13.387
17472W        W84255  36.142  28.504   0.812
17473W        W84256  44.269  18.529  11.875
17474W        W84257  14.079  34.984   1.667
17475W        W84258  15.985  16.832   4.441
17476W        W84259  17.570  35.622  11.864
17477W        W84260  19.099  31.912   4.468
17478W        W84261  18.751  25.905  14.091
17479W        W84262  17.608  15.449   3.839
17480W        W84263  28.659  12.894   2.743
17481W        W84264  42.308  35.075  13.924
17482W        W84265  33.341  18.335  14.855
17483W        W84266   0.277  27.176   4.454
17484W        W84267  38.998  40.892  11.452
17485W        W84268  30.019  19.022  11.611
17486W        W84269  26.984  34.628  14.906
17487W        W84270  18.714  28.439   3.622
17488W        W84271  22.640   1.811  10.823
17489W        W84272  13.401  12.571  12.566
17490W        W84273  20.220   1.187  13.138
17491W        W84274  32.061  12.853  10.231
17492W        W84275  29.607  17.254   0.738
17493W        W84276  38.776   4.965   0.971
17494W        W84277  18.502  37.267  10.433
17495W        W84278  37.598  15.749  14.910
17496W        W84279  22.660   1.252  14.040
17497W        W84280  28.700  22.767  11.221
17498W        W84281  33.016   5.090  12.850
17499W        W84282  15.179  40.474  11.085
17500W        W84283   9.283  40.996   1.752
17501W        W84284  36.078  12.341  12.636
17502W        W84285  27.230  21.434  12.497
17503W        W84286  25.027  36.017  13.820
17504W        W84287  19.064  21.514   0.839
17505W        W84288  24.135  22.919  10.009
17506W        W84289  28.390  44.474  14.435
17507W        W84290  33.406  33.371  13.399
17508W        W84291  16.653  32.500  11.833
17509W        W84292  19.611   2.260  14.323
17510W        W84293  17.576  44.917  13.028
17511W        W84294  11.638  27.706  12.478
17512W        W84295  21.952  26.230  10.724
17513W        W84296  30.954  37.575  10.384
17514W        W84297  20.154  13.643  14.467
17515W        W84298   7.148  25.697   2.307
17516W        W84299  38.945  23.618   1.679
17517W        W84300  42.684  43.819   2.061
17518W        W84301   8.933  37.748   0.689
17519W        W84302   9.295  26.415   0.949
17520W        W84303  24.746   2.843  13.803
17521W        W84304  44.397  12.817   3.783
17522W        W84305  10.347  30.267  12.037
17523W        W84306  35.856  42.619   1.987
17524W        W84307   8.413  17.715   4.100
17525W        W84308  17.564   5.358  10.673
17526W        W84309  29.267  30.517   2.866
17527W        W84310   5.159  18.105  11.196
17528W        W84311  41.023  19.730   4.684
17529W        W84312  21.478  43.073  14.450
17530W        W84313  41.110  27.893   2.592
17531W        W84314  24.264  15.755   4.612
17532W        W84315  15.117  40.565   1.842
17533W        W84316   7.578  32.329  13.991
17534W        W84317  27.811   3.773  14.482
17535W        W84318   3.872  42.186   2.762
17536W        W84319   3.130  15.762   1.041
17537W        W84320  24.744  21.514   2.767
17538W        W84321   9.350  40.134  12.908
17539W        W84322  38.118   2.526   2.205
17540W        W84323  11.896  19.740  14.286
17541W        W84324  29.142  28.364  14.074
17542W        W84325  20.107  26.612  14.469
17543W        W84326   0.743   9.667  14.025
17544W        W84327  38.481  42.563  11.880
17545W        W84328  42.465  32.208  12.950
17546W        W84329  44.217  28.009  14.487
17547W        W84330  30.414  23.417   4.742
17548W        W84331  16.840  22.510   2.244
17549W        W84332  25.137  20.244   3.340
17550W        W84333  34.727  35.095   2.233
17551W        W84334  25.080  19.811   2.319
17552W        W84335  30.494  37.366   2.871
17553W        W84336  31.159  21.712   0.388
17554W        W84337  39.507   4.416   3.185
17555W        W84338  40.396  38.796   0.042
17556W        W84339  41.058  26.432   2.890
17557W        W84340  43.808  32.483   0.773
17558W        W84341  13.614  18.259   0.283
17559W        W84342   4.069  19.728   0.425
17560W        W84343   7.394  40.593  13.458
17561W        W84344  23.243   7.657   1.690
17562W        W84345  18.716  44.573   0.922
17563W        W84346  14.654  44.224   1.417
17564W        W84347  23.445   6.174  12.354
17565W        W84348  37.448   4.183   0.473
17566W        W84349   4.301  18.528   4.206
17567W        W84350  16.032  44.054   0.959
17568W        W84351  24.631   0.332   5.062
17569W        W84352  23.070  31.578  12.012
17570W        W84353  30.001  38.962   2.434
17571W        W84354  15.898  19.294  11.240
17572W        W84355  25.407   9.145  14.122
17573W        W84356   0.551  11.790   4.556
17574W        W84357  30.138  14.815  11.018
17575W        W84358  16.771  40.011  14.996
17576W        W84359  18.563  35.900  12.531
17577W        W84360  10.144  16.556  12.230
17578W        W84361   5.453   6.876  12.906
17579W        W84362  25.061   3.305  13.522
17580W        W84363  30.011  26.764   4.571
17581W        W84364   4.859  10.602   2.769
17582W        W84365  41.761   2.724   4.207
17583W        W84366  17.626  14.073  11.981
17584W        W84367  22.200   3.933   0.235
17585W        W84368  39.678   1.928   3.371
17586W        W84369   2.049  29.684  12.474
17587W        W84370  19.392  23.955  10.327
17588W        W84371   1.663  35.622  12.044
17589W        W84372   3.019  26.083   2.591
17590W        W84373   0.963  29.475  14.004
17591W        W84374  34.942   7.935   1.399
17592W        W84375   5.716  23.736  13.842
17593W        W84376   0.736   5.189  11.272
17594W        W84377  24.895  16.076  11.921
17595W        W84378  24.129  13.096   3.656
17596W        W84379  39.085  40.752  13.783
17597W        W84380  39.513  25.052  14.294
17598W        W84381   9.751   1.700   3.035
17599W        W84382  38.282   8.126   4.200
17600W        W84383  23.821  43.057   2.798
17601W        W84384  44.934  35.683   2.890
17602W        W84385  37.602   4.322  12.637
17603W        W84386   0.261  22.928  11.500
17604W        W84387  36.444   3.953   3.699
17605W        W84388  11.956  11.740  11.030
17606W        W84389  14.522   5.090  13.948
17607W        W84390  36.470   4.268   0.953
17608W        W84391   1.883  44.968   3.205
17609W        W84392  44.265   6.299   0.294
17610W        W84393  41.515  35.929  13.376
17611W        W84394  23.638  25.437  13.079
17612W        W84395  21.237  32.956  12.163
17613W        W84396   6.712  25.277  11.197
17614W        W84397  30.875   7.355   3.721
17615W        W84398  17.001  41.874  10.996
17616W        W84399   5.200   9.650  12.773
17617W        W84400  20.788   3.639  12.576
17618W        W84401   6.572  17.650   0.021
17619W        W84402  44.562  19.314   1.350
17620W        W84403   5.245  40.267   3.175
17621W        W84404  38.514  17.957   1.190
17622W        W84405  43.141  26.505   5.099
17623W        W84406  40.041  17.677  11.107
17624W        W84407  28.464  18.874  11.519
17625W        W84408  17.952  43.898   3.102
17626W        W84409  18.780  28.181   4.080
17627W        W84410  37.974  16.309  14.235
17628W        W84411  16.693  17.741  12.856
17629W        W84412  40.405  38.261  12.896
17630W        W84413  40.031  38.831  10.732
17631W        W84414  22.632  23.954  13.860
17632W        W84415  39.806  40.536   3.564
17633W        W84416  36.542  11.304   2.145
17634W        W84417  24.050  28.176   2.256
17635W        W84418  31.880  24.883  11.892
17636W        W84419  25.615  15.712  13.513
17637W        W84420   8.052  34.892  14.426
17638W        W84421  21.459  20.746   3.280
17639W        W84422  39.426  27.152   4.319
17640W        W84423  14.716  31.104   4.000
17641W        W84424  32.035  16.795   2.954
17642W        W84425  17.249  37.424  12.972
17643W        W84426   6.782  30.443  14.386
17644W        W84427  36.809   5.234   3.655
17645W        W84428  11.612  30.529  13.596
17646W        W84429  34.402  22.761   2.321
17647W        W84430   5.443  12.468   2.267
17648W        W84431  39.826  43.763  12.064
17649W        W84432  11.388  16.618  13.816
17650W        W84433  32.551  34.544  10.568
17651W        W84434   1.692   7.289  11.397
17652W        W84435  30.117  40.075  11.885
17653W        W84436   5.810  33.395   4.859
17654W        W84437  34.906  26.931   0.486
17655W        W84438  13.143  27.107   1.157
17656W        W84439   3.171  28.983  14.963
17657W        W84440   1.085  36.864   2.591
17658W        W84441   5.195  40.096   3.667
17659W        W84442  19.094  34.396  12.398
17660W        W84443  21.510  39.750  10.781
17661W        W84444  21.306  10.337  12.298
17662W        W84445   9.891  18.883  13.507
17663W        W84446  28.721  17.999  13.054
17664W        W84447   0.211  42.886  13.102
17665W        W84448  21.286  40.376  11.320
17666W        W84449  35.660  31.637  10.738
17667W        W84450  11.721   3.409  14.264
17668W        W84451   0.541  27.849   0.471
17669W        W84452  39.403   0.887  10.788
17670W        W84453  43.990  19.281   2.276
17671W        W84454   8.704  20.178  13.933
17672W        W84455  12.458  12.356  14.385
17673W        W84456  23.060  44.764  12.972
17674W        W84457  27.571  41.113  12.465
17675W        W84458  30.121  15.311   1.863
17676W        W84459   9.168   1.363  12.086
17677W        W84460  34.943  38.806   4.023
17678W        W84461  21.711   4.465   3.282
17679W        W84462  10.657   5.683  13.110
17680W        W84463  20.524  44.597   0.487
17681W        W84464   6.218  11.303   1.714
17682W        W84465  31.898  10.217  14.358
17683W        W84466  24.307   8.837  12.831
17684W        W84467  14.270  39.977   3.235
17685W        W84468  20.177  30.312   4.452
17686W        W84469   6.914   5.806  10.774
17687W        W84470  38.012  28.651   3.840
17688W        W84471  10.735  23.827  12.007
17689W        W84472  23.693  17.161   2.834
17690W        W84473   0.476  15.752   1.052
17691W        W84474   6.558   8.203   0.993
17692W        W84475  27.602   0.169   0.912
17693W        W84476   8.608   5.690   4.718
17694W        W84477   8.185  17.456  10.813
17695W        W84478  18.883  40.517   1.553
17696W        W84479  41.114  27.982  12.445
17697W        W84480  22.981   2.787   3.747
17698W        W84481  29.564   7.823  13.008
17699W        W84482  26.093  27.667   3.134
17700W        W84483  43.822  38.980  13.585
17701W        W84484  21.678  24.025   0.128
17702W        W84485  19.162   5.218   3.151
17703W        W84486   1.445  28.580   3.683
17704W        W84487  23.744  19.708  13.942
17705W        W84488  34.438  25.091   4.634
17706W        W84489  34.816   9.196  14.222
17707W        W84490  11.223  27.674   2.407
17708W        W84491  36.529  40.488   1.822
17709W        W84492  29.494   6.905   0.868
17710W        W84493  27.031  14.868   3.100
17711W        W84494   0.451  32.813  13.670
17712W        W84495  12.341  13.908  10.958
17713W        W84496  26.000   7.849  14.873
17714W        W84497  39.630  25.464  13.780
17715W        W84498   9.471  28.664   1.871
17716W        W84499  42.471  21.826  13.350
17717W        W84500  40.879   4.176  12.091
17718W        W84501  22.024  11.680  14.404
17719W        W84502  15.368  13.271  12.213
17720W        W84503  32.085  17.578  11.954
17721W        W84504  23.588   5.194   3.245
17722W        W84505   4.262  44.555   2.660
17723W        W84506  27.243   3.224   3.053
17724W        W84507  36.149   8.015   3.594
17725W        W84508  33.074  28.263   3.757
17726W        W84509  20.936  29.117   0.502
17727W        W84510  30.115   3.932  10.693
17728W        W84511  33.850  20.228   2.167
17729W        W84512   7.402   8.393  10.444
17730W        W84513  41.808  19.202   2.204
17731W        W84514  38.979   2.628   1.029
17732W        W84515  12.902  15.573   4.740
17733W        W84516  12.641  20.196   3.386
17734W        W84517  27.431  24.699   2.623
17735W        W84518  36.879  21.601  11.936
17736W        W84519  10.679  10.166  12.009
17737W        W84520  40.265   4.795  11.500
17738W        W84521  32.486   6.596  10.347
17739W        W84522   2.703  35.637  11.225
17740W        W84523  26.514  11.446  11.480
17741W        W84524  37.706  13.360  12.429
17742W        W84525  44.914   4.931   4.862
17743W        W84526  37.594  31.329  12.619
17744W        W84527  38.103   5.319   0.315
17745W        W84528  36.032  36.917  10.714
17746W        W84529  23.140   1.454  11.902
17747W        W84530   4.533  35.841   1.840
17748W        W84531  37.807  24.301   4.660
17749W        W84532  22.575  43.814   2.434
17750W        W84533  23.987  16.198   4.551
17751W        W84534  33.118  17.638   1.888
17752W        W84535  32.795   0.240   1.382
17753W        W84536   1.644   3.920  11.613
17754W        W84537   4.264  22.958   0.696
17755W        W84538  19.869  16.643  12.013
17756W        W84539  22.275  11.588   4.890
17757W        W84540  34.570  20.872   2.491
17758W        W84541  18.123  30.886   1.284
17759W        W84542  30.122  22.238   2.617
17760W        W84543  44.519   6.227   3.325
17761W        W84544  27.117   8.767  11.439
17762W        W84545  23.872  44.534   2.687
17763W        W84546  22.680  16.906  13.958
17764W        W84547  10.472  36.397   0.439
17765W        W84548  29.164  41.885  11.499
17766W        W84549   3.239   9.938   9.834
17767W        W84550  39.046  43.561   1.471
17768W        W84551  22.249  28.530   0.365
17769W        W84552  10.449   7.728   1.854
17770W        W84553  15.706  32.337  10.464
17771W        W84554  38.502  16.677   2.333
17772W        W84555   1.282  37.467  14.752
17773W        W84556   7.485   9.792  12.595
17774W        W84557  30.827  30.481  12.017
17775W        W84558  13.074  35.789   5.068
17776W        W84559  23.702  31.167   3.303
17777W        W84560  28.403  24.558   0.262
17778W        W84561  31.030  33.037   0.761
17779W        W84562  44.024  13.905   0.040
17780W        W84563   2.028  15.814  12.939
17781W        W84564  42.304  33.576   1.115
17782W        W84565  11.137  42.483  14.752
17783W        W84566  12.239  39.567   4.632
17784W        W84567  39.110  20.307  11.639
17785W        W84568  28.092  17.840  12.412
17786W        W84569  33.737  14.900  12.461
17787W        W84570   9.213   6.465   3.203
17788W        W84571  24.571   3.371   2.329
17789W        W84572   1.911  19.562   4.176
17790W        W84573   1.328  39.230  11.245
17791W        W84574  24.093  30.220   0.488
17792W        W84575   1.245   3.372  13.888
17793W        W84576   2.324  37.648  11.073
17794W        W84577  18.023  41.717   1.491
17795W        W84578  16.713   6.861  13.545
17796W        W84579  41.424  38.850   0.993
17797W        W84580  35.849  16.556  14.978
17798W        W84581   0.805  44.614   4.569
17799W        W84582  26.801  44.803   0.719
17800W        W84583  34.811  19.086  10.633
17801W        W84584  42.410  34.506   3.394
17802W        W84585  23.123  14.302  10.673
17803W        W84586  31.631  27.186  14.393
17804W        W84587  36.339  15.086  12.104
17805W        W84588   4.027  15.345  14.790
17806W        W84589  40.786  13.145   3.091
17807W        W84590  12.106  17.076   1.659
17808W        W84591  34.032  14.966   2.394
17809W        W84592  16.579  34.865   1.838
17810W        W84593  24.827  11.309  11.677
17811W        W84594  39.964   6.593   4.207
17812W        W84595  15.605  15.698   5.065
17813W        W84596  28.117  22.407  10.611
17814W        W84597   8.423  16.255  14.876
17815W        W84598  12.121  31.035   4.674
17816W        W84599  20.022  11.998   3.241
17817W        W84600  20.999  41.604   0.908
17818W        W84601  34.628   7.502   3.078
17819W        W84602  29.457  30.698  12.043
17820W        W84603   3.419  12.836   5.043
17821W        W84604   5.131  35.142   4.368
17822W        W84605  28.722  18.734  14.265
17823W        W84606  22.288  29.692  11.414
17824W        W84607  17.352  12.169  13.844
17825W        W84608  13.722   8.992  14.547
17826W        W84609   1.640   1.698  11.502
17827W        W84610  44.007   0.751  12.479
17828W        W84611  30.682  20.017  14.568
17829W        W84612  29.004  32.248  11.683
17830W        W84613  13.672  25.550   1.522
17831W        W84614  16.115  12.122   3.841
17832W        W84615  26.634  42.099  11.602
17833W        W84616  27.004  13.873   0.333
17834W        W84617  26.431  29.720   4.615
17835W        W84618  42.496   6.438   9.914
17836W        W84619  33.945  30.087  13.930
17837W        W84620  18.266  34.064   2.243
17838W        W84621   5.554  43.316  11.989
17839W        W84622   0.823  39.537   4.110
17840W        W84623  44.827  34.004  11.043
17841W        W84624  38.537  41.531   4.224
17842W        W84625  44.274  31.477  12.104
17843W        W84626  10.378  36.025   0.900
17844W        W84627  35.660   0.369  12.671
17845W        W84628  15.328   5.790   1.713
17846W        W84629  10.738  19.521  10.954
17847W        W84630  44.617   5.374   4.511
17848W        W84631   1.998  30.494  11.183
17849W        W84632  19.158   3.769   4.157
17850W        W84633  38.714  15.689   5.104
17851W        W84634  31.920  18.575  14.710
17852W        W84635  12.813  43.306   1.236
17853W        W84636  32.651   9.926   0.077
17854W        W84637  23.487  27.356  13.049
17855W        W84638  27.954  21.549   0.789
17856W        W84639  27.499  24.624  11.082
17857W        W84640   8.725   4.128  11.219
17858W        W84641  25.080  30.418   2.287
17859W        W84642  17.532  17.673   2.541
17860W        W84643  37.384  37.108  14.757
17861W        W84644   8.467  15.093   5.018
17862W        W84645   1.389  14.372  12.988
17863W        W84646  15.061   9.104  11.538
17864W        W84647  39.136  21.546  14.381
17865W        W84648   7.726  20.068   2.163
17866W        W84649  34.135   4.269  14.809
17867W        W84650   1.775  17.706   4.083
17868W        W84651  19.625  37.902  11.848
17869W        W84652  35.966   3.330   3.527
17870W        W84653   5.004  43.270  10.458
17871W        W84654  35.959  43.997  13.971
17872W        W84655  30.339  29.482  12.173
17873W        W84656  23.031  23.160   1.245
17874W        W84657  24.114  39.882  10.729
17875W        W84658  43.761  20.485  12.038
17876W        W84659  28.612  42.930  13.993
17877W        W84660  19.793  43.557  13.835
17878W        W84661  20.420   4.724   3.734
17879W        W84662  27.195  12.804   1.635
17880W        W84663   0.659  40.417  10.533
17881W        W84664  29.702  37.335  13.884
17882W        W84665  35.557  27.221  12.608
17883W        W84666   1.379   4.212  11.993
17884W        W84667  11.518   7.915   3.598
17885W        W84668  33.347   6.197   0.941
17886W        W84669  38.052  30.686   4.220
17887W        W84670  28.345   0.381  10.660
17888W        W84671  33.004   6.450   2.678
17889W        W84672  26.054  17.683  14.957
17890W        W84673  39.444   3.061  12.412
17891W        W84674   7.345  34.615   1.225
17892W        W84675  21.561  18.000   2.622
17893W        W84676  37.480  33.493   3.740
17894W        W84677   0.570  42.067   3.698
17895W        W84678  38.792  27.937  13.808
17896W        W84679  43.124  16.133   5.132
17897W        W84680   1.820  21.562  11.873
17898W        W84681  41.471  10.173  13.358
17899W        W84682  42.650   5.635   9.925
17900W        W84683   0.032   7.513  11.175
17901W        W84684  44.550  26.631  12.962
17902W        W84685  16.958  19.014   3.209
17903W        W84686  16.650  26.719  11.973
17904W        W84687  31.877  42.963   1.787
17905W        W84688  24.445   4.623  12.634
17906W        W84689  23.697   7.242   1.807
17907W        W84690  14.738  17.573  12.348
17908W        W84691   2.699  17.246   1.585
17909W        W84692   5.785  11.016   0.401
17910W        W84693  13.832  34.528   1.304
17911W        W84694  42.507  12.481  13.779
17912W        W84695   8.740  27.768   3.770
17913W        W84696  25.080   3.934   1.276
17914W        W84697  21.734  30.598  10.635
17915W        W84698   2.460  24.260  14.498
17916W        W84699  41.392  29.544  13.086
17917W        W84700  39.574   9.879   2.908
17918W        W84701  33.567  28.944   2.205
17919W        W84702   5.232   4.705   0.024
17920W        W84703  11.195  11.608   1.095
17921W        W84704   1.753  28.637   0.324
17922W        W84705  19.614  35.910   4.161
17923W        W84706  36.786  11.748   4.532
17924W        W84707   2.209  17.056   0.934
17925W        W84708  34.011  35.536   2.609
17926W        W84709  24.123  13.680  14.768
17927W        W84710  38.244   2.781   1.460
17928W        W84711  29.059  16.025  11.618
17929W        W84712  16.350  43.719  11.564
17930W        W84713  12.630  11.149  14.994
17931W        W84714   6.977  38.335  14.932
17932W        W84715  13.155  41.263   3.950
17933W        W84716   3.832  39.866   3.409
17934W        W84717   4.816  10.370  13.282
17935W        W84718  28.017  34.397   2.200
17936W        W84719  31.803  39.373   0.821
17937W        W84720   5.972   8.648  13.989
17938W        W84721   9.254  10.836   0.930
17939W        W84722   5.156  40.982  12.037
17940W        W84723  24.403   7.557  14.532
17941W        W84724  30.426  20.270   3.041
17942W        W84725  35.477  24.568   3.871
17943W        W84726  11.323  40.485  10.407
17944W        W84727  15.819  43.359  12.790
17945W        W84728  15.700  20.685   4.918
17946W        W84729   3.266  13.166   0.239
17947W        W84730  25.066  27.228  11.670
17948W        W84731  11.136  38.929   9.451
17949W        W84732  21.377  23.816  14.784
17950W        W84733  34.353  43.070  13.665
17951W        W84734   9.304   2.137  11.839
17952W        W84735  37.601   7.740  12.494
17953W        W84736   6.334  17.088   0.686
17954W        W84737  15.590   7.433   2.722
17955W        W84738  20.777  29.153  14.243
17956W        W84739  23.599   0.686   3.288
17957W        W84740  10.077   3.137   3.649
17958W        W84741  22.122  35.532   4.583
17959W        W84742  41.927  16.260  11.210
17960W        W84743  28.530  19.269  11.925
17961W        W84744  38.160  42.356   1.245
17962W        W84745  31.573  40.782  14.461
17963W        W84746   7.946  26.010   3.373
17964W        W84747  31.147  36.579   3.806
17965W        W84748   5.821   6.412   4.082
17966W        W84749  23.026  22.716   2.192
17967W        W84750  44.842  20.123  13.930
17968W        W84751  39.237  29.866   1.318
17969W        W84752  38.568  42.884   2.335
17970W        W84753  27.991  25.937   3.610
17971W        W84754  29.281  23.863   3.236
17972W        W84755  35.149  37.147  11.228
17973W        W84756  12.359  25.180   2.185
17974W        W84757  41.203  12.649  14.888
17975W        W84758   2.948  22.224  14.055
17976W        W84759  26.135  20.632  13.504
17977W        W84760  13.792   1.030  13.530
17978W        W84761  31.107  44.794  10.750
17979W        W84762  27.353  39.989  14.707
17980W        W84763  27.663   3.665  10.989
17981W        W84764  19.488  16.728  12.980
17982W        W84765   8.322  43.485   3.167
17983W        W84766  43.998  15.309   4.328
17984W        W84767  13.683  39.042  12.949
17985W        W84768  39.793  32.465  12.922
17986W        W84769  13.324   2.460  11.971
17987W        W84770  26.525  29.165   4.565
17988W        W84771  23.678  26.628   2.956
17989W        W84772  18.280  16.052   4.317
17990W        W84773  23.705   1.711   3.129
17991W        W84774  12.073  42.897   3.242
17992W        W84775   2.378  23.215  14.580
17993W        W84776  36.896   2.217   4.152
17994W        W84777  21.152  29.904  11.140
17995W        W84778  29.563  23.978   1.240
17996W        W84779  41.883  37.531  11.616
17997W        W84780  42.429  27.776  10.765
17998W        W84781  21.437  35.519  11.981
17999W        W84782   1.384  24.016   4.008
18000W        W84783  40.351   9.682  12.023
18001W        W84784  10.519  23.920   9.892
18002W        W84785  31.162  26.626  14.738
18003W        W84786   4.193  34.439   3.440
18004W        W84787  30.189   9.048  12.516
18005W        W84788  29.045  18.827  12.911
18006W        W84789   0.566   9.823   3.771
18007W        W84790  21.670  20.097   1.335
18008W        W84791   8.321  11.870   1.425
18009W        W84792  32.125  35.085  14.032
18010W        W84793  29.891  26.072   2.394
18011W        W84794  25.187  41.127  13.055
18012W        W84795   1.984  21.190   2.645
18013W        W84796   7.316  40.840  12.643
18014W        W84797  30.481  20.483  14.381
18015W        W84798  11.155  28.047  10.705
18016W        W84799  38.460  11.121  10.722
18017W        W84800  30.375   1.979  11.129
18018W        W84801  22.655  15.250   2.365
18019W        W84802   3.945  14.797   2.702
18020W        W84803  31.254  15.641  12.820
18021W        W84804   6.936  18.081   0.297
18022W        W84805  23.107  27.630   3.719
18023W        W84806  29.962  26.061   3.277
18024W        W84807  17.965  28.636   1.146
18025W        W84808  24.553  43.993  13.977
18026W        W84809  39.881  18.452   2.847
18027W        W84810  22.561  19.086   2.222
18028W        W84811  19.214  40.269  10.651
18029W        W84812  41.145  22.475  14.356
18030W        W84813  27.941  12.209   0.403
18031W        W84814  20.080  26.748   4.168
18032W        W84815  43.785  39.008   2.605
18033W        W84816  20.665  18.150  10.884
18034W        W84817  26.892  35.703   3.656
18035W        W84818  33.153  32.446  12.650
18036W        W84819  34.010  30.871   2.310
18037W        W84820   6.548   5.048  11.042
18038W        W84821  18.334  39.300   0.329
18039W        W84822  42.457  22.533   1.315
18040W        W84823  40.786  41.099  10.691
18041W        W84824  36.627   9.203  12.141
18042W        W84825  15.850  30.305  12.030
18043W        W84826   3.886   4.739  10.514
18044W        W84827  30.529  40.349  12.074
18045W        W84828  43.392   7.629  12.027
18046W        W84829  26.061  32.167  10.748
18047W        W84830  44.220  19.020   0.010
18048W        W84831  26.051   9.449  12.951
18049W        W84832  35.865  40.344   3.596
18050W        W84833  14.408  43.262   2.855
18051W        W84834  19.739   9.926  11.177
18052W        W84835   6.821  26.109   2.355
18053W        W84836  24.345  35.007  12.419
18054W        W84837  38.682  35.893   3.090
18055W        W84838  32.996  36.837   3.607
18056W        W84839   6.551  13.716   4.205
18057W        W84840   6.870  26.836  11.144
18058W        W84841   8.243  16.727  11.259
18059W        W84842  11.606  15.668  14.950
18060W        W84843  37.063  17.465   0.976
18061W        W84844  23.699  26.268  12.018
18062W        W84845  32.514  12.838   1.809
18063W        W84846   5.860  30.874   3.986
18064W        W84847  12.177  29.580   1.804
18065W        W84848  33.561  20.054   2.947
18066W        W84849  30.640   8.076  14.997
18067W        W84850  42.412  10.371  13.589
18068W        W84851  11.915   1.367   3.667
18069W        W84852  27.034  19.283   2.879
18070W        W84853  10.922  27.866   0.688
18071W        W84854  28.455   6.317   4.521
18072W        W84855  24.037   0.531  13.328
18073W        W84856  33.089  32.864   3.322
18074W        W84857  21.578  12.072  13.496
18075W        W84858  11.495  18.735   3.871
18076W        W84859   4.824   1.301   3.743
18077W        W84860  35.093   5.941  14.029
18078W        W84861  43.906   9.437   1.439
18079W        W84862   9.400  13.901  11.156
18080W        W84863  41.962   1.781  12.596
18081W        W84864  28.969  15.035   2.253
18082W        W84865  27.954  36.511  12.908
18083W        W84866   2.660  32.966  13.794
18084W        W84867  10.302  39.403   3.736
18085W        W84868  26.503  36.837  14.495
18086W        W84869  43.469  43.347   2.141
18087W        W84870  43.963  15.360   2.215
18088W        W84871  32.558  29.162   2.214
18089W        W84872  30.876  16.715  11.431
18090W        W84873  22.621  36.028   2.477
18091W        W84874  28.589  37.340  11.031
18092W        W84875  20.123  13.682   3.829
18093W        W84876  30.789   8.723   2.875
18094W        W84877   1.797   0.166   4.020
18095W        W84878  13.764  36.285  14.867
18096W        W84879   1.195  12.358   1.526
18097W        W84880  41.278  25.691   1.926
18098W        W84881  31.083  12.697  13.991
18099W        W84882  27.107  10.898  14.065
18100W        W84883  19.269   4.490   1.277
18101W        W84884   9.619  42.935  12.026
18102W        W84885  43.356  43.465  12.450
18103W        W84886  16.800  25.019   3.308
18104W        W84887  39.570  13.035  10.679
18105W        W84888  30.043  41.320   0.900
18106W        W84889  30.182  30.696  12.591
18107W        W84890  41.112  13.751  12.427
18108W        W84891  19.626  10.086   0.958
18109W        W84892  23.961  30.865   4.264
18110W        W84893  39.967  36.498  13.027
18111W        W84894  44.058  14.814  12.622
18112W        W84895  15.416  30.641  12.013
18113W        W84896  36.088   2.483  14.846
18114W        W84897  12.671  26.102  10.637
18115W        W84898  32.092  44.460  11.780
18116W        W84899  27.104  16.033   4.964
18117W        W84900  10.856  27.614   3.449
18118W        W84901   5.422  42.976   1.360
18119W        W84902  16.003  35.475  10.717
18120W        W84903  42.773  24.166  14.014
18121W        W84904  43.202   1.796  11.891
18122W        W84905  14.337  26.723   1.381
18123W        W84906  26.531  18.703  12.486
18124W        W84907  22.080  35.567   3.593
18125W        W84908   0.752  26.960   4.264
18126W        W84909  36.322  17.217  13.044
18127W        W84910  30.085  19.878   3.461
18128W        W84911  16.716  33.531   2.562
18129W        W84912  25.516  28.892  12.028
18130W        W84913  28.427   0.823   1.071
18131W        W84914  37.626  12.568  14.747
18132W        W84915  32.543  34.998   4.731
18133W        W84916  36.340  10.306   3.279
18134W        W84917  35.012  27.758  12.185
18135W        W84918  18.010  25.225  13.338
18136W        W84919   0.056  35.987   3.294
18137W        W84920  36.206   6.720  13.326
18138W        W84921  33.942   4.002  13.145
18139W        W84922  29.411  43.799   1.192
18140W        W84923   8.287  44.263   3.717
18141W        W84924  35.475  37.554  11.637
18142W        W84925  22.044  11.165  10.792
18143W        W84926  11.285   1.414   2.391
18144W        W84927  26.508  43.845   0.036
18145W        W84928   5.326  44.255  13.901
18146W        W84929   1.814  37.630   3.319
18147W        W84930  17.759  32.940   3.091
18148W        W84931  15.070  16.563  14.391
18149W        W84932  34.240  24.003  13.339
18150W        W84933  32.716  39.067   2.751
18151W        W84934  12.555  21.989   3.689
18152W        W84935  38.061   2.172   4.487
18153W        W84936  36.012  43.461   4.004
18154W        W84937   6.861   8.692  12.983
18155W        W84938  16.999  11.388   1.726
18156W        W84939  27.089  22.435  13.887
18157W        W84940  25.712   9.371   2.841
18158W        W84941  30.496   9.565  13.199
18159W        W84942  14.297   8.471   3.785
18160W        W84943  34.961  40.807  11.628
18161W        W84944  24.967  16.883  14.066
18162W        W84945  19.679  18.146  10.561
18163W        W84946  44.909  43.339  13.543
18164W        W84947  27.489  41.776   3.563
18165W        W84948  24.057   9.437  10.669
18166W        W84949  20.768  42.693  12.249
18167W        W84950   4.239  14.894  13.492
18168W        W84951  27.024  43.702  13.320
18169W        W84952  22.109  13.172   4.328
18170W        W84953  34.329   9.310   3.240
18171W        W84954  12.620  28.208  14.878
18172W        W84955  40.250   8.283   3.056
18173W        W84956  34.277   0.815  13.799
18174W        W84957  25.712  17.861  13.557
18175W        W84958  37.613  22.717   0.802
18176W        W84959  40.279  18.742   3.699
18177W        W84960  39.334  28.954   0.288
18178W        W84961  37.939  13.290   3.676
18179W        W84962   4.848  17.686   0.741
18180W        W84963  25.749  29.942  12.955
18181W        W84964  14.364  36.303  13.080
18182W        W84965  31.984  23.267   2.857
18183W        W84966  12.817  24.659  13.846
18184W        W84967   5.906   6.928   4.119
18185W        W84968  25.707  11.770   1.411
18186W        W84969   3.151  13.885   4.189
18187W        W84970  15.942   9.480   0.543
18188W        W84971  20.859  41.924  14.789
18189W        W84972  36.810  24.860   2.791
18190W        W84973  25.694  29.537  12.625
18191W        W84974   6.259   6.170   4.203
18192W        W84975   0.540  24.488  10.653
18193W        W84976  38.600   8.104  12.576
18194W        W84977  27.779  43.062  11.460
18195W        W84978  10.904  12.883   1.087
18196W        W84979  38.854  24.462  11.212
18197W        W84980  39.519  17.548   3.476
18198W        W84981  34.106  17.927  10.693
18199W        W84982  11.988  36.264  13.891
18200W        W84983  11.073  35.910  10.679
18201W        W84984  16.713  20.788  10.607
18202W        W84985  42.538   3.457  11.524
18203W        W84986   8.227   1.041   2.278
18204W        W84987  29.887   0.322  11.493
18205W        W84988   2.906  16.074  12.934
18206W        W84989  15.211  30.890   1.167
18207W        W84990   7.868  42.601  14.810
18208W        W84991  41.520  19.215  10.647
18209W        W84992  44.886  19.927   4.702
18210W        W84993   7.987  29.121   2.860
18211W        W84994   8.904  21.068   4.891
18212W        W84995  41.437  36.406   4.687
18213W        W84996  44.288  26.936   4.897
18214W        W84997  41.437  30.493   3.365
18215W        W84998  19.248  36.946  10.784
18216W        W84999  37.868   8.262  11.710
18217W        W85000  18.639  25.631   0.909
18218W        W85001  10.753  17.323  12.580
18219W        W85002  17.018  14.800  13.560
18220W        W85003  35.291  29.726  10.774
18221W        W85004   4.464  42.034   2.389
18222W        W85005   5.779   0.036   3.409
18223W        W85006  19.840  41.276   5.077
18224W        W85007  34.505   6.660   0.445
18225W        W85008  16.479   6.180  12.772
18226W        W85009  38.346  34.842   1.661
18227W        W85010  26.513  23.050  13.015
18228W        W85011   2.576  40.423  12.945
18229W        W85012  33.368  42.522  14.321
18230W        W85013  22.097  40.759  13.441
18231W        W85014  25.928  41.032  13.434
18232W        W85015  40.680  44.277   0.847
18233W        W85016  21.556  41.712   1.517
18234W        W85017   1.508  32.777  14.919
18235W        W85018  34.619  24.121   2.230
18236W        W85019  36.305  29.729   2.589
18237W        W85020  26.550  11.350  10.626
18238W        W85021  40.756  26.019   2.781
18239W        W85022  37.406  32.016  10.191
18240W        W85023  17.907  15.568  14.933
18241W        W85024  15.811  14.314   1.044
18242W        W85025  41.312  13.213  12.012
18243W        W85026  12.069  41.582  14.514
18244W        W85027   3.028  36.383   3.828
18245W        W85028  33.193  39.050   2.573
18246W        W85029  40.331  38.488   3.300
18247W        W85030   5.805  25.558   1.400
18248W        W85031   1.736  13.740   0.733
18249W        W85032   4.688  31.411  11.617
18250W        W85033  37.873  40.456   4.706
18251W        W85034  12.328  21.697   4.144
18252W        W85035  22.131   2.341   3.785
18253W        W85036  42.470  43.302   4.633
18254W        W85037  32.526  17.714   3.706
18255W        W85038   3.389  16.190   0.761
18256W        W85039  34.084  16.800  13.990
18257W        W85040  24.041  10.658   4.568
18258W        W85041  25.454   2.700   4.899
18259W        W85042  37.341  16.565   4.768
18260W        W85043  32.540  29.084  14.449
18261W        W85044  13.129  44.331   3.171
18262W        W85045  41.336   8.856   5.339
18263W        W85046   6.623  44.364   1.673
18264W        W85047  17.665  30.227  10.604
18265W        W85048  33.475   4.221  11.994
18266W        W85049  15.678  33.913  12.811
18267W        W85050  21.180  22.303  11.841
18268W        W85051  13.757  42.332  10.733
18269W        W85052  19.755  10.964   2.207
18270W        W85053   6.159  11.641  10.199
18271W        W85054  43.529  30.469  13.467
18272W        W85055  30.222  14.154  11.975
18273W        W85056  17.216   5.491   0.375
18274W        W85057  43.817  41.045   0.004
18275W        W85058  14.060   8.877   1.457
18276W        W85059  43.117  42.098  14.840
18277W        W85060  41.808  43.654   4.065
18278W        W85061  24.505  38.954   4.583
18279W        W85062  35.167   7.753   2.308
18280W        W85063  44.157   6.586  12.787
18281W        W85064  20.747  24.525  12.039
18282W        W85065  17.816  23.949  13.767
18283W        W85066  34.835  38.796   1.864
18284W        W85067  12.397  22.066  11.182
18285W        W85068  34.449  30.633   2.411
18286W        W85069   2.232  36.770  13.615
18287W        W85070  15.638  17.716  14.752
18288W        W85071   7.679  31.438  10.951
18289W        W85072  29.428   9.170   3.666
18290W        W85073  28.592  31.186   0.307
18291W        W85074  30.876   4.188   4.232
18292W        W85075   0.990  42.224   0.889
18293W        W85076  41.324  30.151  11.180
18294W        W85077  20.169  43.596   4.576
18295W        W85078   6.638  30.474   3.340
18296W        W85079  17.767  21.995   0.494
18297W        W85080  32.944   8.001   3.676
18298W        W85081  44.793   3.490  11.777
18299W        W85082   3.006   9.813   3.995
18300W        W85083   7.406  30.082  14.790
18301W        W85084  25.505  10.223   2.689
18302W        W85085  21.177  42.679   2.923
18303W        W85086  35.537  44.360  12.607
18304W        W85087  41.839   1.427   0.850
18305W        W85088  32.585   6.771   3.577
18306W        W85089  36.162  27.479   4.034
18307W        W85090  11.290  30.201   0.779
18308W        W85091  16.713  38.424  14.131
18309W        W85092   4.038   4.830   3.580
18310W        W85093  17.504   9.751  13.380
18311W        W85094   5.319   0.294  13.674
18312W        W85095  26.217   6.656   3.173
18313W        W85096  34.619  17.257  14.987
18314W        W85097  32.068  31.038  14.004
18315W        W85098   4.183  27.881   1.419
18316W        W85099  44.285  22.788   4.677
18317W        W85100  40.341  44.600  11.186
18318W        W85101  21.820  33.479   3.824
18319W        W85102  27.611  23.289   3.831
18320W        W85103   0.426  23.280   3.105
18321W        W85104   1.318  34.837   2.915
18322W        W85105   3.188  30.976  14.519
18323W        W85106  17.260  31.597  12.587
18324W        W85107  18.374  36.060  12.064
18325W        W85108  30.900  32.971  13.923
18326W        W85109  16.283  33.075  10.745
18327W        W85110  12.375  28.388   0.789
18328W        W85111   9.705  31.231  14.448
18329W        W85112  15.500  12.271   0.202
18330W        W85113  29.438  36.409  12.942
18331W        W85114   9.252  24.552  12.238
18332W        W85115  18.734  23.101   2.371
18333W        W85116  26.520   2.668  11.158
18334W        W85117  32.427  43.501  14.491
18335W        W85118   4.840  14.499  12.523
18336W        W85119  11.448  13.404  11.636
18337W        W85120  35.949   4.364  13.376
18338W        W85121  37.752  14.313   0.531
18339W        W85122  42.007  14.908   3.264
18340W        W85123   3.679  37.420  14.113
18341W        W85124   0.918  22.766   1.291
18342W        W85125  26.517  14.269  11.164
18343W        W85126  22.744  40.107   3.571
18344W        W85127  17.431  22.193  11.668
18345W        W85128  17.124   8.688  14.893
18346W        W85129   7.163   1.906  13.805
18347W        W85130  36.047   9.166   2.845
18348W        W85131   6.686  43.226   0.770
18349W        W85132  12.296  11.834  12.032
18350W        W85133   8.751   8.858  13.630
18351W        W85134  31.039  21.295   4.085
18352W        W85135   4.165  30.644  14.353
18353W        W85136  18.957  17.688   2.200
18354W        W85137   9.308   2.456  14.728
18355W        W85138  25.522  40.994   3.381
18356W        W85139  22.597   0.809  14.281
18357W        W85140  41.828  19.513   2.872
18358W        W85141  24.191   7.627  11.353
18359W        W85142  41.323  16.407   1.027
18360W        W85143  20.413  22.934  11.178
18361W        W85144  40.232  19.202   1.219
18362W        W85145  40.384  28.422   1.788
18363W        W85146   9.887  24.656   4.752
18364W        W85147  30.119  31.698  11.253
18365W        W85148  19.435   2.260  11.937
18366W        W85149  11.147  13.895   0.744
18367W        W85150  37.154  34.918  14.824
18368W        W85151  11.821  14.922  10.217
18369W        W85152  34.439   9.536   1.252
18370W        W85153  17.644  26.058  11.951
18371W        W85154   4.234  43.425  14.353
18372W        W85155  42.381   8.708  14.080
18373W        W85156  23.099  35.957   0.635
18374W        W85157  38.041  40.836   4.406
18375W        W85158  20.924  44.017   4.092
18376W        W85159  22.297  22.763  14.854
18377W        W85160  36.347  15.811   4.196
18378W        W85161  10.380  25.837  12.633
18379W        W85162  17.471  34.371   2.456
18380W        W85163   7.653  23.664  13.507
18381W        W85164  10.763  19.068  11.631
18382W        W85165  33.009  22.914  13.452
18383W        W85166  30.233  38.002   2.496
18384W        W85167  29.993  31.481   0.762
18385W        W85168  37.644  15.609  12.089
18386W        W85169  35.512  25.904  13.383
18387W        W85170  32.479  28.543   0.447
18388W        W85171  16.773   7.316   4.703
18389W        W85172  22.665   5.673  10.490
18390W        W85173  34.434  32.628   3.143
18391W        W85174   6.419  27.087   4.415
18392W        W85175  31.151  38.156  14.598
18393W        W85176  27.011   7.352   0.306
18394W        W85177   3.731  42.214   1.877
18395W        W85178  25.443  33.702   1.056
18396W        W85179   8.686  37.300   0.860
18397W        W85180  39.795  18.210   4.407
18398W        W85181   7.564  29.527   4.106
18399W        W85182   6.278  24.096   2.905
18400W        W85183  28.612   3.154  13.726
18401W        W85184  12.654  26.223  13.922
18402W        W85185   8.881   8.490  10.144
18403W        W85186  31.311  37.145   2.988
18404W        W85187   2.367  41.475  12.847
18405W        W85188  25.265  37.738  10.295
18406W        W85189  28.418  39.232   3.753
18407W        W85190  17.887  17.096  12.199
18408W        W85191  39.387  38.303  12.826
18409W        W85192   9.731  28.828  11.307
18410W        W85193  31.138  26.604  13.019
18411W        W85194  15.090  10.146  12.971
18412W        W85195  26.200  37.128  14.218
18413W        W85196  10.845  14.087   4.388
18414W        W85197  22.522  24.799   3.523
18415W        W85198   3.820   5.764  11.945
18416W        W85199   6.328  11.844  12.497
18417W        W85200  40.776  39.029  10.259
18418W        W85201   0.813  40.845  12.916
18419W        W85202  11.119  26.348  14.566
18420W        W85203  34.076  34.671   2.660
18421W        W85204   0.587  18.094   0.247
18422W        W85205  44.324  21.581  10.555
18423W        W85206  14.847  10.249   4.482
18424W        W85207  12.175  36.609  13.529
18425W        W85208  42.296  20.215  11.099
18426W        W85209  10.213  13.859   1.240
18427W        W85210  43.498   0.789  12.056
18428W        W85211  16.473   4.871  14.387
18429W        W85212  29.129  14.702   1.255
18430W        W85213  40.411  26.158   0.475
18431W        W85214  18.869  22.019  11.801
18432W        W85215  43.201   9.154   1.975
18433W        W85216  24.446  30.961  12.454
18434W        W85217  10.883  44.720   4.627
18435W        W85218   3.994  26.058  14.118
18436W        W85219  13.821  35.735   0.624
18437W        W85220  22.060  27.418   0.936
18438W        W85221   1.765  26.064  10.582
18439W        W85222  38.677  32.921   2.909
18440W        W85223   0.932  14.274   5.396
18441W        W85224  17.719  18.767  11.902
18442W        W85225  19.869   8.723  11.180
18443W        W85226  43.421  44.819   4.673
18444W        W85227  27.949  30.712  13.139
18445W        W85228   4.738  17.453   2.377
18446W        W85229   7.594  16.616   2.295
18447W        W85230  39.096   2.852  13.850
18448W        W85231   2.695  20.881  13.429
18449W        W85232  32.948  44.699   0.962
18450W        W85233   4.144  25.679   4.540
18451W        W85234  43.690  24.417  14.839
18452W        W85235  23.466   0.374  14.613
18453W        W85236   6.434   8.464   3.798
18454W        W85237  39.848  13.448  10.228
18455W        W85238   9.451  19.552   4.646
18456W        W85239  30.591  23.195   2.909
18457W        W85240   3.361  11.907  14.945
18458W        W85241   7.164  12.276  11.568
18459W        W85242  30.178  43.941   3.655
18460W        W85243  28.535  44.276   3.570
18461W        W85244  31.661   8.774  14.861
18462W        W85245  25.118  38.452  13.673
18463W        W85246  11.811  22.527   2.896
18464W        W85247  32.931  37.289   3.303
18465W        W85248   3.727  39.294   1.294
18466W        W85249  30.374  10.302  10.506
18467W        W85250   8.412   8.115   0.948
18468W        W85251  43.981  23.332  12.555
18469W        W85252  17.232   2.494   3.116
18470W        W85253  38.092  24.267  12.007
18471W        W85254   4.756  11.712  14.494
18472W        W85255  21.715  14.316  10.149
18473W        W85256  41.119  29.866  14.886
18474W        W85257  43.777  20.499   4.445
18475W        W85258  25.102  34.820  13.407
18476W        W85259  28.536  28.556  11.649
18477W        W85260  15.033  28.551  11.699
18478W        W85261  25.145  37.612   4.612
18479W        W85262  30.884   0.252  10.750
18480W        W85263  35.893  30.524  13.009
18481W        W85264  35.163   6.401  12.874
18482W        W85265  19.034  19.756  10.118
18483W        W85266  26.002  39.844   1.322
18484W        W85267  32.294  18.449   4.392
18485W        W85268  15.393  43.034   2.546
18486W        W85269  21.967  40.019  13.873
18487W        W85270  17.157  16.118  14.957
18488W        W85271  31.812  33.826  12.986
18489W        W85272  39.105  19.828  13.342
18490W        W85273  10.305   3.977  12.203
18491W        W85274  32.095  19.649   1.848
18492W        W85275  29.877   2.830  11.953
18493W        W85276  15.804  31.505  10.987
18494W        W85277  40.719  14.878   3.793
18495W        W85278   2.851   3.838  12.404
18496W        W85279   9.327  11.065   0.313
18497W        W85280  44.973  30.706   1.825
18498W        W85281  29.614  37.440   4.568
18499W        W85282   7.275   8.443  13.804
18500W        W85283  24.046  41.432   4.540
18501W        W85284  22.349   1.993   1.737
18502W        W85285  20.918  20.000  14.912
18503W        W85286  22.242   5.008   2.844
18504W        W85287  14.635  40.112   0.742
18505W        W85288   8.215  32.097  14.448
18506W        W85289   7.897  14.548   3.607
18507W        W85290  32.143  42.089   3.887
18508W        W85291  30.058  18.314   4.151
18509W        W85292  31.154  39.812   0.017
18510W        W85293  39.468  37.208   3.428
18511W        W85294  44.045  30.973   3.747
18512W        W85295  43.897  25.704  12.799
18513W        W85296  36.945   6.570   0.977
18514W        W85297   5.494   7.903  12.986
18515W        W85298   5.708   1.674  11.765
18516W        W85299   7.822  20.086   3.090
18517W        W85300  33.498  39.785  12.467
18518W        W85301  33.956   9.589   0.587
18519W        W85302  42.737  26.969   1.772
18520W        W85303  14.858  22.578   3.525
18521W        W85304   3.478  22.422  14.800
18522W        W85305  14.033  18.775  14.446
18523W        W85306  34.504  27.119  10.299
18524W        W85307  13.146   0.713   1.947
18525W        W85308  30.337  39.331  11.226
18526W        W85309  37.605  26.250  13.019
18527W        W85310   9.827  22.950   2.646
18528W        W85311  28.506  15.626   4.663
18529W        W85312  23.936  21.319   3.223
18530W        W85313  11.609  37.257  13.981
18531W        W85314  41.891  28.261   1.864
18532W        W85315  38.094  33.214   0.452
18533W        W85316  32.372  10.415   0.209
18534W        W85317  33.157  23.511  10.426
18535W        W85318  27.592  42.008   5.018
18536W        W85319   9.351  26.888   4.320
18537W        W85320  10.963   3.741   0.072
18538W        W85321   7.138  33.444  12.532
18539W        W85322   5.171   1.158  13.312
18540W        W85323  41.438   8.376  14.347
18541W        W85324  14.714   4.964  12.561
18542W        W85325  15.254  41.068  12.049
18543W        W85326  32.783  13.221   1.131
18544W        W85327  33.605  10.242  12.868
18545W        W85328  37.418  32.991   4.544
18546W        W85329   8.396  15.073   2.863
18547W        W85330  25.726  42.421  10.546
18548W        W85331   0.917   8.790  12.505
18549W        W85332  11.695  10.198  13.851
18550W        W85333  15.603   7.517   4.967
18551W        W85334  30.893  41.134  11.923
18552W        W85335  16.559  29.822   1.785
18553W        W85336  31.444  28.396  13.837
18554W        W85337  13.118  27.872   5.072
18555W        W85338  41.805   1.744   2.256
18556W        W85339  19.939   4.323   3.097
18557W        W85340   5.900  32.723  14.419
18558W        W85341   5.819  32.007   3.603
18559W        W85342  41.330  26.576   4.823
18560W        W85343  10.834   3.348  11.040
18561W        W85344  39.287  13.735  14.440
18562W        W85345  37.479  41.098  14.162
18563W        W85346  30.054  12.853  11.548
18564W        W85347  24.028  11.341  13.063
18565W        W85348  10.327  11.315  10.485
18566W        W85349  18.579  36.882  12.156
18567W        W85350  23.694  10.523  14.286
18568W        W85351  21.394  37.780   3.742
18569W        W85352  22.477  39.966   4.151
18570W        W85353   8.802   6.920  14.251
18571W        W85354   5.795  44.966   4.429
18572W        W85355  39.429  39.311   0.536
18573W        W85356  21.692  16.618  14.813
18574W        W85357  14.084  28.864   2.724
18575W        W85358   9.156  15.549  14.871
18576W        W85359   2.475  37.255  14.889
18577W        W85360  30.630  12.652  14.276
18578W        W85361  38.998  26.221   0.507
18579W        W85362  29.480  12.477  10.165
18580W        W85363  33.518  42.213  10.655
18581W        W85364   8.355  21.718   1.486
18582W        W85365  39.963  41.322  13.569
18583W        W85366  15.882  39.044   2.360
18584W        W85367  28.995  40.760   2.189
18585W        W85368  20.598  15.144   4.182
18586W        W85369  39.701  37.427   4.216
18587W        W85370  40.833   9.242   2.640
18588W        W85371  17.275  30.812  10.929
18589W        W85372  11.640  39.794   3.634
18590W        W85373  10.177   7.174   1.887
18591W        W85374  39.104  30.715   0.391
18592W        W85375  18.802  14.243   3.343
18593W        W85376  12.430  35.655  14.515
18594W        W85377  19.081  43.657  14.809
18595W        W85378  32.834   1.710  10.776
18596W        W85379  31.884   3.831   2.821
18597W        W85380   3.151  40.517   0.705
18598W        W85381  11.394   1.453   3.297
18599W        W85382  20.327   8.386   0.259
18600W        W85383   9.186  20.123   4.385
18601W        W85384  42.851   2.000   3.860
18602W        W85385   4.833  17.391  12.110
18603W        W85386  27.297  14.569  14.368
18604W        W85387   4.897   4.259  14.397
18605W        W85388   3.353   6.666  12.060
18606W        W85389  32.069   8.657  13.103
18607W        W85390  17.604  14.865   1.303
18608W        W85391  19.266  14.962   2.742
18609W        W85392   4.927  42.682  11.741
18610W        W85393  31.970  31.936   4.569
18611W        W85394  43.187  14.090  14.094
18612W        W85395  15.397  29.487   0.268
18613W        W85396   4.218  39.951  14.043
18614W        W85397  29.224  29.078   1.233
18615W        W85398  31.956  29.742  14.480
18616W        W85399   5.383  26.705  12.907
18617W        W85400   2.414  14.694   0.346
18618W        W85401  21.230  16.149   1.377
18619W        W85402  34.704  22.509  12.529
18620W        W85403  43.665  17.642  12.934
18621W        W85404  12.113  38.061  11.636
18622W        W85405   2.983  43.792  14.979
18623W        W85406  35.976   3.905   0.841
18624W        W85407  11.739  27.479  11.999
18625W        W85408   3.868  32.820  14.354
18626W        W85409   0.541  15.294   2.999
18627W        W85410  14.505  26.861  10.471
18628W        W85411  27.652  16.612   4.323
18629W        W85412  36.240   3.427  13.875
18630W        W85413  31.930  44.559  14.284
18631W        W85414   2.362   7.422  12.904
18632W        W85415  39.274   3.858  12.146
18633W        W85416   0.886  35.620  11.141
18634W        W85417  11.768   8.003   1.307
18635W        W85418   0.471  31.092  12.515
18636W        W85419  40.231  37.947  13.296
18637W        W85420   7.363  19.991  14.987
18638W        W85421  34.704  26.839   1.922
18639W        W85422  12.856  25.625  10.768
18640W        W85423  16.132  22.305   2.897
18641W        W85424  39.897  15.245   0.779
18642W        W85425  36.865  25.299   4.548
18643W        W85426  37.954   2.279   1.783
18644W        W85427   4.192   5.285   4.761
18645W        W85428  19.982   9.180   0.793
18646W        W85429   1.246   9.716   0.369
18647W        W85430  32.555  12.713  11.047
18648W        W85431   5.888  27.541   1.896
18649W        W85432  15.240  16.589   3.250
18650W        W85433  35.006  28.487   3.563
18651W        W85434   9.659  32.494  11.866
18652W        W85435  42.618  41.974  11.078
18653W        W85436  12.577  38.114  12.423
18654W        W85437  41.450  44.731   1.078
18655W        W85438   4.772  33.372   0.876
18656W        W85439   9.851  20.853   2.673
18657W        W85440  31.424  37.742  11.928
18658W        W85441   4.997   1.809  14.422
18659W        W85442   9.600  40.491   0.412
18660W        W85443   6.805  21.494   1.845
18661W        W85444  11.169   3.383   4.040
18662W        W85445  41.550  20.273  13.824
18663W        W85446  14.134  26.699  14.321
18664W        W85447  28.328  42.223  14.919
18665W        W85448  15.353  14.511   1.750
18666W        W85449   5.581   4.432   0.439
18667W        W85450  35.050  25.516  10.691
18668W        W85451  44.609  15.102  12.843
18669W        W85452  24.093  20.508   0.322
18670W        W85453  12.744  33.553   3.547
18671W        W85454  18.579   4.717   3.163
18672W        W85455  13.488  40.285  11.517
18673W        W85456   8.618  30.462  10.969
18674W        W85457  10.357  16.782  11.273
18675W        W85458  42.808  43.272  13.053
18676W        W85459  40.213   9.249  13.109
18677W        W85460  29.575  29.153  12.111
18678W        W85461  32.149  18.751  13.846
18679W        W85462  41.801  21.243   0.477
18680W        W85463  36.447  42.967   2.970
18681W        W85464   0.032  33.036  10.912
18682W        W85465  23.069  12.251   3.695
18683W        W85466  33.264   0.632  14.493
18684W        W85467  41.916  22.622  12.829
18685W        W85468  18.113  41.287   0.196
18686W        W85469  34.969  18.831   1.906
18687W        W85470  29.616  44.341  13.503
18688W        W85471   6.701  10.387  10.680
18689W        W85472  10.684  37.457  14.622
18690W        W85473  24.919  38.071  13.387
18691W        W85474   3.334  28.955  12.374
18692W        W85475   9.508   6.568  12.949
18693W        W85476  14.150  39.869  13.912
18694W        W85477  35.475  37.442   0.717
18695W        W85478   8.805  24.036  11.111
18696W        W85479  19.085  26.700  14.393
18697W        W85480  39.842  30.573  10.641
18698W        W85481  28.476  42.508  12.620
18699W        W85482  43.214  21.476   2.777
18700W        W85483  18.746  34.852  14.358
18701W        W85484  27.784  13.512   1.838
18702W        W85485  43.406  40.164  11.175
18703W        W85486  28.901  21.298   4.157
18704W        W85487  25.021  19.066   2.728
18705W        W85488  12.626  35.281  11.539
18706W        W85489  37.808  27.677  11.132
18707W        W85490  29.206  17.115  13.927
18708W        W85491  12.967   5.322   1.572
18709W        W85492   6.767  25.075  13.666
18710W        W85493  33.346   5.871   4.204
18711W        W85494  32.687  13.713  14.879
18712W        W85495  28.071  12.571  14.984
18713W        W85496  44.908  22.329  12.109
18714W        W85497  22.742   9.472   4.280
18715W        W85498  28.114  13.241  11.479
18716W        W85499  44.459   6.246  11.412
18717W        W85500  26.684  29.627   2.295
18718W        W85501  36.802  24.589   2.358
18719W        W85502   9.846  11.627   2.272
18720W        W85503  39.570  31.038   1.073
18721W        W85504   9.689  24.585  12.530
18722W        W85505   3.796  41.010  13.284
18723W        W85506  30.851  13.942  11.113
18724W        W85507  40.037  31.836   3.241
18725W        W85508   2.288  40.776  10.288
18726W        W85509  33.045  23.165   2.229
18727W        W85510  44.227  26.079   3.207
18728W        W85511   1.778  14.527  12.443
18729W        W85512  31.107  27.032   3.731
18730W        W85513  19.657  30.786  13.982
18731W        W85514  12.831  16.651  11.661
18732W        W85515  20.490  20.991  13.564
18733W        W85516  36.452   5.429  13.982
18734W        W85517   2.029  13.760  13.913
18735W        W85518   9.964  42.249   1.883
18736W        W85519  36.873  33.579   1.279
18737W        W85520  13.665  18.554  10.817
18738W        W85521  28.091  43.805  12.866
18739W        W85522  26.168   5.947   3.993
18740W        W85523   5.873  38.335  12.803
18741W        W85524  21.648  28.575  12.203
18742W        W85525   4.150  44.065   2.751
18743W        W85526  14.914  33.202  13.098
18744W        W85527  15.189  14.992   5.086
18745W        W85528  16.785  27.991  13.280
18746W        W85529  40.590  38.332  14.849
18747W        W85530  18.555  20.739  13.960
18748W        W85531  37.062   9.706  11.945
18749W        W85532  42.064  41.400   3.639
18750W        W85533  35.264  37.365   1.576
18751W        W85534  26.847  35.149  13.986
18752W        W85535  31.413   3.690   4.718
18753W        W85536  32.857  19.966  14.357
18754W        W85537   0.175  28.461  14.504
18755W        W85538   9.716  16.091   1.458
18756W        W85539  11.014  36.989   5.220
18757W        W85540   9.773  25.217   1.659
18758W        W85541  12.447  22.254   1.453
18759W        W85542   8.215  22.847  10.732
18760W        W85543   8.488  30.667   1.237
18761W        W85544  24.062  23.117  11.965
18762W        W85545  10.334   4.436  11.053
18763W        W85546  31.869  16.178  12.124
18764W        W85547   6.132  19.015   4.429
18765W        W85548  36.519  20.249  11.153
18766W        W85549  38.520  27.516  14.938
18767W        W85550  28.707  20.909  11.163
18768W        W85551   5.835  16.270   0.838
18769W        W85552  19.785  12.949  11.954
18770W        W85553  21.487  23.365   4.990
18771W        W85554  11.079  39.028  13.971
18772W        W85555  35.330  20.092  12.500
18773W        W85556  25.613   7.791  12.443
18774W        W85557  37.104  38.366  12.124
18775W        W85558  34.845  14.267   2.293
18776W        W85559  13.110  27.689  11.134
18777W        W85560  39.791  20.019   1.436
18778W        W85561  27.326   0.423  13.367
18779W        W85562  36.015  43.325   0.320
18780W        W85563  14.179  26.224   1.815
18781W        W85564  41.366  40.001  11.703
18782W        W85565  16.143  31.570   0.439
18783W        W85566  39.248  37.814  12.196
18784W        W85567  15.109  17.023  13.515
18785W        W85568  17.989  30.173   3.627
18786W        W85569  44.462  42.934  11.428
18787W        W85570  34.215  31.324  11.071
18788W        W85571  26.567   4.515  11.933
18789W        W85572  35.675  31.132  10.747
18790W        W85573  24.685  14.119   3.387
18791W        W85574  29.302  39.982  11.382
18792W        W85575  22.142   1.307  11.452
18793W        W85576  36.491  42.910  10.644
18794W        W85577  28.974  31.918   2.880
18795W        W85578  36.065  12.272   4.358
18796W        W85579   2.249  36.167  10.709
18797W        W85580  23.727   9.380  12.219
18798W        W85581  40.747  26.418   1.279
18799W        W85582  27.214  26.480   3.262
18800W        W85583   1.476   9.084  12.944
18801W        W85584  17.707  19.788   0.945
18802W        W85585  24.781   0.535  12.056
18803W        W85586  43.812  37.030  13.574
18804W        W85587   0.342  43.821  12.408
18805W        W85588  31.611  20.607  11.619
18806W        W85589   1.395  28.165  10.393
18807W        W85590  18.746   9.538   2.334
18808W        W85591  21.749  30.681   1.863
18809W        W85592  11.982  21.191  14.353
18810W        W85593  44.897  42.784  11.130
18811W        W85594  27.693   2.881  11.522
18812W        W85595  16.281  18.327   1.699
18813W        W85596  40.517  27.149   0.237
18814W        W85597  35.395  34.431   2.472
18815W        W85598  25.623  41.395  13.193
18816W        W85599  12.792  23.130  13.273
18817W        W85600  37.917  14.990   4.675
18818W        W85601  17.143  30.533   2.316
18819W        W85602  14.596  33.020  13.449
18820W        W85603  20.409   4.928  12.544
18821W        W85604  30.006   7.775  13.552
18822W        W85605  17.727  37.623   1.407
18823W        W85606  32.877   8.443  12.961
18824W        W85607  38.088  30.013   0.922
18825W        W85608   5.727  28.228   0.892
18826W        W85609  27.177  38.939   2.181
18827W        W85610  23.234   1.701  12.341
18828W        W85611  18.116  16.699   3.211
18829W        W85612  34.559   0.970   1.946
18830W        W85613  44.909  16.095  12.070
18831W        W85614   8.778  14.077  12.635
18832W        W85615  16.120   1.671   2.411
18833W        W85616  40.020   0.858   3.244
18834W        W85617  26.170  39.234  10.247
18835W        W85618  37.704  16.916   1.854
18836W        W85619  16.609  25.900  13.368
18837W        W85620  22.606  27.756   0.385
18838W        W85621  39.623  29.363   2.141
18839W        W85622   8.263   2.654   1.586
18840W        W85623  34.620  39.926   2.176
18841W        W85624  26.096   6.385   1.695
18842W        W85625   0.541  16.832   3.262
18843W        W85626  15.117   7.664   1.730
18844W        W85627  35.908  32.939   4.712
18845W        W85628  41.653  34.564  10.657
18846W        W85629   9.406  17.215  12.452
18847W        W85630  41.307  28.151   1.143
18848W        W85631  21.098  14.534  14.238
18849W        W85632   1.470  40.863  10.650
18850W        W85633  27.964  24.879   5.121
18851W        W85634  39.451  33.368  14.470
18852W        W85635  29.862  20.917   3.214
18853W        W85636  29.101  34.386  11.651
18854W        W85637  28.583  40.342   2.163
18855W        W85638  43.417  43.655  14.333
18856W        W85639  20.321  35.905   0.012
18857W        W85640  10.757  41.103   2.923
18858W        W85641  33.984   8.707   2.485
18859W        W85642  43.822  34.083   4.135
18860W        W85643  41.808   4.651   0.383
18861W        W85644  14.056   7.165   1.860
18862W        W85645  21.138  16.743   0.186
18863W        W85646  13.196  23.926  11.224
18864W        W85647  24.503  15.139  10.800
18865W        W85648   5.444  37.062  14.372
18866W        W85649  37.766  11.355   0.248
18867W        W85650  28.660  44.965  10.779
18868W        W85651  22.296  23.982  11.562
18869W        W85652  19.515   0.259  11.025
18870W        W85653  32.021  10.443  13.923
18871W        W85654  43.393  37.749   3.114
18872W        W85655   2.687  40.928  13.894
18873W        W85656  16.586  28.582   4.643
18874W        W85657  14.586  29.975   4.803
18875W        W85658   2.368  21.671   2.649
18876W        W85659   6.278  18.357   4.710
18877W        W85660  33.146  27.526  12.871
18878W        W85661  27.948  20.156  11.104
18879W        W85662   7.746  32.965   0.888
18880W        W85663  42.466   9.012   0.584
18881W        W85664  13.276   6.861   1.368
18882W        W85665  34.464  42.782   3.118
18883W        W85666  15.994  12.973   1.331
18884W        W85667  23.175  29.892  13.961
18885W        W85668  21.508   0.783  10.380
18886W        W85669   4.891  31.078   2.701
18887W        W85670   4.317  10.955  11.412
18888W        W85671  27.237  30.284  12.766
18889W        W85672  21.928  29.915   3.039
18890W        W85673   3.728  32.447  14.774
18891W        W85674  37.226  12.959  13.347
18892W        W85675   3.676  28.562  12.545
18893W        W85676  23.636  41.563   0.124
18894W        W85677  23.782   8.621   3.435
18895W        W85678  28.225  37.584   4.671
18896W        W85679  34.830  41.688   0.386
18897W        W85680  29.907  18.475   4.703
18898W        W85681  16.105   7.408  13.931
18899W        W85682  16.804  37.496   1.319
18900W        W85683  25.213  41.870  14.889
18901W        W85684   1.352  24.781   1.734
18902W        W85685  29.396  30.941   4.178
18903W        W85686  24.084  21.810   2.447
18904W        W85687  16.921  26.552  12.459
18905W        W85688  10.961  27.632  10.390
18906W        W85689  31.610  22.827   0.857
18907W        W85690  35.815  35.843   1.482
18908W        W85691  31.006  34.401  14.958
18909W        W85692  25.816  37.980  14.556
18910W        W85693  32.834  12.357  11.515
18911W        W85694  29.851  15.674   4.018
18912W        W85695   2.201  39.080   3.229
18913W        W85696  20.031  20.553  12.813
18914W        W85697   2.011  22.507  13.883
18915W        W85698  42.859  39.741  14.414
18916W        W85699   5.921   5.295  14.945
18917W        W85700  11.594  39.156  12.101
18918W        W85701  14.800  31.457   0.644
18919W        W85702   1.777   1.262  11.730
18920W        W85703   2.181   7.701   0.090
18921W        W85704  38.610  44.880  12.928
18922W        W85705   0.965   7.215   4.220
18923W        W85706   8.665   1.375  12.119
18924W        W85707  36.653   6.170  13.116
18925W        W85708   0.716  34.825   4.043
18926W        W85709  44.533  13.236  13.852
18927W        W85710  27.539  25.557  10.589
18928W        W85711  34.539  20.488   3.233
18929W        W85712  41.910  34.585  13.422
18930W        W85713  39.192   9.117  14.985
18931W        W85714  14.722  40.933   0.997
18932W        W85715  18.542   5.908   4.632
18933W        W85716  25.205  38.582   0.740
18934W        W85717  17.556  35.924  11.454
18935W        W85718  32.964  35.811   2.841
18936W        W85719  28.401  24.942  11.682
18937W        W85720  20.349   9.652  12.460
18938W        W85721  10.197  15.389  13.810
18939W        W85722  42.597  36.352   4.224
18940W        W85723  41.550   1.862   3.827
18941W        W85724  18.956   8.642   0.417
18942W        W85725  41.612  44.541  14.507
18943W        W85726  14.886  38.042   2.531
18944W        W85727  30.815  14.685   1.908
18945W        W85728  10.774  24.234   3.188
18946W        W85729  22.952  30.832  12.483
18947W        W85730  38.739  30.114   2.011
18948W        W85731  37.990  44.170   4.339
18949W        W85732  15.859  15.653  14.918
18950W        W85733  15.463  17.758   9.845
18951W        W85734  20.963  23.991   1.963
18952W        W85735   5.148  32.025   4.900
18953W        W85736  14.933  13.053  11.049
18954W        W85737  10.794  16.086  12.904
18955W        W85738   1.924  29.450  12.036
18956W        W85739  35.663  35.423   0.876
18957W        W85740  26.465   4.047  13.070
18958W        W85741  29.222   9.365   4.085
18959W        W85742  30.959   5.413   2.403
18960W        W85743   2.267  42.663   0.337
18961W        W85744  26.687  29.206  13.059
18962W        W85745  36.509  30.257  11.981
18963W        W85746  17.814  31.874   1.536
18964W        W85747   7.522  43.246  14.389
18965W        W85748  18.621  22.251   1.339
18966W        W85749  33.632  10.774  14.280
18967W        W85750  34.427   5.835  10.259
18968W        W85751   5.067  19.718  14.828
18969W        W85752   0.455   7.313  13.897
18970W        W85753  16.252  12.705  10.270
18971W        W85754   6.265  31.473  13.949
18972W        W85755  26.698   4.949   3.810
18973W        W85756  33.875  28.637  10.762
18974W        W85757  19.927  13.421  12.070
18975W        W85758  33.673  18.639  11.985
18976W        W85759  22.504   7.217   1.516
18977W        W85760  19.252   3.402  10.896
18978W        W85761  21.576  22.563   1.264
18979W        W85762  25.194  14.904   2.959
18980W        W85763  28.917  41.862  10.983
18981W        W85764  12.811   5.675   4.330
18982W        W85765  21.128  32.923   4.919
18983W        W85766  37.215   9.966   4.967
18984W        W85767  26.191  13.766  10.676
18985W        W85768  28.181  39.669  10.698
18986W        W85769  41.776  13.640  14.855
18987W        W85770  41.259  26.297  14.505
18988W        W85771   4.436  34.799  10.751
18989W        W85772  37.407  16.066   2.630
18990W        W85773  40.541   8.299  12.841
18991W        W85774  25.288  24.181   0.782
18992W        W85775  44.070  30.526   2.872
18993W        W85776  28.938  27.367   1.838
18994W        W85777  23.627  18.177  13.112
18995W        W85778  10.313  26.191  11.527
18996W        W85779   3.305  41.285   4.181
18997W        W85780  44.797   2.695   3.686
18998W        W85781  42.010  20.494  13.494
18999W        W85782  34.874   5.119  13.315
19000W        W85783   4.430  39.774  14.979
19001W        W85784  36.115  28.724  12.519
19002W        W85785  32.337  12.830  14.776
19003W        W85786  33.739   0.471  10.348
19004W        W85787  26.520  42.310   2.637
19005W        W85788  43.291   6.533  11.559
19006W        W85789  20.250  20.062  11.532
19007W        W85790  14.379  43.085  11.658
19008W        W85791  39.345   3.242  11.101
19009W        W85792  24.692  41.248   0.512
19010W        W85793  39.422   0.395   1.161
19011W        W85794   2.772  10.147  11.610
19012W        W85795  42.289  16.626  13.680
19013W        W85796   0.785  25.649  12.929
19014W        W85797  15.216  27.627  12.362
19015W        W85798  36.529  39.558  13.987
19016W        W85799  31.051  32.086  11.256
19017W        W85800  10.144  13.656   1.717
19018W        W85801  39.614  38.868   0.329
19019W        W85802   0.813  16.663   0.098
19020W        W85803  22.474  41.569  13.368
19021W        W85804  25.515  16.615  13.780
19022W        W85805  24.821  23.471  10.267
19023W        W85806   1.842  20.804  14.706
19024W        W85807  39.110  22.635   4.428
19025W        W85808  25.897  14.204  14.667
19026W        W85809  44.489  11.563   5.017
19027W        W85810  20.187   2.473  12.950
19028W        W85811  23.977  26.585   0.324
19029W        W85812  23.967  28.925   1.879
19030W        W85813  27.957  11.133  11.569
19031W        W85814  25.950  11.163  11.553
19032W        W85815   0.532  30.545   2.983
19033W        W85816  16.683  10.353  14.364
19034W        W85817  24.980   7.299  11.085
19035W        W85818  24.595  38.429   2.969
19036W        W85819  10.628  26.279   2.343
19037W        W85820  18.274  26.145   4.767
19038W        W85821  25.977  10.671   2.792
19039W        W85822   5.222   9.071   0.411
19040W        W85823   0.842  11.910   0.373
19041W        W85824  14.166  44.422   1.378
19042W        W85825   1.608  11.889  14.926
19043W        W85826  41.164   4.639   4.049
19044W        W85827  44.411  29.035   1.972
19045W        W85828  10.391  40.273   1.915
19046W        W85829  14.110  37.520  13.504
19047W        W85830  25.160  27.700  14.221
19048W        W85831  17.726   0.446   4.408
19049W        W85832  40.215  19.705   0.493
19050W        W85833  38.830  27.569  13.445
19051W        W85834  20.999  42.346  11.944
19052W        W85835   4.661  30.382   0.013
19053W        W85836  29.693  17.979  14.184
19054W        W85837  16.883  40.107  11.024
19055W        W85838  22.505  26.040  14.885
19056W        W85839  17.569  26.643  11.099
19057W        W85840  41.393  33.423   0.115
19058W        W85841  43.240  12.723   4.566
19059W        W85842  35.460  32.938  14.768
19060W        W85843   2.917  10.827  12.008
19061W        W85844  10.385  34.008   4.631
19062W        W85845   1.205  12.405   1.013
19063W        W85846  11.865   7.317  13.570
19064W        W85847  15.534  41.281   0.949
19065W        W85848  36.410   2.833  10.931
19066W        W85849  43.297  24.476  12.477
19067W        W85850   7.796  29.501   1.796
19068W        W85851   6.708  34.783  14.310
19069W        W85852   5.848  17.230  14.392
19070W        W85853  39.426   3.449   3.305
19071W        W85854  23.792  41.392   3.163
19072W        W85855  25.365  44.118   4.965
19073W        W85856  23.040   3.317   3.574
19074W        W85857  36.790  42.808   1.421
19075W        W85858  21.569  19.293   3.134
19076W        W85859   3.465   4.692   2.867
19077W        W85860  23.655  18.748  13.311
19078W        W85861  35.067  27.548  10.610
19079W        W85862  36.366  22.451   2.205
19080W        W85863  43.199  37.305   4.364
19081W        W85864  26.997  16.812   3.161
19082W        W85865   2.899  17.817   4.865
19083W        W85866  29.618  34.281   1.578
19084W        W85867  18.733  28.499  14.533
19085W        W85868  39.012  24.550  14.500
19086W        W85869  28.762  25.055   1.378
19087W        W85870  41.487  38.315   1.049
19088W        W85871   0.161  37.136   0.900
19089W        W85872   1.626   5.630  11.114
19090W        W85873   2.678  42.875  11.638
19091W        W85874  22.496  19.184  12.930
19092W        W85875  11.345  42.533   2.091
19093W        W85876  33.539   1.880  13.272
19094W        W85877  10.227  43.727   3.173
19095W        W85878   7.056  24.583  11.509
19096W        W85879  20.145  38.981  11.481
19097W        W85880  43.521  18.737  14.820
19098W        W85881  35.666  10.269  14.936
19099W        W85882  20.205  13.903  12.555
19100W        W85883  12.288  28.158   0.319
19101W        W85884  12.946  39.380  12.154
19102W        W85885  14.973   9.817   9.983
19103W        W85886   9.112  30.421  11.176
19104W        W85887  24.964  18.155   1.719
19105W        W85888  13.481  11.354   0.523
19106W        W85889  44.693  33.368  10.769
19107W        W85890   5.501  27.536  14.438
19108W        W85891  15.479   0.743   1.877
19109W        W85892  27.455  21.515   3.289
19110W        W85893  10.941  13.697  11.153
19111W        W85894  27.209  13.848   4.470
19112W        W85895   4.774  34.618   2.380
19113W        W85896   3.481  44.788   0.266
19114W        W85897  32.678  20.967  11.762
19115W        W85898   2.731  29.648   1.433
19116W        W85899  37.238  13.187  11.541
19117W        W85900  12.196  11.400  13.352
19118W        W85901  23.748  17.680  11.147
19119W        W85902  37.036  15.714  13.057
19120W        W85903  31.053   8.794   2.422
19121W        W85904  34.309  11.377   0.211
19122W        W85905  18.738  41.251  14.342
19123W        W85906  32.137  37.566   3.786
19124W        W85907   7.680  18.183   0.842
19125W        W85908   3.149  10.649   2.973
19126W        W85909   0.535  10.273  14.900
19127W        W85910  34.624  12.675   2.192
19128W        W85911  26.359  35.586  14.353
19129W        W85912  12.699   9.697  11.174
19130W        W85913  26.209  38.993   4.120
19131W        W85914   9.363  10.092   3.334
19132W        W85915  15.879  29.252  13.544
19133W        W85916  22.181  15.627  11.080
19134W        W85917  43.815  35.481  14.489
19135W        W85918  29.399  13.429   3.164
19136W        W85919  40.292  13.678   3.298
19137W        W85920   6.222  43.278   2.885
19138W        W85921  10.585  35.429   2.159
19139W        W85922  30.627  12.108   4.934
19140W        W85923  41.496  27.159  13.969
19141W        W85924  36.605  24.530   4.237
19142W        W85925  17.030   1.428   1.219
19143W        W85926  32.005   2.306   1.782
19144W        W85927  30.043  25.636   0.010
19145W        W85928  17.696   6.941  13.270
19146W        W85929   4.358  35.897   1.159
19147W        W85930  36.437   0.782  12.004
19148W        W85931   6.955   1.564   3.704
19149W        W85932  17.136  17.676  11.980
19150W        W85933   2.204  25.141   1.900
19151W        W85934  34.515   8.271   0.739
19152W        W85935  35.943  44.482   2.889
19153W        W85936   2.256   0.888  14.824
19154W        W85937  33.766  22.254  12.298
19155W        W85938  11.095  43.316  10.976
19156W        W85939  27.064  12.694  12.195
19157W        W85940  37.514   0.231  11.193
19158W        W85941  20.098   1.864   4.475
19159W        W85942  37.790   1.507  14.534
19160W        W85943  34.431  41.661  10.800
19161W        W85944  14.761  19.240   4.769
19162W        W85945  31.986  26.554  13.387
19163W        W85946   8.178  38.860  12.640
19164W        W85947  24.674  30.517   3.775
19165W        W85948  32.225  19.117   3.641
19166W        W85949   7.981   7.683   2.105
19167W        W85950  32.645   2.024  11.141
19168W        W85951  19.143   2.698   4.899
19169W        W85952   8.265  28.727   4.504
19170W        W85953   3.452  21.759   0.801
19171W        W85954  10.467  15.802   2.770
19172W        W85955   2.360  12.320   4.313
19173W        W85956   1.981  11.392  12.027
19174W        W85957  23.511  34.524   3.841
19175W        W85958  11.704   4.801   2.274
19176W        W85959  42.457   5.381   3.310
19177W        W85960   9.031   9.401   2.213
19178W        W85961  42.522  20.602  13.937
19179W        W85962   6.172  21.829   0.274
19180W        W85963  37.888  33.712  13.224
19181W        W85964  17.774  40.838  11.475
19182W        W85965  10.757  28.952   2.803
19183W        W85966  44.025  18.072  13.836
19184W        W85967  32.368  25.895  11.247
19185W        W85968  33.525  33.389   4.545
19186W        W85969  30.527  27.904  11.586
19187W        W85970  44.987  21.152  13.714
19188W        W85971   0.693  44.172   4.796
19189W        W85972  41.425  44.701   4.903
19190W        W85973   5.445  10.474  11.354
19191W        W85974  37.818  36.685  13.163
19192W        W85975  42.858  32.804   3.863
19193W        W85976  14.674  39.865  13.909
19194W        W85977  10.396   6.511  12.904
19195W        W85978  21.735  25.220  11.551
19196W        W85979  12.847  25.585  13.542
19197W        W85980  18.997  37.569  13.460
19198W        W85981  10.243  41.354  14.867
19199W        W85982  18.057  34.491  12.386
19200W        W85983   6.297  29.104  13.448
19201W        W85984  30.214   7.604  14.382
19202W        W85985  37.826   5.411   4.094
19203W        W85986  28.367   0.725   3.245
19204W        W85987  35.832   1.899  13.480
19205W        W85988  18.833  36.833  12.602
19206W        W85989   5.088   1.822   2.681
19207W        W85990   4.967  23.562  14.354
19208W        W85991  38.504  24.603   1.448
19209W        W85992  16.918   5.087  12.157
19210W        W85993   6.426  11.883  10.601
19211W        W85994  22.677  17.339   2.711
19212W        W85995   9.851  40.906  10.737
19213W        W85996  23.633  25.444  13.994
19214W        W85997   3.863  44.024  11.222
19215W        W85998  23.018  23.792  12.888
19216W        W85999  14.075  23.086   3.697
19217W        W86000  32.544  43.249  10.557
19218W        W86001  30.221  14.902   0.083
19219W        W86002  34.763   7.913   4.626
19220W        W86003  22.834  37.860   1.390
19221W        W86004  33.633  43.299  13.300
19222W        W86005  41.931  12.648   4.221
19223W        W86006   1.143  14.789  11.605
19224W        W86007  41.806   9.827   3.307
19225W        W86008   4.377  38.679  11.847
19226W        W86009  35.485  33.163  11.578
19227W        W86010  26.386  33.870   2.892
19228W        W86011  10.224  12.103   3.644
19229W        W86012   2.234   3.363  10.652
19230W        W86013  10.728  40.318   3.820
19231W        W86014   0.945  22.039  14.565
19232W        W86015  18.710  20.735   1.997
19233W        W86016  34.144   7.835  13.445
19234W        W86017  30.954   7.031  10.188
19235W        W86018   4.733   0.858  13.411
19236W        W86019  30.153  14.359  13.405
19237W        W86020  30.761   2.242  14.132
19238W        W86021   9.126  15.229   3.369
19239W        W86022  31.619  20.708  12.532
19240W        W86023  20.454  40.740   1.861
19241W        W86024  25.774  16.020  11.183
19242W        W86025  38.052  18.836   0.274
19243W        W86026  22.055  42.504   4.914
19244W        W86027   3.209  15.266  12.437
19245W        W86028  28.974  31.715   4.175
19246W        W86029  36.363  43.385  11.971
19247W        W86030  27.339   1.847  14.024
19248W        W86031  30.468   0.366   2.299
19249W        W86032  10.594  10.336   2.740
19250W        W86033  26.489  21.669  12.870
19251W        W86034  27.805  11.757  11.967
19252W        W86035  29.095  13.654   4.835
19253W        W86036  31.425  16.699   4.249
19254W        W86037  37.993   1.419  10.919
19255W        W86038  30.394  43.973   1.375
19256W        W86039  42.769  21.917   4.003
19257W        W86040  22.051  22.833   0.824
19258W        W86041  34.022  23.703   3.646
19259W        W86042  37.987  39.031  11.666
19260W        W86043  13.770  38.968   2.622
19261W        W86044  29.160   8.882   2.455
19262W        W86045  18.558  22.176   1.853
19263W        W86046  40.509  32.925   3.786
19264W        W86047   9.319  33.536   0.375
19265W        W86048  21.122   7.099  12.052
19266W        W86049  18.624  37.787  11.205
19267W        W86050  14.270   6.388   4.600
19268W        W86051  19.741  12.359  12.945
19269W        W86052  33.960  18.384   0.473
19270W        W86053  42.749  10.721  12.485
19271W        W86054  36.024  25.681   1.310
19272W        W86055  31.121  29.621   4.852
19273W        W86056  38.672  33.391  11.458
19274W        W86057  11.757  37.574  11.437
19275W        W86058   1.730   4.857  10.623
19276W        W86059  37.524  19.447  10.994
19277W        W86060  19.751   0.948  13.085
19278W        W86061  37.812  21.057   4.425
19279W        W86062   2.221   7.635   2.267
19280W        W86063   3.216  16.117   4.099
19281W        W86064   8.074  11.440   1.549
19282W        W86065  38.881   0.322   0.161
19283W        W86066  27.124  20.559   1.789
19284W        W86067  22.384   4.305  12.951
19285W        W86068  39.806  34.895   1.130
19286W        W86069  44.837   1.823   0.427
19287W        W86070  30.150  44.435   1.246
19288W        W86071  29.049  25.150   0.482
19289W        W86072   5.198  25.963   2.888
19290W        W86073  22.189  16.748  13.943
19291W        W86074  26.113   8.713   2.231
19292W        W86075  27.651  33.819  13.934
19293W        W86076  44.049  23.146  13.477
19294W        W86077   2.034  26.657   1.697
19295W        W86078  21.331  41.284   0.503
19296W        W86079   4.855   3.492   3.002
19297W        W86080   5.948   2.986   0.853
19298W        W86081  13.241  12.200   4.591
19299W        W86082  36.810  43.841  11.178
19300W        W86083  37.504   5.161  14.329
19301W        W86084  29.071  16.020  10.706
19302W        W86085  41.119  18.504  12.874
19303W        W86086  12.704  35.609   1.767
19304W        W86087  30.215   9.808   2.687
19305W        W86088  21.245  29.393  14.881
19306W        W86089  32.988  25.041   4.833
19307W        W86090  27.744  12.800  11.078
19308W        W86091  33.127  15.837   0.431
19309W        W86092  15.495   7.051  13.344
19310W        W86093  16.797  31.042   0.012
19311W        W86094  26.201  18.168   4.392
19312W        W86095  28.201  32.965   2.388
19313W        W86096  35.918  33.481   1.222
19314W        W86097  17.126  31.167  14.553
19315W        W86098   9.427  31.610  12.333
19316W        W86099  32.743  28.662  13.499
19317W        W86100   6.562   2.908   1.523
19318W        W86101  42.501   4.968  12.982
19319W        W86102  11.409  13.160  13.867
19320W        W86103  41.438  35.828   3.897
19321W        W86104  13.261  21.926  10.964
19322W        W86105  16.103  14.579  14.409
19323W        W86106   7.464  11.486   3.721
19324W        W86107  32.757  39.314  13.055
19325W        W86108  13.427   8.988   1.467
19326W        W86109  33.626  27.524   2.348
19327W        W86110   8.731  23.769   0.338
19328W        W86111  33.575  16.678   1.421
19329W        W86112   3.678  34.020  12.021
19330W        W86113   4.882   8.141   1.254
19331W        W86114  38.395  29.922  13.561
19332W        W86115   1.913  31.190   3.359
19333W        W86116  32.564  44.872   3.216
19334W        W86117  43.778   7.184  13.512
19335W        W86118  43.536   2.213   3.641
19336W        W86119  13.047  33.984  13.795
19337W        W86120  32.979  15.917  11.013
19338W        W86121  24.994  31.983   4.078
19339W        W86122   8.346  13.238  12.178
19340W        W86123  25.632  25.666  12.576
19341W        W86124  22.685   8.894  11.899
19342W        W86125  31.746  33.041   3.880
19343W        W86126  18.557  10.698   0.746
19344W        W86127  40.663  19.507  13.057
19345W        W86128   6.813  43.221  10.593
19346W        W86129  10.660  12.680   4.331
19347W        W86130  25.928  30.592   1.296
19348W        W86131   2.165   7.187  11.209
19349W        W86132  35.838   0.217   3.857
19350W        W86133  33.388  41.424   2.834
19351W        W86134  29.559  25.002   5.000
19352W        W86135  26.169  38.971   2.175
19353W        W86136  26.728   7.637  13.039
19354W        W86137  35.825  37.309   2.770
19355W        W86138  14.230  25.098   0.906
19356W        W86139   7.379  29.151   1.883
19357W        W86140   3.824   6.461  12.729
19358W        W86141  30.637   5.865   3.100
19359W        W86142  42.766  18.324   0.733
19360W        W86143  23.869  43.224  11.311
19361W        W86144  13.633  37.472  13.302
19362W        W86145  12.556  25.149   2.676
19363W        W86146   4.436  23.139  14.473
19364W        W86147  33.669  15.999   2.183
19365W        W86148   4.604  14.212   3.274
19366W        W86149  28.044  25.252  10.124
19367W        W86150  32.526  41.292   2.893
19368W        W86151  32.139  42.863   0.440
19369W        W86152  28.564  36.536   2.249
19370W        W86153   9.547  43.322   0.348
19371W        W86154  12.786  13.663   3.814
19372W        W86155  33.632  18.135  14.023
19373W        W86156  11.239  24.751   2.806
19374W        W86157  32.445  20.627  12.120
19375W        W86158  13.868  24.530  11.563
19376W        W86159  14.785   8.173   3.724
19377W        W86160  21.572  26.239   1.874
19378W        W86161  44.743  35.931   0.458
19379W        W86162   1.486  41.608  13.045
19380W        W86163  11.418  20.021   2.290
19381W        W86164   7.859  19.960  12.920
19382W        W86165  19.548  38.613   2.727
19383W        W86166   3.703   2.834   3.246
19384W        W86167  30.913  32.344   1.258
19385W        W86168  17.281  38.612  11.067
19386W        W86169  38.790  18.415  10.555
19387W        W86170  38.522  10.158  12.080
19388W        W86171  17.988  21.156   3.216
19389W        W86172   9.050  11.319   1.572
19390W        W86173   9.595  16.780   0.291
19391W        W86174  30.886  26.883   2.739
19392W        W86175  19.589  10.301  11.495
19393W        W86176  40.806  30.653  11.542
19394W        W86177  38.306  15.756  10.741
19395W        W86178  43.256  39.615  12.910
19396W        W86179   0.459  44.385   4.181
19397W        W86180  23.685  17.033   3.832
19398W        W86181   7.445  37.502  13.847
19399W        W86182   1.440  44.666   3.172
19400W        W86183   6.352  27.212   0.395
19401W        W86184  37.898  31.608  12.954
19402W        W86185  14.050  33.016  14.831
19403W        W86186  34.654  32.358  13.363
19404W        W86187   7.564  15.425   2.657
19405W        W86188  38.905  30.908   3.624
19406W        W86189  10.125  18.656  13.942
19407W        W86190  34.596  35.580  13.066
19408W        W86191   5.686  16.143  12.961
19409W        W86192  15.351  33.417  12.052
19410W        W86193  32.726   7.515   1.790
19411W        W86194  44.294  41.835  12.345
19412W        W86195  13.603   6.930  13.571
19413W        W86196  23.042  14.739   1.717
19414W        W86197  31.364   0.835  12.018
19415W        W86198   7.274   1.239   3.923
19416W        W86199   2.204  22.071  13.072
19417W        W86200  35.539  39.909   3.110
19418W        W86201   8.245  11.204   2.807
19419W        W86202  36.596   5.931  13.861
19420W        W86203  28.098  27.424  11.814
19421W        W86204  17.548  23.223   3.663
19422W        W86205  18.113  13.051   4.996
19423W        W86206  25.220  37.892   5.038
19424W        W86207   7.356  34.939   0.726
19425W        W86208   1.722   7.834  14.441
19426W        W86209   5.494  32.161   0.745
19427W        W86210  26.556  25.769  11.395
19428W        W86211  24.511  41.088   3.830
19429W        W86212  21.304  14.003  10.953
19430W        W86213  36.041  41.883  14.796
19431W        W86214  20.595  12.523   9.923
19432W        W86215  40.529  42.532  13.273
19433W        W86216  28.908  18.017  11.760
19434W        W86217  43.207  32.057   1.394
19435W        W86218   2.877  40.546   4.566
19436W        W86219   6.889  18.342  13.747
19437W        W86220  43.323  27.544   0.304
19438W        W86221  16.132  36.884  12.832
19439W        W86222  13.885  37.058  13.524
19440W        W86223  43.761  16.805   5.092
19441W        W86224  13.146   9.063   3.115
19442W        W86225  20.475  14.376  13.488
19443W        W86226  38.809   5.939  11.059
19444W        W86227  22.159  20.068  14.852
19445W        W86228  23.620  31.329   1.737
19446W        W86229  40.103   3.956  12.895
19447W        W86230   6.448  30.112   0.105
19448W        W86231  44.315  29.233  14.988
19449W        W86232  18.372  15.211   1.451
19450W        W86233   3.667  13.414  10.953
19451W        W86234   9.006  32.351   2.791
19452W        W86235   8.746  40.051   2.442
19453W        W86236  11.775  43.651   4.645
19454W        W86237  28.381  39.252  11.985
19455W        W86238  43.807  30.031  14.676
19456W        W86239  37.061  21.805  10.971
19457W        W86240  20.552  30.619  12.664
19458W        W86241  41.893  25.041  11.103
19459W        W86242  30.613   7.165  11.503
19460W        W86243  22.519  11.806   1.667
19461W        W86244  36.411  13.164  12.075
19462W        W86245  29.235  30.071   2.300
19463W        W86246  27.754  36.994  12.943
19464W        W86247  25.189  27.667   4.615
19465W        W86248   3.505  11.154   0.672
19466W        W86249  16.546  20.674  12.382
19467W        W86250  29.172  25.073   3.661
19468W        W86251   1.703  16.853   4.505
19469W        W86252  10.888  33.476  14.446
19470W        W86253  14.833  19.653  11.564
19471W        W86254  15.698  39.363  12.511
19472W        W86255  14.144  19.017   3.742
19473W        W86256  37.006  30.745  14.800
19474W        W86257  12.201  28.200   1.262
19475W        W86258  39.372  20.994   0.192
19476W        W86259  28.962  14.989  12.841
19477W        W86260  25.632   8.801  13.776
19478W        W86261  40.487  17.600  14.236
19479W        W86262  38.034  38.647   1.957
19480W        W86263  13.842  33.338   1.261
19481W        W86264  26.450  10.047   2.367
19482W        W86265  25.143   5.841  12.952
19483W        W86266  27.372  25.496   1.898
19484W        W86267  15.065  17.841   2.426
19485W        W86268  44.749  10.765   3.251
19486W        W86269  10.113  20.750   0.022
19487W        W86270  34.879   5.462   2.392
19488W        W86271  26.013  24.116  14.263
19489W        W86272  25.644  27.081  12.530
19490W        W86273  19.911  14.310  12.454
19491W        W86274  11.139  41.874  12.067
19492W        W86275  19.090  42.610   2.664
19493W        W86276  44.800  42.391   3.928
19494W        W86277   9.393  35.049  12.358
19495W        W86278  25.874  30.665   4.227
19496W        W86279  19.810  16.187  10.381
19497W        W86280  43.578  34.600   3.237
19498W        W86281  15.661  18.158   4.304
19499W        W86282  12.325  20.121   0.221
19500W        W86283  41.512   0.255   4.647
19501W        W86284  40.481  43.987   3.302
19502W        W86285  31.011  40.677   4.063
19503W        W86286  18.739  17.325   2.744
19504W        W86287   8.243   4.275   0.067
19505W        W86288   0.793  12.724   2.422
19506W        W86289  39.058  15.254   2.897
19507W        W86290  10.793  26.462  11.545
19508W        W86291   0.191  25.686  12.045
19509W        W86292  32.600  42.266   0.815
19510W        W86293  34.951  34.842   1.026
19511W        W86294  16.441  26.055  11.265
19512W        W86295  33.990  24.567   3.902
19513W        W86296  23.186  22.739   3.089
19514W        W86297  39.390  36.355   1.967
19515W        W86298  18.787   5.815   2.394
19516W        W86299  38.851  17.253  13.029
19517W        W86300  42.685  42.475   1.886
19518W        W86301   3.276  12.369   1.822
19519W        W86302  33.384   7.274  12.566
19520W        W86303   9.468  38.814  10.122
19521W        W86304  23.385  39.473   4.200
19522W        W86305   1.403  42.154  13.115
19523W        W86306  13.123   9.676  11.528
19524W        W86307   3.173   0.144   2.852
19525W        W86308   5.947   3.604   4.243
19526W        W86309  27.542   1.506   4.289
19527W        W86310   3.832  17.015  13.214
19528W        W86311  41.535  23.783  14.545
19529W        W86312  35.077   3.541  10.300
19530W        W86313  39.220  39.971   4.539
19531W        W86314  19.781  27.537  13.858
19532W        W86315  35.588   0.311  12.183
19533W        W86316   0.068  27.989  10.512
19534W        W86317  23.752   8.132   1.150
19535W        W86318  42.637  16.404   4.948
19536W        W86319   6.366  15.969   3.605
19537W        W86320  21.462  35.976  13.042
19538W        W86321   7.869  43.219   2.231
19539W        W86322   1.484   2.978   0.487
19540W        W86323  33.952  23.943  14.162
19541W        W86324  38.487  12.330   1.727
19542W        W86325  36.436  38.615  10.439
19543W        W86326  32.379  11.776   3.624
19544W        W86327  33.681  43.984   2.407
19545W        W86328  38.118  20.761   4.731
19546W        W86329  26.220  12.186  12.950
19547W        W86330   4.136  32.425   0.084
19548W        W86331  25.087  38.360   2.794
19549W        W86332  38.021  41.070   3.419
19550W        W86333  44.617  10.932   0.758
19551W        W86334  34.680  13.035   4.589
19552W        W86335  35.808  42.068  12.934
19553W        W86336  25.706   1.894   4.582
19554W        W86337  21.516  16.646   1.933
19555W        W86338  33.560  32.569  12.322
19556W        W86339   1.684  17.305   3.590
19557W        W86340   6.472  12.894   2.537
19558W        W86341  15.373  28.605   2.276
19559W        W86342  14.231  40.957  13.991
19560W        W86343  15.737  32.846   2.039
19561W        W86344  12.717  23.290  13.972
19562W        W86345  35.484  31.995  14.964
19563W        W86346  38.052  14.727  13.368
19564W        W86347   3.851   0.835   3.230
19565W        W86348  14.369  24.164  13.977
19566W        W86349  43.895  41.703  13.095
19567W        W86350  35.440   8.807   2.608
19568W        W86351  21.061  18.019  14.331
19569W        W86352  36.674  41.530   3.590
19570W        W86353  19.921  33.094  11.110
19571W        W86354  25.109  37.782   1.396
19572W        W86355  12.341  28.162  14.416
19573W        W86356  32.153  30.395   2.411
19574W        W86357  42.151  20.172   2.450
19575W        W86358   4.267  13.400   4.738
19576W        W86359  28.082   9.212  11.604
19577W        W86360   2.364   8.795  13.360
19578W        W86361  14.365  38.481  12.519
19579W        W86362  14.824  35.468  11.974
19580W        W86363  40.797   7.565   0.978
19581W        W86364  15.252   8.406   3.670
19582W        W86365  43.719  19.816   3.593
19583W        W86366  39.034  25.472   0.570
19584W        W86367  24.660   1.367   0.029
19585W        W86368   5.772  19.999  13.874
19586W        W86369  37.192  35.740   4.389
19587W        W86370  25.661  23.560  13.289
19588W        W86371  28.929  40.002  11.015
19589W        W86372   5.910  40.752   0.300
19590W        W86373  24.734   6.304  11.000
19591W        W86374  44.353  17.959  10.517
19592W        W86375  24.657  24.364  13.139
19593W        W86376  42.464  18.157  14.056
19594W        W86377  22.273   9.773  14.499
19595W        W86378   8.112  31.019  13.092
19596W        W86379  39.565  41.595   0.306
19597W        W86380  33.534  19.967   3.968
19598W        W86381  10.260  37.445  14.300
19599W        W86382  30.380  38.148   3.720
19600W        W86383  42.770  37.293   4.060
19601W        W86384  35.005  43.287   1.430
19602W        W86385  34.175  22.121   4.560
19603W        W86386  16.618  32.386   0.214
19604W        W86387  34.365  21.204  14.230
19605W        W86388  14.881  18.293  11.709
19606W        W86389  22.494  43.480   1.370
19607W        W86390   8.240  21.995  13.500
19608W        W86391  20.743  21.036   0.994
19609W        W86392  40.384  42.378   1.412
19610W        W86393  10.329  31.724  14.817
19611W        W86394  27.421  29.916   3.197
19612W        W86395  40.280  39.468  11.370
19613W        W86396  33.626  36.391   0.399
19614W        W86397  30.074  30.394  13.084
19615W        W86398   3.814   3.934  11.065
19616W        W86399  17.023  32.627   3.543
19617W        W86400   7.435   6.536  13.967
19618W        W86401  21.428  17.554  10.742
19619W        W86402  14.287  40.458  11.030
19620W        W86403  21.483  34.503   0.762
19621W        W86404   4.274  20.771   3.130
19622W        W86405  44.872  23.456   1.429
19623W        W86406  10.803  33.593  13.937
19624W        W86407  18.938   1.900  10.214
19625W        W86408   1.157  34.729  11.818
19626W        W86409  23.133  38.544   4.357
19627W        W86410  38.848  20.982   1.008
19628W        W86411  13.869  35.434  13.806
19629W        W86412  10.101  15.876  12.922
19630W        W86413  41.995  19.042   2.665
19631W        W86414  31.645  12.992   2.920
19632W        W86415  25.813  42.156  10.998
19633W        W86416   9.814  11.046   2.169
19634W        W86417  23.244  39.485  12.027
19635W        W86418   1.136  40.192   1.730
19636W        W86419  35.355  42.527  14.098
19637W        W86420  12.783  34.334   1.279
19638W        W86421  42.321   5.330  11.191
19639W        W86422   8.236  12.042   2.459
19640W        W86423  40.899  38.350   3.069
19641W        W86424  40.002  27.112   0.303
19642W        W86425   9.630  34.528  14.811
19643W        W86426  11.954  29.757   2.827
19644W        W86427  13.347  18.264   5.055
19645W        W86428   8.275  34.315   2.164
19646W        W86429  37.599  35.134   3.332
19647W        W86430  11.203  17.800  10.866
19648W        W86431   1.086  32.034  14.400
19649W        W86432  10.168  30.724  13.933
19650W        W86433  29.863  11.819  12.088
19651W        W86434  28.965  17.024  11.642
19652W        W86435  21.715  19.450   2.142
19653W        W86436  18.731  36.396  12.321
19654W        W86437  38.465  21.518  11.459
19655W        W86438  13.108   0.313   2.906
19656W        W86439  33.106  41.544   2.226
19657W        W86440  38.614  26.217   3.273
19658W        W86441  31.562   1.015   2.466
19659W        W86442  28.699  33.609   1.155
19660W        W86443  20.702  14.083   1.944
19661W        W86444  34.342  29.213   2.737
19662W        W86445  37.135  17.759  12.400
19663W        W86446  40.446   8.342   1.307
19664W        W86447  25.005  17.767  11.693
19665W        W86448  16.145  29.645  12.623
19666W        W86449   1.711   7.536   2.772
19667W        W86450   6.644  17.543  12.447
19668W        W86451  37.824  10.501   2.645
19669W        W86452   7.078  41.924   0.087
19670W        W86453  42.863  39.455  12.003
19671W        W86454  25.011  37.291  14.426
19672W        W86455  24.533   9.561   0.714
19673W        W86456  17.105  26.470   0.492
19674W        W86457  25.909   5.403   2.055
19675W        W86458  26.611  12.650   0.995
19676W        W86459  12.598  22.270   2.942
19677W        W86460  21.622  32.354  11.703
19678W        W86461  24.643  41.470  11.073
19679W        W86462  21.278   9.105   2.636
19680W        W86463   5.377  35.846  11.552
19681W        W86464  31.376  22.139  13.864
19682W        W86465   1.004  12.026   4.590
19683W        W86466  31.171  19.076   2.361
19684W        W86467  18.340  33.837   1.432
19685W        W86468  14.980  39.421   5.326
19686W        W86469  41.757   1.793   2.775
19687W        W86470  11.686  33.994   2.280
19688W        W86471  25.222  39.492   3.629
19689W        W86472  12.392  11.200  10.635
19690W        W86473  37.439   0.049  14.507
19691W        W86474  34.983  26.030  11.598
19692W        W86475  19.454   2.377   1.350
19693W        W86476  37.755  36.889  11.403
19694W        W86477  13.363  36.448  11.845
19695W        W86478   1.113  35.578   2.873
19696W        W86479   5.855  43.722  13.505
19697W        W86480  44.786  31.981  13.454
19698W        W86481  19.570  43.440  14.792
19699W        W86482   6.151  25.315  11.172
19700W        W86483  20.705   7.906   1.592
19701W        W86484  16.802  16.173  13.569
19702W        W86485   7.221   1.750  11.130
19703W        W86486  12.781  27.956  12.848
19704W        W86487  25.084  35.366   0.714
19705W        W86488  39.799  40.236  10.532
19706W        W86489  20.606  16.550   0.787
19707W        W86490  41.487  22.654   4.193
19708W        W86491  36.727   9.802  11.566
19709W        W86492  23.132  24.417   3.219
19710W        W86493   8.638  31.908  13.501
19711W        W86494  13.962  19.506  13.695
19712W        W86495  24.528  12.700   3.261
19713W        W86496   6.613   6.096  12.527
19714W        W86497  34.983  21.264  13.051
19715W        W86498  19.368  22.033  12.022
19716W        W86499  26.915   5.916  10.819
19717W        W86500  33.165   7.887  12.118
19718W        W86501   3.330  41.953   1.177
19719W        W86502   8.816   8.645  11.135
19720W        W86503  44.217   5.760   0.436
19721W        W86504  34.128  18.713  11.103
19722W        W86505  34.077  13.776  11.426
19723W        W86506  43.317  40.802   3.734
19724W        W86507  29.945  30.947  11.984
19725W        W86508  44.517  37.553   3.082
19726W        W86509  26.957  17.634  14.339
19727W        W86510  16.415  26.715   2.661
19728W        W86511  39.948  18.272  14.814
19729W        W86512  30.540  28.530  12.224
19730W        W86513  10.150   9.849   0.867
19731W        W86514  23.694  29.000   1.320
19732W        W86515  36.275   7.341   1.357
19733W        W86516  13.590  29.388  13.185
19734W        W86517  30.176   0.984   3.746
19735W        W86518  14.566  20.489   1.420
19736W        W86519  29.646  28.429   0.187
19737W        W86520   8.745   8.011  14.815
19738W        W86521  34.917   5.535  13.758
19739W        W86522  11.515  20.462   2.602
19740W        W86523   8.714   0.571  12.581
19741W        W86524  17.979  19.156   1.471
19742W        W86525   6.480  40.682  11.833
19743W        W86526  25.449  38.329   4.054
19744W        W86527  23.238  10.706  11.328
19745W        W86528  12.874   0.611   0.625
19746W        W86529   6.442  42.967   1.466
19747W        W86530   1.805  13.083  12.680
19748W        W86531  34.677  24.868   5.022
19749W        W86532  37.999  43.996   3.518
19750W        W86533  24.611  27.169  13.763
19751W        W86534  17.906   2.231   2.781
19752W        W86535  14.665   9.320  14.974
19753W        W86536  36.544  14.373  12.447
19754W        W86537  19.980  25.658   4.212
19755W        W86538  11.704  38.046  10.607
19756W        W86539  44.092  10.209  10.676
19757W        W86540  33.489  37.578   4.541
19758W        W86541  20.598   2.359  12.342
19759W        W86542   8.880  44.441   2.178
19760W        W86543  17.994   4.962   0.371
19761W        W86544  42.034  35.353  12.799
19762W        W86545  42.328  42.556  13.043
19763W        W86546  17.984  32.405  10.627
19764W        W86547  14.568  33.192   1.163
19765W        W86548  13.643  32.362  14.963
19766W        W86549  31.811  11.797   4.511
19767W        W86550  28.173  42.332  11.108
19768W        W86551  19.699  40.020   0.035
19769W        W86552  21.597  23.087   0.962
19770W        W86553  22.989  40.480   0.942
19771W        W86554  18.627  26.618   2.460
19772W        W86555  44.879  17.198  10.214
19773W        W86556  10.524  38.298  14.778
19774W        W86557  42.952  32.334  10.493
19775W        W86558  22.528   7.288   2.461
19776W        W86559   6.398  43.878   4.601
19777W        W86560  10.430  17.598   1.724
19778W        W86561   7.738  10.374  11.751
19779W        W86562  34.532  33.283   1.282
19780W        W86563  40.526  12.493   1.450
19781W        W86564   3.891  37.969  12.437
19782W        W86565  12.698   4.935   0.049
19783W        W86566  40.035  41.468   0.486
19784W        W86567   0.035  10.689   1.126
19785W        W86568  42.869  20.594   0.031
19786W        W86569   0.426  40.072  14.841
19787W        W86570  20.518  23.697  10.729
19788W        W86571  28.624  20.535   4.610
19789W        W86572  12.201   1.207  13.759
19790W        W86573  33.654  30.391  11.093
19791W        W86574  32.296  13.908   1.382
19792W        W86575  20.786  44.114  12.291
19793W        W86576  37.030  24.683  11.149
19794W        W86577   3.501  11.768  12.525
19795W        W86578   4.430  38.385  12.267
19796W        W86579   7.908   0.641  14.045
19797W        W86580  17.136  19.762   2.371
19798W        W86581  38.406   3.814  12.632
19799W        W86582  17.806   7.660  12.367
19800W        W86583  17.701  36.319  11.155
19801W        W86584  20.472  36.545  11.578
19802W        W86585  37.454  38.356   4.821
19803W        W86586  28.476  14.094   3.279
19804W        W86587  29.733  13.725  13.956
19805W        W86588  33.486  14.902  12.938
19806W        W86589  23.520   6.157   5.514
19807W        W86590  12.240  18.524   3.480
19808W        W86591  13.678  31.858  14.936
19809W        W86592  34.829  18.734   1.284
19810W        W86593  29.095  32.386   0.952
19811W        W86594  41.982  18.121   2.926
19812W        W86595  30.828  31.281  11.582
19813W        W86596  13.656  21.089  10.249
19814W        W86597  27.270  14.800   4.072
19815W        W86598  29.246  15.503   0.403
19816W        W86599  11.402  29.426  11.640
19817W        W86600  31.357   5.824  13.856
19818W        W86601   8.299  37.617  13.483
19819W        W86602   2.934  42.927   3.185
19820W        W86603  20.042   2.249  14.933
19821W        W86604  12.047   3.163  11.013
19822W        W86605   5.296   2.478  11.643
19823W        W86606  23.633  11.740  12.149
19824W        W86607  35.817  41.393  13.585
19825W        W86608  10.420   2.889   0.486
19826W        W86609  22.731  38.848   3.396
19827W        W86610  12.328   2.729   2.852
19828W        W86611  42.582   0.973   4.143
19829W        W86612  32.685  37.836  11.465
19830W        W86613  34.874  43.276  14.609
19831W        W86614  35.529   8.868  12.998
19832W        W86615   0.888  36.533  13.117
19833W        W86616  16.758  34.641   1.427
19834W        W86617  16.673  36.036   1.355
19835W        W86618  26.656  22.129  12.627
19836W        W86619  38.063   9.145   4.990
19837W        W86620  16.503  22.142   3.252
19838W        W86621  40.979  32.506   4.568
19839W        W86622  24.407   9.214   3.478
19840W        W86623  41.421  20.733   0.939
19841W        W86624  23.471  13.856   4.630
19842W        W86625  32.219  43.108   0.896
19843W        W86626  27.180  35.816  13.989
19844W        W86627  31.919  28.638   2.102
19845W        W86628  18.071   1.830   3.826
19846W        W86629  30.938  36.315  12.481
19847W        W86630  37.065  33.635   2.764
19848W        W86631   3.685   9.139   2.674
19849W        W86632   3.450  29.561  13.631
19850W        W86633  43.519   3.749  13.973
19851W        W86634  10.652  20.023  11.148
19852W        W86635  20.309   0.854   3.883
19853W        W86636  43.602  10.020   5.438
19854W        W86637  42.007  26.145   4.410
19855W        W86638  33.632  41.577   2.257
19856W        W86639  44.981  42.487   2.398
19857W        W86640  12.734  10.724  14.426
19858W        W86641  36.942  34.196  13.348
19859W        W86642  42.327  19.724   0.797
19860W        W86643  13.305   5.831   0.081
19861W        W86644  26.128  27.525   1.268
19862W        W86645  40.054  30.147  10.444
19863W        W86646  37.862  22.099  14.231
19864W        W86647  39.808   6.822  12.417
19865W        W86648  33.916  33.598  14.372
19866W        W86649   4.780  32.281  10.027
19867W        W86650   1.661  34.037  12.808
19868W        W86651  23.571  12.907   0.854
19869W        W86652  23.236  44.108   3.792
19870W        W86653   9.083  16.074  13.891
19871W        W86654  24.605  39.537   1.393
19872W        W86655  15.322  16.772  11.897
19873W        W86656  19.662   0.878   4.625
19874W        W86657  43.373  20.111   0.903
19875W        W86658  21.206   0.175  11.070
19876W        W86659  14.326  28.198   4.105
19877W        W86660  33.762   7.503   3.659
19878W        W86661   7.420  27.572   1.771
19879W        W86662  10.743  42.022  10.831
19880W        W86663   9.491  17.770   0.849
19881W        W86664  15.837  39.526  11.517
19882W        W86665  42.940  42.850   4.109
19883W        W86666  35.278  24.196  13.434
19884W        W86667   6.845  21.397  13.312
19885W        W86668  23.268  31.710  14.267
19886W        W86669  21.336  23.667  11.281
19887W        W86670   9.292  24.609  11.715
19888W        W86671  28.379  44.254   4.491
19889W        W86672  19.124  44.769  11.819
19890W        W86673  14.353  21.104  14.136
19891W        W86674  34.378   5.437  10.612
19892W        W86675   5.638  10.699   3.200
19893W        W86676  35.841  20.076   2.141
19894W        W86677   2.493   4.536   9.954
19895W        W86678  11.338  10.632   1.276
19896W        W86679  32.928   9.961  13.919
19897W        W86680  16.217   7.896   4.368
19898W        W86681  15.806   1.873   1.661
19899W        W86682  40.355  28.183  12.930
19900W        W86683  40.109  27.226  13.486
19901W        W86684  28.939  35.860  11.618
19902W        W86685  37.066  34.010   1.622
19903W        W86686  38.358  31.489   1.777
19904W        W86687   2.870  29.086  11.591
19905W        W86688  21.983  17.209  14.031
19906W        W86689  13.041  34.498   3.730
19907W        W86690  37.978  34.394   4.645
19908W        W86691  28.541  18.136  14.521
19909W        W86692  14.631  17.278   0.277
19910W        W86693   6.856  10.816   3.634
19911W        W86694  15.578   5.917   2.937
19912W        W86695  24.643   6.247  11.539
19913W        W86696  39.502   2.542   1.224
19914W        W86697  15.285   9.750   4.071
19915W        W86698  25.314   0.758   2.761
19916W        W86699  27.640  32.651  11.583
19917W        W86700  31.180  43.895   2.742
19918W        W86701   8.966  22.401   4.649
19919W        W86702  10.723  17.036  14.104
19920W        W86703  26.397  28.956  11.549
19921W        W86704   2.030  39.078  11.786
19922W        W86705  31.507   9.410  12.136
19923W        W86706   4.842  23.118  14.124
19924W        W86707  29.746  12.734  11.072
19925W        W86708  24.221  37.945   0.860
19926W        W86709  30.482  44.911   3.889
19927W        W86710   0.323  12.234   0.883
19928W        W86711  41.220  21.687   4.316
19929W        W86712  21.428  34.693  10.693
19930W        W86713   4.518  22.325   4.102
19931W        W86714   6.956  13.599   2.567
19932W        W86715   0.706   6.070  14.275
19933W        W86716  34.881  10.902  13.510
19934W        W86717   4.257  35.599  11.156
19935W        W86718   8.179  10.384   1.680
19936W        W86719  38.088  14.856   1.852
19937W        W86720  38.617  36.010   4.973
19938W        W86721  25.702  27.783   1.482
19939W        W86722  42.843  18.590  13.545
19940W        W86723   4.949  40.779   1.805
19941W        W86724  14.616  39.425   2.282
19942W        W86725  29.844  29.520  12.424
19943W        W86726  14.241  16.147   4.259
19944W        W86727   1.333  14.715   3.184
19945W        W86728  43.487  34.327  11.621
19946W        W86729   4.329   4.237  11.265
19947W        W86730   6.347  34.362  10.849
19948W        W86731   1.420  20.089   3.631
19949W        W86732   8.150  15.785   4.319
19950W        W86733  20.089  25.970  14.532
19951W        W86734  44.421  20.992   4.068
19952W        W86735   0.400   5.326  12.777
19953W        W86736  41.724  33.071  13.483
19954W        W86737  36.090  40.243  11.094
19955W        W86738  17.058   1.808  12.225
19956W        W86739  40.530  26.617  10.929
19957W        W86740   5.488  31.591   3.220
19958W        W86741  34.506  21.323  13.296
19959W        W86742   1.166  33.647   0.304
19960W        W86743  38.341  30.455   0.770
19961W        W86744   0.768  31.025   4.154
19962W        W86745  21.855  35.606   5.028
19963W        W86746  44.256  35.809   3.888
19964W        W86747  37.008  38.299  12.970
19965W        W86748  35.204  25.532   3.995
19966W        W86749  35.409  35.321  11.466
19967W        W86750  31.925   5.134  10.202
19968W        W86751  31.551  13.745   2.188
19969W        W86752  28.431  13.816  12.562
19970W        W86753  31.407   2.768   3.422
19971W        W86754  13.971  10.585   4.521
19972W        W86755   9.711  14.334  13.036
19973W        W86756  23.174   9.131   2.853
19974W        W86757  39.958  12.353  13.460
19975W        W86758  13.590  16.163   4.713
19976W        W86759   8.335  30.174   1.156
19977W        W86760  26.673  12.180  14.816
19978W        W86761   4.465  25.289   2.926
19979W        W86762  27.442  18.555   1.798
19980W        W86763  36.392  43.075  14.080
19981W        W86764  23.756   6.271  11.001
19982W        W86765   2.184  42.612  13.991
19983W        W86766  11.688  33.380  11.677
19984W        W86767  27.250  44.115   5.585
19985W        W86768   8.380  23.551   2.881
19986W        W86769   4.022  44.582  12.980
19987W        W86770  32.487  34.903  14.945
19988W        W86771  41.682  43.687  12.401
19989W        W86772  15.858  27.442   3.654
19990W        W86773  13.705  29.375  11.579
19991W        W86774   2.228   8.823  11.534
19992W        W86775  28.032  31.907  11.241
19993W        W86776  37.486  29.481   3.696
19994W        W86777  10.695  44.412  14.096
19995W        W86778  22.993  28.915  11.998
19996W        W86779  30.543  34.459  12.971
19997W        W86780   5.669  33.577  13.635
19998W        W86781  10.597  41.548  12.444
19999W        W86782  21.518  11.704   1.859
20000W        W86783   1.543  18.414   3.364
20001W        W86784   6.355  29.678   1.197
20002W        W86785  12.782  27.966   0.317
20003W        W86786   1.346  40.416   4.395
20004W        W86787   6.142  29.196   2.686
20005W        W86788  31.845  21.986   4.975
20006W        W86789   9.495  22.331  14.702
20007W        W86790  31.206  13.111   3.178
20008W        W86791  10.633  39.295  14.458
20009W        W86792  23.008   6.330   2.728
20010W        W86793  18.025  38.393   2.792
20011W        W86794  14.130  34.441  14.889
20012W        W86795   4.630  13.249   2.154
20013W        W86796  16.608   2.727   4.008
20014W        W86797  33.820  12.815  14.661
20015W        W86798  34.618  15.681   3.751
20016W        W86799   5.152   0.482   3.277
20017W        W86800  42.024   7.222   3.300
20018W        W86801  14.670  21.193  11.222
20019W        W86802  23.170  33.988  14.015
20020W        W86803  19.214  32.088  11.840
20021W        W86804  18.226  41.568   3.677
20022W        W86805  14.661   4.769  10.722
20023W        W86806   0.924   6.838  12.224
20024W        W86807  16.857  30.488   4.245
20025W        W86808  30.408  38.888  10.509
20026W        W86809  14.579   0.121  14.268
20027W        W86810   2.139  17.893   1.273
20028W        W86811  26.247  18.764  12.064
20029W        W86812  22.153  15.382  14.407
20030W        W86813  40.036  10.664   3.206
20031W        W86814  20.555  13.687   3.229
20032W        W86815  11.329  12.379  11.273
20033W        W86816   8.718  34.604   4.216
20034W        W86817   0.816  12.658   3.422
20035W        W86818  24.931  13.223  11.075
20036W        W86819   1.973  32.616   4.767
20037W        W86820  18.187  11.563   0.972
20038W        W86821  20.154  27.684  12.420
20039W        W86822  13.088  24.923   5.118
20040W        W86823  37.326  21.759   0.356
20041W        W86824  31.886  32.114  12.539
20042W        W86825  33.559   5.135   4.640
20043W        W86826  42.477   1.931   2.157
20044W        W86827  18.442  12.857  10.220
20045W        W86828  35.132  10.935   2.931
20046W        W86829  39.009  30.394   5.014
20047W        W86830  44.344  22.004  10.242
20048W        W86831  23.878  44.367  12.500
20049W        W86832  35.917   0.491   3.423
20050W        W86833   4.785  14.272   0.835
20051W        W86834  34.392  35.696   0.865
20052W        W86835  14.120  12.065  11.443
20053W        W86836  28.890  44.233   1.747
20054W        W86837   0.236  37.994   3.160
20055W        W86838  37.459  22.979  14.091
20056W        W86839  41.612   0.913   3.773
20057W        W86840  33.538  24.924  14.879
20058W        W86841  25.748  11.712   1.965
20059W        W86842  43.773   1.184   1.257
20060W        W86843  19.466  23.458  10.717
20061W        W86844  13.317  10.360  10.119
20062W        W86845  32.151  42.554   4.114
20063W        W86846  43.581  17.785  12.007
20064W        W86847  11.740   5.436   4.599
20065W        W86848  23.305  16.217  11.237
20066W        W86849   0.543  36.959  14.976
20067W        W86850  31.672  37.956   3.225
20068W        W86851  24.961  25.628  10.830
20069W        W86852  14.232  44.996   2.360
20070W        W86853  14.415  23.848   3.238
20071W        W86854  22.746   9.679  10.951
20072W        W86855  32.625  36.308  14.558
20073W        W86856  39.163  22.012   2.255
20074W        W86857  41.383   6.252  14.091
20075W        W86858  22.210  44.560  11.200
20076W        W86859  30.812  44.993   1.383
20077W        W86860  19.639  13.349   1.201
20078W        W86861   9.721  27.617  12.421
20079W        W86862  34.046  23.624  11.922
20080W        W86863  38.554  17.277   4.211
20081W        W86864   2.885   7.087  14.465
20082W        W86865  20.283   0.518  13.957
20083W        W86866  38.379   4.163   2.471
20084W        W86867  31.820  32.501  11.054
20085W        W86868   1.756  38.274   4.122
20086W        W86869  42.399  20.687   3.109
20087W        W86870  14.792  44.906  10.786
20088W        W86871   9.620  13.892   1.715
20089W        W86872  40.406   6.816  12.218
20090W        W86873  41.966  44.844  12.108
20091W        W86874  33.496  36.640   1.275
20092W        W86875  24.559  13.274  12.128
20093W        W86876  20.559  10.170  14.588
20094W        W86877  43.060  26.522   0.388
20095W        W86878  35.926  18.764  13.871
20096W        W86879   8.759  11.921  11.597
20097W        W86880  26.693  21.999   2.593
20098W        W86881  28.544  10.867   3.619
20099W        W86882   1.066  24.986   2.713
20100W        W86883  29.156  38.281   1.301
20101W        W86884  22.545   4.737   0.700
20102W        W86885  22.781  27.483   1.299
20103W        W86886  33.006  37.743  11.856
20104W        W86887  38.449  41.350   0.305
20105W        W86888  15.552  18.958   2.685
20106W        W86889  35.984  16.397   4.645
20107W        W86890  23.966  16.610   0.397
20108W        W86891  25.400  32.720  13.393
20109W        W86892  12.299  25.518   3.977
20110W        W86893  21.020  27.403   2.687
20111W        W86894  17.572  30.140  14.323
20112W        W86895  13.195  10.854   1.177
20113W        W86896  25.483  23.589  14.347
20114W        W86897  16.631  41.509  14.532
20115W        W86898  19.568  25.090   2.871
20116W        W86899  20.058   3.186   3.175
20117W        W86900  32.031   1.004   2.288
20118W        W86901  43.098  44.266  14.039
20119W        W86902  12.044  21.315  10.705
20120W        W86903  21.787  42.516  11.042
20121W        W86904  26.055  44.931   3.163
20122W        W86905  19.799  20.223   4.187
20123W        W86906  34.498  37.474   0.482
20124W        W86907  31.014  31.690  14.473
20125W        W86908  18.154  34.595   0.157
20126W        W86909  40.841  28.115  12.031
20127W        W86910   4.761  20.749   2.920
20128W        W86911  39.773  10.697  10.305
20129W        W86912   6.084  35.942   1.833
20130W        W86913  44.497  16.223  14.415
20131W        W86914  41.978  23.846   1.715
20132W        W86915  10.416  29.576   2.495
20133W        W86916   8.919   6.409   2.294
20134W        W86917  21.442  17.219   4.080
20135W        W86918  29.606  30.382  13.404
20136W        W86919  11.273  16.095   0.022
20137W        W86920   7.327  36.481   3.920
20138W        W86921  43.558   0.489  12.519
20139W        W86922   5.227  12.137  10.406
20140W        W86923  39.563  33.407   3.239
20141W        W86924  24.012  24.078   1.314
20142W        W86925  31.049  38.893  12.429
20143W        W86926  15.730  27.859   0.887
20144W        W86927  28.260  35.389  10.805
20145W        W86928  32.638  21.991  11.706
20146W        W86929  20.785  30.533   2.315
20147W        W86930  26.315  20.054  13.633
20148W        W86931  37.802  41.872  14.560
20149W        W86932  35.150  28.088   0.555
20150W        W86933  20.337  12.738   4.594
20151W        W86934   1.844  26.190   1.841
20152W        W86935  37.446  39.179   3.596
20153W        W86936  38.363  10.086  12.942
20154W        W86937  21.018   8.754   1.715
20155W        W86938  17.765   1.368   4.474
20156W        W86939  37.605  34.136  13.022
20157W        W86940  10.185  14.770  10.566
20158W        W86941  31.089  22.746  11.734
20159W        W86942  32.330  43.402  11.063
20160W        W86943  19.678  26.146  13.250
20161W        W86944  16.984  29.114  11.285
20162W        W86945   8.998  17.120  13.981
20163W        W86946  44.698   1.355   4.118
20164W        W86947   8.300   8.903  13.889
20165W        W86948  16.051  23.120   2.272
20166W        W86949  41.740   7.196   2.532
20167W        W86950   6.479  41.398   4.530
20168W        W86951  21.822   7.199   0.419
20169W        W86952  40.796  17.071   1.382
20170W        W86953   3.982  35.525  12.486
20171W        W86954  12.671  43.878   4.142
20172W        W86955  44.283  27.469  10.733
20173W        W86956  30.946  42.911   3.267
20174W        W86957  24.921  23.092   3.220
20175W        W86958  32.811  37.606  14.946
20176W        W86959  16.366  39.361   2.422
20177W        W86960  34.021   4.392   4.878
20178W        W86961  29.046  34.883  14.311
20179W        W86962   7.855  13.043  13.034
20180W        W86963  27.886  29.649   3.993
20181W        W86964   9.239  20.199   0.733
20182W        W86965   5.342  28.581   0.205
20183W        W86966  21.061  38.076   4.064
20184W        W86967   7.767  39.827  10.398
20185W        W86968  26.690  19.938  13.273
20186W        W86969  32.121  10.336  13.041
20187W        W86970   4.967   9.893   4.083
20188W        W86971  25.298  17.722  13.308
20189W        W86972   1.470   9.331   3.084
20190W        W86973  35.093  36.711  14.803
20191W        W86974  23.499   5.251   1.909
20192W        W86975  24.054  31.092  13.286
20193W        W86976  35.518  19.947  12.965
20194W        W86977  38.059  18.540   4.623
20195W        W86978  42.495   6.522   2.303
20196W        W86979   8.583  38.904  11.089
20197W        W86980  26.466  22.748   0.493
20198W        W86981  27.149  33.978  12.254
20199W        W86982  13.356   9.685  12.399
20200W        W86983  14.051  27.997   1.101
20201W        W86984   0.421  44.343  12.561
20202W        W86985   3.585  21.989   3.305
20203W        W86986   8.640  24.994  14.621
20204W        W86987  29.089   1.051  13.544
20205W        W86988   3.919  11.390   4.592
20206W        W86989  31.496  17.807  14.867
20207W        W86990  42.056  42.822  14.699
20208W        W86991  43.383  42.110  11.103
20209W        W86992  13.242  42.060  12.363
20210W        W86993  21.747  25.570  11.935
20211W        W86994   9.737  43.546  14.895
20212W        W86995  29.806  36.069   0.067
20213W        W86996  27.676  18.095   4.169
20214W        W86997  29.145  16.326  12.581
20215W        W86998  39.540  32.693  12.084
20216W        W86999  35.485  34.847  14.234
20217W        W87000   2.293  10.283  14.834
20218W        W87001   2.929   6.705   4.604
20219W        W87002  43.261  10.714   5.055
20220W        W87003  20.628  38.089   3.260
20221W        W87004  30.940  26.001   0.907
20222W        W87005  15.202  43.186  14.930
20223W        W87006  26.134   9.805  13.896
20224W        W87007  24.795   8.035   4.580
20225W        W87008   3.387  35.323   0.855
20226W        W87009   5.378  42.480   1.211
20227W        W87010  22.603  22.181  11.484
20228W        W87011  44.636  23.319  14.774
20229W        W87012  21.008  20.233   4.704
20230W        W87013  44.371  12.024  12.883
20231W        W87014  40.799  14.906   2.387
20232W        W87015  36.406   5.514   0.192
20233W        W87016  27.175   1.469   0.512
20234W        W87017   8.772  24.761   0.450
20235W        W87018  39.118  27.597   4.774
20236W        W87019  19.541   7.163  14.026
20237W        W87020  12.506  36.473   1.236
20238W        W87021   2.954  20.722   4.128
20239W        W87022  15.051  17.355  11.986
20240W        W87023  26.103   1.442  10.608
20241W        W87024  33.062  42.260  12.494
20242W        W87025  41.416  43.240  14.394
20243W        W87026  20.659  23.372  11.092
20244W        W87027  42.286  24.857   2.712
20245W        W87028  24.232  22.612  14.514
20246W        W87029  11.265  20.580   4.961
20247W        W87030   0.440  14.108   2.297
20248W        W87031  28.592   8.608  14.411
20249W        W87032  34.586  40.963   1.245
20250W        W87033  42.651  24.616   0.896
20251W        W87034  33.864  11.261  11.082
20252W        W87035   7.777  44.085  14.645
20253W        W87036  25.288   3.395   2.897
20254W        W87037   4.326  35.816  14.342
20255W        W87038  37.919  37.923  12.210
20256W        W87039  15.275  33.631  11.569
20257W        W87040  27.687  15.892  11.424
20258W        W87041  37.855  35.285  14.298
20259W        W87042   6.995  18.617  11.464
20260W        W87043   1.265  13.972   0.156
20261W        W87044   7.160  12.671  12.981
20262W        W87045  14.596  23.822  11.430
20263W        W87046  36.784  37.882   2.172
20264W        W87047  29.599  11.742  14.293
20265W        W87048   5.840   6.736   3.646
20266W        W87049  43.236  13.851   2.677
20267W        W87050  20.777   1.725  10.534
20268W        W87051  28.563  19.727  12.649
20269W        W87052  12.088  38.059   3.186
20270W        W87053  24.559  14.106  12.467
20271W        W87054   5.373  16.211   3.145
20272W        W87055  22.908  41.929   0.484
20273W        W87056  16.688  19.036   2.281
20274W        W87057   0.024   6.470  11.528
20275W        W87058  23.216  16.584  13.408
20276W        W87059  16.268   3.832  10.682
20277W        W87060   0.524  40.588  14.936
20278W        W87061  17.793   9.885   2.251
20279W        W87062   8.713   9.031  10.807
20280W        W87063  33.585  29.998   2.992
20281W        W87064  44.924  39.994  11.622
20282W        W87065  43.073  27.225   1.295
20283W        W87066   7.471  23.273   2.595
20284W        W87067  39.645  14.292   3.217
20285W        W87068  29.899  24.208  10.449
20286W        W87069  18.274  34.796   4.132
20287W        W87070  19.935   4.945   0.342
20288W        W87071  18.278  27.079  13.083
20289W        W87072   6.970  30.530   4.312
20290W        W87073  19.205   5.846  11.120
20291W        W87074  23.753  22.788  14.748
20292W        W87075  20.299   8.174   1.816
20293W        W87076   0.979   1.697  14.556
20294W        W87077  43.377   7.977  13.367
20295W        W87078  20.641   8.923  14.012
20296W        W87079   1.171  10.177   0.595
20297W        W87080  19.174  19.553   4.335
20298W        W87081  34.000  33.400   4.193
20299W        W87082  16.075  11.074   0.450
20300W        W87083  24.036  32.820  14.916
20301W        W87084  17.633  27.523   1.929
20302W        W87085   4.211  23.985  14.322
20303W        W87086  27.740  44.206   3.899
20304W        W87087  43.866   8.426  13.755
20305W        W87088  25.262  42.295  13.404
20306W        W87089  27.638  24.116  14.079
20307W        W87090  23.280  43.691  12.372
20308W        W87091  27.144  32.482   3.791
20309W        W87092  33.442  40.277  13.555
20310W        W87093  15.505  14.703   9.875
20311W        W87094  17.787  43.024  14.278
20312W        W87095   9.410   9.552   3.546
20313W        W87096  26.467  14.638  13.959
20314W        W87097  24.099  22.063  12.898
20315W        W87098  34.987  33.881  12.488
20316W        W87099  27.913  37.913   4.053
20317W        W87100   3.249  11.145  13.720
20318W        W87101  16.139   9.770   0.945
20319W        W87102  18.205  33.394  11.588
20320W        W87103  44.131  26.479   4.487
20321W        W87104  37.500   9.156  11.578
20322W        W87105  43.430  15.560  11.126
20323W        W87106  31.538  26.237   5.038
20324W        W87107  17.551  19.309   1.182
20325W        W87108  19.066  36.605   0.489
20326W        W87109  34.493  24.105  12.346
20327W        W87110  26.623  41.434  14.979
20328W        W87111  37.220   4.912  13.397
20329W        W87112  25.224  10.806  13.479
20330W        W87113  25.623  38.957   3.340
20331W        W87114   2.719  42.308  12.499
20332W        W87115  42.079  14.700  13.716
20333W        W87116  30.811   8.903   0.383
20334W        W87117   1.459   8.742  13.354
20335W        W87118  42.241  19.195  14.896
20336W        W87119  34.855  25.245   0.737
20337W        W87120  35.591  26.534   4.228
20338W        W87121  33.415  34.408  13.316
20339W        W87122  37.278  29.377  14.867
20340W        W87123  10.352  17.706  11.366
20341W        W87124  11.325  35.374  10.240
20342W        W87125  20.193  25.980   0.181
20343W        W87126  22.668  25.634  12.369
20344W        W87127  44.579  31.886   0.770
20345W        W87128  16.872   2.347   0.756
20346W        W87129  27.379  22.659  13.509
20347W        W87130  36.133  43.392   5.017
20348W        W87131  19.214  21.918  12.520
20349W        W87132  38.027   3.290   0.824
20350W        W87133  41.051  34.787  12.007
20351W        W87134  13.367  17.722   3.432
20352W        W87135  24.162  12.117   0.842
20353W        W87136  35.676   6.807  13.521
20354W        W87137  39.576  10.759  14.440
20355W        W87138   1.161  36.549  13.967
20356W        W87139  14.262  18.955   4.583
20357W        W87140  20.172  32.096  14.740
20358W        W87141  42.899  38.804   2.351
20359W        W87142  27.183  34.469  13.610
20360W        W87143  44.980  21.531  12.441
20361W        W87144  35.133  18.274   3.286
20362W        W87145  27.892   2.152   1.481
20363W        W87146  39.274  11.702  14.687
20364W        W87147  13.153  43.624   2.553
20365W        W87148  42.910   8.915   1.317
20366W        W87149  30.644  44.492   0.011
20367W        W87150  29.639  14.388   3.794
20368W        W87151  24.196  39.152  13.017
20369W        W87152  23.720  21.085   4.150
20370W        W87153   0.810  39.888  13.046
20371W        W87154  15.684   2.015  11.985
20372W        W87155  35.154   9.093   0.620
20373W        W87156  38.070   7.450   2.353
20374W        W87157  39.465  44.047   3.227
20375W        W87158  39.865   7.865  13.283
20376W        W87159   3.860  27.544   1.139
20377W        W87160  28.723  17.518  11.518
20378W        W87161  16.753   1.447  14.323
20379W        W87162  42.989   2.677  12.381
20380W        W87163  33.065  19.648   1.726
20381W        W87164  11.634  26.947  10.400
20382W        W87165  19.681  40.264  13.574
20383W        W87166   5.454  13.254   0.798
20384W        W87167  22.305  34.525   2.870
20385W        W87168  25.309   1.296  13.471
20386W        W87169  28.603  15.707  12.812
20387W        W87170  24.953  29.403   5.007
20388W        W87171   5.144  10.256  10.999
20389W        W87172   5.822   8.620   1.253
20390W        W87173   8.219  29.676  14.749
20391W        W87174  28.512  38.111   4.066
20392W        W87175  20.566  12.590   5.020
20393W        W87176  43.522   9.880  14.304
20394W        W87177  42.832  10.301  14.722
20395W        W87178  10.103  34.573   2.794
20396W        W87179  12.774  10.719  10.494
20397W        W87180  28.512  36.637   4.018
20398W        W87181  38.270   9.646  11.589
20399W        W87182  12.538  15.704  12.910
20400W        W87183  35.380  30.113  13.955
20401W        W87184  27.184  32.128  10.096
20402W        W87185  23.523  34.800  12.671
20403W        W87186  15.510  34.488  11.536
20404W        W87187   8.683  16.160  11.801
20405W        W87188  38.965  38.576   1.667
20406W        W87189   3.763  37.396  12.527
20407W        W87190  39.331  22.785   1.861
20408W        W87191  12.549  37.581  14.240
20409W        W87192  42.332  22.224   4.047
20410W        W87193  23.064  31.887   3.227
20411W        W87194  44.922   2.035   5.080
20412W        W87195  31.352   6.888   2.813
20413W        W87196  26.029   3.525  14.328
20414W        W87197   0.139   4.918  11.909
20415W        W87198  27.413  18.593   3.736
20416W        W87199  39.315  18.542   3.769
20417W        W87200  26.962  40.607  11.610
20418W        W87201  39.721  42.040  10.750
20419W        W87202  14.016   9.095   3.241
20420W        W87203   5.338  37.956   3.855
20421W        W87204  29.629  28.012  11.436
20422W        W87205  43.914  12.099  12.616
20423W        W87206  20.665  28.393  10.628
20424W        W87207   3.873  18.746   4.946
20425W        W87208   1.456  38.378  10.759
20426W        W87209   1.808  36.512  13.942
20427W        W87210   3.267   3.240  10.699
20428W        W87211  26.352  11.146   0.958
20429W        W87212  23.707   1.346  13.225
20430W        W87213   3.178  21.234  13.421
20431W        W87214  32.094  35.776   0.727
20432W        W87215  37.005  20.601  10.976
20433W        W87216  13.605  43.510   0.405
20434W        W87217  34.120  26.348   2.343
20435W        W87218   4.629  37.957  14.850
20436W        W87219  21.294  18.364  12.441
20437W        W87220  31.444  39.260  14.805
20438W        W87221  36.697  34.648  13.228
20439W        W87222  30.517  42.023  13.912
20440W        W87223  44.963  12.675  10.680
20441W        W87224  37.531  29.294   4.213
20442W        W87225   3.283  41.792  12.115
20443W        W87226   7.804  26.510   2.355
20444W        W87227  27.531  41.811   0.252
20445W        W87228   5.744  36.130  14.054
20446W        W87229  38.534   0.217  10.624
20447W        W87230  18.485   3.558   0.707
20448W        W87231  16.048   7.466  11.572
20449W        W87232  18.568  35.061  10.061
20450W        W87233   1.389  42.284  10.713
20451W        W87234  39.510  39.786  11.468
20452W        W87235  30.946  40.906  11.474
20453W        W87236  13.890  39.082  11.133
20454W        W87237   4.480  30.288   2.803
20455W        W87238  34.867   5.066   5.054
20456W        W87239   8.806   3.680  11.010
20457W        W87240  38.050  33.415  14.266
20458W        W87241   3.214  21.005   1.334
20459W        W87242  41.452  38.655   3.661
20460W        W87243  18.945  23.043  14.085
20461W        W87244  16.249  23.330   2.885
20462W        W87245  35.653  43.431   4.776
20463W        W87246  18.522  18.509   0.903
20464W        W87247  31.583   7.878   1.386
20465W        W87248  38.517  17.579  11.479
20466W        W87249  15.720   3.478  14.028
20467W        W87250   1.394   7.269   2.458
20468W        W87251  23.739  29.004  13.955
20469W        W87252   6.947  10.320   3.208
20470W        W87253  30.555  12.569   4.702
20471W        W87254  40.754  27.639   0.387
20472W        W87255   7.144  30.601  11.097
20473W        W87256   1.787  41.865   5.223
20474W        W87257  29.633  27.891   2.468
20475W        W87258  32.939  14.071  11.938
20476W        W87259  18.733  40.513   3.040
20477W        W87260   2.314  14.824   2.395
20478W        W87261  32.169  12.382  11.098
20479W        W87262  18.773  37.364  11.433
20480W        W87263   3.485  20.261   3.776
20481W        W87264  43.024  39.403   4.702
20482W        W87265   1.036   1.472   3.716
20483W        W87266  25.951   0.840   4.934
20484W        W87267  20.129  23.086   3.129
20485W        W87268  23.050  31.198  14.243
20486W        W87269  39.488  27.690  10.674
20487W        W87270  35.009   4.528  11.130
20488W        W87271  35.764  30.579  10.522
20489W        W87272  36.898  22.509   2.565
20490W        W87273   0.857  20.819  11.099
20491W        W87274  43.129  38.097  12.352
20492W        W87275   9.770  35.177  14.949
20493W        W87276   5.333  22.151  14.409
20494W        W87277  40.977   6.158  12.537
20495W        W87278  11.364   3.351  10.845
20496W        W87279  39.389  39.810  12.907
20497W        W87280  30.820  18.964   0.570
20498W        W87281   0.831  36.003   2.237
20499W        W87282  44.803   6.483   3.755
20500W        W87283  39.104   8.267  12.514
20501W        W87284  16.111   0.995  13.256
20502W        W87285   5.679  33.993  14.942
20503W        W87286  29.048  19.083   1.917
20504W        W87287  29.132  12.726   0.759
20505W        W87288   0.326  32.102  14.817
20506W        W87289  12.671  33.426  14.955
20507W        W87290  29.184   3.289   3.202
20508W        W87291  31.429  38.370   1.754
20509W        W87292  42.266  23.597   4.188
20510W        W87293  12.522   2.366   0.689
20511W        W87294  43.510  41.242  11.934
20512W        W87295  16.552  12.300  13.389
20513W        W87296  29.064   1.513  13.263
20514W        W87297   4.447  15.421   4.543
20515W        W87298  36.370  19.291   4.607
20516W        W87299   0.215  36.613   1.723
20517W        W87300  18.072  25.418   0.885
20518W        W87301  13.852   2.137  11.911
20519W        W87302  32.860  24.041   1.201
20520W        W87303  12.260  24.733  12.474
20521W        W87304  26.562  16.983   1.031
20522W        W87305  32.404   3.331   1.688
20523W        W87306  25.252  39.878  13.638
20524W        W87307   7.767   1.824   0.023
20525W        W87308   9.758  36.503  13.019
20526W        W87309   4.784  25.485   2.279
20527W        W87310  43.239  33.577   4.710
20528W        W87311  15.488  21.578  13.605
20529W        W87312  43.144  32.813  14.799
20530W        W87313  31.617  17.555  13.874
20531W        W87314  31.078  16.148   2.394
20532W        W87315   1.040  30.704  11.259
20533W        W87316  33.329  40.112   1.824
20534W        W87317  35.554   2.042   3.278
20535W        W87318   2.112  22.181   0.851
20536W        W87319  38.810  34.032   4.621
20537W        W87320  25.123  36.386   1.689
20538W        W87321  35.583  17.981   3.207
20539W        W87322  12.797  43.897   3.147
20540W        W87323   5.771  12.797   1.801
20541W        W87324  33.390  13.873   0.366
20542W        W87325  13.265  41.104  12.575
20543W        W87326  36.987   7.911   2.366
20544W        W87327  42.591   8.845   2.081
20545W        W87328  13.408  41.005   2.415
20546W        W87329   3.276  31.600   3.222
20547W        W87330  22.305  27.474  12.568
20548W        W87331  40.422   8.375  12.339
20549W        W87332  39.571  33.477  11.076
20550W        W87333  43.522   6.542   9.871
20551W        W87334  20.877   9.978  13.227
20552W        W87335   5.436  39.389   0.809
20553W        W87336   8.361  19.988   1.381
20554W        W87337  39.162  44.850   1.981
20555W        W87338  41.579   2.919  14.745
20556W        W87339  13.590   0.336  10.954
20557W        W87340  32.853   9.818  12.895
20558W        W87341  19.196   9.774  11.515
20559W        W87342   9.377  25.753  11.565
20560W        W87343  21.236   6.480  14.390
20561W        W87344  15.131   8.302  13.603
20562W        W87345  42.042  33.356  10.993
20563W        W87346  25.320   1.830   0.340
20564W        W87347  25.961  36.564  10.785
20565W        W87348   0.998  24.784   3.827
20566W        W87349  40.464   2.571   3.175
20567W        W87350   0.783  38.549   1.496
20568W        W87351  31.133  40.068   1.329
20569W        W87352  43.650   6.031  11.458
20570W        W87353  24.757  27.608   0.463
20571W        W87354  13.142  25.605  11.184
20572W        W87355  20.115  44.854   2.387
20573W        W87356   3.629   8.687   2.423
20574W        W87357  15.799  23.820  11.858
20575W        W87358  38.442  38.197   3.792
20576W        W87359   9.266  24.639  13.530
20577W        W87360  15.811   7.885  12.044
20578W        W87361   5.426   1.881   2.291
20579W        W87362  35.450  17.615   0.527
20580W        W87363  44.679  20.667  14.812
20581W        W87364  35.408  20.780  11.513
20582W        W87365  22.203   9.353  12.413
20583W        W87366  20.626  29.537   3.356
20584W        W87367  16.112  41.265   0.333
20585W        W87368   5.888  22.021  11.044
20586W        W87369  30.458   5.937  11.108
20587W        W87370  39.106   5.438   1.488
20588W        W87371   0.879  18.467  13.472
20589W        W87372  16.724  14.656   4.183
20590W        W87373  23.575  20.744  13.120
20591W        W87374  30.151  14.712  11.960
20592W        W87375  17.747  42.995  11.538
20593W        W87376  43.683   7.684   3.525
20594W        W87377  40.964  12.753  12.081
20595W        W87378   6.722  10.765   2.244
20596W        W87379  44.631  10.012  10.829
20597W        W87380  32.985  21.812  12.073
20598W        W87381  33.114  33.036  14.328
20599W        W87382   9.776  42.779   3.237
20600W        W87383  25.625   1.215   2.810
20601W        W87384   5.266   3.047  13.281
20602W        W87385  42.739   1.808  13.804
20603W        W87386  17.191  12.748   3.595
20604W        W87387   9.255   1.333   1.764
20605W        W87388   9.336  32.908  11.897
20606W        W87389  20.559  23.254  11.572
20607W        W87390  32.933  34.660  14.996
20608W        W87391  41.747   8.069   1.554
20609W        W87392  18.638   8.809   1.758
20610W        W87393  24.730  34.880  14.083
20611W        W87394  21.635  15.311   1.358
20612W        W87395  13.874  34.004   4.476
20613W        W87396  29.099  31.568  11.077
20614W        W87397  26.454   4.849  11.547
20615W        W87398   9.741  23.910   1.793
20616W        W87399  18.549  22.984  14.949
20617W        W87400  42.877  32.026  14.528
20618W        W87401  27.212  12.282  13.883
20619W        W87402  42.733  18.515   2.734
20620W        W87403  10.865  10.502   3.155
20621W        W87404   1.399  33.608  12.828
20622W        W87405  22.803   8.445   1.351
20623W        W87406  25.645  11.306  14.755
20624W        W87407  16.083   2.576   0.373
20625W        W87408  33.499  11.390   0.998
20626W        W87409   4.941  21.764   2.052
20627W        W87410  41.599  19.026  11.134
20628W        W87411  23.235   5.176   0.758
20629W        W87412  35.369  27.252  14.136
20630W        W87413  37.365  21.714  12.992
20631W        W87414  10.121  20.663   2.187
20632W        W87415   4.330  41.490   2.352
20633W        W87416  36.926  35.598   2.808
20634W        W87417  39.186  24.188  13.525
20635W        W87418  31.570  21.455   4.082
20636W        W87419  19.711   7.601   5.138
20637W        W87420  41.034   6.374   1.541
20638W        W87421  24.736  30.566  13.301
20639W        W87422  25.982  12.298  11.475
20640W        W87423  22.261  38.394   2.216
20641W        W87424   5.317  32.654   3.136
20642W        W87425  31.659  34.360   0.786
20643W        W87426  14.799  34.628  12.069
20644W        W87427   9.668  22.081  10.671
20645W        W87428   9.756  32.570  11.356
20646W        W87429  25.552   0.191  13.015
20647W        W87430  21.613  15.673  13.868
20648W        W87431  42.396  24.174   0.434
20649W        W87432  27.655  19.972   1.397
20650W        W87433   6.202  39.337  12.498
20651W        W87434  37.882  22.579  10.761
20652W        W87435  25.668   1.793  10.232
20653W        W87436   7.281  20.357   3.786
20654W        W87437  14.529   0.718  11.218
20655W        W87438  31.117  13.775  10.692
20656W        W87439  13.173  41.477   2.383
20657W        W87440  43.351   3.669   0.297
20658W        W87441   7.885   9.387  14.557
20659W        W87442  39.242  38.489  11.536
20660W        W87443  43.981  30.527   0.439
20661W        W87444  38.808  19.366   3.662
20662W        W87445  22.744  39.580  13.436
20663W        W87446  26.867  12.553   2.573
20664W        W87447   2.221  16.641   3.697
20665W        W87448   7.354  31.636   1.907
20666W        W87449  30.057  40.459  14.143
20667W        W87450  28.694  32.822  12.683
20668W        W87451  19.574   2.996   0.756
20669W        W87452  16.515  14.902   2.534
20670W        W87453  27.088  37.530   3.751
20671W        W87454  14.604   5.294   1.859
20672W        W87455   3.496  32.546   3.578
20673W        W87456  40.504   7.226  14.485
20674W        W87457  18.518  17.163  10.891
20675W        W87458  10.371  36.350  14.523
20676W        W87459  19.031   9.908   2.705
20677W        W87460  11.860  10.903   5.228
20678W        W87461   3.841   4.649   9.989
20679W        W87462   3.023  26.216   0.133
20680W        W87463  11.674  12.176   3.670
20681W        W87464   7.472   0.659  12.964
20682W        W87465  31.491  12.488   1.832
20683W        W87466  41.611  42.531  10.500
20684W        W87467  15.066  16.412  12.916
20685W        W87468   0.158  40.388  13.976
20686W        W87469  30.707  23.810   1.859
20687W        W87470  13.641  32.863  11.590
20688W        W87471  33.252  42.373   2.394
20689W        W87472  34.349  17.029   3.637
20690W        W87473  43.280  39.550   2.502
20691W        W87474  36.793  23.632   1.221
20692W        W87475   8.964  25.184   5.085
20693W        W87476  33.995  15.451   3.738
20694W        W87477  22.203   2.053  11.016
20695W        W87478  12.190  41.062  13.885
20696W        W87479   4.002   9.796   3.760
20697W        W87480  43.339  25.935   1.180
20698W        W87481   9.532   3.911  12.257
20699W        W87482   0.598  16.567  14.610
20700W        W87483  14.311  12.444  13.820
20701W        W87484   9.721  32.900   2.323
20702W        W87485   3.847  43.173   2.777
20703W        W87486  32.887  17.275  12.632
20704W        W87487   7.694  15.686   4.559
20705W        W87488   2.998  43.851   1.389
20706W        W87489  36.690  43.432   2.331
20707W        W87490   7.387  18.656  10.723
20708W        W87491  11.166   0.336   2.655
20709W        W87492  32.138  25.642  13.165
20710W        W87493   9.697   5.251   0.409
20711W        W87494   7.671  10.089  14.058
20712W        W87495  29.760  19.085  14.777
20713W        W87496  43.423  33.501  12.124
20714W        W87497  44.382  34.841  12.456
20715W        W87498  26.042  44.521   5.037
20716W        W87499   5.290  33.445   4.771
20717W        W87500  27.762  39.016  11.555
20718W        W87501  43.340  16.060  10.934
20719W        W87502  30.474   3.260  10.647
20720W        W87503  14.980  24.431  13.212
20721W        W87504   6.708   8.973   2.309
20722W        W87505  21.354  34.330  11.097
20723W        W87506  36.368   6.227   9.772
20724W        W87507  12.020  21.248   2.285
20725W        W87508   1.713  21.425   0.560
20726W        W87509  33.973  26.006  14.404
20727W        W87510  28.502  13.387  14.932
20728W        W87511  16.343   6.700  11.907
20729W        W87512  23.746   0.731  14.904
20730W        W87513   3.514   3.910   4.699
20731W        W87514  20.800  24.191  11.624
20732W        W87515  33.028  44.653  14.015
20733W        W87516  37.073  25.059   0.037
20734W        W87517  29.910  15.251  12.617
20735W        W87518  34.479  13.111  10.989
20736W        W87519  40.024  16.616  14.810
20737W        W87520  11.244  10.927  11.149
20738W        W87521   1.379  35.647  10.681
20739W        W87522   9.729  35.819   2.186
20740W        W87523  21.765  28.012   1.401
20741W        W87524  31.420  30.462  14.292
20742W        W87525  44.720  43.305  11.110
20743W        W87526   2.886  19.344  14.041
20744W        W87527   9.870   8.555  13.499
20745W        W87528  31.899  16.984   1.323
20746W        W87529   2.167  38.446  14.335
20747W        W87530  25.550   2.723   4.227
20748W        W87531  33.930  10.153  13.565
20749W        W87532   1.262   5.124  14.841
20750W        W87533   4.923  42.757   1.288
20751W        W87534  23.205  14.425   4.158
20752W        W87535  40.225  41.353   3.719
20753W        W87536  44.019   0.688  14.881
20754W        W87537  34.527  12.751  11.409
20755W        W87538  18.842  13.395  12.035
20756W        W87539  42.291   4.294   1.790
20757W        W87540  21.686  32.896   0.447
20758W        W87541  26.086   0.426   1.202
20759W        W87542   7.367  12.086   0.342
20760W        W87543   2.796  25.631  13.799
20761W        W87544   5.907  35.993   0.864
20762W        W87545  10.348  21.529   0.804
20763W        W87546  41.327  34.511   1.301
20764W        W87547  21.948   9.440  10.776
20765W        W87548  37.784  11.182   4.320
20766W        W87549  37.519  26.868  14.936
20767W        W87550  18.289   0.344  14.986
20768W        W87551  27.633   2.834  13.568
20769W        W87552  26.651  20.111   1.273
20770W        W87553   5.055  30.080  14.837
20771W        W87554  13.669  36.117  14.366
20772W        W87555  30.229   2.828   1.844
20773W        W87556   8.886  13.017  13.397
20774W        W87557  21.081  26.177   2.110
20775W        W87558  27.528  38.441  14.702
20776W        W87559  18.564  39.754  12.129
20777W        W87560  31.750   3.172  13.004
20778W        W87561  25.614  40.544   2.193
20779W        W87562  13.338  40.300  10.967
20780W        W87563  29.680  27.192  14.543
20781W        W87564   0.273  28.301   0.430
20782W        W87565  41.481   5.391  14.552
20783W        W87566  37.882  44.934  12.378
20784W        W87567  38.451  13.831  13.477
20785W        W87568  31.420   9.131   0.703
20786W        W87569  27.765   6.699   0.299
20787W        W87570  40.598  13.587   2.839
20788W        W87571  13.394  44.323  10.790
20789W        W87572  28.878   4.297   2.240
20790W        W87573  24.820  25.020   4.082
20791W        W87574  15.512   9.439   3.263
20792W        W87575  28.157  42.096  11.577
20793W        W87576  14.390  29.613   3.081
20794W        W87577  18.232  40.298   4.131
20795W        W87578  30.354  42.263  10.464
20796W        W87579   7.266  25.991  12.296
20797W        W87580  27.100  37.158   3.334
20798W        W87581  18.645  36.066  14.804
20799W        W87582  15.567   5.994  12.160
20800W        W87583  36.073  31.067  11.441
20801W        W87584  25.917  44.739   1.448
20802W        W87585   4.667  31.249   4.461
20803W        W87586  14.221  14.604   3.153
20804W        W87587   6.834  30.907   3.049
20805W        W87588   5.702   0.354  14.310
20806W        W87589   9.711  30.661   2.682
20807W        W87590  44.702  42.775   2.736
20808W        W87591  33.552  23.819  12.626
20809W        W87592  28.429   1.274  11.040
20810W        W87593  36.998  16.534  15.000
20811W        W87594  30.366  16.556   0.824
20812W        W87595  27.767  17.192   5.027
20813W        W87596  23.672  24.039   1.721
20814W        W87597  13.675  35.609  14.244
20815W        W87598   0.365  40.072  11.156
20816W        W87599  12.753  27.416  12.891
20817W        W87600  35.832  29.595   4.597
20818W        W87601  31.906  18.787   4.306
20819W        W87602   1.549  32.431   0.985
20820W        W87603  34.059   3.825  14.559
20821W        W87604  34.226   8.799   4.060
20822W        W87605  18.263   1.021  14.271
20823W        W87606   1.773   0.456  14.309
20824W        W87607  20.067  20.651   1.421
20825W        W87608  40.358  12.786   1.845
20826W        W87609  19.011  38.500  13.402
20827W        W87610   8.770   2.322  11.690
20828W        W87611   1.482  23.899  12.972
20829W        W87612   7.429   3.671   0.009
20830W        W87613  23.490  12.922   2.686
20831W        W87614  35.169  19.613  12.609
20832W        W87615  41.447   0.338  10.788
20833W        W87616  43.031  20.959   3.438
20834W        W87617  36.311  21.810   0.251
20835W        W87618  11.810   6.649   4.016
20836W        W87619  25.483  17.613  11.639
20837W        W87620   5.853  31.401  14.247
20838W        W87621  18.685  26.050  12.019
20839W        W87622  24.427   5.343   3.183
20840W        W87623  34.845  28.801   0.700
20841W        W87624  19.649  21.743  14.187
20842W        W87625  28.506  38.564   4.308
20843W        W87626  34.721  16.644  12.442
20844W        W87627  34.986  30.516   1.760
20845W        W87628   6.799  37.306   4.807
20846W        W87629  39.478  29.691   1.759
20847W        W87630  38.366  44.542   4.232
20848W        W87631   0.216  32.013   4.686
20849W        W87632  41.264   0.703  13.454
20850W        W87633  21.589  38.993  14.739
20851W        W87634  22.578  16.366   0.375
20852W        W87635  40.527  36.036   3.804
20853W        W87636  20.662  13.321  13.312
20854W        W87637  28.791  21.639   0.550
20855W        W87638  33.489  33.562   0.406
20856W        W87639  39.871  35.551   4.969
20857W        W87640  17.627  31.007  14.630
20858W        W87641  38.330  18.685   2.025
20859W        W87642   2.082  24.255   0.301
20860W        W87643   9.201  15.218  14.093
20861W        W87644  35.001  36.646  11.193
20862W        W87645  20.327   6.804   2.277
20863W        W87646  41.275  25.232  13.577
20864W        W87647   4.000   3.763   3.808
20865W        W87648  13.618   7.586   4.191
20866W        W87649  43.383  43.458  10.554
20867W        W87650  23.636  22.810  10.685
20868W        W87651   6.830  16.348  11.753
20869W        W87652  10.214  13.489  11.997
20870W        W87653  14.424  34.108   4.509
20871W        W87654  34.232  41.738  12.989
20872W        W87655   3.030  31.797  12.402
20873W        W87656  37.508  15.429   0.793
20874W        W87657  44.528  24.942  11.069
20875W        W87658   0.809  35.347   3.217
20876W        W87659  43.021  34.582   1.633
20877W        W87660  43.660  41.354  12.789
20878W        W87661  21.139   6.873  12.510
20879W        W87662  12.402  34.456  14.494
20880W        W87663  33.300  35.398  12.936
20881W        W87664  34.841  19.942  10.729
20882W        W87665  21.785   2.670   2.151
20883W        W87666  44.390  20.533   4.307
20884W        W87667   6.730   5.496  11.581
20885W        W87668  19.055  17.322   4.524
20886W        W87669   5.421  40.056   2.738
20887W        W87670  19.597  37.310  11.169
20888W        W87671  14.757  43.841  12.039
20889W        W87672  12.456  17.722   3.257
20890W        W87673  10.794  18.292  13.368
20891W        W87674  28.981   0.569  13.380
20892W        W87675  33.409  34.666   1.397
20893W        W87676  13.667  21.816  12.426
20894W        W87677  34.830   0.034  11.803
20895W        W87678  42.863   0.654   3.361
20896W        W87679   7.780   8.817   4.719
20897W        W87680  37.252  24.662  13.789
20898W        W87681  41.043   9.714   3.982
20899W        W87682  20.592   4.765  13.947
20900W        W87683  20.503   4.685  13.437
20901W        W87684   9.577  11.295   4.525
20902W        W87685  11.221  11.366   4.721
20903W        W87686   6.737  40.394   0.827
20904W        W87687   9.555  25.751   3.546
20905W        W87688  27.967  42.287   4.398
20906W        W87689  19.557  43.775   3.967
20907W        W87690  25.352  38.629   3.640
20908W        W87691   8.955  28.144  12.890
20909W        W87692   9.617  43.644  11.238
20910W        W87693   4.385  36.832  14.295
20911W        W87694  38.404   5.779   2.246
20912W        W87695   7.358  24.563  14.711
20913W        W87696   0.937  40.521  14.365
20914W        W87697   7.019  28.062  10.987
20915W        W87698  41.982  28.616   1.458
20916W        W87699  12.055  18.052   3.206
20917W        W87700   6.312  21.173   0.774
20918W        W87701  37.683  28.221  11.128
20919W        W87702  24.659  28.040   4.978
20920W        W87703  22.767  37.807   2.764
20921W        W87704  27.111  25.847  13.715
20922W        W87705  42.687   0.282  12.995
20923W        W87706   1.795  34.557   0.887
20924W        W87707   3.441  25.251   3.615
20925W        W87708   1.909  39.028  14.941
20926W        W87709  40.476  41.946   1.128
20927W        W87710  37.837  38.681   0.530
20928W        W87711  11.626  43.713  11.359
20929W        W87712  23.548  35.064   2.458
20930W        W87713   9.892   4.422   1.686
20931W        W87714   3.546  16.124   4.831
20932W        W87715  13.812  38.562  11.200
20933W        W87716  40.199  41.870   3.732
20934W        W87717  21.594   5.920   0.371
20935W        W87718  22.270  10.631   3.181
20936W        W87719  44.546  35.456   4.340
20937W        W87720  40.359  35.233  13.841
20938W        W87721   2.440   7.251  13.380
20939W        W87722  38.823  13.856  14.275
20940W        W87723   8.612  24.054   3.748
20941W        W87724   9.836  18.583  10.632
20942W        W87725  21.213  20.318   0.808
20943W        W87726  40.091  36.983   3.651
20944W        W87727  18.314   9.899  10.525
20945W        W87728  33.104   2.437   1.933
20946W        W87729  36.023  29.599  13.387
20947W        W87730  15.582  39.430  13.016
20948W        W87731  28.383   2.715  12.948
20949W        W87732  19.775  11.792   3.665
20950W        W87733   0.624  33.790  12.253
20951W        W87734  17.120  29.936   3.620
20952W        W87735   7.463  26.903  13.440
20953W        W87736  11.368   8.859   2.871
20954W        W87737   9.035  20.188  13.537
20955W        W87738  15.852  42.086   3.294
20956W        W87739  28.580   9.398   2.285
20957W        W87740  41.666   3.248  11.751
20958W        W87741  14.024   8.596  10.842
20959W        W87742  21.928   0.967   1.425
20960W        W87743  35.921  44.929   0.310
20961W        W87744  26.618  43.172   4.979
20962W        W87745   8.793  15.168   4.131
20963W        W87746  14.545   0.518  13.896
20964W        W87747  43.242   9.155  10.769
20965W        W87748  43.432   4.282  13.363
20966W        W87749  34.486  35.005   4.576
20967W        W87750  40.923  17.321   1.886
20968W        W87751  37.990  15.670   2.163
20969W        W87752  39.913  37.890   4.088
20970W        W87753  34.386  13.374   4.291
20971W        W87754  29.901  22.113  11.160
20972W        W87755   8.708  40.503   3.772
20973W        W87756  28.754   7.444   0.929
20974W        W87757   6.028   2.596   4.080
20975W        W87758  36.878  26.254  14.180
20976W        W87759  32.294  26.407   5.115
20977W        W87760  35.293  35.442  12.941
20978W        W87761  10.605  34.503   3.551
20979W        W87762  14.031  33.987   5.425
20980W        W87763   1.329  36.529  11.127
20981W        W87764  24.234  32.187   2.673
20982W        W87765   1.345   0.693   0.239
20983W        W87766   0.818  32.857  12.951
20984W        W87767  24.528  34.075   2.818
20985W        W87768  13.034   7.473   3.332
20986W        W87769  43.539  23.118  13.436
20987W        W87770  14.143  38.767  13.084
20988W        W87771  26.902  16.397  13.393
20989W        W87772  21.269  22.687  12.593
20990W        W87773  41.322   8.855  12.611
20991W        W87774  13.549  35.436   4.117
20992W        W87775  42.848   4.835   0.305
20993W        W87776  37.484  27.592  13.568
20994W        W87777  30.544   9.457   1.894
20995W        W87778  16.299  15.316  13.664
20996W        W87779  13.156  36.312  13.395
20997W        W87780  26.072   9.762  13.384
20998W        W87781  34.988   3.188   2.005
20999W        W87782   3.615  39.401   1.778
21000W        W87783  12.802  24.909   2.237
21001W        W87784  31.693  12.170  14.962
21002W        W87785  43.993  16.746  14.075
21003W        W87786  42.483  12.448  10.701
21004W        W87787  10.387   7.952   0.426
21005W        W87788  34.603  22.663  13.844
21006W        W87789   3.148  22.586  14.403
21007W        W87790  28.034  18.072   1.325
21008W        W87791   7.880  32.038   4.620
21009W        W87792  43.284  27.168  14.921
21010W        W87793   5.224  39.423   4.171
21011W        W87794  28.055  37.979   2.721
21012W        W87795  12.648  42.596  13.829
21013W        W87796  13.637   8.508   1.802
21014W        W87797   4.749  20.682  10.592
21015W        W87798   7.523  40.884   3.185
21016W        W87799  38.950   8.371  11.642
21017W        W87800   0.924  23.233  12.001
21018W        W87801  19.242  38.623  12.078
21019W        W87802   7.764  28.924   2.435
21020W        W87803  42.632  37.159  12.761
21021W        W87804  37.925  44.939   1.311
21022W        W87805   2.485  44.458  13.036
21023W        W87806  37.362  25.071   4.285
21024W        W87807  27.073  11.802   0.636
21025W        W87808  43.716  40.568   4.680
21026W        W87809  35.184  29.516   4.971
21027W        W87810  40.311   1.495  13.382
21028W        W87811   5.649   2.208  13.573
21029W        W87812  13.795  13.817   2.840
21030W        W87813  35.477  37.453   3.531
21031W        W87814   9.599  34.973  14.510
21032W        W87815  27.524  23.314  14.623
21033W        W87816  36.024  29.089  13.450
21034W        W87817  14.544  11.004  14.950
21035W        W87818  15.754  32.554  14.305
21036W        W87819  16.543   9.236   4.579
21037W        W87820  23.694  40.878  11.828
21038W        W87821   8.355   1.213   1.432
21039W        W87822  16.589  40.830   4.626
21040W        W87823  28.679   3.189  12.387
21041W        W87824  42.715  24.784   1.535
21042W        W87825   3.848  44.593   1.962
21043W        W87826  10.310  15.036   0.233
21044W        W87827  27.595  14.326   3.719
21045W        W87828  41.050  32.879  12.874
21046W        W87829  34.415  29.393  11.148
21047W        W87830  25.946  25.547   0.497
21048W        W87831  28.582  16.212   2.384
21049W        W87832  24.347   4.111  12.664
21050W        W87833  12.073  12.732  13.801
21051W        W87834  18.902  39.530   1.450
21052W        W87835  38.783  37.886  10.454
21053W        W87836  20.765  20.033   0.426
21054W        W87837  19.129  38.072   3.280
21055W        W87838  28.922  33.466   3.683
21056W        W87839  25.455  33.955   2.909
21057W        W87840  38.942  19.261   0.425
21058W        W87841   7.547  25.655  14.076
21059W        W87842  36.416   3.432   3.787
21060W        W87843  38.577  21.231  13.361
21061W        W87844  14.839  16.192   0.864
21062W        W87845  17.020  24.915  11.552
21063W        W87846  16.000   8.351   4.145
21064W        W87847  17.074  34.689   1.869
21065W        W87848  15.354  23.164  13.851
21066W        W87849  44.071  30.740   1.815
21067W        W87850  16.857   3.588   1.699
21068W        W87851  24.132  15.760   0.745
21069W        W87852  29.899   1.426   3.728
21070W        W87853  40.929   0.204  12.074
21071W        W87854  19.609   0.686  10.742
21072W        W87855   8.297  20.750  12.972
21073W        W87856  44.898  17.789  12.428
21074W        W87857   5.125  37.762   4.763
21075W        W87858   2.480  44.972   1.764
21076W        W87859  39.826  25.402   4.272
21077W        W87860  13.875  40.895   4.543
21078W        W87861  32.379  28.528   4.091
21079W        W87862  28.959  21.756   1.435
21080W        W87863   3.411  42.293  14.349
21081W        W87864   5.325   0.640  11.249
21082W        W87865  12.167  28.072   3.526
21083W        W87866  13.929  35.502   2.837
21084W        W87867  34.596  13.763   0.085
21085W        W87868   4.859  30.878   4.076
21086W        W87869   9.442  10.866   4.204
21087W        W87870  19.108  25.536  14.092
21088W        W87871  41.976  21.303   4.165
21089W        W87872  38.580   2.394   1.302
21090W        W87873  16.610   6.689  11.471
21091W        W87874  39.857  36.493  11.176
21092W        W87875  44.378  14.559  11.962
21093W        W87876  15.417  23.605   3.191
21094W        W87877   1.598  10.272  10.597
21095W        W87878   0.020   4.715  11.066
21096W        W87879  42.580  41.422  13.815
21097W        W87880  44.715  25.005   0.337
21098W        W87881  20.231  17.105  12.868
21099W        W87882  11.643   6.268  11.040
21100W        W87883  21.221   2.349   3.498
21101W        W87884  18.793  17.758  11.485
21102W        W87885   8.822  23.097  11.712
21103W        W87886  10.717  39.881   1.766
21104W        W87887  28.095  41.627  10.727
21105W        W87888  36.861   1.080   0.039
21106W        W87889  19.158  25.758   0.876
21107W        W87890   3.648  24.417   4.856
21108W        W87891   9.337  24.544   3.437
21109W        W87892  37.438   5.452  10.470
21110W        W87893  21.661   7.366  10.688
21111W        W87894   9.584   6.935  11.615
21112W        W87895  24.680   4.431   1.417
21113W        W87896  27.923   0.884   4.192
21114W        W87897  28.020   5.703   3.414
21115W        W87898  36.665  34.372   1.759
21116W        W87899  24.029  37.677  10.883
21117W        W87900  32.867  16.796  12.439
21118W        W87901  12.416   0.518   0.864
21119W        W87902   3.770  23.570  11.242
21120W        W87903  37.817  33.142  11.019
21121W        W87904  43.023  40.994  11.596
21122W        W87905  13.577  18.608   3.444
21123W        W87906  19.637  38.475  13.128
21124W        W87907   8.807  29.677  13.039
21125W        W87908  36.030   1.884  14.372
21126W        W87909  25.249  44.075  13.825
21127W        W87910   7.792  27.547   4.262
21128W        W87911  23.285  11.281  12.542
21129W        W87912  24.208  15.106  12.839
21130W        W87913  22.542  18.701  10.890
21131W        W87914   7.962  38.303  11.319
21132W        W87915   6.144  44.699   0.110
21133W        W87916  22.059  43.137  13.814
21134W        W87917  23.589  19.258  11.413
21135W        W87918  44.380  16.796   4.080
21136W        W87919  43.649  29.476   3.234
21137W        W87920  26.412  39.323  13.859
21138W        W87921  42.545  12.313   1.287
21139W        W87922  12.788  38.366   3.702
21140W        W87923   0.632  25.164   4.574
21141W        W87924  31.074   0.735  14.238
21142W        W87925  43.501  26.654  13.579
21143W        W87926  14.846  18.139  13.083
21144W        W87927  11.628  29.420   5.047
21145W        W87928  25.890  29.626  10.520
21146W        W87929  41.302  14.774   0.375
21147W        W87930  27.490  35.267   3.646
21148W        W87931   2.943   4.652   2.880
21149W        W87932   4.219   2.941  12.742
21150W        W87933  34.469  39.380  13.798
21151W        W87934  38.019  37.197   2.190
21152W        W87935  30.990   4.489   3.225
21153W        W87936  32.101  32.616  12.539
21154W        W87937   9.853  15.248   1.969
21155W        W87938  34.378   8.435   2.278
21156W        W87939  13.104  32.406   0.946
21157W        W87940  44.267  29.011  12.132
21158W        W87941   4.236   7.819   0.192
21159W        W87942   2.426   0.849  13.766
21160W        W87943  19.775  21.016   0.335
21161W        W87944  39.259  38.249   2.300
21162W        W87945  13.989  24.093   1.099
21163W        W87946  14.993  12.176  14.876
21164W        W87947  20.981  31.570  11.858
21165W        W87948   1.829  37.280  13.522
21166W        W87949  24.086  17.763   1.594
21167W        W87950  29.996  15.536   1.282
21168W        W87951  25.637  14.338  12.110
21169W        W87952  15.766   3.486   2.742
21170W        W87953  23.980  18.027  10.233
21171W        W87954   8.198  26.593   3.615
21172W        W87955  32.555   8.495   0.243
21173W        W87956  26.449  33.465   3.229
21174W        W87957  21.941  12.634  11.084
21175W        W87958  16.337  15.172  12.462
21176W        W87959   9.381  42.828   5.023
21177W        W87960   1.765  44.310  11.916
21178W        W87961  29.979  12.693   1.191
21179W        W87962  16.641  13.121   4.565
21180W        W87963  11.311  19.854   2.793
21181W        W87964  42.030  33.181   4.680
21182W        W87965  14.759  13.369   4.080
21183W        W87966  36.479  36.936  12.063
21184W        W87967  44.932  35.442   4.690
21185W        W87968  24.282  34.961   2.888
21186W        W87969  30.021  34.992  14.992
21187W        W87970  41.879   3.010   1.810
21188W        W87971  32.345  28.909  11.458
21189W        W87972  13.084   9.772   1.765
21190W        W87973  14.318  18.830  14.878
21191W        W87974   6.664  15.114   0.855
21192W        W87975  12.331  24.776   3.833
21193W        W87976  22.213  41.066   1.327
21194W        W87977  28.144  28.312   3.889
21195W        W87978   8.413  15.091   1.676
21196W        W87979  28.702  40.324   4.933
21197W        W87980  32.589   0.506  13.082
21198W        W87981  38.356  38.863  10.574
21199W        W87982  31.473  35.757  14.528
21200W        W87983  26.590  23.614  13.805
21201W        W87984  30.447   6.707  10.647
21202W        W87985  27.918  44.808  10.555
21203W        W87986  29.293  14.413   0.238
21204W        W87987  12.246  26.577  12.626
21205W        W87988  26.695  11.871   1.441
21206W        W87989   2.574  20.194  13.883
21207W        W87990  20.200   7.034   3.303
21208W        W87991   9.884  39.377  11.186
21209W        W87992   3.562  32.305  12.317
21210W        W87993  26.033  23.165  12.257
21211W        W87994  28.689  32.018  14.655
21212W        W87995  14.299  13.826  11.968
21213W        W87996  34.096  30.109  11.184
21214W        W87997   3.480  22.570  13.045
21215W        W87998  36.266   7.349  13.928
21216W        W87999  25.588   8.706   2.208
21217W        W88000   0.269   8.161   4.210
21218W        W88001  16.858  35.518   1.219
21219W        W88002  16.587  14.226  10.352
21220W        W88003  14.789  39.520   4.316
21221W        W88004   6.905  43.863  11.096
21222W        W88005   0.355   4.602  14.441
21223W        W88006  37.637  29.542  13.904
21224W        W88007  44.721   4.158  12.959
21225W        W88008  24.715   0.345  12.521
21226W        W88009  28.958  23.264  11.261
21227W        W88010  10.099  19.933   4.077
21228W        W88011   4.695  32.067   0.332
21229W        W88012  25.514  41.202  13.707
21230W        W88013  20.331  26.479   1.312
21231W        W88014  40.893   8.859  10.033
21232W        W88015   0.583  10.149  11.384
21233W        W88016  31.087   7.815   4.590
21234W        W88017  36.543  13.243   4.282
21235W        W88018  28.411   6.303  11.330
21236W        W88019  40.487  19.638   1.378
21237W        W88020  33.602   1.933   3.214
21238W        W88021  30.682  21.113   3.131
21239W        W88022  29.517  28.401   4.209
21240W        W88023  40.306  13.245  12.004
21241W        W88024  41.837  11.575  13.028
21242W        W88025  29.965  13.744   4.454
21243W        W88026  11.148   4.650   4.586
21244W        W88027  36.623  13.849   0.361
21245W        W88028  19.125  40.930  11.637
21246W        W88029  18.480  22.043  12.978
21247W        W88030  40.327  17.217  13.068
21248W        W88031  33.846   4.426   5.379
21249W        W88032  42.911  12.091  13.919
21250W        W88033  34.638  34.447   4.230
21251W        W88034  44.523   6.427  14.829
21252W        W88035  39.917  28.600  10.921
21253W        W88036  22.991  22.178  14.369
21254W        W88037  22.758  22.208   4.276
21255W        W88038   8.823  33.127   1.417
21256W        W88039  37.551   8.242  12.556
21257W        W88040   0.716  23.214   1.514
21258W        W88041  38.986  24.569   1.595
21259W        W88042  30.108  26.924  14.380
21260W        W88043  36.110  10.603   3.910
21261W        W88044   1.752  16.821   2.849
21262W        W88045  39.070  13.739   0.263
21263W        W88046  41.976  37.057  11.403
21264W        W88047  40.051  25.946  11.132
21265W        W88048  17.149  15.703  13.011
21266W        W88049  37.652  26.506  10.689
21267W        W88050   3.749  32.077   2.154
21268W        W88051  17.842  30.794   0.622
21269W        W88052   9.376  36.514  10.586
21270W        W88053  43.080  40.679   2.661
21271W        W88054  20.121  17.577  12.614
21272W        W88055  22.755  44.980   4.645
21273W        W88056   3.132   2.756   4.111
21274W        W88057  26.363  35.901   2.656
21275W        W88058  24.591  29.284  11.897
21276W        W88059  17.804  23.013   4.081
21277W        W88060  12.809  36.664   0.872
21278W        W88061   6.284  19.358   4.811
21279W        W88062   6.681  24.530   1.444
21280W        W88063  12.051  10.574  11.979
21281W        W88064  27.547  39.858   1.322
21282W        W88065  15.240  24.735  14.071
21283W        W88066  42.742  31.722  12.711
21284W        W88067  14.534  40.615   0.640
21285W        W88068  40.494   8.067   4.985
21286W        W88069   3.166  27.541   2.302
21287W        W88070  36.029   8.465  11.176
21288W        W88071   5.940  12.206   3.717
21289W        W88072  44.235  18.289   5.155
21290W        W88073  23.975  24.673   2.285
21291W        W88074  20.462  18.956  14.804
21292W        W88075  21.226  33.080   3.292
21293W        W88076  39.901  40.947   0.459
21294W        W88077   8.422  42.599  12.409
21295W        W88078   6.070  12.695  14.901
21296W        W88079  25.613  38.498   1.063
21297W        W88080  40.784  11.231   0.322
21298W        W88081   8.659  33.222   4.072
21299W        W88082  32.087   5.647  10.197
21300W        W88083  20.192   9.080  11.419
21301W        W88084  30.552  31.977   0.253
21302W        W88085  44.549  12.122   0.271
21303W        W88086  14.355   3.864  14.792
21304W        W88087  44.253   9.305   2.792
21305W        W88088  22.232  11.674  13.117
21306W        W88089   2.109  16.378   1.962
21307W        W88090  22.982   5.838   2.284
21308W        W88091   8.305  44.288  11.237
21309W        W88092  12.728  14.183   2.187
21310W        W88093  36.888  19.665   1.139
21311W        W88094  26.107  20.217  13.177
21312W        W88095   5.156  13.543  14.357
21313W        W88096   2.985   0.571  10.706
21314W        W88097  26.494  21.180  12.987
21315W        W88098  20.143  28.549   3.576
21316W        W88099  15.615  23.149   0.325
21317W        W88100  11.301   0.502  14.417
21318W        W88101  14.804  32.469   0.898
21319W        W88102  13.919  29.995  14.030
21320W        W88103   0.160   9.187   0.750
21321W        W88104  36.779  24.879  12.001
21322W        W88105  10.985  35.017  13.980
21323W        W88106  19.565   8.308  14.423
21324W        W88107  33.539  37.451  13.838
21325W        W88108  33.121  40.869   3.964
21326W        W88109  28.040   3.247  13.019
21327W        W88110  35.453  37.996  14.577
21328W        W88111  30.918  36.225   3.493
21329W        W88112  24.129  36.986  11.619
21330W        W88113  36.155   8.400  12.514
21331W        W88114  21.315  36.896   3.564
21332W        W88115  32.898  35.871   4.514
21333W        W88116  18.077  28.893  13.929
21334W        W88117  32.766  31.252  11.444
21335W        W88118  19.692  32.634   1.763
21336W        W88119   0.274  26.208  13.278
21337W        W88120  10.346  11.110   3.146
21338W        W88121  12.932   0.917  14.665
21339W        W88122   4.922  12.775  12.008
21340W        W88123  22.830  18.771  13.723
21341W        W88124  27.007  43.291   0.807
21342W        W88125  10.335  18.400  12.629
21343W        W88126  29.937  17.540   1.619
21344W        W88127  14.185   2.338  10.643
21345W        W88128  11.897  14.602  12.951
21346W        W88129  40.743  17.873   0.830
21347W        W88130   4.178  19.515  12.205
21348W        W88131  29.846  15.322   2.813
21349W        W88132  13.066  12.577   0.042
21350W        W88133  25.318   4.463   2.783
21351W        W88134  32.622   8.807   0.676
21352W        W88135  26.153   9.202  14.730
21353W        W88136  15.044  25.644  13.795
21354W        W88137   0.105  26.122   0.373
21355W        W88138  26.140  26.209   2.551
21356W        W88139  35.170  40.997  14.526
21357W        W88140  41.502  21.142   4.788
21358W        W88141   4.504  44.629  11.122
21359W        W88142  20.573   2.824  11.601
21360W        W88143  18.902  17.028  13.448
21361W        W88144  28.742  35.424  13.074
21362W        W88145   9.959  21.744  13.821
21363W        W88146  42.299  21.509   1.231
21364W        W88147  42.830  25.733   3.884
21365W        W88148  23.989  20.968  10.762
21366W        W88149  10.097  40.349   0.290
21367W        W88150   3.103  30.531   1.897
21368W        W88151  20.642  33.945   1.127
21369W        W88152  36.488  17.753   4.192
21370W        W88153  33.844  21.101  14.803
21371W        W88154  30.420   7.221   3.525
21372W        W88155  37.541   3.286   0.008
21373W        W88156  23.514   5.814  10.860
21374W        W88157  24.103  27.620   4.494
21375W        W88158  14.406  13.726   0.852
21376W        W88159  25.219  39.374  10.173
21377W        W88160   2.053   4.386  10.875
21378W        W88161  40.257  41.090  11.999
21379W        W88162  15.555  26.983   3.631
21380W        W88163  38.490  22.532  12.970
21381W        W88164   3.137  20.517   4.734
21382W        W88165  32.732   0.523   2.817
21383W        W88166   9.319  20.915  14.825
21384W        W88167  29.195  17.183  12.075
21385W        W88168  44.513  10.510  10.698
21386W        W88169  19.523  14.682   3.106
21387W        W88170   5.976  33.368  14.002
21388W        W88171   2.484  25.982   4.443
21389W        W88172  28.845   7.260  11.206
21390W        W88173  34.164  24.180  10.615
21391W        W88174  12.263  37.293   0.622
21392W        W88175  42.078  28.195  13.920
21393W        W88176  13.135  10.741   4.153
21394W        W88177   6.740  18.554   4.526
21395W        W88178  11.048  38.706   4.644
21396W        W88179  22.955  24.382   4.835
21397W        W88180  21.343  26.644  13.785
21398W        W88181   1.573  17.046  12.600
21399W        W88182  18.848  17.730  14.548
21400W        W88183  26.690  26.710   1.208
21401W        W88184  17.530  10.102   2.930
21402W        W88185   5.830  44.456   4.138
21403W        W88186  37.300  20.243   3.224
21404W        W88187  32.913  39.506   3.764
21405W        W88188  34.852  31.448  11.831
21406W        W88189  30.115  38.096  13.873
21407W        W88190  31.886  22.147  13.789
21408W        W88191   3.481  26.584   1.452
21409W        W88192  26.851  21.308  11.544
21410W        W88193  37.903  11.901  13.323
21411W        W88194  42.434   4.944  11.518
21412W        W88195  22.016   6.691   1.255
21413W        W88196  35.017  36.305   0.749
21414W        W88197  33.248  27.221   1.789
21415W        W88198   8.910  35.885  12.874
21416W        W88199   1.290  35.105  14.201
21417W        W88200  22.628   1.200   2.425
21418W        W88201  17.182   8.159  13.996
21419W        W88202  13.004  21.527   1.697
21420W        W88203  29.843   8.417  11.974
21421W        W88204   2.311  22.730   0.448
21422W        W88205  21.688  12.860   2.684
21423W        W88206  41.300  40.431   3.279
21424W        W88207   3.851  27.709  12.659
21425W        W88208  10.102   4.117   2.348
21426W        W88209  30.655  43.793  10.729
21427W        W88210  19.495  33.453   3.216
21428W        W88211  16.234  21.070  10.622
21429W        W88212   1.312  39.882  14.910
21430W        W88213  26.427  41.043   3.372
21431W        W88214  13.708  11.580  12.486
21432W        W88215  31.591  15.420   2.540
21433W        W88216  27.749  12.681   0.381
21434W        W88217  44.257  38.304  10.798
21435W        W88218  36.486   2.709   3.055
21436W        W88219  11.271  34.875   0.465
21437W        W88220  16.194  38.440  14.324
21438W        W88221   7.387  20.479   2.219
21439W        W88222  38.295  29.417  12.084
21440W        W88223  40.321  38.432  12.412
21441W        W88224  35.050  33.376  10.722
21442W        W88225  42.485  10.705  14.723
21443W        W88226  19.775   6.401   4.339
21444W        W88227   1.054  31.440  11.471
21445W        W88228  28.595  32.457  14.364
21446W        W88229  21.193  13.172   5.060
21447W        W88230  20.785  35.900   3.773
21448W        W88231  43.339  20.316   4.185
21449W        W88232  27.120  37.925   9.888
21450W        W88233  11.071  33.341   4.338
21451W        W88234  44.662  35.984   4.189
21452W        W88235   7.931  39.304  13.591
21453W        W88236  31.536  23.477  14.031
21454W        W88237  23.022   1.549   5.431
21455W        W88238  23.088   5.918  11.629
21456W        W88239   6.302  22.733  10.639
21457W        W88240   0.680  19.683   1.484
21458W        W88241   7.579  22.461   5.032
21459W        W88242   2.554  39.140   4.881
21460W        W88243  13.265  43.445  12.022
21461W        W88244  15.117  33.597   4.910
21462W        W88245  17.585  17.688   1.223
21463W        W88246  41.008  14.585   1.473
21464W        W88247   0.182  16.297  12.920
21465W        W88248  13.424  38.391   4.142
21466W        W88249   4.971  30.062   2.564
21467W        W88250  36.734  18.786  14.531
21468W        W88251  35.574  28.145   4.532
21469W        W88252   1.722  15.606  13.336
21470W        W88253  38.037  19.861   4.320
21471W        W88254   4.956  37.454   0.191
21472W        W88255  41.876  19.771   3.312
21473W        W88256  21.752   7.204  13.563
21474W        W88257  44.028  36.322   4.620
21475W        W88258   8.794  25.577  12.301
21476W        W88259  24.917  13.803   2.351
21477W        W88260  40.037  29.730  11.533
21478W        W88261  17.188   4.387  10.731
21479W        W88262  30.676  23.999  13.694
21480W        W88263  29.029   2.939   2.821
21481W        W88264  30.951  23.465   3.170
21482W        W88265  37.387  30.274  12.892
21483W        W88266  25.525   0.910   4.134
21484W        W88267  31.148  24.079   1.864
21485W        W88268  40.553  37.473  14.981
21486W        W88269   4.174  38.080   2.912
21487W        W88270  17.310   0.819  10.566
21488W        W88271  43.273  42.815   3.715
21489W        W88272  32.887  35.885   3.746
21490W        W88273  12.643  34.992  11.958
21491W        W88274  44.677  22.304   1.171
21492W        W88275  19.967  35.944   4.578
21493W        W88276  23.613  28.144  14.797
21494W        W88277  16.344  36.559  11.086
21495W        W88278   6.753  32.005  13.662
21496W        W88279  32.418   4.709  11.527
21497W        W88280  25.755  19.462  11.602
21498W        W88281  43.432  42.316   3.694
21499W        W88282  35.954  30.614   2.115
21500W        W88283  42.276  12.693   1.741
21501W        W88284  40.831  25.580  12.524
21502W        W88285  20.695  19.709  13.095
21503W        W88286  23.285  18.239  12.415
21504W        W88287   3.662   6.242  11.140
21505W        W88288   2.457   1.208   3.181
21506W        W88289  10.781  26.007  12.910
21507W        W88290   4.391  40.546  14.264
21508W        W88291  18.290  34.156  11.082
21509W        W88292  20.815  30.729  14.963
21510W        W88293   4.499  43.343   0.687
21511W        W88294  10.819  16.153   3.617
21512W        W88295  12.191  23.825   2.743
21513W        W88296  15.885  31.849   0.850
21514W        W88297  41.238   4.551   1.962
21515W        W88298   4.289  32.476  12.934
21516W        W88299  12.752  26.031   4.595
21517W        W88300  32.936   5.353  12.388
21518W        W88301  18.257  35.965  14.486
21519W        W88302  21.613  30.694   0.995
21520W        W88303  14.723  43.501   4.134
21521W        W88304  20.229  28.305   5.032
21522W        W88305   5.436  27.475   2.771
21523W        W88306  30.234   9.934  13.580
21524W        W88307  32.502  23.216   2.285
21525W        W88308   4.834  25.769  11.670
21526W        W88309  14.747  16.545  14.881
21527W        W88310  39.315   7.177  14.910
21528W        W88311  43.348   2.571   1.416
21529W        W88312  33.327  28.864  11.302
21530W        W88313   0.759   5.332  14.837
21531W        W88314   5.199  29.107   2.411
21532W        W88315  38.927  30.578  14.443
21533W        W88316  21.583  39.710   2.374
21534W        W88317   7.133   6.111  13.854
21535W        W88318   8.003  19.438   4.495
21536W        W88319  13.595   7.842   9.695
21537W        W88320   2.153   1.906  12.632
21538W        W88321  26.621  44.711  12.436
21539W        W88322  37.487  38.862   4.068
21540W        W88323  26.627  41.944  14.822
21541W        W88324  39.252  28.738   3.348
21542W        W88325  35.098  33.649   0.109
21543W        W88326  23.450  33.039   1.413
21544W        W88327  13.728   2.043  13.507
21545W        W88328   0.290   0.353  11.708
21546W        W88329  13.796  16.422  14.912
21547W        W88330  28.055  41.340   0.713
21548W        W88331  16.633   3.642  14.638
21549W        W88332  44.985  14.790  12.607
21550W        W88333   3.138  29.983   4.905
21551W        W88334  18.003   6.776   4.535
21552W        W88335   2.072  17.035   3.273
21553W        W88336  35.892  19.671   4.901
21554W        W88337  26.669  26.370  10.361
21555W        W88338  32.636  43.025  14.668
21556W        W88339  14.634  44.223   3.192
21557W        W88340  36.922  17.286   4.552
21558W        W88341  19.613   2.624   3.611
21559W        W88342  20.372  31.367   3.190
21560W        W88343  42.995  32.861   4.577
21561W        W88344  40.777  10.027  13.027
21562W        W88345   5.497  20.188  11.552
21563W        W88346  10.176  32.025   2.139
21564W        W88347  40.661   4.684   4.118
21565W        W88348  26.428  12.616  14.965
21566W        W88349  30.159  10.903  13.434
21567W        W88350  44.459  12.878   4.709
21568W        W88351  11.649  25.498  10.366
21569W        W88352  20.295  12.393   4.174
21570W        W88353  42.340  30.002   2.614
21571W        W88354   9.000  22.052  13.963
21572W        W88355   7.899  13.542  12.886
21573W        W88356   2.675   1.121   0.311
21574W        W88357  28.120  41.017   9.897
21575W        W88358  18.517  33.117  12.960
21576W        W88359  29.951  32.355  12.574
21577W        W88360  19.103  44.679   4.801
21578W        W88361  26.513  39.001  12.456
21579W        W88362  12.178   2.278   3.760
21580W        W88363  15.202  43.237   4.053
21581W        W88364   9.374  22.194  12.490
21582W        W88365  15.724  10.888  11.977
21583W        W88366  29.980  14.103   4.053
21584W        W88367   2.722  23.166  13.846
21585W        W88368  12.235  41.543   1.326
21586W        W88369  14.585  43.705   2.561
21587W        W88370  11.933  34.066   1.819
21588W        W88371  23.984   0.469   2.607
21589W        W88372   5.267   2.029   4.130
21590W        W88373  31.630   1.602  13.202
21591W        W88374  23.675  40.953  13.332
21592W        W88375  25.061  32.213   3.597
21593W        W88376   4.696   9.872   4.533
21594W        W88377  29.652   5.825   1.773
21595W        W88378  15.817   4.404  13.954
21596W        W88379   0.262   8.760  13.865
21597W        W88380   8.107  34.579   2.829
21598W        W88381   5.895   4.129   4.348
21599W        W88382  33.812  27.585   3.687
21600W        W88383  35.495  38.328   1.469
21601W        W88384  44.893  31.197   1.648
21602W        W88385  29.913  14.221  12.950
21603W        W88386  24.247   8.727   3.642
21604W        W88387  26.718  31.184   4.640
21605W        W88388  35.324  21.258  11.110
21606W        W88389  12.093   6.386  12.276
21607W        W88390  21.626   1.405   4.773
21608W        W88391  11.225  42.327   3.404
21609W        W88392  39.292  24.095   1.312
21610W        W88393  35.322  29.636   4.461
21611W        W88394  29.407  26.424   3.685
21612W        W88395  12.354   2.073   1.436
21613W        W88396  22.155  29.131  14.130
21614W        W88397  16.816  39.311  11.492
21615W        W88398  24.384  11.264  10.600
21616W        W88399  13.238  30.882   2.530
21617W        W88400   1.340  30.984   0.695
21618W        W88401  42.245  39.726   2.811
21619W        W88402  18.244  38.809  12.966
21620W        W88403   9.994  19.365  12.427
21621W        W88404  13.124  31.984  12.502
21622W        W88405  19.878  31.612   2.003
21623W        W88406  38.362   6.853  13.330
21624W        W88407  18.857   9.318   4.099
21625W        W88408   9.673  43.953   4.771
21626W        W88409  32.129  37.428  10.343
21627W        W88410  29.673   6.099   1.333
21628W        W88411  26.120  40.525   2.275
21629W        W88412  10.602  32.032  11.193
21630W        W88413  25.506  17.027   4.624
21631W        W88414  24.613  16.135   4.445
21632W        W88415  23.214   0.798   2.918
21633W        W88416  35.830   6.029  14.430
21634W        W88417  11.962  40.793   1.717
21635W        W88418  43.094  27.759   4.191
21636W        W88419  34.782  38.843  10.273
21637W        W88420   9.734  43.880  13.947
21638W        W88421  39.876  41.072   4.863
21639W        W88422  14.762  11.271  14.560
21640W        W88423  40.533  42.229  14.266
21641W        W88424   3.398   5.335   1.253
21642W        W88425  26.621  11.759   0.386
21643W        W88426  12.884  19.804   2.052
21644W        W88427  43.218  34.417   2.898
21645W        W88428  25.955  20.528   1.454
21646W        W88429  23.679  28.164  11.042
21647W        W88430   1.466   8.872   1.403
21648W        W88431   1.264  34.634  10.632
21649W        W88432  24.218  44.906  11.710
21650W        W88433  44.265  44.212  14.351
21651W        W88434  42.029  42.468   3.435
21652W        W88435  12.644  15.109   4.662
21653W        W88436   4.857  31.571  14.612
21654W        W88437  16.512   0.712   2.085
21655W        W88438  36.914  26.378  11.967
21656W        W88439   0.901  33.033  11.435
21657W        W88440  30.458  13.442   1.446
21658W        W88441  21.507  20.708  14.872
21659W        W88442  13.076  32.009   4.556
21660W        W88443  33.081  24.471  14.376
21661W        W88444  23.665  33.419  12.950
21662W        W88445  29.518  17.864  12.982
21663W        W88446  12.271  20.081  10.617
21664W        W88447  34.086  30.608  13.893
21665W        W88448  18.675  41.221  11.706
21666W        W88449   0.884   1.373  14.961
21667W        W88450   1.291  27.205  14.372
21668W        W88451   1.984  38.968   4.640
21669W        W88452  30.237  34.820  11.563
21670W        W88453  12.127   2.935   1.706
21671W        W88454  14.109  35.067   4.624
21672W        W88455  27.202  37.527   5.099
21673W        W88456  44.976  29.178  11.119
21674W        W88457  33.625   9.227   1.857
21675W        W88458  36.435  26.359  13.430
21676W        W88459  38.333  24.199   2.286
21677W        W88460  35.223  20.741   1.780
21678W        W88461  23.682  15.743  13.837
21679W        W88462  24.922   9.376  10.438
21680W        W88463   8.729   9.828   0.282
21681W        W88464  11.035  13.202   1.896
21682W        W88465  30.400   0.229  11.509
21683W        W88466   6.309   2.956  12.847
21684W        W88467   9.883  30.826   1.288
21685W        W88468  41.416  37.818  10.541
21686W        W88469  24.480  33.090  13.927
21687W        W88470  37.817  44.754  11.496
21688W        W88471  28.690  12.135   4.380
21689W        W88472  41.491  27.467   2.480
21690W        W88473  37.102  19.316   2.291
21691W        W88474   7.090  35.929  10.650
21692W        W88475  12.799  43.285  14.923
21693W        W88476  31.977  27.596  14.572
21694W        W88477   9.325  13.667   2.638
21695W        W88478  26.170  43.758   2.834
21696W        W88479  44.554  12.212  13.819
21697W        W88480   5.953  15.678  11.978
21698W        W88481   1.449  34.342   2.987
21699W        W88482   0.926  20.185   0.204
21700W        W88483  30.130  19.402  14.955
21701W        W88484  31.441  41.538   1.945
21702W        W88485  23.102  32.929   3.230
21703W        W88486  19.533  21.319   4.582
21704W        W88487  21.640  35.655  13.860
21705W        W88488  15.857  21.543  10.933
21706W        W88489  31.140  18.055  11.561
21707W        W88490  31.055  44.704   2.188
21708W        W88491  32.411  43.283   3.819
21709W        W88492  40.440  24.737  14.776
21710W        W88493  30.529   3.778  14.479
21711W        W88494  27.748  16.578   0.491
21712W        W88495  33.574  25.298  12.576
21713W        W88496  40.779   4.939   4.588
21714W        W88497  18.544   9.152  14.377
21715W        W88498  22.840  35.886  12.369
21716W        W88499   8.236  29.250   4.491
21717W        W88500  43.480  41.919  13.382
21718W        W88501  22.688  40.099  13.372
21719W        W88502  41.880  24.457  12.938
21720W        W88503   8.387   2.452  10.710
21721W        W88504  27.592  19.683  14.109
21722W        W88505   8.255   5.353  11.915
21723W        W88506  21.663  44.739   3.862
21724W        W88507  43.906  20.238  12.464
21725W        W88508   2.219  39.061  10.803
21726W        W88509  37.547  34.266  11.096
21727W        W88510  30.023  10.660  14.901
21728W        W88511  32.174  30.294   9.717
21729W        W88512  26.535  40.055   1.401
21730W        W88513  12.599  16.287   0.488
21731W        W88514  30.670   5.796  14.484
21732W        W88515  43.727  25.777   4.081
21733W        W88516  19.927  36.841   3.512
21734W        W88517   8.612   1.512  12.924
21735W        W88518  32.462  24.618  12.525
21736W        W88519  25.949  23.415   1.393
21737W        W88520  24.187  35.996   3.349
21738W        W88521  11.668  23.220   2.829
21739W        W88522  44.873  38.899  14.427
21740W        W88523  10.042  25.542  14.845
21741W        W88524  31.214  12.277   4.010
21742W        W88525   5.354  26.135   0.907
21743W        W88526  17.874   5.708  10.945
21744W        W88527  16.697  26.700  12.919
21745W        W88528  18.181  16.481  11.504
21746W        W88529  15.413   6.639  13.959
21747W        W88530  27.998  40.632  14.757
21748W        W88531  40.830   4.314  14.008
21749W        W88532  30.912  31.661   0.469
21750W        W88533  17.587  40.466  14.329
21751W        W88534  40.221  31.462   4.604
21752W        W88535   3.793  23.743   1.899
21753W        W88536  12.135  10.553   3.229
21754W        W88537  25.567  28.090  12.446
21755W        W88538   5.871  42.133   3.684
21756W        W88539  41.240  38.269   2.428
21757W        W88540   6.006   9.636   2.641
21758W        W88541   8.708   5.948   0.853
21759W        W88542  14.545  43.460  11.362
21760W        W88543  27.732  33.605   1.251
21761W        W88544   8.646  26.594  13.785
21762W        W88545  23.563  10.756   4.764
21763W        W88546  42.563   9.317  11.665
21764W        W88547   5.403  16.678  12.898
21765W        W88548  17.098  19.187   0.462
21766W        W88549  40.257  33.398  10.295
21767W        W88550  36.362  41.955  12.991
21768W        W88551  29.869  32.167  11.232
21769W        W88552  34.800  42.490   0.800
21770W        W88553  37.932  28.662   2.875
21771W        W88554  22.655  40.849  12.729
21772W        W88555  38.609  34.656   0.299
21773W        W88556  19.766  39.036  14.495
21774W        W88557  10.455  42.306  11.153
21775W        W88558  15.752  31.556   2.198
21776W        W88559   3.450  22.456  13.909
21777W        W88560  34.398  42.398  11.537
21778W        W88561  39.368  29.614   3.593
21779W        W88562  11.094  34.604   3.661
21780W        W88563   4.547  22.715  11.495
21781W        W88564  34.053  27.021   1.292
21782W        W88565  12.879  39.592   1.640
21783W        W88566  17.786  11.259   0.996
21784W        W88567  39.922  11.934   3.556
21785W        W88568   5.483  25.693  12.460
21786W        W88569  26.826   6.330   0.231
21787W        W88570  16.760  22.965   4.171
21788W        W88571  30.606  23.774   4.378
21789W        W88572   2.221  31.983   4.531
21790W        W88573  18.361  17.130  13.555
21791W        W88574   6.749  21.822  11.849
21792W        W88575  43.986  39.612  14.979
21793W        W88576  43.359  15.570  14.928
21794W        W88577  38.880  27.654   0.323
21795W        W88578  14.223  33.868  14.240
21796W        W88579   3.422  28.533  10.741
21797W        W88580  40.112  27.578   3.124
21798W        W88581  17.525  37.940  12.481
21799W        W88582  40.144  28.972  13.389
21800W        W88583  15.340  11.367  13.407
21801W        W88584  33.100  19.298   1.307
21802W        W88585  17.148  29.694   3.166
21803W        W88586  15.782   0.378  11.886
21804W        W88587  18.031  12.515  10.100
21805W        W88588  27.634  43.709  11.931
21806W        W88589  20.565   9.250   3.160
21807W        W88590  41.069   3.257   4.146
21808W        W88591   6.166  28.133  10.336
21809W        W88592   8.635   1.363  14.873
21810W        W88593  15.242  10.137  12.096
21811W        W88594  29.759  19.634   9.932
21812W        W88595   0.177  12.347  14.917
21813W        W88596   6.458  29.458  12.029
21814W        W88597   7.480  39.173  13.388
21815W        W88598   8.548  24.096   1.139
21816W        W88599  22.963   8.197   0.442
21817W        W88600  12.655   1.558   4.163
21818W        W88601  30.254  14.004   1.467
21819W        W88602  16.992  17.653   2.561
21820W        W88603   0.923  28.530  14.824
21821W        W88604  25.569  15.657   0.758
21822W        W88605  18.031  17.895  11.949
21823W        W88606  33.594  33.091   1.688
21824W        W88607  24.543  43.706   0.337
21825W        W88608  11.686  32.175   3.778
21826W        W88609  42.415  37.915  14.442
21827W        W88610  24.955  10.788   2.813
21828W        W88611  23.521  15.072  13.983
21829W        W88612  32.013   0.532   0.734
21830W        W88613  23.109  34.877  14.872
21831W        W88614   0.955  32.263   5.036
21832W        W88615  21.949  17.152   3.887
21833W        W88616  20.577   9.135  12.613
21834W        W88617  33.806   0.991  13.903
21835W        W88618  35.510  16.031  10.713
21836W        W88619  21.289  36.285   4.615
21837W        W88620  21.780  15.238  13.347
21838W        W88621  31.638  13.240   3.436
21839W        W88622  21.230  38.560   1.701
21840W        W88623  37.631  41.947   5.318
21841W        W88624  26.551  37.467  10.328
21842W        W88625  25.128   1.165   3.779
21843W        W88626  35.969  15.213  12.495
21844W        W88627  28.746  33.587   0.254
21845W        W88628  39.439   1.817   0.720
21846W        W88629  37.978  25.103  14.615
21847W        W88630  31.298  23.037   1.717
21848W        W88631  20.342  20.259   3.321
21849W        W88632  13.169  15.968   4.950
21850W        W88633  32.662   6.717   0.693
21851W        W88634   7.722   1.197   2.746
21852W        W88635   9.672  20.460   2.966
21853W        W88636  31.121   2.947  13.387
21854W        W88637   5.076  29.671   1.442
21855W        W88638  36.497  19.163   3.176
21856W        W88639  40.826  42.025   3.680
21857W        W88640  17.609  14.964  14.923
21858W        W88641  43.464  36.738  12.587
21859W        W88642  13.711  43.787  10.902
21860W        W88643  19.659   4.854   1.300
21861W        W88644  12.802  30.077  10.957
21862W        W88645  28.656  23.023   3.177
21863W        W88646  39.059  26.508   3.268
21864W        W88647  16.661  43.285  12.456
21865W        W88648   0.039  12.254   0.425
21866W        W88649  35.115  10.755   1.535
21867W        W88650  40.864  26.618  12.195
21868W        W88651   7.214  34.438  14.320
21869W        W88652  23.226  42.211  11.570
21870W        W88653  27.489  41.462  14.420
21871W        W88654   2.197  19.950   1.406
21872W        W88655  10.439  42.982  12.460
21873W        W88656  33.978  33.921   4.137
21874W        W88657  30.549  41.284  14.610
21875W        W88658  38.115   7.699  13.852
21876W        W88659  10.659   9.211   1.797
21877W        W88660  23.092  35.526   3.081
21878W        W88661  32.796  24.084  11.681
21879W        W88662  10.589  23.124  11.141
21880W        W88663  42.038   0.352  13.543
21881W        W88664  25.619  24.977  14.847
21882W        W88665  39.387  14.135   3.647
21883W        W88666   8.156  27.666   4.627
21884W        W88667  42.291   5.946  12.978
21885W        W88668  29.482  33.642   2.955
21886W        W88669  10.920  40.519   4.854
21887W        W88670  42.944  21.233  11.464
21888W        W88671  18.519  12.375   2.768
21889W        W88672  12.316  29.554  13.732
21890W        W88673  34.956  44.687   4.287
21891W        W88674  18.277   0.831  12.760
21892W        W88675  28.619  11.297  14.608
21893W        W88676  24.053  34.983   2.412
21894W        W88677  35.512  40.549   3.241
21895W        W88678  20.674   3.891  14.595
21896W        W88679  27.135  17.927   2.967
21897W        W88680  37.743   8.195   0.158
21898W        W88681   3.561   0.275   4.942
21899W        W88682  15.492   5.185  14.559
21900W        W88683  40.259  26.062   1.913
21901W        W88684   4.658  30.842   3.602
21902W        W88685  41.530  38.436  13.503
21903W        W88686   1.266  34.371  14.943
21904W        W88687  12.397  25.030  14.501
21905W        W88688  13.023  19.727  11.981
21906W        W88689  11.301  22.432  14.715
21907W        W88690  34.049  43.703   1.554
21908W        W88691   9.679   3.710   3.216
21909W        W88692  15.363  20.687   2.241
21910W        W88693  37.755   8.184  10.786
21911W        W88694  18.226   9.785   0.470
21912W        W88695   7.205  16.900   2.143
21913W        W88696  12.183  23.691  13.370
21914W        W88697  39.436  41.496   4.241
21915W        W88698   0.258  38.955   0.735
21916W        W88699  26.156  18.089  13.384
21917W        W88700  14.712   1.267   2.222
21918W        W88701  35.393  32.681   2.825
21919W        W88702  17.655   6.207   3.198
21920W        W88703  14.334  23.768   1.309
21921W        W88704  31.354  18.363  11.171
21922W        W88705  34.664   5.838  11.158
21923W        W88706   0.562  26.503   3.302
21924W        W88707  28.901   0.370  11.550
21925W        W88708   8.596  22.641  12.015
21926W        W88709  43.070  16.648   5.061
21927W        W88710   1.687  16.787  13.828
21928W        W88711  21.050  25.156   0.136
21929W        W88712  21.139  23.100   0.294
21930W        W88713  14.301  11.385   4.638
21931W        W88714  23.373   3.742  11.636
21932W        W88715  16.265   5.254   0.324
21933W        W88716   7.299  25.930  11.776
21934W        W88717  31.108  11.298   1.393
21935W        W88718   4.349  34.318   2.450
21936W        W88719  12.349  34.586   3.112
21937W        W88720  19.716  29.745   1.417
21938W        W88721  33.817   7.832   0.260
21939W        W88722  19.913  14.879   1.957
21940W        W88723  33.176  13.423  11.529
21941W        W88724  16.687  36.586   1.536
21942W        W88725  37.484   1.245   2.826
21943W        W88726  29.438  17.712  12.480
21944W        W88727  29.681  43.065   2.799
21945W        W88728  18.160  41.142  12.183
21946W        W88729   3.078   2.220   4.117
21947W        W88730   7.488  22.405  14.036
21948W        W88731  17.148   9.888   1.388
21949W        W88732   0.856  44.381   9.931
21950W        W88733  35.105   0.525  14.896
21951W        W88734  38.441  16.371   1.916
21952W        W88735   1.354   1.717  11.938
21953W        W88736   5.399  15.564  11.133
21954W        W88737  38.113  37.633  11.474
21955W        W88738  20.113   5.511  13.835
21956W        W88739  15.927  22.821  10.209
21957W        W88740  37.314   3.199   3.931
21958W        W88741  27.047  24.387   4.976
21959W        W88742  13.725  13.623  13.517
21960W        W88743  28.956  13.225   0.761
21961W        W88744  34.103  41.347  12.055
21962W        W88745  28.141  13.027   2.662
21963W        W88746   3.970   6.775   3.350
21964W        W88747  15.173  21.028   0.721
21965W        W88748  20.064   7.180   1.870
21966W        W88749  31.963  28.751   0.708
21967W        W88750  15.638  28.247  11.146
21968W        W88751  27.470  11.436   1.302
21969W        W88752  29.449   4.198   0.321
21970W        W88753   1.063  44.795  11.584
21971W        W88754   5.220  34.111  10.621
21972W        W88755  12.546  41.925  11.117
21973W        W88756  19.156  17.311   0.937
21974W        W88757  36.580  20.827   0.214
21975W        W88758  13.625  30.092  10.512
21976W        W88759  38.798  30.631   4.069
21977W        W88760  10.314  27.191   4.137
21978W        W88761  36.179  11.870   4.944
21979W        W88762  26.026  33.832  13.097
21980W        W88763  10.622  11.807   4.161
21981W        W88764  14.160  24.050   3.677
21982W        W88765  32.402  24.623  13.935
21983W        W88766  32.600   3.207  14.773
21984W        W88767  15.376  21.723   1.371
21985W        W88768  42.815  35.444   3.276
21986W        W88769   5.948  30.946  11.911
21987W        W88770  33.849  11.141   3.238
21988W        W88771  41.749   7.300   4.981
21989W        W88772  36.859  30.726   4.680
21990W        W88773  43.992  15.342  12.591
21991W        W88774  32.067   8.337  13.959
21992W        W88775  21.222  27.710   9.926
21993W        W88776  36.203  39.943  13.840
21994W        W88777   6.829   9.680   1.748
21995W        W88778  12.380  32.351  12.809
21996W        W88779  32.695  13.813  11.528
21997W        W88780  34.695  19.506   3.233
21998W        W88781  21.059  13.095  10.631
21999W        W88782  35.464  21.252  12.903
22000W        W88783  37.213  13.183  12.461
22001W        W88784  20.146   6.787   0.218
22002W        W88785   3.630   9.661  11.694
22003W        W88786   6.373  29.171   1.333
22004W        W88787  27.690  16.985  13.419
22005W        W88788  31.282  17.602   1.464
22006W        W88789   7.015   2.855   3.273
22007W        W88790  38.970  14.057   0.699
22008W        W88791  20.265  44.860   0.988
22009W        W88792  28.456  28.094  11.850
22010W        W88793  18.734   9.103   0.241
22011W        W88794  24.360   4.254   2.955
22012W        W88795   7.141  34.132   4.121
22013W        W88796  35.133  18.864   0.229
22014W        W88797  16.280  11.563   2.681
22015W        W88798  34.582  16.600   0.374
22016W        W88799  42.196  28.443   0.834
22017W        W88800  10.207   8.617  11.589
22018W        W88801  19.424  27.687   0.491
22019W        W88802  24.816  25.527  14.001
22020W        W88803   3.686  26.113  10.461
22021W        W88804  21.274  38.627  14.957
22022W        W88805  23.672  37.093  14.380
22023W        W88806  30.631   3.213  14.529
22024W        W88807  37.924   5.941  11.208
22025W        W88808  23.175  34.601   0.293
22026W        W88809   2.305  11.766   1.322
22027W        W88810  35.618  41.477   3.672
22028W        W88811  28.215  34.782   3.206
22029W        W88812  23.876  24.041   3.267
22030W        W88813  26.149  31.430   2.199
22031W        W88814  22.654  11.927   1.155
22032W        W88815  22.599  26.481  13.886
22033W        W88816  43.413  31.483   2.149
22034W        W88817  35.332   3.914  10.590
22035W        W88818  38.657  40.967   1.767
22036W        W88819  30.030  11.203   1.424
22037W        W88820  15.792  28.742  11.303
22038W        W88821  26.151  43.813   4.325
22039W        W88822  43.454  26.928  13.136
22040W        W88823  10.599  15.619  10.724
22041W        W88824  37.430   6.867  14.876
22042W        W88825  43.378   8.925   3.178
22043W        W88826   8.519   8.613   2.397
22044W        W88827  44.825  18.402  13.914
22045W        W88828  17.718   8.499   4.235
22046W        W88829  42.073  32.350  14.567
22047W        W88830  29.907  29.399   1.238
22048W        W88831  12.597  34.145   0.501
22049W        W88832  44.983  42.494   4.382
22050W        W88833   7.274  35.576   0.173
22051W        W88834  13.037  10.862  14.867
22052W        W88835  21.650  31.567   1.922
22053W        W88836  15.848  36.167   0.898
22054W        W88837  29.035  29.351  13.942
22055W        W88838  10.036  41.941  11.980
22056W        W88839  18.275  44.989   0.365
22057W        W88840  18.165  16.871  14.846
22058W        W88841   6.419  41.385  14.004
22059W        W88842  44.138  23.754  11.703
22060W        W88843  36.200   3.828   4.133
22061W        W88844  41.273  38.828  14.431
22062W        W88845   6.867  26.907   2.803
22063W        W88846  43.953  19.658   3.140
22064W        W88847  21.095   7.703   0.087
22065W        W88848  16.839  14.486  13.962
22066W        W88849   6.312  17.824   4.836
22067W        W88850  41.844  44.881   2.890
22068W        W88851  44.748  29.159   4.976
22069W        W88852  36.588   0.292  14.728
22070W        W88853   1.310  12.457  10.628
22071W        W88854  37.959  30.996  14.813
22072W        W88855  18.248  22.073   0.735
22073W        W88856  12.272  38.838   2.806
22074W        W88857  39.405  28.850  12.166
22075W        W88858  42.031  41.268   1.835
22076W        W88859  28.843   9.675   4.835
22077W        W88860  36.430  23.298  10.665
22078W        W88861  22.991  26.095   0.823
22079W        W88862  21.238  12.599   4.373
22080W        W88863  11.842  14.793  14.545
22081W        W88864  16.293  30.581  13.130
22082W        W88865  44.405  42.902  10.413
22083W        W88866  32.849  36.402  13.433
22084W        W88867  25.323   3.668  13.207
22085W        W88868   6.768  30.558   3.825
22086W        W88869  34.616  14.805   4.684
22087W        W88870  29.990  22.648  13.205
22088W        W88871  10.944   5.293  12.257
22089W        W88872  33.358  39.741   3.735
22090W        W88873  28.276  32.982  13.482
22091W        W88874   0.761  44.447  10.434
22092W        W88875  30.954  12.544  12.045
22093W        W88876  40.438   5.924  10.679
22094W        W88877  17.567  22.507   4.227
22095W        W88878  37.100   3.940  14.883
22096W        W88879  33.980  38.180  14.405
22097W        W88880   4.760  17.713  10.471
22098W        W88881  24.522   5.441   2.330
22099W        W88882  29.396  10.060   0.596
22100W        W88883  39.086  19.381  12.029
22101W        W88884  24.743  36.385  11.633
22102W        W88885  28.044   5.703  12.087
22103W        W88886  28.977   1.524  14.213
22104W        W88887   1.850  18.156  13.427
22105W        W88888  29.506  23.589   9.917
22106W        W88889  31.072  21.112   2.214
22107W        W88890  41.113  36.548  14.864
22108W        W88891  17.809  10.358   3.820
22109W        W88892  42.924  42.337   9.771
22110W        W88893   0.833  14.806   2.654
22111W        W88894  38.408  19.700   4.635
22112W        W88895  27.565   8.438  12.692
22113W        W88896   3.674  23.255   2.694
22114W        W88897   2.754  29.991   4.523
22115W        W88898  23.840  38.863   2.925
22116W        W88899  28.167  40.563   1.267
22117W        W88900   9.173   2.173  13.714
22118W        W88901  13.951  16.181  12.455
22119W        W88902   3.445  29.523   4.932
22120W        W88903  39.524  43.841  14.775
22121W        W88904   6.803  24.475   3.665
22122W        W88905   7.011  32.475   1.892
22123W        W88906  24.257  18.099   1.223
22124W        W88907  12.611  28.205   1.593
22125W        W88908  24.450  13.668   2.143
22126W        W88909   4.339  11.729   1.257
22127W        W88910  29.198  39.010  11.150
22128W        W88911  22.655  22.707  10.749
22129W        W88912  37.286  25.639   5.111
22130W        W88913   7.349  11.719  11.592
22131W        W88914  13.637   1.827   2.199
22132W        W88915  10.994  14.779  12.410
22133W        W88916  37.876  12.609   2.297
22134W        W88917  34.484   4.791  13.096
22135W        W88918  26.628  21.175   4.588
22136W        W88919   4.998  25.471   3.724
22137W        W88920   5.437  38.930   0.504
22138W        W88921  37.161  14.787  12.918
22139W        W88922  22.931   1.184   1.262
22140W        W88923  22.772  33.973  13.068
22141W        W88924  37.261  18.460  13.026
22142W        W88925  43.448   7.115   1.704
22143W        W88926  44.351  38.077  12.052
22144W        W88927   7.111  34.393  11.536
22145W        W88928  11.876  34.757   1.181
22146W        W88929   1.738  36.069  11.342
22147W        W88930  21.148  43.261   0.302
22148W        W88931  37.772   8.300   1.254
22149W        W88932  41.883  36.888   1.500
22150W        W88933  37.885   4.731   4.505
22151W        W88934  18.541  31.599  10.652
22152W        W88935  26.523  38.070   1.652
22153W        W88936   9.351  44.578  14.881
22154W        W88937  21.444  15.310   0.182
22155W        W88938  10.164   8.658  13.934
22156W        W88939  35.313  32.821   4.149
22157W        W88940   8.593  28.342  12.506
22158W        W88941   0.997  25.694   3.876
22159W        W88942  21.203  14.845   0.011
22160W        W88943   4.801  18.437   4.115
22161W        W88944   6.319   0.151  14.919
22162W        W88945   5.245   1.430  11.630
22163W        W88946   1.036  22.210  10.696
22164W        W88947  44.108   0.664   4.340
22165W        W88948   8.685  39.485  12.087
22166W        W88949   1.276   1.192   0.440
22167W        W88950  14.804  35.233   0.320
22168W        W88951  36.411  42.432  12.127
22169W        W88952   3.706  23.621  12.425
22170W        W88953  24.771  38.372  12.943
22171W        W88954  31.355  21.489  11.990
22172W        W88955  43.844  19.611   1.850
22173W        W88956   9.984  24.074  10.677
22174W        W88957  37.407   6.327   2.715
22175W        W88958  44.284  26.130  14.751
22176W        W88959  42.465  24.058   4.871
22177W        W88960  39.499  12.750   4.625
22178W        W88961   6.512  34.842   2.703
22179W        W88962   7.787   4.500   4.508
22180W        W88963  23.634  23.185   4.552
22181W        W88964  27.982  22.015   2.231
22182W        W88965  39.488  27.052   1.980
22183W        W88966  20.674  20.319   3.833
22184W        W88967  41.870  44.120   1.638
22185W        W88968  31.601  18.816  11.414
22186W        W88969   1.177  40.742  11.549
22187W        W88970   9.966  12.179   1.746
22188W        W88971  10.393   6.701  12.118
22189W        W88972   6.802  19.939   1.717
22190W        W88973   7.961   8.864  11.930
22191W        W88974  13.663  17.268  14.474
22192W        W88975  17.207  36.129  11.147
22193W        W88976  31.014  44.821  12.941
22194W        W88977  23.109   1.665   1.213
22195W        W88978  23.676   7.214  14.886
22196W        W88979  10.430  24.602   2.948
22197W        W88980  29.132  11.226  13.866
22198W        W88981  15.718  11.510  10.740
22199W        W88982   1.268  17.677  10.755
22200W        W88983  33.126  31.306   3.322
22201W        W88984   6.649  24.542   2.336
22202W        W88985  39.540  17.986   0.019
22203W        W88986  27.216  30.502  13.565
22204W        W88987  16.111   9.352  12.890
22205W        W88988  22.971   2.107  10.545
22206W        W88989  21.806  27.478  12.698
22207W        W88990  29.366  32.469   0.151
22208W        W88991   5.670  42.132   0.926
22209W        W88992  44.404   1.357   4.806
22210W        W88993  33.004   9.185  12.617
22211W        W88994  28.155  27.953   4.260
22212W        W88995  42.286  10.498   4.701
22213W        W88996  44.348   2.309   4.274
22214W        W88997  15.860  22.449  12.587
22215W        W88998  38.014   4.923  11.284
22216W        W88999  22.331  36.404   4.550
22217W        W89000   4.437  40.796   1.714
22218W        W89001  26.733  10.359   3.008
22219W        W89002   2.644  22.430  14.443
22220W        W89003  40.455  44.700  14.935
22221W        W89004  41.932   5.652   3.412
22222W        W89005  30.373  11.718  12.120
22223W        W89006  35.585   7.381  12.047
22224W        W89007  14.792  36.348   2.825
22225W        W89008  34.622  10.177   2.749
22226W        W89009  33.949  16.556   1.764
22227W        W89010  44.952  44.974   4.580
22228W        W89011  18.416  15.725  11.619
22229W        W89012  18.368  34.213  12.049
22230W        W89013  31.076   2.676   3.811
22231W        W89014  22.541  41.785   4.483
22232W        W89015  30.431   2.513   0.263
22233W        W89016  44.899   9.106  12.218
22234W        W89017  30.147  10.429  13.671
22235W        W89018   6.270  13.044   4.775
22236W        W89019  25.663  11.829  14.935
22237W        W89020  10.650  30.912   4.212
22238W        W89021   8.985   6.096  10.321
22239W        W89022  42.980  33.843  14.010
22240W        W89023   1.316  40.378   1.074
22241W        W89024  19.490   1.813   1.889
22242W        W89025  21.600  31.572  12.525
22243W        W89026  31.538  33.045   2.328
22244W        W89027   1.659  38.360  14.327
22245W        W89028  10.813  38.885  13.527
22246W        W89029  32.861  10.749  13.100
22247W        W89030   5.969  21.558  11.928
22248W        W89031  40.377  42.546   4.860
22249W        W89032  13.317  23.624   1.453
22250W        W89033  10.439   9.927   0.419
22251W        W89034   6.349  28.189  14.334
22252W        W89035  36.236  17.607   1.436
22253W        W89036  21.255   1.864  10.221
22254W        W89037  33.344  37.806  10.947
22255W        W89038  42.257  15.844   1.599
22256W        W89039   3.207   2.039   0.968
22257W        W89040   8.163  35.604  12.852
22258W        W89041  37.771  12.349  12.951
22259W        W89042  15.799   7.256   0.784
22260W        W89043   6.225  42.038  13.844
22261W        W89044  29.728  19.053  13.947
22262W        W89045  36.946  28.575  10.684
22263W        W89046  14.541  29.126   2.881
22264W        W89047  43.945  42.594  12.083
22265W        W89048  14.562  33.900  12.311
22266W        W89049  27.631   0.343  11.232
22267W        W89050   4.767  29.355   2.798
22268W        W89051  21.123  17.240  11.014
22269W        W89052  37.309   2.349   0.263
22270W        W89053  33.063   1.896  13.587
22271W        W89054  20.404  27.962  13.397
22272W        W89055  10.838   6.423  13.531
22273W        W89056  16.120  13.853   2.391
22274W        W89057  27.398  11.562   2.287
22275W        W89058  25.548  31.506  10.691
22276W        W89059  30.667  14.192  14.531
22277W        W89060  30.723  31.620   3.189
22278W        W89061  12.133  33.870   0.699
22279W        W89062  23.010  42.851   2.386
22280W        W89063  18.453   6.896   2.804
22281W        W89064  42.537   2.942   2.386
22282W        W89065  41.905   3.966   4.049
22283W        W89066  29.083  11.337  10.889
22284W        W89067   1.315   4.381   4.096
22285W        W89068   3.655  43.471   2.419
22286W        W89069  44.518  38.074   3.708
22287W        W89070  42.481  19.790   2.280
22288W        W89071  34.791  42.397   3.258
22289W        W89072  20.895  34.092  11.171
22290W        W89073   2.794  11.682   3.166
22291W        W89074  43.436  21.663  10.989
22292W        W89075  37.178  43.917   1.720
22293W        W89076  18.131   5.964   3.894
22294W        W89077  17.224  19.275  11.627
22295W        W89078  34.501   7.214   2.694
22296W        W89079   1.859  40.058  10.979
22297W        W89080  20.939  39.242  11.566
22298W        W89081   4.261  30.458  13.410
22299W        W89082   1.346   7.316  10.595
22300W        W89083  21.045  29.942  13.919
22301W        W89084  29.468  33.437   2.277
22302W        W89085  32.110  40.978   4.097
22303W        W89086   6.156  27.274   2.289
22304W        W89087  38.512  20.261  10.504
22305W        W89088  44.330  30.625   1.389
22306W        W89089  21.232   2.207  12.131
22307W        W89090  19.501   5.487   1.185
22308W        W89091   9.897   3.415   4.543
22309W        W89092  15.911   2.871   1.971
22310W        W89093  24.517  20.033  14.953
22311W        W89094  12.809   0.736  11.466
22312W        W89095  29.442   1.262  14.371
22313W        W89096   8.884  37.348   0.367
22314W        W89097  44.982  44.294  10.064
22315W        W89098  33.156  42.778   4.080
22316W        W89099  27.253   3.745   0.573
22317W        W89100  36.504  13.678  14.873
22318W        W89101  34.044  21.774  13.736
22319W        W89102  27.253  39.007   1.243
22320W        W89103   8.463  35.678  10.708
22321W        W89104   8.142  28.434   0.501
22322W        W89105   1.279  24.950  12.945
22323W        W89106  31.235  34.709  14.537
22324W        W89107  22.667   0.306   2.295
22325W        W89108  17.554  14.279  14.372
22326W        W89109   6.680  13.451   1.586
22327W        W89110  19.227  21.446   4.190
22328W        W89111  11.147   4.689   3.600
22329W        W89112   1.929  40.958  12.044
22330W        W89113   3.209  40.892   2.718
22331W        W89114  25.524  11.989   4.566
22332W        W89115  19.179   2.181  14.033
22333W        W89116   1.318  30.821  14.339
22334W        W89117  17.097  34.479  14.308
22335W        W89118  22.983  42.511   1.634
22336W        W89119  23.129  40.836  13.491
22337W        W89120  12.796  11.335   2.315
22338W        W89121  29.485  14.056   0.683
22339W        W89122  26.975  19.243  12.086
22340W        W89123  27.960  39.495  14.030
22341W        W89124  17.536  31.172  12.491
22342W        W89125  23.532  42.938   3.228
22343W        W89126  12.404  21.095  12.009
22344W        W89127  33.838  11.677  11.428
22345W        W89128   7.317  38.565  10.687
22346W        W89129  36.573  33.107  10.764
22347W        W89130  14.183  21.366   1.972
22348W        W89131  31.977  22.479   2.384
22349W        W89132  11.462  44.936   2.864
22350W        W89133  12.586  30.954  11.286
22351W        W89134  40.861  30.180  13.658
22352W        W89135   5.442  18.921   1.374
22353W        W89136   3.966  21.172  10.119
22354W        W89137  30.063  14.425  11.560
22355W        W89138  12.286   1.772   3.660
22356W        W89139  16.773  30.422  13.143
22357W        W89140  36.667   2.666   0.875
22358W        W89141  43.481  17.052   4.206
22359W        W89142  28.000   8.911  12.048
22360W        W89143  11.268  32.455  11.462
22361W        W89144  38.221  28.096  12.033
22362W        W89145  32.855   8.412  11.542
22363W        W89146  10.681  14.423   1.245
22364W        W89147  20.850  14.861  10.707
22365W        W89148  12.231  17.618  12.014
22366W        W89149  28.899   6.977   4.634
22367W        W89150  27.238  33.084  11.131
22368W        W89151  25.588  13.618   2.338
22369W        W89152   8.710  42.724   0.852
22370W        W89153  42.731  14.241  11.292
22371W        W89154  37.758  22.608  12.203
22372W        W89155  10.222  37.390  12.784
22373W        W89156  19.014   6.647   1.971
22374W        W89157  15.030  14.214   3.999
22375W        W89158  25.593  11.304  12.142
22376W        W89159   5.226  41.322  12.506
22377W        W89160  44.307   8.284   1.711
22378W        W89161  11.594  36.807   1.031
22379W        W89162   4.700  27.821   1.366
22380W        W89163  16.565  34.575  11.113
22381W        W89164  38.880  23.442  12.989
22382W        W89165  39.761   4.733  11.567
22383W        W89166  17.746  23.679   3.734
22384W        W89167  24.665  26.440  12.034
22385W        W89168  10.325   6.196  13.302
22386W        W89169  43.916   6.958   1.435
22387W        W89170  20.713  32.379  12.161
22388W        W89171  24.536  18.724   0.378
22389W        W89172  42.048  13.573  13.022
22390W        W89173  17.319  29.971   0.962
22391W        W89174  30.937  21.844  13.422
22392W        W89175  13.723  32.067  10.564
22393W        W89176  25.370  24.336  11.438
22394W        W89177   5.215  12.182  10.912
22395W        W89178  25.629  27.465  14.318
22396W        W89179   1.982  22.510  12.939
22397W        W89180  35.773  44.924   2.254
22398W        W89181  27.022  11.828   1.974
22399W        W89182  26.500   8.126   1.576
22400W        W89183  32.485  29.325  10.674
22401W        W89184   6.517  24.535  12.400
22402W        W89185  24.366  23.741   4.101
22403W        W89186  19.349  42.400  12.445
22404W        W89187   3.729  42.954  10.332
22405W        W89188  27.520  14.585  13.401
22406W        W89189  34.087  15.404  10.728
22407W        W89190  29.975  11.450  14.489
22408W        W89191  26.541  31.397  12.454
22409W        W89192  11.025   5.641   3.745
22410W        W89193  31.582  29.681  14.820
22411W        W89194  12.819  38.585   0.656
22412W        W89195  35.406  29.149   4.596
22413W        W89196  15.820  15.665   2.690
22414W        W89197   7.068   8.840  12.431
22415W        W89198  19.143  24.610  12.970
22416W        W89199  10.335   8.915   0.299
22417W        W89200  33.712  31.384  11.110
22418W        W89201   2.264  23.971  13.554
22419W        W89202  19.301  35.616  13.456
22420W        W89203  36.414   2.733   1.687
22421W        W89204   6.620  30.903  10.616
22422W        W89205  18.298  10.164   3.974
22423W        W89206  14.810  32.331  11.132
22424W        W89207  29.893   0.525   0.379
22425W        W89208  10.556  44.228  14.770
22426W        W89209  32.860  17.074   2.284
22427W        W89210   1.917   2.767   1.793
22428W        W89211   9.180  25.997   3.813
22429W        W89212  20.528  43.258  13.436
22430W        W89213  39.036  40.401  11.685
22431W        W89214  22.949  26.151  10.597
22432W        W89215   8.539   7.642   9.617
22433W        W89216   0.113  32.342  12.619
22434W        W89217  13.435  35.564  11.953
22435W        W89218  16.511  22.432  13.842
22436W        W89219  22.487  25.686  11.363
22437W        W89220  44.376  39.383  14.668
22438W        W89221  34.397  31.542  13.793
22439W        W89222  17.424  32.412   1.716
22440W        W89223  26.884  22.440  12.202
22441W        W89224   1.019   4.696  13.568
22442W        W89225   7.760  30.987   1.867
22443W        W89226  19.315  44.526  11.104
22444W        W89227  30.092  42.828   2.093
22445W        W89228   7.786   7.650  12.215
22446W        W89229  34.108  39.215  14.534
22447W        W89230  26.221  41.531  12.065
22448W        W89231  30.548  44.995  11.063
22449W        W89232   5.211  20.750  13.322
22450W        W89233  10.855   8.240   0.436
22451W        W89234  42.572   4.789  14.038
22452W        W89235   8.613   4.485   4.142
22453W        W89236  29.527   6.132  11.489
22454W        W89237   6.869  25.672   1.867
22455W        W89238   8.887  15.039   2.673
22456W        W89239  32.007  40.660  12.816
22457W        W89240  43.373  21.746   3.336
22458W        W89241  39.444   8.844  12.514
22459W        W89242  34.388  38.052  10.683
22460W        W89243  13.826  22.175   4.217
22461W        W89244  29.544  39.101   1.202
22462W        W89245  13.742  38.995   3.128
22463W        W89246  17.764  13.675  10.634
22464W        W89247  19.217  26.722   3.613
22465W        W89248  42.752  39.143   4.012
22466W        W89249   6.331  44.554  13.337
22467W        W89250  11.786  14.809  13.429
22468W        W89251  23.822  16.700   1.434
22469W        W89252  17.315   6.011  11.435
22470W        W89253  40.512  34.912  12.070
22471W        W89254  23.210  20.836   0.126
22472W        W89255  35.463  40.092   2.612
22473W        W89256  28.468  36.196  13.443
22474W        W89257   0.198  24.915  11.582
22475W        W89258  11.522   1.443   1.042
22476W        W89259   6.720  40.209  12.384
22477W        W89260  31.994  16.394   0.573
22478W        W89261  39.896  10.162  13.404
22479W        W89262  14.211  27.604   1.904
22480W        W89263  20.637  42.513   0.386
22481W        W89264  25.421   7.934  13.412
22482W        W89265  27.128  25.623  13.271
22483W        W89266  11.285  44.766   1.468
22484W        W89267  14.124   3.241  11.066
22485W        W89268   0.363  24.750   1.291
22486W        W89269  30.516   7.754   0.401
22487W        W89270  23.589  35.073  10.860
22488W        W89271   9.766  11.411   0.454
22489W        W89272   8.384  37.089  13.413
22490W        W89273  20.207  41.805  11.617
22491W        W89274  17.715  37.154   1.644
22492W        W89275  40.360   7.268   2.854
22493W        W89276   0.745   6.154   2.624
22494W        W89277   0.984  34.490   4.416
22495W        W89278   9.133  23.153  14.943
22496W        W89279   7.727  27.540   2.891
22497W        W89280  29.089  24.467  10.579
22498W        W89281  13.240  42.360  14.064
22499W        W89282  36.101   9.813  13.434
22500W        W89283  23.670  24.219   4.667
22501W        W89284  14.637   1.334  12.475
22502W        W89285  18.407  43.261   2.161
22503W        W89286  30.647   6.906   3.182
22504W        W89287  43.834  10.879   0.548
22505W        W89288   6.233   9.845  11.341
22506W        W89289  42.340  33.915  12.539
22507W        W89290  38.381  20.111   0.758
22508W        W89291  33.178  24.535  11.626
22509W        W89292   1.909  38.039   4.576
22510W        W89293  38.878   8.930  14.064
22511W        W89294  36.596  34.648   4.150
22512W        W89295  32.406   2.541  11.984
22513W        W89296   9.878  21.297  11.217
22514W        W89297   3.910  43.977   0.531
22515W        W89298  21.080  35.239  12.214
22516W        W89299  30.480  26.772  12.598
22517W        W89300  21.028  27.444  12.891
22518W        W89301   7.274  27.452   4.157
22519W        W89302  40.469   0.560   3.128
22520W        W89303  24.933   0.465  13.447
22521W        W89304  32.297  20.611  13.885
22522W        W89305  10.784  35.823   1.252
22523W        W89306  19.802  12.721   4.580
22524W        W89307  40.970  33.421   2.935
22525W        W89308  29.222  36.065   1.795
22526W        W89309  27.510  37.918  10.654
22527W        W89310  15.827   4.423  11.972
22528W        W89311  26.312  15.653   4.941
22529W        W89312   8.676   8.968  14.589
22530W        W89313  14.611  15.163  13.129
22531W        W89314  29.375   9.401  14.794
22532W        W89315  40.461  36.497  11.888
22533W        W89316  16.894  16.149  14.500
22534W        W89317  28.274   6.971   1.278
22535W        W89318  24.569  32.007   3.772
22536W        W89319  18.267  17.714  11.498
22537W        W89320  24.532  43.552  11.108
22538W        W89321  16.099  28.738   3.784
22539W        W89322  12.738  16.077  10.380
22540W        W89323  11.786  22.391   4.085
22541W        W89324  34.043  37.043   1.703
22542W        W89325  42.078  37.944   4.236
22543W        W89326  38.323   3.671   2.321
22544W        W89327  35.670  13.584   3.302
22545W        W89328   6.410  39.355  14.807
22546W        W89329   0.481   8.841   0.969
22547W        W89330  29.433  19.205   1.607
22548W        W89331  11.886  22.771   3.748
22549W        W89332  31.009  37.485   2.188
22550W        W89333  16.400  10.303  14.828
22551W        W89334  44.409  25.062   2.212
22552W        W89335   4.165  14.105   0.011
22553W        W89336  23.442  14.371   4.605
22554W        W89337  23.840  17.020   5.077
22555W        W89338   1.482   4.677   0.798
22556W        W89339  37.336  43.470  14.593
22557W        W89340  20.860  18.868  11.145
22558W        W89341  13.259  24.267   2.655
22559W        W89342   1.471  23.394  12.998
22560W        W89343   9.164   9.422   1.707
22561W        W89344  43.275  37.273   3.325
22562W        W89345  35.118  22.129  13.385
22563W        W89346  44.353  11.563   4.147
22564W        W89347  36.506  39.128  14.438
22565W        W89348  11.406  27.392   0.452
22566W        W89349  11.016  29.228   0.880
22567W        W89350  17.149   5.864   4.903
22568W        W89351  39.764  44.655   4.037
22569W        W89352   2.933   2.296   1.364
22570W        W89353  25.124  10.417   1.423
22571W        W89354  21.990  26.093  12.526
22572W        W89355  43.679   3.410   1.777
22573W        W89356   7.560  38.059  12.021
22574W        W89357  18.239  10.439  14.502
22575W        W89358   8.683  37.817  10.727
22576W        W89359  16.440  15.784   3.237
22577W        W89360  44.443  37.879  14.982
22578W        W89361  31.983   5.339  11.640
22579W        W89362  29.949  42.839  12.432
22580W        W89363   4.640  10.298   4.213
22581W        W89364  36.562  23.898   2.184
22582W        W89365  15.642  19.438   0.245
22583W        W89366  35.615  16.143  14.779
22584W        W89367  19.694  28.190   0.440
22585W        W89368  32.425   7.943   1.803
22586W        W89369  27.598  27.417   4.727
22587W        W89370  19.240  20.247  11.895
22588W        W89371  33.015  23.559  11.439
22589W        W89372  32.109   2.528   1.269
22590W        W89373   0.743  22.573  10.922
22591W        W89374  12.097   1.872  14.515
22592W        W89375  38.262   8.231   0.367
22593W        W89376  39.726  30.760  12.389
22594W        W89377  28.721  29.925   2.292
22595W        W89378  43.440  14.201  11.539
22596W        W89379  18.111  28.092  14.329
22597W        W89380  26.126  10.112   0.715
22598W        W89381  18.668   9.901   4.332
22599W        W89382   1.864   0.660  12.489
22600W        W89383   7.706  29.061  14.969
22601W        W89384  33.519  24.605   3.707
22602W        W89385  40.888  42.560   3.669
22603W        W89386  23.558   6.741  11.116
22604W        W89387  38.741  27.595   1.855
22605W        W89388  11.957  23.976  14.051
22606W        W89389   4.676   4.217  11.634
22607W        W89390   2.774   3.834  14.195
22608W        W89391   7.411  28.787   4.621
22609W        W89392  14.525  15.111  12.131
22610W        W89393   7.569  35.570   4.798
22611W        W89394  36.556  43.303   0.249
22612W        W89395  31.216  26.986  10.585
22613W        W89396  15.793  27.759   2.317
22614W        W89397  16.720  16.592  12.086
22615W        W89398  21.748  34.379   0.230
22616W        W89399  36.870  14.337   1.061
22617W        W89400  43.359  42.877   2.322
22618W        W89401  11.216  13.853  11.565
22619W        W89402  44.410  33.042   2.679
22620W        W89403  28.479  36.826   4.505
22621W        W89404  18.359  32.021   4.109
22622W        W89405  17.096  20.778  11.099
22623W        W89406   9.745   9.300  12.936
22624W        W89407  23.493  10.925   2.686
22625W        W89408   1.510  16.193  13.538
22626W        W89409  37.636  15.132  14.725
22627W        W89410  40.523  31.710   4.967
22628W        W89411   2.771  11.836  12.904
22629W        W89412  21.347  18.044   0.187
22630W        W89413   7.543  23.503   3.240
22631W        W89414   0.639  10.672   5.018
22632W        W89415  27.696  29.726  12.153
22633W        W89416  22.639  34.289  11.076
22634W        W89417  29.366  37.454   4.118
22635W        W89418  24.233  27.359   1.798
22636W        W89419   7.729  15.827  13.973
22637W        W89420  33.329  27.576   0.953
22638W        W89421  44.434  12.083   4.161
22639W        W89422  15.523   7.095   3.553
22640W        W89423   8.228  44.875  11.967
22641W        W89424  43.484  12.070   2.811
22642W        W89425  22.330  20.095  11.187
22643W        W89426  12.722  29.975  11.449
22644W        W89427  41.007   6.329   2.098
22645W        W89428  39.036  11.455   2.625
22646W        W89429  19.233  18.249   4.676
22647W        W89430  14.652   1.826   4.662
22648W        W89431  27.954  25.024   1.975
22649W        W89432   1.420  27.984  13.834
22650W        W89433  23.458  28.858   1.738
22651W        W89434   2.755  26.668   2.196
22652W        W89435   4.940  24.582   0.137
22653W        W89436  29.340   0.154   1.359
22654W        W89437  17.813  29.002  11.574
22655W        W89438  14.534  19.081   2.896
22656W        W89439   5.147  16.998  12.026
22657W        W89440  28.041  31.593   2.638
22658W        W89441   5.331  42.929   3.743
22659W        W89442  31.443  33.462  12.019
22660W        W89443  10.205  24.012  12.940
22661W        W89444  43.511   8.261  12.890
22662W        W89445  25.679  39.064   2.308
22663W        W89446  31.452   0.329  14.292
22664W        W89447  15.632  24.625   4.856
22665W        W89448  37.805  41.379  14.757
22666W        W89449  19.781   8.769  14.470
22667W        W89450   0.027  33.573   1.443
22668W        W89451  26.118  10.240  14.824
22669W        W89452  36.516   3.511   1.918
22670W        W89453  37.036  35.893  10.657
22671W        W89454  35.394  25.511  13.707
22672W        W89455  23.886   8.884  11.876
22673W        W89456  42.383   0.478   3.218
22674W        W89457  38.864   2.745   3.195
22675W        W89458  17.677  32.497   1.256
22676W        W89459  15.307  44.019   0.353
22677W        W89460  20.580  28.145   2.814
22678W        W89461  22.179   0.500   2.303
22679W        W89462  27.277   3.991   1.936
22680W        W89463  13.676  18.614   2.947
22681W        W89464   0.788  16.011   1.838
22682W        W89465  18.379  44.785   4.241
22683W        W89466  42.382  26.510   4.392
22684W        W89467  40.927  35.345   3.282
22685W        W89468  24.252  33.430  11.684
22686W        W89469  42.402  13.447   3.191
22687W        W89470   5.273  31.111   0.190
22688W        W89471  39.591  17.214   2.273
22689W        W89472  11.159   4.813  13.990
22690W        W89473  14.336  12.770   2.801
22691W        W89474  35.443  35.630   3.730
22692W        W89475  33.001  30.294   0.023
22693W        W89476   8.844   9.780   1.889
22694W        W89477  24.838  25.581  14.865
22695W        W89478  15.146   1.504  12.536
22696W        W89479   9.826  16.793   0.780
22697W        W89480   9.148  10.709  13.424
22698W        W89481  30.672   4.720  10.586
22699W        W89482  37.870  18.346  13.992
22700W        W89483  33.044  28.637   2.657
22701W        W89484  41.856   1.927  11.042
22702W        W89485  31.575  17.472  12.039
22703W        W89486   2.996  33.696   2.336
22704W        W89487  21.951  34.618   3.561
22705W        W89488  18.123  22.578   4.912
22706W        W89489   0.570  15.646   5.283
22707W        W89490  31.692   5.146   2.302
22708W        W89491  20.528  22.164  13.009
22709W        W89492   9.259  34.151  12.580
22710W        W89493  15.166   4.116   2.081
22711W        W89494  22.105  25.043  13.632
22712W        W89495  30.526   5.427  11.153
22713W        W89496  17.600  22.868   2.704
22714W        W89497  34.200  27.159  11.597
22715W        W89498  39.373   7.178   4.388
22716W        W89499  29.506  26.591   1.803
22717W        W89500  25.471   4.808   1.143
22718W        W89501  15.940  32.199   3.697
22719W        W89502  13.198  15.572  11.029
22720W        W89503  40.535  27.779   3.447
22721W        W89504  31.921  35.371   0.366
22722W        W89505   1.291  10.026  10.249
22723W        W89506  14.762  43.350  12.372
22724W        W89507  30.190  19.559  14.011
22725W        W89508  31.871  26.725  14.551
22726W        W89509  27.958  19.798  11.497
22727W        W89510   9.655   1.701   1.715
22728W        W89511  13.585  44.007  13.741
22729W        W89512  20.144  14.980  12.054
22730W        W89513   3.268  34.862  10.961
22731W        W89514  42.787  26.747   4.101
22732W        W89515  39.093   8.481  14.929
22733W        W89516  33.499  17.711   3.448
22734W        W89517   3.301  13.765  10.683
22735W        W89518   5.332  12.285   0.406
22736W        W89519   4.019  25.071   2.775
22737W        W89520  21.620  40.996  11.984
22738W        W89521  17.803  33.589  12.634
22739W        W89522  40.111  43.936  11.671
22740W        W89523  32.632   8.827   1.209
22741W        W89524   4.424  38.123   0.790
22742W        W89525  44.060  43.753   0.798
22743W        W89526   2.858   7.971   0.806
22744W        W89527  43.348  34.778   3.671
22745W        W89528  10.848   3.210   0.616
22746W        W89529  33.055  38.079  10.513
22747W        W89530  15.608  19.464   2.855
22748W        W89531  43.745  12.368   0.750
22749W        W89532  42.492  32.930  13.963
22750W        W89533  34.566  26.533   0.035
22751W        W89534  30.064  11.408   2.337
22752W        W89535  42.303  42.378  14.668
22753W        W89536  12.606  10.161   1.034
22754W        W89537  29.528  13.714   1.919
22755W        W89538  43.630   9.490   0.403
22756W        W89539   2.999  16.508   3.189
22757W        W89540  13.757  42.637  11.200
22758W        W89541  30.047  17.752  11.901
22759W        W89542  19.644  17.796  12.788
22760W        W89543  12.623  29.206  13.474
22761W        W89544  22.038   3.434   0.180
22762W        W89545  14.505  22.400  13.772
22763W        W89546  17.245  39.751  11.145
22764W        W89547  17.157  36.774   2.356
22765W        W89548  42.354  24.741  14.597
22766W        W89549  26.118  32.447  12.097
22767W        W89550  32.455  22.316   2.232
22768W        W89551  14.337   9.411   3.596
22769W        W89552  21.551  34.837   2.720
22770W        W89553  44.484  25.141  12.441
22771W        W89554  13.325  24.697  14.901
22772W        W89555   0.974   5.779   3.453
22773W        W89556  43.419  26.240  14.644
22774W        W89557  19.105  17.889  13.430
22775W        W89558  17.613  33.500   2.214
22776W        W89559   5.527  37.395  12.874
22777W        W89560  15.568   0.009  14.286
22778W        W89561  15.244  25.211  12.413
22779W        W89562  11.623  24.335   2.189
22780W        W89563  20.318  43.590  13.785
22781W        W89564  44.818   2.227   0.796
22782W        W89565  44.506   5.945   0.008
22783W        W89566   9.621  23.856   0.447
22784W        W89567  27.449  18.026   0.627
22785W        W89568   6.435   4.801   2.351
22786W        W89569   5.761  26.771  10.724
22787W        W89570  26.883  32.705  11.182
22788W        W89571   3.667  22.596  14.365
22789W        W89572   7.682   5.333  10.773
22790W        W89573  23.948   9.753  12.483
22791W        W89574  26.111  17.216  14.737
22792W        W89575  28.911  28.055  13.118
22793W        W89576  38.370  40.380   0.040
22794W        W89577  24.246  15.779  12.411
22795W        W89578  31.714  26.534   4.117
22796W        W89579  14.018  22.272   2.458
22797W        W89580   0.395  38.299   2.198
22798W        W89581  33.095  28.369  12.603
22799W        W89582  28.128  31.209  10.306
22800W        W89583  32.551  31.793   5.021
22801W        W89584  35.148  12.624   2.205
22802W        W89585   5.393  43.947  13.509
22803W        W89586  17.579  28.706  14.829
22804W        W89587  16.561  25.991   4.680
22805W        W89588   5.913  39.020  10.662
22806W        W89589  16.383   1.290  11.937
22807W        W89590  40.970  23.114  10.690
22808W        W89591  38.787   8.125  13.454
22809W        W89592  27.454   2.915  12.919
22810W        W89593  32.172  33.455   0.787
22811W        W89594   0.752  34.123   2.627
22812W        W89595   6.771   9.860  10.625
22813W        W89596  34.842  30.599  14.551
22814W        W89597  13.255  15.550  10.510
22815W        W89598  15.745  10.028  13.510
22816W        W89599  36.415   4.250  14.446
22817W        W89600  12.181  36.550   5.372
22818W        W89601  13.344  25.302   4.871
22819W        W89602  11.277  18.291  13.995
22820W        W89603  21.517  34.684   4.290
22821W        W89604  33.429  39.273  12.502
22822W        W89605   0.383  26.681  14.544
22823W        W89606  31.873   9.707  11.918
22824W        W89607  41.095   1.511  11.208
22825W        W89608  18.445  25.030  14.212
22826W        W89609  10.317   0.503  13.587
22827W        W89610  16.664  44.749   4.536
22828W        W89611  10.662  35.472  12.584
22829W        W89612  44.980  31.494  13.475
22830W        W89613  11.889  18.899   4.737
22831W        W89614  43.212  28.393  12.005
22832W        W89615   9.418   4.008   4.150
22833W        W89616   5.485  42.752   4.930
22834W        W89617  27.638  19.062  13.443
22835W        W89618  21.544  38.531   0.395
22836W        W89619   7.626  27.666   0.365
22837W        W89620   1.184   4.121  12.989
22838W        W89621  15.077  25.756   1.742
22839W        W89622   4.742  35.388   0.206
22840W        W89623   5.243  11.223   2.004
22841W        W89624   7.343   6.782   1.329
22842W        W89625  24.583  39.083  12.690
22843W        W89626  35.122  28.650  14.337
22844W        W89627  13.721  27.594   0.672
22845W        W89628  44.145  29.418   3.359
22846W        W89629  27.066   1.743   3.118
22847W        W89630  19.762  24.635   0.779
22848W        W89631  32.605  12.379  12.201
22849W        W89632  28.144  16.801   4.991
22850W        W89633  44.446  20.003   4.969
22851W        W89634  35.090  40.749  13.779
22852W        W89635  17.190  39.243  11.132
22853W        W89636   7.701   2.366  14.482
22854W        W89637   7.413  30.448  10.697
22855W        W89638   3.721   0.940  14.094
22856W        W89639   8.242  31.998   0.997
22857W        W89640   7.874  12.089  12.996
22858W        W89641  32.525  21.637   1.634
22859W        W89642  19.598  24.951  12.897
22860W        W89643   4.922   7.747   3.333
22861W        W89644  43.077  37.305   2.621
22862W        W89645  28.883  20.994   4.585
22863W        W89646  27.619  14.411   0.897
22864W        W89647   5.882  18.662   3.867
22865W        W89648  13.287   4.561  14.493
22866W        W89649  27.969  14.307   0.407
22867W        W89650   4.353  28.538  13.576
22868W        W89651  21.797  32.231   1.100
22869W        W89652  16.770  18.453   1.843
22870W        W89653  14.164  31.364   4.133
22871W        W89654  28.178  29.540   0.788
22872W        W89655  42.138  15.131   1.332
22873W        W89656  30.068  39.105   4.591
22874W        W89657   2.042  22.677  11.682
22875W        W89658  10.465  31.293   0.672
22876W        W89659  11.471   8.588  14.272
22877W        W89660  37.941   0.666   3.336
22878W        W89661  31.376  10.371  14.552
22879W        W89662   0.327  43.428   3.363
22880W        W89663  25.285  27.668   0.261
22881W        W89664  13.152  26.444  13.917
22882W        W89665   7.474  29.093   1.000
22883W        W89666  30.345   3.858   2.635
22884W        W89667  19.627   1.813   4.729
22885W        W89668  12.394  41.481  14.109
22886W        W89669  13.243  28.064  13.108
22887W        W89670   2.742   8.029  12.543
22888W        W89671  38.620  37.466  14.547
22889W        W89672  30.514  13.594   0.568
22890W        W89673  41.697  18.844  14.036
22891W        W89674  29.110  17.125   4.643
22892W        W89675  29.383  44.376   4.635
22893W        W89676  36.065  32.992  14.230
22894W        W89677   8.421  28.321  13.981
22895W        W89678  29.435  36.925  10.817
22896W        W89679  14.618   8.236   0.359
22897W        W89680   1.713  22.776   2.747
22898W        W89681  30.400  41.595  14.238
22899W        W89682  23.207  22.140   1.320
22900W        W89683  34.470   3.840  13.050
22901W        W89684  29.269  36.536   3.630
22902W        W89685  29.945  20.218   0.126
22903W        W89686  15.667  12.866  12.084
22904W        W89687  28.111   2.840  10.504
22905W        W89688  14.040  19.162  12.598
22906W        W89689  17.040  28.609  11.325
22907W        W89690  27.665  39.295   3.172
22908W        W89691  32.930   4.599   0.023
22909W        W89692  21.481  25.692   0.661
22910W        W89693  32.699   1.349   0.101
22911W        W89694  29.191  30.102   3.168
22912W        W89695  41.876   4.396  14.923
22913W        W89696  27.159  25.879   2.676
22914W        W89697   0.700  30.285  14.555
22915W        W89698  29.861  18.192  14.978
22916W        W89699  36.391   9.740  13.863
22917W        W89700   2.635  34.533   1.950
22918W        W89701   6.250  11.602   4.444
22919W        W89702  38.590  40.537  11.461
22920W        W89703  17.730  32.576   0.196
22921W        W89704  41.650  23.283  14.636
22922W        W89705   7.675   3.564  10.544
22923W        W89706  21.577  22.948   2.221
22924W        W89707   3.943  22.737   4.711
22925W        W89708   4.326  14.573  12.613
22926W        W89709  26.767  31.528  11.592
22927W        W89710   2.842  39.918   1.411
22928W        W89711   8.164   3.836  14.133
22929W        W89712  34.252  19.097   1.851
22930W        W89713  13.434  10.457  12.036
22931W        W89714  13.106  12.912   4.079
22932W        W89715  39.603   1.971  14.406
22933W        W89716  15.423  28.059  13.908
22934W        W89717   4.735  27.203  11.268
22935W        W89718  41.882  18.557  14.424
22936W        W89719   4.190  31.138  14.552
22937W        W89720  27.200  34.462  11.917
22938W        W89721  42.926   3.354   2.887
22939W        W89722  29.903   1.360   0.932
22940W        W89723   8.574  26.047   4.901
22941W        W89724  31.047  30.026  11.906
22942W        W89725   0.809  26.134  13.105
22943W        W89726  22.569  11.201   2.192
22944W        W89727  37.673   5.267   1.837
22945W        W89728  28.151  15.501   1.336
22946W        W89729  33.106  31.769   5.092
22947W        W89730  31.930  23.569  13.044
22948W        W89731   2.760   0.171  12.564
22949W        W89732  18.713  18.622   0.444
22950W        W89733  25.989  10.245   1.909
22951W        W89734   6.474  23.562   9.905
22952W        W89735   3.874  28.239   1.609
22953W        W89736  44.828  16.805   2.769
22954W        W89737  32.244   9.617   0.004
22955W        W89738  19.011   6.084   0.490
22956W        W89739  18.333  29.951   1.206
22957W        W89740  42.886  35.001   4.547
22958W        W89741  41.743  34.425  12.949
22959W        W89742  11.116  35.585   0.927
22960W        W89743  11.531  33.612  10.294
22961W        W89744  16.276  25.580   4.469
22962W        W89745   8.420  11.723   3.554
22963W        W89746  27.158  26.603   0.954
22964W        W89747  38.083  25.498   4.288
22965W        W89748  11.950  39.364  11.210
22966W        W89749   4.077  15.357  12.050
22967W        W89750   2.756   8.538  11.628
22968W        W89751  18.637   9.199   1.443
22969W        W89752   4.336  24.696  14.294
22970W        W89753  24.154  39.800   0.951
22971W        W89754   2.957  40.314   3.571
22972W        W89755  32.552  34.934   2.550
22973W        W89756  19.404   0.670   2.196
22974W        W89757   9.613  40.446   3.520
22975W        W89758  13.340  25.218  14.890
22976W        W89759  32.474  30.379  12.855
22977W        W89760   2.645  18.165   2.115
22978W        W89761   6.961  44.377  11.168
22979W        W89762  40.124  11.173   3.218
22980W        W89763  30.682  17.831  14.872
22981W        W89764   1.362  41.450  12.034
22982W        W89765  36.363  39.457   3.591
22983W        W89766   0.476  31.095  13.049
22984W        W89767  10.151  37.996   0.939
22985W        W89768   4.254  23.645  13.277
22986W        W89769  14.892   3.302  14.025
22987W        W89770  25.716  15.272  11.740
22988W        W89771   2.656  26.445  12.605
22989W        W89772  20.126  39.789  14.879
22990W        W89773  19.738  12.597  13.394
22991W        W89774  12.220  20.948  14.767
22992W        W89775   6.375  12.831  14.065
22993W        W89776  11.788  36.078   1.704
22994W        W89777  15.665  16.893   3.212
22995W        W89778  22.562  23.204   4.097
22996W        W89779  39.479  17.549  14.749
22997W        W89780  30.549  17.059   0.795
22998W        W89781   3.461  15.598  12.764
22999W        W89782  44.940  36.058   2.303
23000W        W89783  17.104  13.114   4.822
23001W        W89784  19.583  30.718   0.377
23002W        W89785  42.368   4.214  14.821
23003W        W89786  22.419  11.493   1.288
23004W        W89787   1.218  17.529   0.887
23005W        W89788  20.273  26.592  10.562
23006W        W89789  44.524  27.598  12.556
23007W        W89790  18.721   1.988   0.765
23008W        W89791  21.018  24.990  12.100
23009W        W89792  32.338  32.568  13.010
23010W        W89793  42.297  28.085   0.330
23011W        W89794  37.370  40.404   0.937
23012W        W89795   3.372   5.763  10.077
23013W        W89796   8.546  27.034   2.336
23014W        W89797  30.419   1.445   3.760
23015W        W89798  10.766   1.326  12.776
23016W        W89799  27.202   6.029  13.961
23017W        W89800  24.032   9.952  10.789
23018W        W89801   8.364  12.119  10.750
23019W        W89802   5.435  13.093  13.354
23020W        W89803  14.718   8.100   2.936
23021W        W89804   8.445  24.798  11.174
23022W        W89805  12.604  10.209  14.548
23023W        W89806   7.425  28.918  11.172
23024W        W89807   3.921   2.292   4.106
23025W        W89808  36.022   3.407  13.417
23026W        W89809   9.738   8.903  11.516
23027W        W89810   7.732   2.215   2.768
23028W        W89811  38.031  14.132   0.917
23029W        W89812  40.565  37.329  11.554
23030W        W89813  22.526  17.027  12.668
23031W        W89814   8.785  30.910  12.545
23032W        W89815  28.640  27.986   0.886
23033W        W89816  31.161  36.077  11.172
23034W        W89817  11.823  44.882   4.583
23035W        W89818   5.362  36.875   1.193
23036W        W89819  11.657  25.141   0.278
23037W        W89820   8.235   7.734   1.296
23038W        W89821  35.822  11.697   1.742
23039W        W89822  13.563  22.248   0.512
23040W        W89823  30.532   8.698   2.378
23041W        W89824  21.664  19.815   3.133
23042W        W89825  44.840  31.525  10.409
23043W        W89826  28.096  33.105  14.934
23044W        W89827  28.821  43.115   0.860
23045W        W89828  29.449  37.810   2.883
23046W        W89829  19.099   3.742   2.817
23047W        W89830  38.344  16.831   0.269
23048W        W89831  32.053  41.588  13.058
23049W        W89832  17.657   4.568  12.213
23050W        W89833  19.530   1.741  14.083
23051W        W89834  10.368  30.670  14.816
23052W        W89835  40.473  11.129   4.510
23053W        W89836   0.153  42.578   1.880
23054W        W89837  12.260  39.022  10.473
23055W        W89838  11.013  25.468  14.044
23056W        W89839  11.216  36.858  11.022
23057W        W89840  42.579  24.560   4.925
23058W        W89841  19.197  40.128   4.703
23059W        W89842  41.011  27.144  12.837
23060W        W89843  20.145  40.758   1.438
23061W        W89844  24.120   0.733  13.975
23062W        W89845  37.350  25.549   2.871
23063W        W89846  44.367  10.148   0.163
23064W        W89847  38.324  14.817   4.375
23065W        W89848  38.396  35.534  10.641
23066W        W89849  40.246  38.528   2.307
23067W        W89850   1.034  32.954   0.895
23068W        W89851   8.015  12.849   2.744
23069W        W89852  30.008  36.092   1.434
23070W        W89853  39.465   8.736  13.339
23071W        W89854  23.051  23.423   1.723
23072W        W89855   2.451  11.878   4.582
23073W        W89856  24.045  32.476   1.914
23074W        W89857  13.596  37.092   2.470
23075W        W89858  20.608  32.658   2.622
23076W        W89859  25.773  23.825   0.838
23077W        W89860  28.936  11.829  10.746
23078W        W89861  39.054  35.178  13.618
23079W        W89862  19.535  18.335  13.077
23080W        W89863  28.947  38.057  10.906
23081W        W89864   8.121  23.459  13.405
23082W        W89865  38.409  23.135   4.116
23083W        W89866  12.560  41.397  13.616
23084W        W89867  18.581  25.231   1.261
23085W        W89868  34.887  15.034  14.941
23086W        W89869   1.476  23.477   1.771
23087W        W89870  36.498  35.119   3.941
23088W        W89871  36.951  40.055  11.586
23089W        W89872  31.866  27.688  11.024
23090W        W89873   7.227  33.926  14.501
23091W        W89874  28.207  37.345  13.923
23092W        W89875  26.171  44.004   2.339
23093W        W89876   7.848   6.676   2.785
23094W        W89877  24.444  18.453  14.938
23095W        W89878  31.658  40.755  13.540
23096W        W89879  11.206  41.696  12.986
23097W        W89880   4.359  21.435  13.001
23098W        W89881   5.367  35.837  14.784
23099W        W89882  37.792  42.941  10.347
23100W        W89883  18.621  13.800   5.004
23101W        W89884  31.133  31.836   4.148
23102W        W89885  31.147  18.317  14.302
23103W        W89886   5.815  33.876   0.954
23104W        W89887  15.802  17.774  14.268
23105W        W89888  26.785  16.253  14.654
23106W        W89889  26.437  32.410  12.523
23107W        W89890  43.507  41.820  13.904
23108W        W89891  26.601   8.151   2.567
23109W        W89892   2.853  17.265   2.080
23110W        W89893  22.539   7.882  13.630
23111W        W89894   9.387  38.357  14.937
23112W        W89895   4.130   1.428  12.105
23113W        W89896  31.718   7.828   0.890
23114W        W89897  23.033  19.705   1.437
23115W        W89898  24.983  24.126   1.678
23116W        W89899  20.722  21.120  10.772
23117W        W89900  10.880  37.870  14.884
23118W        W89901  15.790  18.480  10.690
23119W        W89902  44.942   5.787   1.574
23120W        W89903  24.300  27.683   3.479
23121W        W89904   4.968  19.152   1.326
23122W        W89905  14.701  38.985  14.051
23123W        W89906   4.961   5.918   1.892
23124W        W89907   9.319  14.798  10.657
23125W        W89908  24.940  26.514  14.094
23126W        W89909  43.583  13.802  13.273
23127W        W89910  42.551  11.364  13.766
23128W        W89911   6.922  44.500   3.096
23129W        W89912  44.674   7.696  13.338
23130W        W89913  42.241  28.411  14.918
23131W        W89914  39.468   9.661   0.472
23132W        W89915  20.248  31.471   3.679
23133W        W89916  31.397   9.206   2.425
23134W        W89917  28.894  38.881  10.680
23135W        W89918  35.556  10.174   4.663
23136W        W89919  34.168  16.215   4.537
23137W        W89920  12.731  16.017   3.848
23138W        W89921   6.788   7.402   4.913
23139W        W89922   8.679  27.255  11.577
23140W        W89923  24.657  18.315   4.501
23141W        W89924   9.679   3.943   3.674
23142W        W89925  24.174  17.655   4.112
23143W        W89926  29.358   3.451  13.350
23144W        W89927  39.874  19.261  11.102
23145W        W89928  10.138  15.175  12.220
23146W        W89929   4.867  11.256   4.659
23147W        W89930  37.811   1.044   2.354
23148W        W89931   7.892   2.886  14.901
23149W        W89932   7.065  12.654   1.723
23150W        W89933  16.503  44.477  13.469
23151W        W89934   1.328  37.376  13.744
23152W        W89935  15.788  31.593  14.394
23153W        W89936  38.850   7.912   0.866
23154W        W89937  41.758  36.033  11.526
23155W        W89938  11.738   6.815  14.343
23156W        W89939  43.038   8.358  11.617
23157W        W89940  31.927  43.404  12.813
23158W        W89941  26.970  37.546   2.360
23159W        W89942   4.535  36.395   2.751
23160W        W89943   6.991  25.204   2.212
23161W        W89944  33.391  21.083   1.338
23162W        W89945  14.326   6.896   1.509
23163W        W89946  30.107  23.901   3.547
23164W        W89947  37.075  28.087   4.548
23165W        W89948  39.034  27.026  12.100
23166W        W89949  41.033  28.431   2.648
23167W        W89950  25.453  26.946   4.068
23168W        W89951  28.618  21.620  13.718
23169W        W89952  39.385  32.059   3.756
23170W        W89953  26.315  20.183   1.646
23171W        W89954  33.791  15.256   1.266
23172W        W89955  10.828   5.777   1.539
23173W        W89956   9.178   4.740   3.677
23174W        W89957   9.417  17.901  11.607
23175W        W89958  20.099   1.736   4.978
23176W        W89959  28.116  13.597  11.991
23177W        W89960   4.195  16.594   0.720
23178W        W89961  28.472  38.006   1.023
23179W        W89962   0.961  27.111   2.344
23180W        W89963   2.726  12.833  12.579
23181W        W89964  19.820  30.260   2.261
23182W        W89965  29.186  27.208  14.378
23183W        W89966  43.146  37.037  12.859
23184W        W89967  25.638   5.643   1.235
23185W        W89968  10.661  27.012  11.540
23186W        W89969  22.405  39.407  10.780
23187W        W89970   3.748   3.923   1.496
23188W        W89971  44.803   0.378  11.527
23189W        W89972  29.500  13.752  10.768
23190W        W89973  21.964  36.927  12.133
23191W        W89974   0.759  38.368  11.482
23192W        W89975   6.256  44.224  11.416
23193W        W89976  44.266  17.151  12.034
23194W        W89977  34.321  10.829   1.899
23195W        W89978   0.421   5.489   0.221
23196W        W89979   8.831  31.137   4.272
23197W        W89980  35.912  11.197   0.457
23198W        W89981   7.337   9.015   4.966
23199W        W89982   7.084   0.401  12.221
23200W        W89983   1.942  30.996  12.431
23201W        W89984   4.896   5.220  14.843
23202W        W89985  37.924  16.550   2.164
23203W        W89986  22.663   7.725  10.813
23204W        W89987   4.803  28.118   2.188
23205W        W89988  28.932   5.390   3.021
23206W        W89989   3.208  41.810  14.297
23207W        W89990  33.664  32.536  13.563
23208W        W89991   3.313  23.479  14.786
23209W        W89992   3.252   8.129  11.189
23210W        W89993  15.443  37.733  13.529
23211W        W89994  39.266   4.554   2.749
23212W        W89995  35.115   0.364  11.231
23213W        W89996  44.621  20.922   4.580
23214W        W89997  20.823  39.436   1.581
23215W        W89998  12.226  10.879  13.351
23216W        W89999  13.846  42.623   2.772
23217W        W90000  35.672  43.405   1.302
23218W        W90001  44.327  35.985  13.922
23219W        W90002  15.770  36.092  14.545
23220W        W90003  10.445  18.839   5.104
23221W        W90004  28.908  24.635   0.368
23222W        W90005  43.998  28.995   3.116
23223W        W90006   8.716  26.690   4.199
23224W        W90007   7.464  32.016   3.674
23225W        W90008  19.224  17.101   4.961
23226W        W90009  27.988  28.039  11.629
23227W        W90010  40.058  23.880   2.778
23228W        W90011  20.184  40.729  12.933
23229W        W90012  13.383   6.391  11.861
23230W        W90013  43.487  19.759   2.211
23231W        W90014   6.786  19.877   3.240
23232W        W90015  37.548   7.894  10.429
23233W        W90016  24.958  22.614   3.763
23234W        W90017  21.262  33.097  13.064
23235W        W90018  26.546   3.741  13.498
23236W        W90019  31.862  34.825   0.828
23237W        W90020   5.747  23.045  12.151
23238W        W90021  38.471  33.795  13.823
23239W        W90022  20.217  42.395  14.364
23240W        W90023  27.410  32.584   2.169
23241W        W90024  39.850  25.169   2.358
23242W        W90025  20.703   5.836  12.151
23243W        W90026  14.742  32.583   4.989
23244W        W90027  43.008  25.057  11.980
23245W        W90028  30.480  39.814  14.612
23246W        W90029  24.271  21.654  13.559
23247W        W90030  37.429  44.771  12.089
23248W        W90031  11.235   1.731  11.091
23249W        W90032  13.806  36.187  13.063
23250W        W90033  14.220   0.434  14.453
23251W        W90034  35.110  16.703  10.655
23252W        W90035   0.258   6.812   3.416
23253W        W90036  20.629  31.160  11.263
23254W        W90037  24.999  26.127   0.998
23255W        W90038  37.743  38.767   4.707
23256W        W90039  27.663  37.202  11.165
23257W        W90040  30.902  34.500  10.248
23258W        W90041   9.576  14.026  14.469
23259W        W90042  33.186  28.099  11.457
23260W        W90043  12.612  23.675   1.955
23261W        W90044  13.733  43.495  13.898
23262W        W90045  19.546   0.327  12.364
23263W        W90046  44.729  20.830  13.377
23264W        W90047   9.133  29.473  13.957
23265W        W90048  13.237   7.927   3.108
23266W        W90049  13.987   6.105  13.836
23267W        W90050  38.744  17.429  10.530
23268W        W90051  23.673  16.653  14.054
23269W        W90052   8.184   7.963  12.056
23270W        W90053   2.973   6.316   1.184
23271W        W90054  38.026  21.579  11.723
23272W        W90055   0.183  19.854  12.377
23273W        W90056  20.355   5.900   0.995
23274W        W90057  42.836  26.257   3.882
23275W        W90058  40.156  14.169   3.289
23276W        W90059  11.560  32.859   2.296
23277W        W90060  14.530  32.365   1.402
23278W        W90061  18.734  35.615  11.197
23279W        W90062  18.562  27.004  13.994
23280W        W90063  18.086  33.199   3.642
23281W        W90064  32.063  28.028   1.841
23282W        W90065  38.694  22.006  13.017
23283W        W90066  34.031  26.029   3.642
23284W        W90067   0.942  14.651   2.179
23285W        W90068  38.704   3.418   5.073
23286W        W90069  20.751  22.078   4.312
23287W        W90070  12.347   5.784  11.123
23288W        W90071  15.631  44.360   0.763
23289W        W90072  11.684  23.765   2.855
23290W        W90073   1.742  26.941  14.393
23291W        W90074  27.718   4.599   4.217
23292W        W90075  44.318  24.606   2.456
23293W        W90076  30.417   9.223   2.358
23294W        W90077   8.027  20.394   1.437
23295W        W90078  33.031   7.326   2.352
23296W        W90079   4.396  27.696   0.965
23297W        W90080  20.331  39.143   2.578
23298W        W90081  25.413  35.128   3.323
23299W        W90082   9.532  38.944   2.805
23300W        W90083  40.782   2.480   4.853
23301W        W90084  15.296  30.134   3.722
23302W        W90085  13.864  21.076   2.898
23303W        W90086  31.675  18.257   0.210
23304W        W90087  39.112  38.929  12.900
23305W        W90088  40.725  34.989  12.555
23306W        W90089   6.816  35.062   0.722
23307W        W90090  39.109  43.243  11.219
23308W        W90091  40.903  32.079   3.049
23309W        W90092  18.009  30.682   2.853
23310W        W90093  37.401   2.408  14.331
23311W        W90094  24.470  34.623   1.656
23312W        W90095   5.248  15.178   3.744
23313W        W90096  29.505  42.760   1.407
23314W        W90097   1.474  41.871  13.548
23315W        W90098  35.467  30.108   3.768
23316W        W90099  40.863   1.532  10.712
23317W        W90100  31.083  32.682  10.614
23318W        W90101  24.965  33.012   4.072
23319W        W90102  10.633  42.906   2.301
23320W        W90103   4.988  33.580  13.991
23321W        W90104  15.624  36.979  12.927
23322W        W90105  16.757  15.776   1.276
23323W        W90106  36.599   1.245   3.197
23324W        W90107   4.433  29.559  12.635
23325W        W90108  34.829  24.990   0.301
23326W        W90109  20.430  26.308  14.760
23327W        W90110  42.467  26.068   4.671
23328W        W90111  28.894   6.359  12.119
23329W        W90112  25.515  38.299  11.977
23330W        W90113   6.213  29.596  12.476
23331W        W90114  17.253  35.945   0.453
23332W        W90115  11.843  44.965  10.596
23333W        W90116  10.186  21.704   1.253
23334W        W90117  14.731  27.805   3.212
23335W        W90118  40.938  36.719   0.301
23336W        W90119  38.646  20.539   0.862
23337W        W90120  17.688  43.979  13.414
23338W        W90121  35.980  28.236   2.865
23339W        W90122   7.289  35.156  11.127
23340W        W90123  24.639  17.686   3.796
23341W        W90124  21.978   0.649  11.918
23342W        W90125   8.949   3.778  14.816
23343W        W90126  39.091  42.426  12.433
23344W        W90127  36.104  29.554  13.895
23345W        W90128  30.962  27.238  11.025
23346W        W90129   3.457   6.525  14.982
23347W        W90130  35.495  24.630   2.834
23348W        W90131  30.370  33.362  12.997
23349W        W90132  33.038  23.236   5.063
23350W        W90133   8.062  25.499  11.532
23351W        W90134   0.329  18.580  14.383
23352W        W90135  42.978  25.764   4.407
23353W        W90136  19.730  36.365   2.736
23354W        W90137  24.140  14.297  13.827
23355W        W90138  38.061  18.291  13.508
23356W        W90139  41.260  17.126   3.290
23357W        W90140  23.534  25.133   0.553
23358W        W90141  42.367  15.024   1.814
23359W        W90142  42.591  24.403   2.728
23360W        W90143  12.570  37.443   2.239
23361W        W90144  23.026   1.354  10.223
23362W        W90145  25.661   7.469  13.409
23363W        W90146  35.632  39.481  12.871
23364W        W90147  41.160  21.715  10.402
23365W        W90148  21.666  24.129  10.285
23366W        W90149   1.712  24.181   4.886
23367W        W90150   9.678  37.335   2.380
23368W        W90151  15.216  14.570  12.465
23369W        W90152  32.185  17.297   3.795
23370W        W90153   6.856  37.891   4.517
23371W        W90154  33.348  14.361  13.867
23372W        W90155  42.455  21.179   4.379
23373W        W90156  19.941   8.129   2.191
23374W        W90157  40.007  31.897   1.346
23375W        W90158  12.577  22.561  12.607
23376W        W90159   1.547  20.567   0.395
23377W        W90160  40.885  13.663   1.028
23378W        W90161  30.839  31.614   1.803
23379W        W90162  29.929  39.796   3.226
23380W        W90163  16.658  19.132  12.555
23381W        W90164  29.840  20.147   1.618
23382W        W90165   0.894  38.414  11.987
23383W        W90166  13.583  43.012  12.078
23384W        W90167  35.126  19.550   0.776
23385W        W90168  19.354  20.506   4.133
23386W        W90169  26.147  41.445   2.175
23387W        W90170   6.201   9.691  10.318
23388W        W90171   2.410  16.717   2.208
23389W        W90172  33.655   9.224   0.343
23390W        W90173  18.114  19.233  13.973
23391W        W90174  11.062  30.142   1.826
23392W        W90175  25.872  20.759  14.330
23393W        W90176  33.116  34.903   4.445
23394W        W90177  29.444  30.537   3.788
23395W        W90178  39.907  19.198  12.875
23396W        W90179  11.902  20.660  14.071
23397W        W90180  10.085  44.745  11.976
23398W        W90181  40.050  25.407  11.140
23399W        W90182  21.065  12.917  12.459
23400W        W90183  13.896  35.521  10.994
23401W        W90184  40.460  22.689   4.554
23402W        W90185   3.793  23.988   3.945
23403W        W90186  26.672  13.986  12.485
23404W        W90187  18.765  42.020  10.749
23405W        W90188   3.882   1.475   0.852
23406W        W90189  22.476  36.000   3.449
23407W        W90190  16.282   5.901   0.465
23408W        W90191   2.758  21.903  13.339
23409W        W90192  22.519   2.697  14.292
23410W        W90193   5.811  27.873  11.452
23411W        W90194  44.189  33.399  13.460
23412W        W90195  41.315  19.338  11.413
23413W        W90196  18.486  25.121  11.491
23414W        W90197  19.121  42.990   1.729
23415W        W90198  24.235  39.336  11.872
23416W        W90199   7.804  10.659   4.751
23417W        W90200  15.564  15.187  10.469
23418W        W90201  20.920  13.689  12.019
23419W        W90202   6.657  17.006  10.548
23420W        W90203  38.560  43.306   1.451
23421W        W90204  19.103  17.618   4.966
23422W        W90205  18.520  28.367   2.768
23423W        W90206  21.706  13.381  12.036
23424W        W90207  28.018  19.751   1.705
23425W        W90208  39.685  14.283   4.129
23426W        W90209   9.708  14.030   3.721
23427W        W90210  23.648  17.397   2.386
23428W        W90211   4.492   9.300  14.984
23429W        W90212  31.184  41.096   4.307
23430W        W90213  35.503  20.950   0.969
23431W        W90214  40.113  32.692  12.010
23432W        W90215  22.425   9.258  10.920
23433W        W90216  39.422   9.089  12.953
23434W        W90217  13.825   8.229  14.082
23435W        W90218  24.854   9.786  14.060
23436W        W90219  43.306  18.778   4.174
23437W        W90220  31.507   3.184   2.249
23438W        W90221  26.689   2.513  14.837
23439W        W90222  41.032   0.636  12.332
23440W        W90223  13.625  40.206  12.429
23441W        W90224  20.586  43.673   4.272
23442W        W90225  18.434  40.090  10.226
23443W        W90226  13.282  43.841  10.633
23444W        W90227  29.906  28.850   2.332
23445W        W90228   0.265   9.962  11.039
23446W        W90229  35.245  25.474  12.733
23447W        W90230  12.947  38.047  11.151
23448W        W90231  11.289  22.154  13.860
23449W        W90232  24.460   5.270   0.936
23450W        W90233   7.287   9.322   5.386
23451W        W90234   3.907  17.634   3.442
23452W        W90235  17.992  12.440  14.473
23453W        W90236  43.304  21.190   3.795
23454W        W90237  18.816  39.987  14.598
23455W        W90238   5.006  15.383  10.850
23456W        W90239   5.067  21.295   2.217
23457W        W90240  14.245  29.516   4.058
23458W        W90241  19.740  24.810  11.473
23459W        W90242  27.255  30.506   4.627
23460W        W90243  39.254  44.464  11.596
23461W        W90244  36.566  25.669  13.887
23462W        W90245  25.698   1.943  13.716
23463W        W90246  29.399  13.713  13.541
23464W        W90247   6.648  30.235   2.856
23465W        W90248  10.388  28.816   0.888
23466W        W90249  22.477   0.258   2.780
23467W        W90250  42.653  20.017   1.525
23468W        W90251  39.117   9.922   0.845
23469W        W90252   6.000  14.518   3.691
23470W        W90253  35.794  31.035   4.153
23471W        W90254  41.904  28.348  13.440
23472W        W90255   9.184  36.785   1.318
23473W        W90256  43.504  22.990  10.728
23474W        W90257  22.702  23.503   4.509
23475W        W90258  29.682  26.908   2.185
23476W        W90259  14.694  11.191   1.820
23477W        W90260  25.149  29.153   4.605
23478W        W90261  15.234  32.737  10.468
23479W        W90262  16.249  43.990  12.106
23480W        W90263  12.991  26.518   0.274
23481W        W90264  16.206  33.549  11.225
23482W        W90265  35.392  39.429   3.882
23483W        W90266  40.847  26.687   5.004
23484W        W90267   3.737  21.336  10.571
23485W        W90268  31.089  23.692  13.813
23486W        W90269   5.210  11.909  14.672
23487W        W90270  17.047  30.391  12.629
23488W        W90271  39.596  40.028   0.551
23489W        W90272  16.199  43.095  10.220
23490W        W90273  17.192  24.843  12.846
23491W        W90274  38.010  15.508  10.365
23492W        W90275   0.130  29.182  11.872
23493W        W90276  34.625  25.549   4.534
23494W        W90277  20.424  44.437  10.549
23495W        W90278  31.635  24.294  13.487
23496W        W90279  30.984  38.283  11.158
23497W        W90280  12.851   7.305   0.067
23498W        W90281  44.628  10.823  11.103
23499W        W90282  31.863  31.051  14.855
23500W        W90283  28.223  22.515  14.343
23501W        W90284   6.332  20.985  14.869
23502W        W90285  19.623  44.292   2.505
23503W        W90286  15.371  28.112   4.093
23504W        W90287  43.302   1.325  13.919
23505W        W90288   1.008  35.494  13.910
23506W        W90289  27.584  34.753   4.523
23507W        W90290  22.162  19.034   0.223
23508W        W90291   4.985  16.621  11.649
23509W        W90292  26.325  34.811  11.036
23510W        W90293  30.010  18.043  11.296
23511W        W90294  33.937  21.061   2.580
23512W        W90295   2.595  34.546   0.508
23513W        W90296   8.160   7.824   3.166
23514W        W90297  37.627  16.163   1.424
23515W        W90298   8.634  14.897  14.636
23516W        W90299  33.321  22.382  11.251
23517W        W90300  28.891  39.425  14.004
23518W        W90301  41.272   9.238   4.129
23519W        W90302  36.988  12.315   4.323
23520W        W90303  24.867  13.178  14.283
23521W        W90304   7.473  25.068   3.354
23522W        W90305  10.191  35.852  14.457
23523W        W90306   0.235  37.339  14.874
23524W        W90307  14.661  23.612  14.753
23525W        W90308  12.216  12.190   4.857
23526W        W90309   3.826  41.345   2.372
23527W        W90310  33.945   6.983  13.352
23528W        W90311  35.394   2.194  13.627
23529W        W90312  26.603  12.151   1.870
23530W        W90313   1.229  29.955   0.307
23531W        W90314  13.219  26.935  10.895
23532W        W90315  39.494  25.038   4.592
23533W        W90316  37.381   8.668   4.639
23534W        W90317  32.848  17.569   0.060
23535W        W90318  42.610  19.773  10.976
23536W        W90319  34.806   6.179  14.772
23537W        W90320  35.435  12.713   3.671
23538W        W90321   6.458  29.815  11.602
23539W        W90322  14.741  17.835   2.866
23540W        W90323   4.639   3.564  13.705
23541W        W90324  23.948  42.415   3.117
23542W        W90325  20.703   3.520  11.559
23543W        W90326  33.020  24.608  14.885
23544W        W90327  21.008   6.454   5.283
23545W        W90328   4.286  11.674   3.881
23546W        W90329  33.619  39.210   4.997
23547W        W90330  23.304  42.416   2.380
23548W        W90331  10.745  36.314   1.421
23549W        W90332  40.757   6.048   4.100
23550W        W90333   1.342  23.551  12.015
23551W        W90334  15.998  27.438  11.001
23552W        W90335  29.483  35.618   1.860
23553W        W90336  21.769  10.728   3.216
23554W        W90337  21.079  32.360   1.259
23555W        W90338  17.413  10.103  14.836
23556W        W90339  37.741  39.065   2.453
23557W        W90340  37.454  15.169   1.435
23558W        W90341  35.887  19.537   2.758
23559W        W90342   0.553  13.159   2.318
23560W        W90343  16.696   5.596   2.350
23561W        W90344  19.725  29.473   0.959
23562W        W90345  17.988  10.495  14.055
23563W        W90346  13.862  43.442  12.996
23564W        W90347  43.849  43.782   2.600
23565W        W90348  36.555  12.708  11.797
23566W        W90349  15.343   3.569  11.141
23567W        W90350  23.522  20.176   2.740
23568W        W90351   7.801  36.597   0.976
23569W        W90352  15.789  42.842   2.862
23570W        W90353  16.615  22.641  14.310
23571W        W90354  13.073  33.395  10.365
23572W        W90355  26.148  25.580  12.965
23573W        W90356  38.554  41.758   2.917
23574W        W90357  26.044  14.097   1.428
23575W        W90358  39.666   1.810  12.656
23576W        W90359  16.714   5.481   1.457
23577W        W90360  25.463  33.078   4.090
23578W        W90361  34.180  28.043   0.854
23579W        W90362  10.341   1.405  12.455
23580W        W90363  43.817  30.094   0.721
23581W        W90364  38.682   1.228  11.165
23582W        W90365  10.636  29.151   0.550
23583W        W90366  32.108  35.085  11.100
23584W        W90367  24.026   4.340   0.205
23585W        W90368  27.243  33.593   2.904
23586W        W90369  18.674  33.831  14.361
23587W        W90370  33.560  35.603   3.291
23588W        W90371  11.666  37.664  14.337
23589W        W90372   3.921  42.467  10.414
23590W        W90373   2.849  36.531   1.038
23591W        W90374  43.537  26.417  13.054
23592W        W90375   2.792  37.364  11.068
23593W        W90376   5.841   4.284  14.955
23594W        W90377   1.447  28.177   0.172
23595W        W90378   3.217   1.819  12.119
23596W        W90379   3.991  32.141  11.983
23597W        W90380   3.751   3.515  11.578
23598W        W90381   1.505  21.712   4.558
23599W        W90382  20.252  28.800   4.860
23600W        W90383   8.483  14.038  11.083
23601W        W90384  32.429  39.470  14.011
23602W        W90385  23.249  28.432   1.907
23603W        W90386  33.652   9.410  13.089
23604W        W90387  18.956  26.510  12.150
23605W        W90388   0.508   4.640  13.479
23606W        W90389   1.914  16.549  14.294
23607W        W90390   6.705  16.486   2.804
23608W        W90391   8.892  28.221   2.263
23609W        W90392   3.448  17.745   3.244
23610W        W90393  11.734   7.567   0.995
23611W        W90394   3.341  24.986   1.317
23612W        W90395   5.172  44.043   3.998
23613W        W90396   1.839  13.504   2.200
23614W        W90397  38.777  12.131   4.467
23615W        W90398  33.420  44.263  10.394
23616W        W90399  31.363   7.085   4.984
23617W        W90400  21.997  31.084   5.044
23618W        W90401  40.034  26.018  12.443
23619W        W90402  10.737  41.720   5.114
23620W        W90403   9.693  35.030  11.069
23621W        W90404   1.216  30.054  12.841
23622W        W90405  23.454  35.354   3.954
23623W        W90406  13.303  36.066  14.772
23624W        W90407  33.274  38.255  12.467
23625W        W90408  22.337  10.662  11.077
23626W        W90409  33.588  21.263  10.122
23627W        W90410  34.182  10.370   0.983
23628W        W90411  29.303  37.931  10.518
23629W        W90412  43.973  40.411  12.440
23630W        W90413   5.418  15.094   1.653
23631W        W90414  33.429  27.594  13.550
23632W        W90415  25.229  13.866   3.668
23633W        W90416  16.753  35.654   1.707
23634W        W90417  30.423  21.095   2.085
23635W        W90418  36.488  11.042   2.600
23636W        W90419  12.374  22.560  13.085
23637W        W90420  12.063  41.805  10.984
23638W        W90421  40.784  41.458  14.953
23639W        W90422  28.416   9.764  13.300
23640W        W90423  44.702  20.065  12.143
23641W        W90424   6.376  25.893   0.830
23642W        W90425  44.463  25.130  14.874
23643W        W90426  22.390   5.200   4.025
23644W        W90427   4.911  19.710   4.443
23645W        W90428  36.332  21.112  11.237
23646W        W90429   6.372  27.908   5.150
23647W        W90430   6.632  42.065  13.053
23648W        W90431  38.148  28.562   1.377
23649W        W90432  33.876   1.951   4.111
23650W        W90433   8.825   7.264   1.025
23651W        W90434  14.543  36.476  13.526
23652W        W90435  22.653  17.763   0.394
23653W        W90436  41.397  28.998  13.794
23654W        W90437  37.439  43.854  13.701
23655W        W90438  36.381  40.568   0.998
23656W        W90439  26.531  27.618   2.834
23657W        W90440  40.417  44.873  13.311
23658W        W90441  38.448   7.852  12.115
23659W        W90442  23.125  20.765  10.422
23660W        W90443  24.067  21.535   0.456
23661W        W90444  36.473  41.093   0.966
23662W        W90445  13.321  39.896   2.817
23663W        W90446   7.287  25.654   4.999
23664W        W90447   6.283  15.778  12.344
23665W        W90448  37.715  23.945  11.004
23666W        W90449  30.474  20.322  13.347
23667W        W90450  34.025  38.441  13.449
23668W        W90451   7.427  29.606   4.963
23669W        W90452  12.762  39.113   1.756
23670W        W90453  21.064  18.208   2.358
23671W        W90454  14.868   0.146   0.127
23672W        W90455  14.631  29.956   0.405
23673W        W90456  11.920  28.422   2.277
23674W        W90457  18.322  40.015  14.777
23675W        W90458   2.507   1.390   1.215
23676W        W90459  20.254  16.602   1.443
23677W        W90460  32.894  12.131   0.899
23678W        W90461  13.346  31.586   4.716
23679W        W90462   0.177  11.736  11.046
23680W        W90463  17.590  40.399  13.503
23681W        W90464  35.774  35.676  11.655
23682W        W90465  40.516  20.054  11.235
23683W        W90466  30.034  44.282   3.280
23684W        W90467   2.436   5.691   3.786
23685W        W90468   8.833   9.696   4.638
23686W        W90469  20.551  26.875  10.951
23687W        W90470  34.518  30.122   0.906
23688W        W90471  43.213  35.897  12.449
23689W        W90472  31.548  40.797   4.067
23690W        W90473   5.904  41.391  14.487
23691W        W90474  34.989  16.202  12.345
23692W        W90475  44.851  39.543   3.216
23693W        W90476  12.690  22.096  10.576
23694W        W90477  40.128  35.974   1.706
23695W        W90478  13.592   7.323   9.803
23696W        W90479  16.536  24.188   2.705
23697W        W90480  31.314  17.164  14.080
23698W        W90481  18.277  28.348  13.895
23699W        W90482  39.469  12.309  13.995
23700W        W90483  12.250  26.910   1.894
23701W        W90484   8.166  26.291   0.024
23702W        W90485  12.244  14.709  13.800
23703W        W90486  17.068  33.950   1.825
23704W        W90487  36.121  10.913  14.345
23705W        W90488  24.587  13.795   0.544
23706W        W90489  16.239  39.562   0.769
23707W        W90490  14.528  17.065  14.168
23708W        W90491  19.965   4.439   4.287
23709W        W90492  17.209  42.518   3.506
23710W        W90493  42.520   0.244   4.664
23711W        W90494  13.710   5.541  10.350
23712W        W90495  38.899  35.439   1.764
23713W        W90496  12.643  30.229  12.365
23714W        W90497  27.091   6.666   1.659
23715W        W90498  14.310  23.221  14.698
23716W        W90499   3.501  19.523  11.147
23717W        W90500  37.028   6.748  12.609
23718W        W90501  31.890  26.492  12.485
23719W        W90502   6.190  33.728  11.450
23720W        W90503  41.884  11.744   2.194
23721W        W90504  19.549  18.782  14.958
23722W        W90505  32.136   2.426   2.252
23723W        W90506  12.405  23.460  12.582
23724W        W90507  29.135  17.768  14.394
23725W        W90508   4.677  13.839   1.177
23726W        W90509  26.586  30.450   0.527
23727W        W90510  40.847  39.289   1.146
23728W        W90511  35.877  35.118  14.901
23729W        W90512  23.578  37.576  12.669
23730W        W90513  30.458  10.004   4.120
23731W        W90514  20.631  22.505   2.246
23732W        W90515  40.722  19.157   1.343
23733W        W90516  25.740   8.796   1.714
23734W        W90517  39.592  19.606  11.957
23735W        W90518  30.121  13.851   3.589
23736W        W90519  32.106  28.973  10.628
23737W        W90520  33.425   2.786  13.823
23738W        W90521  42.915  38.936  12.159
23739W        W90522   1.501  22.735  11.549
23740W        W90523  35.711  25.799   0.301
23741W        W90524  40.914   0.014   1.903
23742W        W90525  27.979  27.430   2.874
23743W        W90526  38.967  38.939  11.675
23744W        W90527  16.661  22.217  11.104
23745W        W90528  22.714  23.692  11.504
23746W        W90529  33.726  30.189   0.523
23747W        W90530  25.503   6.275   4.594
23748W        W90531  39.023  34.196  14.450
23749W        W90532  22.014  43.415   3.639
23750W        W90533  37.412  28.452   0.868
23751W        W90534   7.307  17.112  14.192
23752W        W90535  40.116   1.897  14.316
23753W        W90536  16.096  32.563   4.089
23754W        W90537  26.060   1.226   4.094
23755W        W90538   5.413  21.099  12.443
23756W        W90539  26.536  44.212  11.381
23757W        W90540  42.874  19.333  14.561
23758W        W90541  24.112   2.030   2.227
23759W        W90542  23.954   2.382  13.066
23760W        W90543  19.121  21.969  11.253
23761W        W90544  33.900  29.921  11.620
23762W        W90545  29.438  14.672  12.688
23763W        W90546  36.924  39.238  12.832
23764W        W90547  31.650  44.188  11.612
23765W        W90548  15.903   9.066   0.218
23766W        W90549  22.215  10.821   2.166
23767W        W90550  18.706  35.174   5.023
23768W        W90551  19.954   5.333   0.994
23769W        W90552  36.127   5.459  11.570
23770W        W90553  37.979  29.140   3.097
23771W        W90554  39.336  10.735  12.287
23772W        W90555  22.194  37.113   3.980
23773W        W90556  23.450   1.181   1.362
23774W        W90557  30.427  36.009  12.452
23775W        W90558  23.128  16.800  14.889
23776W        W90559   3.435  13.703  13.558
23777W        W90560  39.913  43.022   0.742
23778W        W90561  13.178  24.596  12.444
23779W        W90562  44.493  39.539  13.308
23780W        W90563  33.445  16.199   1.277
23781W        W90564  21.540  15.758   3.642
23782W        W90565  12.393   6.120  11.969
23783W        W90566   7.401  16.409  13.509
23784W        W90567  19.056  43.493  13.557
23785W        W90568  40.816  20.267  12.976
23786W        W90569  25.333  33.091   1.744
23787W        W90570  11.424  27.903   4.276
23788W        W90571  20.491  37.883  13.956
23789W        W90572  15.058  37.049   1.782
23790W        W90573  25.960  28.919   2.371
23791W        W90574   8.209  14.608  13.335
23792W        W90575  20.525  21.554   3.733
23793W        W90576  35.445  35.417   2.831
23794W        W90577   4.316  42.173  12.095
23795W        W90578  37.610   3.591   0.982
23796W        W90579  13.972  26.117  13.977
23797W        W90580   3.792  30.208   2.443
23798W        W90581   2.992  26.648  12.983
23799W        W90582  21.250  20.307  11.655
23800W        W90583  12.711  11.785  12.345
23801W        W90584   8.246  14.836   3.289
23802W        W90585  43.327   1.243   2.879
23803W        W90586  38.266  12.029   2.683
23804W        W90587  18.966   2.473   1.395
23805W        W90588  13.596  12.699  14.005
23806W        W90589  38.778  15.084  13.616
23807W        W90590  40.836  29.672  14.455
23808W        W90591  27.016  34.479   4.712
23809W        W90592   5.122   2.685   1.716
23810W        W90593  19.510  41.270  10.650
23811W        W90594  37.141  16.002  14.903
23812W        W90595  24.274  32.085   1.633
23813W        W90596  32.081  27.048   4.906
23814W        W90597   4.263  31.110   3.351
23815W        W90598   9.944  42.916   0.226
23816W        W90599  39.595  20.597  14.938
23817W        W90600   8.652  32.715   0.385
23818W        W90601  36.776  17.079  10.655
23819W        W90602  18.912  28.359   5.324
23820W        W90603  40.924  20.488   4.739
23821W        W90604  22.200  24.922   0.795
23822W        W90605  20.007  25.026  11.921
23823W        W90606  23.544  22.738   2.275
23824W        W90607  12.750   7.156  12.002
23825W        W90608  33.965  40.616  14.332
23826W        W90609  23.281  33.025  11.455
23827W        W90610  41.938  13.105   1.745
23828W        W90611   3.508  42.802  14.431
23829W        W90612  11.206  19.127  13.586
23830W        W90613  36.649  25.775   0.699
23831W        W90614  24.308  20.567   2.686
23832W        W90615  36.925  21.288  14.698
23833W        W90616  38.854  35.106   0.430
23834W        W90617  18.549  36.354   0.392
23835W        W90618  15.778   3.307  11.184
23836W        W90619  28.551   6.774   4.283
23837W        W90620  16.949  22.126  11.511
23838W        W90621  15.557  11.291   2.270
23839W        W90622  12.229  38.491  12.554
23840W        W90623   4.751   9.252   0.438
23841W        W90624  41.464  44.907  12.194
23842W        W90625  25.961   7.752   4.077
23843W        W90626  35.273  25.385   0.380
23844W        W90627  19.184  15.458   0.424
23845W        W90628  19.646  16.051   0.757
23846W        W90629   8.152  35.079  11.158
23847W        W90630   4.432  15.554  14.507
23848W        W90631  43.845  17.658   1.267
23849W        W90632  16.740  23.976  14.166
23850W        W90633  28.157  15.367   3.318
23851W        W90634  26.025  30.427   1.808
23852W        W90635  43.188  37.318  11.213
23853W        W90636   3.496   3.210   2.818
23854W        W90637  16.007  16.862   3.609
23855W        W90638  15.833  29.323   1.286
23856W        W90639  20.068  34.282  14.102
23857W        W90640  33.879  27.981  11.045
23858W        W90641  40.874   9.163  13.429
23859W        W90642  42.335   5.812   3.094
23860W        W90643   3.640  27.262   3.055
23861W        W90644   6.142  34.494   4.874
23862W        W90645  16.849  16.554   2.642
23863W        W90646   5.194  12.703   3.995
23864W        W90647   6.079   7.785   1.725
23865W        W90648  38.588   6.197  11.467
23866W        W90649   2.140  21.360  14.434
23867W        W90650   0.939  20.485   0.940
23868W        W90651  42.459  27.947  12.750
23869W        W90652  12.847   3.832  12.140
23870W        W90653  35.585  10.134   2.140
23871W        W90654  16.379  44.354   3.903
23872W        W90655  33.885  30.565  13.413
23873W        W90656  18.203  22.463   1.096
23874W        W90657   4.314  44.566   3.594
23875W        W90658   3.979  40.859  10.410
23876W        W90659  37.477  36.118  14.392
23877W        W90660  26.025   2.676  12.969
23878W        W90661  22.460  37.119  12.184
23879W        W90662  16.731  28.219   3.119
23880W        W90663  16.197   5.217  12.798
23881W        W90664   0.534  40.467   2.911
23882W        W90665   3.852  14.808  12.822
23883W        W90666  18.640  38.269  11.342
23884W        W90667  40.981  22.611   4.353
23885W        W90668  28.767  33.966  11.650
23886W        W90669   4.744  22.082   2.727
23887W        W90670  29.365   0.864   3.214
23888W        W90671  28.402  30.069   2.692
23889W        W90672   7.251  36.546   0.379
23890W        W90673  29.066   1.968  13.961
23891W        W90674  32.636  33.418   0.997
23892W        W90675  23.193   1.015   3.368
23893W        W90676   1.791  18.087  14.368
23894W        W90677  27.171  12.231   0.962
23895W        W90678   4.440  29.045   0.448
23896W        W90679  33.354  34.408  12.058
23897W        W90680  38.223  44.444  10.177
23898W        W90681  13.620  28.387   4.463
23899W        W90682  20.679  22.487  11.911
23900W        W90683  18.649  11.108  10.702
23901W        W90684  28.653  23.760   2.363
23902W        W90685  33.949  18.362   2.306
23903W        W90686  37.413  29.828   2.190
23904W        W90687  27.572  37.810  13.379
23905W        W90688  25.731  20.761   2.836
23906W        W90689  37.978  35.938   0.547
23907W        W90690  34.048   8.253   1.319
23908W        W90691  19.848  34.438   4.252
23909W        W90692  23.740   4.840   2.116
23910W        W90693  12.243  27.881   0.791
23911W        W90694  20.758  40.783  12.373
23912W        W90695  22.482   4.214  11.601
23913W        W90696   5.679  38.583   0.162
23914W        W90697  11.361   5.255  12.563
23915W        W90698  44.119  33.803  14.997
23916W        W90699  27.108  24.482  14.717
23917W        W90700  26.639  10.954  11.550
23918W        W90701   2.724   0.569  14.460
23919W        W90702   8.881   5.294   4.485
23920W        W90703  10.575  19.853   5.317
23921W        W90704  16.682   9.637   1.272
23922W        W90705  29.395  16.317   1.906
23923W        W90706   5.840  42.350   1.377
23924W        W90707   4.551   6.975  12.997
23925W        W90708   6.942   5.250  14.039
23926W        W90709  32.713   5.003  11.153
23927W        W90710   2.693  11.357   0.065
23928W        W90711  41.532  22.244  11.704
23929W        W90712  42.899   4.027  13.520
23930W        W90713  27.177   8.959  13.424
23931W        W90714  20.151   7.377   5.016
23932W        W90715   0.565   7.675  11.772
23933W        W90716   9.514   1.787  13.890
23934W        W90717  14.617   3.317  11.239
23935W        W90718   4.292  21.996   0.247
23936W        W90719  43.307   4.345   1.789
23937W        W90720   0.910  24.908  11.281
23938W        W90721  43.867  36.838   3.427
23939W        W90722   4.154  11.543  10.239
23940W        W90723   6.683  13.840  13.440
23941W        W90724  31.485  39.005  13.835
23942W        W90725  12.568  39.671  14.442
23943W        W90726  44.898  11.877   4.148
23944W        W90727  27.052  11.182  10.593
23945W        W90728   4.848   8.918  10.170
23946W        W90729  10.282  41.753  10.430
23947W        W90730  25.527  21.714   3.734
23948W        W90731  14.773  41.471   0.360
23949W        W90732  31.659   4.938   3.681
23950W        W90733  21.098  22.834   0.748
23951W        W90734   8.796  44.842   1.831
23952W        W90735  10.539   1.536   4.234
23953W        W90736  28.762  42.324  13.590
23954W        W90737   1.771  18.699  11.446
23955W        W90738  41.270   4.944  14.479
23956W        W90739  13.245  43.304  13.968
23957W        W90740  38.260  21.243  10.773
23958W        W90741  44.196  24.109   2.334
23959W        W90742   1.624  35.167   2.644
23960W        W90743  35.926  12.338  11.918
23961W        W90744  36.337  34.378  13.955
23962W        W90745  16.412  30.791  11.150
23963W        W90746   8.645  11.158   1.850
23964W        W90747  30.364   9.180   3.707
23965W        W90748  21.108   4.130  13.864
23966W        W90749  12.750  15.096  11.509
23967W        W90750   0.268  15.339   1.858
23968W        W90751  35.798  42.759  12.695
23969W        W90752  10.738  18.078  11.338
23970W        W90753   3.492  26.571   5.178
23971W        W90754   2.943  29.014   3.801
23972W        W90755  31.706  20.973   0.341
23973W        W90756  11.172  16.734  10.926
23974W        W90757  43.870   0.146  11.056
23975W        W90758  44.895  43.998   1.018
23976W        W90759  12.583  28.975  12.585
23977W        W90760  33.543  42.755  14.765
23978W        W90761  11.923  23.676  10.380
23979W        W90762   1.686  44.386   3.664
23980W        W90763  38.495  35.682   2.628
23981W        W90764  42.445  40.618  11.097
23982W        W90765  10.825  12.418   2.023
23983W        W90766  42.534  16.708   1.028
23984W        W90767  29.992  21.815  12.593
23985W        W90768  14.154  21.073   0.508
23986W        W90769  41.247   7.739  13.133
23987W        W90770  37.376  22.903  12.440
23988W        W90771  25.767  39.873  11.815
23989W        W90772   2.493  41.479  13.831
23990W        W90773   3.522  42.050  11.615
23991W        W90774  14.205   5.331  11.204
23992W        W90775   4.948   9.428  12.380
23993W        W90776  36.179  40.795   0.232
23994W        W90777  11.199  43.239   0.216
23995W        W90778   4.990  19.287   3.704
23996W        W90779  20.531   5.237   1.757
23997W        W90780  33.019  40.305   2.178
23998W        W90781  20.026  22.059   2.093
23999W        W90782  20.176  11.584   0.374
24000W        W90783  42.546  23.797  14.486
24001W        W90784  30.380  13.133  14.395
24002W        W90785  26.121  30.925  13.096
24003W        W90786   6.047  13.168   2.447
24004W        W90787  23.391  36.812   0.722
24005W        W90788   6.849  40.950   1.425
24006W        W90789  43.030  41.187   2.787
24007W        W90790  15.352  35.441   1.378
24008W        W90791  20.994  27.990   1.862
24009W        W90792  11.888  22.639  10.215
24010W        W90793  33.194  40.428  11.186
24011W        W90794  37.400  26.486  11.131
24012W        W90795  18.874   7.738   3.171
24013W        W90796   0.991  14.693   1.679
24014W        W90797  38.992  43.295   4.245
24015W        W90798  13.832  26.729   2.284
24016W        W90799   8.770   1.030  11.212
24017W        W90800  15.040  12.277   0.416
24018W        W90801   0.029  17.275  11.608
24019W        W90802   4.791  15.799  12.632
24020W        W90803  20.371  18.042  12.529
24021W        W90804  36.504  22.236   3.641
24022W        W90805  42.947  11.090  14.022
24023W        W90806  13.339  19.517   3.288
24024W        W90807  41.478  39.617  13.296
24025W        W90808  18.727  21.417   3.255
24026W        W90809  21.783  26.433   1.378
24027W        W90810   4.010  23.284  12.121
24028W        W90811  38.077  36.715   3.234
24029W        W90812  28.923  21.317  12.043
24030W        W90813  11.162  44.280  10.844
24031W        W90814   6.913  26.706   1.884
24032W        W90815  26.788  23.594  14.347
24033W        W90816  33.070  21.478   2.822
24034W        W90817  37.060  12.722  11.673
24035W        W90818  37.292  38.786  11.577
24036W        W90819  22.112   7.001   0.819
24037W        W90820  13.313   8.232  11.466
24038W        W90821  28.488  11.531   1.933
24039W        W90822  44.876   4.665   2.644
24040W        W90823  10.263  33.958  13.505
24041W        W90824   2.559   0.890  10.634
24042W        W90825  24.616  23.678   1.030
24043W        W90826  39.054  27.999  10.651
24044W        W90827  32.946  11.782  10.621
24045W        W90828  32.994   8.366  14.014
24046W        W90829  43.611  15.277  12.963
24047W        W90830  19.313  42.899   3.096
24048W        W90831   3.467  24.158   0.943
24049W        W90832  17.305  22.581   1.398
24050W        W90833  22.235  35.072   2.723
24051W        W90834  12.981  32.391   4.022
24052W        W90835  13.690  25.617  11.136
24053W        W90836   9.167   0.380   4.606
24054W        W90837   3.634   7.167  11.181
24055W        W90838  13.168  26.603  14.408
24056W        W90839  42.990   4.737   1.699
24057W        W90840  24.979  14.692   0.274
24058W        W90841  23.387  24.031  12.583
24059W        W90842  37.971  34.638   2.397
24060W        W90843   5.115   1.548  14.891
24061W        W90844  37.813  30.474  11.550
24062W        W90845  30.188  14.924   2.769
24063W        W90846   4.468  28.840   1.329
24064W        W90847  39.527  23.274   0.580
24065W        W90848   7.785  31.336  14.398
24066W        W90849  34.349  33.144   3.135
24067W        W90850  15.182  40.508  13.421
24068W        W90851  19.251   7.025   1.700
24069W        W90852  24.460  35.636   3.686
24070W        W90853   7.498  26.734  13.935
24071W        W90854   9.227  32.172   2.330
24072W        W90855  42.818  27.024   0.863
24073W        W90856  41.540  15.211   2.674
24074W        W90857  38.154  26.489  10.619
24075W        W90858  18.962  22.609  13.349
24076W        W90859   4.757  42.959   2.280
24077W        W90860  42.340  19.752   4.628
24078W        W90861   0.272   6.238   2.852
24079W        W90862  25.441  23.606   1.166
24080W        W90863  36.885   7.315   2.350
24081W        W90864  34.622  29.936   1.385
24082W        W90865  21.809  39.945   0.285
24083W        W90866  13.182  44.841   3.128
24084W        W90867  44.900  39.077   1.315
24085W        W90868   5.219  42.074   2.867
24086W        W90869   7.257  14.170  13.507
24087W        W90870  16.658   5.039   1.960
24088W        W90871   7.934  21.432   1.338
24089W        W90872  43.540   8.729  11.183
24090W        W90873  27.704  35.536   0.902
24091W        W90874  42.000  26.973   1.181
24092W        W90875  13.707  14.649   0.788
24093W        W90876  37.922  23.055  13.084
24094W        W90877  37.742  23.094   0.427
24095W        W90878  18.662  39.795  11.136
24096W        W90879  13.047  19.590  13.581
24097W        W90880  29.476  35.108  11.222
24098W        W90881  24.026  12.870   2.763
24099W        W90882  16.120   0.079   4.200
24100W        W90883  37.787  23.955   1.160
24101W        W90884   3.465  35.541  12.475
24102W        W90885  17.090  41.862  13.389
24103W        W90886   3.851  22.207   0.104
24104W        W90887  37.028   0.649   4.866
24105W        W90888   4.489   8.748   1.751
24106W        W90889  17.504  16.921   1.878
24107W        W90890  31.706  39.878  10.393
24108W        W90891  31.353  23.247  12.495
24109W        W90892  36.064   2.916   3.235
24110W        W90893  16.750  41.911   4.572
24111W        W90894  26.535  17.344  13.232
24112W        W90895   1.871   2.320   0.716
24113W        W90896  35.049  20.683   3.388
24114W        W90897  13.108  39.238   4.306
24115W        W90898  33.124   0.547  11.993
24116W        W90899  15.687   3.670   1.727
24117W        W90900  32.501  16.094  14.935
24118W        W90901   1.070  30.044   4.878
24119W        W90902   3.239  14.290   2.665
24120W        W90903  23.606  15.284  13.027
24121W        W90904  20.593  27.490  13.204
24122W        W90905  39.588   9.274  13.833
24123W        W90906  35.184  13.192  12.330
24124W        W90907  12.951   4.192  11.765
24125W        W90908  28.107  14.123   2.909
24126W        W90909  26.293  10.127  12.427
24127W        W90910   4.856   3.398   0.064
24128W        W90911  32.527  13.368   1.895
24129W        W90912  12.319  20.085  11.668
24130W        W90913  32.697  26.486   4.361
24131W        W90914  16.293  28.025  13.451
24132W        W90915  27.543   3.384   1.271
24133W        W90916  27.791  10.845   2.393
24134W        W90917  39.780  18.696   0.080
24135W        W90918  38.369   1.457   3.903
24136W        W90919  25.728  28.405   3.786
24137W        W90920  43.906   5.915   0.861
24138W        W90921   0.810   9.215   3.681
24139W        W90922   3.914  18.703   2.117
24140W        W90923  42.201  12.349  13.372
24141W        W90924  14.305  29.866  12.584
24142W        W90925  39.532  11.090  10.570
24143W        W90926  31.898  31.860  13.354
24144W        W90927  39.129  30.703  11.046
24145W        W90928  11.754  19.038  12.540
24146W        W90929   7.324  37.509  10.713
24147W        W90930  42.061  18.150  13.606
24148W        W90931  40.327  12.201   0.442
24149W        W90932  13.005  43.207  13.536
24150W        W90933   9.302  19.959   1.420
24151W        W90934  23.197  27.793   1.131
24152W        W90935  32.606  14.315   1.445
24153W        W90936  12.841   3.250   2.405
24154W        W90937   7.687   2.208  12.145
24155W        W90938  24.728  26.065   1.896
24156W        W90939  29.272   6.522   1.677
24157W        W90940  16.614  22.585   1.750
24158W        W90941  22.504  12.689   1.767
24159W        W90942   4.523  44.345   4.570
24160W        W90943  38.752  43.822   4.979
24161W        W90944  43.558  43.863   0.768
24162W        W90945   4.096   9.808  14.627
24163W        W90946  25.558  36.599   0.380
24164W        W90947  16.205  20.232   2.264
24165W        W90948  34.965  33.911   1.300
24166W        W90949  22.728  17.170  13.111
24167W        W90950  18.439  44.411  11.988
24168W        W90951   4.975  35.261  14.751
24169W        W90952  31.647  11.750  12.682
24170W        W90953  14.499  21.784   1.869
24171W        W90954  43.648   6.352  11.870
24172W        W90955  25.405  10.419   0.278
24173W        W90956  44.372  41.059   3.043
24174W        W90957   9.908  27.923  11.195
24175W        W90958  35.594  31.140  11.971
24176W        W90959  11.732  20.724   4.630
24177W        W90960  16.195  16.766   3.130
24178W        W90961  18.208  10.248  13.096
24179W        W90962   9.678  16.299  10.504
24180W        W90963  10.303   5.040   4.102
24181W        W90964  27.111  31.399  11.211
24182W        W90965  31.695  10.207   4.677
24183W        W90966  29.723  36.070   0.994
24184W        W90967  15.611  20.958   0.457
24185W        W90968  10.178  32.679  11.084
24186W        W90969  22.486  18.228   3.318
24187W        W90970  26.547  12.109   4.650
24188W        W90971  16.036  30.562  13.579
24189W        W90972  25.562  40.561  11.534
24190W        W90973  34.622   4.898   1.760
24191W        W90974  43.893  28.195   1.750
24192W        W90975  11.671  43.024   0.240
24193W        W90976  33.985  31.559   1.020
24194W        W90977  41.775  31.644  12.018
24195W        W90978  17.869  11.214  13.959
24196W        W90979  15.750   2.933   4.620
24197W        W90980  43.936   6.859  11.864
24198W        W90981  12.875  44.231   0.317
24199W        W90982  30.917  11.735   2.612
24200W        W90983  37.347  17.969  13.147
24201W        W90984  17.649  20.461  12.904
24202W        W90985   2.730  15.489   2.666
24203W        W90986  40.937  12.763  11.574
24204W        W90987  14.329  16.869  11.920
24205W        W90988  15.160  29.374  14.287
24206W        W90989  40.026   0.292  11.913
24207W        W90990   6.889  28.591   2.197
24208W        W90991  35.744  22.300  14.055
24209W        W90992  12.230  22.824  14.437
24210W        W90993  41.322   7.202  13.987
24211W        W90994  26.946  30.708  12.664
24212W        W90995  27.276  44.445  12.935
24213W        W90996  39.072  39.886  14.794
24214W        W90997  24.119  28.472   0.218
24215W        W90998  20.651  25.725   2.871
24216W        W90999  12.058  28.403  11.228
24217W        W91000  39.008  10.714   3.330
24218W        W91001  34.369  34.290   1.401
24219W        W91002   7.330  14.248   1.536
24220W        W91003  40.448  26.509  11.922
24221W        W91004  20.499   9.087   0.891
24222W        W91005  18.064  18.625  11.528
24223W        W91006  30.013   1.980  13.073
24224W        W91007  23.119  38.999   0.945
24225W        W91008  11.382  24.213   2.666
24226W        W91009  14.602  10.409  11.639
24227W        W91010  27.045   0.578   3.119
24228W        W91011  14.340  44.242  11.150
24229W        W91012  38.356   9.700   3.961
24230W        W91013  30.911  30.894  14.964
24231W        W91014  28.887  13.936  13.980
24232W        W91015  40.089  36.050  13.266
24233W        W91016  34.292  10.305   1.791
24234W        W91017  29.998  14.665   4.662
24235W        W91018  33.621  33.551  10.683
24236W        W91019   7.586   4.210   4.131
24237W        W91020  33.889  16.606   3.138
24238W        W91021  32.374  34.495   3.251
24239W        W91022  23.863   4.837   0.234
24240W        W91023  42.409  18.539  14.488
24241W        W91024  37.123  16.670   0.552
24242W        W91025  26.135  24.109  11.131
24243W        W91026  36.045   2.312  11.613
24244W        W91027  30.477  43.345  10.998
24245W        W91028  10.881  24.497   1.804
24246W        W91029  10.047  39.292   0.422
24247W        W91030  37.411   3.628   3.656
24248W        W91031  29.111  30.113  11.518
24249W        W91032  18.491  43.201   3.433
24250W        W91033   2.989  17.570   1.308
24251W        W91034  36.993  42.952   3.745
24252W        W91035   9.962  28.083   1.316
24253W        W91036  32.927  37.402  13.504
24254W        W91037   3.958  13.302  11.403
24255W        W91038  16.548  32.048  12.056
24256W        W91039  42.128  25.932   1.261
24257W        W91040  34.618  19.597   0.734
24258W        W91041  13.680  42.275   2.388
24259W        W91042  14.138  41.080  12.858
24260W        W91043   4.231  37.738   3.863
24261W        W91044  40.668   3.979   0.676
24262W        W91045  36.813  28.300  11.577
24263W        W91046  20.963  39.647  14.888
24264W        W91047  32.551  17.096   0.917
24265W        W91048  20.509  21.962   0.383
24266W        W91049   9.629  27.708   3.340
24267W        W91050   2.000  20.769  10.740
24268W        W91051  28.706  22.964   4.661
24269W        W91052  32.372  17.115   2.151
24270W        W91053  11.606  15.876   4.192
24271W        W91054  31.915  26.920   4.372
24272W        W91055  30.646  15.795   3.234
24273W        W91056  41.020  16.649   2.650
24274W        W91057  24.747  25.218   2.345
24275W        W91058  32.011  14.842  14.447
24276W        W91059  30.731  43.904  14.338
24277W        W91060  24.159  19.202  11.201
24278W        W91061   5.218  32.637   0.844
24279W        W91062   9.211   6.912  13.922
24280W        W91063   4.302  29.124  12.343
24281W        W91064  12.540  34.370  13.434
24282W        W91065  14.917  38.509  13.947
24283W        W91066   6.411  15.702  12.816
24284W        W91067  31.245  40.380   2.156
24285W        W91068  25.710  30.531  13.377
24286W        W91069   7.138   1.336  11.920
24287W        W91070  26.426  34.289   4.752
24288W        W91071  33.442  43.725  10.340
24289W        W91072  34.612  18.633  13.377
24290W        W91073  29.834   1.016   3.339
24291W        W91074  34.974  29.491   3.184
24292W        W91075  29.991   3.815   4.484
24293W        W91076  16.150  42.943   3.250
24294W        W91077   4.893  28.709  13.466
24295W        W91078  35.616   6.850   2.773
24296W        W91079   0.294  16.561   4.170
24297W        W91080  35.261  14.241  13.282
24298W        W91081  34.432  33.927  10.305
24299W        W91082  33.056  19.811   1.230
24300W        W91083  27.563  30.002   2.222
24301W        W91084  20.401  35.848  11.932
24302W        W91085  28.703   1.964   0.476
24303W        W91086  10.766   8.247  14.535
24304W        W91087  31.657  27.337   4.144
24305W        W91088  26.460   7.555   4.133
24306W        W91089  10.056  39.535   1.390
24307W        W91090   7.154  10.806  13.526
24308W        W91091  30.468  24.781  12.374
24309W        W91092  30.287  35.291  13.911
24310W        W91093  24.248  14.579   2.290
24311W        W91094  27.030  41.742   0.081
24312W        W91095   2.615  26.461   4.675
24313W        W91096  31.731  15.865  12.912
24314W        W91097   7.377  20.173   4.252
24315W        W91098   3.123   4.165   2.943
24316W        W91099  32.265  11.134  12.069
24317W        W91100  29.256   9.804   3.135
24318W        W91101  18.042  11.239   4.137
24319W        W91102   5.031   7.148  14.770
24320W        W91103  35.122  13.336   2.568
24321W        W91104  26.134   5.199   4.630
24322W        W91105  39.750   9.251   4.204
24323W        W91106  22.504  22.032  10.019
24324W        W91107  44.291  41.241   3.671
24325W        W91108   6.729  30.375   1.596
24326W        W91109  19.728  12.074   0.826
24327W        W91110  10.952  19.906   3.640
24328W        W91111   2.219  44.896  12.927
24329W        W91112  32.232  18.545  13.019
24330W        W91113   7.741  39.572   0.884
24331W        W91114  16.935  39.462  14.893
24332W        W91115  10.681  37.595  13.012
24333W        W91116   3.061  26.056  11.400
24334W        W91117  11.962  26.257   2.426
24335W        W91118   8.198   5.743   0.285
24336W        W91119  15.137  42.847  12.203
24337W        W91120   5.945  26.295  10.917
24338W        W91121  27.119   4.288   1.530
24339W        W91122  14.255  30.549   1.958
24340W        W91123  18.161  36.067   2.846
24341W        W91124  40.405   9.003  13.545
24342W        W91125  44.309  34.640   4.576
24343W        W91126  24.115  30.481  11.248
24344W        W91127  26.083  43.944  12.663
24345W        W91128  14.668   5.918   0.894
24346W        W91129  25.657  14.091   2.163
24347W        W91130  36.005  21.141   4.648
24348W        W91131  14.544  30.995  11.263
24349W        W91132  18.029  15.755   3.969
24350W        W91133   6.393  32.986   2.888
24351W        W91134  40.832  10.395   2.125
24352W        W91135  27.045  29.721  12.871
24353W        W91136  44.418  27.328   1.240
24354W        W91137  44.301  29.065  12.649
24355W        W91138   4.931  37.102   1.403
24356W        W91139  15.623  29.514  11.669
24357W        W91140  18.143  37.605  12.478
24358W        W91141  22.228  26.045  14.460
24359W        W91142   4.897   7.411   4.178
24360W        W91143  35.870  15.534   4.257
24361W        W91144  31.168   5.297  13.944
24362W        W91145  17.558  12.117   4.587
24363W        W91146  18.242  10.684  12.501
24364W        W91147   5.615  35.092   4.200
24365W        W91148  35.140  38.811   3.570
24366W        W91149  26.037  19.849  12.786
24367W        W91150  16.217  23.500   3.719
24368W        W91151   1.721  41.823  14.576
24369W        W91152  32.855  18.046  13.522
24370W        W91153  12.212  12.112  13.020
24371W        W91154   7.067   0.429  13.883
24372W        W91155   2.434  13.929   5.044
24373W        W91156   6.754  12.124   2.819
24374W        W91157  22.881  28.568  14.395
24375W        W91158  33.096   3.459   2.501
24376W        W91159  21.551  24.577   4.585
24377W        W91160   7.909   4.938   0.252
24378W        W91161  38.500  38.747   1.400
24379W        W91162  23.613  38.793   1.727
24380W        W91163  15.990  19.092   2.922
24381W        W91164  19.740  27.374   3.862
24382W        W91165  11.244  37.276   2.888
24383W        W91166  31.129   3.817   1.554
24384W        W91167  10.833  21.641   0.683
24385W        W91168  19.280   0.392   3.348
24386W        W91169  25.517  26.979   4.954
24387W        W91170  37.167   9.159  10.262
24388W        W91171  22.525   7.911  14.774
24389W        W91172   6.948  37.885   1.456
24390W        W91173  21.648   4.706   0.368
24391W        W91174  13.823  13.349   2.150
24392W        W91175  27.773  33.457   4.519
24393W        W91176  30.120  18.353   1.237
24394W        W91177  35.449  13.345  14.853
24395W        W91178  43.167  11.266  14.865
24396W        W91179  28.034  33.646  12.218
24397W        W91180  16.679  41.399   1.815
24398W        W91181  17.572  33.131  12.560
24399W        W91182  25.485  27.893  12.940
24400W        W91183   2.872  27.661   0.329
24401W        W91184  21.907   9.094   4.414
24402W        W91185  32.875   6.822   2.327
24403W        W91186   7.183  34.950  10.678
24404W        W91187  40.877   0.359  11.545
24405W        W91188   7.291  27.498  11.590
24406W        W91189  43.974  21.498   4.561
24407W        W91190  29.510  44.724   0.047
24408W        W91191  23.254  36.565  14.974
24409W        W91192   6.648  41.002   2.282
24410W        W91193  28.010  23.665   2.736
24411W        W91194  20.291  31.555  12.963
24412W        W91195  32.774  43.504   4.113
24413W        W91196  19.426   9.340   0.777
24414W        W91197  28.173  19.580  11.096
24415W        W91198  40.039  10.256  10.465
24416W        W91199  37.112  32.928   0.489
24417W        W91200  30.923   6.757   0.815
24418W        W91201   8.033   6.187   5.071
24419W        W91202  42.436  17.847  12.413
24420W        W91203  26.225  39.779   1.806
24421W        W91204   3.371  33.561  13.471
24422W        W91205  26.664  19.979   5.103
24423W        W91206  12.584  20.530   4.665
24424W        W91207   2.263  19.988  10.821
24425W        W91208  39.335  23.288   1.936
24426W        W91209  23.026  38.443  12.883
24427W        W91210  37.953  42.888   4.004
24428W        W91211   9.323   8.136   0.493
24429W        W91212  22.088  10.258   4.477
24430W        W91213  40.830  18.589  12.424
24431W        W91214  11.544  20.593   0.051
24432W        W91215  24.016  28.672   2.308
24433W        W91216  43.510  27.781   3.549
24434W        W91217   7.338  17.694   3.497
24435W        W91218  19.480   5.984   1.374
24436W        W91219  28.370  28.902   5.180
24437W        W91220   4.925  30.466  12.937
24438W        W91221  26.248   4.838  14.549
24439W        W91222  35.467  15.665   0.952
24440W        W91223  27.714  12.553  13.016
24441W        W91224  31.581  17.109   4.540
24442W        W91225  42.821  25.200  11.069
24443W        W91226  42.813   4.321   2.482
24444W        W91227  40.453  44.481   2.372
24445W        W91228  39.356  25.547  14.265
24446W        W91229  34.520   6.392  12.924
24447W        W91230  25.298  17.772  12.102
24448W        W91231  41.035  44.187  12.034
24449W        W91232  33.551  16.863   1.904
24450W        W91233  27.193   4.649   0.442
24451W        W91234   9.562  41.595   3.959
24452W        W91235  11.237  26.653  11.730
24453W        W91236  23.726  18.851  12.557
24454W        W91237  25.879  21.590  11.887
24455W        W91238   6.608  32.421  14.839
24456W        W91239   8.595  13.043   4.231
24457W        W91240  39.268  13.914   3.170
24458W        W91241  32.145   6.675   1.476
24459W        W91242  18.523  41.530   3.186
24460W        W91243  34.229   1.661  12.175
24461W        W91244  40.819  40.295  11.997
24462W        W91245  32.057   9.623  10.928
24463W        W91246  37.318  22.147   3.254
24464W        W91247  12.038  31.072  14.412
24465W        W91248  31.540  17.942   1.152
24466W        W91249  31.379   1.369  12.050
24467W        W91250   8.441  23.628   1.429
24468W        W91251  37.462   5.234  11.844
24469W        W91252  28.849   3.129   0.810
24470W        W91253  41.312  25.518   4.493
24471W        W91254  24.643  29.149   4.131
24472W        W91255   2.642  15.673   1.910
24473W        W91256   8.610  22.198   3.868
24474W        W91257   8.790   7.074   4.152
24475W        W91258  27.114  23.554   0.715
24476W        W91259  30.530  28.050   0.371
24477W        W91260  41.325  11.451  10.666
24478W        W91261  19.350   2.960  14.925
24479W        W91262  42.629  13.544  11.483
24480W        W91263  14.611  28.057  14.301
24481W        W91264  44.271  15.656   3.324
24482W        W91265  42.557  17.505   4.640
24483W        W91266  29.940  35.843  11.698
24484W        W91267  43.309   4.651   0.444
24485W        W91268  21.343  33.388   0.658
24486W        W91269  22.613  16.041  14.929
24487W        W91270  15.907  29.384   0.304
24488W        W91271   2.676  25.114  11.664
24489W        W91272   7.278  33.006   1.921
24490W        W91273   4.353  42.706  13.989
24491W        W91274  31.543  30.622   4.986
24492W        W91275  31.018  37.469  13.185
24493W        W91276  10.188   8.599   1.467
24494W        W91277  23.555  43.909  10.682
24495W        W91278  11.702   5.138  14.986
24496W        W91279  29.503  29.325  10.735
24497W        W91280  39.839  43.680   3.980
24498W        W91281  37.001   5.735  13.372
24499W        W91282  26.981  21.511  12.033
24500W        W91283  34.122  12.175  14.086
24501W        W91284   2.344   9.860  11.593
24502W        W91285  38.742  25.842   0.785
24503W        W91286  33.373   9.857  10.737
24504W        W91287  28.615  14.014   0.920
24505W        W91288  15.637  17.581   3.123
24506W        W91289  20.333  12.643   3.730
24507W        W91290  18.302   2.401   2.380
24508W        W91291  21.712  17.797  11.988
24509W        W91292   1.748  43.855  14.964
24510W        W91293  34.999   8.095   0.881
24511W        W91294   3.754  26.167   1.651
24512W        W91295  19.731   3.757   0.226
24513W        W91296  11.583  34.327  12.517
24514W        W91297  12.337  16.391  11.646
24515W        W91298   0.889  14.182   3.855
24516W        W91299  31.827   4.978  12.520
24517W        W91300   4.392  40.522  11.930
24518W        W91301  44.518  19.211   3.678
24519W        W91302  23.959  12.160   2.472
24520W        W91303  22.259  16.555   4.857
24521W        W91304  36.270   3.411  10.755
24522W        W91305   7.723  28.616  13.273
24523W        W91306  43.004  43.079  12.606
24524W        W91307  41.894   0.915   4.886
24525W        W91308  20.937   4.220   4.035
24526W        W91309   1.907  11.240  11.342
24527W        W91310  12.813  36.107  13.048
24528W        W91311   3.475  29.826   2.308
24529W        W91312  32.350  14.211  11.309
24530W        W91313   2.685  10.323   2.823
24531W        W91314   8.197  41.225   2.506
24532W        W91315  43.509  40.909  12.991
24533W        W91316  13.208   0.519   2.430
24534W        W91317  30.495   0.143   2.789
24535W        W91318  39.374  35.564  11.076
24536W        W91319  18.160   4.990   4.265
24537W        W91320  44.057  15.094  11.185
24538W        W91321  34.483  16.141  13.633
24539W        W91322  31.926  33.020   0.712
24540W        W91323  44.267  12.505   0.445
24541W        W91324  14.801  37.131  13.890
24542W        W91325  15.152  18.031   4.836
24543W        W91326  37.605  14.317   2.355
24544W        W91327  24.349  43.982   3.756
24545W        W91328   1.383  17.196   2.821
24546W        W91329  20.957  21.558  13.959
24547W        W91330  27.550   4.819   1.322
24548W        W91331  13.040   1.870  14.572
24549W        W91332  39.982  22.199   1.257
24550W        W91333   7.942  36.268   2.744
24551W        W91334  18.900  22.766   0.255
24552W        W91335  28.232  41.373  10.288
24553W        W91336  25.668  14.842  12.039
24554W        W91337  25.140  12.442  12.998
24555W        W91338   9.256   3.764   1.876
24556W        W91339   6.150  12.744   0.977
24557W        W91340  30.547  29.969  10.793
24558W        W91341   4.342  26.056  14.955
24559W        W91342  17.333  16.444   4.102
24560W        W91343  24.426  29.035  13.333
24561W        W91344  32.085  18.966   1.411
24562W        W91345  24.132  43.913  11.445
24563W        W91346  10.353   5.216  10.636
24564W        W91347  17.636  25.449  14.808
24565W        W91348   5.310  17.775  14.896
24566W        W91349  15.550  27.729  11.076
24567W        W91350  41.469  17.040   4.271
24568W        W91351  18.776  21.708  12.744
24569W        W91352  31.973  24.619  14.979
24570W        W91353  33.608  18.262   2.714
24571W        W91354  30.544  37.456  12.979
24572W        W91355  18.574   8.096   3.995
24573W        W91356  21.492  43.416   3.679
24574W        W91357   7.354   6.128  11.701
24575W        W91358  12.202  28.660   0.305
24576W        W91359  23.165   6.725  13.326
24577W        W91360  22.372  36.156   1.266
24578W        W91361  17.093  31.070   1.316
24579W        W91362  12.035   6.271   0.320
24580W        W91363  14.833  15.597   4.593
24581W        W91364   9.839  35.469   3.689
24582W        W91365  19.281   0.736   1.683
24583W        W91366   6.190  41.067  12.045
24584W        W91367  30.010  29.828  13.980
24585W        W91368  43.267  31.064  10.716
24586W        W91369  40.405  20.656  10.522
24587W        W91370  33.922   9.160  12.725
24588W        W91371   9.265  10.567  10.630
24589W        W91372   2.114  41.889   2.671
24590W        W91373  30.529   2.332   3.568
24591W        W91374  35.611  43.398  14.926
24592W        W91375  35.801   7.925   1.797
24593W        W91376   5.381   8.085   0.377
24594W        W91377  16.637  25.360   1.890
24595W        W91378  21.274  44.076   1.715
24596W        W91379   5.764  25.144  11.886
24597W        W91380   4.767  26.425   4.602
24598W        W91381  17.305  34.627   1.398
24599W        W91382  42.858  35.903   4.209
24600W        W91383  30.943  33.342   4.153
24601W        W91384  24.281  33.660   0.601
24602W        W91385  39.956  24.468  14.018
24603W        W91386   3.890  32.983   4.845
24604W        W91387  25.507  32.860   1.285
24605W        W91388  32.675  23.641   4.964
24606W        W91389  17.259  29.505   2.167
24607W        W91390  22.095  40.855   2.455
24608W        W91391  26.931   1.106  14.327
24609W        W91392   3.386  35.947  10.710
24610W        W91393  42.205  41.749  13.679
24611W        W91394   8.389   2.490  14.375
24612W        W91395  10.613  37.324   1.389
24613W        W91396   8.621  10.534   4.753
24614W        W91397  21.054  11.872  12.472
24615W        W91398   9.114  22.890   1.249
24616W        W91399  20.474   0.530   4.659
24617W        W91400  31.063  32.001   4.635
24618W        W91401   1.045  41.559   1.762
24619W        W91402  29.249  24.028  10.261
24620W        W91403   3.408  20.244  11.023
24621W        W91404   9.281  16.049  14.822
24622W        W91405  18.247   2.223   0.745
24623W        W91406   0.317  26.619  10.103
24624W        W91407  34.847  12.223  12.724
24625W        W91408  27.359  30.729  11.478
24626W        W91409  17.020  18.217  12.609
24627W        W91410  16.462  27.112  13.810
24628W        W91411  10.804  10.161  13.312
24629W        W91412  18.784  28.406   1.472
24630W        W91413  10.666   3.656  12.405
24631W        W91414  37.328  19.711   2.861
24632W        W91415  16.529  33.474   1.290
24633W        W91416  44.573  10.816  11.967
24634W        W91417  19.015  28.188  12.484
24635W        W91418  17.543  30.811  11.748
24636W        W91419   4.254  29.364   2.711
24637W        W91420  33.750  42.113   2.406
24638W        W91421   6.624  27.987  10.591
24639W        W91422   0.550  32.560  12.481
24640W        W91423  37.704  27.666   2.847
24641W        W91424  33.432  31.801   4.679
24642W        W91425   3.901   8.161  11.521
24643W        W91426  14.806   4.834   4.560
24644W        W91427   8.443  43.370  14.039
24645W        W91428  38.875  30.083  13.742
24646W        W91429  23.172  12.818  10.700
24647W        W91430  37.375  39.916   1.656
24648W        W91431  24.879  20.283  14.009
24649W        W91432   1.499  22.752   4.551
24650W        W91433  34.359  39.345   0.874
24651W        W91434  22.698   1.263   2.919
24652W        W91435  43.419  23.456  11.444
24653W        W91436   7.371   4.188   0.162
24654W        W91437  32.377  10.872  10.560
24655W        W91438   8.640  15.337  14.947
24656W        W91439  29.395  16.674   4.141
24657W        W91440  15.648  34.633  14.550
24658W        W91441   3.610  41.878  14.637
24659W        W91442   2.867  21.176  13.835
24660W        W91443  32.128  11.234  10.252
24661W        W91444  31.927   0.841  12.947
24662W        W91445   0.816  41.652  10.881
24663W        W91446  24.098  31.177   2.858
24664W        W91447  10.797  16.777  14.724
24665W        W91448  31.261   8.418   5.571
24666W        W91449  14.781  10.206   0.041
24667W        W91450  40.513  40.368  13.042
24668W        W91451  28.959  21.097   3.659
24669W        W91452  17.683   0.201  12.155
24670W        W91453   4.675  39.807  14.272
24671W        W91454   9.753  39.443  11.703
24672W        W91455  29.961   6.148   0.829
24673W        W91456   2.317  18.871   4.215
24674W        W91457  12.136  12.820  11.161
24675W        W91458  17.031  43.454   3.251
24676W        W91459  27.482  44.118   1.839
24677W        W91460  43.563  23.975  14.567
24678W        W91461  37.955   8.206  13.808
24679W        W91462  38.793   3.881   2.252
24680W        W91463  21.080  12.983  13.412
24681W        W91464   9.409  20.071  11.554
24682W        W91465  10.878   6.321   0.057
24683W        W91466  23.004  17.036  13.549
24684W        W91467  28.919  36.997   1.533
24685W        W91468  31.909  40.269  12.470
24686W        W91469  32.024  17.348  11.504
24687W        W91470  22.269  21.800   3.557
24688W        W91471  24.511  32.682  12.596
24689W        W91472  25.510  12.795   0.513
24690W        W91473  12.549  38.516   0.155
24691W        W91474   9.266  14.622  12.990
24692W        W91475  21.464   6.466  12.523
24693W        W91476  31.367  15.329  11.603
24694W        W91477  14.730   7.625  14.009
24695W        W91478  32.205  44.093  10.849
24696W        W91479   2.772  26.011  12.386
24697W        W91480  36.372  37.869   3.153
24698W        W91481  31.914  42.464   3.599
24699W        W91482  44.376  36.696   4.612
24700W        W91483  10.927   8.415  12.604
24701W        W91484  32.523  14.124  14.475
24702W        W91485   0.084  10.164  11.540
24703W        W91486  42.558  10.184  11.630
24704W        W91487  14.674  29.140   1.427
24705W        W91488  26.464  16.473  10.723
24706W        W91489   4.939  11.721  10.865
24707W        W91490   6.730  29.198   3.166
24708W        W91491  11.053  10.431   0.104
24709W        W91492   4.587  41.858  11.780
24710W        W91493   8.199  37.560  12.084
24711W        W91494   8.841  11.234  12.771
24712W        W91495  25.651   1.422  13.845
24713W        W91496  28.141   5.642   2.171
24714W        W91497  26.911  43.559   4.189
24715W        W91498  30.503  16.320   1.290
24716W        W91499  20.791  41.245  13.548
24717W        W91500  32.469  39.976   0.453
24718W        W91501  11.339  15.728   1.459
24719W        W91502  33.094  20.188   3.138
24720W        W91503   8.886  39.387   4.104
24721W        W91504  37.873  24.724   3.086
24722W        W91505   7.099   0.305  12.745
24723W        W91506  26.886  27.769  14.920
24724W        W91507   0.942  24.923   9.995
24725W        W91508  23.236  27.521   2.662
24726W        W91509  23.126   8.611   2.811
24727W        W91510  35.189  40.499   4.842
24728W        W91511  42.319  19.293   2.153
24729W        W91512  35.357  13.744  11.019
24730W        W91513  10.665  34.483   1.205
24731W        W91514  40.905  14.735   3.332
24732W        W91515  15.055  12.653   4.143
24733W        W91516  34.024  23.129  13.582
24734W        W91517  24.426  43.487  12.832
24735W        W91518  35.411  17.550   0.017
24736W        W91519  38.098  23.074  10.702
24737W        W91520  25.682  31.024   1.163
24738W        W91521  30.043  19.195  14.353
24739W        W91522  43.322   0.261   1.539
24740W        W91523  20.655  24.692   2.768
24741W        W91524  37.328  26.760   3.728
24742W        W91525  21.413  38.356   2.176
24743W        W91526  20.848  33.124   2.412
24744W        W91527  21.460  43.492   2.788
24745W        W91528  27.101  38.309   2.783
24746W        W91529  31.852  23.204   0.040
24747W        W91530  31.139  27.325   0.614
24748W        W91531  33.095   4.090  12.431
24749W        W91532  11.710  29.896  11.559
24750W        W91533   4.780  40.479  11.044
24751W        W91534   7.219  30.210   1.670
24752W        W91535  44.698  29.085  13.106
24753W        W91536  20.046  41.497  14.594
24754W        W91537   0.287  43.237  10.432
24755W        W91538   4.136   8.379  13.957
24756W        W91539   0.306  23.478   3.573
24757W        W91540  43.400  22.068  10.564
24758W        W91541  32.032  20.981  12.374
24759W        W91542  25.574   4.767   0.305
24760W        W91543  23.815   0.020   2.812
24761W        W91544  16.325  41.942   3.160
24762W        W91545  44.984  16.019  14.391
24763W        W91546  22.684  37.976  13.669
24764W        W91547  44.280   4.452  12.892
24765W        W91548  22.711   4.615   5.226
24766W        W91549  38.641  25.545  14.766
24767W        W91550  27.489  34.581  14.970
24768W        W91551  39.971  24.764  13.006
24769W        W91552  23.013  21.662  14.214
24770W        W91553  23.812  27.574  14.398
24771W        W91554  22.155  14.869  11.504
24772W        W91555  43.588  20.629  11.151
24773W        W91556  31.158  24.515  13.408
24774W        W91557  30.154   8.820  12.067
24775W        W91558  18.156   8.350   2.772
24776W        W91559  20.004   2.723  13.387
24777W        W91560  32.395  28.030   4.154
24778W        W91561  35.533  17.543  11.162
24779W        W91562  11.390  32.505  12.636
24780W        W91563  16.371   6.148  10.866
24781W        W91564  42.846  15.643  12.552
24782W        W91565  12.736  18.335  11.562
24783W        W91566  12.698   4.250   1.950
24784W        W91567  22.807  19.596   4.232
24785W        W91568  25.390  28.591   5.483
24786W        W91569  19.554   3.428  14.812
24787W        W91570   6.355  31.401  13.095
24788W        W91571  44.855  41.652   1.839
24789W        W91572   9.305  41.352  14.942
24790W        W91573   2.136  13.888  10.277
24791W        W91574  19.505  15.578   1.700
24792W        W91575  40.056   4.224  10.717
24793W        W91576  35.445  40.357   3.916
24794W        W91577   2.715   2.810  12.528
24795W        W91578   1.310  27.563  14.774
24796W        W91579  28.820  44.912   0.916
24797W        W91580  16.216  41.141   1.767
24798W        W91581  27.527  20.761  10.691
24799W        W91582  41.345  12.670  14.359
24800W        W91583  31.955  13.879  13.443
24801W        W91584   3.503   8.850   1.961
24802W        W91585  40.360  33.843  14.447
24803W        W91586  29.849  12.540  13.712
24804W        W91587   6.629  30.617  13.867
24805W        W91588  20.543  15.589  14.024
24806W        W91589   9.289   5.960  12.052
24807W        W91590   1.989  10.232  12.917
24808W        W91591  27.423   0.898   3.231
24809W        W91592  13.196  12.231  13.358
24810W        W91593  10.309   6.161  11.533
24811W        W91594  41.486  12.187  14.537
24812W        W91595   9.680  42.406   4.538
24813W        W91596  10.705  34.945  10.735
24814W        W91597  44.890   9.936   1.707
24815W        W91598  21.443  26.534   4.489
24816W        W91599  13.787  11.703  14.807
24817W        W91600  10.559   3.240  12.840
24818W        W91601  21.775   4.332   1.514
24819W        W91602  17.156  17.206  12.189
24820W        W91603  17.476  32.201  14.958
24821W        W91604  42.328  18.581  11.456
24822W        W91605  10.350  34.892   3.129
24823W        W91606  16.084  44.857   2.875
24824W        W91607  37.850   3.971   2.286
24825W        W91608  26.211  10.127  11.519
24826W        W91609  30.447   7.663   3.790
24827W        W91610  42.389  25.465   3.772
24828W        W91611   9.748  17.300  12.858
24829W        W91612  25.519  21.798   0.906
24830W        W91613  11.588  14.245  10.726
24831W        W91614  17.696  13.450  14.580
24832W        W91615   3.597   3.216  13.345
24833W        W91616  22.003  30.120  11.504
24834W        W91617  22.130  38.947  14.858
24835W        W91618  10.360  20.497  13.931
24836W        W91619   2.525  43.779  12.460
24837W        W91620   6.630   5.784  12.122
24838W        W91621  41.171  34.473  13.780
24839W        W91622  14.963  18.594   3.695
24840W        W91623  33.360  14.593   4.726
24841W        W91624  32.583  13.212  11.201
24842W        W91625  30.699  32.944  14.511
24843W        W91626  43.756  30.464  13.951
24844W        W91627  39.603  29.482  12.347
24845W        W91628   2.789   0.829   2.167
24846W        W91629  25.217  12.662   1.628
24847W        W91630  26.305   6.390   0.187
24848W        W91631  19.993  21.663   4.577
24849W        W91632   1.560  43.697   3.138
24850W        W91633  24.467   2.477  11.263
24851W        W91634  29.578   9.788   4.063
24852W        W91635  26.371  24.574   2.430
24853W        W91636  16.795   5.417  13.552
24854W        W91637  15.660   1.458  13.017
24855W        W91638  14.757  23.192  11.588
24856W        W91639  10.268  13.133   1.149
24857W        W91640  27.589  33.292  13.958
24858W        W91641   9.855  37.640  10.218
24859W        W91642  22.706   2.017   9.977
24860W        W91643  27.209  28.075   0.897
24861W        W91644  32.711  12.738   4.133
24862W        W91645  26.409  17.740   2.230
24863W        W91646  25.339  34.064  13.644
24864W        W91647  40.985   6.081   0.653
24865W        W91648  24.705   5.877   4.182
24866W        W91649  38.027   1.965  14.792
24867W        W91650  30.381  33.895  11.228
24868W        W91651  36.368  27.292   4.975
24869W        W91652   4.934  43.712  12.707
24870W        W91653  40.982   3.898   3.610
24871W        W91654  10.442  27.516  11.630
24872W        W91655   1.264  37.106   2.173
24873W        W91656  21.630  37.429   2.815
24874W        W91657  43.225  40.295  11.972
24875W        W91658   1.233  38.165   2.783
24876W        W91659  13.954  27.712   2.842
24877W        W91660   3.527  36.001   5.030
24878W        W91661  10.625  23.115   0.781
24879W        W91662  14.753   5.963  14.880
24880W        W91663  26.032  20.016  12.289
24881W        W91664  29.914  23.610   4.671
24882W        W91665  44.065  18.210   0.514
24883W        W91666  15.542  29.629  13.418
24884W        W91667   1.825   2.503  12.185
24885W        W91668   9.682  12.938  10.699
24886W        W91669  33.848  13.743  12.254
24887W        W91670  20.119  13.098  14.396
24888W        W91671  12.437  39.533   1.976
24889W        W91672  38.290  28.665  10.618
24890W        W91673  17.983   5.327  14.809
24891W        W91674  31.091  43.115   1.446
24892W        W91675  18.744   3.791  14.321
24893W        W91676  16.656  42.404   0.308
24894W        W91677  29.095  11.559  12.548
24895W        W91678  32.314  31.271   2.671
24896W        W91679  29.595  40.301   4.058
24897W        W91680  31.892  15.966   1.580
24898W        W91681  27.749   5.693   1.827
24899W        W91682   5.199  28.144   1.229
24900W        W91683  10.328   5.968  12.845
24901W        W91684  16.000  23.544  11.138
24902W        W91685  37.291  19.356  12.799
24903W        W91686  15.565  34.891   4.929
24904W        W91687  27.603   9.776   2.797
24905W        W91688  34.873  33.054   4.291
24906W        W91689   8.877  32.568   2.326
24907W        W91690  38.868  17.831   5.207
24908W        W91691  16.511  17.754   3.612
24909W        W91692  40.441  19.140   4.875
24910W        W91693  24.167  20.050  12.440
24911W        W91694   0.734   1.229  11.315
24912W        W91695  27.486   2.325   1.225
24913W        W91696  32.855  44.355   1.432
24914W        W91697  13.582  21.554  10.545
24915W        W91698   2.889  25.185   1.136
24916W        W91699  38.077  25.084  14.122
24917W        W91700   8.816  26.169  14.048
24918W        W91701  28.474  19.975   3.320
24919W        W91702  27.498  19.438  13.070
24920W        W91703  28.578  13.509  13.956
24921W        W91704  31.389  33.200  13.913
24922W        W91705  43.998  18.754   2.337
24923W        W91706  22.264  34.111  14.059
24924W        W91707  31.658   9.597   4.111
24925W        W91708   0.681  20.039  12.641
24926W        W91709  34.090  35.880   4.300
24927W        W91710  28.988  33.145   0.489
24928W        W91711   0.122  28.107  13.920
24929W        W91712  20.627   3.055  11.100
24930W        W91713  13.161  23.769  13.316
24931W        W91714  44.072   2.870   3.165
24932W        W91715  20.125  23.436   0.304
24933W        W91716  11.899  32.047  11.684
24934W        W91717   5.404  12.614  11.194
24935W        W91718  34.903  34.175  10.273
24936W        W91719   8.802  31.860   4.449
24937W        W91720  32.595  28.026  11.481
24938W        W91721   2.774  37.312   3.117
24939W        W91722  37.929  21.058   1.447
24940W        W91723  39.325  12.672   0.847
24941W        W91724   2.630   0.784   4.546
24942W        W91725  21.324  30.206   3.839
24943W        W91726  23.686   9.621  11.000
24944W        W91727  40.413   4.878   1.839
24945W        W91728  17.281  28.369  13.931
24946W        W91729   1.707  10.672   1.841
24947W        W91730  43.100  42.703  11.061
24948W        W91731   7.887   7.370   3.256
24949W        W91732  43.959   0.205   2.746
24950W        W91733  37.834  31.896  10.457
24951W        W91734   5.367  28.028   4.256
24952W        W91735  36.580  37.483   1.434
24953W        W91736  10.844  20.978   3.757
24954W        W91737  18.703  18.594  13.540
24955W        W91738  34.712  26.474   0.680
24956W        W91739  17.516  32.990   0.448
24957W        W91740  40.823   6.299  11.165
24958W        W91741  20.782   9.699  14.703
24959W        W91742  42.863  22.639  11.725
24960W        W91743  10.655  25.501  12.972
24961W        W91744  25.142   4.895   4.559
24962W        W91745  10.360  28.314  11.246
24963W        W91746  39.382  35.820  11.548
24964W        W91747  21.297   2.463  13.395
24965W        W91748  16.333  41.183  13.362
24966W        W91749  24.670  35.822   3.243
24967W        W91750  36.173   6.218   0.985
24968W        W91751   3.302  31.303  13.014
24969W        W91752   9.166  12.559   1.803
24970W        W91753  11.117  29.992   3.875
24971W        W91754  34.933  15.634  14.241
24972W        W91755  22.197  20.471   0.181
24973W        W91756  38.955  40.021  10.921
24974W        W91757  15.334   9.693  12.973
24975W        W91758  13.695   3.849   1.806
24976W        W91759   8.618  18.614  12.146
24977W        W91760  18.144   8.559  14.869
24978W        W91761  24.508  15.496  11.192
24979W        W91762  36.599  27.989   3.685
24980W        W91763  15.620   0.380   1.262
24981W        W91764  13.308  32.188  13.025
24982W        W91765  35.912  38.822  13.328
24983W        W91766   4.418  38.410  14.999
24984W        W91767  28.342  29.555   1.727
24985W        W91768   9.556  17.817  12.855
24986W        W91769   5.353  11.226  10.594
24987W        W91770   9.519  21.336  12.040
24988W        W91771  16.626  28.500   0.026
24989W        W91772  12.312  44.910   0.319
24990W        W91773  32.630  25.522   2.737
24991W        W91774  36.781  17.703   1.364
24992W        W91775  31.548  34.061  13.607
24993W        W91776  11.804   4.766   2.793
24994W        W91777  21.990  12.931   0.797
24995W        W91778  35.019  24.481  10.702
24996W        W91779  36.815  18.137   4.046
24997W        W91780  33.023  16.723  10.573
24998W        W91781  30.949  41.322   1.715
24999W        W91782  29.556  18.786   0.859
25000W        W91783  12.867  29.821  12.568
25001W        W91784  36.231  40.353  11.591
25002W        W91785  33.020  22.679  11.538
25003W        W91786  44.282  32.865   1.481
25004W        W91787  42.014  21.719  11.587
25005W        W91788  41.417   1.287   1.435
25006W        W91789  15.537   6.225   2.399
25007W        W91790   8.322   3.536   1.919
25008W        W91791   4.714  19.733  14.461
25009W        W91792  28.589  27.592  13.799
25010W        W91793  43.273   8.581   1.158
25011W        W91794   3.908   4.483   3.225
25012W        W91795  19.219  30.903   2.445
25013W        W91796  36.951  22.049  14.239
25014W        W91797   5.761   1.435  14.053
25015W        W91798  44.961  29.933  14.896
25016W        W91799  27.715  16.784   0.975
25017W        W91800   3.898  36.123   4.712
25018W        W91801  29.943  40.346  10.175
25019W        W91802  30.721   6.158   4.899
25020W        W91803  24.630  42.372   0.500
25021W        W91804  10.754  37.019   4.474
25022W        W91805  20.222  12.591  10.282
25023W        W91806  13.350  33.916  13.013
25024W        W91807  20.547  22.672  14.806
25025W        W91808  23.979  41.212   0.890
25026W        W91809  13.889  34.672   0.784
25027W        W91810  37.850  39.013  10.718
25028W        W91811  37.747  36.015   4.304
25029W        W91812  18.133  39.794   3.172
25030W        W91813  31.022  12.314  14.415
25031W        W91814  15.094   3.745   1.140
25032W        W91815  29.521  29.052  13.943
25033W        W91816  30.568   0.274   1.768
25034W        W91817  33.181  32.927  11.185
25035W        W91818  33.401  10.763  10.604
25036W        W91819   9.943  22.624  10.773
25037W        W91820   6.836  33.421   0.034
25038W        W91821   9.835  41.015   2.666
25039W        W91822  41.490  39.918   4.625
25040W        W91823   5.775  10.268  14.338
25041W        W91824   0.010   8.675   1.151
25042W        W91825   7.993  38.579  14.954
25043W        W91826  20.079  31.382  10.740
25044W        W91827  22.456  11.228   4.240
25045W        W91828  42.019  39.445   1.289
25046W        W91829  23.655  26.714  12.385
25047W        W91830  26.020  16.724  10.658
25048W        W91831  44.460   9.838   1.430
25049W        W91832  39.827   6.720  12.959
25050W        W91833  17.369  18.205  13.444
25051W        W91834  11.239  14.351  14.493
25052W        W91835  19.456   4.855   4.925
25053W        W91836   1.363   7.347   1.264
25054W        W91837  15.550  16.026   4.240
25055W        W91838  20.701   8.278  14.794
25056W        W91839  13.210  29.037  11.039
25057W        W91840  22.316  30.917  13.863
25058W        W91841   6.494  18.780  12.892
25059W        W91842  32.406   9.834   0.531
25060W        W91843  11.115  44.334   3.113
25061W        W91844  19.704  23.124   4.490
25062W        W91845   6.830  12.206   0.405
25063W        W91846   5.982   0.689   0.607
25064W        W91847  32.094  37.042   1.929
25065W        W91848  10.480  27.984   4.152
25066W        W91849  27.729  17.134  12.559
25067W        W91850  30.848  21.635  12.918
25068W        W91851  30.627   0.892   2.230
25069W        W91852   9.079  18.962   4.443
25070W        W91853  21.025   3.773   1.403
25071W        W91854   6.724  21.697   3.164
25072W        W91855  12.130  36.051  10.622
25073W        W91856  17.188  39.009   3.674
25074W        W91857  23.019  40.480   3.339
25075W        W91858  43.011  24.634  14.024
25076W        W91859  34.861   6.437  13.297
25077W        W91860  43.392  27.976  12.318
25078W        W91861  25.726  14.548  11.217
25079W        W91862  33.397  28.374  10.231
25080W        W91863  35.789  20.325   0.727
25081W        W91864  13.283  20.715  10.428
25082W        W91865   5.469  32.093  13.277
25083W        W91866  13.859   0.898  14.890
25084W        W91867   6.395  37.098  14.498
25085W        W91868  20.844   8.263  10.721
25086W        W91869   0.194   0.848   1.273
25087W        W91870   0.488  39.451   1.957
25088W        W91871   6.418  36.051   4.860
25089W        W91872  37.982  32.657   4.364
25090W        W91873   5.145   1.756   1.686
25091W        W91874  24.674  23.298   2.329
25092W        W91875  12.723  41.956  12.048
25093W        W91876  37.275  33.322  11.093
25094W        W91877  26.966  36.128   0.980
25095W        W91878  19.439  40.472   2.282
25096W        W91879  21.253  31.635   3.670
25097W        W91880  19.733  31.115   0.700
25098W        W91881  13.186   7.467  11.970
25099W        W91882  27.447  16.162   0.369
25100W        W91883  27.216  19.717  12.010
25101W        W91884   4.243  13.578  12.889
25102W        W91885  25.766   9.184   0.091
25103W        W91886  33.459  44.048   3.649
25104W        W91887   6.772  14.344  13.414
25105W        W91888  24.626  18.257   3.937
25106W        W91889  11.733  30.639   3.867
25107W        W91890  18.260  36.532   1.821
25108W        W91891   3.718  18.995  14.347
25109W        W91892  22.164  14.223   2.874
25110W        W91893  14.813   6.818  12.174
25111W        W91894  32.712  27.002  13.511
25112W        W91895  20.102  14.467  11.161
25113W        W91896  33.947  26.185   1.049
25114W        W91897  11.618  40.029  12.798
25115W        W91898  37.461  39.869  10.748
25116W        W91899  11.379  33.392   3.916
25117W        W91900  35.910  10.145   0.395
25118W        W91901  34.370  37.723  11.972
25119W        W91902  26.412  29.227  14.297
25120W        W91903  23.474  43.100   0.492
25121W        W91904  30.723  35.832   1.877
25122W        W91905   8.472  26.347  11.445
25123W        W91906  42.808   1.375   2.205
25124W        W91907   1.736  18.634   0.689
25125W        W91908  40.283  31.870  12.061
25126W        W91909  32.801   7.984  11.173
25127W        W91910  22.687  17.782   4.888
25128W        W91911  43.785  35.829   0.113
25129W        W91912   0.320  42.271  13.907
25130W        W91913   9.866  16.704  14.001
25131W        W91914   8.392  30.861  13.591
25132W        W91915  38.819  13.595   3.104
25133W        W91916  41.896  11.361   2.705
25134W        W91917  32.769  36.779  12.519
25135W        W91918  43.778  24.476  13.378
25136W        W91919  43.068   2.255  13.811
25137W        W91920   5.318  22.252   0.834
25138W        W91921  11.290  37.592  12.592
25139W        W91922  19.486  35.744   4.636
25140W        W91923  40.899  38.789   1.129
25141W        W91924  10.621  12.095   4.871
25142W        W91925  28.996  41.602  14.511
25143W        W91926  12.810   9.853   2.271
25144W        W91927  25.534   4.575   4.397
25145W        W91928  10.013  22.780  11.593
25146W        W91929  33.953   9.387   1.154
25147W        W91930   6.876  41.619  13.008
25148W        W91931  37.558  12.789  11.617
25149W        W91932  17.496   0.398   2.686
25150W        W91933  12.614  14.652  10.582
25151W        W91934  28.625  34.577  11.969
25152W        W91935  25.544   1.547  10.699
25153W        W91936  40.226  20.232  12.170
25154W        W91937  42.712   6.504   4.516
25155W        W91938  15.397  29.024  12.486
25156W        W91939  36.311  19.804  13.379
25157W        W91940  21.077  25.645  11.645
25158W        W91941  28.102  42.469  12.999
25159W        W91942  11.621   1.987   3.017
25160W        W91943  36.397  40.716  12.593
25161W        W91944  13.297  34.229  12.026
25162W        W91945   4.465   4.044  13.669
25163W        W91946  39.074  27.594  10.293
25164W        W91947  21.686  44.808  14.236
25165W        W91948  27.544  38.074   2.615
25166W        W91949   8.253  15.361   3.897
25167W        W91950  25.989   5.955  11.772
25168W        W91951  38.632  14.188  13.874
25169W        W91952  11.609  38.541  13.329
25170W        W91953   7.280  12.867   2.209
25171W        W91954   7.323   8.400  11.993
25172W        W91955  22.299   2.448  13.474
25173W        W91956  42.026   1.962   3.637
25174W        W91957  22.599   9.881   1.869
25175W        W91958  26.931  16.739   3.716
25176W        W91959  20.022  21.551   3.727
25177W        W91960  28.192   2.819   0.323
25178W        W91961   0.924  34.954  13.818
25179W        W91962  25.503  26.274   0.020
25180W        W91963  22.118  26.432   4.095
25181W        W91964  27.006   1.900  13.654
25182W        W91965   0.644  10.802  11.195
25183W        W91966  16.136  32.377  14.950
25184W        W91967   4.152  29.003   0.003
25185W        W91968  16.726   0.785   3.029
25186W        W91969  18.359  16.547   2.578
25187W        W91970   5.942  12.853  14.360
25188W        W91971  36.737  13.152  13.380
25189W        W91972   5.310   4.670   0.853
25190W        W91973   2.199   4.197  13.052
25191W        W91974  24.592  17.885   4.815
25192W        W91975  11.471   1.606   3.774
25193W        W91976  13.162  31.862   2.288
25194W        W91977   3.734  33.475   4.714
25195W        W91978  13.716   2.800   3.422
25196W        W91979  32.320  36.005  10.371
25197W        W91980  26.161   2.260  11.363
25198W        W91981   6.303  25.997   2.334
25199W        W91982  19.653  15.115   1.580
25200W        W91983  13.273  32.740  12.985
25201W        W91984   4.510  16.719  11.418
25202W        W91985  33.928  24.122   1.821
25203W        W91986   2.004  34.605  12.436
25204W        W91987  23.258  28.513   3.691
25205W        W91988  27.544  29.122  12.394
25206W        W91989   8.381   9.858  12.855
25207W        W91990  38.819  28.487  14.817
25208W        W91991  44.026  12.973   4.455
25209W        W91992  32.684  35.587  13.809
25210W        W91993  11.269  37.592  11.603
25211W        W91994  36.378  40.003  12.999
25212W        W91995  14.427  20.603  13.309
25213W        W91996  37.812   8.685  13.963
25214W        W91997   3.995  20.730  11.354
25215W        W91998   0.779  12.816   0.416
25216W        W91999  38.538  43.088  12.012
25217W        W92000  20.326  37.944  13.355
25218W        W92001  24.247   9.748   2.803
25219W        W92002  31.173  18.692   1.442
25220W        W92003   8.782   1.420  11.613
25221W        W92004  39.982  25.176  11.588
25222W        W92005  35.949  27.462   4.500
25223W        W92006  19.262   1.221  11.168
25224W        W92007   0.626  10.694   0.773
25225W        W92008  23.761  14.684   2.410
25226W        W92009   7.210  24.511  12.877
25227W        W92010   8.690  34.709   3.377
25228W        W92011   8.370  34.397   4.552
25229W        W92012  30.809   9.582  12.185
25230W        W92013  13.291  21.619  11.779
25231W        W92014  14.094  13.109   4.112
25232W        W92015  29.944  26.987  13.058
25233W        W92016   5.738  30.791   1.584
25234W        W92017  34.076  15.548   0.947
25235W        W92018   0.534  16.633  13.105
25236W        W92019  18.358  15.578  13.741
25237W        W92020  34.336   5.693   5.703
25238W        W92021  21.118  24.083  12.982
25239W        W92022  16.414  33.080  11.242
25240W        W92023  40.247  37.977   0.717
25241W        W92024  32.595  38.735   1.380
25242W        W92025  13.866  11.641   0.354
25243W        W92026  21.757  17.549   2.421
25244W        W92027  24.214  42.577  14.369
25245W        W92028  43.520  38.396   0.231
25246W        W92029  24.266  17.131   0.876
25247W        W92030  37.302  33.863   2.106
25248W        W92031   2.245  35.933  11.190
25249W        W92032  25.929  23.645   4.564
25250W        W92033  42.289  10.770  13.280
25251W        W92034  34.412  10.836   5.080
25252W        W92035  30.025   4.710  14.799
25253W        W92036   6.313  28.031   2.737
25254W        W92037  28.175   8.188   0.994
25255W        W92038  41.473  14.279   0.274
25256W        W92039   3.383   6.133  10.705
25257W        W92040   9.383  31.114  11.199
25258W        W92041  35.363  37.062  13.358
25259W        W92042   9.325  34.537   3.535
25260W        W92043  16.850  42.304  13.571
25261W        W92044  22.273   8.000  10.602
25262W        W92045  20.047  30.846  14.403
25263W        W92046  22.695  43.281   3.820
25264W        W92047   4.387  19.267   2.028
25265W        W92048  30.407  27.415  11.524
25266W        W92049  14.874  20.342  13.464
25267W        W92050  18.888  28.928   3.603
25268W        W92051  18.494  33.335   2.150
25269W        W92052  18.615  32.657  13.838
25270W        W92053   6.948  38.346   0.828
25271W        W92054   0.700   3.235  11.522
25272W        W92055  18.278  43.381  11.514
25273W        W92056  19.641  10.340   3.590
25274W        W92057  24.297   8.325  12.958
25275W        W92058  28.364   7.922  13.835
25276W        W92059  12.710  27.728  13.849
25277W        W92060  34.866  41.538   1.778
25278W        W92061  27.242  40.027   1.681
25279W        W92062  34.156  30.416  14.760
25280W        W92063  22.747  30.823   3.595
25281W        W92064  18.616  21.017   0.782
25282W        W92065  10.730  27.605   1.151
25283W        W92066  23.880   3.577  10.775
25284W        W92067  14.720   2.765   0.391
25285W        W92068  41.103   0.544   3.772
25286W        W92069  15.076  21.237  12.417
25287W        W92070  21.609  42.566   2.586
25288W        W92071  36.844  18.167  14.287
25289W        W92072  11.881  35.085  12.936
25290W        W92073  32.096   6.342  14.224
25291W        W92074   4.828  11.857  12.168
25292W        W92075  31.549  20.834   2.965
25293W        W92076  10.279   5.472   2.236
25294W        W92077  25.544  19.131   3.226
25295W        W92078  23.283   6.396   3.166
25296W        W92079  41.535  30.293   0.378
25297W        W92080  13.987  32.505   2.589
25298W        W92081   9.371  40.063   1.802
25299W        W92082  26.151   9.602  11.516
25300W        W92083  38.497  38.453  14.753
25301W        W92084  15.846  29.089   2.142
25302W        W92085   1.160  42.447  11.130
25303W        W92086  21.456  36.267  12.618
25304W        W92087   1.462  43.511   0.795
25305W        W92088  33.731  11.217   3.800
25306W        W92089  23.673  42.769  12.823
25307W        W92090  17.284   0.234   4.189
25308W        W92091   1.285  40.373  12.487
25309W        W92092  14.658  13.081  14.504
25310W        W92093   4.418  38.052  10.694
25311W        W92094  43.930  32.871   2.642
25312W        W92095  38.982  22.551  10.031
25313W        W92096  34.113  30.485   0.774
25314W        W92097  28.051  32.545   0.812
25315W        W92098  16.790   7.972  12.072
25316W        W92099   1.479  21.019   1.375
25317W        W92100  33.962  33.652   2.731
25318W        W92101  39.066  38.407   1.164
25319W        W92102  29.743  28.014  14.891
25320W        W92103  12.250   1.866  11.167
25321W        W92104   6.792  21.748  12.369
25322W        W92105   8.437  43.771   4.360
25323W        W92106   7.394  10.148  11.418
25324W        W92107  27.442  44.064  10.624
25325W        W92108  36.541  41.572   1.937
25326W        W92109   4.052  34.399   0.744
25327W        W92110   2.827   4.539   2.303
25328W        W92111   1.804   9.408  10.858
25329W        W92112  31.504  42.233  12.547
25330W        W92113  18.608  19.994   3.244
25331W        W92114   5.584  39.062  14.521
25332W        W92115  31.600   0.475   3.787
25333W        W92116   3.437  40.443   3.395
25334W        W92117  41.463  11.846  12.780
25335W        W92118  20.164   8.329   1.311
25336W        W92119  25.631  27.687  10.175
25337W        W92120   4.139   8.653   2.433
25338W        W92121  37.966  19.229   3.239
25339W        W92122  11.604   0.894   3.684
25340W        W92123  20.105  39.787   1.826
25341W        W92124  11.638  12.196   0.321
25342W        W92125   1.540  19.596   2.368
25343W        W92126  41.061  43.681  11.978
25344W        W92127  20.723  41.873   2.815
25345W        W92128  27.903  14.173  10.737
25346W        W92129  12.237  16.644  12.952
25347W        W92130  44.794  17.236  10.746
25348W        W92131  33.553  39.600   4.626
25349W        W92132   7.956  19.671   1.715
25350W        W92133   0.040  21.195  13.174
25351W        W92134  16.097  13.522   0.486
25352W        W92135  24.222  13.735  13.795
25353W        W92136  26.252   2.910  12.524
25354W        W92137  13.857  17.494   5.058
25355W        W92138  33.601  14.680  13.394
25356W        W92139  31.249   6.691   9.754
25357W        W92140  33.573  42.933  11.409
25358W        W92141  44.254  42.410   0.958
25359W        W92142  28.335   3.341   1.947
25360W        W92143   6.661  13.333   3.383
25361W        W92144  22.760  14.101  13.875
25362W        W92145  34.585  31.024  11.947
25363W        W92146  14.765  17.753   0.375
25364W        W92147  25.933  12.129  13.386
25365W        W92148  21.915  43.712  11.422
25366W        W92149  23.094  17.241  10.773
25367W        W92150  22.680  34.278   1.921
25368W        W92151  20.512  34.648   3.262
25369W        W92152  10.623   8.776  12.860
25370W        W92153  40.505  23.069   4.942
25371W        W92154  16.165   5.220  14.677
25372W        W92155  44.565  37.619   1.618
25373W        W92156   3.831   3.329   0.239
25374W        W92157  30.916  35.908   5.062
25375W        W92158  11.718  33.849   5.341
25376W        W92159  37.351  34.924   4.615
25377W        W92160  14.743  14.254  13.515
25378W        W92161  17.695  11.970   2.755
25379W        W92162  18.684  26.483  11.152
25380W        W92163  44.818  26.138   3.024
25381W        W92164   3.701  13.370   3.011
25382W        W92165  23.458  15.385  11.151
25383W        W92166  36.210  26.979   4.585
25384W        W92167   8.312  43.010  11.519
25385W        W92168  18.657  33.408   3.624
25386W        W92169  15.418  39.069   1.554
25387W        W92170  14.059   3.715   3.416
25388W        W92171  20.565   8.395  14.026
25389W        W92172  39.267  17.730  14.296
25390W        W92173  11.694  22.770   4.411
25391W        W92174  33.060  29.772  14.863
25392W        W92175   0.461   2.979  14.497
25393W        W92176  19.164  34.077  12.868
25394W        W92177  32.837  36.108  12.480
25395W        W92178   4.762  24.243   3.203
25396W        W92179  42.578  36.570  12.477
25397W        W92180  24.025  37.545   3.206
25398W        W92181   6.871  19.000   1.759
25399W        W92182   8.871  13.713  11.091
25400W        W92183  40.508  43.062  12.189
25401W        W92184  33.067  42.245   1.367
25402W        W92185  35.500  22.251   2.708
25403W        W92186   3.174  19.064  11.282
25404W        W92187  42.912  41.332   2.258
25405W        W92188  39.277  12.382   2.990
25406W        W92189  38.747  14.220   0.216
25407W        W92190   5.912   0.454   2.782
25408W        W92191  39.923   0.429   0.886
25409W        W92192  25.599   0.269  11.559
25410W        W92193   3.466  15.668   1.476
25411W        W92194  27.471  16.973  14.369
25412W        W92195  19.026  36.949   1.833
25413W        W92196  36.609  12.118   1.013
25414W        W92197  43.053   1.981   3.387
25415W        W92198  30.686  33.612   1.387
25416W        W92199  17.166  26.445  14.619
25417W        W92200  44.206   7.739  13.070
25418W        W92201  27.717  28.067  14.889
25419W        W92202   9.304  19.183   2.149
25420W        W92203  26.107   4.323   3.331
25421W        W92204  28.459  18.110   2.313
25422W        W92205  24.690  40.849   3.071
25423W        W92206  22.813  25.283   1.736
25424W        W92207  17.527  44.716  12.027
25425W        W92208   1.926   7.458   4.147
25426W        W92209  28.486  31.638  13.891
25427W        W92210  43.041  34.445   3.910
25428W        W92211  36.479   7.204   0.889
25429W        W92212  20.600  13.743   4.150
25430W        W92213  24.284  42.275  14.795
25431W        W92214  26.000   4.675  11.742
25432W        W92215  35.035  39.105   3.113
25433W        W92216  14.298  14.594  11.595
25434W        W92217  30.966   8.827   1.905
25435W        W92218  35.601  25.270   2.200
25436W        W92219  22.275  14.664  12.356
25437W        W92220  16.687  22.506  12.808
25438W        W92221  42.578  28.544   2.300
25439W        W92222   0.193   3.037   3.685
25440W        W92223  44.738  12.745  14.332
25441W        W92224  26.542  38.870  10.270
25442W        W92225  38.047  28.209  13.334
25443W        W92226  16.819   8.618  14.101
25444W        W92227  26.179   6.845  12.115
25445W        W92228  41.245  22.069  13.998
25446W        W92229  10.669  11.165  13.661
25447W        W92230  16.855   9.782   4.589
25448W        W92231  38.969  12.650   4.477
25449W        W92232  20.541  24.724  13.307
25450W        W92233  12.196  12.715  12.198
25451W        W92234   5.538  30.071  11.560
25452W        W92235  43.674  18.591  12.010
25453W        W92236  44.810  29.125   0.737
25454W        W92237  38.527  32.543   2.587
25455W        W92238  13.135  35.135  12.076
25456W        W92239   1.728  44.931  13.895
25457W        W92240  40.822  24.446   1.059
25458W        W92241   9.360  36.183  13.053
25459W        W92242  16.991  30.475   2.816
25460W        W92243  40.871  24.093   1.458
25461W        W92244   7.556  33.470   0.018
25462W        W92245  38.061  34.991  11.212
25463W        W92246  10.230  44.291   0.174
25464W        W92247  26.836  25.366   3.912
25465W        W92248  17.760  18.799  13.868
25466W        W92249   1.316  21.286   4.167
25467W        W92250   7.030   8.329  13.371
25468W        W92251  36.026  12.304   2.793
25469W        W92252  36.650  12.863   2.570
25470W        W92253   1.809  15.541   4.107
25471W        W92254   8.465   2.776   3.106
25472W        W92255   9.574  39.934   0.811
25473W        W92256  32.149  12.709  10.711
25474W        W92257   3.475   9.204   0.721
25475W        W92258  40.068  43.826  12.931
25476W        W92259  21.923  16.963   1.916
25477W        W92260  16.494  19.179   4.359
25478W        W92261   0.934   8.672   1.381
25479W        W92262  21.524  24.240   2.844
25480W        W92263  27.207  14.390   3.239
25481W        W92264   8.754  20.970   5.380
25482W        W92265   8.466  27.595   1.748
25483W        W92266  16.805  36.285  14.751
25484W        W92267  42.696  10.521   0.182
25485W        W92268  41.753  25.948  11.574
25486W        W92269  14.095   8.759   0.903
25487W        W92270  16.894  30.700  11.849
25488W        W92271   9.670   5.658   4.007
25489W        W92272   2.400  10.659  12.077
25490W        W92273  37.441  37.331   2.705
25491W        W92274  15.614   9.101  11.051
25492W        W92275  21.292  23.129   1.824
25493W        W92276  17.573  26.117   3.628
25494W        W92277  12.198  39.599  11.661
25495W        W92278   1.791  44.117  13.581
25496W        W92279   3.757  19.072   3.274
25497W        W92280  31.708  30.043  12.877
25498W        W92281   1.484  18.117  12.099
25499W        W92282  30.056  14.603   3.210
25500W        W92283  13.082  31.028   3.875
25501W        W92284   3.949  36.353  12.989
25502W        W92285   7.714  36.898  10.409
25503W        W92286  37.969  18.007   3.912
25504W        W92287  37.479  34.006  14.763
25505W        W92288  18.128  12.206  12.938
25506W        W92289  36.379   0.762   2.438
25507W        W92290  34.938  30.610  11.397
25508W        W92291   7.795  37.864  13.036
25509W        W92292   8.940  28.581   3.299
25510W        W92293   7.353  24.887   0.943
25511W        W92294  21.656  16.096   3.188
25512W        W92295  42.289  11.944   4.578
25513W        W92296   7.562  15.178   4.635
25514W        W92297  27.777  12.670   2.756
25515W        W92298  20.765  11.782   0.852
25516W        W92299  20.646  43.862   3.340
25517W        W92300  32.063  11.365   1.296
25518W        W92301   8.736  23.639  14.451
25519W        W92302  24.661  38.371  12.016
25520W        W92303  41.888  17.720  12.360
25521W        W92304  15.742  44.467   5.001
25522W        W92305  31.507  27.907   2.367
25523W        W92306  14.107  36.928   2.135
25524W        W92307   4.984  38.976   1.995
25525W        W92308  10.157  44.431  12.869
25526W        W92309   9.753  35.854  11.843
25527W        W92310   0.350  29.528   4.245
25528W        W92311  13.323   4.088   3.678
25529W        W92312   7.907  16.940   3.565
25530W        W92313  31.220  34.955  11.505
25531W        W92314   8.741  29.170  11.046
25532W        W92315  24.271   8.443   3.166
25533W        W92316  14.748   2.486  12.890
25534W        W92317  25.458  30.513  10.143
25535W        W92318  16.870  24.546  13.446
25536W        W92319  36.141  39.832  12.475
25537W        W92320   1.957  35.592   2.633
25538W        W92321   1.642   6.152  11.102
25539W        W92322  27.165  42.483   1.425
25540W        W92323   9.640  11.568   3.238
25541W        W92324   3.366  34.718  10.447
25542W        W92325  11.638  41.431   2.405
25543W        W92326   6.754  14.368  12.150
25544W        W92327   0.851  22.997   2.901
25545W        W92328   9.754   2.739  10.687
25546W        W92329  44.467  44.788  13.543
25547W        W92330   2.301  27.613  11.980
25548W        W92331  23.054  32.993  11.936
25549W        W92332  31.185   0.936   0.739
25550W        W92333  39.059  10.509  10.895
25551W        W92334  12.957   1.201   3.806
25552W        W92335  25.788  27.054   4.463
25553W        W92336  36.567  21.678  12.431
25554W        W92337  42.201   6.690   0.703
25555W        W92338   9.696  25.453  11.253
25556W        W92339  43.810   7.756  14.407
25557W        W92340  33.079   8.094  13.599
25558W        W92341  33.550   7.869   1.940
25559W        W92342  43.677   0.298  14.777
25560W        W92343   9.332  10.318  11.956
25561W        W92344  21.187  16.743  13.978
25562W        W92345  28.140   1.166   0.334
25563W        W92346  10.256  20.086  13.622
25564W        W92347  31.073  21.454   3.224
25565W        W92348   4.167   7.466   2.179
25566W        W92349  19.139  16.283   0.041
25567W        W92350  44.800  35.328  12.944
25568W        W92351  20.981   7.391   1.734
25569W        W92352   9.836  40.563  13.578
25570W        W92353  43.080  36.473   2.766
25571W        W92354  43.880  42.438  11.551
25572W        W92355  29.871  35.626   2.219
25573W        W92356  38.888  38.286  13.494
25574W        W92357  31.635  11.386  10.405
25575W        W92358   4.884   8.550   2.056
25576W        W92359  28.658  35.446  11.731
25577W        W92360  39.812  14.630  14.306
25578W        W92361  26.863  33.925   2.691
25579W        W92362  11.420   5.453   2.177
25580W        W92363  12.337  42.074   2.196
25581W        W92364  34.554  10.814   0.419
25582W        W92365   5.586  39.222   3.350
25583W        W92366  38.340   3.793  14.629
25584W        W92367  34.881  13.877  11.169
25585W        W92368  42.915  32.319   1.974
25586W        W92369   8.394  16.802   3.570
25587W        W92370  10.870  39.964  11.329
25588W        W92371  42.404  12.176  12.463
25589W        W92372  39.116  34.393   3.707
25590W        W92373  32.035   7.440   1.000
25591W        W92374  11.684  35.831  12.428
25592W        W92375  12.142  22.324   3.651
25593W        W92376  41.310  22.642   0.721
25594W        W92377  20.729  43.575   3.764
25595W        W92378  21.266   3.878   1.849
25596W        W92379  17.260   2.725  11.915
25597W        W92380  43.927  28.705   0.378
25598W        W92381  24.330  14.042  12.015
25599W        W92382   6.261  23.501  11.641
25600W        W92383  17.539  41.052   1.332
25601W        W92384  14.396  14.782   4.712
25602W        W92385  44.017   2.799   2.236
25603W        W92386  25.086  40.521  14.362
25604W        W92387  25.058   4.451  10.689
25605W        W92388  35.599  11.925   1.345
25606W        W92389  31.380  38.719  11.912
25607W        W92390   5.742  19.029  13.216
25608W        W92391  19.135  39.119  12.014
25609W        W92392  33.958   6.112  14.496
25610W        W92393   1.950  31.755  11.167
25611W        W92394   3.875  16.217   0.532
25612W        W92395   1.713  17.757  12.466
25613W        W92396  27.894  40.899   0.181
25614W        W92397  27.921  22.200  13.371
25615W        W92398   4.799   5.402   1.847
25616W        W92399   7.709  16.026   3.575
25617W        W92400   6.431   0.808   4.159
25618W        W92401  27.382  24.094  13.617
25619W        W92402   9.204  36.815  13.712
25620W        W92403  19.046   4.511   3.838
25621W        W92404   5.090   7.883   0.796
25622W        W92405  11.653  19.255   0.631
25623W        W92406  22.701  38.096   2.330
25624W        W92407   0.392   4.135  13.511
25625W        W92408  39.553  32.390  10.784
25626W        W92409  36.044   7.093   1.779
25627W        W92410  33.191  40.416   4.688
25628W        W92411  23.147  14.644  14.801
25629W        W92412  14.973  30.485   2.747
25630W        W92413  10.276  41.380   1.802
25631W        W92414   0.516  13.815   2.762
25632W        W92415  30.197  13.361   2.817
25633W        W92416  33.248  40.494   0.872
25634W        W92417  22.003  39.033   1.856
25635W        W92418  37.623  25.460   2.437
25636W        W92419  38.099  28.266   3.167
25637W        W92420  25.633  38.878   4.916
25638W        W92421  31.455   6.900   2.189
25639W        W92422  42.403   6.656   4.932
25640W        W92423  10.132  29.976   2.280
25641W        W92424  42.326  15.285   4.727
25642W        W92425  29.005   0.836  11.707
25643W        W92426  38.814  39.971   4.195
25644W        W92427   4.975   1.136  12.577
25645W        W92428  15.440  23.211  12.434
25646W        W92429  39.198  37.133  10.562
25647W        W92430  35.119  40.240  12.176
25648W        W92431  14.242   9.199   2.735
25649W        W92432  35.162  16.894  11.651
25650W        W92433  33.319  17.320  11.091
25651W        W92434  30.912  39.262   0.912
25652W        W92435  28.896  31.962   1.920
25653W        W92436  15.550  14.098   1.982
25654W        W92437  41.320  32.588  13.505
25655W        W92438  14.614  31.086   4.501
25656W        W92439   2.890  16.543   4.166
25657W        W92440  21.237   8.083  12.067
25658W        W92441  19.174   8.516   2.911
25659W        W92442  21.615  21.169  11.472
25660W        W92443   9.127  16.720   2.189
25661W        W92444  31.102  23.675  12.338
25662W        W92445   2.434  12.373   4.845
25663W        W92446  22.100  42.343   3.233
25664W        W92447   7.407  33.818  12.285
25665W        W92448  44.956  12.078   3.074
25666W        W92449   0.855   6.988   1.725
25667W        W92450  29.900  25.687   1.434
25668W        W92451  37.052  34.620  13.598
25669W        W92452  29.217   8.431   4.223
25670W        W92453  15.159   6.679   0.361
25671W        W92454  16.056   1.997   3.471
25672W        W92455  32.646  32.035   3.213
25673W        W92456  28.991  41.441   2.963
25674W        W92457   6.625  25.316  11.968
25675W        W92458  22.636   0.239   5.076
25676W        W92459  16.129  41.079   3.263
25677W        W92460  21.030   4.444  13.398
25678W        W92461  35.653   8.428   1.761
25679W        W92462  22.550  23.203   0.518
25680W        W92463  29.358   5.896  12.137
25681W        W92464   4.625   6.211  13.970
25682W        W92465  13.684  39.967  11.933
25683W        W92466  12.180  43.518   2.757
25684W        W92467  19.196  33.910   3.809
25685W        W92468  17.311  28.172   0.465
25686W        W92469  24.119   2.290   2.680
25687W        W92470  43.459  41.294  13.823
25688W        W92471  27.913   2.420  14.327
25689W        W92472   0.511  35.160  14.971
25690W        W92473  39.939   2.383  14.336
25691W        W92474  41.343  20.054  12.195
25692W        W92475  23.632  40.288  10.563
25693W        W92476  40.032  33.443  13.795
25694W        W92477  42.798  18.433  10.634
25695W        W92478  34.629  32.510  10.711
25696W        W92479  39.013  43.837  14.801
25697W        W92480   1.050   0.186   3.469
25698W        W92481  15.195  10.829  13.415
25699W        W92482   0.844  29.219   0.930
25700W        W92483  13.862  13.717   0.838
25701W        W92484   1.777  35.871   1.292
25702W        W92485  33.095  18.779   0.368
25703W        W92486   1.586  31.847   4.167
25704W        W92487  20.012  29.078   0.218
25705W        W92488  26.689  11.152  14.757
25706W        W92489  27.072  13.828  10.617
25707W        W92490  39.929  12.840   4.895
25708W        W92491  15.642   3.746   0.745
25709W        W92492  33.116  12.117   1.749
25710W        W92493  10.816  31.947   1.452
25711W        W92494  19.077  25.834   4.009
25712W        W92495  34.973  22.995   0.836
25713W        W92496  27.492  32.164  11.417
25714W        W92497  29.964  17.043   1.440
25715W        W92498   4.553   4.835   3.722
25716W        W92499  40.199   2.432   3.722
25717W        W92500  15.578  38.871   4.468
25718W        W92501  23.098  39.166   3.657
25719W        W92502  44.852  21.749   4.387
25720W        W92503  27.504   4.208   3.234
25721W        W92504  12.736  19.692   4.091
25722W        W92505  17.862  39.465   0.333
25723W        W92506  32.689  44.048  11.619
25724W        W92507  18.000  12.423   2.729
25725W        W92508  26.992  43.817   3.730
25726W        W92509  24.087   8.668   0.925
25727W        W92510  42.429  22.350  14.067
25728W        W92511  30.927  32.474  14.750
25729W        W92512  44.413  32.090   0.282
25730W        W92513  37.858   0.531  14.841
25731W        W92514   3.456  13.264  11.429
25732W        W92515  25.552  23.802  11.546
25733W        W92516  13.405   6.988   1.934
25734W        W92517  21.992   9.439   2.278
25735W        W92518  33.066   0.546  14.016
25736W        W92519  12.616  17.776  10.718
25737W        W92520  25.702  13.925  10.630
25738W        W92521  43.048  23.504   0.364
25739W        W92522  20.841   3.769  13.592
25740W        W92523  18.308  38.476  12.573
25741W        W92524  23.469   3.433  14.428
25742W        W92525   3.219  20.488   1.391
25743W        W92526   8.395   6.385   2.291
25744W        W92527  43.022  12.566   3.564
25745W        W92528  31.972  11.381  12.495
25746W        W92529  36.518  16.057   1.784
25747W        W92530  32.435  42.125  11.379
25748W        W92531   5.354  11.715   1.690
25749W        W92532   0.723  19.312   3.253
25750W        W92533  19.632   6.477   3.835
25751W        W92534  16.697  39.801   0.914
25752W        W92535  41.834  37.892  14.830
25753W        W92536  18.053  14.192   0.880
25754W        W92537  22.158  33.486  12.815
25755W        W92538  28.505  36.337  10.609
25756W        W92539  37.880  19.098  13.397
25757W        W92540  10.798   6.233  10.633
25758W        W92541  38.538   5.716  13.927
25759W        W92542  40.285  24.727  12.571
25760W        W92543  40.051  42.365  13.463
25761W        W92544  41.306  42.899  10.678
25762W        W92545  26.528   2.233   5.014
25763W        W92546  42.280  30.662  11.565
25764W        W92547  29.036  21.465  12.538
25765W        W92548  22.531   7.141  10.675
25766W        W92549  30.047  22.994  14.464
25767W        W92550  13.654  11.628   2.339
25768W        W92551  30.599  23.667  11.469
25769W        W92552  23.792   2.481   0.934
25770W        W92553  28.087  41.959  13.102
25771W        W92554   8.734  12.072   3.232
25772W        W92555  40.047  18.753  11.136
25773W        W92556  26.109  44.203   4.647
25774W        W92557  28.202  12.883   0.395
25775W        W92558   7.981  10.487   4.268
25776W        W92559  26.452   6.924  13.875
25777W        W92560   9.837   2.989  11.549
25778W        W92561  18.118   8.739  10.988
25779W        W92562  12.320  31.655   4.163
25780W        W92563  44.056  10.378   3.285
25781W        W92564  18.223  18.791  12.861
25782W        W92565  32.372   3.847   4.567
25783W        W92566  42.318   0.700  11.213
25784W        W92567  42.427   6.121  13.944
25785W        W92568  34.549  15.634  10.573
25786W        W92569  42.198  22.642  12.363
25787W        W92570  37.062  42.946   0.989
25788W        W92571  39.594   7.846   0.369
25789W        W92572  12.627  41.986   4.187
25790W        W92573  34.310   3.880   0.426
25791W        W92574  31.726  13.039  12.005
25792W        W92575  42.752   3.266  14.002
25793W        W92576  21.241  36.767  14.292
25794W        W92577  26.230  24.273  10.638
25795W        W92578  24.274  29.583   3.239
25796W        W92579  31.140  14.097   3.679
25797W        W92580  11.293  15.862  10.572
25798W        W92581  10.130   1.197  14.058
25799W        W92582  43.231  31.725  10.395
25800W        W92583  23.188  39.457   2.333
25801W        W92584  23.782  16.159  12.793
25802W        W92585  37.882  17.535   3.682
25803W        W92586  19.844  17.776  10.935
25804W        W92587  42.212  34.569   4.273
25805W        W92588  29.634  36.513  13.422
25806W        W92589  36.584  33.350  13.432
25807W        W92590   6.832  42.366  13.433
25808W        W92591   4.906  38.763  13.795
25809W        W92592  33.565  26.258  13.461
25810W        W92593  17.992  28.174  10.808
25811W        W92594  15.184  16.462   0.492
25812W        W92595  14.863  19.570  12.409
25813W        W92596  27.816  15.112   1.402
25814W        W92597  17.445  32.178   4.166
25815W        W92598  23.605  11.306  14.995
25816W        W92599  39.439  21.175   4.624
25817W        W92600  11.885   9.137   1.988
25818W        W92601  35.216  26.436  13.988
25819W        W92602  44.338  39.433  10.265
25820W        W92603  17.058  20.707  14.058
25821W        W92604  40.746  41.293  12.120
25822W        W92605  32.090  36.068   0.279
25823W        W92606  28.719   4.868  12.877
25824W        W92607  43.830  25.440   1.644
25825W        W92608  16.605  19.395   1.732
25826W        W92609  28.110  23.292  10.708
25827W        W92610  22.709  42.519  11.200
25828W        W92611  24.671  11.191  11.035
25829W        W92612  42.581  38.117  11.853
25830W        W92613  29.026  22.153   4.627
25831W        W92614   9.566  37.932  13.177
25832W        W92615   3.907  12.407  13.770
25833W        W92616  40.979  41.202   1.848
25834W        W92617  37.026  10.198  11.687
25835W        W92618   0.816  34.025  13.860
25836W        W92619  14.150  32.361  10.620
25837W        W92620  29.390  42.647  11.442
25838W        W92621  30.638  14.639   0.271
25839W        W92622  44.884  18.688   4.608
25840W        W92623  23.263  17.819  14.737
25841W        W92624  11.017  44.414   3.640
25842W        W92625   5.407  18.556  14.285
25843W        W92626  41.032  39.887   1.681
25844W        W92627  41.929  42.748   2.041
25845W        W92628  11.315  11.646   1.600
25846W        W92629  39.979  17.242  10.831
25847W        W92630  23.738  38.052  14.954
25848W        W92631  28.693   8.902   2.188
25849W        W92632  21.814  27.697   2.857
25850W        W92633  35.169  37.342  11.983
25851W        W92634  23.347  37.926  14.652
25852W        W92635   8.898  38.159  12.392
25853W        W92636   7.120   0.320   0.812
25854W        W92637  16.007  35.367  12.430
25855W        W92638   8.307   2.292   5.032
25856W        W92639  16.584  35.084   1.223
25857W        W92640   7.420  13.748  13.827
25858W        W92641   6.325   2.876  13.349
25859W        W92642  36.393  44.724  13.032
25860W        W92643  25.444  24.635  12.073
25861W        W92644  35.857  18.759   4.688
25862W        W92645   6.766  19.481   4.194
25863W        W92646  31.145  17.768  12.035
25864W        W92647   3.171   1.313  11.967
25865W        W92648  35.503  21.379  12.149
25866W        W92649  15.569  44.519  12.384
25867W        W92650  43.749  15.559   3.063
25868W        W92651  24.476  14.681   0.098
25869W        W92652   9.083  32.524  13.799
25870W        W92653  32.973   1.438   3.888
25871W        W92654   3.949  43.932   3.230
25872W        W92655  19.514  27.398  14.714
25873W        W92656  29.631  41.792   1.472
25874W        W92657  31.838  15.744  11.124
25875W        W92658  41.327  32.660   1.022
25876W        W92659  34.343   9.663  11.614
25877W        W92660  43.986  38.107  11.664
25878W        W92661  29.122  26.597   1.237
25879W        W92662  26.496  14.321   1.245
25880W        W92663  30.694  20.677  10.678
25881W        W92664  28.594  11.787  14.982
25882W        W92665  22.012  34.024   0.851
25883W        W92666  15.128  28.894  14.049
25884W        W92667  41.840  10.171   2.310
25885W        W92668  19.696   0.030   4.669
25886W        W92669  36.614  41.024   2.824
25887W        W92670  22.766  41.505   4.087
25888W        W92671  29.470  25.677   4.115
25889W        W92672   7.342  23.227  12.529
25890W        W92673   0.068  38.671  13.567
25891W        W92674  26.547   5.870  11.948
25892W        W92675  24.038   6.182   5.033
25893W        W92676   7.413   4.902  12.077
25894W        W92677  24.737  26.728  14.997
25895W        W92678  15.225  26.443   2.388
25896W        W92679   0.285  26.947  11.617
25897W        W92680  31.987   5.847   1.817
25898W        W92681  13.286  20.013   0.132
25899W        W92682  10.396  11.357  12.279
25900W        W92683   6.637   0.484   0.166
25901W        W92684  34.125  11.944   3.154
25902W        W92685  27.397  33.117   3.142
25903W        W92686  44.808  23.009  11.261
25904W        W92687   1.725  24.648  11.636
25905W        W92688  31.494   1.811  13.764
25906W        W92689  23.385   2.888   3.453
25907W        W92690  27.156  41.045  13.837
25908W        W92691   3.540  36.439   3.838
25909W        W92692  26.532  22.925   2.491
25910W        W92693  28.567   7.833   4.945
25911W        W92694  36.719  19.645   2.163
25912W        W92695  24.542  34.997  12.893
25913W        W92696  29.968  28.756   1.085
25914W        W92697  38.842  37.547   3.943
25915W        W92698  30.018  22.132  14.522
25916W        W92699  43.524  29.131   1.463
25917W        W92700  40.592  23.592  12.036
25918W        W92701   6.876  37.909  10.743
25919W        W92702  43.276  43.911   1.234
25920W        W92703  10.295  27.958   2.383
25921W        W92704   3.488  32.836  12.400
25922W        W92705  25.698  13.108  13.524
25923W        W92706   7.223  21.724   2.631
25924W        W92707  43.101  15.164  14.621
25925W        W92708  10.260  38.210  11.698
25926W        W92709  24.203  23.271  13.394
25927W        W92710  13.205  28.056   4.590
25928W        W92711   8.924  15.576  13.851
25929W        W92712   7.666  20.987  14.960
25930W        W92713  38.421  27.649   3.595
25931W        W92714  39.848   9.734   0.098
25932W        W92715  40.039  22.427   0.760
25933W        W92716  25.637  22.333   5.507
25934W        W92717  26.731   6.844   0.315
25935W        W92718  25.001  31.684  10.661
25936W        W92719   1.025  40.837  13.365
25937W        W92720  26.917   0.401   2.449
25938W        W92721  18.896  36.920  11.705
25939W        W92722  12.485   9.334   1.371
25940W        W92723  24.751  11.515  12.827
25941W        W92724  31.039  16.364   3.230
25942W        W92725  42.232  39.481  11.749
25943W        W92726  15.450  18.459   2.811
25944W        W92727  37.453  40.721  10.889
25945W        W92728  41.307  36.947  12.085
25946W        W92729  38.613   7.694   4.005
25947W        W92730  41.407  37.964  11.567
25948W        W92731  43.481  11.194  13.935
25949W        W92732  37.951  38.171   0.507
25950W        W92733   5.814  18.121   1.835
25951W        W92734  34.689  44.412  13.008
25952W        W92735  20.740   0.377   1.182
25953W        W92736  15.631  44.948   4.030
25954W        W92737  42.546   8.777  12.920
25955W        W92738  32.575  34.460  14.677
25956W        W92739   1.380  38.978   2.236
25957W        W92740  34.903   6.842  12.924
25958W        W92741   7.707   0.510  14.649
25959W        W92742  18.629  33.164   4.732
25960W        W92743  11.268  21.973  14.419
25961W        W92744  42.305  22.592   3.169
25962W        W92745   6.402   8.430  12.849
25963W        W92746  17.659  30.245   2.400
25964W        W92747  24.179  19.578  12.692
25965W        W92748  43.108  11.823  10.312
25966W        W92749   4.150  43.315  11.432
25967W        W92750  20.063  33.612  11.183
25968W        W92751  15.825  33.605   2.851
25969W        W92752  34.969  17.284  12.532
25970W        W92753  13.275  19.591   0.446
25971W        W92754  34.455  20.495   0.083
25972W        W92755  41.066  21.596   0.677
25973W        W92756  29.366   3.157   0.941
25974W        W92757  37.526  33.824  13.921
25975W        W92758  13.369  44.396  12.980
25976W        W92759  13.662  33.370  13.547
25977W        W92760   7.841   6.011  14.474
25978W        W92761   1.871  35.585  11.251
25979W        W92762  23.583  29.967   4.162
25980W        W92763   8.368   7.816  14.518
25981W        W92764  31.920   6.262  14.977
25982W        W92765  10.667  19.772   4.055
25983W        W92766  12.559  10.602  14.897
25984W        W92767  19.702   7.641   2.163
25985W        W92768  41.068  44.974  13.933
25986W        W92769  42.464  23.045   1.376
25987W        W92770  42.582   2.278  13.610
25988W        W92771  41.994  16.883   4.289
25989W        W92772  40.981  14.176   0.068
25990W        W92773  28.667  10.394  12.594
25991W        W92774   6.205  28.385   3.711
25992W        W92775  44.221  41.445   2.687
25993W        W92776  14.156  41.350   3.596
25994W        W92777   4.848   7.780   1.673
25995W        W92778  17.546  23.444   4.164
25996W        W92779  14.887  14.787   1.860
25997W        W92780   1.697  31.089   1.497
25998W        W92781   3.432   6.203  13.350
25999W        W92782  30.639  19.813  14.087
26000W        W92783   6.505  25.728   0.324
26001W        W92784  38.854  40.113  14.378
26002W        W92785  25.958  19.705   3.500
26003W        W92786  42.965  25.582  12.089
26004W        W92787  24.189  23.836   4.603
26005W        W92788  30.955  34.033   4.739
26006W        W92789  40.174   6.705   4.664
26007W        W92790  15.724   2.497   1.245
26008W        W92791  17.476  38.089  11.949
26009W        W92792  16.732  12.855  14.996
26010W        W92793  15.180   8.192   1.722
26011W        W92794   0.725  36.032  12.955
26012W        W92795  23.001  24.406   4.163
26013W        W92796   0.630  12.144   4.921
26014W        W92797  27.931   1.634   3.102
26015W        W92798  25.271   9.199   0.860
26016W        W92799  29.659  42.314   4.180
26017W        W92800  10.776  23.307  12.039
26018W        W92801  33.607   0.382  12.080
26019W        W92802  11.499  35.419   4.034
26020W        W92803  26.031  43.610  13.274
26021W        W92804  28.501  37.356  10.513
26022W        W92805  43.932  35.014  12.669
26023W        W92806   7.236   4.424  12.108
26024W        W92807   3.104  35.509   3.506
26025W        W92808   9.251   8.367  11.254
26026W        W92809  18.635  44.333   1.930
26027W        W92810  31.492   3.158   3.108
26028W        W92811  25.205  30.122   1.313
26029W        W92812  42.325   2.748   1.711
26030W        W92813  24.965   2.832   1.782
26031W        W92814  11.700  19.520   1.134
26032W        W92815  23.312  22.499   1.784
26033W        W92816  31.934  14.356  11.035
26034W        W92817   0.375  21.240  14.445
26035W        W92818  35.988  27.981  14.923
26036W        W92819   3.808  44.894   4.304
26037W        W92820  41.772  28.031   0.271
26038W        W92821   6.444  33.550  14.238
26039W        W92822  22.932  11.290   4.377
26040W        W92823  13.208  28.286   0.358
26041W        W92824  24.571  15.430   0.836
26042W        W92825  20.321  10.874   2.878
26043W        W92826  37.000   4.233   0.841
26044W        W92827  22.530  25.016   2.070
26045W        W92828  20.288  12.086   0.230
26046W        W92829  29.504  12.396   2.276
26047W        W92830   4.995  43.979   4.775
26048W        W92831   6.198  28.117  14.842
26049W        W92832  11.328   1.225  13.014
26050W        W92833  21.589   8.693   4.390
26051W        W92834   9.838  34.983  12.002
26052W        W92835   8.857  29.095   1.671
26053W        W92836  17.826  26.495  13.820
26054W        W92837  12.181  37.794   0.532
26055W        W92838  35.143   6.480   1.283
26056W        W92839  23.270  10.147  13.515
26057W        W92840  14.359   6.205  10.449
26058W        W92841  17.765  16.223   3.927
26059W        W92842  22.545  28.004   3.051
26060W        W92843  21.002  26.039  10.448
26061W        W92844  15.678  21.145  14.404
26062W        W92845   2.230  23.355   2.160
26063W        W92846  25.664  37.833   3.770
26064W        W92847  17.300   1.719   1.790
26065W        W92848  25.951  37.578   2.187
26066W        W92849  27.643  18.629   4.196
26067W        W92850  41.982  43.954   2.572
26068W        W92851  25.695  32.491  13.843
26069W        W92852  43.847  27.107   1.981
26070W        W92853  33.469  30.574   0.257
26071W        W92854   9.071  17.188   2.967
26072W        W92855  36.604  19.879  10.294
26073W        W92856  30.443  22.662   0.621
26074W        W92857  33.949  12.890   1.345
26075W        W92858   0.698  38.108  14.802
26076W        W92859  44.862  23.454   2.845
26077W        W92860   4.282  28.510  14.170
26078W        W92861  15.697   5.169   4.163
26079W        W92862  44.536  24.094  14.920
26080W        W92863  12.597   9.350   2.316
26081W        W92864  38.689  16.112   2.368
26082W        W92865  24.617  17.338   4.176
26083W        W92866  14.140  43.778   3.728
26084W        W92867   3.044  33.088  14.689
26085W        W92868   0.588   3.021   4.179
26086W        W92869  13.410   2.838   4.051
26087W        W92870   1.773   6.508   0.866
26088W        W92871  11.206   9.722   2.230
26089W        W92872   1.013   8.873   4.060
26090W        W92873  26.014   2.505  14.448
26091W        W92874  21.949  43.825  13.371
26092W        W92875  33.168   4.979   0.282
26093W        W92876  33.587  17.184   1.197
26094W        W92877  42.711  27.156   2.256
26095W        W92878  39.140  19.594   4.936
26096W        W92879   6.649  37.059   1.741
26097W        W92880   7.208  23.125   1.325
26098W        W92881   7.857  29.634   2.782
26099W        W92882  23.239  22.607  13.592
26100W        W92883  36.581   5.686   3.554
26101W        W92884  33.715  43.942  12.508
26102W        W92885  40.821  40.773  13.909
26103W        W92886  13.873  32.133  12.353
26104W        W92887  38.581  10.662  12.016
26105W        W92888   7.101  13.665  12.500
26106W        W92889  34.100  18.675  12.969
26107W        W92890   9.341  32.666   2.570
26108W        W92891  37.396   6.335   4.104
26109W        W92892  17.809  14.572  12.069
26110W        W92893  28.696  13.663   3.795
26111W        W92894  42.358  15.183  11.531
26112W        W92895  38.558  33.535   4.556
26113W        W92896  34.447   3.523  12.613
26114W        W92897  25.060  29.784  13.930
26115W        W92898  15.844  27.521  11.500
26116W        W92899  26.157  31.979  14.492
26117W        W92900  43.795  29.199  12.845
26118W        W92901  34.964  37.665   5.140
26119W        W92902  16.808  33.332   1.686
26120W        W92903  34.073  34.982  12.490
26121W        W92904  32.187  18.578   3.292
26122W        W92905   4.602  41.452   4.881
26123W        W92906  19.013  28.193   4.560
26124W        W92907  13.276   2.372   4.195
26125W        W92908  23.209  13.104  11.119
26126W        W92909  24.403  23.520  11.929
26127W        W92910   9.194  26.655  14.789
26128W        W92911  43.371  44.962   4.178
26129W        W92912  22.401  32.917  11.122
26130W        W92913  29.395  35.412   2.314
26131W        W92914   8.292  42.095   4.134
26132W        W92915   2.597  17.326   5.097
26133W        W92916  38.477   9.191  11.801
26134W        W92917  17.483  29.019  11.200
26135W        W92918  11.528   2.837  12.130
26136W        W92919  21.419  42.711  14.923
26137W        W92920  16.288  32.038   2.755
26138W        W92921  23.640  19.194  13.956
26139W        W92922  17.180  38.291   1.255
26140W        W92923   8.946  34.991   2.387
26141W        W92924  27.671  17.269   0.728
26142W        W92925   0.868  40.636   1.825
26143W        W92926  26.841  24.482  10.229
26144W        W92927  22.739  38.028  10.253
26145W        W92928   5.011  36.606   2.940
26146W        W92929  22.280  36.445  11.502
26147W        W92930  15.628  26.515  13.881
26148W        W92931  17.154  32.317  11.541
26149W        W92932  29.909  29.092  13.584
26150W        W92933  28.471  26.446   0.510
26151W        W92934  18.909  38.827   5.173
26152W        W92935  12.746  27.485   4.160
26153W        W92936  33.942   1.802   0.052
26154W        W92937  43.786   2.850  11.189
26155W        W92938  44.817   6.023  11.697
26156W        W92939   8.944  19.735  13.777
26157W        W92940  20.773  42.781  13.482
26158W        W92941  36.501  31.939   3.999
26159W        W92942  42.848  33.294   2.233
26160W        W92943  18.691  18.342   2.645
26161W        W92944  27.474  26.369  12.136
26162W        W92945   4.971  13.753  12.040
26163W        W92946  24.365  21.103   4.030
26164W        W92947  42.144  33.536   3.763
26165W        W92948  42.706  28.479   0.838
26166W        W92949  16.947  11.757   5.118
26167W        W92950  21.180   6.759  11.165
26168W        W92951  23.654   6.204   4.694
26169W        W92952  40.294   6.417   0.896
26170W        W92953   2.896   0.299  11.601
26171W        W92954  43.031  17.865  10.332
26172W        W92955  24.551  12.799   3.780
26173W        W92956  30.259   5.282  13.508
26174W        W92957   7.617  31.651   2.365
26175W        W92958  24.185  37.241  11.183
26176W        W92959  16.114  19.561   4.335
26177W        W92960  23.627   0.180   2.365
26178W        W92961  26.771  36.510   3.648
26179W        W92962  37.155  10.716   1.853
26180W        W92963  22.230  12.634   2.374
26181W        W92964  36.457  17.432   3.196
26182W        W92965  16.998  13.519   4.504
26183W        W92966  21.733  11.104   4.939
26184W        W92967   9.738   1.935   0.178
26185W        W92968  33.247  15.354   0.202
26186W        W92969  24.772  36.928  13.869
26187W        W92970  16.060  24.546   1.456
26188W        W92971  21.646  29.058  14.896
26189W        W92972  21.918   8.752   4.804
26190W        W92973   1.812  35.067   3.166
26191W        W92974  26.577   0.880   1.292
26192W        W92975  22.202   6.478   0.820
26193W        W92976   9.084  44.465   4.125
26194W        W92977  36.251  25.435  12.584
26195W        W92978  10.294  30.817  11.352
26196W        W92979   2.186  12.372  13.389
26197W        W92980   7.389  16.376   1.887
26198W        W92981  18.614  27.379  11.371
26199W        W92982  35.666  24.108  11.677
26200W        W92983  43.006  15.882  12.989
26201W        W92984   0.335  20.024  11.486
26202W        W92985   5.946   3.373   1.707
26203W        W92986   8.540  38.093   1.318
26204W        W92987  20.699  34.909   3.718
26205W        W92988  12.444   4.874   3.405
26206W        W92989   6.687  32.292  11.466
26207W        W92990  15.652  28.696  14.981
26208W        W92991  38.336  34.641   1.176
26209W        W92992  18.226  37.292  14.234
26210W        W92993  42.633  12.215   4.863
26211W        W92994  18.040  10.804  14.806
26212W        W92995  27.663   0.879   2.340
26213W        W92996  25.499  35.068   0.922
26214W        W92997   0.430   3.697  10.700
26215W        W92998  34.798  13.182  11.393
26216W        W92999  29.395   0.843  13.157
26217W        W93000  23.171  25.234  13.867
26218W        W93001   7.906   7.735  14.719
26219W        W93002  33.361  36.494  10.843
26220W        W93003  38.925  19.494   2.699
26221W        W93004  17.660   6.970  11.581
26222W        W93005   4.676  26.019   2.936
26223W        W93006   5.429   0.707  13.218
26224W        W93007  14.861  37.062   1.308
26225W        W93008   1.254  15.847  13.261
26226W        W93009  25.577  38.572  12.431
26227W        W93010  21.784  25.665  13.928
26228W        W93011   3.331   5.432   4.183
26229W        W93012  21.112  20.043  14.415
26230W        W93013   5.832  16.697   0.522
26231W        W93014   0.482  27.398   3.093
26232W        W93015   9.041  34.928   3.696
26233W        W93016  28.294  26.602  10.407
26234W        W93017  19.013   7.911  11.488
26235W        W93018  37.501   8.688  13.524
26236W        W93019  24.604  29.296  12.929
26237W        W93020  22.739  26.079  14.381
26238W        W93021  14.199  43.686  14.353
26239W        W93022  40.615   5.470  12.069
26240W        W93023  25.197  41.734   3.133
26241W        W93024  35.919  12.644   3.203
26242W        W93025  17.275  29.962  10.342
26243W        W93026  24.227   4.711   3.574
26244W        W93027  21.782  23.715   0.521
26245W        W93028   8.737  31.056   2.096
26246W        W93029  29.226  35.638  10.580
26247W        W93030  35.817  15.940  12.119
26248W        W93031  31.959  15.105  10.757
26249W        W93032  14.049  17.395  13.093
26250W        W93033  12.166  16.847   0.986
26251W        W93034  37.053  34.468  11.232
26252W        W93035   6.300   7.352  14.506
26253W        W93036  43.343   8.149   2.099
26254W        W93037  26.522   1.382   1.427
26255W        W93038   2.846  21.653   3.892
26256W        W93039  35.068  20.233   9.353
26257W        W93040   1.910   1.793  14.360
26258W        W93041  37.630  20.050   4.609
26259W        W93042  16.319  39.095  14.858
26260W        W93043  20.103  43.212  12.918
26261W        W93044  38.874  29.220  13.841
26262W        W93045  35.059   6.693   1.775
26263W        W93046  16.564  35.645   2.224
26264W        W93047  34.454  12.854  13.914
26265W        W93048  25.932  43.021  14.987
26266W        W93049   5.281   4.752  12.149
26267W        W93050   9.422  24.468  13.062
26268W        W93051  11.951  30.338   4.273
26269W        W93052  40.003  32.879  13.849
26270W        W93053   6.343   0.395  10.605
26271W        W93054   2.868  43.528  14.545
26272W        W93055  31.427  37.845   3.694
26273W        W93056  26.314  43.472  12.840
26274W        W93057  35.474  24.520   3.345
26275W        W93058  15.567  32.952  13.283
26276W        W93059  38.384  44.356  10.657
26277W        W93060   6.658  22.962   3.907
26278W        W93061  12.389   2.421  11.111
26279W        W93062  10.957  30.367   5.077
26280W        W93063  26.991  33.542   2.392
26281W        W93064  43.487  31.136  12.963
26282W        W93065  18.786  27.339  14.924
26283W        W93066  23.649  36.930  12.139
26284W        W93067  17.469  18.766  13.439
26285W        W93068  22.331  39.369  12.211
26286W        W93069  43.025  14.293   2.597
26287W        W93070  14.038  28.033   1.626
26288W        W93071  22.897  36.280   1.353
26289W        W93072   1.718  24.461   0.996
26290W        W93073   0.385  21.028   2.181
26291W        W93074  39.949  33.485   0.211
26292W        W93075   0.709   3.654  11.808
26293W        W93076  30.334  15.740   3.659
26294W        W93077  33.007  43.078   1.880
26295W        W93078   4.032  26.548   1.401
26296W        W93079   2.424  29.452  10.563
26297W        W93080  42.074  38.332  11.056
26298W        W93081  40.299  24.164   3.221
26299W        W93082  18.576   5.304  11.444
26300W        W93083  42.798   2.205   1.193
26301W        W93084  34.117   4.391   2.623
26302W        W93085  13.215   1.140   3.359
26303W        W93086  30.509  22.047   1.304
26304W        W93087   2.716   2.036  10.285
26305W        W93088  11.227  28.965  14.345
26306W        W93089  36.814  44.058   3.702
26307W        W93090   7.155   4.495  13.470
26308W        W93091   2.696  36.605   4.194
26309W        W93092  28.030  38.886   4.166
26310W        W93093  26.898  20.171  11.032
26311W        W93094  16.566  13.836   0.422
26312W        W93095  17.990  10.584  11.161
26313W        W93096  42.323  40.399   0.398
26314W        W93097  15.463  41.741   3.310
26315W        W93098  10.258  30.402  12.530
26316W        W93099  14.880   2.208  11.923
26317W        W93100  36.349  40.292   3.796
26318W        W93101  15.599  12.171   1.171
26319W        W93102  28.643  35.569   0.326
26320W        W93103  30.310  35.448   3.061
26321W        W93104  38.013   1.989   2.310
26322W        W93105  23.644  30.852   1.931
26323W        W93106  38.860  19.863  10.435
26324W        W93107  27.215   2.341   4.407
26325W        W93108  12.378   1.429  12.776
26326W        W93109  43.763  39.759  13.058
26327W        W93110  10.408  12.388   5.259
26328W        W93111  12.815  40.947  11.236
26329W        W93112   8.121  24.083   3.954
26330W        W93113  27.404  28.018  13.091
26331W        W93114  17.942  22.687  13.289
26332W        W93115   5.929  17.985  11.608
26333W        W93116  28.983   8.772   0.699
26334W        W93117   2.331  25.055  12.119
26335W        W93118  35.420  40.525  13.285
26336W        W93119  18.333  27.369   2.842
26337W        W93120  29.935  11.365  12.957
26338W        W93121  32.651   4.374  12.413
26339W        W93122  30.912  31.437  14.977
26340W        W93123  36.553  28.703   0.538
26341W        W93124  13.504   3.710  12.880
26342W        W93125  25.641   1.782   1.324
26343W        W93126  32.439   5.475   4.014
26344W        W93127   6.444   6.313   0.891
26345W        W93128   2.192  41.044   4.505
26346W        W93129  41.456  11.802   0.182
26347W        W93130   4.418  13.693   3.358
26348W        W93131  30.000  40.768   4.675
26349W        W93132  34.944  40.664   2.030
26350W        W93133  15.364  44.561  14.483
26351W        W93134   7.282  17.169   2.655
26352W        W93135  21.349  34.369   1.269
26353W        W93136  12.784  13.633  13.079
26354W        W93137  20.710   8.695   4.035
26355W        W93138  39.815  34.451  13.997
26356W        W93139  39.030   0.298  12.054
26357W        W93140  17.142  23.975  14.512
26358W        W93141  16.808  31.513   2.390
26359W        W93142  25.472  31.669   4.461
26360W        W93143  14.590  13.684   1.342
26361W        W93144  18.861   4.251  11.973
26362W        W93145  23.410  24.005   0.761
26363W        W93146  43.277  35.280  11.072
26364W        W93147   2.209  15.321  12.892
26365W        W93148  17.768   2.808  14.028
26366W        W93149  36.809  13.501  12.429
26367W        W93150  41.840  20.204   4.113
26368W        W93151  29.083  30.621  14.491
26369W        W93152   2.155  15.115   4.123
26370W        W93153  30.979  43.437  14.388
26371W        W93154  14.704  37.241   4.519
26372W        W93155  37.390  40.930  13.210
26373W        W93156  39.372  43.940  13.353
26374W        W93157  15.655   8.355   0.308
26375W        W93158  44.990  10.582   2.418
26376W        W93159  43.477  41.326   0.898
26377W        W93160  43.285  19.870   1.347
26378W        W93161  20.529  42.358  12.958
26379W        W93162   2.269  34.041   4.531
26380W        W93163  28.936  25.547   2.704
26381W        W93164   8.839  36.876  12.876
26382W        W93165  16.368  42.460   2.489
26383W        W93166   3.830  33.622  12.662
26384W        W93167  37.809  27.675  12.018
26385W        W93168  39.822  39.657   0.270
26386W        W93169  42.332  31.435  14.949
26387W        W93170  18.144  15.072   3.202
26388W        W93171   0.759   5.449   3.795
26389W        W93172  35.889  14.313   0.081
26390W        W93173  12.808  27.799   3.741
26391W        W93174  43.972  43.978  12.168
26392W        W93175  35.244   6.019   4.152
26393W        W93176  21.080  18.522  11.974
26394W        W93177   5.339  44.867   0.699
26395W        W93178  27.076   6.926  10.806
26396W        W93179   7.294  38.751   2.331
26397W        W93180  31.907   8.868   1.784
26398W        W93181  10.794   4.957   2.788
26399W        W93182  38.337  44.287  11.633
26400W        W93183  40.917  39.595   0.722
26401W        W93184  44.931  25.110  14.535
26402W        W93185  17.351  27.561   4.135
26403W        W93186   0.744  34.535  12.496
26404W        W93187  19.326   3.175  12.877
26405W        W93188  29.205  32.098   3.310
26406W        W93189  18.082   8.119   4.186
26407W        W93190  16.086   2.768  12.798
26408W        W93191  38.441  16.323   4.696
26409W        W93192   6.158  16.690   1.384
26410W        W93193   8.271   8.105   3.614
26411W        W93194  32.847  24.144   4.044
26412W        W93195  19.280  38.886   4.768
26413W        W93196  23.938  33.839  11.524
26414W        W93197   9.594   3.220   0.395
26415W        W93198  14.386  35.202   5.046
26416W        W93199  16.586  19.623   0.798
26417W        W93200   9.748  19.602  11.881
26418W        W93201  37.653  29.447   2.411
26419W        W93202  34.096  20.571   0.452
26420W        W93203  10.710  39.524   4.595
26421W        W93204  42.059  27.191   0.279
26422W        W93205  11.661  27.906  11.452
26423W        W93206  22.461  32.960   1.167
26424W        W93207  30.021   5.982  11.432
26425W        W93208  13.881   6.792  11.165
26426W        W93209   5.309  26.725   2.224
26427W        W93210  14.754  18.652   2.104
26428W        W93211  27.557  26.064   3.286
26429W        W93212   3.335  34.495   9.874
26430W        W93213  15.047  22.618  11.989
26431W        W93214  26.913  27.541  14.058
26432W        W93215  33.209  15.918   1.812
26433W        W93216  19.960  42.846   1.411
26434W        W93217  38.094   8.706  11.808
26435W        W93218  40.108  39.908  14.906
26436W        W93219   3.029  25.054  11.292
26437W        W93220  24.589  31.509   3.590
26438W        W93221   0.309  16.111  14.793
26439W        W93222  33.385  31.251  14.992
26440W        W93223  14.248  24.007   0.565
26441W        W93224  43.930  35.543  11.342
26442W        W93225  44.636  26.883  14.045
26443W        W93226  10.420  15.812  14.007
26444W        W93227  24.121  27.143   2.276
26445W        W93228   1.002  29.603  12.570
26446W        W93229  32.883  43.680   2.727
26447W        W93230  14.180   8.552   0.429
26448W        W93231   6.946  23.069   4.342
26449W        W93232  12.606  15.006   0.868
26450W        W93233  17.789  41.227  11.141
26451W        W93234   3.292  16.558   4.894
26452W        W93235  11.206  28.539  10.894
26453W        W93236  14.327   1.694   2.911
26454W        W93237   7.755  25.496  14.758
26455W        W93238   1.368   6.083  12.511
26456W        W93239  40.189  23.750  12.507
26457W        W93240  44.998  19.025   3.712
26458W        W93241  16.665  24.086  11.282
26459W        W93242  14.313   7.984  12.154
26460W        W93243  40.850   4.704  14.345
26461W        W93244  11.104  37.908  12.964
26462W        W93245   6.244  44.369   1.323
26463W        W93246   5.735   6.824  10.685
26464W        W93247  36.411   6.313   2.872
26465W        W93248  43.535  35.061   0.375
26466W        W93249  42.870  15.598  14.787
26467W        W93250  44.513   4.868   1.849
26468W        W93251  29.825  28.840  13.112
26469W        W93252  40.466  31.321   1.462
26470W        W93253  42.496  11.538   2.434
26471W        W93254   2.193  27.715   3.296
26472W        W93255  27.482  14.539  12.642
26473W        W93256  39.361  42.386   4.568
26474W        W93257   3.293  11.289  12.665
26475W        W93258  11.729   9.847   3.976
26476W        W93259   8.681  26.032  14.958
26477W        W93260  33.161  22.398   3.203
26478W        W93261  43.706  19.214   3.277
26479W        W93262  41.001  42.050  10.969
26480W        W93263   2.872   2.873  10.779
26481W        W93264  33.162   8.226   1.858
26482W        W93265  20.671  23.655   2.877
26483W        W93266  34.651  43.751  11.939
26484W        W93267  39.329  30.461  10.628
26485W        W93268  23.649  42.482  10.819
26486W        W93269   5.898  21.770  12.783
26487W        W93270  28.160  28.415   2.778
26488W        W93271   7.363  31.514   2.827
26489W        W93272   0.451  21.650   1.304
26490W        W93273  13.124  33.115   1.318
26491W        W93274  34.538  21.236  12.786
26492W        W93275   1.433  26.094   1.460
26493W        W93276  12.384   4.824   4.821
26494W        W93277  43.918  22.690  14.865
26495W        W93278  17.760  12.364   0.899
26496W        W93279  33.962  36.057   2.855
26497W        W93280  19.895  31.582  14.761
26498W        W93281  33.396  28.549  14.995
26499W        W93282  20.979  17.729  10.941
26500W        W93283  21.014  14.690   5.081
26501W        W93284  30.933   1.299  14.479
26502W        W93285  15.091  15.368  12.871
26503W        W93286   0.133   1.460   3.647
26504W        W93287  15.596  18.352   4.998
26505W        W93288  17.696  39.806   4.582
26506W        W93289   9.750  26.542   0.545
26507W        W93290   4.421  41.539   4.415
26508W        W93291   4.531   8.955   2.232
26509W        W93292  32.460  41.815   1.759
26510W        W93293   2.204  22.583  12.412
26511W        W93294  39.823  30.304   4.609
26512W        W93295  13.172  14.627  11.696
26513W        W93296  26.195  37.030  10.716
26514W        W93297  33.012  43.271   1.392
26515W        W93298  11.462  16.550  13.304
26516W        W93299  16.280  35.608  12.030
26517W        W93300   9.873   9.745   1.785
26518W        W93301  11.647  41.669   0.975
26519W        W93302   1.484  16.613  12.862
26520W        W93303  25.996  22.634  10.740
26521W        W93304  38.002  13.040  11.487
26522W        W93305  12.202   0.434  12.688
26523W        W93306  14.809  37.056  11.248
26524W        W93307   8.405   0.027   0.876
26525W        W93308   6.941  11.279   4.572
26526W        W93309   4.802  35.893  13.425
26527W        W93310  34.949  43.977  10.985
26528W        W93311   7.220  38.749   3.728
26529W        W93312  44.969   5.366  12.454
26530W        W93313  25.183  20.954  11.730
26531W        W93314  28.083  24.913  13.920
26532W        W93315   2.394  30.857  13.987
26533W        W93316   5.251   9.232  13.095
26534W        W93317  37.577  41.922   2.868
26535W        W93318   6.131  12.231  11.467
26536W        W93319  28.142  36.368   1.968
26537W        W93320   9.388  39.957  10.592
26538W        W93321  20.614  34.792   1.858
26539W        W93322  42.358   4.508   2.268
26540W        W93323   2.348  27.198  12.260
26541W        W93324   2.138  40.932  12.545
26542W        W93325  40.039  37.543   0.945
26543W        W93326  18.568   0.440   2.771
26544W        W93327   6.822  24.565  11.964
26545W        W93328  35.407  37.514  14.825
26546W        W93329  15.728  44.356  10.599
26547W        W93330  23.576  15.499   3.764
26548W        W93331   5.396   3.411   4.126
26549W        W93332   3.417  17.418  13.095
26550W        W93333  30.592  11.742  14.983
26551W        W93334  42.419  16.126   4.582
26552W        W93335  12.126  10.915   3.966
26553W        W93336  43.781   0.657   1.178
26554W        W93337  33.910  17.579   0.892
26555W        W93338  16.324   6.828  14.959
26556W        W93339  43.354  29.094   4.799
26557W        W93340   3.087  17.824  13.100
26558W        W93341   1.954  10.273   4.714
26559W        W93342  24.163   3.663  12.780
26560W        W93343  16.203  10.815   4.267
26561W        W93344  24.883   1.497   2.384
26562W        W93345  11.050  21.516  14.301
26563W        W93346  37.590  31.894   0.805
26564W        W93347  43.917  40.032   0.786
26565W        W93348   2.315  13.110  12.741
26566W        W93349  40.108  44.861   2.337
26567W        W93350  25.499  11.416  14.254
26568W        W93351  34.851   1.987   3.697
26569W        W93352  19.728  30.888  12.183
26570W        W93353  29.739  33.454   3.740
26571W        W93354   3.447  13.111   4.581
26572W        W93355   9.778  21.777  12.058
26573W        W93356   0.445  22.320   0.802
26574W        W93357  34.684  40.004   1.296
26575W        W93358  33.096  31.673   0.990
26576W        W93359  26.601  42.937  14.483
26577W        W93360  44.616  12.786  14.999
26578W        W93361  25.974  18.618   3.753
26579W        W93362  23.227  38.225  14.249
26580W        W93363   0.833  26.932  14.426
26581W        W93364  33.999   4.881   1.816
26582W        W93365  15.595  43.682  13.120
26583W        W93366   7.260  28.942   0.289
26584W        W93367  37.386  28.382  14.978
26585W        W93368  27.040  34.419   2.519
26586W        W93369  19.650  28.690   2.218
26587W        W93370  26.127  24.530  11.912
26588W        W93371  36.256  19.700  11.607
26589W        W93372  29.186  21.629  13.537
26590W        W93373  19.183  16.580  11.396
26591W        W93374  21.878  24.048   1.759
26592W        W93375   1.663  38.854  11.472
26593W        W93376  15.091  13.777   4.272
26594W        W93377  24.711  36.423  14.886
26595W        W93378  18.526  42.542  12.017
26596W        W93379   4.187  31.992   0.341
26597W        W93380  41.779  12.532   5.115
26598W        W93381  40.939   6.782   1.228
26599W        W93382  20.566  32.640  12.590
26600W        W93383  29.105  37.819   0.403
26601W        W93384  31.006  21.797   1.327
26602W        W93385  44.567  23.615   0.413
26603W        W93386  41.867  22.183  14.464
26604W        W93387  31.152   9.101   4.089
26605W        W93388   1.510  19.721   3.263
26606W        W93389  20.120  35.785   4.109
26607W        W93390   1.266   3.865  13.456
26608W        W93391  25.226  44.422   4.141
26609W        W93392  34.537  24.469  11.949
26610W        W93393  17.536  29.053   2.818
26611W        W93394  30.495  36.435   1.694
26612W        W93395  26.506  44.337  13.233
26613W        W93396  39.923  39.789  11.160
26614W        W93397   8.390  41.861  14.990
26615W        W93398   3.885   6.305   1.946
26616W        W93399  42.951  28.169  12.536
26617W        W93400  25.437  17.818   4.377
26618W        W93401  22.994  25.655   3.676
26619W        W93402   0.420   1.762  12.969
26620W        W93403  17.694  39.528   3.147
26621W        W93404  14.059  23.661  14.804
26622W        W93405  25.571  27.981   9.739
26623W        W93406  16.802  35.828  13.330
26624W        W93407  16.885  17.255   0.712
26625W        W93408  26.414  22.496   4.376
26626W        W93409  17.797  11.160   3.114
26627W        W93410  43.257  25.995  11.211
26628W        W93411  35.897  20.616   2.387
26629W        W93412  21.277  44.908  14.493
26630W        W93413  35.370  19.724  14.375
26631W        W93414  25.646  18.649   5.163
26632W        W93415  32.963  27.303   4.221
26633W        W93416  30.556   5.230  11.710
26634W        W93417  15.750  27.187   3.188
26635W        W93418  35.439   8.526   3.354
26636W        W93419  22.350   9.682  13.423
26637W        W93420  16.850  29.717  12.115
26638W        W93421  18.037  23.046   3.633
26639W        W93422  41.934   3.556  12.976
26640W        W93423  27.619   7.647  14.487
26641W        W93424  18.991  22.125  13.001
26642W        W93425  27.061   9.885   4.202
26643W        W93426  44.386   4.236  13.361
26644W        W93427  38.308  39.757   2.799
26645W        W93428   4.840  26.452   2.285
26646W        W93429   0.211  44.517  13.488
26647W        W93430  26.056  25.552  14.450
26648W        W93431  30.930   6.621   4.163
26649W        W93432  44.181  15.613   3.976
26650W        W93433  34.666   5.339   5.461
26651W        W93434  34.420  14.337   3.994
26652W        W93435  28.156  22.839   3.115
26653W        W93436  28.013  43.900  11.415
26654W        W93437  32.866  24.514   9.680
26655W        W93438  32.447  26.304   2.318
26656W        W93439  33.967  32.322  13.965
26657W        W93440  12.922  18.069  13.921
26658W        W93441   7.363  37.898   3.671
26659W        W93442   7.087  35.093   0.278
26660W        W93443  41.020   0.452   4.665
26661W        W93444  39.128  11.959   2.719
26662W        W93445  29.525  37.018  14.705
26663W        W93446  12.040  19.000  10.511
26664W        W93447  20.571  38.461   0.808
26665W        W93448  38.527   1.933   0.684
26666W        W93449   6.842  42.204  10.802
26667W        W93450  19.644   9.771   0.528
26668W        W93451   8.719  30.719  10.045
26669W        W93452  30.158   7.839  11.886
26670W        W93453  44.351  18.044   4.573
26671W        W93454  30.556  39.166  10.075
26672W        W93455  21.479   1.374  14.712
26673W        W93456  17.802   3.266   1.270
26674W        W93457  38.627  25.606  10.631
26675W        W93458  41.657  43.816   2.197
26676W        W93459   9.275  12.937  11.063
26677W        W93460  32.853  41.811  11.151
26678W        W93461  25.071  16.168  12.443
26679W        W93462  12.786  36.109  11.246
26680W        W93463  25.562  18.260  13.261
26681W        W93464  15.890  26.720   4.338
26682W        W93465  31.957   3.526   1.449
26683W        W93466  25.649   0.698   1.397
26684W        W93467  32.008   2.413   0.753
26685W        W93468   1.410  11.737   4.705
26686W        W93469  43.567  42.547  12.506
26687W        W93470  19.678  22.271   2.420
26688W        W93471  37.417  24.900  11.954
26689W        W93472  34.617  10.333  13.941
26690W        W93473   7.295  19.051   0.340
26691W        W93474   0.334  13.742   1.133
26692W        W93475   3.521  34.954   1.805
26693W        W93476  40.056  41.335  14.463
26694W        W93477   3.514  30.837  13.108
26695W        W93478  36.239  31.349  12.448
26696W        W93479   3.965   4.601   2.725
26697W        W93480  31.251   4.001   2.032
26698W        W93481  31.620  27.839  12.494
26699W        W93482  43.503  15.787  13.001
26700W        W93483  34.456  13.792   3.158
26701W        W93484  13.846  20.533  11.785
26702W        W93485  35.176  44.251  12.947
26703W        W93486  24.464   6.436  12.006
26704W        W93487  33.389  12.939  12.359
26705W        W93488  32.826  33.610  12.520
26706W        W93489  17.235  21.658   3.326
26707W        W93490  17.283  29.396  12.119
26708W        W93491  20.213   7.543   3.300
26709W        W93492  19.991  29.960  14.270
26710W        W93493  26.640  43.763   2.279
26711W        W93494  11.594  26.456   3.228
26712W        W93495  16.180  26.596  14.340
26713W        W93496  37.407  10.628  12.474
26714W        W93497  28.660  30.643  14.828
26715W        W93498  36.607  34.506   0.385
26716W        W93499   6.293   6.806  12.070
26717W        W93500  43.959   4.458  14.391
26718W        W93501  28.423  21.452  12.081
26719W        W93502  16.815  15.297  13.517
26720W        W93503  19.923   3.823  10.762
26721W        W93504   5.183  23.199   4.497
26722W        W93505  41.213  11.627  13.749
26723W        W93506  39.331  33.667  13.105
26724W        W93507   5.974  12.905   3.294
26725W        W93508  15.070  28.917   4.074
26726W        W93509  10.731  32.567   0.775
26727W        W93510  30.482  39.959  13.085
26728W        W93511  25.496  10.376   4.626
26729W        W93512  15.123  16.563   1.025
26730W        W93513  26.628   3.938   2.572
26731W        W93514   3.740  23.149  14.815
26732W        W93515  43.784   3.805  12.179
26733W        W93516  39.062  17.712   0.762
26734W        W93517  28.708  27.411   2.359
26735W        W93518  20.549  26.008   1.143
26736W        W93519  29.195   3.275   2.352
26737W        W93520  31.010   2.916  11.560
26738W        W93521  36.680  21.328   1.617
26739W        W93522   6.488   1.300   2.752
26740W        W93523  19.793   4.262  12.835
26741W        W93524  32.611  44.414   4.541
26742W        W93525  31.473   0.834   3.176
26743W        W93526  42.085  26.993  12.961
26744W        W93527  27.920  36.482   0.969
26745W        W93528   3.712  22.633   4.267
26746W        W93529  43.892  19.293   0.893
26747W        W93530  43.754  32.586   1.760
26748W        W93531  29.988  42.045   1.156
26749W        W93532  41.745  18.685   4.146
26750W        W93533  37.025   5.943  11.919
26751W        W93534  13.414  32.490   0.520
26752W        W93535  26.159  35.460  13.869
26753W        W93536   8.149  17.052  11.630
26754W        W93537  12.041  15.181  10.638
26755W        W93538   3.915   3.404  14.234
26756W        W93539  34.688   1.849   1.430
26757W        W93540  14.233  25.068   0.364
26758W        W93541   6.470  26.964  13.434
26759W        W93542   9.914   1.693   2.183
26760W        W93543  44.254  37.366  12.564
26761W        W93544  20.963  15.572  12.032
26762W        W93545  24.610  11.838   4.775
26763W        W93546  37.799  12.157   2.909
26764W        W93547   9.433  17.495   2.779
26765W        W93548   2.993   0.696   3.541
26766W        W93549  36.630  29.604  13.930
26767W        W93550  38.546   4.744   2.318
26768W        W93551  43.751  12.399   0.230
26769W        W93552  38.397  16.875   1.837
26770W        W93553  24.176  32.653   0.402
26771W        W93554  17.490  39.926  14.382
26772W        W93555  10.624  11.150   1.023
26773W        W93556  43.807  15.004  14.714
26774W        W93557  32.750  10.750   2.990
26775W        W93558  17.555   4.348  13.521
26776W        W93559  27.697  25.060  10.891
26777W        W93560  15.823  17.657  11.870
26778W        W93561   5.703  13.244   1.500
26779W        W93562  40.979  43.201  12.090
26780W        W93563  41.084  29.794  13.412
26781W        W93564  32.444  34.360  11.947
26782W        W93565  23.891  34.782  10.104
26783W        W93566   9.270   1.965  14.886
26784W        W93567   5.459  21.604  13.031
26785W        W93568   8.897  36.812   2.566
26786W        W93569  17.641   5.872  14.203
26787W        W93570   8.224  24.085   0.051
26788W        W93571   3.475   9.706   3.794
26789W        W93572  10.581   2.745  14.193
26790W        W93573  15.078  10.883  14.288
26791W        W93574  12.817  17.026   5.008
26792W        W93575  38.346  31.201   2.790
26793W        W93576  36.981  33.908   0.631
26794W        W93577  28.542  16.180  13.049
26795W        W93578  21.585  44.527   0.567
26796W        W93579  21.702  35.128   0.863
26797W        W93580  40.278   4.154  13.488
26798W        W93581  30.915  34.709   1.899
26799W        W93582  14.288  16.566  13.827
26800W        W93583   8.469  23.278   1.833
26801W        W93584  39.933   3.333  14.480
26802W        W93585  18.077  36.323   3.282
26803W        W93586  11.481  34.953  13.814
26804W        W93587   4.437   5.707   2.086
26805W        W93588   4.245  34.293   0.247
26806W        W93589  38.331  22.021   1.683
26807W        W93590  16.099  16.033   1.986
26808W        W93591  19.633  18.867   3.138
26809W        W93592   5.661   4.703   1.295
26810W        W93593  31.651  33.452  14.802
26811W        W93594  23.955   4.265   4.207
26812W        W93595  43.581  22.588   0.403
26813W        W93596  20.509  42.275   2.563
26814W        W93597  24.943  38.042   2.401
26815W        W93598  41.511   5.798  11.565
26816W        W93599  24.905  35.491  12.095
26817W        W93600   4.480   1.684  13.321
26818W        W93601  24.182  12.030  13.828
26819W        W93602  39.940  12.164  14.459
26820W        W93603   3.688  21.642   2.272
26821W        W93604   4.994   4.604   3.636
26822W        W93605   6.470   4.227   2.705
26823W        W93606  11.387   6.661  11.252
26824W        W93607  34.445  23.663  10.636
26825W        W93608  41.083  28.475   4.399
26826W        W93609  37.182  39.776  11.203
26827W        W93610  21.263  24.174   0.444
26828W        W93611  21.209  42.932  13.739
26829W        W93612   7.265  43.368   4.374
26830W        W93613  43.219   8.423   4.383
26831W        W93614  11.270   2.741  14.906
26832W        W93615   0.271  33.850   0.420
26833W        W93616  12.824  14.474   5.061
26834W        W93617  43.402  21.272  10.118
26835W        W93618   8.811  30.475  13.485
26836W        W93619  31.672  12.436  11.090
26837W        W93620  29.992  29.072   1.888
26838W        W93621  19.999  26.115  10.669
26839W        W93622  19.214  19.099   2.383
26840W        W93623  10.788   6.364  12.597
26841W        W93624  39.111   6.620   3.337
26842W        W93625  30.599  41.936   0.287
26843W        W93626  17.591  29.545   2.971
26844W        W93627  30.421  43.857  12.618
26845W        W93628  41.764  40.157   0.306
26846W        W93629  34.002  13.188  14.369
26847W        W93630  32.641  10.562  14.308
26848W        W93631   3.011  10.229   0.332
26849W        W93632  37.588  15.135  11.051
26850W        W93633  12.833  33.642  12.499
26851W        W93634  32.463  41.956   0.363
26852W        W93635  17.539  33.465   1.280
26853W        W93636  16.648  23.864   2.298
26854W        W93637  33.018  43.018   3.247
26855W        W93638  28.897  19.290   1.426
26856W        W93639  11.845  13.215   0.531
26857W        W93640   7.366  39.497  12.423
26858W        W93641  27.414  30.691   4.167
26859W        W93642  22.320  26.547   3.222
26860W        W93643  44.805  33.642   0.531
26861W        W93644   9.753  15.074  10.523
26862W        W93645  30.643  39.334   1.334
26863W        W93646   5.749  42.985  11.455
26864W        W93647   1.718  21.583   1.871
26865W        W93648   9.729   8.324   3.886
26866W        W93649  19.070  21.859  14.433
26867W        W93650  30.575   1.746   3.346
26868W        W93651  38.317  18.201   0.774
26869W        W93652  28.765  30.706   4.350
26870W        W93653   5.378  29.159   0.273
26871W        W93654  43.057  41.724  11.097
26872W        W93655   4.325  39.137  11.585
26873W        W93656  26.638  21.592  13.357
26874W        W93657  11.259   2.672  13.008
26875W        W93658  23.048  39.942  12.140
26876W        W93659   6.488  28.529  10.500
26877W        W93660  28.207  35.007  12.902
26878W        W93661   3.885  42.927  14.034
26879W        W93662  16.062  13.425  14.380
26880W        W93663  37.053  31.411   3.575
26881W        W93664  14.210  41.048  10.312
26882W        W93665  16.185  30.762  14.232
26883W        W93666   5.153  26.416  10.500
26884W        W93667   2.425  16.588  12.548
26885W        W93668  38.403   0.765   3.577
26886W        W93669  14.310  28.807   1.296
26887W        W93670   7.351  10.292  14.839
26888W        W93671  15.946  37.606  12.446
26889W        W93672  42.326  19.713   1.800
26890W        W93673  39.268   1.925  11.071
26891W        W93674  17.166  41.569   4.720
26892W        W93675  14.267  13.041   2.074
26893W        W93676  31.697  23.346   1.793
26894W        W93677  16.688  39.307   0.923
26895W        W93678   4.190  44.306  11.530
26896W        W93679  39.019  28.196   4.277
26897W        W93680  17.154   1.993   3.246
26898W        W93681  27.862  33.070   3.331
26899W        W93682   8.962   8.916   0.023
26900W        W93683  14.524  35.418  13.483
26901W        W93684   0.273  16.201   3.146
26902W        W93685  12.355  23.835   3.636
26903W        W93686  18.157   1.674   4.771
26904W        W93687  26.241  15.326   2.206
26905W        W93688  35.189  21.192  10.020
26906W        W93689  25.009  37.365   1.080
26907W        W93690  37.505  17.513   4.131
26908W        W93691   3.957  18.539   2.861
26909W        W93692  13.884  17.803  12.854
26910W        W93693  40.711  24.545   3.316
26911W        W93694   5.875  38.948   1.790
26912W        W93695  33.753   6.299  12.552
26913W        W93696  44.940  43.599  13.076
26914W        W93697  22.498  32.028  12.536
26915W        W93698  31.085   9.225   4.735
26916W        W93699  31.157  37.002  13.024
26917W        W93700   2.680  18.548  12.467
26918W        W93701  42.803  29.503  13.964
26919W        W93702   0.968   3.956  12.147
26920W        W93703  10.905  22.591  13.004
26921W        W93704  34.846  36.975  10.806
26922W        W93705  43.396  29.408   4.417
26923W        W93706  37.175  39.992  13.454
26924W        W93707  39.880  20.142   4.067
26925W        W93708   5.674  37.384   0.854
26926W        W93709  18.619   7.351   3.702
26927W        W93710  16.229  24.512  12.968
26928W        W93711  21.649   8.754   2.792
26929W        W93712  31.184  20.122  10.606
26930W        W93713  40.364  12.757   3.187
26931W        W93714  32.817  16.163  13.969
26932W        W93715  29.247   0.947  14.016
26933W        W93716  41.523  29.517  13.600
26934W        W93717  17.003   5.137   2.342
26935W        W93718  43.873   5.975   2.298
26936W        W93719   9.626  29.983  13.843
26937W        W93720  12.829  24.120  13.618
26938W        W93721  26.624  43.941  13.587
26939W        W93722  17.827  11.484   2.702
26940W        W93723  11.655  41.614  13.272
26941W        W93724  31.675  10.799   2.451
26942W        W93725  19.824  44.784  13.508
26943W        W93726  35.449  33.693   1.297
26944W        W93727   8.911   4.366   4.570
26945W        W93728  22.918  17.674  14.370
26946W        W93729  32.160  44.572  12.278
26947W        W93730  32.183  20.046   0.135
26948W        W93731  26.143  36.522  11.759
26949W        W93732   2.800  21.012  11.061
26950W        W93733  41.564  18.291   0.125
26951W        W93734  16.616  42.457  14.394
26952W        W93735  17.807  33.800  10.919
26953W        W93736  44.173  29.859   2.391
26954W        W93737  38.766  27.052  14.856
26955W        W93738  27.591   5.390   3.388
26956W        W93739  38.881  16.849   0.232
26957W        W93740  22.781  34.838  10.183
26958W        W93741  30.640  26.338  13.911
26959W        W93742   1.873  12.053   1.985
26960W        W93743  23.993  10.098  11.319
26961W        W93744   1.743  12.132  13.488
26962W        W93745  36.561  27.566   3.408
26963W        W93746  21.997  43.976  13.847
26964W        W93747  21.891  36.102  11.592
26965W        W93748  15.399  17.702   4.083
26966W        W93749  20.325  41.827  14.897
26967W        W93750  32.000  23.143  13.958
26968W        W93751  34.450  40.406   0.050
26969W        W93752  35.762   4.114  13.794
26970W        W93753   9.265  31.663   4.654
26971W        W93754   9.646  12.179   4.766
26972W        W93755  41.998  38.511   1.936
26973W        W93756  10.751   0.849   3.611
26974W        W93757  32.572  27.122   2.610
26975W        W93758  44.303  16.091  11.079
26976W        W93759   9.061  13.289  14.928
26977W        W93760  10.718  10.766  14.436
26978W        W93761   4.078  37.444  11.388
26979W        W93762  15.090  43.539   0.315
26980W        W93763   5.859  28.954   0.203
26981W        W93764  12.755   6.100   3.167
26982W        W93765   0.399  24.539   2.570
26983W        W93766  23.374   1.957  11.667
26984W        W93767  10.775  41.899  12.768
26985W        W93768  33.960  42.390   1.635
26986W        W93769  27.990  44.283   0.533
26987W        W93770  23.505  10.830  13.435
26988W        W93771   3.302  28.043   4.620
26989W        W93772  18.178  14.228   1.879
26990W        W93773  21.045  16.189   4.147
26991W        W93774  42.436  25.472  14.828
26992W        W93775  35.861  14.408   1.562
26993W        W93776  23.094  30.962  10.790
26994W        W93777  25.228   5.198   2.791
26995W        W93778  41.873  36.351  12.904
26996W        W93779  36.840  44.427   0.762
26997W        W93780  22.553  39.658   3.736
26998W        W93781   2.197  10.736   4.700
26999W        W93782  34.533  38.937  14.523
27000W        W93783  29.016  31.641   0.392
27001W        W93784  38.691  39.596   0.903
27002W        W93785  30.150  11.640   3.836
27003W        W93786  19.180  41.405  13.385
27004W        W93787  29.940  22.625   4.707
27005W        W93788  23.671   3.084   3.065
27006W        W93789   4.291   3.942  12.411
27007W        W93790  17.351   1.391  10.719
27008W        W93791  23.783  25.069   2.024
27009W        W93792  39.813   6.647  10.329
27010W        W93793  35.934  15.043   3.683
27011W        W93794  28.070   0.510  11.074
27012W        W93795  26.534  24.531   0.999
27013W        W93796   1.430  24.986  14.560
27014W        W93797  42.089   9.045  13.804
27015W        W93798  13.626   9.815  13.520
27016W        W93799  19.650   4.323  14.186
27017W        W93800  22.933  26.751  14.349
27018W        W93801  40.069   0.664  10.720
27019W        W93802  31.087  22.351  13.413
27020W        W93803   1.790  16.981  13.072
27021W        W93804  14.307  30.510   0.285
27022W        W93805  21.609  32.705   3.345
27023W        W93806   2.138  32.528   3.395
27024W        W93807  34.799  27.892   4.161
27025W        W93808   1.392  29.288   3.217
27026W        W93809  33.702  36.239   2.443
27027W        W93810   2.092  32.584  11.045
27028W        W93811   6.887   8.417   4.760
27029W        W93812  44.836  29.182  14.463
27030W        W93813  23.016   2.451  10.943
27031W        W93814  40.091   5.481  12.039
27032W        W93815  29.997  36.862  11.540
27033W        W93816  29.286  34.008  11.954
27034W        W93817  29.170  21.742  12.047
27035W        W93818  22.831  22.680  12.584
27036W        W93819  18.746  15.605  11.977
27037W        W93820  16.808  29.956   0.867
27038W        W93821  22.514   4.554  14.005
27039W        W93822  19.694  27.654   2.235
27040W        W93823  20.273  30.847  11.551
27041W        W93824  39.104  15.546   0.771
27042W        W93825  19.814  19.594   1.793
27043W        W93826  18.722   6.661  11.080
27044W        W93827  41.262  17.849   0.842
27045W        W93828  33.716  22.675   2.625
27046W        W93829  25.254  31.449  13.466
27047W        W93830  23.317  20.074  13.554
27048W        W93831  31.915  24.421   4.870
27049W        W93832  27.968  10.050   4.526
27050W        W93833   1.637  12.600   3.749
27051W        W93834  17.018   0.236  11.425
27052W        W93835  12.019   0.860  11.096
27053W        W93836   5.882  33.893   2.823
27054W        W93837  20.065  40.559  14.370
27055W        W93838  22.689  29.091  10.447
27056W        W93839  19.441  32.525   2.211
27057W        W93840  11.951  31.448   0.900
27058W        W93841  21.519   7.689   4.213
27059W        W93842  24.621  36.109   1.806
27060W        W93843   8.201  15.915   3.813
27061W        W93844  14.373  41.789   4.248
27062W        W93845  18.850  16.333  14.043
27063W        W93846  19.642   1.451  10.247
27064W        W93847  22.999  22.616  14.052
27065W        W93848  35.308   4.764   4.385
27066W        W93849   9.699  37.975  10.665
27067W        W93850  14.116   0.529  12.444
27068W        W93851   2.876  35.282  14.971
27069W        W93852  38.657  43.578  12.132
27070W        W93853  11.745  23.084  13.887
27071W        W93854  16.690  10.159   1.311
27072W        W93855   4.814  27.727   4.429
27073W        W93856  12.178  12.284   3.747
27074W        W93857  31.959  33.485   4.020
27075W        W93858  20.975  44.056  14.900
27076W        W93859   3.729  34.601  11.098
27077W        W93860  21.397  14.778   5.439
27078W        W93861  40.917  29.123  12.005
27079W        W93862  38.781  37.371  14.049
27080W        W93863   8.758   2.794  10.541
27081W        W93864  10.108  30.454   2.991
27082W        W93865   4.402   4.758   1.732
27083W        W93866  34.915  22.207   2.865
27084W        W93867  39.354  42.041  13.472
27085W        W93868  21.226   5.439  11.459
27086W        W93869  13.842  21.245  14.170
27087W        W93870  29.058   5.265   3.525
27088W        W93871  35.358   2.351  14.117
27089W        W93872  18.330  31.806   1.427
27090W        W93873   2.779   0.485   3.079
27091W        W93874  17.851   5.400  14.319
27092W        W93875   5.745  32.997   4.030
27093W        W93876   1.990   0.243   0.997
27094W        W93877  15.799  29.403   2.740
27095W        W93878  25.002  29.576  11.915
27096W        W93879  32.855  35.539   1.400
27097W        W93880  40.401  28.450  11.033
27098W        W93881  14.298  42.015   3.151
27099W        W93882   0.329  10.293   3.686
27100W        W93883  15.728  38.408   4.704
27101W        W93884  17.196  15.020  12.295
27102W        W93885   4.814  29.215   1.413
27103W        W93886  24.122  11.973  12.068
27104W        W93887  21.150   4.492   3.615
27105W        W93888  41.324  34.149  12.547
27106W        W93889  39.386  26.670  13.581
27107W        W93890  33.433  14.680   1.934
27108W        W93891   1.311  44.610   1.181
27109W        W93892  41.577   7.373   0.234
27110W        W93893  21.864  11.504  13.919
27111W        W93894  21.094  38.840   4.571
27112W        W93895   7.741  23.295  13.874
27113W        W93896  15.258   6.619  13.474
27114W        W93897  19.220  29.988   2.408
27115W        W93898  11.557  17.086  11.047
27116W        W93899  30.384  10.947   3.232
27117W        W93900  41.604  36.997   4.847
27118W        W93901  24.895  42.472   4.253
27119W        W93902  15.964  25.702  14.060
27120W        W93903  19.241  12.207  12.769
27121W        W93904  20.303  25.041  10.912
27122W        W93905   0.729  18.113   3.252
27123W        W93906  22.280   1.888   1.185
27124W        W93907  23.470  40.942  11.372
27125W        W93908  15.359  22.570   4.689
27126W        W93909  35.694  39.845  13.942
27127W        W93910  32.516  23.986  13.140
27128W        W93911  38.028  32.127  12.312
27129W        W93912   7.843  23.490  10.259
27130W        W93913   0.903  37.732   0.808
27131W        W93914  39.884  33.055  14.333
27132W        W93915  14.814  16.936   4.165
27133W        W93916  42.535  33.167  13.148
27134W        W93917   9.418  41.589  13.326
27135W        W93918  22.413  41.459   0.871
27136W        W93919  19.725  22.906   1.591
27137W        W93920  41.762   6.245   2.789
27138W        W93921  29.442   7.386   4.257
27139W        W93922  18.770  21.191  10.552
27140W        W93923  18.214   0.949  10.997
27141W        W93924  38.919   2.982  14.987
27142W        W93925  25.530  16.087  13.854
27143W        W93926   4.728  15.194  11.245
27144W        W93927  32.928   2.057   0.474
27145W        W93928  35.410  43.474   2.229
27146W        W93929  26.450   2.981  13.023
27147W        W93930  44.898  17.870  14.316
27148W        W93931  30.632   9.631  13.697
27149W        W93932  27.680  16.680  12.972
27150W        W93933  35.034  26.550  11.584
27151W        W93934   7.314   1.763  11.633
27152W        W93935  33.325  33.583  12.471
27153W        W93936  29.562  41.838  11.178
27154W        W93937   6.186   6.979   0.937
27155W        W93938  39.469  22.250  12.339
27156W        W93939  12.482  18.180  13.374
27157W        W93940  27.252   5.803   2.207
27158W        W93941  20.384  24.264   4.615
27159W        W93942  21.278   0.404   1.134
27160W        W93943  41.947  25.466   0.008
27161W        W93944  28.441  18.682   0.143
27162W        W93945  21.762  26.777  11.551
27163W        W93946  11.280  34.309   2.290
27164W        W93947  23.241  23.742   0.370
27165W        W93948  42.246  44.535   2.775
27166W        W93949   7.884  13.259  11.027
27167W        W93950  36.295  31.085   4.188
27168W        W93951  31.467  38.063   0.801
27169W        W93952  14.898  21.501  13.038
27170W        W93953  30.425  21.228   0.767
27171W        W93954  16.689   1.218  10.520
27172W        W93955   3.524  41.506  11.135
27173W        W93956  18.994  34.896  13.603
27174W        W93957  20.696  16.064   2.282
27175W        W93958   0.061  15.756   3.930
27176W        W93959   5.577  34.658   1.154
27177W        W93960  42.428  22.065   4.793
27178W        W93961  40.766   5.789   3.644
27179W        W93962  28.541  34.834   4.690
27180W        W93963  35.508  27.028  14.818
27181W        W93964  28.943  21.779  11.185
27182W        W93965  34.620  31.333  13.363
27183W        W93966   5.326   5.727  14.312
27184W        W93967  36.517  42.009  11.732
27185W        W93968  41.514  23.106  10.695
27186W        W93969  26.130  11.154   1.917
27187W        W93970  29.640  34.648   0.004
27188W        W93971   7.006  13.733   3.946
27189W        W93972   8.381  35.082  12.042
27190W        W93973  27.160  44.494   1.382
27191W        W93974   5.486  22.260  10.816
27192W        W93975  24.671  27.588  14.049
27193W        W93976  30.463  11.016   4.137
27194W        W93977  13.288   1.889   0.670
27195W        W93978  11.438  44.919  12.605
27196W        W93979   8.337  43.336   1.356
27197W        W93980   9.264  18.522   1.735
27198W        W93981  27.724   9.823   3.753
27199W        W93982  34.952   6.248  11.582
27200W        W93983   3.926   2.552  12.577
27201W        W93984  12.412  24.250  14.890
27202W        W93985   4.890  29.562   2.338
27203W        W93986  39.805  41.216   2.777
27204W        W93987  29.366   6.708  10.694
27205W        W93988   3.002  30.610  11.034
27206W        W93989  15.935  15.584   1.143
27207W        W93990  10.585  14.842  12.037
27208W        W93991  39.913  41.750   2.759
27209W        W93992   2.422  30.091  12.507
27210W        W93993  21.664  35.603  13.339
27211W        W93994  24.982  26.711   4.535
27212W        W93995  19.100  12.296  12.281
27213W        W93996  41.409  43.646  11.586
27214W        W93997  43.606   7.920  12.493
27215W        W93998   8.737   0.056   4.635
27216W        W93999  10.275  41.473  11.787
27217W        W94000  42.432  22.030  11.530
27218W        W94001  19.529  10.279  13.639
27219W        W94002  44.987  15.307  11.108
27220W        W94003  44.916  38.005   0.473
27221W        W94004   4.186   0.552   4.208
27222W        W94005   1.352  28.689  12.930
27223W        W94006   0.798  11.808   4.104
27224W        W94007  25.250  33.308  11.970
27225W        W94008  31.139  36.032   2.182
27226W        W94009  18.982  29.396  13.749
27227W        W94010  39.120  32.485  14.750
27228W        W94011   4.195  31.334   2.740
27229W        W94012   8.170  32.996   3.328
27230W        W94013  32.021  23.934  10.994
27231W        W94014  39.062  42.482   0.272
27232W        W94015   6.389  28.741   2.310
27233W        W94016  42.001  10.863  14.892
27234W        W94017  43.795  24.817  10.576
27235W        W94018  30.364  31.985  10.519
27236W        W94019  18.828   2.356   2.566
27237W        W94020  27.180  41.528   1.328
27238W        W94021   3.874  39.038   3.799
27239W        W94022   0.725  29.121  12.506
27240W        W94023  39.066  27.150   3.955
27241W        W94024  13.829  38.984  14.875
27242W        W94025  41.571   7.130   1.276
27243W        W94026  24.665  16.965  14.961
27244W        W94027   9.256  26.901  12.897
27245W        W94028  10.041   6.322   1.158
27246W        W94029  28.084  10.749  14.927
27247W        W94030   8.316  35.864  11.601
27248W        W94031  35.025   3.272  14.498
27249W        W94032  33.918  38.777  13.833
27250W        W94033  31.545  21.262  14.423
27251W        W94034   6.667  26.071   4.100
27252W        W94035   7.694  37.592  14.940
27253W        W94036  42.357  34.934   2.171
27254W        W94037  12.739  26.458   4.951
27255W        W94038  22.558  24.493   1.240
27256W        W94039  26.238  17.041   2.664
27257W        W94040  13.725  38.199   1.259
27258W        W94041   9.254  13.159   2.655
27259W        W94042   8.377  15.099   0.354
27260W        W94043   4.354   9.646  13.648
27261W        W94044  44.927   1.986  12.017
27262W        W94045  24.394  29.022   3.691
27263W        W94046  14.802   6.738   1.694
27264W        W94047   1.046  25.979  11.550
27265W        W94048   0.784  33.084   1.365
27266W        W94049  28.853   0.959   4.149
27267W        W94050   6.766  15.102   2.758
27268W        W94051   1.381  37.848  10.935
27269W        W94052  26.276  38.563  12.348
27270W        W94053   2.304  41.462   2.429
27271W        W94054  34.391  34.134   3.880
27272W        W94055   5.253   1.220   0.797
27273W        W94056  31.430  28.724  12.094
27274W        W94057  31.388  17.347   4.121
27275W        W94058  14.938  43.798  12.541
27276W        W94059   0.922  33.632   3.940
27277W        W94060   9.439   7.100   1.203
27278W        W94061  33.411   4.433  13.986
27279W        W94062  10.587   1.390   3.686
27280W        W94063  13.654  34.226   2.260
27281W        W94064  41.707   7.156  14.803
27282W        W94065  22.810  44.281   4.044
27283W        W94066   7.935  35.980  11.214
27284W        W94067  15.243  29.778  13.947
27285W        W94068   0.054   7.681   4.139
27286W        W94069  36.938  26.449  13.354
27287W        W94070  19.559   0.997   3.217
27288W        W94071  18.469  34.915  13.459
27289W        W94072  13.643   7.943  14.481
27290W        W94073  41.279  17.304   1.500
27291W        W94074   2.739  13.240  13.756
27292W        W94075  31.849  30.534  12.014
27293W        W94076  23.209  22.006   4.067
27294W        W94077  21.710  20.691   0.907
27295W        W94078  43.258  28.546   4.743
27296W        W94079   2.714   0.008   2.621
27297W        W94080  21.249  16.522  13.527
27298W        W94081  35.518   4.307  12.374
27299W        W94082   7.536  28.104  10.772
27300W        W94083   8.178  33.320  12.557
27301W        W94084  10.334  23.645   3.728
27302W        W94085  15.156  11.343   3.100
27303W        W94086   1.686  32.986  12.059
27304W        W94087  41.517  30.198   1.358
27305W        W94088  11.188  16.334   3.289
27306W        W94089   6.153  26.281  14.083
27307W        W94090  19.827  39.788  12.405
27308W        W94091  24.640  37.037   2.283
27309W        W94092  42.466  42.326   3.676
27310W        W94093  32.666   0.755   3.573
27311W        W94094  34.720  28.366   0.992
27312W        W94095   9.346  27.918  12.601
27313W        W94096   2.966   5.443   3.333
27314W        W94097   4.870   4.958   0.988
27315W        W94098  40.495  37.442  13.352
27316W        W94099  23.551  20.199   1.367
27317W        W94100  38.355  17.629   3.887
27318W        W94101  16.747  26.358   0.873
27319W        W94102  36.393  18.006  11.102
27320W        W94103  28.943  36.943   4.208
27321W        W94104  17.500   4.884   0.327
27322W        W94105  29.315  25.613  13.833
27323W        W94106  26.141  17.668   0.466
27324W        W94107   3.028  39.101  13.852
27325W        W94108  11.295   0.542   4.567
27326W        W94109  25.112  21.921  13.329
27327W        W94110  15.679  24.148   2.190
27328W        W94111   0.893   9.311   0.299
27329W        W94112  34.733  29.873   0.459
27330W        W94113  22.620  21.809  14.505
27331W        W94114  17.884  38.573   4.093
27332W        W94115  15.357  12.245   4.021
27333W        W94116   3.198   9.821   3.065
27334W        W94117   4.511  39.857  10.664
27335W        W94118  34.429  27.263   0.298
27336W        W94119  19.806   8.390   4.188
27337W        W94120  38.029  16.054   1.789
27338W        W94121  22.500  31.541  11.300
27339W        W94122  14.209  10.088  13.920
27340W        W94123  31.218  10.381   3.853
27341W        W94124  16.120  39.437   1.961
27342W        W94125  19.584  17.239   4.385
27343W        W94126  30.941   4.208  14.820
27344W        W94127  30.419  35.663  11.625
27345W        W94128  32.888  38.369  12.756
27346W        W94129  18.673  38.118  12.967
27347W        W94130  17.211  36.476   3.753
27348W        W94131  42.540   9.704   2.002
27349W        W94132  32.670  44.823  12.234
27350W        W94133   5.359  29.692   4.227
27351W        W94134  22.277  30.993   2.282
27352W        W94135   9.703   0.918   4.160
27353W        W94136  43.273  32.287  12.604
27354W        W94137   5.103  19.375  13.586
27355W        W94138  17.728  35.953   0.745
27356W        W94139  21.706  12.268   4.105
27357W        W94140   8.869  22.551  13.944
27358W        W94141   4.513   4.895  13.367
27359W        W94142  16.996   7.374   3.761
27360W        W94143  19.583  39.134   4.074
27361W        W94144  44.495  28.168   4.157
27362W        W94145  43.393  42.031   2.366
27363W        W94146  15.565  35.966  11.636
27364W        W94147  34.171  22.674   2.867
27365W        W94148  38.960  29.505  14.357
27366W        W94149  17.066  23.785  13.126
27367W        W94150   3.242  17.041  12.492
27368W        W94151  21.525  41.955   0.554
27369W        W94152  32.410  10.772  13.847
27370W        W94153  37.046  25.060  13.547
27371W        W94154  41.592  31.549  11.052
27372W        W94155   1.462  38.825  12.605
27373W        W94156  37.085  13.821   2.751
27374W        W94157  16.191   6.504  11.215
27375W        W94158  28.733  39.420   0.768
27376W        W94159   7.841  37.891   1.291
27377W        W94160  40.241  23.296   1.899
27378W        W94161  21.632  24.707  11.634
27379W        W94162   3.097  22.536  11.547
27380W        W94163  23.438  18.604  14.673
27381W        W94164  13.119  21.812  10.475
27382W        W94165   9.128  10.629  11.548
27383W        W94166  27.308  15.343  11.595
27384W        W94167  28.421  20.079   1.712
27385W        W94168  38.806  23.525   3.273
27386W        W94169  14.132   7.651   4.195
27387W        W94170   9.145  25.614  11.123
27388W        W94171  21.214   4.992  14.532
27389W        W94172  42.058  24.771  13.425
27390W        W94173   5.848  11.344   3.773
27391W        W94174  23.603  39.301   3.772
27392W        W94175   3.843   8.404  11.072
27393W        W94176  31.167  11.297  14.610
27394W        W94177  38.140   3.036   2.235
27395W        W94178  43.467  37.997   2.240
27396W        W94179  25.111  42.499   0.306
27397W        W94180  17.752  26.614   2.354
27398W        W94181   1.799  32.690  12.788
27399W        W94182  29.638  30.208   2.655
27400W        W94183  13.074   1.915   3.317
27401W        W94184  26.734  36.622   4.525
27402W        W94185  19.562  24.586   2.095
27403W        W94186  40.359  16.692   1.291
27404W        W94187   8.234  35.173   1.104
27405W        W94188  40.515  29.523  11.194
27406W        W94189  25.678  36.590  11.556
27407W        W94190  39.428  34.692   4.679
27408W        W94191  43.488  27.998  13.335
27409W        W94192  20.543  29.665   4.200
27410W        W94193   8.294  38.024   0.438
27411W        W94194  40.806   3.206   2.860
27412W        W94195  25.479  25.123   0.388
27413W        W94196  28.660  41.996  11.491
27414W        W94197   3.163  21.252   0.328
27415W        W94198   2.304  13.409  11.995
27416W        W94199  15.095  33.560   3.833
27417W        W94200  41.531   9.750  14.555
27418W        W94201   4.696  12.613  14.982
27419W        W94202  31.553  29.606  11.584
27420W        W94203  32.009  41.575  13.563
27421W        W94204  19.267  43.255   3.761
27422W        W94205   8.872  31.921   3.529
27423W        W94206  23.333   4.035   5.094
27424W        W94207  23.947  44.828  14.107
27425W        W94208  23.207  15.335   0.460
27426W        W94209  38.988  32.718  12.008
27427W        W94210  21.158  20.083  13.381
27428W        W94211   7.577  23.157   1.697
27429W        W94212  16.665   9.633   2.246
27430W        W94213  28.825  36.531  10.963
27431W        W94214   5.803  25.106  12.891
27432W        W94215  22.301  24.635   2.734
27433W        W94216  29.537  10.847  14.829
27434W        W94217  36.864  42.519  12.370
27435W        W94218  29.158   2.403   1.425
27436W        W94219  33.648  11.905   4.761
27437W        W94220  36.575   3.615   2.890
27438W        W94221  25.243   9.956   0.475
27439W        W94222  32.084  29.364   1.312
27440W        W94223  13.093   6.839  13.564
27441W        W94224   9.948  28.538   4.811
27442W        W94225  18.249  19.840   1.832
27443W        W94226  21.339  35.864   2.257
27444W        W94227  35.516  35.591  13.450
27445W        W94228   5.828  36.002  11.801
27446W        W94229  39.227  22.052  11.934
27447W        W94230  19.124  33.853  12.409
27448W        W94231  30.211  27.997   3.526
27449W        W94232  28.839   9.914  14.296
27450W        W94233  21.522  44.479   1.465
27451W        W94234  36.795  19.438  14.335
27452W        W94235   1.826  23.797  14.263
27453W        W94236   1.356  30.452   0.738
27454W        W94237   7.675  14.786   0.803
27455W        W94238  24.168  40.836  13.102
27456W        W94239  35.971  31.607  13.257
27457W        W94240  20.758  39.247  12.357
27458W        W94241  11.632  14.882   4.503
27459W        W94242   3.959  14.606   2.183
27460W        W94243  14.640  42.409   1.775
27461W        W94244  26.629  24.405  12.019
27462W        W94245  33.570  14.331   3.705
27463W        W94246  38.563   3.364  14.845
27464W        W94247  22.068  10.840   2.701
27465W        W94248   1.273  30.661  12.170
27466W        W94249  35.574  20.631   1.350
27467W        W94250   1.767  28.527   3.266
27468W        W94251  16.637  10.289  10.481
27469W        W94252  27.094   5.758   3.538
27470W        W94253  36.811  30.905   1.907
27471W        W94254  16.718   9.877   1.755
27472W        W94255   8.998  36.629  11.450
27473W        W94256  43.291  17.394  10.221
27474W        W94257   9.966   5.817   1.832
27475W        W94258  23.709  27.081  14.275
27476W        W94259  29.324  21.029   4.364
27477W        W94260  41.040  31.078   3.627
27478W        W94261  44.931  42.520   4.883
27479W        W94262  34.612  26.977   1.397
27480W        W94263  43.981  43.387  12.459
27481W        W94264  13.132  44.857  12.868
27482W        W94265  11.648  23.259   4.544
27483W        W94266  25.924   9.357   1.924
27484W        W94267  10.622  42.283   4.559
27485W        W94268  18.770  25.040   3.250
27486W        W94269  39.661  17.067   2.813
27487W        W94270  12.154  39.127   2.384
27488W        W94271  44.765  27.369  12.142
27489W        W94272  26.920  27.215   3.584
27490W        W94273  33.000  29.087   0.935
27491W        W94274  19.801  34.876   1.272
27492W        W94275  44.104   1.929  13.083
27493W        W94276  14.507   1.466  11.547
27494W        W94277   6.303   3.057  11.586
27495W        W94278  44.742  18.660   2.859
27496W        W94279  38.869  26.667  13.472
27497W        W94280  24.532  12.633  11.176
27498W        W94281  42.995  23.626  11.679
27499W        W94282  38.345  40.625   2.316
27500W        W94283  29.211   1.846   4.340
27501W        W94284  39.446  32.387   0.497
27502W        W94285   6.249   1.933  10.978
27503W        W94286  31.299   1.786  11.107
27504W        W94287   3.384  15.801  10.370
27505W        W94288  28.004  34.475  14.253
27506W        W94289   1.776  10.289   2.848
27507W        W94290  40.031  11.041  12.883
27508W        W94291  18.712  18.594  14.049
27509W        W94292  22.092  10.662  13.422
27510W        W94293  18.594  10.754   1.811
27511W        W94294   0.065  29.197   0.296
27512W        W94295  33.402   5.388  12.164
27513W        W94296   9.841  43.866   3.807
27514W        W94297  14.883  42.563  11.819
27515W        W94298   1.318  43.252   3.028
27516W        W94299   7.298   7.436  12.952
27517W        W94300   0.610  18.588  11.232
27518W        W94301  16.876  43.914   0.439
27519W        W94302  35.357  14.857  14.035
27520W        W94303   7.840  24.776   3.697
27521W        W94304  42.079   8.848   2.152
27522W        W94305  43.855  30.965   2.685
27523W        W94306  15.173   9.866  14.380
27524W        W94307   5.202  11.833   0.183
27525W        W94308  39.852   1.896  13.890
27526W        W94309  23.222  10.812   1.315
27527W        W94310  25.731   5.391   2.865
27528W        W94311  42.928  38.531   3.239
27529W        W94312   5.293  35.421  13.435
27530W        W94313  11.226  38.845   4.118
27531W        W94314  44.394  32.583   4.527
27532W        W94315  27.932   6.203  12.077
27533W        W94316  23.893  19.530  14.928
27534W        W94317  27.104  28.770  12.428
27535W        W94318  38.859   6.626   2.027
27536W        W94319  18.384  29.082   0.724
27537W        W94320  31.921  40.186   1.671
27538W        W94321   0.717   4.419  12.885
27539W        W94322  21.523   0.049  12.035
27540W        W94323  38.341  28.155  10.659
27541W        W94324  15.264  13.305   4.126
27542W        W94325  32.857  25.047  11.529
27543W        W94326   2.904  23.696   4.240
27544W        W94327  25.145  28.492   1.199
27545W        W94328  40.894  10.089  10.626
27546W        W94329  36.161  23.518   0.718
27547W        W94330   4.344  32.064   3.855
27548W        W94331  36.353  36.605   1.879
27549W        W94332  40.008   0.693   1.802
27550W        W94333  15.302  20.031  13.452
27551W        W94334  37.580  30.615   1.425
27552W        W94335   3.309  39.946   3.427
27553W        W94336   7.025  14.985  13.999
27554W        W94337  33.889  37.270   0.267
27555W        W94338  42.007   8.160  12.888
27556W        W94339  34.114  10.546   0.491
27557W        W94340  20.735  13.373   2.007
27558W        W94341   6.830  39.972  11.427
27559W        W94342  16.138  41.473  14.844
27560W        W94343  30.096  21.276  13.354
27561W        W94344  32.533  14.299   4.151
27562W        W94345  10.779  38.891  12.539
27563W        W94346  12.385   9.446   0.535
27564W        W94347  43.871  35.099  13.163
27565W        W94348   4.104  17.534  12.539
27566W        W94349   5.653  41.996  12.045
27567W        W94350   2.445  12.595   0.317
27568W        W94351  17.047  21.037   4.543
27569W        W94352  33.775  29.025  12.152
27570W        W94353  14.279   9.898  12.968
27571W        W94354  26.460   1.801   2.463
27572W        W94355  24.448  17.529  10.640
27573W        W94356  13.697  43.260   1.322
27574W        W94357  35.059  22.431  13.818
27575W        W94358   5.198  28.611  11.668
27576W        W94359  15.408  42.546  11.877
27577W        W94360  25.215  33.805  11.898
27578W        W94361  11.334  15.586   0.401
27579W        W94362  10.652  24.745   2.186
27580W        W94363  22.104  34.386  13.287
27581W        W94364  28.033  20.849   4.519
27582W        W94365  17.770  17.715  10.674
27583W        W94366  24.248  36.926  14.826
27584W        W94367  30.702  18.819   1.306
27585W        W94368  19.455   1.302  12.864
27586W        W94369   8.953  41.767  11.290
27587W        W94370   5.793   6.356  13.455
27588W        W94371  38.890  12.881  12.897
27589W        W94372  12.664  31.277   1.707
27590W        W94373  27.151  19.253   3.403
27591W        W94374  11.836   2.360   0.600
27592W        W94375  21.038  10.306  14.689
27593W        W94376   7.851  39.794   4.092
27594W        W94377  18.076  17.502  13.919
27595W        W94378  13.245  19.639   2.402
27596W        W94379  22.224   6.550  11.866
27597W        W94380  11.752   5.351   1.477
27598W        W94381  38.870  40.657  14.460
27599W        W94382   3.311   1.404   3.835
27600W        W94383  40.872  35.867   2.571
27601W        W94384  43.926  14.717  12.129
27602W        W94385  41.347  40.288  11.263
27603W        W94386  16.237  26.611   3.581
27604W        W94387   4.489   6.114   3.639
27605W        W94388   0.811  16.785   3.705
27606W        W94389   2.973  19.069   0.584
27607W        W94390  24.461   1.861  10.717
27608W        W94391  27.022  27.404   0.315
27609W        W94392  25.247  35.490   2.161
27610W        W94393  19.330  35.372   0.663
27611W        W94394  22.033  19.541   0.321
27612W        W94395  38.846  25.694  14.274
27613W        W94396   5.726  27.992  11.944
27614W        W94397   1.557  10.849   3.677
27615W        W94398   0.670  14.575  14.974
27616W        W94399  12.606  32.477   0.873
27617W        W94400  37.815  21.733   0.564
27618W        W94401   1.206  41.933   3.215
27619W        W94402  40.773   9.166   1.690
27620W        W94403  29.549  18.728  10.764
27621W        W94404  15.589  36.131  12.612
27622W        W94405  24.992  21.925   2.575
27623W        W94406  23.704  30.724  11.041
27624W        W94407  19.496  20.532  11.143
27625W        W94408  38.406  20.967   0.747
27626W        W94409  20.633   1.285  12.838
27627W        W94410   7.315  44.281   9.879
27628W        W94411  39.510  24.790   2.217
27629W        W94412  17.510   7.845   3.082
27630W        W94413  23.917  41.257  12.942
27631W        W94414   2.203   2.825  12.682
27632W        W94415  24.943  37.159   3.720
27633W        W94416  20.687  30.139  11.090
27634W        W94417   8.925  17.848  11.421
27635W        W94418   4.635  18.098  13.052
27636W        W94419  41.958  43.378   1.303
27637W        W94420  15.256  18.015  13.405
27638W        W94421  14.749   3.820   2.760
27639W        W94422  24.452  12.864   4.614
27640W        W94423  29.475  36.268   0.503
27641W        W94424   0.143  10.741  13.314
27642W        W94425   2.118  29.405  11.521
27643W        W94426  18.830   5.483   4.487
27644W        W94427   0.763   7.662   1.415
27645W        W94428  39.227  32.986   3.110
27646W        W94429  22.017   7.903   4.232
27647W        W94430  37.003  32.042  13.332
27648W        W94431  17.630  42.107   3.209
27649W        W94432  13.242   2.048   3.783
27650W        W94433  36.320  42.083  13.844
27651W        W94434  22.091  22.875   2.721
27652W        W94435  14.309  25.136  12.864
27653W        W94436   1.860  17.232  14.781
27654W        W94437   3.540   6.390   3.843
27655W        W94438   5.973  38.324   4.888
27656W        W94439   7.496   2.030   2.336
27657W        W94440  30.995   9.711   1.996
27658W        W94441   7.282  23.099   4.863
27659W        W94442  34.558  32.700  14.418
27660W        W94443  30.540   3.407   1.370
27661W        W94444   2.782  23.015  12.948
27662W        W94445  23.153  36.914  12.271
27663W        W94446  14.133  42.501   1.351
27664W        W94447  11.172   2.325  10.651
27665W        W94448  13.803  14.678  13.418
27666W        W94449  24.633  34.052   4.629
27667W        W94450  43.673  26.962  10.364
27668W        W94451  20.099  24.682   2.156
27669W        W94452  26.468  11.911  14.387
27670W        W94453  17.593  42.462  11.523
27671W        W94454  10.541  31.123   2.370
27672W        W94455  20.285   6.174   2.786
27673W        W94456  11.208  43.768  10.643
27674W        W94457  27.606  10.394  10.711
27675W        W94458  32.257  43.458   3.378
27676W        W94459  24.487  19.038  11.562
27677W        W94460  38.961  23.239  13.911
27678W        W94461  15.393  37.055   1.307
27679W        W94462  23.422  37.017   2.626
27680W        W94463   7.349  37.857   1.793
27681W        W94464   3.590  26.359  14.301
27682W        W94465   9.216  39.336   2.845
27683W        W94466  13.787  22.698   2.220
27684W        W94467  24.240   5.602   2.778
27685W        W94468  23.703   4.819   1.617
27686W        W94469  31.432  25.572  12.441
27687W        W94470  17.764  19.120  10.970
27688W        W94471  24.017   8.293  14.270
27689W        W94472   4.730  42.451  13.454
27690W        W94473   8.379   7.920   1.793
27691W        W94474  43.918   2.337  12.824
27692W        W94475  41.094  24.076   1.937
27693W        W94476   1.835  15.554  11.103
27694W        W94477  17.794  37.491  14.046
27695W        W94478  26.665  28.833  10.292
27696W        W94479  13.042  16.457  11.208
27697W        W94480   6.922  14.271  14.847
27698W        W94481  38.427  15.649  11.223
27699W        W94482   6.246   9.991  12.882
27700W        W94483   8.165   5.239  13.899
27701W        W94484  34.893   6.063  12.048
27702W        W94485  26.900  34.296   3.838
27703W        W94486  28.662  25.768  12.325
27704W        W94487  21.711  39.204   2.305
27705W        W94488  25.534  44.359   0.873
27706W        W94489  39.460   2.043   1.415
27707W        W94490  29.643  40.336  12.581
27708W        W94491   1.252  15.829  14.826
27709W        W94492  13.365  39.778  14.695
27710W        W94493  11.180   7.354   1.857
27711W        W94494   6.852  20.852  11.673
27712W        W94495  18.002  37.969   1.737
27713W        W94496  29.512  31.686  12.969
27714W        W94497  28.445  41.301   3.242
27715W        W94498   7.609  16.380   0.255
27716W        W94499   8.725  43.265   0.836
27717W        W94500  14.143  39.492   3.590
27718W        W94501  41.361  21.030   1.382
27719W        W94502   8.309  13.317   1.916
27720W        W94503  11.136  11.669   3.263
27721W        W94504   9.476  35.884   3.478
27722W        W94505   7.699  16.334   0.767
27723W        W94506   4.312  29.343   1.435
27724W        W94507  21.293  15.185  12.021
27725W        W94508  11.282  39.263   3.796
27726W        W94509  24.004   1.273   1.438
27727W        W94510   8.257  19.496  11.277
27728W        W94511  25.189  34.782   4.665
27729W        W94512  36.958  42.376   0.515
27730W        W94513   6.971  13.161  12.585
27731W        W94514  36.237  15.571  14.845
27732W        W94515  35.579  44.328   4.643
27733W        W94516  36.723  29.178  12.838
27734W        W94517  42.272  37.373   2.242
27735W        W94518  39.889  38.314  12.662
27736W        W94519  21.125  38.116  10.551
27737W        W94520  41.577  30.135  14.789
27738W        W94521  13.635   5.275   0.767
27739W        W94522  15.010  41.135  11.592
27740W        W94523  10.839  28.971  10.708
27741W        W94524  25.584  37.454  14.853
27742W        W94525  26.943   1.943   2.663
27743W        W94526  26.622  10.204  14.975
27744W        W94527  16.715  31.452  14.415
27745W        W94528  25.540  40.372  14.567
27746W        W94529  43.324  39.256  12.039
27747W        W94530   9.287   5.700  10.542
27748W        W94531  19.618  37.269   1.343
27749W        W94532  42.736  43.348  13.558
27750W        W94533  27.479  17.182  13.007
27751W        W94534  22.615  20.680   1.386
27752W        W94535   6.445  15.662   1.251
27753W        W94536   7.723  11.052  13.106
27754W        W94537   9.276  39.279  13.305
27755W        W94538   6.799  22.000   3.570
27756W        W94539  43.433  31.232   0.544
27757W        W94540  30.057  19.307   4.229
27758W        W94541  43.053   8.808   2.330
27759W        W94542  24.680  22.341  11.572
27760W        W94543  21.527  23.545   1.465
27761W        W94544  13.780  14.249  14.972
27762W        W94545  42.608  33.461  13.571
27763W        W94546  24.735   3.273  11.658
27764W        W94547  40.450  10.091  13.451
27765W        W94548   8.772  19.125  12.030
27766W        W94549   8.147   8.335   2.696
27767W        W94550  18.573   3.885  10.969
27768W        W94551  37.436  40.170   4.569
27769W        W94552  33.459   2.474  11.097
27770W        W94553  35.373  15.551   3.337
27771W        W94554   0.841   1.492   0.476
27772W        W94555  22.575  29.674  14.847
27773W        W94556  28.594  26.607   2.862
27774W        W94557  43.350  24.374  11.170
27775W        W94558  34.313  39.865  12.921
27776W        W94559  28.959   9.720  13.432
27777W        W94560  12.618   8.626   3.217
27778W        W94561  25.493  15.896   1.253
27779W        W94562  37.531  23.157   3.287
27780W        W94563   7.276   4.687   1.285
27781W        W94564  12.842  13.033  13.168
27782W        W94565  19.578  16.874  14.414
27783W        W94566  39.688  10.620  13.564
27784W        W94567  35.780  24.716  14.937
27785W        W94568  26.965  24.551  11.096
27786W        W94569  43.296  11.593   4.670
27787W        W94570   0.676  28.096   0.009
27788W        W94571  29.938  35.048   3.770
27789W        W94572  41.823  40.604  12.063
27790W        W94573   6.092   5.766  11.334
27791W        W94574  25.487  34.048   1.929
27792W        W94575  14.225  13.354   1.174
27793W        W94576  21.247  21.656  11.991
27794W        W94577   0.054   2.728   2.483
27795W        W94578  41.012  14.637   0.944
27796W        W94579  21.487   7.178  13.126
27797W        W94580   3.580   7.719   4.590
27798W        W94581  19.264  37.388   1.677
27799W        W94582  40.164   1.929   3.572
27800W        W94583  29.155  42.829  11.870
27801W        W94584  17.733  35.313  12.260
27802W        W94585  28.896   7.681  13.893
27803W        W94586  32.195  25.247  12.783
27804W        W94587  11.305  32.497   0.336
27805W        W94588  19.090  33.570   0.040
27806W        W94589  23.577  13.129   3.232
27807W        W94590  14.883  39.140   3.222
27808W        W94591  33.941   9.626  13.518
27809W        W94592  17.218   5.296  12.526
27810W        W94593   3.073  32.118  13.524
27811W        W94594  13.639   8.449   0.311
27812W        W94595  32.590  14.507  13.318
27813W        W94596  28.532  23.905   0.870
27814W        W94597   5.658  12.341  14.988
27815W        W94598  19.648  11.655  13.500
27816W        W94599  33.139  12.398   1.286
27817W        W94600  41.201   6.929   1.696
27818W        W94601   3.818  35.182   2.780
27819W        W94602   5.612   1.668  13.607
27820W        W94603  20.128   1.945   2.667
27821W        W94604  39.093  24.729  13.411
27822W        W94605  17.521   8.075  12.579
27823W        W94606   4.104  12.172   1.320
27824W        W94607   6.126   1.435   0.860
27825W        W94608  37.594  20.704  11.622
27826W        W94609  39.629  36.803  12.756
27827W        W94610   8.607  36.383  14.864
27828W        W94611  28.368  31.958   9.940
27829W        W94612  44.360   2.451   3.751
27830W        W94613  40.083  28.595   1.414
27831W        W94614   8.334  16.853   1.241
27832W        W94615  38.846  11.319   2.170
27833W        W94616  42.912  38.490  10.682
27834W        W94617  18.828  27.405   2.703
27835W        W94618  23.480   4.370   2.941
27836W        W94619  44.291  28.189  14.986
27837W        W94620  20.765  10.980  11.055
27838W        W94621  17.645  28.509   0.734
27839W        W94622  26.124  33.433   4.459
27840W        W94623  31.560  17.301   0.023
27841W        W94624  31.922  18.955  14.271
27842W        W94625   3.959   2.451   0.021
27843W        W94626  34.896  28.248  12.084
27844W        W94627   7.736  38.359   1.479
27845W        W94628  12.436  10.675   2.798
27846W        W94629  38.015  40.360   2.602
27847W        W94630  33.687  31.915  11.129
27848W        W94631  44.478  20.314   1.929
27849W        W94632  28.304  19.578  13.076
27850W        W94633  40.046  19.987  11.466
27851W        W94634  31.007   5.417  13.022
27852W        W94635  32.959  20.836   1.177
27853W        W94636  33.539  31.555   1.304
27854W        W94637  39.296  31.408  12.128
27855W        W94638  25.770   2.102  13.203
27856W        W94639  16.341  28.443   2.422
27857W        W94640  40.712  29.056   0.815
27858W        W94641  26.967  35.003   1.823
27859W        W94642   1.545  35.990   1.753
27860W        W94643  13.808  28.431   3.561
27861W        W94644  16.858   2.359   4.608
27862W        W94645  41.540  37.659   1.723
27863W        W94646  22.605  29.421   3.333
27864W        W94647  43.135  14.620  12.547
27865W        W94648   9.065  28.800   4.985
27866W        W94649   9.297  20.723   0.777
27867W        W94650  42.307  29.926   0.796
27868W        W94651   6.468  28.227   2.297
27869W        W94652  21.783  41.812  14.801
27870W        W94653  18.834  34.010   1.433
27871W        W94654  12.636   6.165   3.697
27872W        W94655  19.513  27.139   1.370
27873W        W94656  16.617   7.497   2.768
27874W        W94657  25.212  36.395   4.660
27875W        W94658  36.954  35.128   2.206
27876W        W94659  20.804   1.914  14.472
27877W        W94660  35.977  20.938  11.577
27878W        W94661  20.057  44.495   0.707
27879W        W94662  23.872  20.793  14.416
27880W        W94663   0.470  17.034  14.833
27881W        W94664  40.402  14.979   3.264
27882W        W94665   8.376  18.350  10.724
27883W        W94666  26.646   2.563   0.765
27884W        W94667  44.796  32.954  10.459
27885W        W94668  41.215  29.525   4.501
27886W        W94669  16.397  16.710   1.289
27887W        W94670  30.866  16.568   0.938
27888W        W94671  11.646   9.903  13.039
27889W        W94672  39.055   8.959   2.366
27890W        W94673  13.488  35.812  10.249
27891W        W94674  37.225  20.574   4.252
27892W        W94675  12.957   2.754   1.432
27893W        W94676  22.547  11.394   2.681
27894W        W94677   3.810  28.847  11.139
27895W        W94678  16.858  19.191  14.499
27896W        W94679  26.453  28.398   4.142
27897W        W94680  41.892  14.887   1.727
27898W        W94681  36.151  32.359  12.616
27899W        W94682  29.034  33.359  14.801
27900W        W94683  38.680  12.289  14.707
27901W        W94684  38.200   5.331  14.252
27902W        W94685  14.343  32.526  11.061
27903W        W94686  25.914  32.916  11.181
27904W        W94687  16.209  28.917  13.277
27905W        W94688  38.844   2.648  14.591
27906W        W94689  38.568  15.599  13.826
27907W        W94690  24.710   1.690  12.498
27908W        W94691  39.960   0.331   1.405
27909W        W94692  27.617  31.976   3.161
27910W        W94693  35.580  41.007  12.089
27911W        W94694  23.250  14.222  14.489
27912W        W94695  44.006   5.752  14.967
27913W        W94696  21.290  43.977  14.492
27914W        W94697  39.789   8.458   3.813
27915W        W94698   1.691   2.406   4.342
27916W        W94699   0.422   1.361   0.224
27917W        W94700  22.009  39.765  10.895
27918W        W94701  36.489   2.660   2.546
27919W        W94702  24.512  11.395   5.054
27920W        W94703   7.277  13.288   4.031
27921W        W94704  36.721  24.202   2.801
27922W        W94705   7.908  32.072   2.422
27923W        W94706  28.958  25.708   0.336
27924W        W94707  35.923  29.266  11.623
27925W        W94708  12.835  21.740  14.114
27926W        W94709  14.256  27.970  10.735
27927W        W94710  11.231  14.338   3.270
27928W        W94711  38.266  31.977   4.345
27929W        W94712  42.455  40.942   4.735
27930W        W94713   2.249   6.286  12.055
27931W        W94714  35.113  39.454  12.887
27932W        W94715   4.436  39.675   4.114
27933W        W94716  16.109  21.717   2.010
27934W        W94717   7.889  28.423  10.478
27935W        W94718  44.479   2.249  12.041
27936W        W94719  30.628  33.104  11.823
27937W        W94720   3.653  16.068  12.904
27938W        W94721  18.166  20.674   4.460
27939W        W94722   0.343  38.484  14.842
27940W        W94723  33.569  14.192   1.737
27941W        W94724   5.917  21.601  13.281
27942W        W94725  18.977  41.832   2.263
27943W        W94726   2.777   3.913   3.240
27944W        W94727  29.213  39.912  10.023
27945W        W94728  21.069  29.849   4.202
27946W        W94729  37.474  14.852   3.284
27947W        W94730   8.716  25.952  11.177
27948W        W94731  38.417   9.183   3.812
27949W        W94732  38.404  33.126   4.849
27950W        W94733  33.091  18.258   2.822
27951W        W94734  32.604  41.263   3.902
27952W        W94735  20.686   4.908  12.125
27953W        W94736  13.336  10.047   3.250
27954W        W94737  11.641  39.282   3.391
27955W        W94738  38.413   0.912   4.585
27956W        W94739  14.748   2.733   2.193
27957W        W94740  18.127  14.158  11.241
27958W        W94741  30.210   1.075   1.974
27959W        W94742  40.214  16.666  11.929
27960W        W94743   3.758  21.658  14.071
27961W        W94744  34.286  28.645   0.924
27962W        W94745  30.338  20.174   1.754
27963W        W94746  35.125   2.026   4.878
27964W        W94747  12.879  11.607  14.897
27965W        W94748  10.359   8.908   2.832
27966W        W94749  17.526   9.360  11.896
27967W        W94750  34.108  16.813   0.397
27968W        W94751  41.003   4.721  13.306
27969W        W94752  22.415  16.828   1.907
27970W        W94753  44.175  26.912  10.481
27971W        W94754  42.048  28.478   2.314
27972W        W94755  43.407  12.748   0.673
27973W        W94756   9.745  36.866  12.070
27974W        W94757  37.172   1.791   4.188
27975W        W94758   1.926  23.080   4.222
27976W        W94759   7.883  40.236  11.117
27977W        W94760  13.548   4.987  14.579
27978W        W94761  38.469   6.330  13.068
27979W        W94762  11.712  14.845  11.925
27980W        W94763  17.334  16.573  13.901
27981W        W94764   1.502  38.919   0.948
27982W        W94765  42.067  18.113  12.654
27983W        W94766  16.106   6.971   4.322
27984W        W94767  43.951  32.116  14.778
27985W        W94768   1.280  36.019   1.295
27986W        W94769  37.305   5.063   3.665
27987W        W94770  29.910   4.756  14.296
27988W        W94771  18.757  32.883  14.276
27989W        W94772  33.878  34.110  13.331
27990W        W94773  30.542  28.613  14.110
27991W        W94774  30.578  44.718  13.204
27992W        W94775  11.604  18.223  12.846
27993W        W94776  41.542  25.373   3.666
27994W        W94777  43.855   3.497   0.385
27995W        W94778  16.071   3.355  10.757
27996W        W94779  17.793  13.544   5.356
27997W        W94780  20.936  38.978   1.846
27998W        W94781  17.058  20.693   3.709
27999W        W94782  19.314  15.982  14.237
28000W        W94783  40.929  29.486   0.524
28001W        W94784  24.185   7.806   1.263
28002W        W94785  20.133   4.857   0.817
28003W        W94786  11.967  29.592  12.430
28004W        W94787  36.843   3.858   2.311
28005W        W94788  42.954  21.997   3.519
28006W        W94789  11.095  36.516   9.725
28007W        W94790  41.043  10.925  14.402
28008W        W94791  28.842  29.162  12.521
28009W        W94792  26.723  37.083   4.267
28010W        W94793   4.939  31.224   1.277
28011W        W94794  19.084  20.521  13.973
28012W        W94795  33.381   5.617   3.734
28013W        W94796   4.718  19.340  14.833
28014W        W94797  14.965  29.610  13.094
28015W        W94798  23.090  31.569  12.957
28016W        W94799   2.486  28.145  11.282
28017W        W94800  31.914  11.745  14.380
28018W        W94801  16.188  11.610   0.998
28019W        W94802  14.270  11.056   3.174
28020W        W94803  14.914  18.324   2.847
28021W        W94804  38.628  17.708   2.450
28022W        W94805   5.018   8.843   4.631
28023W        W94806  23.120   5.493  10.742
28024W        W94807  15.599  28.019   5.083
28025W        W94808  18.740  37.750  10.399
28026W        W94809  30.417  23.247   2.015
28027W        W94810  11.238  29.491  11.175
28028W        W94811  41.520  17.557  11.248
28029W        W94812  27.140  38.057   3.655
28030W        W94813  15.517  14.752   5.431
28031W        W94814  36.506   4.036  12.044
28032W        W94815   5.525  31.493  11.410
28033W        W94816  26.467  39.446   2.248
28034W        W94817  29.103  36.054  13.997
28035W        W94818  28.355  18.764   2.838
28036W        W94819  15.572  37.032   1.815
28037W        W94820  18.429  26.450   5.235
28038W        W94821  36.575   4.787  11.063
28039W        W94822  16.108  38.938  14.316
28040W        W94823  29.086  30.555  10.821
28041W        W94824  22.336  29.501  13.765
28042W        W94825   6.255  22.665   4.173
28043W        W94826  44.364   4.713  11.534
28044W        W94827  32.405  28.719   3.206
28045W        W94828   1.005  35.879   1.725
28046W        W94829  14.317  33.415  11.299
28047W        W94830  13.092   0.696   3.717
28048W        W94831  11.631  44.756  14.571
28049W        W94832  42.353  26.007  11.533
28050W        W94833  31.484  22.140  10.793
28051W        W94834  20.651   8.883  13.097
28052W        W94835  36.468  37.428  11.170
28053W        W94836  24.467  24.584   2.178
28054W        W94837   4.452   1.473   4.321
28055W        W94838  33.371  27.637   9.730
28056W        W94839  19.085   7.812  10.979
28057W        W94840  43.193   8.074   1.235
28058W        W94841  22.566   7.357   3.891
28059W        W94842  11.457  24.208  10.141
28060W        W94843  17.742  24.423   2.677
28061W        W94844   1.984  37.917  12.612
28062W        W94845  25.099  33.236   1.303
28063W        W94846   2.266  38.743  12.082
28064W        W94847   9.124  22.530   2.935
28065W        W94848  24.293  22.834   1.726
28066W        W94849  11.735  16.361   4.743
28067W        W94850  33.146  33.122   3.780
28068W        W94851  32.988  16.802  14.013
28069W        W94852  21.693  15.355   2.348
28070W        W94853  32.313   7.894  11.068
28071W        W94854  30.688  20.690  12.543
28072W        W94855  36.797   7.212  12.603
28073W        W94856   5.736  43.122   3.055
28074W        W94857  20.911  42.964   4.846
28075W        W94858  26.865  38.525   2.313
28076W        W94859  11.678  37.496   3.135
28077W        W94860  25.804  42.841   4.551
28078W        W94861   7.526  38.455   0.820
28079W        W94862  30.891  39.820   4.121
28080W        W94863  16.240   7.215   1.752
28081W        W94864  19.538  33.196   2.765
28082W        W94865  24.796  33.389  13.596
28083W        W94866   5.830  22.510  13.315
28084W        W94867  30.200  25.828  12.047
28085W        W94868  23.462  27.226   0.136
28086W        W94869  16.585  23.088   0.325
28087W        W94870  23.169  39.002  11.193
28088W        W94871  32.928  41.900  12.160
28089W        W94872  32.034  20.517  14.361
28090W        W94873  25.180  30.060  12.069
28091W        W94874  20.181  39.729  12.873
28092W        W94875  11.830  26.949  12.892
28093W        W94876  43.350  16.727   4.599
28094W        W94877  36.567   1.255   1.294
28095W        W94878  22.535  23.549  11.965
28096W        W94879  17.713  41.748   1.917
28097W        W94880  23.220  10.763   2.247
28098W        W94881   5.196  36.054   4.038
28099W        W94882  22.209  19.766   2.935
28100W        W94883  31.518  31.216   3.615
28101W        W94884   0.484  19.488  13.898
28102W        W94885  24.635  22.654   3.332
28103W        W94886  42.961   9.177   0.700
28104W        W94887   1.036  12.460   2.782
28105W        W94888  12.735   9.549   2.843
28106W        W94889  33.500  16.393  11.397
28107W        W94890  26.385  11.861   3.331
28108W        W94891  12.204  32.852   2.764
28109W        W94892  18.920  42.732   1.320
28110W        W94893  21.222  40.026  14.648
28111W        W94894  20.958  12.229   2.348
28112W        W94895  29.116  43.538  10.739
28113W        W94896  16.800   4.207   0.506
28114W        W94897  41.297  22.500  12.566
28115W        W94898  30.537  23.155   0.238
28116W        W94899  21.820  25.308  14.928
28117W        W94900  13.437  40.097  14.240
28118W        W94901  40.430   3.512  11.969
28119W        W94902  20.862   6.144  13.933
28120W        W94903  28.706   7.161  14.114
28121W        W94904  16.046  15.653  11.163
28122W        W94905  16.645  40.830   2.689
28123W        W94906   5.587  42.290  11.197
28124W        W94907  37.417  43.963  12.534
28125W        W94908  35.087  26.494   2.119
28126W        W94909  41.631  21.197  13.630
28127W        W94910  27.618  13.194   0.502
28128W        W94911  29.294   4.371   3.992
28129W        W94912  34.169  18.546  12.063
28130W        W94913   5.996  40.248   0.189
28131W        W94914  37.567  11.387  13.012
28132W        W94915  29.935  43.798   0.663
28133W        W94916  11.035   5.124   0.593
28134W        W94917  20.104  32.383  12.532
28135W        W94918   4.757  28.219  13.524
28136W        W94919  36.304  13.768  12.907
28137W        W94920  17.840   1.436   0.739
28138W        W94921  14.710  16.351   0.377
28139W        W94922  44.565  33.045   3.204
28140W        W94923  24.239  11.833  11.576
28141W        W94924  41.811  33.943  12.544
28142W        W94925  14.065   6.802   3.704
28143W        W94926  17.615   9.791   1.788
28144W        W94927  28.604  24.138  14.726
28145W        W94928   5.169   4.274   2.342
28146W        W94929  39.787  43.417  14.943
28147W        W94930  14.328   4.435  13.002
28148W        W94931  11.644  17.158   1.373
28149W        W94932  23.047  19.498  11.328
28150W        W94933  35.081  14.713  11.640
28151W        W94934  33.191  37.279   2.802
28152W        W94935  23.539  39.362   0.438
28153W        W94936   0.981   9.980   2.435
28154W        W94937   9.926   9.237   4.685
28155W        W94938   5.925   5.441  12.176
28156W        W94939   2.218   4.356  14.088
28157W        W94940   7.063  23.891   4.841
28158W        W94941  13.313  39.078   2.402
28159W        W94942  34.606  38.028   4.605
28160W        W94943   4.413   4.857   1.203
28161W        W94944  19.117  40.951  14.506
28162W        W94945  25.859  14.946   1.763
28163W        W94946   4.463  41.319  14.056
28164W        W94947   2.434  26.412  13.887
28165W        W94948  28.833  10.500   1.291
28166W        W94949   0.787  43.162   0.333
28167W        W94950  17.263  25.473   2.389
28168W        W94951  22.733   7.230  12.892
28169W        W94952  20.467  37.958   0.846
28170W        W94953  35.335  17.639  14.519
28171W        W94954  33.993  30.636   4.619
28172W        W94955  15.233  37.935   2.903
28173W        W94956  19.539  36.860   3.136
28174W        W94957   9.414  26.184   2.732
28175W        W94958  38.225  27.820  14.564
28176W        W94959  18.591  40.471  14.784
28177W        W94960  28.127   3.019  14.843
28178W        W94961   1.743  27.449  14.509
28179W        W94962  26.675  32.609   0.323
28180W        W94963   5.330  13.723  13.052
28181W        W94964  24.014  39.907  12.595
28182W        W94965  29.033  18.597   2.159
28183W        W94966  33.123   1.985  10.429
28184W        W94967  29.905  33.188  12.935
28185W        W94968   6.679  35.382   2.056
28186W        W94969   8.747  34.066   2.318
28187W        W94970  10.426  33.709   3.755
28188W        W94971   9.180   9.393   3.980
28189W        W94972  32.977  13.200   4.120
28190W        W94973  23.991  32.196   0.247
28191W        W94974  33.530  21.907  11.989
28192W        W94975  12.147  32.042   2.186
28193W        W94976  42.825  22.204   1.525
28194W        W94977   5.420  18.309   3.353
28195W        W94978  24.382  16.657   0.704
28196W        W94979  15.087  24.931   1.364
28197W        W94980  29.110   2.926  12.512
28198W        W94981  31.127  36.894   4.675
28199W        W94982   3.453  18.102  11.030
28200W        W94983  42.539  23.077  10.595
28201W        W94984  12.291  16.255  14.787
28202W        W94985   3.340  28.679  11.247
28203W        W94986   0.968  14.306  14.472
28204W        W94987  11.317  29.152   2.866
28205W        W94988   6.475  14.002   1.466
28206W        W94989  29.560  15.239   1.830
28207W        W94990  44.980  37.577  12.913
28208W        W94991  27.081   4.627  12.565
28209W        W94992  34.213  13.659  14.735
28210W        W94993  16.923  16.577  11.118
28211W        W94994  28.519  36.320  12.500
28212W        W94995  41.132  16.116   2.794
28213W        W94996   2.001   8.424   1.804
28214W        W94997  40.005  36.968  14.456
28215W        W94998  10.108  16.367  12.709
28216W        W94999  27.722  40.516  13.361
28217W        W95000  43.530  17.080  13.256
28218W        W95001  40.136  44.688  12.914
28219W        W95002  19.844   0.772   3.590
28220W        W95003   2.673   1.796  13.373
28221W        W95004  32.598  17.703  10.792
28222W        W95005  13.073  22.018   2.219
28223W        W95006  17.016  11.831   3.089
28224W        W95007   1.826   5.507  12.962
28225W        W95008  30.928  36.561   2.469
28226W        W95009   9.608  15.374   3.299
28227W        W95010   3.308  24.783   4.734
28228W        W95011   2.943  29.411  11.190
28229W        W95012   0.438  35.682   3.059
28230W        W95013  37.982  13.338  12.866
28231W        W95014  13.968  17.137   3.284
28232W        W95015  18.724  39.649  14.989
28233W        W95016  35.867   8.813  13.965
28234W        W95017   6.452   5.002   0.497
28235W        W95018  13.855  26.443  14.984
28236W        W95019  16.106  12.126   0.951
28237W        W95020  43.448   5.243   0.932
28238W        W95021   7.655  13.143   2.504
28239W        W95022  42.097   9.684  14.514
28240W        W95023  24.683  26.759  10.117
28241W        W95024  10.313   5.907  10.236
28242W        W95025  34.432  44.060   1.388
28243W        W95026  43.505  44.491   2.417
28244W        W95027  31.097  28.863   0.658
28245W        W95028  25.594  12.597   2.396
28246W        W95029  28.846  25.689   3.611
28247W        W95030  13.580  17.136  11.563
28248W        W95031  27.442   2.760   2.947
28249W        W95032  28.050  22.520   2.208
28250W        W95033  32.623  33.510  10.568
28251W        W95034  16.545   8.642  13.555
28252W        W95035  43.262  32.061   3.192
28253W        W95036  21.729  30.610  14.549
28254W        W95037  38.353  38.571   3.432
28255W        W95038   9.328  35.893   1.005
28256W        W95039  30.568   6.234  13.240
28257W        W95040  39.314  26.818  10.123
28258W        W95041   8.414  30.973   0.346
28259W        W95042  34.490   7.416   0.669
28260W        W95043  17.779   6.080   0.949
28261W        W95044  29.193  27.748  11.448
28262W        W95045   4.362  14.090   3.718
28263W        W95046  25.105  38.297  14.160
28264W        W95047  22.157  43.947   2.138
28265W        W95048  29.309   8.185   3.343
28266W        W95049  34.858  10.719  10.683
28267W        W95050  36.472  30.900   3.218
28268W        W95051   9.188   5.478  11.867
28269W        W95052  15.331   7.190  10.364
28270W        W95053  26.642  20.976   0.058
28271W        W95054  30.504   4.760   2.706
28272W        W95055   9.771  25.451   3.925
28273W        W95056  40.866  33.098   2.225
28274W        W95057  18.670   3.512   4.568
28275W        W95058  37.873  39.744  11.956
28276W        W95059  33.179  14.408  11.136
28277W        W95060  31.164  31.592  11.315
28278W        W95061   6.611  31.524   3.654
28279W        W95062   9.830   1.579  12.509
28280W        W95063  43.740  17.273  12.017
28281W        W95064  20.175  33.176  12.097
28282W        W95065   9.259  30.267  10.668
28283W        W95066   7.355  13.837  11.543
28284W        W95067  22.419  17.360   3.716
28285W        W95068  43.185  15.843   0.750
28286W        W95069  39.548  18.941   2.339
28287W        W95070   5.856  17.681   4.092
28288W        W95071  29.183  19.039  10.539
28289W        W95072  25.554  34.693  13.827
28290W        W95073  39.495  35.696  14.067
28291W        W95074  21.781  16.151   0.574
28292W        W95075  24.972  29.636   1.808
28293W        W95076  27.720  31.837   1.756
28294W        W95077   5.713  30.645  11.126
28295W        W95078   1.150  10.825   5.048
28296W        W95079   1.737  29.477   4.582
28297W        W95080  17.278   9.466  14.455
28298W        W95081  29.005   0.327  12.468
28299W        W95082   8.783  16.626   1.382
28300W        W95083  26.699   6.728   4.197
28301W        W95084  41.941  11.635  12.054
28302W        W95085   3.682  18.641  12.543
28303W        W95086   4.880  32.011  10.456
28304W        W95087  38.839  41.548   3.701
28305W        W95088  11.606  44.426   1.714
28306W        W95089  37.541  35.323   4.292
28307W        W95090  18.427   9.053  11.484
28308W        W95091  11.353  42.340  13.772
28309W        W95092  35.618  17.981  10.465
28310W        W95093   1.975  17.780   4.692
28311W        W95094  40.858  20.840  10.718
28312W        W95095   4.804  25.052   2.617
28313W        W95096  21.442  34.963  14.930
28314W        W95097  28.457  34.080   4.223
28315W        W95098  31.220  20.602   2.278
28316W        W95099  17.738  28.574  10.572
28317W        W95100   2.321  18.588   0.814
28318W        W95101  41.362  16.831  12.477
28319W        W95102   0.854  44.696   4.061
28320W        W95103   6.237  14.155   4.047
28321W        W95104  32.039  14.079   0.773
28322W        W95105  39.823  27.749   0.503
28323W        W95106  20.702  31.237  14.960
28324W        W95107   3.212  26.154   1.326
28325W        W95108   9.760  29.790   4.663
28326W        W95109  10.103  18.696  14.999
28327W        W95110  38.815  23.938   0.384
28328W        W95111  28.774   4.525   0.904
28329W        W95112  23.991  43.451   1.255
28330W        W95113  33.073   5.800  11.581
28331W        W95114   0.773  28.166   2.623
28332W        W95115   2.055  17.582  11.896
28333W        W95116  42.791   9.903   2.936
28334W        W95117  20.651  21.502  13.535
28335W        W95118  35.952  10.610   1.309
28336W        W95119  27.000   2.154   1.290
28337W        W95120  17.678   9.406  13.749
28338W        W95121  16.377  13.244  13.937
28339W        W95122  10.820   8.369   2.364
28340W        W95123  26.600  13.591   0.495
28341W        W95124  20.100  36.250  14.681
28342W        W95125  25.521  43.247  14.381
28343W        W95126   0.420  28.582  14.990
28344W        W95127  26.853  26.712  11.401
28345W        W95128  30.427  14.932   3.599
28346W        W95129  14.156  31.623  12.044
28347W        W95130  30.973  39.349   9.806
28348W        W95131  27.536  43.808  14.606
28349W        W95132  33.585  32.059   3.229
28350W        W95133  15.327  44.210  10.913
28351W        W95134  18.200  41.630  11.916
28352W        W95135   7.811  41.543   2.684
28353W        W95136  39.419  10.575   0.284
28354W        W95137  21.190  43.338  11.974
28355W        W95138  43.928  21.561  10.881
28356W        W95139  36.040   3.441   2.138
28357W        W95140  12.771  26.452   2.409
28358W        W95141  42.452  16.055   2.028
28359W        W95142  14.961  40.297   5.483
28360W        W95143  12.163  26.226  10.654
28361W        W95144   1.652  18.855   0.226
28362W        W95145  26.949   5.992  12.845
28363W        W95146  11.700  13.831   3.665
28364W        W95147  23.630  44.047  12.176
28365W        W95148   5.510  15.123  13.930
28366W        W95149  27.668  20.835   2.501
28367W        W95150  20.097  10.716   1.884
28368W        W95151  36.330   4.616  14.905
28369W        W95152  30.255  12.736  11.072
28370W        W95153  15.163   2.496  13.519
28371W        W95154  33.917  12.289  13.126
28372W        W95155  11.173  12.649  13.887
28373W        W95156  39.502  39.766   3.685
28374W        W95157  21.573  37.139   4.350
28375W        W95158   3.363   9.264   4.536
28376W        W95159  17.809  41.428  13.499
28377W        W95160  18.085  25.132  11.828
28378W        W95161   2.182  23.974  11.391
28379W        W95162  11.825  10.066  11.204
28380W        W95163  39.590   7.419  10.715
28381W        W95164  22.808  17.422   1.677
28382W        W95165  13.717   5.762   3.237
28383W        W95166  16.398  38.925   3.220
28384W        W95167  13.666  14.268   4.206
28385W        W95168   3.349  13.236  10.579
28386W        W95169  18.165  21.712   0.335
28387W        W95170  17.806  38.451  12.410
28388W        W95171   0.265   4.347  13.977
28389W        W95172  23.092  22.169   0.390
28390W        W95173   0.489  16.154  14.299
28391W        W95174   7.753  40.326   0.280
28392W        W95175  32.986  14.260   4.947
28393W        W95176  41.026   5.924  11.508
28394W        W95177  32.580  44.779   1.343
28395W        W95178  27.392  20.698   3.295
28396W        W95179   5.502  23.291   4.090
28397W        W95180  12.125   4.436   2.227
28398W        W95181  25.429   5.263   3.273
28399W        W95182  24.281  13.723  13.004
28400W        W95183   5.508  20.822  14.188
28401W        W95184  11.910  18.725   0.644
28402W        W95185   6.903   3.786   1.388
28403W        W95186   5.678   5.200   2.008
28404W        W95187   9.705  44.145  12.933
28405W        W95188  24.946   0.045  13.915
28406W        W95189   3.884  12.376   0.912
28407W        W95190  10.027  14.817  13.956
28408W        W95191  40.375  33.408   4.526
28409W        W95192  21.266  12.574   2.865
28410W        W95193  44.320   8.841  12.381
28411W        W95194  30.474   8.710   4.541
28412W        W95195  39.542  23.160  11.899
28413W        W95196  21.706  20.528  12.554
28414W        W95197   5.697  19.042   0.157
28415W        W95198   3.784  24.130  11.642
28416W        W95199  15.057  40.826  10.718
28417W        W95200  16.648  10.624  12.368
28418W        W95201  25.547  34.334   0.263
28419W        W95202  38.657  36.145  11.985
28420W        W95203   0.452  26.237  11.054
28421W        W95204   3.151  19.747   2.214
28422W        W95205  34.897  33.951   3.107
28423W        W95206  24.232  23.835   0.703
28424W        W95207  43.895  24.497  11.360
28425W        W95208  25.134   6.001   3.883
28426W        W95209  20.883  28.913  11.253
28427W        W95210  28.976  44.731   1.417
28428W        W95211  22.082  11.176  13.260
28429W        W95212  12.398  37.003   1.145
28430W        W95213  38.372   7.299  10.582
28431W        W95214  27.522   4.705   0.034
28432W        W95215  22.001  17.628   3.744
28433W        W95216  32.416  44.279   5.001
28434W        W95217  15.796  42.533  11.091
28435W        W95218  21.333   0.109  13.268
28436W        W95219   6.513   2.775  11.970
28437W        W95220  30.091  23.647   1.948
28438W        W95221  19.128  22.060   0.775
28439W        W95222   7.121  29.499   2.257
28440W        W95223  27.084   4.482  10.439
28441W        W95224  20.532  12.593  12.800
28442W        W95225  19.789  17.601  13.688
28443W        W95226  17.714  29.966   0.582
28444W        W95227  30.243  20.551   0.381
28445W        W95228  36.894  33.485   0.350
28446W        W95229  37.724  37.545   3.091
28447W        W95230  36.685  24.289  11.932
28448W        W95231  41.527  33.919   4.431
28449W        W95232  28.666  26.381   2.416
28450W        W95233  13.517  28.019   1.466
28451W        W95234   6.464  25.571  10.844
28452W        W95235  39.566  27.683  12.960
28453W        W95236  36.526  13.025   3.821
28454W        W95237   3.534  14.681   1.857
28455W        W95238  42.327  33.887  13.413
28456W        W95239   0.841   5.200   4.246
28457W        W95240  32.851   9.114  13.414
28458W        W95241   3.477   8.946   0.247
28459W        W95242  14.390  10.260  13.468
28460W        W95243   3.910  28.359  11.315
28461W        W95244  39.364  13.282   4.311
28462W        W95245   2.028  23.059   1.797
28463W        W95246   4.604   4.493   2.197
28464W        W95247  44.843  44.683  12.406
28465W        W95248  31.567  12.291   3.651
28466W        W95249  23.621   1.414  13.730
28467W        W95250  37.004   6.760   1.912
28468W        W95251  25.600  33.636  13.457
28469W        W95252  20.033  29.066  10.939
28470W        W95253  35.982  16.888   4.560
28471W        W95254  29.469  24.702   1.907
28472W        W95255  28.427   0.386   3.631
28473W        W95256  23.920  43.984  14.777
28474W        W95257  44.838  35.097   0.704
28475W        W95258  22.926   7.232  12.050
28476W        W95259   9.626  25.137  10.636
28477W        W95260  21.428  37.419  12.904
28478W        W95261  30.030  40.034  13.857
28479W        W95262  27.033  10.124  13.078
28480W        W95263  32.001  34.832   4.943
28481W        W95264   1.716  12.341   2.398
28482W        W95265  29.137  27.239   3.457
28483W        W95266  19.238   9.384  13.195
28484W        W95267  19.277  14.580  12.132
28485W        W95268  37.340   7.288   3.232
28486W        W95269  44.380   0.321  10.310
28487W        W95270  26.180   1.038   2.162
28488W        W95271  39.519  16.612  14.946
28489W        W95272  29.817  15.580   2.209
28490W        W95273  19.562  17.868   1.293
28491W        W95274   9.856  18.231   0.205
28492W        W95275   5.351  10.277   9.987
28493W        W95276  44.159  41.203   9.963
28494W        W95277  22.613  28.503   2.197
28495W        W95278  40.101  12.280   3.120
28496W        W95279   7.400  37.029  13.126
28497W        W95280  12.594  34.360   0.014
28498W        W95281   7.388  34.121  11.174
28499W        W95282  22.638  24.963   1.047
28500W        W95283  35.305  26.146   1.014
28501W        W95284  43.365  35.503  10.596
28502W        W95285   7.527   0.810  10.771
28503W        W95286  36.614  40.273  13.389
28504W        W95287  32.739  20.534  12.566
28505W        W95288   0.792  10.397  14.443
28506W        W95289  20.468  37.275   0.526
28507W        W95290   5.713   1.220  14.523
28508W        W95291   2.981   3.479  12.002
28509W        W95292   1.529  18.695   2.184
28510W        W95293  11.183  14.917   2.494
28511W        W95294  41.379  22.640  12.018
28512W        W95295  31.298  33.451   3.190
28513W        W95296  18.465  16.854  10.046
28514W        W95297  28.480  33.813  12.440
28515W        W95298   2.660  36.563  13.776
28516W        W95299  30.971  44.318   2.522
28517W        W95300  15.462  40.841  12.468
28518W        W95301   7.166  21.525  12.068
28519W        W95302   3.480  16.586  13.435
28520W        W95303  30.161  35.010   3.300
28521W        W95304   1.220   1.257   1.350
28522W        W95305  27.214  36.336  13.935
28523W        W95306   2.335  24.275  12.595
28524W        W95307  30.716  15.400   3.586
28525W        W95308   4.150   2.804   4.157
28526W        W95309   8.735  29.636  11.272
28527W        W95310   6.107   1.809  10.498
28528W        W95311  20.884  20.800  13.839
28529W        W95312   7.420  41.808   1.343
28530W        W95313  37.709  12.914  10.252
28531W        W95314   1.364   1.110  14.926
28532W        W95315  35.056  12.151   0.620
28533W        W95316  17.816  28.080   0.443
28534W        W95317  14.414  12.192   4.269
28535W        W95318  32.287  21.117  13.975
28536W        W95319  16.125  10.255  14.364
28537W        W95320  38.943  44.255  11.946
28538W        W95321  12.347  10.679   4.379
28539W        W95322   9.673  32.000  13.523
28540W        W95323  26.129  35.054  13.362
28541W        W95324  26.719  43.607  13.994
28542W        W95325  10.914  25.031   0.767
28543W        W95326  29.552  32.222  14.749
28544W        W95327  32.617  18.608   3.578
28545W        W95328  44.568   7.650   0.584
28546W        W95329   7.182  40.880  14.076
28547W        W95330  14.436  13.736  14.942
28548W        W95331  15.653   1.970  12.944
28549W        W95332   5.303  15.575  14.082
28550W        W95333  11.878  19.020   1.077
28551W        W95334  18.591  24.662   4.945
28552W        W95335  22.695   9.410  11.912
28553W        W95336  19.548  40.331   0.793
28554W        W95337  15.244  10.172  14.787
28555W        W95338  12.182  17.328  13.803
28556W        W95339  41.787  15.701  13.464
28557W        W95340  26.228  32.876   0.349
28558W        W95341  27.189  43.002   1.286
28559W        W95342  27.577  36.791  13.387
28560W        W95343  17.676   8.876   1.902
28561W        W95344  25.458  23.933   2.371
28562W        W95345  44.136  35.846   3.172
28563W        W95346  16.555  22.052   1.868
28564W        W95347   9.187   8.081   1.444
28565W        W95348  19.562   9.447  11.316
28566W        W95349  31.918   6.838  13.412
28567W        W95350  31.077  34.424   3.840
28568W        W95351  33.436  17.639  11.490
28569W        W95352  33.421  20.935   3.226
28570W        W95353   1.362  32.863  10.639
28571W        W95354  30.574  11.910   2.166
28572W        W95355  27.524  38.242   3.934
28573W        W95356  15.768   3.944   4.638
28574W        W95357  16.544  14.218  11.482
28575W        W95358  15.008  16.995  14.011
28576W        W95359   5.600  13.432   2.488
28577W        W95360  35.928  31.088  13.287
28578W        W95361  29.328  26.216  11.911
28579W        W95362  20.731   7.352  14.264
28580W        W95363  21.201  16.207  13.940
28581W        W95364  18.020   7.288   0.414
28582W        W95365   6.497   8.908  11.458
28583W        W95366  10.805  42.418  13.508
28584W        W95367  42.619  29.660   3.288
28585W        W95368  18.124   0.898   1.229
28586W        W95369   8.360  40.794   4.891
28587W        W95370   1.799  11.645   3.045
28588W        W95371   8.157  42.278  12.727
28589W        W95372  33.459   6.813   1.738
28590W        W95373  22.600  33.241  11.918
28591W        W95374  10.355  17.557  13.411
28592W        W95375  16.161  14.795   2.132
28593W        W95376  37.624  30.363   4.275
28594W        W95377   4.002   5.447   3.134
28595W        W95378  15.821  33.072   2.923
28596W        W95379  33.637  21.418   1.048
28597W        W95380  13.355   8.126   3.585
28598W        W95381  38.811  15.700  11.555
28599W        W95382  14.244   9.697   1.605
28600W        W95383  40.055  40.612   4.697
28601W        W95384   2.708  23.728  13.415
28602W        W95385  42.687  33.160  11.605
28603W        W95386  44.756  39.089  13.475
28604W        W95387  34.814  27.653   3.697
28605W        W95388   2.895  32.385  14.323
28606W        W95389  44.801  10.830  12.906
28607W        W95390  21.711   8.208   4.520
28608W        W95391   4.448  10.371   2.452
28609W        W95392  33.628  18.682  11.085
28610W        W95393   1.652   1.604  13.400
28611W        W95394   9.146  21.381  12.895
28612W        W95395  21.052  12.392  12.548
28613W        W95396   8.223  16.943  10.804
28614W        W95397  15.139  23.672   1.033
28615W        W95398  37.384   1.923  13.999
28616W        W95399  26.523  14.570   2.275
28617W        W95400  25.768  42.343  13.409
28618W        W95401  33.771  11.250  13.755
28619W        W95402   8.323  11.223  11.971
28620W        W95403   1.486  28.117  10.937
28621W        W95404  12.072  25.925  14.730
28622W        W95405  25.775  17.024   1.789
28623W        W95406  44.435   6.736  10.656
28624W        W95407  32.705   7.620   0.855
28625W        W95408  15.620  16.354   0.243
28626W        W95409  15.239  15.854   2.114
28627W        W95410  18.222   0.264   4.480
28628W        W95411  18.835  29.872  14.514
28629W        W95412  22.950  30.489   5.050
28630W        W95413  24.694  28.985  10.279
28631W        W95414  18.611  12.637  10.650
28632W        W95415   8.967   7.627  11.068
28633W        W95416  11.133  12.145   0.361
28634W        W95417   3.457  21.312  12.138
28635W        W95418   0.609   3.652  12.323
28636W        W95419   7.716  27.501   2.341
28637W        W95420   4.022   4.995  11.496
28638W        W95421  28.154  23.521   0.839
28639W        W95422   1.864   6.365   4.650
28640W        W95423  38.235  11.685  14.087
28641W        W95424  16.336  38.467   3.455
28642W        W95425  12.097  36.101  13.390
28643W        W95426  21.632  16.160  13.537
28644W        W95427  31.018  43.780   3.241
28645W        W95428   0.131  34.551  13.917
28646W        W95429  22.152  21.873  11.580
28647W        W95430   9.355  29.362  14.416
28648W        W95431  16.374  29.026  14.329
28649W        W95432  10.082  34.905   5.087
28650W        W95433   0.195  42.437   0.542
28651W        W95434  40.560  42.498   0.428
28652W        W95435   4.291  18.514  10.606
28653W        W95436  34.931   7.185   1.849
28654W        W95437  35.529  20.104   3.063
28655W        W95438  33.626   6.477  13.030
28656W        W95439  23.425  42.339   3.207
28657W        W95440  16.172  29.377   4.530
28658W        W95441   9.736  39.333  14.945
28659W        W95442  40.874  33.580  12.609
28660W        W95443  44.832  26.511  12.440
28661W        W95444  22.414  15.376   4.649
28662W        W95445  34.989   7.560  14.536
28663W        W95446  14.823  39.077  11.551
28664W        W95447  10.795   0.035   1.220
28665W        W95448  38.281  39.458   3.232
28666W        W95449  18.831  38.537   3.287
28667W        W95450   3.508   9.644  12.479
28668W        W95451  27.963  14.344  13.500
28669W        W95452  23.558  15.650   0.810
28670W        W95453  33.383  22.994  10.350
28671W        W95454  31.156  23.071   0.832
28672W        W95455  26.447  43.457  11.959
28673W        W95456  24.735   9.376   4.408
28674W        W95457  41.897  42.818  12.930
28675W        W95458  42.964  38.442  12.013
28676W        W95459  37.734   9.473   9.740
28677W        W95460  36.556  37.929   1.713
28678W        W95461  17.235  18.463  13.016
28679W        W95462  16.523   6.422   2.692
28680W        W95463   6.676  16.198  10.786
28681W        W95464  11.695   4.342   2.503
28682W        W95465  42.493  11.149  10.282
28683W        W95466  18.944  38.429  11.717
28684W        W95467   5.206  34.592   3.158
28685W        W95468  11.294  27.945  14.462
28686W        W95469  35.302   9.212  14.358
28687W        W95470  18.577  39.968   4.367
28688W        W95471  10.029   8.181  12.422
28689W        W95472  31.669  26.214   3.695
28690W        W95473  11.713   4.319  10.659
28691W        W95474  37.479  13.450   4.524
28692W        W95475  10.901  40.420  11.105
28693W        W95476  16.242   6.934   3.325
28694W        W95477  12.443  31.125  12.609
28695W        W95478  29.177  23.200  13.043
28696W        W95479  37.343  28.894  13.569
28697W        W95480  37.656  40.490   2.942
28698W        W95481  34.408  33.101  12.532
28699W        W95482  22.597   2.202   2.244
28700W        W95483  39.123  15.168   3.393
28701W        W95484   7.307  35.984  14.766
28702W        W95485  24.917  18.718   0.983
28703W        W95486  17.698  23.387   2.802
28704W        W95487  41.315  42.874  11.925
28705W        W95488  32.045  12.686   2.692
28706W        W95489  24.608  17.367  13.136
28707W        W95490  28.885  22.598   1.848
28708W        W95491  25.206  44.309   2.136
28709W        W95492  34.753   9.676   2.695
28710W        W95493  30.786   5.635   1.243
28711W        W95494  34.426  40.098   4.446
28712W        W95495   5.911  32.964   4.524
28713W        W95496  30.052  29.112   0.425
28714W        W95497  25.538   2.374  12.664
28715W        W95498   8.997   6.390   0.909
28716W        W95499  11.670   2.283   4.999
28717W        W95500  16.221   1.475  12.407
28718W        W95501  22.059  35.109   1.325
28719W        W95502  35.778  29.951   3.229
28720W        W95503  14.158  35.438   3.373
28721W        W95504  28.956  17.892  13.527
28722W        W95505  30.523  43.327  12.516
28723W        W95506  34.603  29.659  10.748
28724W        W95507  16.079   9.219  14.128
28725W        W95508   6.728  43.252  14.935
28726W        W95509  38.537  23.691   3.693
28727W        W95510   2.243  38.258  13.476
28728W        W95511  38.097  32.051  14.361
28729W        W95512  40.709  13.245   1.272
28730W        W95513   0.437  17.865  14.402
28731W        W95514  40.240  21.155   2.640
28732W        W95515  17.500  25.253  13.484
28733W        W95516  16.145  35.466   3.796
28734W        W95517  36.507  29.964   4.241
28735W        W95518  17.214   9.799   2.281
28736W        W95519  23.422  34.090   2.487
28737W        W95520   3.250   4.799   0.322
28738W        W95521  11.822   8.331   3.538
28739W        W95522  33.069   3.262   0.011
28740W        W95523  31.984  13.077   4.984
28741W        W95524  40.547  35.012  11.188
28742W        W95525  28.490  23.217  11.055
28743W        W95526  34.348   5.035  11.567
28744W        W95527  25.541  23.088   1.365
28745W        W95528  25.691   3.434   1.110
28746W        W95529  21.230  12.682   2.350
28747W        W95530   0.935  18.612   4.584
28748W        W95531  31.854  21.256   3.678
28749W        W95532  37.817  25.377   3.613
28750W        W95533  40.449  27.163   3.060
28751W        W95534  36.434  31.091   2.702
28752W        W95535  14.550  13.032   4.688
28753W        W95536  32.578  24.647   3.281
28754W        W95537  33.616  43.038   4.143
28755W        W95538   1.297  10.055  10.976
28756W        W95539  35.665  15.739   9.791
28757W        W95540  21.270  12.315  13.058
28758W        W95541  26.266   4.877  10.828
28759W        W95542  43.413   5.278   4.121
28760W        W95543  14.132  26.913  12.054
28761W        W95544  21.273   0.017   0.773
28762W        W95545  24.727  37.190   0.666
28763W        W95546   0.760  19.218   2.227
28764W        W95547  36.836  25.298   3.696
28765W        W95548  17.279  39.579  11.634
28766W        W95549  10.466  15.613  12.115
28767W        W95550  12.679  39.746   4.906
28768W        W95551  44.452   2.296   3.236
28769W        W95552  36.621  28.000   3.160
28770W        W95553  35.164  23.947   1.109
28771W        W95554  25.895  24.691   2.194
28772W        W95555  28.101  27.820   3.760
28773W        W95556  38.837  33.052  11.111
28774W        W95557  39.831  11.667   1.209
28775W        W95558  25.927   3.737   5.445
28776W        W95559  32.474  20.115  13.997
28777W        W95560  11.310  38.141  13.949
28778W        W95561  21.115   1.798   0.320
28779W        W95562  23.600  12.934  14.869
28780W        W95563   5.758  10.300  13.786
28781W        W95564  29.287  36.128  10.323
28782W        W95565  20.071  12.159  14.776
28783W        W95566  23.716  44.181   2.344
28784W        W95567  44.160  36.463  13.905
28785W        W95568  29.245  17.824   4.293
28786W        W95569  19.187  12.739   4.760
28787W        W95570  10.892  42.725   4.541
28788W        W95571  37.484  40.769   0.380
28789W        W95572   6.775   6.803  10.776
28790W        W95573  24.433  27.666  10.906
28791W        W95574  27.051  44.879  11.675
28792W        W95575  16.880  39.029   3.269
28793W        W95576  23.659  15.635  14.432
28794W        W95577  15.866  26.901   0.697
28795W        W95578   8.491  26.329   4.488
28796W        W95579  23.161  28.546   4.189
28797W        W95580   2.366  36.447  11.117
28798W        W95581  20.728   2.832  14.603
28799W        W95582  34.610  29.150   1.814
28800W        W95583   9.892   4.272  12.254
28801W        W95584  23.220  33.499   3.207
28802W        W95585  26.552  17.056  12.150
28803W        W95586  31.837  43.287  11.032
28804W        W95587  13.161  35.301  11.125
28805W        W95588  10.165  19.778  10.250
28806W        W95589   0.835   0.230  14.161
28807W        W95590   8.383  12.825  11.881
28808W        W95591   6.224   2.703  12.408
28809W        W95592  29.043  28.864   4.001
28810W        W95593  33.030  31.637   3.786
28811W        W95594  21.527  17.563  14.507
28812W        W95595   1.282  13.049  13.369
28813W        W95596   0.296  21.317   1.773
28814W        W95597  23.205  32.616   2.242
28815W        W95598   1.779  13.157  13.614
28816W        W95599  12.108  34.888  10.776
28817W        W95600  22.073  27.220  11.929
28818W        W95601  15.239   3.533   3.846
28819W        W95602  28.065  15.576   2.344
28820W        W95603  18.073  20.715  12.215
28821W        W95604   5.393   4.066  14.286
28822W        W95605  11.388  19.797  14.186
28823W        W95606  14.548  25.483  13.775
28824W        W95607  42.794  42.744  12.942
28825W        W95608  17.697  31.069   2.647
28826W        W95609  29.768  21.017  11.558
28827W        W95610  37.332  19.468  11.494
28828W        W95611  30.966  22.011   2.354
28829W        W95612  37.435  20.096  14.483
28830W        W95613  38.832   4.433   0.971
28831W        W95614  25.645   5.906  10.760
28832W        W95615  34.755  36.328   2.652
28833W        W95616  21.364  16.594   9.772
28834W        W95617  22.532  30.168  11.429
28835W        W95618   8.371  19.639  10.784
28836W        W95619   6.635  34.474   2.369
28837W        W95620   3.013  11.750   0.666
28838W        W95621  17.207  17.753   3.541
28839W        W95622  30.727  15.517  14.158
28840W        W95623  17.511  43.416   4.515
28841W        W95624   5.063  10.625   1.912
28842W        W95625  29.432  42.526   4.598
28843W        W95626  15.352  20.549  13.425
28844W        W95627  12.486  20.963  14.335
28845W        W95628   3.459  35.594   2.824
28846W        W95629  44.447  35.484   2.960
28847W        W95630  26.640  41.600   5.082
28848W        W95631  10.709  15.118   2.397
28849W        W95632  26.368  24.133   3.246
28850W        W95633  10.654  14.564   4.643
28851W        W95634  14.564  37.090   4.036
28852W        W95635  43.404   8.585  10.710
28853W        W95636  24.175  30.601  10.266
28854W        W95637  16.218  23.397  13.595
28855W        W95638   8.764  10.312   4.026
28856W        W95639  28.414  12.030   2.843
28857W        W95640  18.656  44.069   1.011
28858W        W95641  31.371  38.259  13.331
28859W        W95642  22.569  20.506   4.436
28860W        W95643   8.408  13.338  10.633
28861W        W95644  36.756  23.044  12.998
28862W        W95645   7.715  23.985   1.181
28863W        W95646  35.836   6.282   3.554
28864W        W95647  43.772  38.558   3.928
28865W        W95648   5.780  27.715   0.741
28866W        W95649  31.126   3.736   4.289
28867W        W95650   7.685  35.934  10.407
28868W        W95651  10.223  28.929  11.153
28869W        W95652  38.109  39.276  12.103
28870W        W95653   1.410  28.593   4.628
28871W        W95654  17.293  12.651   0.862
28872W        W95655  40.564  37.110  13.762
28873W        W95656   1.530  35.932   4.587
28874W        W95657  43.537  41.820   3.822
28875W        W95658  23.033  43.005  14.240
28876W        W95659  36.551  30.937   3.752
28877W        W95660  16.745  39.341  13.720
28878W        W95661  24.971  35.514  11.218
28879W        W95662  24.273  44.922   2.677
28880W        W95663  35.426  11.604  10.667
28881W        W95664   3.707  44.195  11.694
28882W        W95665   8.271  10.660   2.123
28883W        W95666  24.644   4.470  10.992
28884W        W95667  43.590  42.570  11.042
28885W        W95668  41.453  25.009   4.507
28886W        W95669  24.559   1.368   3.659
28887W        W95670  33.448  30.931  10.964
28888W        W95671  30.334   1.462  11.159
28889W        W95672   2.148  11.836  14.816
28890W        W95673  30.074  11.934  13.535
28891W        W95674  26.643  28.226   3.699
28892W        W95675  34.904  15.082  11.954
28893W        W95676  20.993   0.859   3.273
28894W        W95677  39.491  31.172  13.079
28895W        W95678  23.557  28.680  13.292
28896W        W95679  31.678  44.002   3.789
28897W        W95680  24.703  18.582   2.656
28898W        W95681   4.417   3.770   1.823
28899W        W95682   4.934  24.003   2.766
28900W        W95683  40.699  29.252   4.068
28901W        W95684  16.004   7.284   3.615
28902W        W95685  11.257  12.861  14.831
28903W        W95686  39.531  23.610   4.563
28904W        W95687  29.535  17.846   2.146
28905W        W95688  39.299  13.498  10.156
28906W        W95689  29.680   9.871   1.916
28907W        W95690  16.335   9.326   2.679
28908W        W95691  10.314   1.835  10.710
28909W        W95692  26.264   8.256  13.818
28910W        W95693  12.338  37.098   4.207
28911W        W95694   9.926  33.589  11.134
28912W        W95695  43.397  30.639   0.329
28913W        W95696  11.628  10.776   2.371
28914W        W95697   7.228  42.474   3.913
28915W        W95698  19.771  41.868   4.630
28916W        W95699  31.562  44.845   3.129
28917W        W95700  24.272   3.416   2.761
28918W        W95701  28.800  13.240   4.918
28919W        W95702  17.814  41.544   0.537
28920W        W95703  37.315  14.524   4.619
28921W        W95704  40.539  18.658  11.148
28922W        W95705   6.187  25.245   0.511
28923W        W95706  16.501  33.927   1.038
28924W        W95707  43.274  30.796   0.833
28925W        W95708  27.794  33.114  14.504
28926W        W95709  21.657  43.587  14.519
28927W        W95710  28.089  13.371   0.266
28928W        W95711  35.991  17.629   3.378
28929W        W95712  17.759  33.077   0.943
28930W        W95713   9.987  41.762   3.310
28931W        W95714   8.812  27.435  14.935
28932W        W95715  27.140  12.217  12.482
28933W        W95716  40.013   5.991   2.297
28934W        W95717   7.166  36.140  14.272
28935W        W95718  26.624  44.518   3.862
28936W        W95719  43.539  15.246   2.665
28937W        W95720   5.306  17.863   0.582
28938W        W95721  26.360  18.337   1.083
28939W        W95722   4.451  27.188   0.865
28940W        W95723   1.898  13.264   2.664
28941W        W95724  15.326  11.541   0.633
28942W        W95725  38.254  23.640   4.121
28943W        W95726  40.474  21.563   2.866
28944W        W95727  18.847   2.450  11.402
28945W        W95728   4.755  36.251   3.229
28946W        W95729  32.293  30.397   3.711
28947W        W95730  40.592  16.547   0.693
28948W        W95731  28.397  40.830   0.057
28949W        W95732  13.845  17.543   3.592
28950W        W95733  20.739   6.758  12.152
28951W        W95734   4.847   9.345   4.592
28952W        W95735   5.513  19.102  11.094
28953W        W95736   4.545  30.026  10.689
28954W        W95737   9.560   1.917   4.248
28955W        W95738  25.048  29.066  11.723
28956W        W95739   5.069   2.431  11.172
28957W        W95740  19.238  21.019   2.343
28958W        W95741   8.184   9.033  10.584
28959W        W95742  30.607  27.563  11.953
28960W        W95743   4.484   1.843  14.374
28961W        W95744  26.155  12.158  14.804
28962W        W95745  43.459   2.376  13.032
28963W        W95746  11.609   8.726  12.047
28964W        W95747  24.255   0.245   2.218
28965W        W95748  19.511  10.143   2.704
28966W        W95749  26.445  35.275  10.532
28967W        W95750  25.575  15.109   2.372
28968W        W95751  10.434  41.431   2.340
28969W        W95752  23.153  30.622   0.844
28970W        W95753  20.735  28.436  11.132
28971W        W95754  24.470  21.894  11.507
28972W        W95755  18.580  41.572  13.084
28973W        W95756  10.205  23.273   4.682
28974W        W95757   3.512  26.134   2.485
28975W        W95758  26.728   9.527   4.368
28976W        W95759   3.733  22.116  13.093
28977W        W95760  44.856  28.452  11.562
28978W        W95761  42.032  14.210   3.536
28979W        W95762   9.360   0.831  14.479
28980W        W95763   3.922   7.763   1.198
28981W        W95764  17.872  16.659   2.733
28982W        W95765  40.019   3.439   4.077
28983W        W95766  44.745  44.018   2.436
28984W        W95767   2.928   1.301  11.509
28985W        W95768  27.144  40.452   1.396
28986W        W95769   6.668  39.563  13.507
28987W        W95770  12.193  37.616  12.633
28988W        W95771  38.172  11.536   3.532
28989W        W95772  14.968  33.351  13.838
28990W        W95773  18.740  30.722  12.036
28991W        W95774  15.428  26.223  10.265
28992W        W95775   2.117  32.971   2.037
28993W        W95776  21.505  35.590  11.166
28994W        W95777  21.459   9.959   4.168
28995W        W95778  34.550  10.154   4.427
28996W        W95779  16.057  10.257  11.614
28997W        W95780  28.717  25.900  10.691
28998W        W95781  29.717  22.944   3.290
28999W        W95782  23.597  26.412   1.205
29000W        W95783  20.158  16.281  14.895
29001W        W95784   1.553  10.543   1.339
29002W        W95785  20.569  44.934   0.004
29003W        W95786  11.904  29.655  11.164
29004W        W95787   1.840  42.426  14.795
29005W        W95788   2.818  24.892   0.154
29006W        W95789  26.858  29.957  13.718
29007W        W95790  28.373   4.163   1.317
29008W        W95791   9.233   5.889   4.148
29009W        W95792   5.173   4.793  13.086
29010W        W95793  25.675   5.528  11.143
29011W        W95794  35.419  39.403   2.314
29012W        W95795  42.866  42.918   3.127
29013W        W95796  17.319  13.085   3.198
29014W        W95797  28.414  22.813  10.759
29015W        W95798  16.274  34.112  13.413
29016W        W95799  44.180  15.757   2.850
29017W        W95800  22.307  33.189  14.488
29018W        W95801  29.887   0.166  13.631
29019W        W95802  32.212  41.127   0.279
29020W        W95803  44.910  40.105   0.768
29021W        W95804  25.052  37.184  14.963
29022W        W95805  16.317  16.575  14.834
29023W        W95806  10.872  22.607   1.646
29024W        W95807  13.859  28.538  10.993
29025W        W95808  36.561  36.532  12.493
29026W        W95809  19.671  43.257   2.343
29027W        W95810  20.003  16.639   3.449
29028W        W95811  32.080   1.906  12.889
29029W        W95812   6.368  28.638   4.552
29030W        W95813  23.146  27.898  11.870
29031W        W95814  33.078  31.626   1.517
29032W        W95815   7.301  31.940  13.681
29033W        W95816   8.293  31.991   4.318
29034W        W95817  27.793  14.037  13.889
29035W        W95818  39.996  34.863   1.612
29036W        W95819   1.107   8.932  14.314
29037W        W95820  16.360  31.527  11.522
29038W        W95821  32.189  37.329   4.575
29039W        W95822  40.755  13.382  13.270
29040W        W95823  11.787   1.431  14.470
29041W        W95824  33.631  34.001   0.179
29042W        W95825  17.086  14.821  14.393
29043W        W95826  31.359  34.920  10.763
29044W        W95827   1.166   7.104   0.816
29045W        W95828   7.931  10.273   1.216
29046W        W95829  26.789  23.399   1.616
29047W        W95830  22.289  27.692   2.659
29048W        W95831  26.391  25.272   2.866
29049W        W95832   5.344  25.076   4.457
29050W        W95833   6.754  27.015  11.605
29051W        W95834  18.367   6.572  10.725
29052W        W95835  39.215  36.272   3.766
29053W        W95836  28.341   6.553  10.866
29054W        W95837  26.258  18.261  12.484
29055W        W95838  29.198  23.006  12.568
29056W        W95839   4.744  13.249   4.589
29057W        W95840  36.438  33.647  13.040
29058W        W95841  31.471  39.230   2.637
29059W        W95842   1.335   9.578   4.517
29060W        W95843  36.883  26.731  10.266
29061W        W95844  17.490   9.968  14.333
29062W        W95845  18.368   8.304  11.029
29063W        W95846  30.578  44.324   2.187
29064W        W95847  10.456   4.222  14.280
29065W        W95848   3.622  30.619  12.143
29066W        W95849  40.911   3.711  11.852
29067W        W95850  44.918   8.148  13.377
29068W        W95851  23.117  28.076  12.354
29069W        W95852   4.292  34.563  11.175
29070W        W95853   5.275  33.673  11.280
29071W        W95854  22.283  37.896  12.536
29072W        W95855  30.913  12.117   3.630
29073W        W95856  22.175  17.738  12.329
29074W        W95857  30.649  13.099  13.363
29075W        W95858  16.061  26.364   2.774
29076W        W95859  11.683  37.779   0.786
29077W        W95860  15.657  27.102  10.710
29078W        W95861   0.368  25.410   2.098
29079W        W95862  31.151   0.776   4.625
29080W        W95863  21.258  25.168   0.680
29081W        W95864  28.007  20.347  13.448
29082W        W95865  39.763  24.639  12.551
29083W        W95866  12.559  36.978  11.555
29084W        W95867  11.732  31.309  14.065
29085W        W95868  32.204  21.577  11.615
29086W        W95869  16.387   3.166   2.204
29087W        W95870  32.892   2.458   4.667
29088W        W95871  15.161   0.036   3.774
29089W        W95872   0.298  11.898   9.757
29090W        W95873  19.348   8.312  11.949
29091W        W95874  23.032   3.954  12.264
29092W        W95875  12.521  36.685   4.988
29093W        W95876  40.661  44.970   2.378
29094W        W95877  16.865   4.446  11.152
29095W        W95878  40.303  33.839   0.250
29096W        W95879  41.701  25.079   1.207
29097W        W95880  41.891  15.721  10.786
29098W        W95881   1.723  38.344   2.791
29099W        W95882  33.825  22.575   4.146
29100W        W95883  22.695  42.317  11.661
29101W        W95884  32.558   1.762  12.447
29102W        W95885  24.743  15.058  13.486
29103W        W95886  33.797  22.257   0.870
29104W        W95887  15.246  17.737  11.578
29105W        W95888  43.319  34.514   2.390
29106W        W95889  14.133   3.801   0.941
29107W        W95890  43.483   0.357   2.832
29108W        W95891  41.283  13.300   0.385
29109W        W95892  25.597  26.056  11.852
29110W        W95893  10.835  42.460   0.441
29111W        W95894  32.132  21.248  13.130
29112W        W95895  33.326  36.523   2.200
29113W        W95896   9.873  21.624   4.903
29114W        W95897  41.013  19.128   2.612
29115W        W95898  30.130   6.386   1.277
29116W        W95899  25.483  24.196  12.569
29117W        W95900  41.343  23.881   3.710
29118W        W95901  40.586  35.584   1.283
29119W        W95902  11.740  38.437   1.372
29120W        W95903  43.794  13.085   1.445
29121W        W95904  20.473  12.366   3.292
29122W        W95905  18.177  10.923  14.289
29123W        W95906  20.855  38.996   2.414
29124W        W95907  43.758  40.423  13.748
29125W        W95908  40.158  34.412   1.813
29126W        W95909  19.084   7.998  13.766
29127W        W95910  39.473  38.889   2.764
29128W        W95911   4.228  16.831   1.751
29129W        W95912   9.591  29.138  13.460
29130W        W95913   5.858  40.610   4.673
29131W        W95914  16.134   0.790   2.404
29132W        W95915  28.398  28.837  14.732
29133W        W95916  27.303  31.457   0.016
29134W        W95917  23.457  20.248  14.061
29135W        W95918   0.301  31.818   1.386
29136W        W95919  36.652   3.299   4.696
29137W        W95920  39.264  17.166   1.241
29138W        W95921  42.168  38.976   1.835
29139W        W95922   2.722  26.509   3.811
29140W        W95923   5.243  32.176   4.368
29141W        W95924  20.806   0.861   1.008
29142W        W95925  22.172  12.077   4.143
29143W        W95926  23.286   6.364  13.951
29144W        W95927  44.789  25.587   2.785
29145W        W95928  20.244  13.670  10.755
29146W        W95929  37.546   6.803   3.953
29147W        W95930  10.580   5.309  13.446
29148W        W95931  42.002   8.187  13.434
29149W        W95932  38.876   8.847   5.004
29150W        W95933   1.980  38.075  14.658
29151W        W95934  27.125  10.161  14.726
29152W        W95935  33.901  20.902  12.470
29153W        W95936  24.657  37.997   1.607
29154W        W95937  40.945  30.681   3.296
29155W        W95938  39.203  43.540  13.070
29156W        W95939  14.273  20.188   0.449
29157W        W95940  37.530   2.696  11.076
29158W        W95941  19.282  41.930  14.047
29159W        W95942  24.051  22.555   1.307
29160W        W95943   0.432  23.447  12.952
29161W        W95944   5.947  40.530  13.465
29162W        W95945  23.009   4.707  14.853
29163W        W95946  15.398  34.001  14.667
29164W        W95947  29.995   4.468  10.634
29165W        W95948  32.444  29.795  11.520
29166W        W95949   1.345  20.041   2.155
29167W        W95950  24.104  31.743   5.065
29168W        W95951  17.165   6.346   5.077
29169W        W95952  44.351  26.458  13.880
29170W        W95953   1.080  11.664  12.423
29171W        W95954  31.449  14.104  11.851
29172W        W95955  26.120  40.814   3.767
29173W        W95956  14.321  26.666  14.997
29174W        W95957  17.566  37.086  13.252
29175W        W95958  25.682  39.329  11.964
29176W        W95959  28.577  21.422  11.188
29177W        W95960  26.657  41.586   1.343
29178W        W95961   1.177  37.007  11.267
29179W        W95962  24.518  38.061   2.103
29180W        W95963  20.341  41.432  11.978
29181W        W95964  19.182  14.287  13.175
29182W        W95965  41.863   4.662  12.210
29183W        W95966  27.415  35.654  14.456
29184W        W95967  36.942  28.774  12.091
29185W        W95968   9.469  11.158  14.490
29186W        W95969  19.074  44.937   3.851
29187W        W95970  41.343   3.407   1.182
29188W        W95971  24.070  30.445  14.990
29189W        W95972  19.091  32.145   2.248
29190W        W95973  17.180  27.912  13.713
29191W        W95974  41.447   3.171  12.542
29192W        W95975  15.357   5.701  13.410
29193W        W95976  24.176  29.378  14.702
29194W        W95977  37.532  28.857   1.838
29195W        W95978  40.324  18.549  13.305
29196W        W95979  29.962  30.206  12.633
29197W        W95980  31.063  22.291   4.229
29198W        W95981  36.859  31.019   2.418
29199W        W95982  36.121  44.017  14.858
29200W        W95983   6.251  13.547  14.792
29201W        W95984  23.769  27.702   3.902
29202W        W95985   2.306   5.229   0.698
29203W        W95986  23.600  41.448  10.015
29204W        W95987  28.398  32.372   4.456
29205W        W95988  12.394  27.248  13.897
29206W        W95989  28.117   3.150  11.655
29207W        W95990  11.675   7.066   1.008
29208W        W95991  13.975   6.326  13.051
29209W        W95992  10.103  24.456  12.090
29210W        W95993  26.523  17.850   1.222
29211W        W95994  17.158  29.176   3.188
29212W        W95995  39.799   4.737   0.846
29213W        W95996  31.033  14.282  10.770
29214W        W95997   3.970  14.172  14.526
29215W        W95998   7.791  29.113  10.825
29216W        W95999  29.617  25.196  14.706
29217W        W96000   0.354  22.121  13.476
29218W        W96001   3.087   7.280  14.022
29219W        W96002  16.131   0.097   1.869
29220W        W96003  35.189  11.856  12.736
29221W        W96004  21.689  40.303  13.525
29222W        W96005   2.941   7.651  11.081
29223W        W96006  30.946   5.787   4.445
29224W        W96007  20.551   1.243   0.756
29225W        W96008  26.628  44.966  11.983
29226W        W96009  25.099  21.589   2.201
29227W        W96010   8.235  10.786   3.168
29228W        W96011   5.107   7.155   2.223
29229W        W96012  10.272   2.865   1.965
29230W        W96013   6.383  29.586   3.596
29231W        W96014  34.447  25.207   4.131
29232W        W96015   1.868  19.388  12.376
29233W        W96016  25.632  29.627   3.093
29234W        W96017  13.201   9.922   0.353
29235W        W96018  36.629  42.843  10.125
29236W        W96019  35.061  22.640  12.897
29237W        W96020  25.603   4.881   2.940
29238W        W96021  35.460  20.237  14.356
29239W        W96022  39.036  31.402  14.036
29240W        W96023  24.480  15.234  13.903
29241W        W96024   9.237   7.101   4.917
29242W        W96025  16.679  32.802  10.528
29243W        W96026   5.467  40.854  12.432
29244W        W96027  36.905  15.521  11.645
29245W        W96028  20.598  39.732   0.818
29246W        W96029   0.787  14.788  13.195
29247W        W96030  33.494  38.035  14.695
29248W        W96031   2.343  35.419   4.663
29249W        W96032  17.202  31.588   0.386
29250W        W96033   8.624   1.519  11.125
29251W        W96034   0.326   1.718   0.565
29252W        W96035  31.858  36.349   5.050
29253W        W96036  15.273  25.182  13.820
29254W        W96037   3.050   9.035   1.803
29255W        W96038  12.283   6.227  10.790
29256W        W96039  16.529   1.916  14.521
29257W        W96040  43.307  11.225  12.945
29258W        W96041  31.907  36.105  11.671
29259W        W96042  39.524  20.542  12.952
29260W        W96043  42.777  31.590  12.200
29261W        W96044  42.559   4.036  12.514
29262W        W96045  16.802  17.301  12.538
29263W        W96046   1.907   9.456   2.792
29264W        W96047  13.071  23.157   4.731
29265W        W96048  24.424  25.045  11.970
29266W        W96049  32.491  43.791  13.873
29267W        W96050  23.446  40.002   4.362
29268W        W96051   1.975   0.372  13.053
29269W        W96052  39.376   9.684  12.095
29270W        W96053   4.718  20.970  14.782
29271W        W96054  39.562  17.780  12.509
29272W        W96055   6.096  16.306   2.334
29273W        W96056  20.810   0.431  13.921
29274W        W96057  43.313  20.247  10.974
29275W        W96058  18.226  18.681   4.189
29276W        W96059   3.919  10.191  12.516
29277W        W96060  20.223   9.768   1.415
29278W        W96061   0.396  29.250   1.403
29279W        W96062  20.982  17.788  12.990
29280W        W96063  33.036  42.745   0.428
29281W        W96064  30.494  44.209   0.416
29282W        W96065  18.454  16.815   5.172
29283W        W96066  14.160  15.364  12.918
29284W        W96067  10.346  42.068  13.405
29285W        W96068  42.800   3.723  10.836
29286W        W96069  23.322  17.994   0.693
29287W        W96070  17.067  41.047   1.945
29288W        W96071  11.619  24.220   1.322
29289W        W96072  28.691   3.798  13.963
29290W        W96073  32.408   9.306  11.417
29291W        W96074   2.225  11.582   2.734
29292W        W96075  29.842  39.338  13.601
29293W        W96076  33.451  38.764  12.541
29294W        W96077  24.709  37.967   1.087
29295W        W96078  22.708   1.801   0.896
29296W        W96079  27.081   1.892  11.911
29297W        W96080   8.937  17.131   4.924
29298W        W96081   2.297   5.142  14.344
29299W        W96082  41.829  38.772  11.096
29300W        W96083  10.784  20.730   4.196
29301W        W96084   3.919  28.467  10.815
29302W        W96085   0.810  36.664  11.267
29303W        W96086  32.418  36.081   4.474
29304W        W96087  24.502  16.504   3.060
29305W        W96088  28.958  24.242   2.351
29306W        W96089   4.135  15.696  10.748
29307W        W96090  34.623  15.841   2.032
29308W        W96091   6.329  40.471  10.989
29309W        W96092  30.086  40.570   2.849
29310W        W96093   8.829   1.893   4.895
29311W        W96094   7.466  11.031  10.910
29312W        W96095  42.760  40.392  11.724
29313W        W96096  41.456  21.213   4.212
29314W        W96097  29.415  26.730  14.397
29315W        W96098   6.419  37.972   3.720
29316W        W96099  37.417  39.915  12.941
29317W        W96100   9.403  41.829   0.221
29318W        W96101  16.235  10.188   1.895
29319W        W96102  39.140  21.287   1.799
29320W        W96103  16.140  34.527  13.768
29321W        W96104   1.573  25.227   5.006
29322W        W96105  21.236  34.131   0.495
29323W        W96106  19.999   3.023   2.461
29324W        W96107   0.991   7.830   0.436
29325W        W96108  38.479  35.937   0.780
29326W        W96109  30.562  30.354  12.485
29327W        W96110   4.360  16.719  13.092
29328W        W96111  22.752   4.434   3.591
29329W        W96112   2.701  29.078  14.025
29330W        W96113  22.196  36.925  14.537
29331W        W96114  16.082   2.432  11.582
29332W        W96115  10.587   6.856  11.672
29333W        W96116   2.822   7.267  13.001
29334W        W96117  27.430   0.437   0.490
29335W        W96118  20.356  29.923  14.672
29336W        W96119  26.453  41.048  14.357
29337W        W96120  30.667  10.770   4.559
29338W        W96121  31.397  37.427   4.192
29339W        W96122  10.571  32.173   0.471
29340W        W96123  25.665  13.829  11.957
29341W        W96124  14.815  31.571   4.831
29342W        W96125  26.898  29.904   0.868
29343W        W96126   2.807  23.715   3.196
29344W        W96127  16.426   5.311  11.503
29345W        W96128   7.689   9.125   1.687
29346W        W96129  41.990   8.420   1.860
29347W        W96130  34.027  32.020  10.306
29348W        W96131  30.075  31.941  13.027
29349W        W96132  25.359  43.194   3.174
29350W        W96133  35.062  40.998   0.044
29351W        W96134  16.061  14.281  11.991
29352W        W96135  44.354  15.460  13.970
29353W        W96136  12.102  23.037  14.900
29354W        W96137  15.361   5.337  13.045
29355W        W96138  44.579  29.605   0.800
29356W        W96139   9.276  44.893  10.247
29357W        W96140  26.189  24.650   1.790
29358W        W96141   7.071   5.712  11.877
29359W        W96142   1.279  21.024  10.902
29360W        W96143  25.340  25.644   0.786
29361W        W96144  25.477  39.563   0.829
29362W        W96145  23.590  40.600   2.652
29363W        W96146   6.828   9.171   1.829
29364W        W96147  32.458  13.051   2.856
29365W        W96148  29.560  27.530  11.721
29366W        W96149   4.349  25.144   2.377
29367W        W96150  12.379  44.519  14.537
29368W        W96151  12.357  19.037   1.295
29369W        W96152  32.804  14.330   1.929
29370W        W96153  21.769  26.261  11.548
29371W        W96154  13.326  16.058  12.917
29372W        W96155  42.842  41.356  12.558
29373W        W96156  19.302   5.282   4.383
29374W        W96157  40.676  28.449   2.259
29375W        W96158  14.810  25.768   0.355
29376W        W96159  23.710  16.619  11.574
29377W        W96160  42.843  40.263  14.480
29378W        W96161   1.781  41.993   4.729
29379W        W96162   6.916  36.633   3.626
29380W        W96163   6.326  37.324   3.268
29381W        W96164   8.291  17.492   1.839
29382W        W96165   4.381  22.013   0.753
29383W        W96166   5.651  16.149   2.506
29384W        W96167  22.589  22.410  12.957
29385W        W96168  31.845  40.513   2.932
29386W        W96169  29.841  31.059   2.387
29387W        W96170  30.560  29.577   2.899
29388W        W96171  13.115  17.845   4.842
29389W        W96172  37.334  15.536   3.981
29390W        W96173  36.438  28.745  10.740
29391W        W96174  15.798  23.024  11.523
29392W        W96175  28.647  16.650   2.662
29393W        W96176   7.455  28.501  14.135
29394W        W96177   7.840   0.880   1.442
29395W        W96178   9.290  38.267  13.586
29396W        W96179   1.936  16.022   3.200
29397W        W96180  30.951   5.155  12.572
29398W        W96181  17.118  39.682  13.635
29399W        W96182  14.990  26.043  11.161
29400W        W96183   3.095  38.719   4.102
29401W        W96184  33.811   5.524   0.334
29402W        W96185  12.369  44.306   3.588
29403W        W96186   9.303  15.677   3.630
29404W        W96187  33.399   2.458  12.027
29405W        W96188  28.576   7.788   4.407
29406W        W96189  32.361  26.508  14.526
29407W        W96190  44.812  17.491   3.783
29408W        W96191  28.435  43.425   3.980
29409W        W96192  28.418  14.589  13.615
29410W        W96193  10.819  30.106   0.999
29411W        W96194  35.558  21.868  13.510
29412W        W96195  30.893  35.819  11.568
29413W        W96196   2.571  12.593   1.374
29414W        W96197  32.862   0.365   2.309
29415W        W96198  22.572  37.574  10.687
29416W        W96199  33.849   3.865   2.445
29417W        W96200  17.090   5.528  14.860
29418W        W96201  33.612  31.409   3.960
29419W        W96202  18.237  21.911   1.242
29420W        W96203   7.056  11.723  13.055
29421W        W96204  27.556  13.070   4.828
29422W        W96205  26.611  43.716  11.451
29423W        W96206  26.849   1.933   4.196
29424W        W96207  10.188  37.850   1.936
29425W        W96208   4.067   0.974  10.563
29426W        W96209  33.352   1.444  11.239
29427W        W96210  24.086  37.588  10.363
29428W        W96211   6.138  28.258  11.255
29429W        W96212   6.255  40.059   4.117
29430W        W96213  13.328  27.450  13.573
29431W        W96214   1.717  27.909   3.305
29432W        W96215   4.084   5.559   0.013
29433W        W96216  15.195   6.158  13.215
29434W        W96217   5.507   9.385   0.102
29435W        W96218  25.601  41.898  10.593
29436W        W96219  10.345  14.337  11.321
29437W        W96220  43.200  37.105   1.326
29438W        W96221   2.933  22.544   2.302
29439W        W96222   2.766  37.434   4.423
29440W        W96223  26.472  28.216  12.959
29441W        W96224   7.824  10.116  13.561
29442W        W96225   9.935  36.649  14.565
29443W        W96226  23.691   1.702   0.552
29444W        W96227   2.479  12.697  13.022
29445W        W96228  38.139  37.553   1.242
29446W        W96229  40.750  28.160   0.275
29447W        W96230  37.599  11.008  10.262
29448W        W96231  39.038  31.932   1.196
29449W        W96232  21.289  38.973  10.680
29450W        W96233   3.288  10.151   3.657
29451W        W96234   5.481  26.054   3.358
29452W        W96235  36.516  42.158  12.539
29453W        W96236  44.541  25.686  14.922
29454W        W96237  40.970   7.202  12.696
29455W        W96238  36.625  21.545   4.627
29456W        W96239   8.468  14.108  13.333
29457W        W96240  10.077   8.228  14.199
29458W        W96241  10.717   3.242  11.542
29459W        W96242  41.054  35.745  13.545
29460W        W96243  39.538  11.606  13.485
29461W        W96244  44.742  44.314   2.860
29462W        W96245   5.874   6.723   0.123
29463W        W96246  36.326  35.542  10.765
29464W        W96247  18.743  28.807   4.558
29465W        W96248  22.201  37.748   4.732
29466W        W96249  44.399   9.337   1.892
29467W        W96250  33.664   3.916  10.626
29468W        W96251   3.575   1.166  10.505
29469W        W96252  31.160   8.582   3.994
29470W        W96253  29.506   2.760   2.606
29471W        W96254  34.828  33.977   4.134
29472W        W96255   1.784  10.670   4.350
29473W        W96256  42.387  28.241  10.429
29474W        W96257  18.833  25.938  12.903
29475W        W96258  25.280  14.742   1.143
29476W        W96259  19.263  41.030  11.143
29477W        W96260  31.637  37.947  11.505
29478W        W96261  37.155  25.936   1.659
29479W        W96262  26.661   9.338  11.851
29480W        W96263  34.883  35.368  11.622
29481W        W96264   1.347   9.771  11.538
29482W        W96265  10.359  12.567  12.162
29483W        W96266   7.759   5.847   2.099
29484W        W96267  37.528  23.082  14.960
29485W        W96268  11.805  12.048  10.072
29486W        W96269  20.441   1.331   5.054
29487W        W96270  11.207  33.072   4.760
29488W        W96271  12.729  19.618   2.523
29489W        W96272  20.632  36.679   4.110
29490W        W96273   3.824  12.284  11.617
29491W        W96274  20.607  35.924   4.576
29492W        W96275  31.442  11.717  13.836
29493W        W96276  22.045   4.818   0.795
29494W        W96277   2.238  40.249   5.213
29495W        W96278   0.696  19.355  14.386
29496W        W96279   6.124  31.123   2.821
29497W        W96280  16.706  10.862  11.329
29498W        W96281  24.888  21.174   1.967
29499W        W96282  30.833  11.369   1.843
29500W        W96283  12.270   3.977   1.930
29501W        W96284  44.280  39.368   1.796
29502W        W96285  28.156   5.733   3.909
29503W        W96286   2.858  33.602  13.421
29504W        W96287  14.799  38.541  11.556
29505W        W96288   2.034  26.463   0.826
29506W        W96289  10.325  44.056  11.672
29507W        W96290   4.929   3.946  13.478
29508W        W96291  27.464   6.370   4.705
29509W        W96292  14.842  14.397   9.749
29510W        W96293  20.431  15.283  11.665
29511W        W96294   9.132   4.871  11.120
29512W        W96295  42.379  35.934   2.465
29513W        W96296   3.775   7.851  12.376
29514W        W96297  41.425  43.880  13.766
29515W        W96298  16.512  33.839   3.292
29516W        W96299  32.600  22.159  12.962
29517W        W96300  26.807  27.190  11.163
29518W        W96301  30.899  21.560   4.972
29519W        W96302  42.835  41.872  12.012
29520W        W96303  30.056  13.662  12.032
29521W        W96304  28.212  12.022   1.731
29522W        W96305   9.329  15.318  13.610
29523W        W96306  11.448  20.895  12.974
29524W        W96307  32.096   7.727   1.428
29525W        W96308   8.162  38.618  14.461
29526W        W96309  39.119  27.313   1.610
29527W        W96310   6.257  37.906  11.996
29528W        W96311  42.873  24.234   4.091
29529W        W96312  18.423  26.449  12.306
29530W        W96313  20.046  16.237   3.800
29531W        W96314  16.023   6.705   1.029
29532W        W96315  13.883   5.422  12.592
29533W        W96316  43.732  40.897  13.490
29534W        W96317   0.232  39.849  10.705
29535W        W96318  33.965  24.614   1.985
29536W        W96319   4.357  29.336  14.168
29537W        W96320  17.297  28.990   2.347
29538W        W96321  44.020  17.635   3.290
29539W        W96322  35.991   6.904  11.902
29540W        W96323  32.815  30.646  14.049
29541W        W96324  35.605   0.281  14.037
29542W        W96325   8.952  15.854  12.104
29543W        W96326   7.418  33.834  10.729
29544W        W96327  24.114  10.251  11.805
29545W        W96328  10.741   3.954  11.870
29546W        W96329  31.649   8.402   1.806
29547W        W96330  41.263  14.342  11.642
29548W        W96331  31.993   3.865   3.788
29549W        W96332   7.191  27.568   2.225
29550W        W96333  35.453  37.624  12.882
29551W        W96334   9.155  21.553  14.011
29552W        W96335  33.031   3.177   2.925
29553W        W96336  35.431   4.356  14.080
29554W        W96337  43.284  36.498  13.563
29555W        W96338  25.456  29.081  12.532
29556W        W96339   2.822  14.105   2.345
29557W        W96340  29.986  17.843   0.349
29558W        W96341  32.577  24.069   3.603
29559W        W96342   3.223  37.821   4.589
29560W        W96343   4.750  19.200  14.316
29561W        W96344  28.557  33.942   3.329
29562W        W96345  34.967  39.288  10.457
29563W        W96346  13.844  32.692   0.782
29564W        W96347  37.033   4.975  14.476
29565W        W96348  24.597  24.980   4.540
29566W        W96349  26.212   8.084  13.041
29567W        W96350   8.535  23.669  13.971
29568W        W96351  22.113  12.127  10.703
29569W        W96352   3.731  29.694  14.581
29570W        W96353  27.567  37.355   1.668
29571W        W96354   8.242  21.280  12.922
29572W        W96355   1.221  13.059   2.671
29573W        W96356  14.528  32.705   3.384
29574W        W96357  28.677  29.413   2.336
29575W        W96358  25.234  12.860   2.110
29576W        W96359  24.772  17.232   2.747
29577W        W96360  12.406  38.006   4.996
29578W        W96361   0.190   4.849   3.366
29579W        W96362   1.610  37.940   2.457
29580W        W96363  33.850  22.819   3.282
29581W        W96364  42.782  14.074   1.778
29582W        W96365  12.294  41.420   4.514
29583W        W96366   5.698  10.263  14.857
29584W        W96367  25.434  43.081  14.903
29585W        W96368   4.770  18.639  12.385
29586W        W96369   6.237  29.022   3.158
29587W        W96370  25.549  33.840  14.481
29588W        W96371  13.234  29.411  11.947
29589W        W96372   6.631  17.126  13.283
29590W        W96373  32.239  37.747   4.264
29591W        W96374   8.204   6.796   0.462
29592W        W96375  33.141   7.471   2.993
29593W        W96376  33.370  30.624  14.329
29594W        W96377  10.900  34.921   4.407
29595W        W96378  24.538  33.030  11.929
29596W        W96379  32.486  17.883  11.814
29597W        W96380  25.619  39.061  11.496
29598W        W96381  32.774   4.291   1.878
29599W        W96382  21.216  28.416  12.474
29600W        W96383  32.476   1.654  14.744
29601W        W96384  26.624  35.959   3.124
29602W        W96385  22.024  40.549  13.889
29603W        W96386  33.538   8.151   4.409
29604W        W96387  33.888   2.921   0.339
29605W        W96388  40.596  28.994   2.182
29606W        W96389   4.128  17.227   3.738
29607W        W96390  14.032  22.121  14.497
29608W        W96391  17.215  15.107   2.641
29609W        W96392  15.077  11.051   2.128
29610W        W96393   3.431   7.295  13.648
29611W        W96394   8.985  16.218   4.801
29612W        W96395   1.425  37.804   4.664
29613W        W96396  44.776  37.326  13.327
29614W        W96397  42.944  41.840   2.173
29615W        W96398   8.745   0.719   3.515
29616W        W96399  37.868  11.442   1.069
29617W        W96400  34.277  19.769   5.022
29618W        W96401  25.145  16.567  14.443
29619W        W96402  29.589  10.191   3.310
29620W        W96403   3.184  28.154  13.055
29621W        W96404  33.603  13.279   0.840
29622W        W96405  24.096  25.147   1.142
29623W        W96406  41.487  17.046   3.755
29624W        W96407  28.452  35.607  14.378
29625W        W96408   0.113  13.721   3.977
29626W        W96409  36.676  14.776  12.742
29627W        W96410   5.637  35.533  11.913
29628W        W96411   5.255   4.467   2.801
29629W        W96412  31.809   3.168   4.315
29630W        W96413   0.844  41.487   4.077
29631W        W96414  31.283  26.544   3.842
29632W        W96415   1.676  43.826  12.112
29633W        W96416  26.555  15.309  12.116
29634W        W96417  38.160  39.493   0.855
29635W        W96418  15.115   0.713  11.360
29636W        W96419   8.811   4.299   1.512
29637W        W96420  38.363  33.396   2.191
29638W        W96421  20.446  43.713  10.917
29639W        W96422  30.870  21.819   4.165
29640W        W96423  36.076   6.645   2.690
29641W        W96424  12.794  18.482  12.470
29642W        W96425  19.798  21.790   3.341
29643W        W96426   0.439  12.257  12.042
29644W        W96427  41.374  34.138  14.499
29645W        W96428  20.665  25.101  14.172
29646W        W96429  33.378  12.318   0.796
29647W        W96430  23.975  30.689   2.707
29648W        W96431  37.097  15.148  10.801
29649W        W96432  23.032  15.615  13.684
29650W        W96433   0.892  43.225  10.997
29651W        W96434  17.825  18.594  11.073
29652W        W96435  36.278   2.944   1.205
29653W        W96436  35.040  41.839   4.922
29654W        W96437  41.320  10.188   2.137
29655W        W96438   1.104  12.717  11.024
29656W        W96439   0.024   8.514   1.677
29657W        W96440   3.962  18.117   0.932
29658W        W96441   7.320  29.718   1.828
29659W        W96442  28.169  14.559  13.076
29660W        W96443  27.980  21.160   4.101
29661W        W96444  15.278  32.933  12.225
29662W        W96445  10.125  37.029  12.413
29663W        W96446  22.496  35.815  10.300
29664W        W96447  43.272   4.212  13.854
29665W        W96448   1.243  28.648   0.205
29666W        W96449  38.356   4.472  13.380
29667W        W96450  34.289   9.174  11.695
29668W        W96451  42.340  14.774   2.724
29669W        W96452  41.361  25.592   1.424
29670W        W96453  30.528  44.346  12.248
29671W        W96454  17.747  13.736  11.474
29672W        W96455   1.455  37.716   2.914
29673W        W96456  22.059  38.543  11.184
29674W        W96457  32.101  16.885   0.692
29675W        W96458  44.747   0.902  14.482
29676W        W96459   1.046  33.047   1.808
29677W        W96460   5.222  14.223   3.847
29678W        W96461  40.703  10.569   4.152
29679W        W96462  33.410   6.826  14.422
29680W        W96463  23.710  25.958  13.016
29681W        W96464  16.254  40.480   1.895
29682W        W96465  28.218  37.346  12.030
29683W        W96466  12.787  19.132   2.746
29684W        W96467  32.073  29.055   2.388
29685W        W96468  16.363  41.575   0.894
29686W        W96469  15.633  43.420   1.028
29687W        W96470   8.638  14.367  11.664
29688W        W96471  44.709  20.501   2.814
29689W        W96472   3.205   4.940   3.251
29690W        W96473  24.996   7.734   4.972
29691W        W96474   6.892  41.289  10.856
29692W        W96475   3.806  11.124  11.528
29693W        W96476  21.500  19.739  13.152
29694W        W96477  44.111   7.096  10.885
29695W        W96478  17.788   8.570   2.396
29696W        W96479  14.162  38.101  13.824
29697W        W96480  43.470  40.813   0.827
29698W        W96481  20.029   1.750   0.030
29699W        W96482   6.960   8.382   3.791
29700W        W96483  42.847  24.904  14.457
29701W        W96484  26.879  31.524   2.807
29702W        W96485  33.966  12.230   3.609
29703W        W96486  41.694  39.601  12.487
29704W        W96487  39.888  33.587  14.283
29705W        W96488  43.104  19.309   0.993
29706W        W96489   8.091  15.744   1.734
29707W        W96490  42.793  15.798   2.652
29708W        W96491  21.757  41.048  11.112
29709W        W96492  28.480  32.981  11.830
29710W        W96493  29.859  39.195  13.085
29711W        W96494  10.679   8.363  13.580
29712W        W96495  29.520  33.868  12.448
29713W        W96496  34.672  43.753  14.781
29714W        W96497   5.706  29.037   3.157
29715W        W96498   2.897  18.607   1.968
29716W        W96499  34.502   0.950  10.797
29717W        W96500  16.321  43.332  14.755
29718W        W96501  15.522  28.934   3.697
29719W        W96502  22.596  25.714  11.865
29720W        W96503   1.852  20.691   1.194
29721W        W96504   7.117  27.119   0.880
29722W        W96505  39.703  12.758  13.866
29723W        W96506   4.951   9.383  11.529
29724W        W96507  35.830   6.184  12.470
29725W        W96508  13.850   0.906   3.206
29726W        W96509  22.278  12.184  13.034
29727W        W96510  21.814  24.228  14.263
29728W        W96511  44.871  12.857   4.117
29729W        W96512  12.895  20.928  11.931
29730W        W96513  13.318  40.289   1.763
29731W        W96514  18.587  41.415  12.181
29732W        W96515  39.546   6.721   0.780
29733W        W96516  11.263  26.204  12.796
29734W        W96517  20.284  44.326  12.252
29735W        W96518   5.000   9.405  14.996
29736W        W96519  27.248  35.055  12.564
29737W        W96520  17.571  10.284  10.644
29738W        W96521  38.236  30.876   2.393
29739W        W96522  37.980  12.935  14.511
29740W        W96523  17.408  14.796  11.843
29741W        W96524  39.233  33.166  14.926
29742W        W96525  38.852  36.453   1.420
29743W        W96526  21.802  12.336   1.211
29744W        W96527   1.451  30.136  13.422
29745W        W96528  43.310  42.380   0.671
29746W        W96529   3.536  20.100   3.282
29747W        W96530  40.479   1.591   3.291
29748W        W96531  15.600  13.821  11.553
29749W        W96532  35.213  28.466   0.894
29750W        W96533   5.332  22.570   1.586
29751W        W96534  33.559  16.747  13.143
29752W        W96535  37.811  28.244   4.101
29753W        W96536  23.146  20.250  12.455
29754W        W96537   3.807  40.003  14.351
29755W        W96538   3.946  30.164   0.410
29756W        W96539  44.977  27.461  14.632
29757W        W96540  39.601  34.501   0.358
29758W        W96541  40.127  17.414   0.146
29759W        W96542  15.747  26.293   3.351
29760W        W96543   8.777   2.487   0.898
29761W        W96544  12.191  28.649  14.434
29762W        W96545   7.317  26.222   2.252
29763W        W96546  27.783   3.812   0.453
29764W        W96547  21.849  14.202  13.977
29765W        W96548  10.442  40.313   0.731
29766W        W96549  23.948  42.918  13.289
29767W        W96550  17.271   1.890   1.289
29768W        W96551  30.158   7.403  13.894
29769W        W96552  28.092   4.898  10.255
29770W        W96553  28.893  15.854   3.364
29771W        W96554  32.096  35.823   2.691
29772W        W96555  18.938  32.470  11.579
29773W        W96556  32.583  28.607   4.555
29774W        W96557  34.066  10.462  13.148
29775W        W96558   0.587  13.530  14.149
29776W        W96559   2.445  15.678  12.441
29777W        W96560   4.369  31.053  11.137
29778W        W96561  15.599  38.884   3.937
29779W        W96562  38.891  21.558   2.191
29780W        W96563   6.302   3.415  13.307
29781W        W96564  27.187  10.563   3.226
29782W        W96565   4.576  15.162  12.067
29783W        W96566  31.861  44.762  14.764
29784W        W96567  30.560  32.762   5.029
29785W        W96568  18.494  41.830   1.392
29786W        W96569  30.369   3.654  13.406
29787W        W96570   6.997  23.552  10.587
29788W        W96571   0.368  26.046   4.549
29789W        W96572  44.761  39.564  11.910
29790W        W96573  31.868  23.196  11.675
29791W        W96574  36.549  30.694   1.485
29792W        W96575  31.683   6.814  12.933
29793W        W96576  16.061   0.529   4.490
29794W        W96577  28.572   0.657   4.824
29795W        W96578  21.570  25.346  10.569
29796W        W96579  37.139  25.275  14.552
29797W        W96580  28.398  24.250  12.917
29798W        W96581  21.723  23.563  12.277
29799W        W96582  31.048  26.899   3.230
29800W        W96583  11.795   5.641   0.880
29801W        W96584  36.496  44.323   9.999
29802W        W96585   5.010  29.926   0.815
29803W        W96586  18.022  32.953  12.901
29804W        W96587  17.049  42.378   0.947
29805W        W96588  32.655   5.460  12.818
29806W        W96589  20.552   6.828   4.777
29807W        W96590  19.130   6.630   0.035
29808W        W96591  37.098  33.479  13.891
29809W        W96592  11.435  23.659   4.807
29810W        W96593  27.543  26.112  13.487
29811W        W96594  24.382   1.896   1.788
29812W        W96595  14.715  18.010  14.449
29813W        W96596   3.738   1.772  11.100
29814W        W96597  14.750  20.586  12.903
29815W        W96598  36.878  36.288  13.093
29816W        W96599  10.092  37.286  10.549
29817W        W96600   3.835  40.069   4.980
29818W        W96601   6.304  30.156   3.875
29819W        W96602  10.422   7.028  13.019
29820W        W96603  19.218   2.395   0.523
29821W        W96604  39.138  38.726  13.737
29822W        W96605  15.710   8.145   3.163
29823W        W96606  12.439   1.619   2.834
29824W        W96607  38.729  36.478  14.083
29825W        W96608  34.527  26.440  12.586
29826W        W96609   2.519  10.465  10.337
29827W        W96610  11.359  33.154  14.987
29828W        W96611  10.560   1.444  13.806
29829W        W96612  12.125  42.450   3.537
29830W        W96613  43.175  37.282  11.969
29831W        W96614  40.004  40.651  11.791
29832W        W96615   3.358  31.811   2.345
29833W        W96616  20.355  32.343  13.422
29834W        W96617  18.035  21.782   3.683
29835W        W96618  12.706  25.114   0.373
29836W        W96619  42.328  27.379  11.064
29837W        W96620  19.606   1.582  11.129
29838W        W96621  15.583  27.277   2.352
29839W        W96622  11.038  40.563   3.479
29840W        W96623  11.922   8.272  11.656
29841W        W96624  27.291  24.407   4.527
29842W        W96625  14.582   6.203   0.296
29843W        W96626  35.069  10.966  10.271
29844W        W96627  40.557  16.783   2.834
29845W        W96628  23.109  42.948   1.355
29846W        W96629  16.373  18.717   0.960
29847W        W96630  26.090  34.849   0.028
29848W        W96631  34.807  12.155   2.149
29849W        W96632  39.994  26.715  12.075
29850W        W96633  33.131  10.911   0.349
29851W        W96634  11.298   4.702   2.637
29852W        W96635  27.767   8.276  14.987
29853W        W96636  10.257   9.176  13.844
29854W        W96637   4.239  10.439   0.247
29855W        W96638  12.636  39.970   4.030
29856W        W96639   4.501  31.970   1.710
29857W        W96640   7.246  10.306   2.756
29858W        W96641  22.509  41.128   2.812
29859W        W96642  29.048   2.830  11.004
29860W        W96643   0.206  34.369  11.084
29861W        W96644   0.365  36.716  11.948
29862W        W96645  33.362   3.720  11.927
29863W        W96646  31.200  24.995   4.618
29864W        W96647  22.137  28.525  12.407
29865W        W96648  21.493  21.603   1.439
29866W        W96649  33.973  19.823  12.159
29867W        W96650  35.617  27.142  11.088
29868W        W96651  21.001  33.074   1.670
29869W        W96652  21.539  25.166   1.882
29870W        W96653   1.302   4.954   4.344
29871W        W96654  40.507   1.473   0.261
29872W        W96655  33.367  14.322  12.154
29873W        W96656  28.072  17.331  13.463
29874W        W96657   4.101   7.774   2.861
29875W        W96658  38.481   2.351   4.805
29876W        W96659  13.177  44.014  12.074
29877W        W96660  25.227   9.942   3.718
29878W        W96661  36.906  16.226   2.673
29879W        W96662  13.805  39.742   0.327
29880W        W96663  33.655  15.356  12.659
29881W        W96664   7.868  11.362   0.332
29882W        W96665  38.568  44.367   3.790
29883W        W96666  39.090  33.624  11.835
29884W        W96667   9.150  40.386  10.751
29885W        W96668  38.765   2.254   3.285
29886W        W96669  43.308  26.994   1.993
29887W        W96670   0.835  30.771  14.536
29888W        W96671  18.219  26.236   0.504
29889W        W96672  30.588  40.323  11.135
29890W        W96673  34.500  13.301   2.961
29891W        W96674  36.586   9.112  11.607
29892W        W96675  25.536  26.526  12.046
29893W        W96676  40.871  18.517  13.332
29894W        W96677  17.195  34.002  13.433
29895W        W96678  35.606   3.763  14.148
29896W        W96679   6.528   9.795   4.998
29897W        W96680  25.602  34.634   3.229
29898W        W96681  23.986  14.133   4.636
29899W        W96682  32.296   0.058  13.035
29900W        W96683   4.023   7.816  12.844
29901W        W96684  37.043  13.303   2.734
29902W        W96685  32.463  29.521  14.729
29903W        W96686  36.315  17.328  10.684
29904W        W96687  30.653  28.503  12.755
29905W        W96688   8.905   9.090  11.817
29906W        W96689  40.319  25.903  14.342
29907W        W96690  24.304  23.770  13.454
29908W        W96691  11.944   5.048   3.356
29909W        W96692  24.457  35.531  11.185
29910W        W96693  22.196   6.699  14.481
29911W        W96694   8.540  29.025   1.225
29912W        W96695  22.723  19.480  12.568
29913W        W96696  40.371  20.069  13.977
29914W        W96697  41.420   4.188   2.322
29915W        W96698  26.976   6.824  12.490
29916W        W96699  31.061   4.874  13.006
29917W        W96700  13.965  37.939  12.055
29918W        W96701  27.617  25.124   2.851
29919W        W96702  30.651  20.247   0.497
29920W        W96703  43.065  23.111   3.169
29921W        W96704  13.701  15.555   3.960
29922W        W96705   6.313  11.634  12.032
29923W        W96706  33.599  28.466   4.478
29924W        W96707  10.378  21.545  12.976
29925W        W96708  35.817  14.731  13.759
29926W        W96709  18.452   0.461   3.636
29927W        W96710  27.491   6.877  12.489
29928W        W96711  34.514  32.111   5.191
29929W        W96712  29.971   6.445  12.131
29930W        W96713  15.677   4.650   0.375
29931W        W96714  32.633  35.917  12.941
29932W        W96715  13.496   5.378   0.255
29933W        W96716  25.377  44.227  10.995
29934W        W96717  25.599  30.447   3.634
29935W        W96718  19.255  39.890   0.711
29936W        W96719   8.342  43.851  13.891
29937W        W96720   0.962  24.507  10.956
29938W        W96721  37.487  30.409  14.947
29939W        W96722   2.950  41.472  14.603
29940W        W96723   5.858  15.793   3.860
29941W        W96724  35.484  28.216  10.678
29942W        W96725  25.235  19.061   1.229
29943W        W96726  40.913  34.229   1.187
29944W        W96727  20.713  19.454  14.786
29945W        W96728  44.471  13.641  13.440
29946W        W96729   5.731  37.445   4.198
29947W        W96730  22.107  29.848  12.961
29948W        W96731  19.841   2.723  10.665
29949W        W96732   1.448   9.722  14.883
29950W        W96733  16.346   2.915  11.457
29951W        W96734   4.748  11.678   0.498
29952W        W96735  43.320  13.120  12.490
29953W        W96736  34.013  21.785   0.890
29954W        W96737  33.472  38.486   0.488
29955W        W96738  18.296  20.128   4.325
29956W        W96739  21.143  22.969  14.368
29957W        W96740  28.731  15.764  11.910
29958W        W96741  26.769   0.782  14.879
29959W        W96742  37.592  26.897   4.139
29960W        W96743  35.355  21.808   1.792
29961W        W96744  39.105  18.423   1.487
29962W        W96745   0.256  34.302  12.318
29963W        W96746  36.141  16.203  13.879
29964W        W96747  17.506  16.092  13.024
29965W        W96748  42.646  28.000   5.121
29966W        W96749  43.784  14.178  12.171
29967W        W96750  29.199   4.702   2.275
29968W        W96751  28.242  19.309  12.628
29969W        W96752   9.146  18.012   3.462
29970W        W96753  30.365  42.404   2.234
29971W        W96754  27.387  29.479   1.365
29972W        W96755  11.624  42.290  12.942
29973W        W96756   5.703  26.673  14.914
29974W        W96757  16.933  26.435  11.493
29975W        W96758  26.545   5.755   1.828
29976W        W96759   0.300  21.835   1.756
29977W        W96760  29.601  22.304  11.556
29978W        W96761   6.830  24.300   4.557
29979W        W96762  37.915  13.561  13.835
29980W        W96763  18.596   4.832   1.755
29981W        W96764  42.766   7.881  14.391
29982W        W96765  22.555  38.143   4.646
29983W        W96766  11.701  16.175  10.503
29984W        W96767  37.324  32.740   3.269
29985W        W96768  13.856  19.099  13.370
29986W        W96769  17.104  23.491   0.793
29987W        W96770  18.223   3.461   2.335
29988W        W96771  31.544  11.664   2.309
29989W        W96772   3.291  16.574  12.091
29990W        W96773  21.510  38.775  12.022
29991W        W96774   6.863  26.395   2.824
29992W        W96775   1.762  26.207  13.453
29993W        W96776   5.479   3.049   1.688
29994W        W96777   1.980  29.516  10.821
29995W        W96778  20.083  16.645   1.966
29996W        W96779   4.864  44.073  14.988
29997W        W96780   7.182  19.161  14.359
29998W        W96781   5.228  12.248   2.719
29999W        W96782  29.889  27.209  12.197
30000W        W96783  24.196   5.193  14.360
30001W        W96784   1.507  34.908   3.753
30002W        W96785   9.409  13.588  13.908
30003W        W96786  43.459  41.629   4.305
30004W        W96787  34.368  18.594   0.691
30005W        W96788  26.112   1.628   4.467
30006W        W96789  31.975  12.659   1.728
30007W        W96790  14.625  13.008   2.473
30008W        W96791   9.088  16.779  12.460
30009W        W96792  41.965  28.339  10.111
30010W        W96793  42.067   2.866   0.231
30011W        W96794  27.625  42.985   0.261
30012W        W96795  11.507  32.936  11.474
30013W        W96796  16.275   5.312   1.731
30014W        W96797  44.400  20.240   3.864
30015W        W96798   5.657  13.340   3.529
30016W        W96799  15.041  11.167  13.029
30017W        W96800  15.466  32.879   2.493
30018W        W96801   2.689  39.562   3.685
30019W        W96802  42.347   9.743  11.455
30020W        W96803  28.928  12.659  13.719
30021W        W96804  35.060  36.319  13.175
30022W        W96805  11.694  29.752   1.914
30023W        W96806  21.270   7.146  10.437
30024W        W96807  44.271  31.047   0.578
30025W        W96808  14.590  20.280   4.170
30026W        W96809   4.542   7.833  12.909
30027W        W96810   0.489  30.322   0.393
30028W        W96811  14.099  17.204   1.945
30029W        W96812   6.066  11.897  13.251
30030W        W96813  17.072   1.184  14.879
30031W        W96814  11.031   3.754   3.209
30032W        W96815  30.727  44.011  13.817
30033W        W96816   8.694   3.854   2.781
30034W        W96817  11.680  12.729  11.446
30035W        W96818  21.790  12.506  14.506
30036W        W96819  21.431  36.570   3.163
30037W        W96820  21.707  37.435  10.071
30038W        W96821   0.979  15.774  11.519
30039W        W96822  17.111  38.118   0.626
30040W        W96823  22.064  19.251   3.372
30041W        W96824   6.297  25.654  14.822
30042W        W96825  21.948  30.958   4.063
30043W        W96826  24.427  18.838  13.189
30044W        W96827  27.534  29.161   4.591
30045W        W96828  20.111  38.249  12.997
30046W        W96829  39.433  33.192   4.674
30047W        W96830  27.327   4.932   4.154
30048W        W96831  28.086  22.248  11.538
30049W        W96832  24.710  28.669   4.348
30050W        W96833  20.131  12.379   1.073
30051W        W96834   9.653   9.253   4.212
30052W        W96835  40.404   9.160   0.846
30053W        W96836  33.082  20.286   0.295
30054W        W96837  40.023  19.696  14.107
30055W        W96838  22.959  23.095  11.066
30056W        W96839  14.248   5.160  13.479
30057W        W96840  42.423  32.014  14.808
30058W        W96841  22.521  26.988  12.596
30059W        W96842  13.308  25.669   2.038
30060W        W96843  14.647  40.381  12.420
30061W        W96844  26.319   3.618   1.919
30062W        W96845  14.588  10.290   4.046
30063W        W96846  31.471  18.990  13.964
30064W        W96847  11.366  31.008   0.326
30065W        W96848   1.839  23.779  13.349
30066W        W96849   5.473   4.310  11.974
30067W        W96850  29.056   3.380  11.185
30068W        W96851  23.984   2.704   1.382
30069W        W96852  34.048  12.348  12.095
30070W        W96853  36.934   0.269  12.386
30071W        W96854  28.441  40.932  12.305
30072W        W96855  19.370  42.807   2.219
30073W        W96856  39.862  35.435  13.774
30074W        W96857  28.970   0.794  12.224
30075W        W96858   0.408  33.141  14.511
30076W        W96859  25.447   1.869   1.783
30077W        W96860  32.123  30.078  14.121
30078W        W96861  25.482  28.035  14.464
30079W        W96862  43.021  11.813  11.209
30080W        W96863  39.538  24.708  12.081
30081W        W96864  44.860  15.761  14.846
30082W        W96865  16.072  22.608  14.363
30083W        W96866  12.085  24.527  12.025
30084W        W96867  11.109  42.239  12.956
30085W        W96868  30.529  21.185   4.969
30086W        W96869  18.435  28.053  10.584
30087W        W96870   4.174  35.826   0.303
30088W        W96871   2.243  33.378  12.917
30089W        W96872   9.796  44.344   3.626
30090W        W96873   0.942  37.124   1.350
30091W        W96874  41.347  43.952   3.318
30092W        W96875  25.229  22.779  13.738
30093W        W96876  26.155  30.150  12.002
30094W        W96877   0.353   2.531  13.531
30095W        W96878  20.195  34.868   0.913
30096W        W96879  12.850  17.364  14.596
30097W        W96880  23.843   8.729   4.008
30098W        W96881   9.722  11.086  13.834
30099W        W96882  41.326  33.884  13.637
30100W        W96883   3.429  29.234  12.823
30101W        W96884  27.074   1.492   4.030
30102W        W96885   1.589  14.765  13.888
30103W        W96886  43.682  12.209  12.121
30104W        W96887   8.313  40.954   4.403
30105W        W96888  40.968  19.566  14.886
30106W        W96889   4.721   9.439   4.094
30107W        W96890   6.667  41.722  10.644
30108W        W96891   4.537  19.403   1.197
30109W        W96892  42.151  20.942  13.791
30110W        W96893  10.548  31.541  11.947
30111W        W96894  12.124  33.440  11.928
30112W        W96895  38.116  30.932   0.665
30113W        W96896  12.105  44.901   2.113
30114W        W96897  34.239  36.076   3.308
30115W        W96898   1.066  24.480  13.459
30116W        W96899  21.807  42.169  13.004
30117W        W96900  19.848  39.473   3.745
30118W        W96901  27.844  33.885   2.883
30119W        W96902  32.917  28.471   1.796
30120W        W96903   3.777  29.105  12.028
30121W        W96904  15.116  36.633   1.189
30122W        W96905   5.023  13.078  10.750
30123W        W96906  25.539  35.746   2.507
30124W        W96907  23.486  24.799   5.479
30125W        W96908  12.431  13.748  11.435
30126W        W96909  10.646  24.764   0.330
30127W        W96910   7.003  18.526   2.608
30128W        W96911  22.507  44.786  14.566
30129W        W96912  18.710  32.462   0.508
30130W        W96913  43.703  11.758  13.381
30131W        W96914  19.081   1.060   2.341
30132W        W96915  21.591   6.172  11.119
30133W        W96916  40.057  24.744  10.762
30134W        W96917  27.054  26.354  12.611
30135W        W96918  25.719  41.914  12.961
30136W        W96919   0.684   3.957  14.965
30137W        W96920  22.214  17.756   2.278
30138W        W96921  32.078  21.974   2.370
30139W        W96922  16.152  28.868   4.697
30140W        W96923  25.785  18.260  12.267
30141W        W96924   3.414  14.071   0.660
30142W        W96925  17.123  13.596  12.465
30143W        W96926  30.538  41.764   4.331
30144W        W96927   8.801  32.898  12.662
30145W        W96928  36.629   6.350   1.922
30146W        W96929  23.026  18.639  11.055
30147W        W96930  12.852   9.622  12.999
30148W        W96931  14.352  16.603   2.751
30149W        W96932  30.174  42.492  12.137
30150W        W96933  31.148  12.227   4.881
30151W        W96934   4.885  24.710  12.845
30152W        W96935  28.647   5.704   3.729
30153W        W96936  15.879  39.822  10.938
30154W        W96937  38.520  23.052  11.659
30155W        W96938   5.171  38.386   1.507
30156W        W96939   3.783  24.772  13.573
30157W        W96940  42.873  37.631   4.600
30158W        W96941  42.317   2.215   0.794
30159W        W96942   1.993   1.351  11.262
30160W        W96943  20.368  21.803  11.831
30161W        W96944  42.622  21.167  13.865
30162W        W96945  40.050  28.571   4.555
30163W        W96946  13.597  19.574   4.477
30164W        W96947  21.302   0.294  13.770
30165W        W96948   8.921  15.181  11.503
30166W        W96949  10.632   8.144   2.816
30167W        W96950  18.301   7.607   4.132
30168W        W96951  10.891   9.740   2.617
30169W        W96952   1.818   4.378   1.979
30170W        W96953   2.359   7.735   4.892
30171W        W96954  16.523   1.830   3.268
30172W        W96955  28.069  37.942   1.339
30173W        W96956  32.210   6.893  11.237
30174W        W96957  20.848  33.371   0.447
30175W        W96958  21.582  26.266   2.685
30176W        W96959   2.387  36.669   4.614
30177W        W96960  14.360  24.593   2.375
30178W        W96961  35.985  37.240   4.709
30179W        W96962  40.579  11.747  12.540
30180W        W96963  16.144   3.444  14.312
30181W        W96964   0.507  43.830  14.740
30182W        W96965  38.861  17.169   1.729
30183W        W96966  14.855  44.099   3.634
30184W        W96967  11.409  44.253   0.328
30185W        W96968  29.656  29.513   1.944
30186W        W96969   3.493  43.830  12.407
30187W        W96970   2.337  27.268   2.397
30188W        W96971   5.581   8.425  13.707
30189W        W96972   4.093  15.308   2.772
30190W        W96973  41.438  29.588   0.823
30191W        W96974   9.290  38.513   0.991
30192W        W96975   1.255  18.284  11.647
30193W        W96976  32.569  18.847  13.557
30194W        W96977  27.140   0.357  12.894
30195W        W96978   9.972   0.457  12.734
30196W        W96979   1.162  32.733   4.144
30197W        W96980  27.991  23.003   3.580
30198W        W96981  32.776   0.415  14.444
30199W        W96982  26.766  19.230   3.828
30200W        W96983  17.755  43.884  11.969
30201W        W96984   5.403  39.838  10.729
30202W        W96985  40.129  17.653  13.812
30203W        W96986   0.915  19.276   1.724
30204W        W96987  27.763  30.917  14.039
30205W        W96988  23.116  37.766  13.332
30206W        W96989  26.167  30.403  12.456
30207W        W96990  34.040  23.893  11.473
30208W        W96991  42.017  10.557  12.915
30209W        W96992  31.590   5.821  12.457
30210W        W96993  26.467  15.747  13.872
30211W        W96994  44.758   3.556   0.466
30212W        W96995  23.700  41.910   3.167
30213W        W96996  41.794  10.830   1.799
30214W        W96997   0.781  17.955  12.420
30215W        W96998  16.483  32.552  14.274
30216W        W96999  29.384   7.297  11.103
30217W        W97000  11.620  11.327  11.089
30218W        W97001  23.360  13.385   2.449
30219W        W97002   0.242  25.450  10.640
30220W        W97003  22.879  18.288   2.638
30221W        W97004   1.274  33.493   3.450
30222W        W97005  15.742  39.969   3.465
30223W        W97006  29.004   2.139   1.954
30224W        W97007  14.119  20.078   2.430
30225W        W97008  39.789  11.710  12.130
30226W        W97009  18.665  34.381  11.618
30227W        W97010  36.572  10.229   2.149
30228W        W97011  27.710  27.168   1.479
30229W        W97012   6.201  22.632  13.626
30230W        W97013  14.181  35.821  10.695
30231W        W97014  34.975   3.202  10.739
30232W        W97015  25.965  11.744  11.111
30233W        W97016   3.910  35.973  10.868
30234W        W97017  35.492  43.856   3.439
30235W        W97018  31.851  23.993   3.213
30236W        W97019  43.920  18.601   0.124
30237W        W97020   0.829  43.951  12.128
30238W        W97021  43.827   4.681   3.042
30239W        W97022  13.612  14.829  11.917
30240W        W97023  23.488  44.488   0.487
30241W        W97024  34.173  37.899  14.011
30242W        W97025   3.794   7.437  13.138
30243W        W97026  16.485   1.455  14.759
30244W        W97027  42.495  38.823  10.796
30245W        W97028  27.177  41.355   2.188
30246W        W97029  35.912   2.359   1.310
30247W        W97030   3.597  17.903  13.143
30248W        W97031  20.106  12.266  11.184
30249W        W97032  14.518  43.289  14.459
30250W        W97033   5.830  26.710   2.872
30251W        W97034   3.700   2.206  14.263
30252W        W97035  29.069  14.050   2.079
30253W        W97036  32.539  15.837  13.244
30254W        W97037  14.175  22.985   0.138
30255W        W97038   9.785  42.730   1.777
30256W        W97039  28.989  10.198  13.766
30257W        W97040  14.182  29.166  11.185
30258W        W97041  28.004  16.584   2.126
30259W        W97042   5.731   0.050  13.899
30260W        W97043   9.879  34.925   2.487
30261W        W97044   6.475  13.077   1.170
30262W        W97045   6.829  36.486   4.117
30263W        W97046  39.694  33.912  10.738
30264W        W97047  14.775  22.960   1.242
30265W        W97048   1.990  20.439   0.735
30266W        W97049  18.747  10.860  13.773
30267W        W97050  24.175  39.095  11.414
30268W        W97051  40.560  31.834  14.429
30269W        W97052   2.707   2.977   3.094
30270W        W97053  28.059  33.558   1.635
30271W        W97054   9.248  34.100  11.110
30272W        W97055  30.926  18.645  11.189
30273W        W97056  11.818   5.427   0.386
30274W        W97057  12.709   5.200   4.101
30275W        W97058  38.414  18.747   3.804
30276W        W97059  11.669   8.707   0.290
30277W        W97060   3.375  40.766   4.103
30278W        W97061  42.195  43.748  12.461
30279W        W97062  35.294   0.925   0.250
30280W        W97063  42.099  25.715   2.422
30281W        W97064  13.324  44.307   0.056
30282W        W97065   1.262   8.831  13.825
30283W        W97066  34.087   6.315   0.459
30284W        W97067  28.918  38.115   0.783
30285W        W97068  10.873  34.036   1.795
30286W        W97069   1.260  39.551  12.066
30287W        W97070  20.761   2.222   2.342
30288W        W97071  17.615  30.988  11.255
30289W        W97072  25.449  22.157   2.656
30290W        W97073   4.272  30.213   1.807
30291W        W97074  19.550   8.853   1.719
30292W        W97075   8.389  15.162  13.117
30293W        W97076  23.939  40.732   1.879
30294W        W97077   9.179  19.146   0.717
30295W        W97078   6.403  43.324   0.341
30296W        W97079   8.281   6.346  14.495
30297W        W97080  35.913   3.402   4.029
30298W        W97081   5.195  24.745  13.402
30299W        W97082  26.742  25.497  13.601
30300W        W97083   8.236  36.243   2.287
30301W        W97084  28.141  21.134   3.052
30302W        W97085  14.312  25.907  14.325
30303W        W97086  24.109   4.167   1.431
30304W        W97087  28.111  35.025  14.198
30305W        W97088  42.533  25.284   2.571
30306W        W97089  14.071  36.407   2.090
30307W        W97090  18.444  28.491  13.166
30308W        W97091  44.462  41.008  10.370
30309W        W97092  28.211  41.428  13.351
30310W        W97093   0.982  20.742  13.079
30311W        W97094   2.105  35.763   2.144
30312W        W97095  29.472  35.804   1.380
30313W        W97096   6.237  32.758  11.665
30314W        W97097   1.202   4.631  12.838
30315W        W97098  10.908  11.762   4.604
30316W        W97099  22.516  24.129   3.063
30317W        W97100  23.509  23.999  11.010
30318W        W97101  40.681  14.386   3.987
30319W        W97102  42.814  27.578  11.143
30320W        W97103  29.545   3.303   1.413
30321W        W97104  27.889   9.463  11.189
30322W        W97105  20.712  38.983   3.392
30323W        W97106  44.540   4.851  11.084
30324W        W97107  17.999   4.296  11.513
30325W        W97108  32.959   0.764  14.892
30326W        W97109  12.187  26.983   1.107
30327W        W97110   5.295  17.864  10.478
30328W        W97111  30.945  39.046  14.524
30329W        W97112   0.039  25.849   1.267
30330W        W97113  42.933  16.803   1.871
30331W        W97114  26.642   6.405   5.026
30332W        W97115  34.010  26.595   2.768
30333W        W97116   2.452  27.267  12.798
30334W        W97117   0.317   7.753   1.652
30335W        W97118  33.835  38.428  10.515
30336W        W97119   9.868  16.672  11.406
30337W        W97120   2.985  18.302   0.340
30338W        W97121   1.895  13.089   1.874
30339W        W97122  41.784  16.945  13.150
30340W        W97123  19.945  17.115   2.196
30341W        W97124  10.756   7.413   1.542
30342W        W97125  16.163  24.175  12.489
30343W        W97126  40.920  35.383  11.157
30344W        W97127  23.529   0.556   0.972
30345W        W97128  40.776  22.660   3.171
30346W        W97129  35.671  22.725   2.589
30347W        W97130  28.008  38.462   0.478
30348W        W97131   1.011  15.613  10.113
30349W        W97132  44.438  23.175   4.059
30350W        W97133   5.845   0.286  13.458
30351W        W97134  37.990  28.091   3.655
30352W        W97135  23.070  28.461  11.039
30353W        W97136  20.635  27.563   3.392
30354W        W97137  44.711  10.328  14.428
30355W        W97138  21.476   8.095   2.859
30356W        W97139  37.161  43.959  12.057
30357W        W97140   9.000  22.733   5.052
30358W        W97141  23.972  36.839  13.404
30359W        W97142  20.105  11.209   3.847
30360W        W97143  17.858   7.160  14.489
30361W        W97144  19.505   4.436   4.617
30362W        W97145  11.631  31.981   5.097
30363W        W97146  35.464  20.798   2.663
30364W        W97147  42.600  38.377  11.067
30365W        W97148   1.236   7.369  11.668
30366W        W97149  34.894  29.327   4.582
30367W        W97150  15.509  22.012   0.414
30368W        W97151  17.651  25.087   0.905
30369W        W97152  32.464  29.726   1.354
30370W        W97153  24.672  43.157   2.935
30371W        W97154   5.747  42.614   2.324
30372W        W97155  40.302  25.501   0.334
30373W        W97156   8.163  31.523  13.825
30374W        W97157   5.332  43.029  11.121
30375W        W97158   5.645  29.542  11.178
30376W        W97159  19.809  13.134   2.182
30377W        W97160   6.646  35.010  10.890
30378W        W97161  34.107  35.626  14.874
30379W        W97162  25.699   8.228  13.060
30380W        W97163  12.494  32.539   4.157
30381W        W97164  38.390  10.305  10.650
30382W        W97165  36.729   3.915   3.284
30383W        W97166   7.836   9.281  10.282
30384W        W97167   0.911  43.738   3.672
30385W        W97168   3.626   6.380   5.091
30386W        W97169  42.699  21.301  11.934
30387W        W97170  12.653  10.253   3.668
30388W        W97171  13.204  23.138   0.186
30389W        W97172  44.231  32.656  11.214
30390W        W97173  14.065  37.433   0.882
30391W        W97174   5.301  18.359   0.480
30392W        W97175  37.911  21.518   4.156
30393W        W97176  38.872  11.205   3.566
30394W        W97177  39.554  40.946   1.782
30395W        W97178  19.322  29.597  13.401
30396W        W97179  42.540  18.631   1.180
30397W        W97180  18.199  42.928  14.893
30398W        W97181  31.769  19.047   3.867
30399W        W97182  26.086  35.597   0.001
30400W        W97183  23.581  31.746  11.944
30401W        W97184  43.341  39.073   2.296
30402W        W97185  20.771   4.640   2.426
30403W        W97186  16.148   2.811   4.291
30404W        W97187  42.915  24.177   5.147
30405W        W97188   9.877  41.334   4.293
30406W        W97189   0.351   4.797  14.948
30407W        W97190  13.355  13.049   2.037
30408W        W97191  22.295  13.550   4.666
30409W        W97192   5.748  37.604   2.196
30410W        W97193  44.097   1.968   2.959
30411W        W97194  14.712  18.206  10.813
30412W        W97195  15.741  12.263   2.173
30413W        W97196  36.028  29.934  14.824
30414W        W97197  13.508   8.137   4.110
30415W        W97198  42.056  42.424   0.616
30416W        W97199  20.183  26.235  14.069
30417W        W97200  19.394  36.074  12.061
30418W        W97201  10.956  23.470  12.841
30419W        W97202  29.462  35.688   2.749
30420W        W97203   4.367  20.148   3.661
30421W        W97204  19.597   5.146  10.696
30422W        W97205   0.403  44.170  11.996
30423W        W97206  10.575  31.521  10.635
30424W        W97207  40.178  20.077  13.499
30425W        W97208   6.960  15.781   0.212
30426W        W97209   1.485  37.055   1.242
30427W        W97210  44.192  10.894   1.328
30428W        W97211  24.653   1.079   4.150
30429W        W97212  32.958  11.260  14.792
30430W        W97213   1.393  19.540  10.495
30431W        W97214  27.816  15.360  11.477
30432W        W97215  44.020  11.709   2.878
30433W        W97216  42.786   2.666   1.465
30434W        W97217  20.020   9.722   3.831
30435W        W97218  26.235  28.115   0.604
30436W        W97219  13.877   6.377  11.713
30437W        W97220  41.535  39.616   1.385
30438W        W97221  24.539  37.633  14.338
30439W        W97222   8.028  44.170  14.211
30440W        W97223   0.918   0.875  14.804
30441W        W97224  21.378  35.740   9.710
30442W        W97225  16.099  11.279   3.539
30443W        W97226  26.007  20.022   2.408
30444W        W97227  27.975  12.721  11.550
30445W        W97228  25.603   0.887   0.917
30446W        W97229  16.828  24.279   1.274
30447W        W97230  24.474  31.469  14.982
30448W        W97231   2.212  21.626  13.370
30449W        W97232  36.159  11.674  11.770
30450W        W97233  39.305  17.089  14.912
30451W        W97234  17.648   8.793   0.023
30452W        W97235  37.592  23.630  14.846
30453W        W97236  40.413  34.919   0.321
30454W        W97237  12.470  26.527   0.262
30455W        W97238  41.820  36.337   0.378
30456W        W97239  25.228  13.734   0.006
30457W        W97240  19.661   6.343   3.337
30458W        W97241  36.045   8.218   4.070
30459W        W97242  22.246  36.522   3.654
30460W        W97243   7.642   8.928  14.500
30461W        W97244  20.923  11.263   2.308
30462W        W97245   9.776   0.383   2.929
30463W        W97246  18.087   9.209   3.310
30464W        W97247  32.432  30.369  10.613
30465W        W97248  32.114  20.007   3.757
30466W        W97249  37.862  18.025  14.868
30467W        W97250   3.296  42.943  10.694
30468W        W97251  37.391  34.733   3.554
30469W        W97252  29.892   5.891  13.985
30470W        W97253  31.562   5.632  14.284
30471W        W97254   4.638  28.787  13.003
30472W        W97255  23.515   4.128  13.920
30473W        W97256  36.021  18.206  10.749
30474W        W97257  22.488  25.565   0.356
30475W        W97258  27.008  39.124  14.378
30476W        W97259  19.646  26.643   3.346
30477W        W97260  39.321  26.155   2.128
30478W        W97261  40.051  42.029  13.062
30479W        W97262  42.884  32.150   9.940
30480W        W97263  35.140  34.501   4.381
30481W        W97264  22.120  41.836  11.952
30482W        W97265  16.651  15.101   2.064
30483W        W97266  28.257  30.157  13.908
30484W        W97267  31.938   6.968  10.781
30485W        W97268   8.200  21.696   2.869
30486W        W97269  10.889  41.622   3.777
30487W        W97270   2.931  17.700   3.889
30488W        W97271  22.122  41.728  11.438
30489W        W97272  21.809   2.016   1.374
30490W        W97273  41.909  19.516   0.145
30491W        W97274  24.696  12.607   1.166
30492W        W97275  33.849   4.917  14.506
30493W        W97276  42.499  24.614  14.135
30494W        W97277   0.938  27.743  13.932
30495W        W97278  44.758   4.335  13.911
30496W        W97279  18.710  27.897  11.623
30497W        W97280  16.249  43.238   3.759
30498W        W97281  24.762  34.570   2.110
30499W        W97282  14.587  33.596   3.660
30500W        W97283  11.164  18.212   1.516
30501W        W97284  34.827  30.077  14.397
30502W        W97285  28.090   0.406   1.796
30503W        W97286  33.534   4.655   1.196
30504W        W97287  19.552  26.578   1.952
30505W        W97288  18.759   7.217  14.341
30506W        W97289  37.886  18.098   2.510
30507W        W97290  14.342  36.802  10.998
30508W        W97291   5.679  34.196   1.334
30509W        W97292  31.158  44.942   0.350
30510W        W97293  31.114   5.147   2.870
30511W        W97294   9.047   9.689   3.212
30512W        W97295  19.993  16.064   0.355
30513W        W97296  29.574  35.845  14.108
30514W        W97297  37.122  15.063  12.467
30515W        W97298  37.883  36.063  12.512
30516W        W97299  33.566  25.106   1.479
30517W        W97300  36.572  32.207   0.637
30518W        W97301  24.152   4.917  14.798
30519W        W97302  32.029  37.813   4.722
30520W        W97303  32.596  29.631  12.430
30521W        W97304  23.522   7.359   2.767
30522W        W97305  13.692  33.905  12.113
30523W        W97306  43.200  23.009  14.253
30524W        W97307   8.926  40.057  10.399
30525W        W97308   7.724  40.284  10.636
30526W        W97309  17.034  25.472   3.311
30527W        W97310  38.953   0.526  11.607
30528W        W97311   7.337  37.139   1.240
30529W        W97312  37.104  21.146  12.204
30530W        W97313  20.192  18.107  10.706
30531W        W97314  24.590  26.593   4.181
30532W        W97315  30.133  30.014   1.770
30533W        W97316  18.694  41.337   0.772
30534W        W97317   3.411  18.560   3.677
30535W        W97318  34.118   8.650  11.500
30536W        W97319   7.446   4.811   2.179
30537W        W97320  24.957  25.202   2.814
30538W        W97321   9.390  38.016  12.249
30539W        W97322  10.916  19.760   3.122
30540W        W97323  14.951  19.766   0.971
30541W        W97324  42.776   2.920   1.933
30542W        W97325  13.185   6.697  10.684
30543W        W97326  28.459   2.225  12.666
30544W        W97327  36.647   2.373   4.622
30545W        W97328   4.315  12.310  11.403
30546W        W97329  38.736  11.806  13.902
30547W        W97330   8.845   1.039  12.900
30548W        W97331  27.645  23.604  11.900
30549W        W97332  16.662  12.871  14.386
30550W        W97333  13.279  44.624   2.303
30551W        W97334  20.036  40.365  11.301
30552W        W97335  17.691  32.844  10.582
30553W        W97336  20.188  10.717   2.403
30554W        W97337  20.915  26.670  13.500
30555W        W97338  19.067  40.787   3.715
30556W        W97339  12.584  14.127   3.748
30557W        W97340  20.806  31.388  12.973
30558W        W97341  40.346   2.254   2.310
30559W        W97342  19.823  32.832  11.948
30560W        W97343  20.225  25.018  11.438
30561W        W97344  36.497  21.043   4.576
30562W        W97345  44.734  41.802  13.126
30563W        W97346  31.542  41.898   3.789
30564W        W97347  22.209  14.331   3.372
30565W        W97348  10.950  31.195  13.933
30566W        W97349   5.412  19.512  13.974
30567W        W97350  17.662  32.151  13.321
30568W        W97351  36.541  17.744   2.798
30569W        W97352  33.017  17.566  11.793
30570W        W97353  15.761  28.754  13.569
30571W        W97354  18.055  14.747  13.523
30572W        W97355   2.548  23.993   2.795
30573W        W97356  23.239  25.449  12.450
30574W        W97357  16.219  39.900   3.713
30575W        W97358  23.993   0.916  12.156
30576W        W97359  18.352  28.702   1.518
30577W        W97360  29.125  40.495   2.792
30578W        W97361  34.944  31.739   5.046
30579W        W97362  14.759  30.581  12.439
30580W        W97363  39.594  39.641   1.464
30581W        W97364   9.246  22.491   3.788
30582W        W97365   3.883  37.800  14.377
30583W        W97366  36.671   8.112  12.483
30584W        W97367  27.037  37.232   2.801
30585W        W97368  14.661  29.219   3.911
30586W        W97369  17.303  24.477  10.672
30587W        W97370  42.530  27.361  11.544
30588W        W97371  19.622  39.902   4.505
30589W        W97372  34.748   0.880  14.707
30590W        W97373  43.890  34.515  11.894
30591W        W97374  36.340  41.904  14.340
30592W        W97375  37.526  32.561   0.332
30593W        W97376  28.045  25.764  14.397
30594W        W97377  31.757   8.200   5.440
30595W        W97378  20.670   8.349  13.091
30596W        W97379  21.161   7.987   0.509
30597W        W97380  34.765   4.637  12.269
30598W        W97381  20.483  44.374   1.453
30599W        W97382  32.283   3.056   4.139
30600W        W97383   0.534   8.687   3.201
30601W        W97384  43.822  35.522  12.866
30602W        W97385  38.461  15.124   0.391
30603W        W97386  42.266  17.140   1.152
30604W        W97387   2.451  30.947  12.087
30605W        W97388  44.784  39.860   2.287
30606W        W97389   9.176  11.788   3.213
30607W        W97390   7.300  30.821  11.976
30608W        W97391  18.268  18.138   1.820
30609W        W97392  22.501  43.008   2.337
30610W        W97393  25.749   3.546   2.762
30611W        W97394   6.681  19.555   2.843
30612W        W97395  35.904  16.475  12.079
30613W        W97396   5.782  19.780   2.900
30614W        W97397  18.585  11.650   0.666
30615W        W97398  29.906  43.766   3.259
30616W        W97399  25.598  40.390   3.121
30617W        W97400   1.978  27.881  14.345
30618W        W97401  12.851  13.438   3.353
30619W        W97402  13.114  36.041  11.635
30620W        W97403  34.664  42.900  12.877
30621W        W97404  28.891   3.764  14.445
30622W        W97405  29.975   4.330   2.181
30623W        W97406  44.882  15.577   2.456
30624W        W97407  39.368  43.321  11.678
30625W        W97408  39.941   2.267  12.300
30626W        W97409  29.725  31.153   4.558
30627W        W97410  16.096  10.461   3.851
30628W        W97411  37.657  26.950   2.387
30629W        W97412  24.686  38.983  10.688
30630W        W97413  23.484  43.850  13.842
30631W        W97414  37.546  40.232   2.460
30632W        W97415  36.584   8.828  14.238
30633W        W97416   6.749  26.704   4.538
30634W        W97417  36.621  28.499   3.719
30635W        W97418  23.947   7.600   0.857
30636W        W97419  34.364  14.069   2.341
30637W        W97420  28.022   7.197  10.491
30638W        W97421  20.704  16.464  14.800
30639W        W97422   5.098  17.086   4.957
30640W        W97423  16.794  10.242  12.929
30641W        W97424  15.111   6.150   0.250
30642W        W97425  33.073  38.530   1.462
30643W        W97426  30.291  32.981   3.303
30644W        W97427   8.666  30.897   0.804
30645W        W97428  40.499  14.090   2.162
30646W        W97429  43.839  11.151  12.976
30647W        W97430  17.649  26.639   1.824
30648W        W97431  26.602  15.104   1.890
30649W        W97432  11.121  17.277  10.806
30650W        W97433  19.380  11.873  12.168
30651W        W97434  44.409  14.615   0.969
30652W        W97435  16.863  32.985   4.355
30653W        W97436  10.062   5.962   4.193
30654W        W97437  41.027  35.276   2.624
30655W        W97438  10.767  18.192  12.843
30656W        W97439  42.795  30.577   3.581
30657W        W97440  15.888  35.416   1.756
30658W        W97441  30.432  39.737   3.215
30659W        W97442  25.872  13.980  12.393
30660W        W97443  36.195  33.564   2.813
30661W        W97444  29.999   3.771  11.154
30662W        W97445  11.870  13.154  11.720
30663W        W97446  27.995  31.567   0.801
30664W        W97447  28.959  26.744  10.433
30665W        W97448  22.968  44.115  13.517
30666W        W97449  12.188  23.708   0.704
30667W        W97450  21.153  37.372  11.549
30668W        W97451   2.150   1.655  11.648
30669W        W97452   0.316  19.682   0.834
30670W        W97453  29.195  40.063  13.419
30671W        W97454  14.837  42.667   0.256
30672W        W97455  44.940  10.896   2.805
30673W        W97456  20.643  34.813  11.583
30674W        W97457  42.672  15.882   0.732
30675W        W97458  20.028  40.797  11.564
30676W        W97459  41.822  43.227   0.816
30677W        W97460   7.407  31.061  14.170
30678W        W97461   1.782   4.253   0.917
30679W        W97462  28.340  31.155   5.077
30680W        W97463  17.191  22.490  12.045
30681W        W97464  34.804   8.295  11.517
30682W        W97465  41.975  12.084  12.991
30683W        W97466  13.710  12.305   0.769
30684W        W97467  20.528  10.333  11.534
30685W        W97468  14.576  30.886   0.503
30686W        W97469  35.944  28.446   1.303
30687W        W97470  41.588  41.000   2.277
30688W        W97471  12.381  18.239  12.663
30689W        W97472  43.565  39.880  11.635
30690W        W97473  42.309   8.807  13.395
30691W        W97474  25.194  11.892   3.697
30692W        W97475  32.968  24.497  12.501
30693W        W97476   8.624  42.834  10.472
30694W        W97477  24.961  24.579  14.894
30695W        W97478  25.330   4.072  13.979
30696W        W97479  18.945  42.495  14.698
30697W        W97480  12.708  24.651   1.775
30698W        W97481  15.256  26.695  10.078
30699W        W97482   1.836   4.664   4.714
30700W        W97483  36.011  24.594   4.577
30701W        W97484  23.966  21.281   1.799
30702W        W97485   2.509   9.287   0.367
30703W        W97486  20.392   4.203   4.025
30704W        W97487  21.503   6.616   1.869
30705W        W97488   3.803  39.575  12.096
30706W        W97489  38.383   7.256   3.233
30707W        W97490  43.081  18.084   3.697
30708W        W97491   5.746   2.519   4.509
30709W        W97492  37.857  41.071  12.513
30710W        W97493  13.348  35.493   1.976
30711W        W97494  10.048   7.990   3.587
30712W        W97495  16.648  31.657   1.929
30713W        W97496  14.814  42.063   4.056
30714W        W97497  42.926  11.818   2.326
30715W        W97498  23.702  27.621   0.383
30716W        W97499  38.030  35.148  14.979
30717W        W97500  12.863  44.397  12.835
30718W        W97501  10.715  41.518  10.670
30719W        W97502  11.914  22.305   1.458
30720W        W97503  35.893  23.000  12.724
30721W        W97504   0.332   7.422   2.774
30722W        W97505   2.284  11.309  14.758
30723W        W97506   0.463  44.088  10.179
30724W        W97507  18.238  44.747   0.810
30725W        W97508  30.001   1.536  13.561
30726W        W97509  11.659   0.975   1.266
30727W        W97510  10.724  31.453   0.006
30728W        W97511  26.627   5.278   1.503
30729W        W97512  36.951  24.283   4.521
30730W        W97513  33.704  38.334   3.339
30731W        W97514  41.540  44.935  14.130
30732W        W97515  15.778  20.802   3.881
30733W        W97516  30.990  19.585  11.893
30734W        W97517  31.554  22.096  13.359
30735W        W97518  25.536  14.916  10.790
30736W        W97519  33.650  33.539   1.963
30737W        W97520  39.390   1.719  11.818
30738W        W97521  15.481  40.616  12.940
30739W        W97522  19.055  29.422  12.121
30740W        W97523  11.080  27.151  11.804
30741W        W97524  28.579  16.800   1.199
30742W        W97525  25.979  24.734  12.743
30743W        W97526   3.746  29.385   0.003
30744W        W97527  12.849  40.844   3.140
30745W        W97528   9.161   7.839  11.921
30746W        W97529  30.187   5.858   2.835
30747W        W97530  12.297  27.583   1.227
30748W        W97531   2.892   1.521   3.189
30749W        W97532  34.991  13.209  11.858
30750W        W97533  21.336  22.770  14.853
30751W        W97534   0.159   2.614   0.313
30752W        W97535  20.126  41.881  12.122
30753W        W97536   9.455  38.257   1.421
30754W        W97537   0.422  13.747   0.077
30755W        W97538  19.289  34.866   2.199
30756W        W97539  34.932  35.788   0.921
30757W        W97540  18.005   2.321  13.681
30758W        W97541  38.498  36.429  13.440
30759W        W97542  40.118  17.199   2.307
30760W        W97543  44.778  11.179   3.667
30761W        W97544  39.931   4.290  14.292
30762W        W97545  19.146  29.999   0.523
30763W        W97546  24.568   8.906  13.964
30764W        W97547  42.509  12.195   4.196
30765W        W97548  24.865   1.264  12.721
30766W        W97549  40.534  13.896  14.871
30767W        W97550  22.277   4.834   1.805
30768W        W97551   6.757  25.801  11.901
30769W        W97552  28.699   2.227  13.616
30770W        W97553  31.112  37.530   1.239
30771W        W97554  13.573  17.196  10.636
30772W        W97555  41.499   9.400  10.623
30773W        W97556  11.381  44.357  14.803
30774W        W97557   1.510  10.160   0.212
30775W        W97558  26.071  15.731  11.490
30776W        W97559  35.304  13.449  13.308
30777W        W97560  21.009  44.942  14.049
30778W        W97561  17.258  40.979  14.740
30779W        W97562  33.460  29.902   1.324
30780W        W97563   1.092  17.943   1.884
30781W        W97564  28.918   4.717  13.325
30782W        W97565  19.687   6.200  14.876
30783W        W97566  13.543  14.277   3.688
30784W        W97567  32.718   4.780   3.534
30785W        W97568   3.290  10.091  12.334
30786W        W97569   6.000   1.287  10.464
30787W        W97570  41.152  32.425   4.086
30788W        W97571  19.118   9.018   2.985
30789W        W97572  40.327  23.047   3.878
30790W        W97573  14.291  17.703  11.592
30791W        W97574   1.737  33.200  12.941
30792W        W97575  29.122  25.979  11.509
30793W        W97576  27.419  37.931  14.795
30794W        W97577  33.482  35.901   1.950
30795W        W97578  26.079  37.326   2.637
30796W        W97579  16.737  40.629   0.724
30797W        W97580   7.877  26.254   3.827
30798W        W97581  17.134   7.752  14.975
30799W        W97582  26.873  23.422   4.934
30800W        W97583  43.827  28.757  11.895
30801W        W97584  22.311   1.631  13.789
30802W        W97585  31.474   0.588  12.964
30803W        W97586  36.170   0.863   1.173
30804W        W97587   9.314  23.911   2.667
30805W        W97588   2.515  19.275   0.391
30806W        W97589  31.594  16.784   2.089
30807W        W97590  15.479  43.762  11.146
30808W        W97591  19.213  41.815   4.654
30809W        W97592   2.246  36.100  13.027
30810W        W97593   6.221  27.643   3.087
30811W        W97594  16.608   5.152  13.962
30812W        W97595   7.603  17.571  13.338
30813W        W97596  31.131  30.530   1.786
30814W        W97597  19.773  21.995   3.856
30815W        W97598   8.099   1.320   0.726
30816W        W97599  30.171  18.953   3.835
30817W        W97600   7.657  10.697   3.915
30818W        W97601  21.080   7.731   0.943
30819W        W97602   9.730  21.187   1.450
30820W        W97603  28.703   2.818   1.307
30821W        W97604   3.596   4.415  11.668
30822W        W97605   2.389  15.711   1.451
30823W        W97606  11.177   9.785  13.344
30824W        W97607   1.353  32.936  11.171
30825W        W97608   4.986   3.351  14.024
30826W        W97609   2.799  42.041   3.122
30827W        W97610   6.401  35.480  13.109
30828W        W97611  24.643  24.767   2.636
30829W        W97612  24.640  16.454  13.305
30830W        W97613  10.533  22.564   0.272
30831W        W97614  26.954  31.299  14.663
30832W        W97615  19.721  34.126  13.017
30833W        W97616  33.001  38.325   0.542
30834W        W97617  44.642  26.592   4.565
30835W        W97618  42.359  10.875  13.759
30836W        W97619  21.226  43.585  10.167
30837W        W97620   4.224   3.511  13.368
30838W        W97621  21.195  31.168  14.731
30839W        W97622  20.821  40.269   1.973
30840W        W97623   4.848   8.025   2.155
30841W        W97624   2.440  19.855   2.389
30842W        W97625  41.315  34.358  12.065
30843W        W97626  20.889  30.303   2.855
30844W        W97627  21.574  42.016  13.502
30845W        W97628   3.912  30.354  11.229
30846W        W97629  27.215  15.538   4.785
30847W        W97630   2.999  23.258  13.427
30848W        W97631   5.973  42.762  14.411
30849W        W97632  33.066   2.416  13.771
30850W        W97633  10.318  41.752  10.945
30851W        W97634  21.526  26.151   0.959
30852W        W97635  12.216  31.007  13.947
30853W        W97636  41.545  14.675   0.883
30854W        W97637  23.214  28.734   4.969
30855W        W97638   1.364  13.989   2.527
30856W        W97639   1.855   6.878  12.692
30857W        W97640  22.504   2.189  14.285
30858W        W97641   2.425  18.691   3.277
30859W        W97642  31.522   5.404   3.265
30860W        W97643  35.309  28.751   1.334
30861W        W97644  17.761   5.074  13.227
30862W        W97645  43.681  14.745  12.971
30863W        W97646  43.289  27.786  11.297
30864W        W97647  32.887   1.328  12.947
30865W        W97648   9.398   0.429   1.682
30866W        W97649  20.585  14.111  10.269
30867W        W97650  18.698   7.716   0.067
30868W        W97651  37.562  12.688   1.748
30869W        W97652  25.120  12.321  11.167
30870W        W97653  12.184   6.784  13.069
30871W        W97654  22.416  44.058   4.324
30872W        W97655   9.188  34.284  14.908
30873W        W97656  28.156  13.032  14.720
30874W        W97657   7.595  13.056   4.991
30875W        W97658  40.148  35.541   2.785
30876W        W97659  30.413  11.637   2.716
30877W        W97660   5.504  15.805   2.849
30878W        W97661  29.681   9.723  11.084
30879W        W97662  15.206   8.288  12.107
30880W        W97663  31.522  18.472   3.151
30881W        W97664  28.965  14.587   2.702
30882W        W97665  28.464  16.630  13.857
30883W        W97666  18.285  37.948   2.257
30884W        W97667  18.569  13.679   2.391
30885W        W97668  31.227  30.927  11.606
30886W        W97669  29.552  21.731   2.482
30887W        W97670  36.841  32.783  11.975
30888W        W97671  19.200   1.400  14.574
30889W        W97672  34.473   0.449   1.916
30890W        W97673  27.178  44.175   2.767
30891W        W97674  37.584  30.988   0.795
30892W        W97675   4.852   6.433  14.414
30893W        W97676  32.488  35.371  12.327
30894W        W97677  41.846  38.960   1.364
30895W        W97678  26.974  40.893  10.198
30896W        W97679  42.230  21.217   3.722
30897W        W97680  13.943  33.439  14.026
30898W        W97681  33.966  41.739   4.100
30899W        W97682  25.764  13.302  12.007
30900W        W97683  26.887  10.300   4.942
30901W        W97684  36.012  15.699  11.665
30902W        W97685  10.761   6.389  11.526
30903W        W97686  27.822  42.131  14.947
30904W        W97687   0.993  11.787  10.599
30905W        W97688   0.058  39.007  11.597
30906W        W97689  26.449  44.409   0.615
30907W        W97690  14.767  25.259  13.141
30908W        W97691   1.805   3.976  13.393
30909W        W97692   5.267   4.999   2.794
30910W        W97693  22.660  19.550  10.389
30911W        W97694  23.626   8.661  14.442
30912W        W97695  37.453   3.841  11.852
30913W        W97696  37.316  17.718   4.605
30914W        W97697  31.556   5.624   0.977
30915W        W97698  41.272  35.988   0.880
30916W        W97699  30.515  23.606  14.432
30917W        W97700  40.424  40.325  14.959
30918W        W97701  15.020  44.978  12.517
30919W        W97702   5.820  40.795   3.851
30920W        W97703  43.488   6.235   0.767
30921W        W97704  40.359  41.203   5.063
30922W        W97705  31.720  16.333  11.619
30923W        W97706  13.601   5.539   9.841
30924W        W97707  16.109   2.205   2.454
30925W        W97708  32.139  21.919   1.824
30926W        W97709  31.101  18.518  13.823
30927W        W97710   5.742  17.600  13.446
30928W        W97711  15.245   8.420   1.243
30929W        W97712  41.464  42.037   4.203
30930W        W97713  25.756   0.457   3.265
30931W        W97714   3.732  35.610   4.725
30932W        W97715  44.716  32.418  14.314
30933W        W97716  40.691  17.658   2.762
30934W        W97717  41.054   2.584   3.619
30935W        W97718  12.359   8.705  14.573
30936W        W97719   5.352   8.717   1.825
30937W        W97720   2.507  23.388   4.062
30938W        W97721  43.742   5.261   1.692
30939W        W97722   2.822  32.097   3.642
30940W        W97723   4.605  25.868   1.151
30941W        W97724  25.690  14.640   0.833
30942W        W97725   0.574  35.838  13.831
30943W        W97726  15.528  36.338  13.524
30944W        W97727   6.971  32.534   4.663
30945W        W97728  10.082  44.968  12.853
30946W        W97729   5.242  33.119  13.895
30947W        W97730  19.694  20.280  10.723
30948W        W97731  38.504  36.035  14.239
30949W        W97732  38.983  24.955  11.261
30950W        W97733  11.235   2.007  12.432
30951W        W97734  37.594  21.100  12.044
30952W        W97735  13.936  29.042  14.170
30953W        W97736   0.226  16.736  10.951
30954W        W97737  13.959   4.198   4.197
30955W        W97738  13.117  39.446  13.482
30956W        W97739  16.810   8.746   3.244
30957W        W97740  25.754   9.391   4.649
30958W        W97741   2.682   9.472   4.243
30959W        W97742  27.888   0.856  12.988
30960W        W97743  24.207  41.989   1.932
30961W        W97744  12.807  43.604  14.012
30962W        W97745  41.773  15.625   3.695
30963W        W97746   1.886   8.109   3.566
30964W        W97747   8.147  31.761   9.918
30965W        W97748  35.676  22.795   1.678
30966W        W97749  13.400  11.859   0.695
30967W        W97750  13.380   7.513  11.054
30968W        W97751  26.364   2.593   2.877
30969W        W97752  34.813  31.481   3.733
30970W        W97753  15.738  24.141  13.645
30971W        W97754  25.620  42.664  10.992
30972W        W97755  25.987  39.023   9.807
30973W        W97756  25.641  18.482  11.553
30974W        W97757  40.821  44.898  14.390
30975W        W97758   0.438  44.944  14.407
30976W        W97759  40.308  17.855  11.965
30977W        W97760  33.666   7.029  12.923
30978W        W97761   9.093   5.514   1.894
30979W        W97762  23.044  30.783  13.374
30980W        W97763   2.378  31.125  13.511
30981W        W97764  19.388  12.230  13.301
30982W        W97765  35.082   2.825  13.043
30983W        W97766  18.055  32.100  12.417
30984W        W97767  14.310  30.399   1.456
30985W        W97768  38.258  12.234   2.192
30986W        W97769  32.508   9.086  12.471
30987W        W97770  21.684  28.997   4.464
30988W        W97771  11.616  33.020  12.797
30989W        W97772  24.138  11.274   1.448
30990W        W97773  12.686   3.804  10.492
30991W        W97774  20.135  19.735  14.294
30992W        W97775  43.764  22.061  14.100
30993W        W97776  31.847  38.945  11.964
30994W        W97777  32.831  39.993   1.769
30995W        W97778  42.956   9.406   1.191
30996W        W97779  20.503   0.396   3.706
30997W        W97780  11.852  28.512  12.017
30998W        W97781  13.219  14.549   2.130
30999W        W97782   8.454  10.150   1.131
31000W        W97783  20.018  15.090  13.541
31001W        W97784   2.716  15.337  13.568
31002W        W97785  33.918  10.365  10.741
31003W        W97786  17.334  31.517   2.471
31004W        W97787  24.491  30.781   1.897
31005W        W97788  39.103  23.073  13.427
31006W        W97789  44.374  25.628   0.780
31007W        W97790   9.912   2.319   4.140
31008W        W97791  40.010  24.012   0.750
31009W        W97792  29.229  35.682   3.212
31010W        W97793  22.021   2.242   0.923
31011W        W97794  22.434  16.186  13.342
31012W        W97795  22.370  12.595  10.759
31013W        W97796   2.168  35.473  12.055
31014W        W97797  35.873  14.652   0.766
31015W        W97798  37.812  29.997  14.089
31016W        W97799  35.991  25.091   0.821
31017W        W97800  11.217  17.091   4.128
31018W        W97801  27.931  29.879   2.591
31019W        W97802  35.435  12.899   1.309
31020W        W97803   2.592  19.822   0.406
31021W        W97804  28.016  31.846   0.367
31022W        W97805  24.268  28.173   1.343
31023W        W97806  19.116  19.186   0.987
31024W        W97807  42.539   6.286   0.675
31025W        W97808  10.707  25.800  10.618
31026W        W97809  37.849   0.848   2.847
31027W        W97810   9.400  24.161   4.202
31028W        W97811  11.804   4.259  11.719
31029W        W97812  28.968  39.730   4.543
31030W        W97813  28.900  21.797   4.255
31031W        W97814  42.610  41.067   3.238
31032W        W97815  29.556  32.483   9.970
31033W        W97816  38.241  42.997  10.611
31034W        W97817   1.836   2.518   3.845
31035W        W97818  19.765  23.102   0.508
31036W        W97819   2.011  27.707   4.852
31037W        W97820  40.942   2.307  13.321
31038W        W97821  23.637  43.564  13.043
31039W        W97822  42.922  21.763  14.604
31040W        W97823   0.567  35.469  11.619
31041W        W97824   3.900  40.395  14.751
31042W        W97825  22.023  22.792   3.660
31043W        W97826  11.112  16.719  14.304
31044W        W97827  22.168  24.595  12.872
31045W        W97828  17.811  10.406  12.592
31046W        W97829  44.275  39.571  12.053
31047W        W97830  31.030  14.670   4.393
31048W        W97831  20.043  18.532  12.446
31049W        W97832  35.006  17.108   1.134
31050W        W97833  38.463   1.846   4.621
31051W        W97834  17.093  33.158   1.296
31052W        W97835  16.005  11.432   3.075
31053W        W97836  26.783  15.787   1.395
31054W        W97837  36.935   1.668   3.748
31055W        W97838   2.242  44.961  13.928
31056W        W97839  38.311  11.110   1.211
31057W        W97840  28.546  34.071   0.314
31058W        W97841  38.380  37.335  12.501
31059W        W97842  29.726  34.771   0.503
31060W        W97843  28.527  34.679   2.785
31061W        W97844   7.031   9.021   4.570
31062W        W97845  21.374  34.517  12.537
31063W        W97846   3.069  11.414  11.382
31064W        W97847  17.572   7.696   4.499
31065W        W97848  20.086  32.174   3.216
31066W        W97849  41.020  44.018   0.416
31067W        W97850  43.430   6.723   0.484
31068W        W97851  33.837  18.609  10.178
31069W        W97852  37.682   6.670   1.450
31070W        W97853   5.635  32.065   2.547
31071W        W97854  20.187   8.797   3.925
31072W        W97855  16.089  10.805  14.469
31073W        W97856  17.484  43.457   0.059
31074W        W97857  16.361   5.328  13.277
31075W        W97858   8.607  16.293  13.877
31076W        W97859  30.941  31.965  14.901
31077W        W97860  15.884  31.028   1.977
31078W        W97861   9.641  13.542  12.451
31079W        W97862   2.962  42.975  13.654
31080W        W97863  44.860  26.187   3.722
31081W        W97864   2.759  10.945  14.097
31082W        W97865  36.593  25.857  12.620
31083W        W97866  17.256  34.088  12.494
31084W        W97867  42.356   5.013   0.325
31085W        W97868  13.800   3.777  14.725
31086W        W97869  30.102  15.781   0.289
31087W        W97870   1.691  44.254   4.441
31088W        W97871  20.807  21.603   4.149
31089W        W97872   1.842   4.512  13.350
31090W        W97873   0.769  12.765   3.929
31091W        W97874  26.987  30.039   3.485
31092W        W97875   9.758   8.747   1.785
31093W        W97876  14.277  36.540  11.869
31094W        W97877  28.183  22.997   4.626
31095W        W97878  44.654  17.326  11.240
31096W        W97879  34.545  10.368  12.879
31097W        W97880  37.515  14.850   1.946
31098W        W97881  44.572   5.953   2.495
31099W        W97882  18.051  26.604  14.295
31100W        W97883   2.161   6.965  14.028
31101W        W97884  23.386  19.681  10.976
31102W        W97885  33.405   0.029   3.772
31103W        W97886  17.138   3.230  10.722
31104W        W97887  41.683   7.465   3.586
31105W        W97888  31.981  38.723   4.549
31106W        W97889   8.755  27.566   3.205
31107W        W97890  33.586  21.683  12.448
31108W        W97891  30.430  25.165   2.275
31109W        W97892  24.756  18.497  10.788
31110W        W97893  11.807  29.638   3.730
31111W        W97894  26.125  31.801   1.836
31112W        W97895   8.106   5.636  13.541
31113W        W97896  23.011  41.933   3.102
31114W        W97897  10.319  43.774   1.410
31115W        W97898  27.603   6.369  12.425
31116W        W97899  11.843  14.143  12.324
31117W        W97900  14.612  18.670   2.588
31118W        W97901  26.206  29.028  11.072
31119W        W97902  17.324  39.082  11.826
31120W        W97903   2.631  19.754   4.678
31121W        W97904  37.168   5.419   3.311
31122W        W97905  15.750   9.973   4.010
31123W        W97906  18.250  35.066  12.859
31124W        W97907   8.066  17.857  13.444
31125W        W97908  31.136  22.996  14.469
31126W        W97909   8.631   2.555   1.931
31127W        W97910   6.820  21.521   0.876
31128W        W97911  18.362  43.709   1.259
31129W        W97912  42.350   4.377  11.211
31130W        W97913   3.782  40.937   4.394
31131W        W97914   4.863  42.971   3.209
31132W        W97915   5.409  20.007   4.951
31133W        W97916  44.366  44.128   3.775
31134W        W97917  18.016  40.889  10.777
31135W        W97918  15.727  19.053   3.796
31136W        W97919   7.205  15.011   0.940
31137W        W97920   5.845   2.306   2.826
31138W        W97921  14.887  40.320   4.396
31139W        W97922  33.965  11.274   4.303
31140W        W97923  33.411   3.470   1.743
31141W        W97924  22.053  33.505   2.225
31142W        W97925   6.960  39.424  12.134
31143W        W97926  41.149  17.577  13.639
31144W        W97927  41.431   2.962   3.872
31145W        W97928   8.010  22.086   3.198
31146W        W97929  35.113   0.948  12.067
31147W        W97930  41.263  16.286   2.335
31148W        W97931  23.337  32.571  12.016
31149W        W97932  23.534   6.093  11.845
31150W        W97933   9.295  12.648  11.486
31151W        W97934  33.551  38.056   1.289
31152W        W97935  39.087  20.278   2.872
31153W        W97936   8.706  22.091   0.682
31154W        W97937  40.833   1.473   4.541
31155W        W97938  18.705  11.113   0.482
31156W        W97939  34.882   5.377   0.179
31157W        W97940  39.412  38.384   1.822
31158W        W97941  36.421  11.429   4.780
31159W        W97942  36.677  10.840  13.001
31160W        W97943  34.527  15.302  14.260
31161W        W97944  27.425  37.635   2.096
31162W        W97945  13.055  33.027  14.901
31163W        W97946  40.953  33.316  11.970
31164W        W97947   3.439  28.979   2.908
31165W        W97948  29.415  38.054   0.040
31166W        W97949  29.168  31.141  14.450
31167W        W97950  41.923   8.659   0.855
31168W        W97951  22.266  22.187   4.504
31169W        W97952  23.246   4.408   4.473
31170W        W97953  23.716  10.705  11.147
31171W        W97954  16.128  40.479   2.914
31172W        W97955  21.510  41.922   2.372
31173W        W97956  44.809  16.347   3.325
31174W        W97957  35.892  44.835   4.210
31175W        W97958  37.002   9.716   3.284
31176W        W97959  38.851  42.600   3.679
31177W        W97960  29.670  16.646  10.641
31178W        W97961   9.236  34.151  10.601
31179W        W97962  20.905  22.919  10.996
31180W        W97963  40.816  21.586  12.527
31181W        W97964  13.260  11.715  10.112
31182W        W97965  27.490  35.764  13.531
31183W        W97966  27.473  42.136   3.167
31184W        W97967  14.620  19.180  10.751
31185W        W97968  21.176  29.234   3.151
31186W        W97969   1.736  44.519  11.444
31187W        W97970  24.679   5.072  13.524
31188W        W97971  34.138  17.353  11.133
31189W        W97972  13.327  17.337  14.852
31190W        W97973  17.699  17.181   0.980
31191W        W97974   8.558  35.007   3.899
31192W        W97975  23.196  26.581   0.674
31193W        W97976  44.216  37.449  14.806
31194W        W97977  31.129  32.702  14.310
31195W        W97978  35.801   9.425   3.302
31196W        W97979   1.869   8.237   2.281
31197W        W97980  11.376  29.435   2.187
31198W        W97981  25.649  22.751  11.566
31199W        W97982  22.536  14.366  11.023
31200W        W97983  43.806  16.304  14.961
31201W        W97984   2.109   4.124  11.539
31202W        W97985  14.850  24.840  11.636
31203W        W97986  37.863   6.076   4.997
31204W        W97987   1.299  13.355  12.874
31205W        W97988  12.395   7.922   2.220
31206W        W97989  18.269  12.920   1.189
31207W        W97990  33.567  37.097  14.892
31208W        W97991  10.592  44.811  12.046
31209W        W97992  29.160  37.362  11.102
31210W        W97993  20.302   0.959  11.018
31211W        W97994   0.418   9.149  13.125
31212W        W97995  33.508   2.488   4.138
31213W        W97996   0.976  40.446   4.037
31214W        W97997  20.824  17.173   0.335
31215W        W97998  37.646   9.195  12.983
31216W        W97999   0.471  25.452  12.447
31217W        W98000  21.038   0.547  13.415
31218W        W98001   5.398  33.614   0.180
31219W        W98002  39.458   2.739   3.899
31220W        W98003  12.330  28.809   4.434
31221W        W98004  42.992  24.000  11.165
31222W        W98005  42.266  12.912   2.694
31223W        W98006  42.515  12.915   4.678
31224W        W98007   4.323  15.609   1.054
31225W        W98008   8.122  14.330   1.874
31226W        W98009   1.147  25.473   2.603
31227W        W98010  40.832   9.301   5.043
31228W        W98011   8.332   5.833  14.429
31229W        W98012  14.377  28.962  12.541
31230W        W98013  32.959  40.561  13.507
31231W        W98014  23.305   1.478  14.721
31232W        W98015  10.606   9.898   4.833
31233W        W98016  11.630  12.240   4.878
31234W        W98017   8.275  36.855   3.638
31235W        W98018  36.984  39.777   4.179
31236W        W98019  42.317  28.993  14.093
31237W        W98020  24.538  36.774   3.333
31238W        W98021  22.565  39.728  11.525
31239W        W98022  28.294  25.265  12.938
31240W        W98023  32.920  28.120  11.881
31241W        W98024  28.980  36.560  12.304
31242W        W98025  11.757  15.381  11.024
31243W        W98026  11.809   4.952  11.162
31244W        W98027  42.482  43.197   1.426
31245W        W98028   1.714  11.667  11.120
31246W        W98029  35.510  31.414  11.184
31247W        W98030   4.860  37.819  11.573
31248W        W98031  14.352  40.575  12.014
31249W        W98032  37.502  30.514  11.994
31250W        W98033  24.337  25.517  14.885
31251W        W98034   0.499  18.879  10.805
31252W        W98035  33.053  19.980   4.147
31253W        W98036  35.092  16.196  10.457
31254W        W98037   6.110   9.540  13.111
31255W        W98038   6.338  21.965  14.447
31256W        W98039   0.779   0.999   0.336
31257W        W98040  44.434  17.044  13.817
31258W        W98041   2.172  26.087   2.252
31259W        W98042  42.838  23.165  13.883
31260W        W98043   5.066  19.802   1.797
31261W        W98044  37.402  38.969  14.761
31262W        W98045  40.090  42.196   1.796
31263W        W98046  24.592  44.228  14.446
31264W        W98047  38.050  43.240  14.346
31265W        W98048  44.581  41.258  12.420
31266W        W98049  24.161  16.896  11.572
31267W        W98050  40.412  28.044  14.315
31268W        W98051   3.817  30.562   5.087
31269W        W98052  27.526  16.041   1.722
31270W        W98053  36.774   9.725  14.347
31271W        W98054  20.520  29.203  12.953
31272W        W98055  25.642  42.010   1.806
31273W        W98056  30.088   2.968  10.475
31274W        W98057  20.300  37.023  12.461
31275W        W98058  28.032   5.029   1.476
31276W        W98059   3.493  29.982  11.519
31277W        W98060  20.084  44.131  10.806
31278W        W98061  16.174  12.268   1.910
31279W        W98062  41.948  11.075  14.403
31280W        W98063  15.149  20.557  11.251
31281W        W98064  32.556  21.615  13.950
31282W        W98065  10.795  14.610   2.331
31283W        W98066   8.294  34.134   2.640
31284W        W98067   5.571  34.469  13.342
31285W        W98068  29.953  42.371   1.925
31286W        W98069  29.438   1.471  11.134
31287W        W98070  44.321  27.934   0.491
31288W        W98071  20.843  33.392  13.126
31289W        W98072  21.580  40.745  13.301
31290W        W98073  22.258  41.441   3.127
31291W        W98074  10.652  41.178  13.383
31292W        W98075  27.997  26.234  14.658
31293W        W98076  37.404  26.061  11.477
31294W        W98077  23.486  40.545   1.130
31295W        W98078  19.337  22.741  14.263
31296W        W98079   7.232   5.028   3.599
31297W        W98080  11.753  38.296   0.862
31298W        W98081  25.043  14.397  13.815
31299W        W98082  39.319  35.500   3.066
31300W        W98083   2.248  39.571  12.920
31301W        W98084  37.505  20.715   1.373
31302W        W98085   8.951   4.381  12.541
31303W        W98086   3.805  41.422  12.939
31304W        W98087  32.054  32.491  13.960
31305W        W98088  23.050   5.262  14.896
31306W        W98089  37.393  37.613  10.297
31307W        W98090  32.078  27.051  11.695
31308W        W98091  19.723  23.329   3.322
31309W        W98092  12.729  23.576  12.985
31310W        W98093  10.509   4.248  11.481
31311W        W98094  20.118  24.482  13.479
31312W        W98095  11.393  42.098   1.250
31313W        W98096   6.612  42.824   3.338
31314W        W98097  11.666   6.776  13.823
31315W        W98098  34.602  44.200   3.583
31316W        W98099   3.578  15.223  12.010
31317W        W98100  25.911  26.941  12.958
31318W        W98101  22.867  38.855   5.166
31319W        W98102   6.165  27.925   1.007
31320W        W98103  21.993  44.540   4.997
31321W        W98104  12.710   0.502  14.428
31322W        W98105  17.614   2.307   4.910
31323W        W98106  13.499  25.459  12.888
31324W        W98107   1.980  26.681  13.902
31325W        W98108   4.252  23.696  12.383
31326W        W98109  37.988  20.352   0.439
31327W        W98110   4.730  33.797   1.251
31328W        W98111   3.721  28.738  11.640
31329W        W98112  29.190  35.918  12.148
31330W        W98113  22.556  14.239  12.298
31331W        W98114   5.614  42.699   3.368
31332W        W98115   7.211  15.550   0.930
31333W        W98116   5.217  23.470   1.869
31334W        W98117   9.590  29.349  14.887
31335W        W98118   1.742  15.134   1.364
31336W        W98119  18.097   3.955   2.368
31337W        W98120  35.933  16.163   3.009
31338W        W98121  10.115  32.848  12.495
31339W        W98122  29.370  15.144  10.659
31340W        W98123  31.309  30.084   4.656
31341W        W98124  29.390  44.366  13.051
31342W        W98125  35.781  11.082  13.964
31343W        W98126  43.496  28.481  12.437
31344W        W98127   2.268  27.587  14.697
31345W        W98128   0.659  28.451   1.650
31346W        W98129  11.287   5.341  11.851
31347W        W98130  44.537  41.986   3.710
31348W        W98131   7.323  43.861   1.618
31349W        W98132  40.380  25.975   4.670
31350W        W98133  19.041   2.809  13.117
31351W        W98134  35.352  29.581   1.490
31352W        W98135  19.519   0.061   1.332
31353W        W98136  18.087  41.287  10.426
31354W        W98137   0.808  37.034  10.909
31355W        W98138  32.026  22.492  12.444
31356W        W98139   4.980  28.479  10.783
31357W        W98140   5.888  12.737   4.523
31358W        W98141  15.703   9.721   2.400
31359W        W98142   3.264  23.472   1.300
31360W        W98143  34.777  28.476   3.115
31361W        W98144  26.248  11.231   3.674
31362W        W98145  41.620  41.895  14.871
31363W        W98146  17.272  34.599   4.107
31364W        W98147  44.541  11.799   2.832
31365W        W98148  29.037  33.911   2.732
31366W        W98149  20.924  10.948  12.884
31367W        W98150  42.324   4.017  10.780
31368W        W98151  36.776   0.874  12.808
31369W        W98152  43.492  43.357   4.552
31370W        W98153  11.110  24.988   2.364
31371W        W98154  28.836  24.014  10.591
31372W        W98155  41.277  32.077   4.464
31373W        W98156  15.803   7.136  12.513
31374W        W98157  25.449  31.907   0.087
31375W        W98158   5.933  32.939   2.597
31376W        W98159  17.403   0.476  11.773
31377W        W98160  36.948  12.301   2.794
31378W        W98161  11.642   0.997  11.953
31379W        W98162  16.646  40.017  11.897
31380W        W98163   5.141  29.351  11.199
31381W        W98164  31.271  21.483   5.348
31382W        W98165  29.093  25.987  14.845
31383W        W98166   5.286  18.574   2.132
31384W        W98167  30.581  19.128  14.238
31385W        W98168   4.865  14.743  14.920
31386W        W98169  22.006  11.257  11.302
31387W        W98170  22.801  34.517   4.049
31388W        W98171  12.576  17.855  12.969
31389W        W98172  28.745  12.068  14.088
31390W        W98173  40.473  26.993   4.580
31391W        W98174  34.032   7.547  14.253
31392W        W98175  33.402   9.344   1.388
31393W        W98176  21.464   7.335   0.069
31394W        W98177  23.501  42.109  11.144
31395W        W98178  27.028  17.066   0.736
31396W        W98179  16.093   7.194   2.736
31397W        W98180  32.943  15.413  11.052
31398W        W98181  17.902   4.858  11.879
31399W        W98182  34.380  18.606  12.539
31400W        W98183  18.337   5.796  10.711
31401W        W98184  18.127   7.933  11.283
31402W        W98185  20.716  37.187   4.095
31403W        W98186   7.025  15.537  11.589
31404W        W98187   7.745  22.650  11.980
31405W        W98188   8.846  22.541   4.166
31406W        W98189  20.326   9.331   1.791
31407W        W98190  29.089  10.317   3.226
31408W        W98191   3.470  40.618  11.556
31409W        W98192  17.106  12.958   4.311
31410W        W98193  30.156   5.138   0.851
31411W        W98194  16.033  18.198  10.307
31412W        W98195   2.303  33.713  10.189
31413W        W98196  10.622  10.634   0.948
31414W        W98197   7.229  35.170  12.928
31415W        W98198  29.980  28.121  10.614
31416W        W98199  27.352   8.157  13.076
31417W        W98200  14.423   9.742  10.110
31418W        W98201  25.576  17.694   2.850
31419W        W98202   6.413  13.274  10.853
31420W        W98203  39.789  42.553  13.875
31421W        W98204  34.598  30.884  13.816
31422W        W98205  43.265  10.362  10.158
31423W        W98206   9.928  33.508   3.764
31424W        W98207   4.835  18.093   9.886
31425W        W98208  20.158  37.852   1.716
31426W        W98209  13.376   3.706   2.809
31427W        W98210  23.138   4.920   5.203
31428W        W98211  19.818  24.793   1.687
31429W        W98212  10.588   9.677  12.026
31430W        W98213  23.775   7.783  12.023
31431W        W98214  11.265  24.097  14.794
31432W        W98215  33.997  30.539   0.240
31433W        W98216  21.035  35.039  10.683
31434W        W98217  24.943  39.466  13.536
31435W        W98218  42.238  25.479  13.970
31436W        W98219   4.129   5.292   0.485
31437W        W98220  40.020   4.460  11.905
31438W        W98221  14.184  42.973  11.212
31439W        W98222  39.565   1.092  13.834
31440W        W98223  31.819  40.437  11.576
31441W        W98224  22.439  32.538  12.540
31442W        W98225  42.799  15.820  14.329
31443W        W98226  10.148  16.755   3.259
31444W        W98227   0.282   2.983  11.634
31445W        W98228  35.006  30.936   3.612
31446W        W98229   9.217  16.822   1.141
31447W        W98230   4.691  28.740  11.679
31448W        W98231  39.310  28.493  13.266
31449W        W98232  35.610  26.193  12.405
31450W        W98233  41.875  15.637   1.311
31451W        W98234  32.877  28.213   2.363
31452W        W98235  28.023  16.217  14.551
31453W        W98236  33.650   1.290  10.832
31454W        W98237  40.311  32.506   2.963
31455W        W98238  11.333  39.591   4.744
31456W        W98239  40.875   2.472   1.182
31457W        W98240   1.897   2.563  14.833
31458W        W98241  26.934  31.374   1.823
31459W        W98242  32.043  35.418  14.477
31460W        W98243   4.516  27.592  14.547
31461W        W98244  17.365   5.869   0.696
31462W        W98245   1.899  23.291  14.345
31463W        W98246  20.542   4.445   1.027
31464W        W98247  22.684   8.113   2.180
31465W        W98248  39.472  37.722  14.427
31466W        W98249  17.371  12.270   5.052
31467W        W98250  31.912  27.294   1.867
31468W        W98251  23.652  23.561   3.387
31469W        W98252  12.281  38.960  12.338
31470W        W98253   9.166   8.587  12.860
31471W        W98254  41.963   1.376   1.793
31472W        W98255  35.538  36.991  14.746
31473W        W98256  41.201  24.936  14.002
31474W        W98257  28.657  28.484  13.967
31475W        W98258  38.983  12.269  13.735
31476W        W98259   7.903   6.141  11.952
31477W        W98260  15.870  23.985   1.349
31478W        W98261   6.839  33.103  10.579
31479W        W98262  21.089   8.648  12.948
31480W        W98263  28.132  16.527   1.164
31481W        W98264  23.012  41.831  10.662
31482W        W98265  15.146   9.338  11.099
31483W        W98266  31.088   2.973   4.820
31484W        W98267  16.695   8.203  13.812
31485W        W98268  16.062   7.793  10.755
31486W        W98269   4.665  41.835  12.283
31487W        W98270  25.530  40.042  11.400
31488W        W98271   5.216  19.883  11.905
31489W        W98272  19.076   5.056   3.992
31490W        W98273   4.313  33.596   0.998
31491W        W98274  42.289  32.052  10.603
31492W        W98275  34.407  43.365   0.467
31493W        W98276   8.667  33.148   3.277
31494W        W98277  24.657  33.900  14.441
31495W        W98278  34.635   4.163  12.062
31496W        W98279  19.727  34.969  11.076
31497W        W98280   3.803  12.912   2.786
31498W        W98281  18.785  44.228   0.476
31499W        W98282  29.456  29.501   1.468
31500W        W98283  40.135  15.652  12.039
31501W        W98284  41.145  31.143   2.584
31502W        W98285  36.633  28.389   2.337
31503W        W98286   3.686  27.893  13.123
31504W        W98287   0.716  26.174  10.600
31505W        W98288   8.542  31.339  14.948
31506W        W98289  17.608  22.172   1.445
31507W        W98290   4.596  43.433   2.193
31508W        W98291  34.009  41.207  14.818
31509W        W98292  16.258  36.409   0.312
31510W        W98293  19.003  42.810  12.460
31511W        W98294  36.375  20.315   3.303
31512W        W98295  36.995  36.345   3.732
31513W        W98296  44.457  19.930  14.457
31514W        W98297  28.958  29.163  11.556
31515W        W98298  23.415  41.971   0.412
31516W        W98299  26.210   7.432   2.853
31517W        W98300  24.899   0.407  14.868
31518W        W98301  24.073  34.679   4.607
31519W        W98302  33.084   2.172  10.913
31520W        W98303  38.325  29.461  10.817
31521W        W98304  15.370  33.981   3.699
31522W        W98305   0.682  41.815   3.120
31523W        W98306   4.355  40.047  11.666
31524W        W98307  31.372   6.691  12.525
31525W        W98308  29.674  12.774   0.771
31526W        W98309  22.672  32.314   3.797
31527W        W98310  31.010   5.747  12.008
31528W        W98311  29.011  10.589   2.757
31529W        W98312  43.503  26.680  11.451
31530W        W98313  22.983  38.417   4.857
31531W        W98314  29.581  19.299  12.220
31532W        W98315   9.816  13.167   4.177
31533W        W98316  41.977  28.435  12.925
31534W        W98317  20.936  27.309  10.172
31535W        W98318  17.939  37.590   2.450
31536W        W98319  31.414  44.388  10.717
31537W        W98320  16.663   8.190  13.299
31538W        W98321  17.752   1.284  14.323
31539W        W98322  17.655  39.523  10.606
31540W        W98323  10.753  11.605  10.355
31541W        W98324  31.843  38.843   0.854
31542W        W98325  34.978  41.101  12.502
31543W        W98326   5.545  33.505   3.862
31544W        W98327  42.370  34.037   1.381
31545W        W98328  13.405  28.162  13.954
31546W        W98329  27.155   7.851  14.523
31547W        W98330   1.847  16.350   4.523
31548W        W98331   2.002  21.689   0.911
31549W        W98332  22.725  15.526   3.714
31550W        W98333  26.244   2.478   3.664
31551W        W98334   2.871   8.286   2.433
31552W        W98335  40.013   5.744   4.482
31553W        W98336  21.588  34.069  12.418
31554W        W98337  16.779  12.422  12.442
31555W        W98338  23.338   1.326   4.196
31556W        W98339  31.950  44.522   2.159
31557W        W98340   0.295  33.401   2.920
31558W        W98341  23.146  14.824  10.700
31559W        W98342  28.211  38.552  10.587
31560W        W98343  34.919  38.272   1.819
31561W        W98344  34.434   9.375   2.080
31562W        W98345  11.589   8.323  10.766
31563W        W98346   2.370  19.717  13.786
31564W        W98347  32.981  18.465   2.323
31565W        W98348  40.873  12.158   2.678
31566W        W98349  21.938  41.001   4.962
31567W        W98350  42.302  27.747   3.367
31568W        W98351  10.207  32.323   4.113
31569W        W98352   0.243  31.309  11.128
31570W        W98353   6.428  12.312  13.862
31571W        W98354  25.105   2.421   3.260
31572W        W98355   9.826   5.698   1.363
31573W        W98356  19.346  25.289  10.885
31574W        W98357  40.308   7.435   2.012
31575W        W98358   1.526  26.418   4.184
31576W        W98359  26.570  15.010   4.271
31577W        W98360  25.205  39.154  11.131
31578W        W98361  36.285  39.072  10.637
31579W        W98362  42.205  38.591  12.904
31580W        W98363  32.380  17.576   4.185
31581W        W98364  29.681  13.938   1.490
31582W        W98365  15.642  12.078  12.486
31583W        W98366   1.781   4.277  13.836
31584W        W98367  23.394   0.907   1.820
31585W        W98368  13.411  11.777   1.602
31586W        W98369  11.898  13.202  14.072
31587W        W98370  41.245  28.988   1.787
31588W        W98371   7.367   6.329  14.868
31589W        W98372  13.316   8.405  13.379
31590W        W98373  18.235  22.628   3.901
31591W        W98374  22.569  12.215   4.447
31592W        W98375  13.912  22.731  13.796
31593W        W98376  27.381  24.439   0.241
31594W        W98377  10.009  17.963  13.459
31595W        W98378  42.451  32.026   2.800
31596W        W98379   9.924  13.341  12.872
31597W        W98380  25.465  42.933   0.869
31598W        W98381  11.273  32.715  13.974
31599W        W98382   1.115  40.816   3.697
31600W        W98383  35.021  43.906   3.755
31601W        W98384   3.006   4.357   0.428
31602W        W98385  28.992  21.547  10.715
31603W        W98386   8.387  14.338   3.261
31604W        W98387  17.791  42.331   0.487
31605W        W98388   5.263  37.651  10.535
31606W        W98389  24.053  34.143  11.107
31607W        W98390  21.336  39.887   1.177
31608W        W98391  29.595  41.224  13.051
31609W        W98392  10.432   1.833  12.185
31610W        W98393  16.072  30.239  12.486
31611W        W98394   1.393  24.719   4.188
31612W        W98395   4.638  11.254  14.753
31613W        W98396  32.546   1.315  13.417
31614W        W98397  26.509  14.714  13.038
31615W        W98398  42.842  30.641   0.477
31616W        W98399  37.495  27.917   3.755
31617W        W98400  37.933  13.601   3.166
31618W        W98401   6.074  13.200  11.578
31619W        W98402  26.616  15.863   0.414
31620W        W98403  28.476  19.510  14.821
31621W        W98404  24.783  19.681  13.346
31622W        W98405  41.561  16.331   1.497
31623W        W98406  41.834  19.900   1.688
31624W        W98407  14.327  19.222  13.034
31625W        W98408  29.680  26.954  12.591
31626W        W98409  37.492  13.168   0.847
31627W        W98410  30.465  11.452   3.180
31628W        W98411  20.514  10.199   4.170
31629W        W98412  23.909  16.632   0.914
31630W        W98413  14.312   0.993  11.593
31631W        W98414  18.160  36.853  14.491
31632W        W98415  10.019  27.996   0.318
31633W        W98416  34.345   0.392  12.594
31634W        W98417  11.215  31.885   1.144
31635W        W98418  10.164  37.050   1.372
31636W        W98419  39.133  15.358  12.124
31637W        W98420  12.746  39.953  10.934
31638W        W98421  10.801   5.351  12.756
31639W        W98422  24.775   6.888   0.467
31640W        W98423  24.162   3.294  13.380
31641W        W98424  26.915  41.303   0.943
31642W        W98425  27.983   1.440  14.467
31643W        W98426   6.950   4.259  13.952
31644W        W98427  29.642  35.046  13.066
31645W        W98428  29.224  26.878   9.950
31646W        W98429  21.902  36.098  14.810
31647W        W98430  34.935  35.900  10.654
31648W        W98431  17.788  37.920   2.832
31649W        W98432  38.267  35.450  13.366
31650W        W98433  14.079   4.352   1.714
31651W        W98434  13.200  32.699   2.516
31652W        W98435  40.181  29.597   1.328
31653W        W98436  35.195  23.625   2.737
31654W        W98437  15.976   1.818   3.968
31655W        W98438  43.748  40.839   1.350
31656W        W98439  11.183  43.041  14.307
31657W        W98440  17.709   3.128   2.681
31658W        W98441  31.630  11.222   1.569
31659W        W98442   2.737  17.065  12.518
31660W        W98443  21.144  32.510  11.905
31661W        W98444  29.155  24.802  13.531
31662W        W98445  37.494  40.029   3.063
31663W        W98446   4.636   8.432   4.080
31664W        W98447  41.376  24.685   2.660
31665W        W98448  28.971   2.337  12.144
31666W        W98449   3.635  25.862  14.431
31667W        W98450  38.471  14.730   3.696
31668W        W98451  28.067   7.405  14.876
31669W        W98452  34.300  26.661  11.088
31670W        W98453  23.585   2.151   2.254
31671W        W98454   8.714   2.371  13.529
31672W        W98455  31.363   1.974  12.326
31673W        W98456   3.053  23.973   2.225
31674W        W98457   7.158  44.984   3.217
31675W        W98458  24.588  41.446  12.164
31676W        W98459  39.040  25.415   4.162
31677W        W98460  37.518  10.720  13.611
31678W        W98461  13.643   8.302  11.077
31679W        W98462   4.776   6.202  14.880
31680W        W98463  18.256   7.502  11.022
31681W        W98464  35.024  32.918   2.310
31682W        W98465  37.873  34.059   0.590
31683W        W98466  28.108  17.834  13.423
31684W        W98467  43.482  29.467  11.311
31685W        W98468  23.193  37.425  12.084
31686W        W98469   8.242  37.929  10.992
31687W        W98470   8.112  12.921   4.146
31688W        W98471  30.544  26.971   4.409
31689W        W98472  32.956  41.726   0.429
31690W        W98473   8.646  41.713   4.066
31691W        W98474  13.008  12.356  11.902
31692W        W98475   1.045  11.034   0.800
31693W        W98476   2.693   3.041   4.063
31694W        W98477  14.301  21.472  12.422
31695W        W98478  17.801  36.481   4.520
31696W        W98479  23.057  42.947  11.115
31697W        W98480  36.910  39.579   2.914
31698W        W98481  27.668   7.262  14.065
31699W        W98482   4.122   9.983   2.320
31700W        W98483   6.292  11.903   2.380
31701W        W98484  37.835  40.584   0.729
31702W        W98485  44.351  16.572   2.837
31703W        W98486  23.716  37.560   0.435
31704W        W98487  34.520  11.651  12.340
31705W        W98488  25.079  29.443   2.294
31706W        W98489  35.382   9.895   1.222
31707W        W98490   0.552  22.144   3.708
31708W        W98491  36.407  16.227   2.835
31709W        W98492  34.357   9.454  14.300
31710W        W98493  12.333   3.211   4.718
31711W        W98494  11.695  15.985   5.099
31712W        W98495  23.530  13.846   2.639
31713W        W98496  44.364   5.345  13.761
31714W        W98497   0.301  26.772  11.094
31715W        W98498  40.799   6.859  10.453
31716W        W98499  17.762  23.918   0.250
31717W        W98500  41.489  29.109   2.220
31718W        W98501  33.346  30.132   0.870
31719W        W98502  29.193  38.569  14.959
31720W        W98503   2.422  27.471   3.711
31721W        W98504  13.644  18.722  14.784
31722W        W98505   1.019  44.106  13.153
31723W        W98506  28.062   5.899  13.452
31724W        W98507  34.156  24.714   3.459
31725W        W98508  41.915   7.152  13.491
31726W        W98509  34.569  38.018   3.574
31727W        W98510  21.261  20.616  13.355
31728W        W98511  38.023   7.752  14.387
31729W        W98512  27.335   3.357   4.983
31730W        W98513   4.707  16.588  13.970
31731W        W98514  15.361  43.881   1.838
31732W        W98515  26.498  27.728  11.155
31733W        W98516  38.647  28.741  13.842
31734W        W98517  16.521   4.192   3.223
31735W        W98518  21.182   6.988  14.308
31736W        W98519  36.920   9.746  13.824
31737W        W98520  22.689  36.575   1.707
31738W        W98521  13.071  30.710  13.004
31739W        W98522  37.032   9.371  11.546
31740W        W98523  12.783  35.899  14.007
31741W        W98524  39.137  22.328  11.287
31742W        W98525  11.662  30.917   1.728
31743W        W98526  26.600  11.781  12.951
31744W        W98527   4.735  12.615  14.460
31745W        W98528   9.300  32.819  14.698
31746W        W98529  20.977   1.366   4.946
31747W        W98530  24.695  11.860   3.700
31748W        W98531  10.918  42.347   4.108
31749W        W98532   5.204  23.012   2.838
31750W        W98533  37.519  36.986   4.636
31751W        W98534  10.879   4.482  12.637
31752W        W98535   4.962  17.037   1.508
31753W        W98536  43.582  33.656   4.330
31754W        W98537   9.840   1.177  10.674
31755W        W98538  37.127  15.226  11.300
31756W        W98539   4.220  16.668  14.843
31757W        W98540  30.433  31.175   0.726
31758W        W98541  20.518  22.684  12.362
31759W        W98542  38.943  32.009   2.548
31760W        W98543  16.797  16.540   0.958
31761W        W98544  27.530  42.858  14.744
31762W        W98545   4.973  31.547  14.080
31763W        W98546   4.873  19.331   1.809
31764W        W98547  37.877   4.107  14.520
31765W        W98548  43.042   9.820   1.467
31766W        W98549  30.063  32.724  13.512
31767W        W98550  42.863   7.393  13.260
31768W        W98551  24.406   1.237  12.495
31769W        W98552   5.452  41.090   3.588
31770W        W98553  42.327  32.906  11.311
31771W        W98554  24.014  21.611  14.012
31772W        W98555  37.542  42.338  13.426
31773W        W98556  26.494  34.081  12.189
31774W        W98557  40.467   6.272   2.834
31775W        W98558   4.524  13.145  10.595
31776W        W98559  22.387   9.289   4.623
31777W        W98560  44.033  22.894  10.754
31778W        W98561  10.688  30.520  10.606
31779W        W98562  44.297  27.170  12.354
31780W        W98563  40.287  33.913  13.573
31781W        W98564  14.819   9.766  14.777
31782W        W98565  18.834  26.426  14.039
31783W        W98566   0.195  11.632  12.723
31784W        W98567   9.414  20.961  14.283
31785W        W98568  42.533  39.534   3.736
31786W        W98569  35.378   7.242   3.640
31787W        W98570  24.552  19.972   0.883
31788W        W98571  14.101  21.231  12.814
31789W        W98572  44.776  34.171  11.517
31790W        W98573  11.903  19.795   2.391
31791W        W98574  16.267  31.352   1.763
31792W        W98575  43.200  10.695  11.280
31793W        W98576  28.841  32.558  11.177
31794W        W98577  44.862  29.189   2.616
31795W        W98578  34.034   7.401   2.801
31796W        W98579  12.831  10.224  11.126
31797W        W98580   4.466   4.934   0.667
31798W        W98581  10.321  40.040   2.389
31799W        W98582  42.078  42.710  10.997
31800W        W98583  35.502  26.316  10.791
31801W        W98584  36.827  12.863  11.252
31802W        W98585  41.390  44.382   3.598
31803W        W98586  21.268  34.843   1.483
31804W        W98587  43.014   7.226  12.774
31805W        W98588  30.740  14.842   1.189
31806W        W98589  29.928  14.076   1.058
31807W        W98590  15.573  24.948   2.621
31808W        W98591   5.474  29.525   4.743
31809W        W98592   6.089   1.907  13.624
31810W        W98593  12.235  11.268   0.757
31811W        W98594  42.348  22.251  12.017
31812W        W98595  19.421  20.544   2.590
31813W        W98596   2.774  32.178  14.804
31814W        W98597   9.888  38.243   3.211
31815W        W98598  42.413  29.129   4.671
31816W        W98599  32.863   2.910   0.397
31817W        W98600  21.988  15.724  14.898
31818W        W98601  29.377  33.705  13.933
31819W        W98602  17.187  31.696  14.473
31820W        W98603  25.169  19.950  13.578
31821W        W98604   5.737  12.401  14.471
31822W        W98605  29.083  11.583   4.688
31823W        W98606   8.257  34.326   0.791
31824W        W98607   2.921  36.081  10.470
31825W        W98608  31.101  26.266  11.265
31826W        W98609   6.646  25.595   2.328
31827W        W98610  20.659  37.436  11.626
31828W        W98611  34.214   4.887   9.866
31829W        W98612   5.956  38.045   0.800
31830W        W98613  25.264  42.526   1.749
31831W        W98614  42.845  32.546   3.394
31832W        W98615  26.011  12.679   0.268
31833W        W98616  22.582  11.222  13.955
31834W        W98617   5.169  13.390  11.155
31835W        W98618  30.633   3.219  13.465
31836W        W98619  33.508  29.121  11.705
31837W        W98620   6.753  11.675  14.551
31838W        W98621  22.401  42.929   0.007
31839W        W98622  39.439  15.633   2.336
31840W        W98623  34.604   5.412   1.639
31841W        W98624  37.476   2.018  12.138
31842W        W98625   8.245  31.593  14.319
31843W        W98626  42.669  21.531   3.657
31844W        W98627   2.239  38.098   4.975
31845W        W98628  23.846  40.656   0.270
31846W        W98629   3.004  40.744  12.905
31847W        W98630  17.628   2.853   4.121
31848W        W98631  10.346  39.905   0.018
31849W        W98632   6.705   0.582  12.531
31850W        W98633  10.080   5.701  11.542
31851W        W98634  36.117  29.961  12.090
31852W        W98635  22.000  29.310  12.059
31853W        W98636  29.082  24.647  12.418
31854W        W98637  16.307  15.589   3.755
31855W        W98638   7.774  12.085   9.907
31856W        W98639  11.496  44.706   4.974
31857W        W98640  39.165  26.114   4.566
31858W        W98641  10.588  19.055   3.504
31859W        W98642  22.660  16.307   3.211
31860W        W98643  39.109  12.860   0.287
31861W        W98644   4.935  38.792   0.510
31862W        W98645  26.443   4.088   2.119
31863W        W98646  35.135  43.940   4.732
31864W        W98647  36.676  21.459  11.031
31865W        W98648  26.699   7.637   1.411
31866W        W98649   7.669  23.780  11.129
31867W        W98650  17.584  12.741  10.837
31868W        W98651   6.412   3.854  12.068
31869W        W98652  29.943   0.736   4.155
31870W        W98653  24.111  41.020   4.201
31871W        W98654  22.788  35.947   3.852
31872W        W98655  25.311  26.299  14.527
31873W        W98656  16.814  18.083   2.826
31874W        W98657  44.959  19.031  13.924
31875W        W98658  35.550  10.908  12.864
31876W        W98659  39.785   0.307  14.927
31877W        W98660  25.831  25.745   0.976
31878W        W98661  17.492  22.996  10.730
31879W        W98662   8.582  26.840   4.715
31880W        W98663  38.124   2.695  12.105
31881W        W98664  10.198  33.808   0.824
31882W        W98665  19.330  39.338   0.444
31883W        W98666  36.883  23.531  12.961
31884W        W98667  27.169  28.381   0.493
31885W        W98668  41.895  40.518  14.459
31886W        W98669  17.360   0.366  13.178
31887W        W98670  35.813  13.138  11.536
31888W        W98671   9.845  10.211  14.592
31889W        W98672  27.061  38.593  14.416
31890W        W98673  19.977  36.516   4.655
31891W        W98674  39.514  15.353  13.959
31892W        W98675  20.685  36.074   2.004
31893W        W98676  12.287   7.418   2.182
31894W        W98677  40.609  39.355  10.994
31895W        W98678   1.201  14.490   0.867
31896W        W98679  32.877  23.047   1.740
31897W        W98680  12.292  24.050   1.829
31898W        W98681  23.030  21.977   2.638
31899W        W98682  17.672  20.748  13.330
31900W        W98683  29.114  15.335   3.363
31901W        W98684  28.463  33.381  11.031
31902W        W98685  42.130  21.629   2.187
31903W        W98686   6.335  26.931   2.680
31904W        W98687  14.390   4.752  11.173
31905W        W98688  35.421  31.916   1.794
31906W        W98689  29.504  11.075   0.314
31907W        W98690  19.843   3.361   5.124
31908W        W98691   9.058   5.392   4.001
31909W        W98692   0.335  35.175   0.749
31910W        W98693  14.768   1.149   1.324
31911W        W98694   7.953  17.598   2.295
31912W        W98695   6.245  15.017  11.317
31913W        W98696  24.926  36.477  12.969
31914W        W98697  14.082  24.646  12.039
31915W        W98698  18.538  13.852  11.076
31916W        W98699  35.236  28.940   2.816
31917W        W98700  42.030  17.716  13.300
31918W        W98701  40.882   9.437  14.318
31919W        W98702  24.579  16.644  12.422
31920W        W98703  24.390  39.957  11.759
31921W        W98704  34.535  14.005  11.536
31922W        W98705   8.139  14.591   0.981
31923W        W98706  13.822  18.991   0.781
31924W        W98707  43.491   9.997   0.315
31925W        W98708  21.507   2.242   2.223
31926W        W98709  27.409  18.920  12.996
31927W        W98710  40.937  10.303  12.512
31928W        W98711  39.584  17.698  13.894
31929W        W98712  33.390  13.328   1.861
31930W        W98713  37.173   7.699   5.166
31931W        W98714  23.910  18.828  14.343
31932W        W98715  17.267  15.044   3.143
31933W        W98716   6.626   8.127   3.470
31934W        W98717  34.175  40.386   1.828
31935W        W98718  16.555  35.912   3.195
31936W        W98719  38.859  25.381   2.107
31937W        W98720  10.431  39.439   0.829
31938W        W98721  12.743  26.111   0.937
31939W        W98722  22.275   4.374   1.579
31940W        W98723  24.238  15.278  13.456
31941W        W98724   0.663   2.468   0.359
31942W        W98725  42.380  27.817  11.329
31943W        W98726   5.661  23.693   4.375
31944W        W98727  28.879  43.659  11.190
31945W        W98728   2.217  21.099  12.499
31946W        W98729  30.196  44.417   4.235
31947W        W98730  31.067  13.734   4.444
31948W        W98731  17.331  18.896   4.557
31949W        W98732  16.631  38.534  13.047
31950W        W98733   9.535  44.172   4.079
31951W        W98734  21.615  27.668   0.792
31952W        W98735  41.307  12.413  11.438
31953W        W98736   1.724  40.299  12.748
31954W        W98737  39.546  31.489  14.048
31955W        W98738   1.940  39.825   3.875
31956W        W98739  16.333   2.957  10.528
31957W        W98740  15.121  12.375  13.439
31958W        W98741  25.736  27.088   1.337
31959W        W98742  23.408   4.472   1.939
31960W        W98743  39.190  30.278  10.151
31961W        W98744   2.487  23.329  10.836
31962W        W98745   5.210  35.518   0.437
31963W        W98746  43.497  13.588   3.617
31964W        W98747  11.299  16.152   1.847
31965W        W98748   2.104   4.534  12.630
31966W        W98749  22.700  44.399  12.810
31967W        W98750  37.577  30.726  11.186
31968W        W98751  30.023   3.610   5.011
31969W        W98752  38.441  42.393   1.701
31970W        W98753  37.943  10.094  11.538
31971W        W98754  18.720   5.814  11.502
31972W        W98755  35.469  29.171  10.764
31973W        W98756  34.288   2.471   0.428
31974W        W98757  24.269   0.507  11.985
31975W        W98758  34.144  15.936  10.680
31976W        W98759  10.664  28.712  13.744
31977W        W98760  21.840   8.391  10.530
31978W        W98761   5.478  27.718   3.669
31979W        W98762  21.674  30.761   4.799
31980W        W98763  25.712   3.629  11.589
31981W        W98764   5.688  31.926  12.828
31982W        W98765   1.880  28.982   2.323
31983W        W98766  44.281  31.146   0.087
31984W        W98767   9.361  32.495   1.029
31985W        W98768   1.766   2.294  14.424
31986W        W98769  10.264  26.947  14.951
31987W        W98770  40.449  24.521  14.288
31988W        W98771  25.741  26.322  14.231
31989W        W98772  43.460  29.787  14.951
31990W        W98773  29.251   0.903   2.351
31991W        W98774  22.121   9.894   2.068
31992W        W98775  27.935   0.732  12.112
31993W        W98776  14.483  40.469  11.520
31994W        W98777   2.421   3.287  12.586
31995W        W98778   7.900  27.888  10.461
31996W        W98779  33.890  36.760   0.163
31997W        W98780  24.707  16.637   2.185
31998W        W98781  24.636  17.854   4.287
31999W        W98782  21.137   1.295   3.731
32000W        W98783  30.379   7.168   2.219
32001W        W98784  40.059  14.119  11.252
32002W        W98785  29.033  23.668   0.824
32003W        W98786  20.118  18.759   4.896
32004W        W98787  18.406  14.650  11.573
32005W        W98788   1.835  27.491   0.018
32006W        W98789  22.598  12.492  11.198
32007W        W98790  36.897  22.743   3.029
32008W        W98791  43.988  28.927  14.205
32009W        W98792   2.402  17.458  14.391
32010W        W98793  19.583  22.495  12.027
32011W        W98794   1.651  34.147  13.296
32012W        W98795  21.007  24.515   4.575
32013W        W98796  10.064  12.725  12.862
32014W        W98797  17.135  28.469  12.464
32015W        W98798   0.416   1.865   2.377
32016W        W98799  35.614  26.811  13.928
32017W        W98800  13.563  33.564   2.262
32018W        W98801   3.458  11.350   2.373
32019W        W98802  19.975  18.251  13.368
32020W        W98803   5.399   5.247   3.325
32021W        W98804  27.256  29.981  11.966
32022W        W98805   2.565  27.393  13.310
32023W        W98806  41.422   7.273  12.954
32024W        W98807  18.218   4.866  13.420
32025W        W98808  42.736  12.139   0.851
32026W        W98809  40.081  44.453  13.390
32027W        W98810  29.682  26.760   3.330
32028W        W98811  13.154  33.345   0.849
32029W        W98812  13.845  29.171   3.887
32030W        W98813   8.815  39.272   3.193
32031W        W98814  19.074  31.536  13.657
32032W        W98815  35.006  32.470   4.393
32033W        W98816  30.964  18.984   4.523
32034W        W98817  16.867  13.812  14.651
32035W        W98818  20.768  13.229   3.228
32036W        W98819  13.021   6.777   2.222
32037W        W98820  10.787  23.719   0.488
32038W        W98821  30.383  10.741   3.711
32039W        W98822  22.448  33.431  12.383
32040W        W98823  18.350  22.229   3.565
32041W        W98824   9.733   9.670   4.499
32042W        W98825  13.755  43.298  12.518
32043W        W98826  12.981  21.328   4.844
32044W        W98827  43.256  16.366  11.864
32045W        W98828   0.275  13.668  14.553
32046W        W98829  10.826  29.407   3.776
32047W        W98830   2.258  42.385   2.242
32048W        W98831  22.828  37.099  11.815
32049W        W98832  31.500   5.134  11.447
32050W        W98833   8.419  19.217   3.749
32051W        W98834  35.126  39.829   2.328
32052W        W98835  29.388  21.216  12.272
32053W        W98836  17.319  29.101   1.139
32054W        W98837  10.837  43.275  13.839
32055W        W98838  44.974  21.341   2.439
32056W        W98839  24.104   9.958   3.255
32057W        W98840   4.645  26.687   0.774
32058W        W98841   4.210  42.525   4.719
32059W        W98842  10.431  25.143   0.934
32060W        W98843  10.868  37.623   1.848
32061W        W98844   6.741  16.331   3.699
32062W        W98845  37.855  20.086  11.798
32063W        W98846  11.248  41.116  12.197
32064W        W98847   8.406  20.565  14.101
32065W        W98848  22.668  37.599   3.745
32066W        W98849  33.618  36.953   2.922
32067W        W98850   1.469  36.334  13.585
32068W        W98851  26.144  12.729   1.259
32069W        W98852  11.792  10.945   3.258
32070W        W98853  21.103  17.731  14.806
32071W        W98854  17.904  44.355  11.967
32072W        W98855  21.092  27.285   4.738
32073W        W98856  35.361  38.972   4.722
32074W        W98857  33.051  12.639   2.940
32075W        W98858  17.761  12.058  14.763
32076W        W98859  13.912  21.749  12.907
32077W        W98860  29.702  34.966   1.840
32078W        W98861   8.912  29.204  11.533
32079W        W98862  11.419  16.345  12.174
32080W        W98863  34.194  15.113   2.893
32081W        W98864  26.242  21.799   0.162
32082W        W98865   8.339   4.917  11.648
32083W        W98866   7.753   6.646  12.983
32084W        W98867   7.051  11.696   2.623
32085W        W98868  25.607  42.985  12.863
32086W        W98869  29.082  26.049   0.762
32087W        W98870  30.935  31.133  13.181
32088W        W98871  13.662  31.208  14.162
32089W        W98872  25.513  22.745   0.355
32090W        W98873   2.970  40.845   0.309
32091W        W98874  12.149  19.534  12.893
32092W        W98875  27.905  17.627   2.011
32093W        W98876   4.706  38.460   3.900
32094W        W98877  18.635  27.043   3.818
32095W        W98878  39.600  14.875  11.583
32096W        W98879  17.111   3.104   3.760
32097W        W98880  29.861  22.556   3.745
32098W        W98881  12.623  13.007   0.889
32099W        W98882  36.589   5.792  14.789
32100W        W98883  36.937  28.412   0.305
32101W        W98884   3.763  25.617  13.937
32102W        W98885  37.592  33.312  14.005
32103W        W98886   7.478  10.279   3.214
32104W        W98887  31.083  41.423  10.594
32105W        W98888  17.989  27.088   3.127
32106W        W98889  29.064  15.473  11.615
32107W        W98890  35.851  36.540   1.780
32108W        W98891  26.475   3.458  10.438
32109W        W98892  44.332  44.751  12.467
32110W        W98893   2.681  28.035  12.989
32111W        W98894   1.471   9.273  11.581
32112W        W98895  42.803  22.605  14.950
32113W        W98896  22.551  42.646   4.141
32114W        W98897  27.011  44.162  11.654
32115W        W98898  40.051  12.642   0.235
32116W        W98899  40.003   0.767  14.005
32117W        W98900   6.173  29.651  11.175
32118W        W98901  10.648  28.643  14.968
32119W        W98902  30.904  43.312  12.061
32120W        W98903  29.568   2.595   3.132
32121W        W98904  26.655  18.992  14.793
32122W        W98905  27.482  37.428  14.880
32123W        W98906  38.612   0.123  11.588
32124W        W98907   0.242  20.246   3.251
32125W        W98908   4.744  23.531   1.674
32126W        W98909  26.910  24.176  13.333
32127W        W98910  12.751  28.076   2.379
32128W        W98911  38.220   6.243   3.210
32129W        W98912  28.567   4.966  11.474
32130W        W98913  37.891  35.008   4.508
32131W        W98914  37.004  39.314  11.068
32132W        W98915  36.840   5.266  11.143
32133W        W98916  31.506  30.673  14.762
32134W        W98917  20.643  22.022  13.507
32135W        W98918  31.604   7.807   3.372
32136W        W98919  18.008  17.763  10.217
32137W        W98920   0.317   0.029  11.164
32138W        W98921   9.702  37.154  11.071
32139W        W98922  20.584  29.275   3.836
32140W        W98923  37.432   3.443   1.893
32141W        W98924   2.300   5.748   0.520
32142W        W98925  33.565  23.710  12.135
32143W        W98926  44.059  33.291  14.914
32144W        W98927  15.821  44.528  14.238
32145W        W98928  11.895   1.584   3.187
32146W        W98929  25.088  23.322   5.027
32147W        W98930  19.403   3.088   5.113
32148W        W98931   7.127  11.765   4.679
32149W        W98932  19.245  27.970   2.152
32150W        W98933  11.087  33.931   0.408
32151W        W98934  20.633   7.714   2.599
32152W        W98935  22.032  44.272   0.343
32153W        W98936  30.431  23.987   2.273
32154W        W98937   8.429  16.313   3.236
32155W        W98938  20.765   6.426  11.339
32156W        W98939  38.017   7.956   3.721
32157W        W98940  16.018  32.771  11.057
32158W        W98941  12.760   9.030   3.955
32159W        W98942  10.978  38.487   1.715
32160W        W98943  33.922  16.204  11.602
32161W        W98944  12.206   6.190   4.733
32162W        W98945  14.129  34.116   4.926
32163W        W98946   4.487  43.571  11.980
32164W        W98947   2.874   2.435   0.855
32165W        W98948  43.856  28.669   4.419
32166W        W98949   6.660  38.911   4.623
32167W        W98950  11.877  27.979  13.886
32168W        W98951   0.217  44.189   4.592
32169W        W98952  15.735  18.927   0.327
32170W        W98953  41.960  15.865   3.287
32171W        W98954  20.507   6.909  14.064
32172W        W98955  25.574  26.571  12.563
32173W        W98956  23.681  12.369  14.079
32174W        W98957  24.844  24.317  11.432
32175W        W98958   6.135   8.841  12.879
32176W        W98959  11.586  20.512   1.353
32177W        W98960  23.533  12.048   4.164
32178W        W98961  41.918  17.731   4.413
32179W        W98962   7.299   2.239  11.365
32180W        W98963  14.637  42.935  14.823
32181W        W98964  40.465  31.956   3.892
32182W        W98965  18.261  30.589  12.128
32183W        W98966  21.775  16.635  10.581
32184W        W98967   4.180  35.304   2.274
32185W        W98968  13.369  32.458  12.564
32186W        W98969   4.697  37.843   0.414
32187W        W98970   8.268   9.729   3.595
32188W        W98971   4.849  17.155  14.424
32189W        W98972  15.836  31.261   3.252
32190W        W98973  22.653  16.555  14.894
32191W        W98974  42.973  17.863   0.937
32192W        W98975  23.088   2.387   0.074
32193W        W98976  39.863   3.797  14.763
32194W        W98977  31.828  27.967  11.942
32195W        W98978  38.048   7.593  12.908
32196W        W98979  21.981  22.622   2.250
32197W        W98980  18.758  16.262  10.992
32198W        W98981   8.000  35.762   2.872
32199W        W98982  20.669  19.203  12.896
32200W        W98983  22.596   1.457   4.260
32201W        W98984  10.320  32.365  11.540
32202W        W98985  36.888   9.637  11.118
32203W        W98986  44.404  39.884   0.883
32204W        W98987  43.689  42.229   1.628
32205W        W98988  11.849  27.393   1.063
32206W        W98989  22.131  35.092   0.520
32207W        W98990  39.966   7.409   9.890
32208W        W98991   4.469   9.748  10.477
32209W        W98992  13.421   3.505  12.016
32210W        W98993  26.510  26.575  11.757
32211W        W98994  36.835  42.487   1.014
32212W        W98995  24.230  23.711   5.502
32213W        W98996  20.272   7.175  11.578
32214W        W98997  13.372   5.684   1.508
32215W        W98998   1.648  30.197   1.266
32216W        W98999  26.078  19.506  13.701
32217W        W99000  24.379  33.689  13.496
32218W        W99001  37.280   0.556   0.425
32219W        W99002  10.737  30.108   0.003
32220W        W99003   2.390   8.160   2.153
32221W        W99004  26.152  42.826   5.178
32222W        W99005   3.804  25.515   2.899
32223W        W99006  28.514  40.376  10.231
32224W        W99007  43.946  12.769   1.040
32225W        W99008  17.664  31.987  11.170
32226W        W99009  11.337  23.119   3.228
32227W        W99010   9.532  30.323   5.061
32228W        W99011  28.445  41.010  13.558
32229W        W99012  35.664   5.399   0.616
32230W        W99013  18.294   0.910   3.830
32231W        W99014  16.823   7.819  11.241
32232W        W99015  23.101  22.194  11.707
32233W        W99016  37.521  40.272   0.453
32234W        W99017  21.167  28.891   0.895
32235W        W99018   0.979  17.285  13.582
32236W        W99019   0.612  17.980  12.939
32237W        W99020  11.468  17.682   4.101
32238W        W99021  12.722  10.540   1.917
32239W        W99022  15.747  25.147   0.746
32240W        W99023  32.566  44.894  11.736
32241W        W99024   6.146  12.369  10.499
32242W        W99025  14.257  42.246   4.544
32243W        W99026  23.964  31.408  14.986
32244W        W99027  28.172  40.833   0.607
32245W        W99028  27.927  25.493   4.741
32246W        W99029  40.068  40.133  12.006
32247W        W99030   3.840  22.751   0.899
32248W        W99031   3.860  43.789  14.530
32249W        W99032  27.747  34.382  13.491
32250W        W99033  35.890  30.298   0.307
32251W        W99034  31.252  20.015  12.070
32252W        W99035  39.375  35.553   1.660
32253W        W99036  36.023   6.665   0.324
32254W        W99037  11.827  16.334   4.233
32255W        W99038  40.751  21.978   2.718
32256W        W99039  38.484  10.059   3.614
32257W        W99040  32.507  34.536  11.476
32258W        W99041  32.677   0.024   2.728
32259W        W99042  39.868  42.025   0.248
32260W        W99043  20.225  11.016   3.372
32261W        W99044  10.132  23.638  12.552
32262W        W99045  19.214   6.523  11.651
32263W        W99046  13.146   3.824  13.909
32264W        W99047  11.566  11.306   5.125
32265W        W99048  43.842  29.147   4.606
32266W        W99049   8.227  35.576  11.152
32267W        W99050  10.026   6.289  13.988
32268W        W99051  26.965  43.306  12.011
32269W        W99052   3.416  23.482  11.599
32270W        W99053   5.829  31.167  11.119
32271W        W99054  24.228  15.947   4.135
32272W        W99055   7.537   7.523  14.428
32273W        W99056   6.145   1.786   3.846
32274W        W99057  11.657  44.560   3.183
32275W        W99058  35.394  31.628  12.633
32276W        W99059   2.991   4.661  14.000
32277W        W99060  17.698  26.138  11.078
32278W        W99061   6.012  35.708  12.819
32279W        W99062  36.812  36.096   4.235
32280W        W99063  32.186   6.937  12.076
32281W        W99064   8.389  19.487   2.250
32282W        W99065   8.696  32.368   4.504
32283W        W99066  36.880  10.570   0.289
32284W        W99067   1.732   5.857   2.768
32285W        W99068  12.944   4.315   2.408
32286W        W99069   8.792  43.035  14.890
32287W        W99070  34.409  20.083  14.256
32288W        W99071  19.639  19.970  12.665
32289W        W99072  30.953  43.300   0.307
32290W        W99073  41.686  34.986   0.737
32291W        W99074  28.087  27.485  13.859
32292W        W99075  37.134  20.124  13.467
32293W        W99076  11.151  25.983  13.271
32294W        W99077  17.755  35.347   3.130
32295W        W99078   7.044  39.925  12.715
32296W        W99079  32.676  35.577  11.392
32297W        W99080  37.458   0.707   4.589
32298W        W99081  16.214  14.439   3.273
32299W        W99082  35.807  21.741  11.925
32300W        W99083  25.791  36.317  13.969
32301W        W99084   1.216   8.178  11.113
32302W        W99085  13.592  11.796  10.571
32303W        W99086  11.241   5.296  14.230
32304W        W99087  40.017  10.599  13.154
32305W        W99088  17.612  41.942   0.816
32306W        W99089  31.222  14.232   4.608
32307W        W99090  30.587  22.815   3.364
32308W        W99091  35.716  10.447   0.858
32309W        W99092  13.527  32.009  13.491
32310W        W99093  15.721  13.103  12.555
32311W        W99094  26.902  43.484  11.084
32312W        W99095  33.672  39.458  14.476
32313W        W99096   3.920  19.200   2.292
32314W        W99097  33.642  23.506  13.928
32315W        W99098  29.665  17.073  14.276
32316W        W99099  26.769  28.166  11.132
32317W        W99100  26.713  21.299   3.603
32318W        W99101  41.452  18.353   3.230
32319W        W99102  20.334  12.116  10.715
32320W        W99103  24.643  38.538  13.417
32321W        W99104  34.658  35.318   1.752
32322W        W99105  12.205  14.987  14.237
32323W        W99106  37.422  42.295  10.522
32324W        W99107  37.917  29.590  13.436
32325W        W99108  19.222   0.320   0.143
32326W        W99109  39.731  12.594  12.052
32327W        W99110  26.177  44.904  11.053
32328W        W99111  12.767   0.042   4.301
32329W        W99112   2.383  38.279   3.709
32330W        W99113  37.993  41.558  12.466
32331W        W99114  10.356  18.602  14.398
32332W        W99115  38.966  40.811   3.119
32333W        W99116  30.180  16.627  10.548
32334W        W99117  17.679   1.440  12.614
32335W        W99118  21.236  40.542  12.325
32336W        W99119  41.023  22.207   3.110
32337W        W99120  44.395  43.094   1.170
32338W        W99121   8.769   9.193  12.800
32339W        W99122  24.200   4.930  11.474
32340W        W99123  40.753  21.071  12.495
32341W        W99124  43.344  36.087   0.378
32342W        W99125  24.293  38.089  11.682
32343W        W99126  27.526  34.947   2.690
32344W        W99127  27.170  22.245  11.469
32345W        W99128  43.327   6.297   0.204
32346W        W99129  39.067   5.189  11.941
32347W        W99130  37.508  14.313   4.195
32348W        W99131  44.997   7.259   3.230
32349W        W99132   7.499  33.892   1.706
32350W        W99133  29.530  39.424  14.788
32351W        W99134  43.967  13.673  13.591
32352W        W99135  37.372   8.453  10.990
32353W        W99136   0.962  24.042   3.717
32354W        W99137  27.669  35.964  11.122
32355W        W99138  39.648  38.343   4.095
32356W        W99139  42.371  40.874  13.652
32357W        W99140   9.653   5.830   4.506
32358W        W99141  19.993  35.008  14.933
32359W        W99142  31.985  36.758   4.148
32360W        W99143  39.149  11.262  12.414
32361W        W99144  37.323  31.615  14.447
32362W        W99145   5.151   2.953   1.276
32363W        W99146  36.381  41.933   3.828
32364W        W99147  39.678   4.231   1.865
32365W        W99148  43.936  34.869   1.422
32366W        W99149  18.737  28.011   0.500
32367W        W99150   5.284   8.241  13.316
32368W        W99151   5.563  12.817  14.726
32369W        W99152  15.153   5.650  14.931
32370W        W99153   0.267  27.539   0.148
32371W        W99154  17.846  26.979  12.810
32372W        W99155   9.601  31.146  13.165
32373W        W99156  20.761  40.527   2.877
32374W        W99157   2.480   9.848   1.704
32375W        W99158  44.821  28.987  12.606
32376W        W99159  18.025  29.337   4.209
32377W        W99160  24.647  34.996   0.456
32378W        W99161   5.685  31.222  13.286
32379W        W99162   3.949   9.366  13.016
32380W        W99163  40.008  23.045  14.120
32381W        W99164   9.205   9.227  10.772
32382W        W99165  39.119  37.931  10.898
32383W        W99166  18.725  42.759  13.288
32384W        W99167  17.625   1.846  10.926
32385W        W99168   2.150  42.178   0.150
32386W        W99169  40.593  36.805  11.510
32387W        W99170  37.009  43.825   2.180
32388W        W99171  17.637  16.405  11.528
32389W        W99172   8.257  42.512   1.059
32390W        W99173   8.071  37.386   3.090
32391W        W99174  34.869  26.008   0.766
32392W        W99175  36.985  24.019  12.847
32393W        W99176   3.478   0.488  12.836
32394W        W99177  35.087   8.623  13.511
32395W        W99178  30.226  17.576  11.441
32396W        W99179   1.060  17.634   2.301
32397W        W99180   6.699  39.709  14.596
32398W        W99181  34.665  28.151   1.750
32399W        W99182  22.537  43.769   0.397
32400W        W99183  28.969  13.187  14.832
32401W        W99184  18.601  42.562   3.470
32402W        W99185   6.484  21.986   4.845
32403W        W99186  43.057  11.152  11.507
32404W        W99187  41.080  23.439  12.592
32405W        W99188  13.404  42.559   3.057
32406W        W99189   9.314  28.411   4.228
32407W        W99190  21.085  13.084   0.876
32408W        W99191   6.308  17.104   1.696
32409W        W99192  12.241   6.790  12.541
32410W        W99193  40.258   5.193  13.304
32411W        W99194  26.490  33.126   1.517
32412W        W99195  43.482  31.352  12.476
32413W        W99196  36.981   5.780   4.679
32414W        W99197  18.754  15.279  13.583
32415W        W99198   1.800  33.839  14.231
32416W        W99199  17.220  43.532  10.708
32417W        W99200  32.943   7.881  14.816
32418W        W99201  42.994  43.333   2.335
32419W        W99202   7.672  21.323  12.068
32420W        W99203  40.860  25.223   3.749
32421W        W99204   4.634  29.952   1.567
32422W        W99205  18.185  18.484   2.714
32423W        W99206  26.969   7.228  12.812
32424W        W99207  36.192   2.438   0.787
32425W        W99208  12.179  35.012  11.542
32426W        W99209   4.802   5.147  12.986
32427W        W99210  21.720  15.316  14.728
32428W        W99211  36.430  22.701   2.706
32429W        W99212  13.329  35.980   0.675
32430W        W99213  12.651  36.738   5.480
32431W        W99214  10.658   6.247  12.036
32432W        W99215  18.801   2.741  12.323
32433W        W99216  24.933  12.172   4.055
32434W        W99217  43.713  42.861   0.315
32435W        W99218   6.869  30.478   2.113
32436W        W99219  14.817  35.978  12.159
32437W        W99220  38.856  30.506   0.803
32438W        W99221  22.469  20.058  13.128
32439W        W99222   5.477  22.745   0.836
32440W        W99223  13.600  44.859  12.620
32441W        W99224  23.434  27.168  12.579
32442W        W99225  39.816   3.998   3.170
32443W        W99226   5.771  23.749   3.883
32444W        W99227  19.553  30.540  10.385
32445W        W99228  28.048  14.686   1.190
32446W        W99229  35.092  16.268  13.842
32447W        W99230  33.506   8.994  11.112
32448W        W99231   6.849  24.065   2.239
32449W        W99232  11.670  10.441  14.388
32450W        W99233   8.671  19.166  10.672
32451W        W99234  27.451  14.351  14.837
32452W        W99235  15.901  21.669   2.855
32453W        W99236  14.846  32.380   2.828
32454W        W99237  30.381  35.406   1.007
32455W        W99238  33.552  34.074  11.307
32456W        W99239   6.149   9.357   4.072
32457W        W99240  12.818  30.609   3.752
32458W        W99241   9.389  15.082   0.461
32459W        W99242  23.127  32.334  13.416
32460W        W99243  11.817  40.088   0.849
32461W        W99244   5.296  16.704   3.828
32462W        W99245  12.061   5.710   4.951
32463W        W99246   5.514   0.877   0.444
32464W        W99247   5.399   1.308   1.855
32465W        W99248   4.188  18.204   3.700
32466W        W99249  26.710  20.275  14.550
32467W        W99250  43.849   6.673  12.354
32468W        W99251  28.613   0.578   1.713
32469W        W99252  41.049  36.347   2.674
32470W        W99253  23.815  25.503  14.820
32471W        W99254  27.063   0.783   1.112
32472W        W99255  19.744  43.892   4.478
32473W        W99256   5.017  32.536   1.861
32474W        W99257  21.078   4.742   0.623
32475W        W99258  20.421  27.489   1.313
32476W        W99259   2.247  32.436  10.567
32477W        W99260  22.123  10.707   0.383
32478W        W99261  36.244  13.818  11.064
32479W        W99262  18.591  38.846   0.300
32480W        W99263  14.358   1.730   0.062
32481W        W99264   2.343  26.935   2.010
32482W        W99265  11.695  39.455  11.652
32483W        W99266  11.324  25.965   0.414
32484W        W99267  25.927  32.669  13.402
32485W        W99268  33.855  43.302  12.810
32486W        W99269  28.866  27.943  14.048
32487W        W99270  15.105  15.121  13.327
32488W        W99271   2.891  28.208  13.495
32489W        W99272  28.975  42.630   1.802
32490W        W99273  28.485  11.281  13.092
32491W        W99274  24.001  25.650  11.642
32492W        W99275  27.912  11.791   3.149
32493W        W99276  30.930  43.566  13.441
32494W        W99277  19.118  39.533  14.087
32495W        W99278  43.001  29.051  14.735
32496W        W99279  41.419  17.184  13.900
32497W        W99280  27.936   7.712  12.466
32498W        W99281  32.631   2.571  11.124
32499W        W99282   2.504  30.765   3.906
32500W        W99283  12.088   5.366  11.215
32501W        W99284   6.795   8.828  10.612
32502W        W99285  42.721  17.589   2.804
32503W        W99286   9.516   0.938   1.537
32504W        W99287  36.552  43.051   1.968
32505W        W99288  20.451  36.485   0.032
32506W        W99289  36.149  39.502  12.864
32507W        W99290  44.669  31.952   4.578
32508W        W99291  42.881   1.530   3.626
32509W        W99292  38.058   8.295   0.833
32510W        W99293  22.002  12.568  11.728
32511W        W99294  35.579   7.286  13.347
32512W        W99295  21.511   2.459  12.495
32513W        W99296  12.290  26.046  12.502
32514W        W99297  20.151   6.729  10.705
32515W        W99298  41.413  38.850   4.611
32516W        W99299  43.557  11.897   0.260
32517W        W99300  20.633  44.589  14.104
32518W        W99301  13.407  27.576   4.771
32519W        W99302  34.770  33.074   0.838
32520W        W99303  33.462  19.671  13.041
32521W        W99304   2.699   4.253  13.889
32522W        W99305   2.296   0.378  12.492
32523W        W99306  17.110  21.687  13.061
32524W        W99307  37.556  13.591   1.882
32525W        W99308  20.442  35.845   1.064
32526W        W99309   0.759   2.004   5.058
32527W        W99310  24.786  39.341   0.478
32528W        W99311  38.553   8.335   0.855
32529W        W99312  15.739  36.599   3.310
32530W        W99313  11.905  31.549   2.267
32531W        W99314  27.121   5.766  11.257
32532W        W99315  29.486  15.608  12.612
32533W        W99316  35.033   5.382  14.245
32534W        W99317   5.633  41.009  14.179
32535W        W99318  16.642  13.847   1.284
32536W        W99319  38.429   7.808  10.638
32537W        W99320  39.349   5.805   4.104
32538W        W99321  35.969   3.416  14.320
32539W        W99322  36.640  33.729  14.972
32540W        W99323   9.545   9.836  11.420
32541W        W99324  34.206  18.114  11.615
32542W        W99325   1.103  24.019  12.022
32543W        W99326  37.869  35.861   3.707
32544W        W99327  27.927  43.579  14.350
32545W        W99328  20.723  27.525   3.898
32546W        W99329  18.353  28.283   1.187
32547W        W99330  12.648  17.337  13.069
32548W        W99331  41.826   3.687  12.095
32549W        W99332  41.784  41.369   1.350
32550W        W99333  19.137  20.193  13.351
32551W        W99334  25.601  15.714   4.258
32552W        W99335  15.121  32.675   2.163
32553W        W99336  33.575  36.678   3.917
32554W        W99337  35.133  35.431   4.358
32555W        W99338  34.382  27.261   3.244
32556W        W99339   1.256   2.067   2.718
32557W        W99340  43.929  29.095   0.734
32558W        W99341  23.330  22.211  13.964
32559W        W99342  12.620  17.267  10.590
32560W        W99343  22.109  27.402   2.264
32561W        W99344  40.056  15.684  14.922
32562W        W99345  22.701  10.391   4.125
32563W        W99346   5.751  15.736   2.163
32564W        W99347  25.081  32.681  12.915
32565W        W99348  24.963   9.680   4.064
32566W        W99349  13.230   6.312   2.271
32567W        W99350  21.666  27.945   3.513
32568W        W99351  21.572  17.550   2.903
32569W        W99352  32.132  28.219  14.269
32570W        W99353  26.585  37.777   1.236
32571W        W99354  16.814  15.344   0.381
32572W        W99355   3.453  32.036   1.716
32573W        W99356  37.363  24.146   1.933
32574W        W99357  31.470  15.600   3.015
32575W        W99358   1.979  35.837   4.317
32576W        W99359  17.265  15.861   1.344
32577W        W99360   1.309  11.129  12.621
32578W        W99361  11.935  10.708   2.773
32579W        W99362  16.894  42.474  13.102
32580W        W99363  13.437  43.932   1.031
32581W        W99364  18.054   6.773   3.265
32582W        W99365  16.743  41.003  14.513
32583W        W99366  42.487  16.770  14.663
32584W        W99367  20.251  12.492   0.571
32585W        W99368  21.528  36.539   1.371
32586W        W99369  35.049   1.589  10.429
32587W        W99370  22.786   7.075  13.398
32588W        W99371  43.715  21.434   2.767
32589W        W99372  11.395  40.077   4.231
32590W        W99373  25.889  30.231   3.234
32591W        W99374  15.502  22.647  11.719
32592W        W99375  12.270   9.130   0.921
32593W        W99376  41.121  39.338  11.164
32594W        W99377  40.170  15.084   1.384
32595W        W99378   7.407   5.895   0.882
32596W        W99379  39.447  43.362   3.982
32597W        W99380  32.008  17.226   2.676
32598W        W99381   1.163  16.344  13.177
32599W        W99382  13.279   7.561   4.642
32600W        W99383  17.090  12.238  13.364
32601W        W99384  24.701  36.562  10.614
32602W        W99385  40.540  12.444  13.830
32603W        W99386   2.258   0.963  11.049
32604W        W99387  27.693  33.435  14.953
32605W        W99388   6.495  11.763  12.984
32606W        W99389  44.024  22.248   3.624
32607W        W99390  30.343  37.855   0.798
32608W        W99391  34.628  29.551   0.048
32609W        W99392  14.227   7.380   2.688
32610W        W99393  23.458  39.657  12.848
32611W        W99394  20.169   8.177  13.730
32612W        W99395   3.970  32.507   3.831
32613W        W99396   4.860  29.976  13.887
32614W        W99397  15.124  26.767  14.366
32615W        W99398   1.374   4.363  13.384
32616W        W99399  25.584  24.746  14.379
32617W        W99400   9.920  26.251   0.961
32618W        W99401  42.367  22.797  13.853
32619W        W99402  13.865  31.622  12.494
32620W        W99403  25.787  34.094  14.876
32621W        W99404  25.060  32.449  11.355
32622W        W99405   7.789  29.529  12.735
32623W        W99406  40.380   3.255   9.591
32624W        W99407   7.981  37.368  13.145
32625W        W99408  14.196  36.698   4.016
32626W        W99409  42.577  23.682   0.325
32627W        W99410  37.967  30.919   3.735
32628W        W99411  42.918  31.907   4.141
32629W        W99412  11.760  35.324  11.584
32630W        W99413  11.691   9.476  12.751
32631W        W99414  40.460  44.797   3.692
32632W        W99415  18.386   5.389  14.298
32633W        W99416  17.877  26.318   5.081
32634W        W99417   6.676  26.196  13.958
32635W        W99418  42.459  14.435  12.052
32636W        W99419  26.558  19.095   0.283
32637W        W99420  20.656  19.163  12.395
32638W        W99421  40.036  41.013   2.293
32639W        W99422   0.853   4.093   2.341
32640W        W99423  12.084  25.103   4.178
32641W        W99424  41.932  33.171   2.271
32642W        W99425  35.078  37.241  12.894
32643W        W99426  38.731  24.446   2.041
32644W        W99427  43.985   8.968  14.573
32645W        W99428  20.262  28.054  14.344
32646W        W99429   3.425  38.639   0.838
32647W        W99430  23.053   0.959   2.214
32648W        W99431  34.597  11.778  10.986
32649W        W99432  32.431   6.854  14.337
32650W        W99433   9.578  33.706   3.055
32651W        W99434  29.538  21.109  14.488
32652W        W99435  32.393   2.384  14.441
32653W        W99436  31.417  44.500  12.899
32654W        W99437   3.299  18.720  10.521
32655W        W99438  11.262  17.917   0.759
32656W        W99439  32.925  37.557   1.768
32657W        W99440  10.854  35.733  11.474
32658W        W99441   5.372  19.027   4.628
32659W        W99442   8.176   9.499   3.114
32660W        W99443  20.222  27.315   3.046
32661W        W99444   6.277  19.425  11.514
32662W        W99445  38.822  15.847  12.396
32663W        W99446  16.761   4.422  14.324
32664W        W99447  41.340  19.829  13.991
32665W        W99448  40.031  38.790  11.608
32666W        W99449   5.854  26.683  13.903
32667W        W99450  14.839  14.121  10.672
32668W        W99451  27.428   1.385   2.283
32669W        W99452  40.251  16.026  14.198
32670W        W99453   4.666  21.955   3.755
32671W        W99454  23.252  26.421  12.209
32672W        W99455  16.283  17.216  12.431
32673W        W99456  32.480  41.098   2.427
32674W        W99457  21.897  38.507   4.006
32675W        W99458  39.976  24.092  14.831
32676W        W99459  19.794   5.393   4.441
32677W        W99460  15.670   1.018  14.979
32678W        W99461  42.593  31.853   0.273
32679W        W99462  24.623  37.506  12.580
32680W        W99463  14.752   1.985   3.070
32681W        W99464   4.964  23.616  10.550
32682W        W99465   1.027  12.921  11.905
32683W        W99466  21.550  23.754  14.287
32684W        W99467   1.458  12.772   4.698
32685W        W99468  27.879  30.760  10.257
32686W        W99469  41.336   4.838  11.469
32687W        W99470  15.686   4.746  10.701
32688W        W99471  43.767  13.191  11.169
32689W        W99472  43.864  25.429   0.770
32690W        W99473  39.094  32.150  10.642
32691W        W99474  11.171   5.383  10.181
32692W        W99475  21.985  24.123  12.331
32693W        W99476  10.076  40.000  13.992
32694W        W99477  22.686  14.180   2.576
32695W        W99478  25.096   4.220   3.227
32696W        W99479  44.620  30.204   0.168
32697W        W99480   0.383  19.749   4.775
32698W        W99481  29.365  25.565   3.614
32699W        W99482  35.598   3.920  14.981
32700W        W99483  14.751   6.692   1.165
32701W        W99484  11.742  33.582  13.151
32702W        W99485  11.516   6.272   4.884
32703W        W99486  20.772  41.016   4.108
32704W        W99487  42.986  18.193  13.887
32705W        W99488  43.184  20.312   2.280
32706W        W99489  28.423  31.926   3.744
32707W        W99490  19.023  23.969  14.969
32708W        W99491   9.975  23.066   1.418
32709W        W99492  41.926  33.460  11.881
32710W        W99493  28.700  15.125   4.740
32711W        W99494   1.234  16.069   2.838
32712W        W99495  16.075  15.186  14.951
32713W        W99496  31.171  11.663  11.541
32714W        W99497  40.657   2.437  11.531
32715W        W99498  38.112   8.867   4.211
32716W        W99499  31.835  13.630  12.539
32717W        W99500  37.099  41.103   4.549
32718W        W99501  16.033  28.510   2.006
32719W        W99502  13.300   8.218  14.747
32720W        W99503  33.203  11.648   4.699
32721W        W99504  41.970  41.423  12.998
32722W        W99505  22.698  12.054  14.354
32723W        W99506  26.383  20.564  11.717
32724W        W99507   2.100   6.459  12.904
32725W        W99508  29.077  11.590  14.948
32726W        W99509  27.763  35.577  10.739
32727W        W99510   7.210   4.753  11.086
32728W        W99511   3.339  43.723  14.404
32729W        W99512  22.750  25.164  14.444
32730W        W99513  39.862  19.672   0.119
32731W        W99514  30.896  10.179  11.150
32732W        W99515  20.977  23.212   3.007
32733W        W99516  28.082  40.736   3.218
32734W        W99517   5.405  35.766  13.940
32735W        W99518  11.753  26.665  13.318
32736W        W99519  23.964  44.896   3.677
32737W        W99520  39.981  23.197  13.098
32738W        W99521  26.598  38.257   0.477
32739W        W99522  36.155  10.195   0.859
32740W        W99523   4.269  37.660   0.650
32741W        W99524  28.432  20.973   4.823
32742W        W99525  22.269  11.737   2.381
32743W        W99526  29.397  27.011  13.941
32744W        W99527  26.521  29.660  12.939
32745W        W99528  24.524  16.874  14.406
32746W        W99529   8.207   3.550  10.598
32747W        W99530  39.836  33.932  13.915
32748W        W99531  24.081   1.376   3.867
32749W        W99532  14.332  13.596   3.207
32750W        W99533  22.360  34.899   0.958
32751W        W99534  12.147  36.126  12.516
32752W        W99535   1.306  37.104  10.791
32753W        W99536  35.646  27.079   1.276
32754W        W99537  37.692  13.775   1.397
32755W        W99538  17.055  31.059   2.257
32756W        W99539  29.630  16.078  14.560
32757W        W99540  43.121   5.758  10.097
32758W        W99541  10.960  11.747   2.791
32759W        W99542  36.522  16.766   4.190
32760W        W99543  13.036  29.320   0.280
32761W        W99544  31.330  10.553  11.356
32762W        W99545  20.449  17.046   2.300
32763W        W99546  29.433  40.383  10.037
32764W        W99547  18.205  33.255   0.749
32765W        W99548   6.245  18.052   2.138
32766W        W99549   2.009   6.256   2.605
32767W        W99550  38.009  28.181   2.650
32768W        W99551  39.931  13.192  12.790
32769W        W99552   7.214  16.333   3.063
32770W        W99553  24.080  19.715   0.884
32771W        W99554  43.540  11.745  13.885
32772W        W99555   8.302  12.037  14.776
32773W        W99556  13.980  16.949   2.808
32774W        W99557  13.585  30.178   1.219
32775W        W99558  32.074  18.195   1.939
32776W        W99559  41.429  31.221   1.426
32777W        W99560  10.889  29.532  12.446
32778W        W99561  42.272  13.268   1.304
32779W        W99562   0.393  27.242  12.026
32780W        W99563  29.037  14.805   3.188
32781W        W99564  34.141  39.302   3.820
32782W        W99565   4.515  22.597   3.280
32783W        W99566  31.475   8.255   4.580
32784W        W99567  41.350  42.435   4.550
32785W        W99568  37.617  21.405  12.604
32786W        W99569  36.613  40.238   1.354
32787W        W99570  15.988  17.733   3.757
32788W        W99571  11.844  31.718  11.010
32789W        W99572   4.816  21.209   5.136
32790W        W99573  39.795   7.062   4.764
32791W        W99574  27.482   1.195  14.378
32792W        W99575  20.177   6.312  11.006
32793W        W99576   8.911  38.186   2.360
32794W        W99577  35.232  16.656   3.045
32795W        W99578  35.775  43.204  13.563
32796W        W99579  41.625   4.344   3.314
32797W        W99580  44.203  30.011  10.775
32798W        W99581  25.998   2.375   4.146
32799W        W99582  26.696  39.864  14.489
32800W        W99583  37.794  25.136  10.766
32801W        W99584  14.316  11.822  12.027
32802W        W99585  33.658   8.329   1.715
32803W        W99586   2.906  44.351   2.244
32804W        W99587  19.619  40.546  14.905
32805W        W99588  25.830  25.831   1.638
32806W        W99589   4.951  40.883  12.521
32807W        W99590  25.564   8.103  11.996
32808W        W99591  22.091  38.374  13.493
32809W        W99592   4.322   0.457  13.048
32810W        W99593  28.024  39.441   0.988
32811W        W99594   5.164  16.142   2.643
32812W        W99595  31.522  37.218  13.304
32813W        W99596  11.086  11.289   1.930
32814W        W99597   4.728   2.012  14.810
32815W        W99598  35.204   7.148  14.294
32816W        W99599   7.663  23.663   1.837
32817W        W99600  18.123   3.818   4.291
32818W        W99601   0.470   7.040  10.132
32819W        W99602  27.046  13.357   0.298
32820W        W99603   8.848  28.539   1.051
32821W        W99604  27.566  32.889  12.051
32822W        W99605  44.562  38.345  12.455
32823W        W99606  12.378  32.853  12.746
32824W        W99607  16.859  30.608   0.410
32825W        W99608   8.568   6.645  11.350
32826W        W99609   5.375   0.351   1.893
32827W        W99610  17.236  26.984  14.340
32828W        W99611  36.443  39.860  11.662
32829W        W99612  12.548   2.122  12.404
32830W        W99613  32.011   9.889   4.418
32831W        W99614  29.069  30.875  14.016
32832W        W99615  32.510   5.332   0.735
32833W        W99616  29.599  31.866   2.464
32834W        W99617  37.873   5.786   1.753
32835W        W99618  12.616   0.265   3.738
32836W        W99619   3.969  33.048   2.379
32837W        W99620   8.933  10.716   4.298
32838W        W99621  19.759  24.088   3.785
32839W        W99622  42.383  21.990  14.426
32840W        W99623   8.839  31.355  11.211
32841W        W99624  22.985  35.535   4.109
32842W        W99625  34.478  40.583  11.552
32843W        W99626  15.656  10.102   0.114
32844W        W99627  44.438  15.973  13.972
32845W        W99628  37.420  26.987  10.654
32846W        W99629  17.560   2.440  12.704
32847W        W99630  20.514  17.540  12.985
32848W        W99631  39.243   6.884   0.385
32849W        W99632  30.399  10.505   4.196
32850W        W99633   4.201  12.107  12.402
32851W        W99634  15.355  43.305   3.025
32852W        W99635  12.529   6.882   0.922
32853W        W99636  12.770  42.353   2.346
32854W        W99637  19.032   9.707  12.442
32855W        W99638  22.507  42.132   4.107
32856W        W99639   9.146  13.726  11.585
32857W        W99640  18.569   8.679   3.694
32858W        W99641  29.630   1.835   0.888
32859W        W99642   7.442  44.529   3.180
32860W        W99643  43.980  18.976   4.587
32861W        W99644   0.311  44.653   4.786
32862W        W99645  43.795  23.044  13.908
32863W        W99646  30.562  28.156   0.925
32864W        W99647  21.739   1.768   0.938
32865W        W99648  41.739  12.330   3.812
32866W        W99649  25.154  31.639  12.969
32867W        W99650  10.764  22.787  12.062
32868W        W99651  39.959  25.926   3.270
32869W        W99652   7.656   3.772  14.035
32870W        W99653  36.382  23.305   1.158
32871W        W99654  32.496   6.875   1.166
32872W        W99655  35.698   8.935   1.850
32873W        W99656  25.213  43.307  10.568
32874W        W99657   9.324  15.377  10.665
32875W        W99658   3.761   4.900   1.878
32876W        W99659   1.300  36.031   3.094
32877W        W99660  40.126   5.019   3.311
32878W        W99661  39.520  28.077   4.153
32879W        W99662  44.191  20.432   4.773
32880W        W99663  39.933  31.336   3.295
32881W        W99664  28.342   6.513  12.156
32882W        W99665  16.216   9.663  10.637
32883W        W99666  21.798  33.608  11.038
32884W        W99667  35.591  25.399   3.676
32885W        W99668  41.719  13.792   3.566
32886W        W99669  31.837  32.025  13.841
32887W        W99670  34.748  11.876   0.923
32888W        W99671  33.221  26.535   2.211
32889W        W99672  37.755  26.762  12.327
32890W        W99673  24.246  17.300   1.778
32891W        W99674  41.916  17.410  13.976
32892W        W99675  14.754  25.794  11.616
32893W        W99676  11.349  11.243  11.545
32894W        W99677  38.414  39.978   1.857
32895W        W99678  20.345  32.001   4.208
32896W        W99679  30.005  36.895  14.943
32897W        W99680  39.982  11.346   4.491
32898W        W99681   9.179  31.509  14.305
32899W        W99682  12.938   1.878   2.833
32900W        W99683  31.106  22.872  13.409
32901W        W99684  22.322  27.270  10.679
32902W        W99685   1.276  20.568  11.955
32903W        W99686  13.803  28.850   0.024
32904W        W99687  14.337  30.210   2.349
32905W        W99688  35.535  32.831  14.233
32906W        W99689  44.745  19.066  12.906
32907W        W99690   2.829  24.717   2.912
32908W        W99691  15.159   1.472   2.047
32909W        W99692  27.041  25.167   2.173
32910W        W99693  10.839  40.141   2.208
32911W        W99694  40.533  38.523   4.190
32912W        W99695   5.959  25.647  13.562
32913W        W99696  33.362  42.541  12.828
32914W        W99697  37.105  22.127  12.771
32915W        W99698  23.756   7.053   5.109
32916W        W99699  32.678  22.567  14.074
32917W        W99700  28.910  31.194   4.230
32918W        W99701  40.295  10.374  14.987
32919W        W99702  27.493   1.298  11.079
32920W        W99703  26.442  20.114  11.978
32921W        W99704  16.751  16.345  12.643
32922W        W99705  17.459  36.890   4.694
32923W        W99706   8.565  34.167   0.339
32924W        W99707   3.863   0.354   4.547
32925W        W99708  35.883  40.054   0.266
32926W        W99709  15.456  15.668   1.249
32927W        W99710  44.446  26.514  10.206
32928W        W99711   4.754   1.048   0.838
32929W        W99712  36.116  10.315  11.261
32930W        W99713   4.613  37.912   4.646
32931W        W99714  34.596  44.534  11.686
32932W        W99715   7.660  40.555  12.924
32933W        W99716   2.328  14.307   2.396
32934W        W99717  20.477   7.830  13.975
32935W        W99718  43.697  44.661  11.093
32936W        W99719  36.083   2.414   2.818
32937W        W99720  35.498  19.468  14.824
32938W        W99721   5.834  21.022   4.182
32939W        W99722  10.644  38.064   0.778
32940W        W99723   1.864  43.117  11.261
32941W        W99724   0.774  20.027   4.156
32942W        W99725  44.579  34.010   3.440
32943W        W99726  36.651  13.820   3.067
32944W        W99727  25.732   5.567  14.013
32945W        W99728  44.428  23.987   1.878
32946W        W99729  33.885  44.792   4.873
32947W        W99730  15.722  26.699  11.047
32948W        W99731  26.721  41.881   2.861
32949W        W99732   2.241  20.382  10.489
32950W        W99733  15.022  12.092  11.094
32951W        W99734   0.502   9.770   2.436
32952W        W99735  44.373  24.683   1.133
32953W        W99736  41.991  28.072   4.577
32954W        W99737  37.361  15.113   3.703
32955W        W99738  16.922   9.180  12.490
32956W        W99739  17.234  18.649   4.100
32957W        W99740  12.055  22.783  13.594
32958W        W99741  12.353  27.656   0.323
32959W        W99742  25.493  12.409   0.174
32960W        W99743  44.838   8.135  12.369
32961W        W99744   0.771  35.376  10.707
32962W        W99745  13.712   3.317  14.361
32963W        W99746  14.581  42.049  14.557
32964W        W99747   0.327   8.545   0.075
32965W        W99748   5.973   9.888  12.357
32966W        W99749  27.540   5.808  12.125
32967W        W99750  11.730  24.548   4.731
32968W        W99751  37.134  27.972   3.153
32969W        W99752  32.933  39.097  11.125
32970W        W99753  41.404  11.312  12.807
32971W        W99754  27.421  11.189  12.502
32972W        W99755  14.248   5.686  10.457
32973W        W99756  36.848   8.408  10.675
32974W        W99757  14.609   5.301  10.510
32975W        W99758   8.505  12.723  13.632
32976W        W99759   8.334  33.719   0.488
32977W        W99760  29.496   4.460   1.921
32978W        W99761  24.885  15.132  11.153
32979W        W99762  14.690  35.825  14.989
32980W        W99763  17.229   1.465   0.310
32981W        W99764  43.318  39.548   1.971
32982W        W99765  38.993  44.369   5.134
32983W        W99766  39.074  24.264  14.048
32984W        W99767   7.345  30.701   2.351
32985W        W99768   6.166  27.994  10.825
32986W        W99769   4.108   6.241  13.985
32987W        W99770  40.670  33.064  12.528
32988W        W99771  23.493   4.663   3.353
32989W        W99772  36.130   0.250  13.455
32990W        W99773  43.810  32.456  10.956
32991W        W99774   5.927   1.255   1.844
32992W        W99775   2.343   1.441  14.920
32993W        W99776   1.013  17.769  14.782
32994W        W99777   8.277  30.076   2.709
32995W        W99778   5.912  16.199   3.529
32996W        W99779  34.072  43.603  11.484
32997W        W99780   5.208   7.864  14.309
32998W        W99781  41.418  43.134   4.973
32999W        W99782  10.680  11.566   5.006
33000W        W99783  20.690  18.273  11.772
33001W        W99784  20.490  40.041   3.911
33002W        W99785  26.011  14.623  14.370
33003W        W99786  31.339  17.169   2.325
33004W        W99787  25.429  38.588   1.541
33005W        W99788  23.821  22.267   2.354
33006W        W99789  36.617  27.603  11.574
33007W        W99790  40.783   7.169  14.924
33008W        W99791  38.866  29.485   2.916
33009W        W99792  29.657  36.011  14.578
33010W        W99793   9.287  16.303  13.438
33011W        W99794  11.900  39.549  12.130
33012W        W99795  23.964   7.681  12.622
33013W        W99796  33.617  32.490  10.492
33014W        W99797  20.575   3.180   3.182
33015W        W99798  19.484  21.618  10.735
33016W        W99799  23.175  30.595   4.247
33017W        W99800   3.870  28.675   3.153
33018W        W99801  18.748  21.260   4.143
33019W        W99802  12.159  38.421  14.456
33020W        W99803  17.731  35.096  13.984
33021W        W99804  28.713  32.175   4.084
33022W        W99805  40.301  40.571   2.308
33023W        W99806  40.817  28.926   2.690
33024W        W99807  16.694   6.529  10.986
33025W        W99808  23.282  32.588  12.985
33026W        W99809  11.269  17.334   1.752
33027W        W99810  12.365  33.139  14.669
33028W        W99811   1.163   4.219   0.742
33029W        W99812  40.978  20.654   0.149
33030W        W99813  29.548  28.685  12.456
33031W        W99814  41.737  13.882   1.800
33032W        W99815   0.878  31.537   4.872
33033W        W99816   3.942   0.763  12.848
33034W        W99817   0.455  32.930  11.170
33035W        W99818   8.161  26.213  11.872
33036W        W99819  10.224  43.733  13.919
33037W        W99820   0.480  31.045   4.601
33038W        W99821  38.960   7.008   2.407
33039W        W99822  30.817  30.180   0.766
33040W        W99823   2.786   9.694   1.326
33041W        W99824  42.997  25.042  12.948
33042W        W99825   1.901  33.780   3.649
33043W        W99826  24.971  14.333   3.764
33044W        W99827  44.971   3.268  12.807
33045W        W99828   4.615   0.967   1.709
33046W        W99829  44.855   6.649   4.288
33047W        W99830  16.883   0.530   0.349
33048W        W99831  43.768  25.709   3.144
33049W        W99832  27.112  26.099  10.296
33050W        W99833  30.521  33.059   4.083
33051W        W99834  15.036   3.283   3.318
33052W        W99835  31.123  11.714  12.603
33053W        W99836  44.497   9.464   3.206
33054W        W99837  23.729  23.168  12.376
33055W        W99838   6.270  15.245  12.037
33056W        W99839  19.639  36.871   2.633
33057W        W99840  30.823  21.045   1.715
33058W        W99841  12.778   0.126   0.821
33059W        W99842  16.267  40.785   3.797
33060W        W99843  12.636  27.856  11.915
33061W        W99844  41.427  20.033  14.540
33062W        W99845  31.328   9.879   0.438
33063W        W99846   8.504   5.846  12.520
33064W        W99847  38.285  41.287   2.915
33065W        W99848  36.722   5.087  13.353
33066W        W99849  44.263  18.347   1.403
33067W        W99850   9.260  35.308  14.760
33068W        W99851  19.845  27.023  13.462
33069W        W99852  36.372  17.843  10.607
33070W        W99853  42.838  40.626   5.050
33071W        W99854  35.047  34.824  13.996
33072W        W99855  19.826   8.452   0.876
33073W        W99856   1.018  14.744   4.145
33074W        W99857  10.869  38.460   4.236
33075W        W99858   6.193  23.168  13.765
33076W        W99859  35.855  16.222  12.545
33077W        W99860   1.518  20.477  14.496
33078W        W99861   7.802  19.176  14.645
33079W        W99862  35.913  17.801   2.004
33080W        W99863   8.788  13.163   1.093
33081W        W99864  26.737  40.785  12.064
33082W        W99865  15.273  17.247   3.854
33083W        W99866  11.657   0.168  14.267
33084W        W99867  26.650  22.961   4.198
33085W        W99868   9.325  16.527   2.645
33086W        W99869  13.533  38.365  13.551
33087W        W99870  14.382  20.784  14.658
33088W        W99871  26.556  20.109   0.387
33089W        W99872  14.693  17.892   5.115
33090W        W99873  32.458   3.800  13.494
33091W        W99874   0.874  12.694  10.555
33092W        W99875  42.727  44.348   0.756
33093W        W99876  17.620   8.276   3.376
33094W        W99877  38.318  22.471   1.936
33095W        W99878  37.150  17.136   4.106
33096W        W99879  27.530  30.415   0.382
33097W        W99880  31.952  44.109  13.349
33098W        W99881  41.843  41.469   5.090
33099W        W99882  42.562  34.740  11.498
33100W        W99883  38.174  28.089   1.624
33101W        W99884  27.611  38.416  10.761
33102W        W99885  31.074  33.339  11.610
33103W        W99886   7.448  30.978   4.509
33104W        W99887  11.322   4.457   2.182
33105W        W99888   5.289  44.329  10.209
33106W        W99889  17.780   0.919  12.580
33107W        W99890  35.178  36.355  13.944
33108W        W99891  43.943   0.431  12.867
33109W        W99892  29.356   6.389  11.079
33110W        W99893  32.080   7.746   2.295
33111W        W99894  12.550  23.442  12.086
33112W        W99895  28.156  43.193   1.763
33113W        W99896  10.957  31.394   2.269
33114W        W99897  14.074  31.408  13.882
33115W        W99898   9.260   2.857  10.668
33116W        W99899  34.614  23.035  10.970
33117W        W99900  37.208   3.748   0.699
33118W        W99901   3.341  10.983  11.350
33119W        W99902  34.994  17.946   0.820
33120W        W99903  25.794  13.880   4.102
33121W        W99904  37.092  30.125   3.568
33122W        W99905   7.463  18.754  11.231
33123W        W99906   8.625  23.978   4.626
33124W        W99907   6.432  26.664  13.885
33125W        W99908  32.422   1.105  13.866
33126W        W99909  16.806  29.079  10.431
33127W        W99910  14.048  31.494  14.983
33128W        W99911  39.406  33.672  14.057
33129W        W99912   4.648   4.993   2.124
33130W        W99913  26.527  26.097  11.993
33131W        W99914   3.395  35.459  14.843
33132W        W99915  34.164  32.516  10.479
33133W        W99916  34.909  32.350  13.805
33134W        W99917  27.401  42.425   0.026
33135W        W99918  20.112  27.952   4.422
33136W        W99919  27.079  40.182  14.294
33137W        W99920  31.632  26.958   3.797
33138W        W99921  24.152   7.740   5.317
33139W        W99922  10.263   5.507   0.137
33140W        W99923   2.803  28.089  10.556
33141W        W99924  44.905   1.297  13.130
33142W        W99925   7.107  40.599   1.165
33143W        W99926  36.619   6.472  10.834
33144W        W99927  12.396   4.199  14.276
33145W        W99928  32.611   4.981   0.315
33146W        W99929  43.046  19.726  11.693
33147W        W99930  12.815   1.470   3.185
33148W        W99931  33.020  13.984   0.751
33149W        W99932  30.566  34.279  10.617
33150W        W99933  42.507   1.544  11.679
33151W        W99934  31.465   3.916  13.409
33152W        W99935  18.156   1.117  11.780
33153W        W99936  35.939  42.900  13.972
33154W        W99937  37.942  20.242   1.819
33155W        W99938  39.571  36.384   4.123
33156W        W99939  17.067  12.269  12.005
33157W        W99940   5.893   6.630   4.585
33158W        W99941  15.296  16.071  12.402
33159W        W99942  17.331  22.046   0.761
33160W        W99943  26.677  39.792  11.261
33161W        W99944  44.930  38.628   0.125
33162W        W99945  17.131  31.494   1.972
33163W        W99946   1.035  41.785  13.144
33164W        W99947  18.137  32.861  10.863
33165W        W99948   5.347  25.369  14.975
33166W        W99949  39.840   1.502  14.453
33167W        W99950  22.548  36.881  11.313
33168W        W99951  30.897  18.102  11.109
33169W        W99952   1.505  30.909   4.653
33170W        W99953  29.900  42.262   4.635
33171W        W99954  41.252   6.413   4.061
33172W        W99955  33.602  34.436  12.840
33173W        W99956  14.423  37.060  14.798
33174W        W99957  10.151  15.866   3.193
33175W        W99958   4.294  43.088   2.498
33176W        W99959   1.243  17.034  13.966
33177W        W99960  33.188  14.795  10.454
33178W        W99961   2.277  24.894  13.869
33179W        W99962  20.490  33.665   0.697
33180W        W99963  23.969  10.521  12.538
33181W        W99964   1.539  32.936   4.678
33182W        W99965   0.226   2.335  14.339
33183W        W99966   2.790  20.602   2.388
33184W        W99967   8.138   7.736   5.018
33185W        W99968  34.607  16.333   2.195
33186W        W99969  38.530  32.887   0.510
33187W        W99970  25.005  35.908   4.702
33188W        W99971  35.164  41.741  11.660
33189W        W99972   3.221   6.156   0.232
33190W        W99973   8.691  39.116  12.472
33191W        W99974  11.202   3.570  14.589
33192W        W99975  10.625  31.997  14.506
33193W        W99976  32.697  17.552   3.219
33194W        W99977   4.236  17.810   3.070
33195W        W99978  20.394   5.746  12.574
33196W        W99979  18.773  19.051  13.776
33197W        W99980  18.718  16.024   4.601
33198W        W99981  13.826  14.291  11.642
33199W        W99982  12.273   9.883   0.216
33200W        W99983  38.415  36.180   2.676
33201W        W99984  41.943  24.004  12.665
33202W        W99985  27.976  11.038   4.679
33203W        W99986  17.547  44.004   3.679
33204W        W99987  37.183   3.251   0.864
33205W        W99988   5.401  43.833  12.058
33206W        W99989   0.053  29.405  12.341
33207W        W99990   7.645  42.278  13.069
33208W        W99991  33.357  23.360  11.125
33209W        W99992  25.985  20.855  12.530
33210W        W99993  10.222   1.420   4.662
33211W        W99994  24.660  43.319  10.665
33212W        W99995   5.147  27.057  11.568
33213W        W99996  36.300  28.464   3.320
33214W        W99997   7.044  37.346  12.945
33215W        W99998   9.319   0.744   0.381
33216W        W99999  39.417  31.634  14.950
33217W        W    0  19.578  23.888   1.366
33218W        W    1  38.825   6.066  11.919
33219W        W    2  42.352  18.182   1.368
33220W        W    3  33.308  11.820   0.825
33221W        W    4  43.354  14.743   9.993
33222W        W    5  35.759  21.786   4.134
33223W        W    6  30.326  41.963  12.075
33224W        W    7  31.915  21.067   0.845
33225W        W    8  37.568   3.337   0.525
33226W        W    9   0.489   5.775  13.905
33227W        W   10  20.682  22.732  14.252
33228W        W   11   7.320  28.249   4.697
33229W        W   12  32.598  15.253   1.973
33230W        W   13  35.188  22.335  12.385
33231W        W   14  13.730  13.115   0.343
33232W        W   15  11.100  11.299   3.647
33233W        W   16  33.496  39.997  11.122
33234W        W   17   2.642  33.891  11.151
33235W        W   18  30.106  29.097   2.740
33236W        W   19  30.634   2.838   3.589
33237W        W   20  19.902   2.250   4.800
33238W        W   21  14.993  36.025   4.178
33239W        W   22   7.374  39.098  10.286
33240W        W   23  39.939  35.718  11.932
33241W        W   24  21.694  33.412  13.157
33242W        W   25   8.296  35.279  14.159
33243W        W   26  11.950   8.410  14.399
33244W        W   27  14.594   7.643   1.645
33245W        W   28  39.431   2.236   4.139
33246W        W   29  14.169   4.591   4.834
33247W        W   30  43.493   9.899   1.745
33248W        W   31   0.913  33.475   0.724
33249W        W   32   3.500   1.781   2.876
33250W        W   33   5.244  23.715   4.693
33251W        W   34  23.307  11.303  10.597
33252W        W   35  24.127   6.804   1.265
33253W        W   36  39.722  24.231  13.526
33254W        W   37   5.631  10.732  14.555
33255W        W   38  35.452   2.430  12.999
33256W        W   39  31.547  12.472  13.268
33257W        W   40   7.281  26.057  12.832
33258W        W   41  43.091   0.961   4.235
33259W        W   42  24.850   3.135  12.513
33260W        W   43   3.258  36.555  14.350
33261W        W   44  29.819   8.475  13.319
33262W        W   45  28.882   8.648  12.499
33263W        W   46  37.409   5.725  13.031
33264W        W   47  37.508  34.374   3.898
33265W        W   48   7.194   5.276   2.280
33266W        W   49  11.301   6.117   2.810
33267W        W   50  32.865   9.739   4.661
33268W        W   51  19.542  33.948   3.338
33269W        W   52  13.251  13.267   3.099
33270W        W   53  11.629  23.241   1.542
33271W        W   54  38.702  17.180   3.139
33272W        W   55   2.279  15.530  13.888
33273W        W   56   7.395  19.489   2.350
33274W        W   57  24.804  37.577   2.809
33275W        W   58  31.862  31.648   1.771
33276W        W   59   4.466  24.710   0.263
33277W        W   60  29.138  22.481   0.783
33278W        W   61  20.213  44.799  12.455
33279W        W   62  12.243  36.955   3.631
33280W        W   63  43.815  44.379  14.662
33281W        W   64  39.088  33.609   3.222
33282W        W   65  44.792  25.636  12.722
33283W        W   66  17.123  15.180  14.777
33284W        W   67   3.776  12.379   0.407
33285W        W   68  36.818  15.318  12.113
33286W        W   69  17.331   5.234   2.764
33287W        W   70  13.582  40.077  12.938
33288W        W   71  19.680  25.092  12.339
33289W        W   72   0.481  43.206   4.961
33290W        W   73  19.297   9.756   1.238
33291W        W   74   5.896  41.437  13.951
33292W        W   75  33.066  16.581   1.125
33293W        W   76  11.917   3.440   0.891
33294W        W   77   2.379  35.951  14.371
33295W        W   78  42.630  15.319  14.431
33296W        W   79  16.927  15.917   9.800
33297W        W   80  39.549   5.722   0.005
33298W        W   81  16.719  19.067  11.586
33299W        W   82  10.394  24.915  11.058
33300W        W   83  14.049  29.872  12.155
33301W        W   84  17.300  10.726   4.597
33302W        W   85  27.964  32.071  12.151
33303W        W   86  27.213  10.373   3.825
33304W        W   87  35.489  17.057  10.910
33305W        W   88  37.478  43.846   2.840
33306W        W   89  21.113  41.853  12.010
33307W        W   90  18.132  42.346   4.177
33308W        W   91   9.133  22.925   0.438
33309W        W   92  43.902  31.569   1.392
33310W        W   93  24.298   0.871   2.701
33311W        W   94  44.855  18.549  12.973
33312W        W   95  36.896  12.622   4.754
33313W        W   96  31.917  38.269  14.005
33314W        W   97  22.457  20.138   3.630
33315W        W   98  27.100  33.631  12.631
33316W        W   99  30.854  13.206  14.196
33317W        W  100  10.703   3.540   3.851
33318W        W  101  41.048   5.649  12.489
33319W        W  102  29.936  19.288   1.453
33320W        W  103   5.870  34.563   1.624
33321W        W  104  21.354  16.844   4.737
33322W        W  105  10.264  42.851   0.667
33323W        W  106   6.402  40.001  11.153
33324W        W  107  29.344  34.638  12.926
33325W        W  108   6.182  37.076  12.158
33326W        W  109   3.961  31.980   0.811
33327W        W  110  14.306   9.297   4.550
33328W        W  111  30.496  30.008   3.182
33329W        W  112  13.624  25.068  10.682
33330W        W  113  28.161  18.061  13.917
33331W        W  114  36.177   2.483  13.799
33332W        W  115  30.378  43.759  13.508
33333W        W  116  15.849   0.812  14.541
33334W        W  117  36.515  37.103  10.775
33335W        W  118  30.741   2.880  12.440
33336W        W  119  15.037   8.816  10.900
33337W        W  120  27.794   4.874   5.178
33338W        W  121  41.476  24.854  14.427
33339W        W  122  31.598  14.251  13.477
33340W        W  123  32.164  12.620   0.216
33341W        W  124  11.132  31.146  12.978
33342W        W  125  12.589   4.351   4.653
33343W        W  126   9.268  24.978  12.862
33344W        W  127  21.229   4.319   3.123
33345W        W  128  22.147  42.440   0.658
33346W        W  129  11.305  10.252   2.210
33347W        W  130  18.522  12.349  10.233
33348W        W  131   5.505  32.459   0.309
33349W        W  132   6.819  31.218   1.350
33350W        W  133  27.593  20.299   2.388
33351W        W  134  29.568  29.463   4.219
33352W        W  135   3.436  23.638   0.832
33353W        W  136   4.430  28.458  14.694
33354W        W  137  15.147   2.354   2.174
33355W        W  138   0.233  17.558  13.500
33356W        W  139  21.706  20.674   1.439
33357W        W  140  25.238  37.274   2.864
33358W        W  141  21.187  43.553   0.802
33359W        W  142  37.035  11.141  10.907
33360W        W  143  23.798  10.105  12.832
33361W        W  144   7.395  15.256  12.812
33362W        W  145  23.591   7.738   2.422
33363W        W  146  28.516  39.921  13.503
33364W        W  147  33.072  21.673   4.492
33365W        W  148  39.906  39.219  10.420
33366W        W  149  15.282   1.733  13.865
33367W        W  150  41.917  29.209  12.472
33368W        W  151  44.390  34.458   3.585
33369W        W  152   9.882  35.421  14.439
33370W        W  153  42.460   1.370  13.409
33371W        W  154  37.473   3.127   2.318
33372W        W  155   1.707   3.386  11.578
33373W        W  156  22.171  26.765  10.711
33374W        W  157  21.573  19.271  14.540
33375W        W  158  43.531  17.500  12.437
33376W        W  159  13.716  33.734   0.964
33377W        W  160  38.202  17.833   1.570
33378W        W  161  17.011  34.757   3.238
33379W        W  162  30.431  18.339  11.159
33380W        W  163  11.836  19.603   3.736
33381W        W  164  28.090  44.288  10.149
33382W        W  165  15.267  41.802  14.807
33383W        W  166   9.933  31.200  13.962
33384W        W  167  35.387  13.396   0.374
33385W        W  168  33.656  29.849  11.162
33386W        W  169   5.290  39.816  12.105
33387W        W  170   4.911  36.423  11.819
33388W        W  171   2.324  15.718   3.401
33389W        W  172  38.919  39.954   2.284
33390W        W  173  11.785   8.361   2.202
33391W        W  174  36.950  17.047  12.404
33392W        W  175  24.485  37.073   1.763
33393W        W  176   9.235   8.921   1.896
33394W        W  177  33.956  39.821  11.638
33395W        W  178  44.863  31.427   3.698
33396W        W  179  18.743  27.031  10.580
33397W        W  180  41.348  35.030   1.331
33398W        W  181   0.961  10.054  11.725
33399W        W  182  17.000  18.718  14.307
33400W        W  183  40.045  37.538  14.519
33401W        W  184  39.441  39.388  10.558
33402W        W  185  28.363  32.315  11.174
33403W        W  186  31.994  42.476   0.106
33404W        W  187  19.670   6.375  13.354
33405W        W  188  39.477  38.280  11.087
33406W        W  189   2.665   9.351  12.289
33407W        W  190  15.405  10.628  14.992
33408W        W  191  29.125   2.480  13.673
33409W        W  192   0.646   4.046  10.394
33410W        W  193  25.618   2.169   3.210
33411W        W  194   7.344  15.901  13.655
33412W        W  195  28.950  25.290  14.470
33413W        W  196  38.000  33.634   3.387
33414W        W  197  24.246  16.138  13.408
33415W        W  198  36.401   8.718   0.767
33416W        W  199   8.275  38.488  13.549
33417W        W  200  12.155  28.616   2.746
33418W        W  201   7.604  24.604  11.475
33419W        W  202  44.054  42.373  11.064
33420W        W  203  18.218  12.526  13.404
33421W        W  204  14.576  28.771  13.792
33422W        W  205  39.308  35.303   3.541
33423W        W  206   7.301  15.255  14.362
33424W        W  207  32.903  23.193   1.010
33425W        W  208  36.137   1.008   1.651
33426W        W  209  18.721   3.726   3.172
33427W        W  210  40.603  26.959   1.116
33428W        W  211  29.107  30.905  13.093
33429W        W  212   0.733  37.416   4.984
33430W        W  213   7.800  41.153   1.695
33431W        W  214  36.349  24.076  11.180
33432W        W  215  28.039  17.829  10.464
33433W        W  216  26.603   8.929   3.141
33434W        W  217  42.747  39.524  13.009
33435W        W  218  29.383   0.249  14.322
33436W        W  219  38.372  13.329   4.709
33437W        W  220  23.690  15.957   2.797
33438W        W  221  12.163  18.592  13.568
33439W        W  222  43.175  15.561   4.225
33440W        W  223  15.862   6.482  14.851
33441W        W  224  36.905   9.860   1.280
33442W        W  225   8.828  39.032  13.401
33443W        W  226  20.470  31.649   2.083
33444W        W  227  38.486  22.617   2.919
33445W        W  228  22.545  22.887   1.504
33446W        W  229  36.036  28.726  14.332
33447W        W  230  28.762  13.040  10.987
33448W        W  231  14.218  34.484   3.235
33449W        W  232  11.372  14.887  11.509
33450W        W  233  29.753  18.203   2.800
33451W        W  234   9.757  31.403   2.152
33452W        W  235  19.592  29.734   0.543
33453W        W  236  12.581  19.233   3.208
33454W        W  237  17.716  29.492  11.389
33455W        W  238   7.633  42.506   2.914
33456W        W  239   9.004  13.207   0.621
33457W        W  240  40.572   4.509  14.953
33458W        W  241   7.719  26.514   2.870
33459W        W  242   8.399  15.517  13.796
33460W        W  243  29.358  38.388   3.768
33461W        W  244  36.988  43.308   1.374
33462W        W  245  32.996  27.424  14.308
33463W        W  246  44.788  27.920   2.358
33464W        W  247  15.707   2.462  12.955
33465W        W  248  17.659  19.811   3.507
33466W        W  249  20.691  31.854   1.657
33467W        W  250  24.124   8.778  14.233
33468W        W  251   6.971  37.780   5.031
33469W        W  252  30.485  37.000   0.195
33470W        W  253   8.944   1.023   0.135
33471W        W  254  29.563  32.548   4.154
33472W        W  255   2.755  21.220  10.555
33473W        W  256  44.000  31.594  11.467
33474W        W  257   4.287  31.649  10.704
33475W        W  258  42.494  20.277  13.521
33476W        W  259  32.085   1.878   4.579
33477W        W  260  40.294  37.312  10.692
33478W        W  261  24.698  25.275  14.442
33479W        W  262   1.985  20.429  12.962
33480W        W  263  39.523  33.173   2.743
33481W        W  264  42.122  30.051   3.783
33482W        W  265  11.573  13.370   5.023
33483W        W  266  39.790   9.403  10.272
33484W        W  267   1.436  17.512  14.947
33485W        W  268  17.769   1.044  13.496
33486W        W  269   8.842  34.859  12.989
33487W        W  270  18.022  36.038  12.436
33488W        W  271  24.142  16.500  13.021
33489W        W  272   0.347  42.612  11.661
33490W        W  273  30.457  40.905  14.945
33491W        W  274  15.799  31.484   4.440
33492W        W  275  26.483  23.325  10.695
33493W        W  276  39.944  21.523   3.578
33494W        W  277  34.845  35.856   3.558
33495W        W  278   3.730  35.060  12.405
33496W        W  279  25.111  23.065  11.355
33497W        W  280  35.599  17.094  11.426
33498W        W  281  11.875  37.036   4.019
33499W        W  282  22.672  38.812  11.334
33500W        W  283  17.360  31.844  13.027
33501W        W  284  38.117   7.935  12.535
33502W        W  285  25.630  28.943  14.487
33503W        W  286   7.528  28.163  10.220
33504W        W  287  31.468  17.074   3.286
33505W        W  288  19.939  23.643  10.798
33506W        W  289  42.007  42.752  10.212
33507W        W  290  26.204  36.360  12.240
33508W        W  291  30.199  19.422   3.646
33509W        W  292  37.924  26.485  10.145
33510W        W  293   6.186  25.038   2.669
33511W        W  294  40.506   1.700  10.352
33512W        W  295  42.976  16.811   0.790
33513W        W  296  26.457  29.453   1.829
33514W        W  297  12.509  25.517  13.142
33515W        W  298  15.803   5.546  11.110
33516W        W  299  20.742  41.451   1.419
33517W        W  300  29.506  19.730   2.968
33518W        W  301   8.470  41.422  13.493
33519W        W  302  18.036  18.129   3.113
33520W        W  303  13.982   5.263   2.672
33521W        W  304  17.176  12.608   3.105
33522W        W  305   7.724  44.985  11.219
33523W        W  306   7.826  42.370   0.757
33524W        W  307  36.705  15.368   0.319
33525W        W  308  26.479  21.695   3.375
33526W        W  309   5.499   6.313   4.492
33527W        W  310  10.394   2.322   3.179
33528W        W  311  43.072   6.166  14.758
33529W        W  312  19.571   5.016   0.801
33530W        W  313  18.617  38.300   4.546
33531W        W  314  29.479  44.660   1.313
33532W        W  315  30.649  42.358  11.999
33533W        W  316  14.627  42.624  10.382
33534W        W  317  22.364  15.134   2.785
33535W        W  318  10.978  33.122   1.697
33536W        W  319  32.036  21.616  12.489
33537W        W  320   4.237  31.593   1.925
33538W        W  321  18.300  27.448  14.017
33539W        W  322   6.772  12.668   2.152
33540W        W  323  41.777   2.322   2.643
33541W        W  324  19.337  33.865  11.948
33542W        W  325  27.612  10.896   3.384
33543W        W  326  14.224  25.901  11.607
33544W        W  327  12.447  10.253   2.292
33545W        W  328  39.550  36.048  13.320
33546W        W  329  31.984  20.242  11.430
33547W        W  330   7.711  22.492   3.437
33548W        W  331   7.943  44.513  12.456
33549W        W  332  31.681  22.104   1.717
33550W        W  333  33.028  17.049  14.827
33551W        W  334  33.346   1.716  10.807
33552W        W  335  13.887  18.068  14.834
33553W        W  336  16.538  43.478   1.056
33554W        W  337  30.608  17.842  11.984
33555W        W  338  40.569  26.663  13.127
33556W        W  339   0.945   0.376  12.888
33557W        W  340  24.377  42.902  10.564
33558W        W  341  19.261  10.294   4.765
33559W        W  342  10.049  38.968   2.753
33560W        W  343   6.105  33.432  12.849
33561W        W  344  22.463  12.895  12.869
33562W        W  345  14.917   3.796  13.825
33563W        W  346  30.984  37.421  10.869
33564W        W  347  13.306  13.153  13.914
33565W        W  348  36.357  20.041   2.111
33566W        W  349  44.743  14.406  12.320
33567W        W  350   2.683   9.396  11.081
33568W        W  351   4.731  37.582  10.620
33569W        W  352  39.858  24.357   4.266
33570W        W  353   2.762  16.290  11.446
33571W        W  354   8.711   1.249   3.539
33572W        W  355  14.605  43.313   4.691
33573W        W  356  23.538  38.250   1.720
33574W        W  357   1.440  44.692  11.921
33575W        W  358  34.957  39.462   4.159
33576W        W  359  41.562  29.974  13.356
33577W        W  360  43.291  44.976  10.968
33578W        W  361  42.212  29.087   1.702
33579W        W  362  16.960   0.928   2.233
33580W        W  363  38.823  29.178  12.884
33581W        W  364  23.155   2.804  13.063
33582W        W  365  20.223   1.373   4.584
33583W        W  366  43.487  38.827  10.716
33584W        W  367  10.052   1.719   4.243
33585W        W  368  29.089  32.100   2.392
33586W        W  369  39.488  42.885  14.667
33587W        W  370  34.152  44.370  11.273
33588W        W  371  22.175  33.934   3.975
33589W        W  372   7.100  36.576  12.973
33590W        W  373   0.496  44.192   2.329
33591W        W  374  26.666  20.110   2.604
33592W        W  375  30.595  41.342  12.835
33593W        W  376  18.728  42.218  13.286
33594W        W  377  10.866  31.994  10.746
33595W        W  378   2.169  16.990  14.419
33596W        W  379   2.110  23.991  12.216
33597W        W  380  28.591  24.557   1.759
33598W        W  381   5.271  25.504  10.789
33599W        W  382   9.800  14.353  13.988
33600W        W  383  28.967  20.285  13.429
33601W        W  384   5.315  25.247  12.665
33602W        W  385   3.494  33.513  13.965
33603W        W  386  14.033  37.389   2.366
33604W        W  387  36.619  15.832   4.612
33605W        W  388  16.458  22.222   2.401
33606W        W  389  36.358  42.598  13.888
33607W        W  390  39.554  26.461  14.028
33608W        W  391   3.663  42.486  13.825
33609W        W  392  38.004   7.426  12.410
33610W        W  393  27.743  40.510   3.543
33611W        W  394  29.393   1.740  11.581
33612W        W  395  38.790  33.396  12.791
33613W        W  396  27.575  44.925   0.439
33614W        W  397  39.020  44.967  10.734
33615W        W  398   6.247   2.174  12.410
33616W        W  399   2.412  14.274   1.418
33617W        W  400  44.450  35.439   0.656
33618W        W  401  35.046  27.580   2.901
33619W        W  402  33.597  25.329   3.147
33620W        W  403  24.247  19.138   4.350
33621W        W  404  36.058  18.686  14.820
33622W        W  405   9.278   0.270   2.696
33623W        W  406  38.924  16.769   1.211
33624W        W  407  13.832  16.721  10.714
33625W        W  408   0.173   9.043   0.179
33626W        W  409  43.596   2.515  14.511
33627W        W  410  15.123  29.432  11.678
33628W        W  411   7.134   2.672  13.141
33629W        W  412  44.912  12.991  12.467
33630W        W  413  18.285  14.186  10.737
33631W        W  414  37.588  28.182   0.418
33632W        W  415  14.279  13.843   3.647
33633W        W  416  13.583  41.982  12.842
33634W        W  417   2.307  35.157   1.242
33635W        W  418  37.814  43.259   1.790
33636W        W  419   9.675   7.144  12.932
33637W        W  420  33.091  16.064  11.987
33638W        W  421  25.548  38.572  10.246
33639W        W  422  44.948  28.148   0.870
33640W        W  423  20.333  22.074   4.603
33641W        W  424  33.424  40.993  12.174
33642W        W  425  22.946  30.102   0.747
33643W        W  426  38.286  18.862   1.529
33644W        W  427  33.777  11.204  10.185
33645W        W  428  20.526   8.746   1.889
33646W        W  429  43.365  33.963   2.728
33647W        W  430  30.649  39.125  13.507
33648W        W  431  44.837   9.587  12.410
33649W        W  432  29.223  18.012  13.944
33650W        W  433   5.318  38.408   0.502
33651W        W  434  13.596   6.684   0.876
33652W        W  435  40.811   9.540   0.898
33653W        W  436   0.310  35.100  12.868
33654W        W  437  31.611   8.132   0.456
33655W        W  438  39.421  38.041  11.753
33656W        W  439  41.295  23.561   0.818
33657W        W  440  34.585  33.864  12.031
33658W        W  441  21.155  20.674  14.276
33659W        W  442  43.348  16.521  12.353
33660W        W  443  43.316  15.647   2.345
33661W        W  444   9.592  26.477  13.049
33662W        W  445  39.009   3.681   3.645
33663W        W  446   9.824  42.753  11.600
33664W        W  447  23.079   9.305  11.602
33665W        W  448  34.983  34.452  10.710
33666W        W  449  44.855   8.190  11.856
33667W        W  450  28.712  20.210  14.339
33668W        W  451   8.228  39.057  10.704
33669W        W  452   5.685  38.619  11.523
33670W        W  453  19.316  10.779   2.630
33671W        W  454   9.607  27.053   0.619
33672W        W  455  15.130   2.584  10.906
33673W        W  456   7.069  32.294  13.998
33674W        W  457  34.098  37.462  12.777
33675W        W  458   8.769   5.181  13.583
33676W        W  459  11.677   1.888  14.234
33677W        W  460  20.933  40.650   1.661
33678W        W  461  15.530   0.597   4.540
33679W        W  462   5.849   4.336  14.317
33680W        W  463  26.003  17.190  14.231
33681W        W  464  11.435  40.424   0.997
33682W        W  465  28.608  24.656  14.805
33683W        W  466  41.775   5.329  14.070
33684W        W  467   1.840  25.108   2.315
33685W        W  468   4.822  43.817  14.516
33686W        W  469  16.720  32.130   4.636
33687W        W  470   6.751   0.419  14.306
33688W        W  471  21.208   5.813  13.639
33689W        W  472  36.815   4.305   1.376
33690W        W  473  18.609  22.648  14.498
33691W        W  474  16.350   0.983  14.527
33692W        W  475  25.968  23.683  14.545
33693W        W  476  37.617  39.986  12.398
33694W        W  477  37.536   7.441   5.564
33695W        W  478   8.090  38.372   4.527
33696W        W  479  36.626  26.042   4.688
33697W        W  480   6.142   7.928   3.443
33698W        W  481  30.660  30.015   2.154
33699W        W  482  40.359  37.573  11.167
33700W        W  483  24.764  15.906  11.019
33701W        W  484   0.261  11.151  14.026
33702W        W  485  24.895  12.187   2.811
33703W        W  486  41.034  34.082  11.222
33704W        W  487  17.342  40.108   2.391
33705W        W  488  41.828  31.736   5.068
33706W        W  489  33.556  16.264   0.746
33707W        W  490  29.010  18.290  14.338
33708W        W  491  23.122  34.413  11.868
33709W        W  492  41.625  16.039   2.615
33710W        W  493  42.846   3.851  14.454
33711W        W  494  24.512  16.794   2.635
33712W        W  495   4.900  21.950   0.758
33713W        W  496  29.636  32.436  13.384
33714W        W  497  40.194  15.584  12.562
33715W        W  498   1.021  12.040   1.935
33716W        W  499  13.301  17.789   0.929
33717W        W  500  37.450  26.039  12.555
33718W        W  501  14.858  25.190   0.517
33719W        W  502   7.360   2.898  13.547
33720W        W  503  44.564  25.539   4.392
33721W        W  504   2.382  12.936  12.206
33722W        W  505   8.911  43.283  13.856
33723W        W  506  32.502  14.860  12.917
33724W        W  507  19.300  44.414  14.682
33725W        W  508  13.186  43.221   1.787
33726W        W  509  27.243  42.049   4.187
33727W        W  510  42.304   8.113   1.443
33728W        W  511  42.411  39.547  13.651
33729W        W  512  28.111   9.626   1.501
33730W        W  513  24.940  39.464  10.620
33731W        W  514   3.568  14.299   4.988
33732W        W  515  34.365   3.203   0.784
33733W        W  516  13.947  42.900   3.821
33734W        W  517  19.678  26.594   9.823
33735W        W  518   2.888  40.092   4.855
33736W        W  519  39.898  29.383   1.694
33737W        W  520   8.130  42.543   1.543
33738W        W  521  35.983  30.492  12.127
33739W        W  522  23.296   5.367   2.858
33740W        W  523  14.786  19.360  13.492
33741W        W  524  14.313   4.991   4.524
33742W        W  525  12.667  14.314  11.000
33743W        W  526  42.836   4.929   3.754
33744W        W  527  27.513  19.080   3.055
33745W        W  528  36.494  29.144   0.236
33746W        W  529  21.766  17.297  12.966
33747W        W  530   2.170   2.221   2.457
33748W        W  531  28.632  28.587   2.727
33749W        W  532  33.437  42.856   1.724
33750W        W  533  33.093  21.526  12.513
33751W        W  534  32.502  26.025  10.756
33752W        W  535  38.373  42.497   0.795
33753W        W  536   2.459  26.692   4.220
33754W        W  537   9.670   2.292  13.306
33755W        W  538  16.790  32.447  12.851
33756W        W  539  30.559  18.461  13.987
33757W        W  540  13.216  42.520   1.208
33758W        W  541   6.673  31.631  11.126
33759W        W  542  30.709  26.742   1.845
33760W        W  543  36.402  29.180  10.460
33761W        W  544  29.158  36.596   4.556
33762W        W  545  36.238  13.374  12.575
33763W        W  546  11.392  37.878   1.676
33764W        W  547  39.434  27.193  12.948
33765W        W  548  13.244  43.038   1.297
33766W        W  549  32.056  30.530   1.921
33767W        W  550  27.260  24.418  11.485
33768W        W  551  29.562   1.912  13.791
33769W        W  552   4.916  40.994  13.444
33770W        W  553  21.761  37.000   0.457
33771W        W  554  15.961  18.411  11.613
33772W        W  555  41.166  29.425   1.511
33773W        W  556   6.867  20.287  14.776
33774W        W  557  13.818   1.275   2.259
33775W        W  558   5.256  40.569   4.985
33776W        W  559  18.682  20.622   2.907
33777W        W  560   0.633  25.817  11.837
33778W        W  561   5.336  11.319  11.489
33779W        W  562  44.789  36.318  13.221
33780W        W  563  24.058  25.431  14.332
33781W        W  564  39.450   9.694   2.442
33782W        W  565  43.298  12.455  10.333
33783W        W  566  29.760  28.690  14.760
33784W        W  567  32.479  25.476  11.539
33785W        W  568   2.304  35.943   3.514
33786W        W  569  29.576  19.752  12.522
33787W        W  570  33.622  27.987   0.877
33788W        W  571   2.411  24.469   2.624
33789W        W  572  33.033  12.141   4.667
33790W        W  573   2.955  44.733   0.800
33791W        W  574  32.055   2.768  13.112
33792W        W  575   5.959   6.503   0.764
33793W        W  576   6.840   9.689   4.135
33794W        W  577  40.424   5.620   2.255
33795W        W  578  27.602  27.728   3.841
33796W        W  579  28.904  15.773   4.388
33797W        W  580  35.051   2.803  11.904
33798W        W  581  15.341  16.460   2.738
33799W        W  582  29.866  42.321  12.500
33800W        W  583  13.989   9.477  13.120
33801W        W  584  30.054  20.503  14.078
33802W        W  585  19.170   1.905   1.388
33803W        W  586  38.242   4.948  13.488
33804W        W  587  43.202  19.650  12.606
33805W        W  588   7.778  29.115   4.838
33806W        W  589   3.157  40.533  13.786
33807W        W  590  32.016  12.625  13.829
33808W        W  591  34.038  26.126  12.118
33809W        W  592  31.417   7.812   0.073
33810W        W  593  43.730  40.163   4.368
33811W        W  594  37.983  41.539   3.655
33812W        W  595  17.659   9.663  14.728
33813W        W  596  26.274  16.573   1.275
33814W        W  597  33.520  37.523   0.528
33815W        W  598   1.984  16.942  10.717
33816W        W  599  12.384  19.586  11.250
33817W        W  600  39.696  11.073   0.854
33818W        W  601  26.474  39.298   5.099
33819W        W  602  30.378  13.780  14.690
33820W        W  603  26.509  18.298  12.020
33821W        W  604  24.478   4.915  13.995
33822W        W  605  11.389  22.692  13.908
33823W        W  606  36.244  34.538  12.961
33824W        W  607  38.475  13.810   3.606
33825W        W  608  30.315  10.962   2.216
33826W        W  609   9.132   0.041  11.861
33827W        W  610  14.179  25.079   2.392
33828W        W  611   0.484   8.330  14.092
33829W        W  612  19.547  10.163  13.138
33830W        W  613  10.353  11.742   2.400
33831W        W  614  26.679   0.652   3.830
33832W        W  615  41.778   1.205   2.262
33833W        W  616  27.241  25.979  10.780
33834W        W  617  44.915  44.437  13.021
33835W        W  618  40.852  15.014  11.145
33836W        W  619  18.768   8.658  14.453
33837W        W  620   0.289  35.874  14.259
33838W        W  621  35.953  10.919   0.896
33839W        W  622  41.295  32.513  14.879
33840W        W  623  12.096  41.777  14.997
33841W        W  624  43.399  41.790  12.890
33842W        W  625  20.037  39.028  13.445
33843W        W  626  40.007  19.563   3.915
33844W        W  627  33.363   2.215   1.270
33845W        W  628   1.801  19.651   1.916
33846W        W  629   1.362  33.005  11.676
33847W        W  630  16.658  37.775   3.745
33848W        W  631  38.345  36.472   4.781
33849W        W  632  31.309   0.357  13.392
33850W        W  633  13.225  29.512   0.723
33851W        W  634  16.077  26.191  13.811
33852W        W  635  11.289  10.394   3.760
33853W        W  636  42.959  41.573   4.156
33854W        W  637  15.481  39.014   5.616
33855W        W  638   3.440  33.137  14.317
33856W        W  639  23.196  39.128   2.737
33857W        W  640  43.366  40.789   4.255
33858W        W  641  33.595  24.054   2.322
33859W        W  642   8.705  26.615   3.702
33860W        W  643  29.669  10.292   1.428
33861W        W  644   5.273  40.195   4.570
33862W        W  645  39.362  18.136  10.707
33863W        W  646  11.548  24.568  13.580
33864W        W  647  36.056  13.092   4.078
33865W        W  648  27.881  40.474   0.850
33866W        W  649  18.720   5.457  11.892
33867W        W  650  36.992  16.316   1.724
33868W        W  651  39.665   4.213  11.621
33869W        W  652  28.944  44.984   4.564
33870W        W  653  32.205  38.856  10.594
33871W        W  654  18.434  23.639  14.525
33872W        W  655  33.058  21.857   0.969
33873W        W  656  18.328   3.298  12.921
33874W        W  657  29.146  13.194  10.700
33875W        W  658  25.147  23.148  11.871
33876W        W  659   6.219  39.545   2.665
33877W        W  660  17.337  36.018  14.554
33878W        W  661  34.644   5.782   3.592
33879W        W  662  17.638  33.204   4.585
33880W        W  663  44.383   7.251   0.841
33881W        W  664   2.369  41.491   1.273
33882W        W  665  13.598  22.141  13.081
33883W        W  666  25.679  12.661   1.841
33884W        W  667  15.637  43.234   4.331
33885W        W  668  28.667  28.490   0.767
33886W        W  669  23.227  33.949  11.072
33887W        W  670  37.553  37.646   3.564
33888W        W  671  44.345  20.031  13.063
33889W        W  672  40.242   3.712   0.456
33890W        W  673  32.147  27.172  14.371
33891W        W  674  34.399   3.671   3.557
33892W        W  675   7.501  29.262   2.741
33893W        W  676  32.676  37.043  13.813
33894W        W  677  31.750  28.048  14.592
33895W        W  678  39.849  42.009  12.179
33896W        W  679   8.746  40.449   1.481
33897W        W  680  15.899   2.910   3.272
33898W        W  681  13.852  26.068  14.612
33899W        W  682  27.514  43.153  13.319
33900W        W  683  43.742  41.287   0.454
33901W        W  684   6.963  38.951  11.918
33902W        W  685   5.809  28.521   4.309
33903W        W  686  32.349  23.784   1.395
33904W        W  687  13.073   0.174   1.888
33905W        W  688  20.469  35.780   1.611
33906W        W  689  11.632  34.646  10.811
33907W        W  690   2.202   3.911   1.360
33908W        W  691  15.541  13.109  13.089
33909W        W  692  27.238   4.232  11.464
33910W        W  693  24.978  19.797   1.499
33911W        W  694  18.944  36.997   3.763
33912W        W  695  43.364   8.877   4.575
33913W        W  696  40.280  38.859  10.276
33914W        W  697  36.890  12.732  13.662
33915W        W  698  26.465  32.054   1.291
33916W        W  699  12.887   3.786   2.202
33917W        W  700  19.379  28.137  12.859
33918W        W  701  32.584  41.745   0.819
33919W        W  702  22.167  25.743   1.228
33920W        W  703  17.294  43.328   3.696
33921W        W  704  38.211  14.734   1.356
33922W        W  705  39.575   0.818  14.840
33923W        W  706  17.068   7.689   0.917
33924W        W  707  28.177  12.774   1.261
33925W        W  708  32.194  27.342   1.410
33926W        W  709  21.643  38.292  11.044
33927W        W  710  20.674   0.855  12.576
33928W        W  711   1.887   1.172  12.562
33929W        W  712   9.802  22.010  13.414
33930W        W  713  44.615  13.540  11.177
33931W        W  714  27.485  22.954   3.391
33932W        W  715  22.604  28.584  11.272
33933W        W  716  39.447  41.609  12.584
33934W        W  717   7.814  12.825   4.558
33935W        W  718  11.476  15.353   2.386
33936W        W  719  21.607  33.648   1.319
33937W        W  720  37.551   7.760   3.610
33938W        W  721   3.484  13.643   3.809
33939W        W  722  12.390  11.196   2.649
33940W        W  723   9.118  27.513   4.670
33941W        W  724   0.897  21.278   2.215
33942W        W  725  29.617  30.647  12.951
33943W        W  726  24.240  30.649   5.049
33944W        W  727  37.456  11.195   4.720
33945W        W  728  27.467   3.766  14.038
33946W        W  729  34.941  38.523   2.287
33947W        W  730  41.129   1.821  13.331
33948W        W  731   6.952   8.891  14.914
33949W        W  732  38.684  43.880  11.707
33950W        W  733   4.304  12.237  10.897
33951W        W  734   5.527  21.040   4.905
33952W        W  735  29.439  24.568  14.456
33953W        W  736  38.533  16.076   1.508
33954W        W  737  10.715  10.294  10.702
33955W        W  738   9.100  19.457  14.548
33956W        W  739  37.829  23.840  10.252
33957W        W  740   1.943  15.145  13.880
33958W        W  741   3.625  22.177  11.068
33959W        W  742  27.639  29.645  11.130
33960W        W  743  33.112  15.749   2.862
33961W        W  744  37.402  11.638   0.924
33962W        W  745  19.736   6.466   1.415
33963W        W  746   4.884  39.014   0.042
33964W        W  747  39.555  18.491   3.287
33965W        W  748  25.727  29.348  12.145
33966W        W  749  26.924  17.601   3.919
33967W        W  750  29.351   9.225  11.093
33968W        W  751   7.833  39.310   0.457
33969W        W  752   1.030  36.470   0.703
33970W        W  753  24.605  24.872  13.004
33971W        W  754   4.360  38.655   1.518
33972W        W  755  19.709  43.326  12.306
33973W        W  756  33.553  39.432  10.099
33974W        W  757  39.406  32.669  12.673
33975W        W  758  26.507  34.050  11.535
33976W        W  759  15.350   8.589   0.765
33977W        W  760   2.236   1.282  14.051
33978W        W  761   1.320  35.889  11.121
33979W        W  762   3.431  39.419  12.961
33980W        W  763  22.522  35.490   3.873
33981W        W  764  42.817   8.671  14.378
33982W        W  765   7.667  27.447   4.767
33983W        W  766  15.215   3.340   0.824
33984W        W  767  11.178  25.528  10.640
33985W        W  768  14.632  21.190   4.589
33986W        W  769  23.479  32.665  11.136
33987W        W  770  13.510  26.202  11.907
33988W        W  771  33.740  29.405  13.898
33989W        W  772  32.850  23.635  14.816
33990W        W  773  28.011  42.628  14.738
33991W        W  774  12.762  39.094  12.549
33992W        W  775  28.041  24.627  10.844
33993W        W  776  24.504  24.985   1.420
33994W        W  777  23.192  36.122   4.755
33995W        W  778  21.524  11.153  12.557
33996W        W  779   1.847  24.077  10.750
33997W        W  780   4.446  44.089  11.965
33998W        W  781  13.848  30.131  12.626
33999W        W  782   2.311  16.090  14.073
34000W        W  783  22.402  14.310  14.652
34001W        W  784  20.287  21.555   3.286
34002W        W  785   0.530  23.393  11.548
34003W        W  786   7.272  14.415   2.031
34004W        W  787  30.144  38.843  11.334
34005W        W  788  21.433  31.560   0.845
34006W        W  789   3.898  43.796  10.768
34007W        W  790  11.368  24.049   4.085
34008W        W  791  42.038  16.930  11.875
34009W        W  792  40.376  43.339  12.625
34010W        W  793  13.423   2.498  11.077
34011W        W  794   1.784  22.978  13.927
34012W        W  795  39.650   6.095  13.438
34013W        W  796  35.861  29.749   3.708
34014W        W  797  43.842  36.938   2.927
34015W        W  798  32.629  28.515  11.658
34016W        W  799  40.835   5.236  14.300
34017W        W  800  21.171  11.374   5.062
34018W        W  801  15.385  18.826  13.806
34019W        W  802  24.517  30.423  13.730
34020W        W  803  11.106  44.689  13.960
34021W        W  804  44.764  26.580   2.677
34022W        W  805  17.081   8.857   1.324
34023W        W  806  21.148  21.334  11.542
34024W        W  807  40.338  32.204  10.777
34025W        W  808  30.035  39.632  14.895
34026W        W  809  13.629   4.014  12.511
34027W        W  810  32.066   3.370  10.522
34028W        W  811   7.917  26.977  14.985
34029W        W  812  27.638  38.529  12.819
34030W        W  813  34.252  13.768  11.921
34031W        W  814  40.583   4.286  10.679
34032W        W  815  22.827  38.164   3.693
34033W        W  816   1.477   0.171   4.784
34034W        W  817  43.081   0.006  14.400
34035W        W  818  11.741   6.749   4.891
34036W        W  819   4.188  26.613  13.413
34037W        W  820  15.079   4.210   0.886
34038W        W  821  11.677  13.285   4.518
34039W        W  822   6.129  14.640  13.616
34040W        W  823  13.082  37.773  12.916
34041W        W  824  29.141  29.307   2.677
34042W        W  825   8.848   7.746  13.794
34043W        W  826   4.507   9.631   3.630
34044W        W  827  25.966  16.179  10.699
34045W        W  828   3.727   5.457   4.571
34046W        W  829  26.181  14.819  14.845
34047W        W  830  30.145  40.385  11.476
34048W        W  831  37.815  11.704   0.622
34049W        W  832  43.444  28.338   1.966
34050W        W  833  42.633   8.242   2.688
34051W        W  834  29.079  10.577  14.822
34052W        W  835  14.518  21.201  13.586
34053W        W  836  12.041  39.539  13.612
34054W        W  837   8.963   3.691  10.523
34055W        W  838   5.828  19.189   1.165
34056W        W  839  20.636  11.458   1.274
34057W        W  840  14.739  17.781  13.442
34058W        W  841  14.608   4.452  11.549
34059W        W  842  27.642  19.579  13.585
34060W        W  843   7.349  22.903  11.213
34061W        W  844  14.032  42.147   5.001
34062W        W  845  16.603  21.748   2.306
34063W        W  846   2.279  25.706  12.880
34064W        W  847  38.328   7.840   0.801
34065W        W  848  27.501  13.613  13.952
34066W        W  849  16.689  36.645   9.825
34067W        W  850  34.532  44.980   4.143
34068W        W  851  39.461   2.221   2.386
34069W        W  852  23.942  35.556   3.629
34070W        W  853   1.516   2.635  11.807
34071W        W  854  24.052  13.279   1.259
34072W        W  855  16.929  37.575   4.220
34073W        W  856  35.365  32.027   2.290
34074W        W  857  20.215  35.255   4.140
34075W        W  858  15.499  25.928   4.581
34076W        W  859   4.906  35.010  10.689
34077W        W  860  21.983  37.521  13.817
34078W        W  861   1.194  13.620   1.029
34079W        W  862  43.028  10.867  10.818
34080W        W  863  44.420  12.819  12.389
34081W        W  864  31.866  44.844   3.786
34082W        W  865  38.421  28.452  12.981
34083W        W  866  39.041  18.363   3.126
34084W        W  867   4.539   7.302  14.721
34085W        W  868  10.274  28.923  12.039
34086W        W  869  15.497  42.346  14.084
34087W        W  870  38.429  41.521   3.356
34088W        W  871   9.555  13.312  14.851
34089W        W  872  38.287  23.209   3.610
34090W        W  873  41.270  38.470  12.907
34091W        W  874   3.229   2.484   3.677
34092W        W  875   8.660  36.048   3.243
34093W        W  876   7.251   3.200  13.141
34094W        W  877  30.077  24.873  13.835
34095W        W  878  36.254  17.020   1.706
34096W        W  879   5.239  44.611  12.388
34097W        W  880  13.067  14.852  14.942
34098W        W  881  13.077  39.522  11.491
34099W        W  882  23.464  27.067   3.201
34100W        W  883   7.020   5.902  11.378
34101W        W  884  18.731   9.772  11.191
34102W        W  885   4.451  16.202  14.810
34103W        W  886  19.046  33.946  10.647
34104W        W  887   9.683   0.484   4.465
34105W        W  888  39.837  17.319  13.103
34106W        W  889  33.762  21.566  12.923
34107W        W  890  26.621  22.061   4.184
34108W        W  891  31.944  18.590   0.993
34109W        W  892   8.636  41.380  11.157
34110W        W  893  31.849  10.553  14.730
34111W        W  894  23.205   1.100  10.756
34112W        W  895  14.618  21.474   0.438
34113W        W  896   5.775  44.882   4.941
34114W        W  897  12.761  31.699   0.598
34115W        W  898  36.972  38.380   0.977
34116W        W  899  18.002   6.242  14.310
34117W        W  900  29.169  19.510  14.009
34118W        W  901   1.749  17.766   2.682
34119W        W  902  18.326  19.125   3.913
34120W        W  903  30.871  25.130   4.178
34121W        W  904  32.817  32.552   1.063
34122W        W  905  11.332  16.219   4.452
34123W        W  906  44.477  19.138   2.642
34124W        W  907   5.972  33.639  14.482
34125W        W  908   9.203  30.796  12.092
34126W        W  909  22.168  36.420  13.894
34127W        W  910  36.564   5.849  11.722
34128W        W  911  39.230  13.695  11.538
34129W        W  912  13.639  29.858  14.869
34130W        W  913  31.727  21.816   3.100
34131W        W  914  32.993   4.421  12.023
34132W        W  915   8.052  37.649   3.550
34133W        W  916   8.482   8.518   5.387
34134W        W  917   1.435  43.238   1.469
34135W        W  918  31.822  40.702   0.777
34136W        W  919   0.401   9.482   0.425
34137W        W  920  12.367  34.333  10.345
34138W        W  921  14.597  10.324  12.988
34139W        W  922  39.812   6.346  12.181
34140W        W  923  11.718  23.717   0.427
34141W        W  924  25.850  38.785   1.800
34142W        W  925  27.939  42.978   2.474
34143W        W  926  32.501  30.145  12.405
34144W        W  927  20.138  19.092  12.430
34145W        W  928  33.735   5.952   0.594
34146W        W  929  35.323  32.876  11.137
34147W        W  930  39.137  39.313   1.007
34148W        W  931  19.927  32.592   3.452
34149W        W  932   5.432   0.932  12.719
34150W        W  933   2.553   1.160  14.506
34151W        W  934  43.451  31.910  13.877
34152W        W  935  30.650  35.919  12.007
34153W        W  936  44.404   8.235  13.120
34154W        W  937   6.357  14.421  12.487
34155W        W  938   3.288   3.834   3.326
34156W        W  939  29.180  30.705  11.296
34157W        W  940  32.069  38.475   1.358
34158W        W  941   1.057  15.680  12.434
34159W        W  942  10.155  36.629  11.868
34160W        W  943  12.875   1.659  12.009
34161W        W  944  37.303  42.487  13.858
34162W        W  945  22.004  37.017   0.912
34163W        W  946  41.488  20.200  11.722
34164W        W  947  44.600  35.791   1.996
34165W        W  948  35.044  23.746   3.694
34166W        W  949   0.436   9.318   2.175
34167W        W  950  37.808  19.181  11.588
34168W        W  951  34.362  39.916  14.451
34169W        W  952  14.174  21.771   2.343
34170W        W  953  10.922  22.208   0.061
34171W        W  954  44.411  28.926  10.406
34172W        W  955  15.191  10.074  13.877
34173W        W  956   3.485  32.559  13.879
34174W        W  957  10.111  38.742   3.263
34175W        W  958   8.874  13.426  10.438
34176W        W  959  14.281  10.732  12.481
34177W        W  960   9.700  42.342  10.806
34178W        W  961  36.194  18.028   0.027
34179W        W  962  26.726  31.521  10.632
34180W        W  963  24.072  11.196   2.461
34181W        W  964  31.423   5.971  10.340
34182W        W  965  26.431  26.590   0.168
34183W        W  966  13.100  41.867  13.722
34184W        W  967  10.265  11.634  11.826
34185W        W  968  16.761  42.942  14.306
34186W        W  969  22.978  22.018  12.929
34187W        W  970  17.392  16.277  14.417
34188W        W  971  29.240  22.119  13.333
34189W        W  972  32.999  30.805  11.219
34190W        W  973  14.190  17.259   2.441
34191W        W  974  22.650  44.955  12.133
34192W        W  975  20.035  30.652   1.479
34193W        W  976   6.852   4.229   0.010
34194W        W  977   5.400  42.058  12.927
34195W        W  978  17.256   7.941   3.548
34196W        W  979   4.563   2.444  11.164
34197W        W  980  40.938  24.811  10.885
34198W        W  981  27.499  21.482   1.694
34199W        W  982  28.249  37.835   3.682
34200W        W  983  36.307   5.139  14.830
34201W        W  984  25.757  43.764   2.546
34202W        W  985  15.384   5.089   3.127
34203W        W  986  43.735   2.738  12.461
34204W        W  987  13.888  23.605  11.997
34205W        W  988   2.663  29.467   4.648
34206W        W  989  19.623  27.766  12.408
34207W        W  990   3.246   5.859   1.254
34208W        W  991  40.722   0.500   2.522
34209W        W  992  24.575  32.698   3.994
34210W        W  993  23.780  33.952   1.516
34211W        W  994  42.583  33.055  12.150
34212W        W  995  41.905  26.545   3.083
34213W        W  996  19.985  31.847  14.300
34214W        W  997   3.425  25.729  13.534
34215W        W  998   4.891  39.322   2.853
34216W        W  999  21.184  32.428  11.405
34217W        W 1000  42.408  10.412   3.781
34218W        W 1001   7.910  31.022  11.172
34219W        W 1002  18.744  22.221  12.531
34220W        W 1003  39.535  40.853   2.322
34221W        W 1004  18.566  36.353   2.230
34222W        W 1005  40.497  29.462  12.057
34223W        W 1006   0.368  33.550  13.095
34224W        W 1007  29.817  25.823  11.136
34225W        W 1008  44.817  36.033  12.164
34226W        W 1009   8.448  40.873  14.695
34227W        W 1010  23.117   7.336  12.575
34228W        W 1011  15.150  38.032   1.057
34229W        W 1012  27.530  21.679   2.810
34230W        W 1013  18.964  14.006  14.287
34231W        W 1014  39.702   0.997   3.637
34232W        W 1015  43.288  24.136  12.874
34233W        W 1016   4.408  12.869  12.090
34234W        W 1017  27.392   0.960  13.059
34235W        W 1018   6.298  18.561   4.221
34236W        W 1019  30.169  41.772   3.702
34237W        W 1020  18.828   7.668  12.553
34238W        W 1021  21.636   5.299  14.566
34239W        W 1022  17.997  11.147  13.442
34240W        W 1023   6.230  24.032  10.657
34241W        W 1024  22.492  37.301  14.788
34242W        W 1025  32.522   6.507   4.136
34243W        W 1026  11.553   4.802   5.127
34244W        W 1027  36.907  37.139  11.177
34245W        W 1028  44.886   5.232  14.973
34246W        W 1029  20.525  17.010  12.436
34247W        W 1030  30.903  44.666  11.201
34248W        W 1031   6.826  34.440   4.584
34249W        W 1032  40.415  25.473   4.884
34250W        W 1033   5.528  34.812   2.787
34251W        W 1034  25.711  43.999   4.105
34252W        W 1035  16.938  23.341  12.108
34253W        W 1036  16.630   1.376   1.569
34254W        W 1037   6.239   8.833  11.885
34255W        W 1038  40.424   9.090   9.899
34256W        W 1039  42.118  18.941  11.147
34257W        W 1040   8.651  26.068  12.515
34258W        W 1041  19.776  13.613  13.396
34259W        W 1042   3.201  15.387   2.399
34260W        W 1043   2.299  13.066  10.712
34261W        W 1044  30.487   3.777   3.149
34262W        W 1045  15.151   8.075   0.816
34263W        W 1046  34.743  41.582   3.469
34264W        W 1047   4.256   1.807  10.953
34265W        W 1048  19.643  21.223   0.810
34266W        W 1049  35.482   3.484   2.148
34267W        W 1050  36.058   3.072  13.045
34268W        W 1051  24.591  13.014   0.460
34269W        W 1052   2.358  36.044  12.540
34270W        W 1053  37.095  27.580   2.204
34271W        W 1054   0.221  17.188   2.230
34272W        W 1055  20.797   5.704   1.786
34273W        W 1056  26.475  31.357   0.921
34274W        W 1057  42.591  42.732  11.044
34275W        W 1058  34.178   9.622   4.076
34276W        W 1059   1.864  15.331  11.560
34277W        W 1060  42.477   7.718  14.805
34278W        W 1061  39.894  18.539   1.409
34279W        W 1062  29.692  32.484   3.213
34280W        W 1063   0.768  27.681   0.936
34281W        W 1064  16.570   9.556  13.503
34282W        W 1065  16.245  12.000   2.363
34283W        W 1066   2.776  27.512  14.835
34284W        W 1067  32.542  36.515   0.055
34285W        W 1068  25.138  25.504   3.475
34286W        W 1069   0.709  30.514   4.317
34287W        W 1070  44.576   6.863  12.638
34288W        W 1071  16.560  28.458  12.541
34289W        W 1072  14.642   2.796  14.340
34290W        W 1073  35.480   4.112  14.530
34291W        W 1074  13.587  39.016   0.742
34292W        W 1075  38.442  35.939  13.286
34293W        W 1076  26.562  19.186   4.700
34294W        W 1077  32.408  23.636   4.495
34295W        W 1078   4.090  30.123   4.587
34296W        W 1079   8.367   2.690  14.959
34297W        W 1080   2.728  16.692  11.128
34298W        W 1081  39.309  20.222  14.744
34299W        W 1082  36.325   6.033   0.166
34300W        W 1083  41.894   2.456  10.320
34301W        W 1084  16.703  43.985   4.169
34302W        W 1085  19.933  29.509  14.565
34303W        W 1086   7.150  27.148   1.873
34304W        W 1087   9.766  19.360   1.867
34305W        W 1088  44.195  30.018  14.265
34306W        W 1089  12.463   6.876  10.254
34307W        W 1090  34.167  15.637   2.833
34308W        W 1091   5.587   5.544   2.952
34309W        W 1092  39.208   1.199  11.143
34310W        W 1093   4.824   3.495  11.198
34311W        W 1094   3.841   7.107  10.711
34312W        W 1095  25.437  15.856  14.794
34313W        W 1096   4.246  35.558  13.499
34314W        W 1097  19.161   2.963   1.421
34315W        W 1098  18.150   7.917   1.836
34316W        W 1099  24.271  12.554   2.396
34317W        W 1100  16.722  40.919  13.548
34318W        W 1101  27.096   9.782  12.495
34319W        W 1102  13.935  27.680   4.813
34320W        W 1103  29.465  19.237   2.737
34321W        W 1104  37.007  30.793  12.088
34322W        W 1105  27.364  32.549  12.426
34323W        W 1106  19.993  33.447  14.769
34324W        W 1107   1.168  37.952  14.893
34325W        W 1108  27.570  29.450  12.821
34326W        W 1109   7.792  33.900   3.309
34327W        W 1110  41.224   9.884   0.953
34328W        W 1111   5.183  28.412   2.872
34329W        W 1112   6.767  39.738   4.807
34330W        W 1113  42.316  21.916   2.660
34331W        W 1114  20.693  31.043  11.736
34332W        W 1115   4.563   4.981   4.926
34333W        W 1116   3.687  14.236   2.982
34334W        W 1117   2.807  21.110  12.970
34335W        W 1118  34.636   8.779  11.621
34336W        W 1119  27.473  37.625  11.644
34337W        W 1120  11.908  23.185   4.093
34338W        W 1121  41.857  21.233  14.094
34339W        W 1122   0.831  28.942   1.414
34340W        W 1123   4.659  23.742   0.196
34341W        W 1124  36.969  30.509  13.288
34342W        W 1125  10.938  16.043  10.940
34343W        W 1126  26.225  14.106   3.295
34344W        W 1127  21.022   5.891   4.195
34345W        W 1128   1.499  43.000   0.723
34346W        W 1129  12.005  27.244   1.535
34347W        W 1130  38.029  32.366   0.890
34348W        W 1131  38.617  10.359  11.114
34349W        W 1132  38.818  38.299  14.382
34350W        W 1133   6.778  19.581  10.437
34351W        W 1134  14.580  36.577  14.547
34352W        W 1135  41.760  19.071   1.249
34353W        W 1136   0.889  35.457   1.454
34354W        W 1137  27.855  17.669  14.919
34355W        W 1138  35.697  32.664  10.844
34356W        W 1139   8.739  11.696  13.480
34357W        W 1140  31.148  41.912  11.673
34358W        W 1141  28.181  35.959  11.191
34359W        W 1142  28.695   1.263  14.831
34360W        W 1143  44.607  37.362  14.005
34361W        W 1144  18.792  13.227   2.255
34362W        W 1145   9.819  17.876  11.948
34363W        W 1146  18.810  40.829   0.805
34364W        W 1147  23.715  28.969  11.432
34365W        W 1148  30.607  29.036  12.368
34366W        W 1149   2.830   6.217  13.844
34367W        W 1150  29.068  35.885   4.071
34368W        W 1151  39.267  28.486   1.031
34369W        W 1152  34.047  19.335   3.792
34370W        W 1153  35.011  11.792   4.860
34371W        W 1154  22.654  29.930  13.924
34372W        W 1155  35.126  18.830  13.467
34373W        W 1156  10.304   8.348   0.719
34374W        W 1157  29.241  13.521  14.008
34375W        W 1158  24.596  34.670  13.310
34376W        W 1159  40.061  42.469  14.318
34377W        W 1160  30.925  41.276   0.784
34378W        W 1161   0.990  28.158  13.598
34379W        W 1162  36.051   1.947   1.583
34380W        W 1163   2.399  42.289  13.337
34381W        W 1164  37.881  42.570  12.531
34382W        W 1165  35.507  28.556  11.403
34383W        W 1166   0.457  27.730  14.166
34384W        W 1167   7.772  25.176   0.818
34385W        W 1168  24.685  20.689  12.124
34386W        W 1169  13.781  20.694  10.588
34387W        W 1170  43.719  24.342   3.674
34388W        W 1171   5.673  33.293   0.466
34389W        W 1172  34.594  39.220   2.776
34390W        W 1173   9.349  40.367  10.267
34391W        W 1174  25.726  17.962   0.267
34392W        W 1175  30.451   8.660   0.069
34393W        W 1176  20.458  22.212   1.840
34394W        W 1177  36.155  33.559  14.901
34395W        W 1178  41.794   4.886   4.635
34396W        W 1179   6.296  26.731   4.780
34397W        W 1180  14.849  21.627   4.351
34398W        W 1181  12.149  31.106   1.777
34399W        W 1182  11.085  17.999   0.244
34400W        W 1183  17.308  37.072   1.958
34401W        W 1184  28.037   8.685  11.570
34402W        W 1185  19.562   3.039  13.883
34403W        W 1186   7.597  12.284   1.302
34404W        W 1187  13.119  29.435   4.291
34405W        W 1188  11.146   1.203  10.779
34406W        W 1189  37.145  23.165  12.057
34407W        W 1190  23.061  25.128   1.290
34408W        W 1191  24.036  24.233  13.994
34409W        W 1192  18.696  17.211  11.852
34410W        W 1193  43.089   1.825   0.922
34411W        W 1194  44.854  42.069  12.225
34412W        W 1195  11.631  21.069  10.922
34413W        W 1196  24.187  40.445  11.770
34414W        W 1197  26.658  38.013   2.725
34415W        W 1198  16.065  12.772  13.728
34416W        W 1199  21.708  37.221   3.472
34417W        W 1200  26.067  36.213   0.894
34418W        W 1201  43.871  38.581  14.866
34419W        W 1202  34.874  43.428   2.307
34420W        W 1203  32.617   7.246  13.447
34421W        W 1204   1.680  40.864  12.800
34422W        W 1205  36.520  39.483   2.584
34423W        W 1206  21.507  22.062  13.605
34424W        W 1207  33.909  21.740  11.664
34425W        W 1208  12.817  43.527   0.782
34426W        W 1209  31.053  28.430   3.204
34427W        W 1210  16.603   7.861  10.777
34428W        W 1211  38.359  14.811  11.957
34429W        W 1212  30.334   1.525  11.835
34430W        W 1213   0.960   2.457  14.863
34431W        W 1214   2.458  40.784  14.367
34432W        W 1215  40.016  30.156   2.333
34433W        W 1216  38.113   5.492   3.122
34434W        W 1217   8.553  39.038  12.965
34435W        W 1218  27.623   9.273   4.743
34436W        W 1219  43.324  20.098  12.392
34437W        W 1220   0.895   5.619   0.883
34438W        W 1221   6.003   2.967  12.006
34439W        W 1222  31.215  27.127  11.494
34440W        W 1223  37.640  19.802   3.727
34441W        W 1224   1.434  11.388   0.818
34442W        W 1225  40.485  31.029   4.777
34443W        W 1226  38.441  14.283   1.264
34444W        W 1227  29.971  23.924  14.421
34445W        W 1228  44.475   5.160  12.380
34446W        W 1229   8.306  44.254   4.531
34447W        W 1230  36.410  32.492  11.551
34448W        W 1231  16.133  23.035  11.959
34449W        W 1232  11.297  33.359  10.687
34450W        W 1233  25.702  32.857   3.691
34451W        W 1234  36.990  41.172   3.214
34452W        W 1235  12.906  44.156   2.726
34453W        W 1236  18.270  27.756   1.240
34454W        W 1237  36.799  27.118  13.830
34455W        W 1238   5.817  44.470  12.531
34456W        W 1239  18.604  23.484  14.053
34457W        W 1240  43.480  11.714  12.915
34458W        W 1241  28.777   6.732   0.373
34459W        W 1242  30.460   3.370   2.821
34460W        W 1243  37.963  14.303  12.101
34461W        W 1244  23.171  11.733   0.962
34462W        W 1245  35.004  15.359   1.672
34463W        W 1246  43.392   3.176  11.628
34464W        W 1247   1.902  25.122  14.741
34465W        W 1248  42.369  30.894   0.564
34466W        W 1249  31.122  42.231   2.616
34467W        W 1250  30.544  35.877  14.350
34468W        W 1251  10.788  33.200  10.596
34469W        W 1252  14.043  42.465  12.865
34470W        W 1253   3.680  14.201   1.976
34471W        W 1254  11.321   5.878  10.229
34472W        W 1255   1.521   4.730  13.776
34473W        W 1256  37.006  33.652  13.395
34474W        W 1257  19.112  19.031  12.382
34475W        W 1258   0.294  29.676   3.410
34476W        W 1259  16.660  28.707  12.122
34477W        W 1260  44.715   6.232   4.583
34478W        W 1261  36.930   7.648   1.915
34479W        W 1262  14.216  44.488   2.312
34480W        W 1263  15.176  30.704   2.285
34481W        W 1264  26.575  16.091   4.890
34482W        W 1265  36.877  11.699  13.504
34483W        W 1266   9.079  23.098  12.781
34484W        W 1267   1.885   8.836   4.123
34485W        W 1268  25.508  32.495   0.874
34486W        W 1269  26.735   4.801  11.048
34487W        W 1270  42.412  32.519  12.530
34488W        W 1271  28.577   5.714   2.812
34489W        W 1272  40.870   8.122  12.431
34490W        W 1273  40.530  18.090  13.450
34491W        W 1274  18.943  31.648   3.163
34492W        W 1275  34.765   1.199   2.391
34493W        W 1276   1.397  12.835   1.804
34494W        W 1277  10.786  41.333   4.758
34495W        W 1278  34.035   5.362   4.685
34496W        W 1279  15.023   3.183   1.282
34497W        W 1280  40.428   9.099   2.256
34498W        W 1281  16.264  25.171  14.861
34499W        W 1282  28.181   0.853  12.578
34500W        W 1283  33.153  18.819  13.245
34501W        W 1284  43.398   8.127   3.613
34502W        W 1285  43.645   5.698  11.055
34503W        W 1286   5.954  43.417  11.649
34504W        W 1287  16.374  16.845   0.265
34505W        W 1288  26.061   9.785   1.126
34506W        W 1289  31.083  17.036   0.867
34507W        W 1290  27.148  17.280  13.929
34508W        W 1291  28.855  40.069  14.838
34509W        W 1292  41.408   5.297  11.161
34510W        W 1293   3.215  26.201  10.710
34511W        W 1294  14.901  42.424   2.241
34512W        W 1295  18.245  24.428   3.813
34513W        W 1296  32.135  14.069  12.519
34514W        W 1297  34.714  19.012   3.138
34515W        W 1298  29.546  34.918  12.547
34516W        W 1299   9.972  22.137   1.454
34517W        W 1300  42.780   4.337   1.980
34518W        W 1301   9.458  44.362  13.372
34519W        W 1302  12.854  40.821  12.468
34520W        W 1303   3.949  12.791  11.556
34521W        W 1304  33.123   7.014  11.503
34522W        W 1305  12.139  15.299  12.932
34523W        W 1306  27.080  36.667   2.659
34524W        W 1307  13.712  34.950  10.220
34525W        W 1308  14.674  39.909   4.700
34526W        W 1309  32.413   2.248  12.428
34527W        W 1310  26.017   4.879  13.534
34528W        W 1311   8.949  28.295  11.138
34529W        W 1312  38.050  35.108  12.139
34530W        W 1313  28.474  44.915   3.381
34531W        W 1314   4.879  29.671  10.850
34532W        W 1315  37.644  39.538   0.900
34533W        W 1316  26.978   1.603  14.278
34534W        W 1317   7.616  15.328   5.143
34535W        W 1318  34.823   1.863  14.832
34536W        W 1319   8.079  13.672   3.722
34537W        W 1320  20.516  23.622  13.357
34538W        W 1321  22.490  44.734   5.111
34539W        W 1322  35.925  13.825  12.559
34540W        W 1323  13.475  19.677   1.418
34541W        W 1324  43.840  20.178  11.067
34542W        W 1325   7.170   6.370   4.075
34543W        W 1326   9.467  40.400   4.034
34544W        W 1327  13.227  23.247   2.713
34545W        W 1328   0.834   9.579   3.322
34546W        W 1329  19.537  13.752  13.945
34547W        W 1330  31.941  18.575   4.779
34548W        W 1331  18.633  44.523  12.528
34549W        W 1332  20.102  28.909   2.264
34550W        W 1333  11.376  35.173   4.476
34551W        W 1334  40.094  28.028  13.386
34552W        W 1335  43.318   4.574   4.655
34553W        W 1336  19.782  17.144   3.362
34554W        W 1337  21.214  26.042  12.936
34555W        W 1338   6.400  38.037   4.746
34556W        W 1339   0.429  20.121  14.999
34557W        W 1340  26.097  14.614   1.381
34558W        W 1341  15.587  11.346   2.802
34559W        W 1342  24.550  15.095   4.092
34560W        W 1343  39.433   2.909  13.455
34561W        W 1344  35.541   6.444   0.358
34562W        W 1345  38.899  27.198   4.449
34563W        W 1346   3.864  44.369  13.429
34564W        W 1347  42.664   2.038   4.812
34565W        W 1348  21.299  10.625   4.258
34566W        W 1349  22.574  28.755  12.748
34567W        W 1350   7.151   5.514   3.608
34568W        W 1351   5.806  21.039   0.909
34569W        W 1352   8.070  12.757   1.859
34570W        W 1353  37.008  39.769  13.900
34571W        W 1354  43.791   6.472  14.223
34572W        W 1355   6.808  34.108   3.168
34573W        W 1356  37.920  19.334   0.264
34574W        W 1357  28.583  13.677  10.663
34575W        W 1358   7.836  30.307  14.501
34576W        W 1359  40.061  19.243   0.743
34577W        W 1360  28.455   1.363  12.811
34578W        W 1361  30.222  32.751  14.353
34579W        W 1362  13.880  10.269  13.510
34580W        W 1363  12.891  33.726   0.601
34581W        W 1364   4.306  35.147  14.851
34582W        W 1365   6.863  32.538  11.061
34583W        W 1366  44.339  38.246   2.342
34584W        W 1367  18.331  21.015  12.549
34585W        W 1368  22.995  42.926  14.744
34586W        W 1369  14.213  14.152  14.710
34587W        W 1370  36.039  40.272   4.560
34588W        W 1371  44.388   9.814  11.261
34589W        W 1372  44.263  20.024   4.375
34590W        W 1373   2.009  41.153   0.213
34591W        W 1374   5.859   7.333  10.744
34592W        W 1375  28.277  27.916  10.453
34593W        W 1376  37.817  35.448   0.652
34594W        W 1377  14.770   7.471   5.118
34595W        W 1378  36.593  39.634  14.483
34596W        W 1379  28.169  40.486  14.293
34597W        W 1380   8.206  21.275   0.921
34598W        W 1381  32.875  15.373  14.386
34599W        W 1382  18.664  28.951  10.642
34600W        W 1383   0.992  29.573   5.080
34601W        W 1384  31.864  42.658  12.576
34602W        W 1385  31.251   3.267  12.935
34603W        W 1386   8.090   5.716   4.831
34604W        W 1387  21.658  29.271  14.408
34605W        W 1388  32.054  13.965  11.632
34606W        W 1389  41.728   4.687  14.470
34607W        W 1390  16.787  11.796  10.798
34608W        W 1391   4.207  33.647  14.576
34609W        W 1392  30.531  10.357  12.293
34610W        W 1393  22.960   0.047  14.388
34611W        W 1394  38.244  16.287  11.995
34612W        W 1395  27.477  22.828   2.135
34613W        W 1396  19.651  23.298   2.418
34614W        W 1397   6.182  21.482  10.216
34615W        W 1398   7.763  36.420  10.624
34616W        W 1399  11.584  11.614  13.056
34617W        W 1400  18.582  16.716  14.401
34618W        W 1401   2.701  16.147  12.453
34619W        W 1402  26.543  43.595   3.583
34620W        W 1403   7.787  17.811  12.921
34621W        W 1404  43.910   0.044   0.888
34622W        W 1405  32.198  42.883  13.901
34623W        W 1406   6.818  40.967  11.562
34624W        W 1407  32.861  32.134  11.695
34625W        W 1408  41.866  35.055  13.174
34626W        W 1409  38.497  44.538  12.069
34627W        W 1410  31.377  39.072   0.877
34628W        W 1411  28.326  40.015  14.405
34629W        W 1412  25.709   2.748  14.800
34630W        W 1413  13.249  11.032   3.358
34631W        W 1414  30.444  13.912  13.401
34632W        W 1415   2.032   1.816   3.177
34633W        W 1416  25.511  25.959  13.107
34634W        W 1417  32.622  39.745  13.314
34635W        W 1418   1.543  34.677   1.779
34636W        W 1419  14.566  15.880   0.226
34637W        W 1420  20.346  32.402  10.804
34638W        W 1421  28.590  43.514  10.663
34639W        W 1422   5.782  29.433  14.742
34640W        W 1423  19.142  19.258  14.525
34641W        W 1424  16.562  40.319   3.698
34642W        W 1425   4.405  11.209   4.426
34643W        W 1426   7.183  19.018   3.417
34644W        W 1427  36.137  40.401   1.428
34645W        W 1428  28.603  31.455   3.877
34646W        W 1429  24.596  20.848   3.640
34647W        W 1430  17.658  44.978  14.405
34648W        W 1431  28.438   8.884  12.835
34649W        W 1432   5.911  26.716   0.388
34650W        W 1433  26.329  29.318   1.321
34651W        W 1434  42.866   8.945  14.815
34652W        W 1435  40.770   7.987  14.296
34653W        W 1436  27.169  29.866  11.060
34654W        W 1437  25.455  19.855   3.559
34655W        W 1438   2.379  14.283  13.603
34656W        W 1439  30.450  41.363  11.189
34657W        W 1440  33.895  16.666  11.117
34658W        W 1441  25.598  19.783  14.368
34659W        W 1442  19.623  22.725  12.487
34660W        W 1443  11.001  38.941  14.472
34661W        W 1444  21.485  39.441  14.000
34662W        W 1445  17.207   2.930   1.288
34663W        W 1446  29.902  33.278  11.904
34664W        W 1447   5.850   1.949  12.658
34665W        W 1448  19.411  34.602  13.607
34666W        W 1449   5.346  35.006  14.422
34667W        W 1450  12.976   2.826  14.974
34668W        W 1451   8.225  14.612   0.449
34669W        W 1452  11.633  19.238  10.731
34670W        W 1453   1.976  14.615   4.146
34671W        W 1454  39.371  29.494   2.600
34672W        W 1455  32.500   3.421  12.144
34673W        W 1456  12.807  34.811  13.402
34674W        W 1457  29.987  25.960   1.887
34675W        W 1458  40.321  20.284   3.809
34676W        W 1459  18.164  35.859   1.006
34677W        W 1460  42.634  25.858   1.239
34678W        W 1461  29.885   4.444  12.395
34679W        W 1462  26.636  23.152  11.589
34680W        W 1463  32.505  17.829  10.287
34681W        W 1464  39.818   4.872   4.544
34682W        W 1465  42.448  29.172  11.758
34683W        W 1466  15.776  11.776   3.685
34684W        W 1467  43.790  31.682  12.126
34685W        W 1468  15.716  10.687  10.959
34686W        W 1469  15.824  41.274  13.304
34687W        W 1470  28.005  27.247   1.911
34688W        W 1471  39.454   6.282   1.251
34689W        W 1472   5.857   2.243   0.382
34690W        W 1473  29.958   2.467   0.437
34691W        W 1474  44.984  27.424   2.297
34692W        W 1475   2.921   1.966   4.547
34693W        W 1476  37.466   7.792   3.105
34694W        W 1477  19.800   6.419   2.807
34695W        W 1478   9.777  37.530   1.884
34696W        W 1479   1.914  26.041  12.994
34697W        W 1480   9.481  15.798  12.130
34698W        W 1481  26.021  22.710  12.471
34699W        W 1482  33.500  28.407  12.947
34700W        W 1483  10.119  17.711  13.924
34701W        W 1484  36.303   3.871   1.260
34702W        W 1485  24.999  43.988   1.777
34703W        W 1486   4.878  13.696  13.449
34704W        W 1487  29.662  37.963  13.609
34705W        W 1488  34.593  41.353  12.222
34706W        W 1489  40.426  26.141   2.383
34707W        W 1490  10.244  30.630  12.989
34708W        W 1491  31.805  24.336   4.120
34709W        W 1492  26.162  28.442   2.423
34710W        W 1493  15.862  15.846  14.428
34711W        W 1494  34.065   9.291   4.630
34712W        W 1495  30.043  37.610   2.826
34713W        W 1496  33.927  17.107  14.451
34714W        W 1497  44.993  37.563   3.323
34715W        W 1498  12.318  44.832  10.425
34716W        W 1499  40.872  32.665  14.617
34717W        W 1500  35.902  27.933  13.011
34718W        W 1501  27.871  10.930  13.602
34719W        W 1502  11.821   8.558  12.472
34720W        W 1503  33.221  13.719  14.245
34721W        W 1504   2.892  44.760  11.659
34722W        W 1505  13.577  35.716   1.484
34723W        W 1506  21.225  23.464   3.783
34724W        W 1507   3.287   5.917   3.323
34725W        W 1508  35.694  17.545   2.445
34726W        W 1509  22.652  43.619   4.401
34727W        W 1510  19.256   5.578  10.664
34728W        W 1511  29.999  39.708   9.507
34729W        W 1512  30.169   8.148   1.799
34730W        W 1513  22.890  28.780   4.563
34731W        W 1514  16.017  12.208   0.290
34732W        W 1515  41.472  39.949   3.171
34733W        W 1516  21.751   4.439  12.013
34734W        W 1517  40.282  16.251   1.526
34735W        W 1518   1.003   6.213   4.101
34736W        W 1519  39.551  42.445  14.353
34737W        W 1520   0.867  30.742   1.757
34738W        W 1521  14.913  30.384  11.966
34739W        W 1522  30.681  22.905  10.296
34740W        W 1523  36.093   1.454  12.189
34741W        W 1524  43.275   3.385   5.087
34742W        W 1525  26.423  16.858   0.134
34743W        W 1526  43.872  31.060  11.580
34744W        W 1527   2.523  24.993  11.184
34745W        W 1528  36.111  31.213   3.709
34746W        W 1529  11.841  44.748  12.906
34747W        W 1530  15.644  21.750   0.834
34748W        W 1531  10.502   1.919  13.588
34749W        W 1532   4.674  37.088   3.740
34750W        W 1533  17.250  13.729   3.683
34751W        W 1534  35.836  38.471  11.610
34752W        W 1535  31.600  32.527  12.436
34753W        W 1536   7.905   0.138   4.790
34754W        W 1537  30.415   5.696  10.661
34755W        W 1538   1.427  34.361   4.677
34756W        W 1539  23.248   5.878   2.739
34757W        W 1540  34.343  14.290   3.218
34758W        W 1541  18.305  15.371  12.103
34759W        W 1542  25.590  35.280   0.226
34760W        W 1543  39.855  40.440   0.344
34761W        W 1544  23.042  37.970  11.953
34762W        W 1545  13.860  44.331   0.078
34763W        W 1546  21.794  30.938  13.842
34764W        W 1547  22.917  41.038  13.937
34765W        W 1548   4.631  23.742   3.133
34766W        W 1549  33.317  24.215  10.928
34767W        W 1550  14.283  26.595  11.113
34768W        W 1551  10.680  21.362  10.361
34769W        W 1552  10.894   3.670  10.651
34770W        W 1553  43.378   9.107   1.121
34771W        W 1554  42.026  29.553   1.513
34772W        W 1555  25.177  44.122  11.495
34773W        W 1556  43.405  16.989   2.005
34774W        W 1557   6.779  21.172   0.472
34775W        W 1558  11.832  32.213  10.823
34776W        W 1559   7.208  14.742  14.457
34777W        W 1560  16.029  21.157   0.234
34778W        W 1561  32.522   1.950   4.230
34779W        W 1562  41.314   0.612   0.789
34780W        W 1563   8.932   1.821  12.008
34781W        W 1564   5.180  30.659  14.271
34782W        W 1565  15.260  24.227   0.465
34783W        W 1566  23.567   9.074   5.068
34784W        W 1567  13.306  18.442  13.922
34785W        W 1568   8.924  17.633   4.116
34786W        W 1569  17.462  37.416   0.023
34787W        W 1570  14.264  37.357  14.398
34788W        W 1571   9.986  44.277  12.379
34789W        W 1572  21.952  17.143  13.455
34790W        W 1573  30.907  19.005  12.561
34791W        W 1574   3.860  38.850   1.020
34792W        W 1575  33.627  11.242  11.565
34793W        W 1576   0.220  33.338   4.405
34794W        W 1577  35.687  16.731  12.616
34795W        W 1578  15.197  15.083  11.602
34796W        W 1579  16.878   6.974  11.133
34797W        W 1580  42.840  36.907   2.893
34798W        W 1581  41.892  21.666   0.213
34799W        W 1582   0.237  16.895   4.544
34800W        W 1583  11.814  42.683   4.251
34801W        W 1584  41.933   3.313   4.600
34802W        W 1585  38.027  22.998   2.262
34803W        W 1586  33.862   2.994   2.355
34804W        W 1587   3.905  18.586   1.206
34805W        W 1588  35.963  34.521   1.205
34806W        W 1589   4.391  23.948  12.854
34807W        W 1590  38.883   7.192  10.548
34808W        W 1591  21.341  14.258  13.839
34809W        W 1592  31.882   7.700   0.366
34810W        W 1593  40.002   0.046   3.795
34811W        W 1594  17.716   8.735  13.150
34812W        W 1595  38.095   3.367   0.298
34813W        W 1596  30.623  10.412   1.499
34814W        W 1597  16.076   7.369  11.079
34815W        W 1598  10.454  23.533  12.945
34816W        W 1599  19.269   6.858  12.256
34817W        W 1600  40.864  43.367   1.669
34818W        W 1601   7.207  20.500   2.695
34819W        W 1602  26.278  41.509   5.445
34820W        W 1603  12.163  39.127   3.242
34821W        W 1604  23.075  39.250  13.641
34822W        W 1605  22.068  10.661  10.638
34823W        W 1606  29.982  42.508   1.419
34824W        W 1607   6.216  42.323   0.702
34825W        W 1608  36.444  24.316   3.789
34826W        W 1609  10.472   8.356  12.198
34827W        W 1610  15.134  35.396  11.563
34828W        W 1611  27.662  17.559  11.327
34829W        W 1612  18.629  10.295   9.926
34830W        W 1613  25.458  13.117   3.744
34831W        W 1614  19.497  40.108  11.464
34832W        W 1615   8.648  39.743  10.727
34833W        W 1616  10.133  26.509   0.207
34834W        W 1617  39.594   6.366   3.266
34835W        W 1618  31.081  32.568   1.711
34836W        W 1619  15.092   4.184  13.513
34837W        W 1620   1.356  36.579   0.312
34838W        W 1621  23.483   9.038   0.361
34839W        W 1622   4.300  44.083   4.186
34840W        W 1623  13.610  30.614  10.609
34841W        W 1624  16.708  38.276  10.606
34842W        W 1625  26.118  41.949  14.877
34843W        W 1626   7.412  14.643   3.802
34844W        W 1627  20.506  34.122   3.169
34845W        W 1628  37.366   2.777  11.591
34846W        W 1629  18.011  38.931  12.538
34847W        W 1630  30.041  32.062   1.465
34848W        W 1631   4.750   4.248   2.645
34849W        W 1632   6.301  14.582  10.886
34850W        W 1633  28.716  23.664   1.282
34851W        W 1634  29.983  26.111   0.933
34852W        W 1635  20.598  43.888  11.391
34853W        W 1636  30.772  36.050  12.894
34854W        W 1637   9.243  42.761  14.821
34855W        W 1638  30.362  10.813  14.185
34856W        W 1639   5.157  26.784   4.611
34857W        W 1640  26.049  15.610   2.869
34858W        W 1641  31.917  41.835  12.105
34859W        W 1642   8.237  22.015   4.643
34860W        W 1643   8.821  37.560  13.520
34861W        W 1644   1.777   8.110   1.424
34862W        W 1645   1.570  33.003   1.785
34863W        W 1646  25.121  28.560  12.049
34864W        W 1647   9.050  25.451  13.008
34865W        W 1648   1.023   6.283   3.577
34866W        W 1649   6.655  25.004   1.261
34867W        W 1650  23.305  12.805  14.048
34868W        W 1651  43.528  33.361   3.904
34869W        W 1652   9.786   4.777   3.077
34870W        W 1653  13.688  28.587   3.069
34871W        W 1654  12.396   5.432   2.218
34872W        W 1655  31.041  14.289   1.670
34873W        W 1656   7.143   0.698   2.797
34874W        W 1657  11.771  24.996  14.056
34875W        W 1658  21.683   8.355   2.437
34876W        W 1659  24.618  41.548  14.152
34877W        W 1660   5.395  41.379  14.447
34878W        W 1661   7.221  12.551  14.315
34879W        W 1662  41.443  12.465  12.634
34880W        W 1663  28.120  15.660  10.562
34881W        W 1664   9.791   0.756   0.128
34882W        W 1665  18.763  35.027  13.032
34883W        W 1666  32.314   8.965   0.297
34884W        W 1667  33.116  23.104  10.758
34885W        W 1668  18.328  32.278   3.653
34886W        W 1669  35.944  28.495  10.628
34887W        W 1670   8.380  13.796  12.837
34888W        W 1671  39.364  35.343   4.041
34889W        W 1672  11.189  35.966  13.932
34890W        W 1673  18.576   4.704   2.623
34891W        W 1674  19.610  26.807  14.406
34892W        W 1675  22.595  31.560  12.332
34893W        W 1676  17.153   1.739   3.749
34894W        W 1677   6.913  22.674   1.286
34895W        W 1678  40.862  20.776   2.192
34896W        W 1679  39.512  22.436  14.794
34897W        W 1680   9.086  37.126   3.068
34898W        W 1681  20.151   6.522   3.157
34899W        W 1682  16.988  29.130   0.242
34900W        W 1683  30.460  24.931  11.885
34901W        W 1684  24.455  25.938   3.182
34902W        W 1685  26.723   4.294  12.384
34903W        W 1686  30.181   2.402  12.847
34904W        W 1687   6.338   1.615   1.321
34905W        W 1688   7.816  13.043  11.534
34906W        W 1689  37.935  28.636  13.016
34907W        W 1690  31.937  38.287   2.471
34908W        W 1691  41.072   5.454  13.061
34909W        W 1692   2.760  11.965   4.128
34910W        W 1693  42.377  42.798   3.227
34911W        W 1694  24.788   1.762   0.421
34912W        W 1695   7.533  35.308  13.345
34913W        W 1696  14.297   9.207   1.792
34914W        W 1697  43.053  22.431   9.774
34915W        W 1698  38.625  33.918   1.470
34916W        W 1699  16.689  20.687  13.690
34917W        W 1700   4.854  32.932  10.686
34918W        W 1701  42.750  28.139   4.166
34919W        W 1702  17.835  20.660   1.000
34920W        W 1703  21.647  43.212   2.361
34921W        W 1704   2.393  33.009   4.109
34922W        W 1705  20.533  18.687   1.469
34923W        W 1706   4.775  43.308  14.472
34924W        W 1707   8.630  34.644  13.996
34925W        W 1708  29.260  19.204   3.695
34926W        W 1709  16.747   5.995   3.663
34927W        W 1710  13.434  29.038  10.574
34928W        W 1711  29.581  17.127   3.872
34929W        W 1712  38.756  21.142  13.970
34930W        W 1713  43.996   1.906   4.866
34931W        W 1714  40.818  36.474  14.463
34932W        W 1715   8.203  17.790  13.976
34933W        W 1716  27.505  43.600  13.582
34934W        W 1717  18.672  35.974  10.685
34935W        W 1718  43.105  15.379  13.062
34936W        W 1719  11.576  42.001  10.259
34937W        W 1720  36.009  22.642  10.548
34938W        W 1721  19.683   2.782  14.350
34939W        W 1722  28.814  36.519   0.828
34940W        W 1723  22.715  15.112  10.522
34941W        W 1724  41.234  22.701  10.480
34942W        W 1725  23.589  20.493   3.155
34943W        W 1726   9.201  35.029  10.840
34944W        W 1727  10.677  26.275  14.294
34945W        W 1728  40.258  34.470  11.959
34946W        W 1729  36.901  38.403   0.440
34947W        W 1730  22.036  37.141   2.661
34948W        W 1731  38.970  20.267   3.888
34949W        W 1732  22.094   0.758   4.547
34950W        W 1733  32.957  12.615   3.683
34951W        W 1734  31.494  28.167  10.668
34952W        W 1735  39.881  36.202   1.301
34953W        W 1736  29.802  44.347  13.983
34954W        W 1737  28.546  11.247   3.290
34955W        W 1738   1.526  43.831   4.724
34956W        W 1739  13.511   9.672   0.029
34957W        W 1740  15.416  43.087  10.317
34958W        W 1741  19.571  12.048  14.903
34959W        W 1742  31.367   6.205  11.166
34960W        W 1743  14.647   7.118  13.941
34961W        W 1744   5.257  37.051  13.889
34962W        W 1745  23.101  34.144   0.510
34963W        W 1746  35.879  27.740   2.884
34964W        W 1747   5.807   5.614   4.787
34965W        W 1748  27.194  39.019  13.049
34966W        W 1749  23.673  26.396   0.695
34967W        W 1750  18.204  39.181  10.102
34968W        W 1751  16.836  15.266   1.229
34969W        W 1752   4.232   1.052   4.110
34970W        W 1753  44.436   1.578  13.301
34971W        W 1754  34.444   4.717   3.538
34972W        W 1755  41.851  35.526  13.437
34973W        W 1756  41.719  42.330   1.004
34974W        W 1757  38.819  20.116  10.893
34975W        W 1758  13.875  31.421  11.673
34976W        W 1759  38.396  41.459   1.918
34977W        W 1760   6.717  23.322  14.467
34978W        W 1761  10.532  27.184   0.393
34979W        W 1762  10.385  22.046  13.898
34980W        W 1763  19.615  36.402   1.346
34981W        W 1764  30.130  23.981   0.467
34982W        W 1765  27.687  30.157   4.747
34983W        W 1766  13.832   8.169  14.926
34984W        W 1767  26.776  37.753   0.591
34985W        W 1768  14.198   6.537  10.825
34986W        W 1769   4.764  24.648  10.729
34987W        W 1770  42.966  23.018  12.067
34988W        W 1771  38.214  18.978  10.781
34989W        W 1772   4.281  38.242   3.711
34990W        W 1773  11.361  26.157   0.909
34991W        W 1774  35.485  10.645   9.572
34992W        W 1775  20.123   6.036   4.101
34993W        W 1776   6.047  28.975   3.630
34994W        W 1777  44.259  40.551  13.580
34995W        W 1778   0.085  29.566   0.734
34996W        W 1779  16.508  11.134   2.446
34997W        W 1780  27.098  22.738   1.617
34998W        W 1781  16.027  21.647   0.476
34999W        W 1782  31.407  41.007  10.697
35000W        W 1783   0.150  44.700  13.971
35001W        W 1784  42.848  44.270  11.513
35002W        W 1785  27.646  27.717  11.066
35003W        W 1786  32.103  44.948  10.608
35004W        W 1787   0.245  23.673  12.430
35005W        W 1788   8.720  40.302   5.253
35006W        W 1789  40.424  19.540  14.430
35007W        W 1790   7.823  22.362  12.643
35008W        W 1791  11.150  29.669   3.069
35009W        W 1792  25.794  16.524   4.487
35010W        W 1793  11.882  36.516  10.649
35011W        W 1794  17.298  27.673  11.661
35012W        W 1795  28.681   2.322  13.112
35013W        W 1796  43.385  39.755   0.853
35014W        W 1797   9.115   5.357  11.367
35015W        W 1798  19.063  14.145   1.061
35016W        W 1799  14.789   2.810   4.263
35017W        W 1800   1.852  27.095   1.911
35018W        W 1801  30.609  13.987   3.668
35019W        W 1802  16.269  31.459  14.940
35020W        W 1803  43.590  38.802   1.612
35021W        W 1804  36.664  10.197  14.972
35022W        W 1805  18.234  17.486  10.611
35023W        W 1806   4.240   4.257   4.360
35024W        W 1807  20.984  24.021  12.074
35025W        W 1808  31.418  10.205  12.568
35026W        W 1809  39.975  22.958   0.687
35027W        W 1810  15.237   5.582  11.094
35028W        W 1811   5.952  13.264   4.429
35029W        W 1812  27.569  19.641  10.554
35030W        W 1813  20.644  34.960  12.300
35031W        W 1814   3.910  24.585  14.045
35032W        W 1815   4.121  41.184   4.716
35033W        W 1816  22.275   9.871   0.994
35034W        W 1817  34.101  11.328  10.598
35035W        W 1818  30.513  17.104   4.330
35036W        W 1819  22.984  15.189  12.372
35037W        W 1820   8.513  18.727  11.045
35038W        W 1821  32.024  22.113  10.735
35039W        W 1822  26.698   0.477   4.366
35040W        W 1823  17.104   4.317  11.584
35041W        W 1824  24.673  25.447   3.168
35042W        W 1825  21.286  19.973   5.057
35043W        W 1826  27.030  42.448   3.881
35044W        W 1827  35.995  15.658   2.522
35045W        W 1828  41.801  33.191   5.125
35046W        W 1829  42.971  21.655  12.628
35047W        W 1830  34.041   5.784   9.908
35048W        W 1831  26.924   1.399  12.079
35049W        W 1832  13.714  19.928   4.102
35050W        W 1833  25.185  42.891  12.603
35051W        W 1834  17.658   7.430  12.803
35052W        W 1835  25.165   4.745   3.221
35053W        W 1836   0.486  19.867  11.949
35054W        W 1837  10.640  13.517  10.768
35055W        W 1838  37.402  32.827  11.091
35056W        W 1839  17.013  31.439   2.853
35057W        W 1840  43.914  43.826  14.439
35058W        W 1841   1.876  28.101  10.599
35059W        W 1842  21.784  19.639   2.652
35060W        W 1843  35.418  18.924  13.924
35061W        W 1844  40.426  11.322  10.871
35062W        W 1845  31.672  41.239   3.680
35063W        W 1846   3.395  34.006   2.203
35064W        W 1847  33.458  34.501  11.027
35065W        W 1848  29.993  23.273   1.558
35066W        W 1849  14.177  42.376   3.547
35067W        W 1850   8.476  11.650   0.949
35068W        W 1851  27.027  42.213  14.605
35069W        W 1852  16.325  13.009  10.685
35070W        W 1853  42.508  35.296  11.572
35071W        W 1854   2.909  31.395  12.702
35072W        W 1855  33.732  32.709   0.466
35073W        W 1856  40.908   5.989   5.394
35074W        W 1857   9.843   4.527   4.908
35075W        W 1858  37.771  40.299  10.847
35076W        W 1859  11.684  33.080   0.392
35077W        W 1860   7.015  29.104   0.734
35078W        W 1861  19.968  38.495  11.737
35079W        W 1862   5.010  36.985   4.724
35080W        W 1863  40.995   5.313   0.517
35081W        W 1864  11.141  36.651   1.401
35082W        W 1865  24.072  10.200   9.890
35083W        W 1866  12.079  21.254   4.209
35084W        W 1867  18.252  29.371   3.741
35085W        W 1868  38.937   1.727  13.881
35086W        W 1869  40.603  41.847  13.890
35087W        W 1870  19.095   1.796   4.719
35088W        W 1871  34.440  32.330   4.534
35089W        W 1872  20.222  22.672   1.770
35090W        W 1873  37.976  27.927   0.660
35091W        W 1874  32.274  13.104  13.631
35092W        W 1875  15.256   1.885   2.361
35093W        W 1876   3.372  14.614   0.783
35094W        W 1877  36.392  19.633   2.882
35095W        W 1878  24.683  29.490  12.372
35096W        W 1879  16.114  38.719  11.721
35097W        W 1880  12.318   9.272   4.480
35098W        W 1881   6.772  44.006  11.577
35099W        W 1882  16.763  18.787   0.405
35100W        W 1883   8.101   2.003  11.578
35101W        W 1884  40.310   5.577   4.904
35102W        W 1885  12.420  26.046   2.301
35103W        W 1886  41.153  26.225  11.929
35104W        W 1887  36.996  38.337   3.665
35105W        W 1888  13.478  40.185  10.187
35106W        W 1889  38.987  40.458  10.680
35107W        W 1890  39.544  23.473   3.719
35108W        W 1891  34.744  37.897  13.888
35109W        W 1892  14.618  36.909   0.851
35110W        W 1893  29.129  34.979   1.376
35111W        W 1894  30.149  20.601   4.619
35112W        W 1895  30.356  13.395   2.326
35113W        W 1896  11.701  21.266   9.757
35114W        W 1897  32.182  42.928  11.219
35115W        W 1898  38.975  42.556   1.603
35116W        W 1899  37.065  43.477   4.995
35117W        W 1900  24.688  29.562  13.591
35118W        W 1901  10.269  13.565  13.833
35119W        W 1902  20.722  17.251  10.688
35120W        W 1903  21.764   7.878  10.643
35121W        W 1904  20.333  18.793  11.151
35122W        W 1905  21.296  11.650   0.713
35123W        W 1906  35.986   8.690   4.685
35124W        W 1907  20.664  14.835  14.392
35125W        W 1908  16.855   9.746  13.122
35126W        W 1909  30.168   9.604  11.151
35127W        W 1910  27.773  35.427   3.252
35128W        W 1911   8.931  27.679   0.808
35129W        W 1912   1.852   5.958  11.898
35130W        W 1913  11.768   9.972   3.122
35131W        W 1914  38.502  44.289  12.544
35132W        W 1915  35.028  40.775  12.123
35133W        W 1916   8.932  17.630   3.197
35134W        W 1917  32.034  36.338   2.778
35135W        W 1918  41.449  42.783  12.426
35136W        W 1919  17.156  38.140  10.216
35137W        W 1920  12.822   0.192  12.063
35138W        W 1921  29.133  15.113  11.114
35139W        W 1922  10.184  22.150  10.710
35140W        W 1923   9.875  26.629  10.616
35141W        W 1924  32.241  28.413  13.453
35142W        W 1925   1.051  41.356  13.436
35143W        W 1926   4.907  40.751   0.159
35144W        W 1927  11.566   6.242  11.550
35145W        W 1928  14.681  37.559  11.523
35146W        W 1929  16.780  28.081  14.773
35147W        W 1930  44.923   5.121  12.918
35148W        W 1931   0.437   0.724  14.935
35149W        W 1932  11.331   5.866  11.104
35150W        W 1933  30.561  33.705   4.903
35151W        W 1934  41.910  40.549   5.150
35152W        W 1935  12.514  13.889   1.347
35153W        W 1936   8.780  40.754  10.674
35154W        W 1937  28.427  26.215  12.889
35155W        W 1938   3.454  14.831   3.939
35156W        W 1939  37.442  28.203  11.582
35157W        W 1940  22.502   5.792  14.455
35158W        W 1941  32.716  13.650  14.361
35159W        W 1942  35.456   1.248   3.640
35160W        W 1943  24.718   4.440  11.533
35161W        W 1944  10.795  18.355   4.515
35162W        W 1945  25.921  20.589   3.274
35163W        W 1946  36.818   4.277  13.911
35164W        W 1947  41.856  32.015  10.899
35165W        W 1948  37.562  30.578   0.469
35166W        W 1949   5.200   7.621   2.028
35167W        W 1950  13.865  22.606  13.084
35168W        W 1951  36.105   7.033  14.347
35169W        W 1952  39.633  36.384   0.909
35170W        W 1953  40.357   9.889   1.390
35171W        W 1954   3.747  31.601   3.434
35172W        W 1955  26.956  40.410  12.978
35173W        W 1956   5.618  18.803   3.385
35174W        W 1957  20.329  44.936   1.901
35175W        W 1958   4.338  40.522   1.291
35176W        W 1959  26.496  22.488   4.960
35177W        W 1960  43.034  43.128   0.605
35178W        W 1961  17.825  22.200  12.535
35179W        W 1962   3.353   3.824  14.880
35180W        W 1963   0.221  16.783   1.893
35181W        W 1964  29.681  39.338  10.585
35182W        W 1965  25.934  32.651  14.858
35183W        W 1966  39.410  13.737  11.063
35184W        W 1967   4.390   7.964   3.400
35185W        W 1968  31.950   5.490  12.185
35186W        W 1969  10.612  22.016   2.852
35187W        W 1970   6.705  20.808  12.446
35188W        W 1971   8.637  28.604   1.521
35189W        W 1972  21.535   5.280   2.229
35190W        W 1973  17.654   9.571  12.915
35191W        W 1974   2.258   9.974   1.258
35192W        W 1975   9.723  33.170   1.889
35193W        W 1976  21.197  36.068   2.789
35194W        W 1977  13.135  14.642  12.993
35195W        W 1978   7.013  25.443  11.642
35196W        W 1979  34.967  19.659   4.919
35197W        W 1980  20.034   0.498   0.507
35198W        W 1981  43.094   4.730   4.204
35199W        W 1982  41.990  29.834  14.747
35200W        W 1983  28.559   0.862  13.546
35201W        W 1984  19.689  26.951   2.948
35202W        W 1985   6.205  17.930  14.795
35203W        W 1986   5.295  28.663  12.547
35204W        W 1987   9.051   0.831  13.516
35205W        W 1988  36.072  42.965   0.733
35206W        W 1989  44.838  24.942   1.204
35207W        W 1990   9.680  30.572   1.725
35208W        W 1991  43.650  35.371   1.719
35209W        W 1992  31.542  42.671  11.709
35210W        W 1993   8.851  42.956   4.717
35211W        W 1994  36.365   1.213   4.606
35212W        W 1995  24.985  31.001  13.448
35213W        W 1996   1.935   6.180   3.109
35214W        W 1997  25.133   4.262   4.230
35215W        W 1998   1.324  17.808   0.358
35216W        W 1999  24.983   6.762   1.119
35217W        W 2000   5.744   5.390   3.825
35218W        W 2001  11.453   5.185  13.756
35219W        W 2002  39.822  16.204   0.823
35220W        W 2003   1.786  34.045   0.712
35221W        W 2004  32.201  39.159   4.331
35222W        W 2005   9.256  44.000  14.186
35223W        W 2006   9.126  10.919  10.238
35224W        W 2007   8.304  28.408  11.258
35225W        W 2008  33.393  32.121  14.870
35226W        W 2009  40.885  12.734   1.845
35227W        W 2010  37.037  37.929   0.741
35228W        W 2011  26.735  31.167   3.690
35229W        W 2012  43.177  36.257   5.073
35230W        W 2013  34.029  32.078   9.608
35231W        W 2014  12.284  32.896  10.603
35232W        W 2015  21.221  14.248   9.984
35233W        W 2016  19.592   4.159  11.541
35234W        W 2017  18.116   7.936  10.766
35235W        W 2018  20.622   7.693  14.796
35236W        W 2019  25.729  34.853  11.098
35237W        W 2020  35.410  36.505   4.544
35238W        W 2021  40.372  44.064   4.209
35239W        W 2022  27.728  17.745   0.988
35240W        W 2023  28.179  44.486   2.670
35241W        W 2024  28.420  32.445   2.250
35242W        W 2025   6.905   5.992   2.705
35243W        W 2026  20.661  29.062  12.139
35244W        W 2027  34.390  42.353  14.321
35245W        W 2028  33.584   9.924   0.766
35246W        W 2029  10.075  37.009   0.856
35247W        W 2030  15.069  37.036   2.322
35248W        W 2031  27.392  22.474   4.240
35249W        W 2032   9.268  26.079  13.658
35250W        W 2033  42.509  15.668  11.598
35251W        W 2034  16.691  23.496  13.849
35252W        W 2035  38.021  28.635  11.068
35253W        W 2036  30.891  19.675  10.628
35254W        W 2037  44.627  23.165   4.547
35255W        W 2038  36.918  38.850   0.737
35256W        W 2039  18.218  37.313  12.896
35257W        W 2040  13.129   8.842  12.488
35258W        W 2041  10.868  44.684  13.262
35259W        W 2042  22.297  31.179  12.131
35260W        W 2043  13.204  30.337  10.747
35261W        W 2044   3.946   5.758  14.058
35262W        W 2045  19.677  42.975  14.976
35263W        W 2046   2.387  28.827   0.327
35264W        W 2047  39.722  31.057   1.844
35265W        W 2048  25.979  15.054   3.192
35266W        W 2049  30.404  12.135   1.241
35267W        W 2050  16.528  18.746   1.462
35268W        W 2051  40.827  17.161  12.951
35269W        W 2052  13.849  11.367   4.122
35270W        W 2053  36.384  20.455   2.429
35271W        W 2054  42.028   7.313   0.465
35272W        W 2055  43.600  37.425  13.931
35273W        W 2056   2.795  30.122   1.937
35274W        W 2057  18.563  18.755   1.338
35275W        W 2058   7.099  30.896  11.523
35276W        W 2059  20.084   9.781  10.675
35277W        W 2060  23.337  13.350   0.960
35278W        W 2061  29.075   7.718  11.075
35279W        W 2062  34.001  29.138  12.599
35280W        W 2063   5.399  32.896   1.749
35281W        W 2064   7.346   9.860  13.680
35282W        W 2065  40.417   1.894  12.980
35283W        W 2066   6.451  14.457   0.047
35284W        W 2067  19.371  14.584   1.010
35285W        W 2068   8.224   8.413  11.756
35286W        W 2069  26.153   9.971  12.916
35287W        W 2070  34.556  23.505  12.106
35288W        W 2071  13.285  28.646  13.082
35289W        W 2072  27.149   4.725   3.705
35290W        W 2073   1.462  31.362   1.031
35291W        W 2074  23.103  21.332  11.186
35292W        W 2075  14.202  27.065  10.861
35293W        W 2076   3.298  43.306   5.192
35294W        W 2077  21.847   7.658  11.519
35295W        W 2078  11.778  21.461   5.095
35296W        W 2079  26.374  18.813  12.972
35297W        W 2080  27.482  21.449   4.101
35298W        W 2081   7.038  23.256   3.382
35299W        W 2082  43.510   6.404   2.294
35300W        W 2083  20.452  37.958  12.723
35301W        W 2084  34.513   8.904  14.510
35302W        W 2085   6.521  22.709  12.148
35303W        W 2086   3.171   6.081   2.010
35304W        W 2087   4.828  25.972  12.986
35305W        W 2088  27.444  28.040   4.637
35306W        W 2089  14.237  14.033  13.390
35307W        W 2090  28.519  32.050   1.584
35308W        W 2091  34.570  12.870  13.027
35309W        W 2092  44.341  29.669  11.114
35310W        W 2093  21.484   8.692   3.575
35311W        W 2094   9.405  26.993   2.863
35312W        W 2095  26.992   9.185   2.922
35313W        W 2096  43.845   3.929  14.417
35314W        W 2097  37.502  32.930  12.450
35315W        W 2098  23.681  23.929   3.747
35316W        W 2099   8.901  27.122   4.381
35317W        W 2100  13.608  24.575   3.389
35318W        W 2101  21.027  14.101  13.421
35319W        W 2102  28.461   0.860  12.149
35320W        W 2103  12.563  44.823   2.316
35321W        W 2104  38.734   7.171  13.509
35322W        W 2105  24.215  41.001   1.302
35323W        W 2106  28.558  35.190   2.787
35324W        W 2107  36.574   2.225   2.819
35325W        W 2108  18.818  33.400  12.438
35326W        W 2109  37.088  35.424  14.780
35327W        W 2110  14.070  10.858  12.013
35328W        W 2111  13.799   9.711  14.073
35329W        W 2112   3.501  22.714   1.694
35330W        W 2113  32.202  32.935  14.211
35331W        W 2114  29.357  28.337  10.143
35332W        W 2115  39.055  23.624   3.718
35333W        W 2116  30.017  11.129   0.911
35334W        W 2117  13.487  12.312   4.149
35335W        W 2118  42.216  15.523  13.175
35336W        W 2119  15.197  12.310   3.508
35337W        W 2120  22.614  13.167   4.495
35338W        W 2121  36.890  36.173   1.328
35339W        W 2122  31.505  44.750   1.893
35340W        W 2123  39.529  35.145  13.382
35341W        W 2124  17.271  34.813   5.037
35342W        W 2125  10.302  15.973  12.448
35343W        W 2126  23.182  12.059  12.920
35344W        W 2127   6.977  19.508   1.898
35345W        W 2128  14.570  20.115  11.414
35346W        W 2129   3.963   8.121   2.369
35347W        W 2130  37.308  17.254   2.753
35348W        W 2131  28.348  41.590  11.517
35349W        W 2132  15.076   0.309   3.333
35350W        W 2133  28.938  20.310  14.806
35351W        W 2134  26.345  30.889   4.324
35352W        W 2135  23.081  36.258  13.662
35353W        W 2136  42.485  10.632  10.415
35354W        W 2137  17.230   2.758  10.899
35355W        W 2138  19.648  35.996   2.280
35356W        W 2139  10.621   6.795  13.862
35357W        W 2140  31.146   0.687   2.729
35358W        W 2141   7.965  33.375   2.164
35359W        W 2142  43.824  30.381  12.366
35360W        W 2143   0.501  22.176  14.854
35361W        W 2144  16.602   8.182  14.348
35362W        W 2145   0.381  28.678   3.241
35363W        W 2146  29.082  10.064  14.789
35364W        W 2147  41.556   7.443  14.410
35365W        W 2148  30.868  42.535   3.652
35366W        W 2149   9.683  21.396   1.949
35367W        W 2150  19.373   1.099  13.401
35368W        W 2151  21.403  33.274  11.064
35369W        W 2152  21.050  41.976  11.068
35370W        W 2153  20.267  39.446   2.178
35371W        W 2154  36.378  35.022  14.252
35372W        W 2155  13.100   6.781  14.538
35373W        W 2156  15.323  40.969   2.794
35374W        W 2157  38.505  40.985   3.276
35375W        W 2158  15.718  10.661   2.833
35376W        W 2159  14.630   4.415   3.398
35377W        W 2160  37.435   3.042   4.869
35378W        W 2161   2.254  15.291   2.636
35379W        W 2162  41.959  32.630   3.084
35380W        W 2163  34.599  11.286  10.381
35381W        W 2164   8.063   0.124  13.857
35382W        W 2165  19.536  44.625   3.872
35383W        W 2166  43.735  33.434  13.756
35384W        W 2167   7.332  43.143  11.976
35385W        W 2168  11.355  25.060  14.811
35386W        W 2169   4.409  32.454  11.008
35387W        W 2170   7.248  20.503  11.637
35388W        W 2171  22.872  27.075   4.397
35389W        W 2172  42.373  24.276  12.894
35390W        W 2173  33.206  39.522   0.265
35391W        W 2174  27.693  21.716  13.484
35392W        W 2175  41.758   8.699  14.029
35393W        W 2176   5.226   4.064   3.309
35394W        W 2177   3.266  12.803  13.514
35395W        W 2178  16.396  40.012  12.612
35396W        W 2179   8.423   4.344  12.871
35397W        W 2180  13.716  30.938   0.843
35398W        W 2181  21.590   3.694  13.081
35399W        W 2182  41.057  11.089   1.700
35400W        W 2183  16.021   8.752  10.617
35401W        W 2184   5.792  42.353  11.673
35402W        W 2185  41.303   2.941  11.970
35403W        W 2186  26.700  39.287   5.603
35404W        W 2187   7.514  10.265   4.133
35405W        W 2188  22.192  12.864  13.867
35406W        W 2189  43.587  34.710  13.439
35407W        W 2190  35.038  10.714   1.019
35408W        W 2191  26.035  18.188  14.829
35409W        W 2192  43.493  26.178  11.647
35410W        W 2193  39.864   0.725  13.108
35411W        W 2194  42.887   7.536   3.136
35412W        W 2195  37.004  11.125  11.444
35413W        W 2196  44.771  16.780   4.847
35414W        W 2197  24.004  26.982   2.779
35415W        W 2198  32.665  13.669  10.674
35416W        W 2199  33.118  11.854   4.231
35417W        W 2200  31.790  33.610   3.117
35418W        W 2201  35.967   3.204  12.069
35419W        W 2202   9.597  10.186   1.781
35420W        W 2203  41.598  34.394   0.198
35421W        W 2204  44.467   1.355  14.294
35422W        W 2205  22.979  20.346  10.672
35423W        W 2206   3.945  10.352   4.846
35424W        W 2207  22.784  11.895  11.663
35425W        W 2208  11.495  14.134  13.807
35426W        W 2209   2.740  43.307   2.313
35427W        W 2210  31.075  10.653   0.720
35428W        W 2211   7.851  20.625   3.686
35429W        W 2212  40.810  37.867  14.775
35430W        W 2213  11.262  41.510  11.403
35431W        W 2214  34.099  36.111  14.670
35432W        W 2215   8.886  27.697  11.424
35433W        W 2216   2.327   0.918  12.390
35434W        W 2217   0.441  35.328  11.117
35435W        W 2218  37.487  32.401   0.828
35436W        W 2219   4.285  41.957   1.872
35437W        W 2220  34.365  44.217  10.824
35438W        W 2221  28.873  36.395   2.672
35439W        W 2222  41.949  16.643  14.461
35440W        W 2223  27.743  39.413   0.423
35441W        W 2224  10.754  22.213  11.457
35442W        W 2225  21.676  28.752  13.480
35443W        W 2226  16.203  29.170  14.906
35444W        W 2227   8.856  35.848   0.722
35445W        W 2228   6.302  24.423  12.881
35446W        W 2229  40.419   3.615   0.936
35447W        W 2230  43.196  14.871  13.003
35448W        W 2231   3.800  12.916   0.438
35449W        W 2232  24.472  42.395  11.112
35450W        W 2233  27.522   4.226   0.255
35451W        W 2234  25.696  42.803  12.369
35452W        W 2235  37.953  17.356  13.145
35453W        W 2236  42.744  20.799   4.594
35454W        W 2237   0.683   7.238  14.777
35455W        W 2238   1.868  29.960   4.702
35456W        W 2239  44.861   4.208   2.935
35457W        W 2240  44.730  44.342  13.532
35458W        W 2241  42.650  12.909  12.822
35459W        W 2242  27.641   3.934  11.539
35460W        W 2243  19.841  11.267  11.073
35461W        W 2244  24.231  32.828   3.586
35462W        W 2245   9.020  20.148  10.734
35463W        W 2246  13.722  31.070   2.473
35464W        W 2247  31.612  26.150  11.629
35465W        W 2248  44.331   3.994  14.809
35466W        W 2249  25.812  41.975  12.047
35467W        W 2250  29.082  31.984  12.777
35468W        W 2251  17.307   1.715   0.768
35469W        W 2252  14.744   6.286   4.414
35470W        W 2253   9.798  10.507  14.994
35471W        W 2254  11.400   8.249  11.696
35472W        W 2255   5.624   6.202  13.933
35473W        W 2256  11.093   1.247   3.704
35474W        W 2257  17.588  30.465  14.758
35475W        W 2258  23.245  13.216   3.819
35476W        W 2259   8.954  42.392   0.508
35477W        W 2260   7.304   9.753   0.049
35478W        W 2261  19.753  34.597   0.810
35479W        W 2262  10.786  26.124   3.197
35480W        W 2263  15.963  41.996   2.751
35481W        W 2264  10.978  15.095  13.585
35482W        W 2265  19.044   0.836   3.234
35483W        W 2266   3.284  26.143  12.171
35484W        W 2267  42.845   3.431  12.672
35485W        W 2268  14.201  26.108  12.652
35486W        W 2269  15.841  36.775   2.738
35487W        W 2270  22.536  20.858  12.195
35488W        W 2271  36.444  40.200   2.260
35489W        W 2272  31.593  16.879  12.558
35490W        W 2273  18.251  18.877  11.059
35491W        W 2274   5.281  23.321   0.965
35492W        W 2275   6.367  33.117   0.811
35493W        W 2276  10.080  27.560  12.052
35494W        W 2277  22.043   7.380   2.348
35495W        W 2278  30.615   0.453  13.785
35496W        W 2279  37.725   1.921   1.422
35497W        W 2280  41.138  35.820   1.747
35498W        W 2281   9.500  35.009   4.337
35499W        W 2282  44.190  12.308  14.945
35500W        W 2283  24.693   1.265   0.540
35501W        W 2284  43.404  19.956  13.502
35502W        W 2285  18.376  41.820  12.442
35503W        W 2286   9.769   4.291  13.988
35504W        W 2287   0.364  19.448   0.332
35505W        W 2288  17.275  35.894   4.992
35506W        W 2289  13.838  19.260  12.030
35507W        W 2290   0.037  24.731   1.682
35508W        W 2291   2.530  11.303   1.156
35509W        W 2292  31.579   3.986   4.305
35510W        W 2293   4.760   6.118   2.357
35511W        W 2294  44.739  27.048  14.911
35512W        W 2295  15.042   3.372  11.489
35513W        W 2296  20.004   1.499   1.368
35514W        W 2297  39.804  37.835  13.566
35515W        W 2298  21.704  34.738   1.210
35516W        W 2299  21.355  40.316  13.082
35517W        W 2300  12.968  19.570   1.565
35518W        W 2301  31.334  33.190   1.877
35519W        W 2302   8.667  21.664   2.608
35520W        W 2303  30.138  19.600   0.738
35521W        W 2304  18.984  15.593  11.519
35522W        W 2305   5.409  11.194  13.470
35523W        W 2306  13.591  41.594  14.827
35524W        W 2307  21.717  13.869   3.769
35525W        W 2308  17.392   7.360  10.695
35526W        W 2309  35.531  42.259  14.526
35527W        W 2310  13.821  33.991   3.953
35528W        W 2311   0.428  24.900   2.173
35529W        W 2312   8.685  33.415  10.482
35530W        W 2313   6.738  24.783  14.086
35531W        W 2314  14.262  34.876  14.349
35532W        W 2315  19.074  44.695  12.804
35533W        W 2316  31.463  19.722  11.680
35534W        W 2317  25.963  29.611   2.701
35535W        W 2318   1.019  12.484   4.859
35536W        W 2319  13.079  32.904  13.498
35537W        W 2320   3.811  35.937  14.292
35538W        W 2321   5.180   8.742  12.924
35539W        W 2322  42.889  44.070   0.303
35540W        W 2323   8.552  40.835  12.105
35541W        W 2324   2.979  35.395  12.491
35542W        W 2325  35.807  37.056   2.247
35543W        W 2326  13.639  44.524  13.565
35544W        W 2327   9.734  19.097   2.875
35545W        W 2328  38.409  35.916  14.753
35546W        W 2329  14.924  30.167   4.443
35547W        W 2330   2.034  25.448  12.054
35548W        W 2331  34.952  41.453  14.286
35549W        W 2332  27.890  29.344   1.848
35550W        W 2333  11.572   8.206  13.933
35551W        W 2334  18.011   1.995  14.427
35552W        W 2335  38.303  22.011  13.929
35553W        W 2336  37.071   2.155   2.871
35554W        W 2337  44.303  34.540   9.933
35555W        W 2338  25.219  34.589   2.437
35556W        W 2339  33.139  44.501  11.130
35557W        W 2340  29.642  18.678  12.123
35558W        W 2341  11.427  40.955   2.331
35559W        W 2342  16.702  21.289  10.724
35560W        W 2343  15.606   9.756  13.924
35561W        W 2344  12.128  11.678  10.506
35562W        W 2345  40.975  15.339   3.758
35563W        W 2346  24.190   9.350   2.216
35564W        W 2347   5.994  27.529  11.783
35565W        W 2348   3.318  22.665   0.718
35566W        W 2349  20.312  33.401   3.857
35567W        W 2350   1.937  18.707  13.420
35568W        W 2351  15.067   8.790  13.439
35569W        W 2352  16.255  22.472   3.826
35570W        W 2353   1.175  43.305  14.470
35571W        W 2354  29.590  33.381  10.542
35572W        W 2355  35.291  20.170  13.460
35573W        W 2356  20.842   6.321  11.855
35574W        W 2357   3.100   6.130   3.836
35575W        W 2358   4.265  30.030   2.293
35576W        W 2359  26.409  11.398  14.382
35577W        W 2360  15.729  10.656   1.331
35578W        W 2361  41.054  25.984   1.294
35579W        W 2362   1.906  34.762  11.620
35580W        W 2363  23.951  35.058  14.162
35581W        W 2364  10.115  33.891  12.438
35582W        W 2365  23.052  10.896  14.307
35583W        W 2366  13.347  42.454  14.566
35584W        W 2367  40.556  38.005   4.143
35585W        W 2368   7.694  32.330   3.266
35586W        W 2369  14.305  34.597  13.889
35587W        W 2370  24.731   7.181   0.883
35588W        W 2371  11.169  36.108   2.188
35589W        W 2372  40.785  20.076   2.453
35590W        W 2373  44.675  10.303   3.447
35591W        W 2374   0.433  28.836   0.478
35592W        W 2375   9.779  11.080   3.192
35593W        W 2376   9.800  23.159  14.533
35594W        W 2377  41.945  35.522   4.381
35595W        W 2378  42.026  23.008  10.025
35596W        W 2379  32.700   4.908  12.471
35597W        W 2380   4.346  32.513  12.021
35598W        W 2381  31.641  42.389  11.070
35599W        W 2382  39.430  13.882   1.308
35600W        W 2383  13.896  14.088   0.461
35601W        W 2384  25.635  12.035  13.900
35602W        W 2385   5.370  30.734   4.108
35603W        W 2386  33.845  29.108   2.882
35604W        W 2387  11.530   1.029  11.211
35605W        W 2388  43.629  15.081   0.503
35606W        W 2389  42.148  14.702  11.548
35607W        W 2390  24.174  24.776   1.790
35608W        W 2391   9.843  25.493   0.329
35609W        W 2392  41.511  17.750  13.976
35610W        W 2393  28.635  43.102  10.304
35611W        W 2394  32.886  10.671  13.611
35612W        W 2395  22.092  43.589  14.188
35613W        W 2396  39.013  12.039  11.911
35614W        W 2397  17.006  24.726   1.464
35615W        W 2398  27.073  27.886   0.417
35616W        W 2399   6.337  40.793  12.820
35617W        W 2400  20.665   1.348  13.344
35618W        W 2401  38.764  34.012   3.751
35619W        W 2402  10.792  38.438   2.193
35620W        W 2403  17.701   4.817   4.481
35621W        W 2404  31.875   5.980   2.316
35622W        W 2405  14.373  14.053  12.438
35623W        W 2406  26.249  21.432  14.169
35624W        W 2407   4.378  13.036   3.739
35625W        W 2408   7.422  19.956   0.498
35626W        W 2409  15.046  20.463  12.492
35627W        W 2410   9.227   2.697   2.671
35628W        W 2411   0.505  19.153   2.793
35629W        W 2412  24.569  17.754  11.463
35630W        W 2413  15.176  31.929   2.847
35631W        W 2414   3.880  15.286  12.989
35632W        W 2415  17.739  44.391   2.769
35633W        W 2416  12.477   1.074   1.428
35634W        W 2417  21.752   6.208   0.821
35635W        W 2418   3.829   7.797  14.868
35636W        W 2419  27.122  21.406  13.860
35637W        W 2420  10.609  38.819  14.145
35638W        W 2421   9.870  20.678  14.251
35639W        W 2422  36.548  20.692  11.481
35640W        W 2423  36.520  17.704  12.946
35641W        W 2424  44.684  15.160   0.266
35642W        W 2425  23.076  24.065   0.005
35643W        W 2426  15.632  26.567  11.959
35644W        W 2427  15.325   9.201  10.633
35645W        W 2428   4.295  14.591   0.059
35646W        W 2429  11.693  20.683  10.117
35647W        W 2430  14.024  12.303  12.807
35648W        W 2431  12.321  20.538  10.857
35649W        W 2432   1.921  44.461   3.177
35650W        W 2433   7.367   6.277   2.593
35651W        W 2434  31.441  42.347   4.547
35652W        W 2435   0.779  10.899  10.297
35653W        W 2436  31.921  18.444  13.496
35654W        W 2437  19.889  27.969  13.265
35655W        W 2438   5.010   7.683  12.029
35656W        W 2439  35.341  44.883   3.995
35657W        W 2440   3.951  24.247  13.033
35658W        W 2441  30.016  23.101   9.480
35659W        W 2442  31.635   1.322  13.655
35660W        W 2443  32.494   4.659   2.740
35661W        W 2444  10.213  26.663  12.865
35662W        W 2445  21.950   5.290   3.167
35663W        W 2446  23.257  34.196  13.075
35664W        W 2447   6.052  33.047  10.994
35665W        W 2448  37.321   4.401  11.229
35666W        W 2449  26.422  40.276  11.272
35667W        W 2450  10.224  26.520   2.744
35668W        W 2451  35.456  31.191   4.513
35669W        W 2452  42.525  17.774  10.262
35670W        W 2453  18.273  39.052   4.728
35671W        W 2454  36.989  10.705  13.401
35672W        W 2455  29.671   0.265   4.094
35673W        W 2456  42.079  27.356  14.766
35674W        W 2457  12.119  38.061  12.880
35675W        W 2458  41.951  34.015   2.650
35676W        W 2459  27.969  37.982   0.304
35677W        W 2460  41.043  17.239  12.452
35678W        W 2461  24.615  34.281  12.939
35679W        W 2462  43.922  13.683  12.068
35680W        W 2463  43.256   5.927   4.540
35681W        W 2464  38.904  40.351   1.897
35682W        W 2465  43.300  43.164  14.413
35683W        W 2466  31.652  28.992   3.837
35684W        W 2467  15.732  15.177   9.968
35685W        W 2468   8.362  37.969  12.459
35686W        W 2469  33.122  26.513   4.641
35687W        W 2470  30.049  14.875  14.050
35688W        W 2471  10.679  17.554   2.949
35689W        W 2472   0.440  34.516   3.263
35690W        W 2473   3.199  26.072   2.075
35691W        W 2474   3.948  26.915  13.039
35692W        W 2475  34.518  26.681   2.881
35693W        W 2476  34.217  26.721  10.553
35694W        W 2477  11.819   2.755  13.404
35695W        W 2478  17.232   4.471   0.426
35696W        W 2479  18.513  39.312   3.623
35697W        W 2480  28.490  42.045   4.452
35698W        W 2481  24.742  13.657   1.720
35699W        W 2482  18.539  21.737   3.648
35700W        W 2483  15.017  13.691  12.483
35701W        W 2484  26.661  24.963  11.164
35702W        W 2485   2.782   1.823   1.195
35703W        W 2486  17.620  22.951  13.810
35704W        W 2487   9.258   0.112   4.156
35705W        W 2488   4.517  27.672   3.597
35706W        W 2489   6.840  23.601  12.066
35707W        W 2490   4.866  25.980   2.470
35708W        W 2491  43.708  28.546  14.404
35709W        W 2492   3.880  32.866   3.440
35710W        W 2493  24.402  22.175   3.224
35711W        W 2494  43.571  13.672   0.196
35712W        W 2495  30.366  31.649  11.714
35713W        W 2496   3.763  31.889  14.050
35714W        W 2497  39.513  39.037   3.280
35715W        W 2498  41.026  21.994  14.996
35716W        W 2499  38.899  38.456   0.663
35717W        W 2500   6.372  33.210   9.964
35718W        W 2501  14.060  26.389  11.940
35719W        W 2502  37.485   6.669  11.904
35720W        W 2503  43.021  27.654  12.505
35721W        W 2504  37.895  26.527   2.212
35722W        W 2505  25.260  33.584   3.989
35723W        W 2506   8.884  26.971   1.387
35724W        W 2507   4.618  11.293  10.150
35725W        W 2508  17.775  17.911   4.931
35726W        W 2509  31.576  40.902   4.577
35727W        W 2510  15.557  11.682   3.224
35728W        W 2511   5.499  38.809   1.403
35729W        W 2512  35.693  36.661   3.201
35730W        W 2513  35.498  23.530  13.129
35731W        W 2514  12.257  36.043   4.019
35732W        W 2515   7.436  38.735   1.262
35733W        W 2516  15.121  24.676  14.571
35734W        W 2517  17.638   5.597   1.675
35735W        W 2518  43.634   0.039  13.002
35736W        W 2519  34.865  25.757   4.966
35737W        W 2520  33.974  32.105   3.692
35738W        W 2521  33.793  39.993  12.089
35739W        W 2522   9.142  22.388   1.287
35740W        W 2523  24.139  43.904   1.562
35741W        W 2524   6.118  35.437   2.113
35742W        W 2525  31.839  23.680   0.281
35743W        W 2526  31.731   9.094   2.800
35744W        W 2527  33.854  38.551  12.972
35745W        W 2528  30.866   3.884  11.525
35746W        W 2529  35.123  27.413   4.035
35747W        W 2530  28.036  23.907  13.072
35748W        W 2531  29.626  16.649  12.487
35749W        W 2532   6.443  27.182  14.863
35750W        W 2533  28.928  40.304   9.834
35751W        W 2534  12.361  43.874  13.800
35752W        W 2535  28.668  39.802   5.000
35753W        W 2536  34.482  43.918  12.972
35754W        W 2537   7.266  27.928  13.493
35755W        W 2538  43.261  23.663  10.433
35756W        W 2539  26.006  41.704   2.608
35757W        W 2540  44.519  19.574   4.578
35758W        W 2541  37.946  42.757   5.013
35759W        W 2542  44.874   8.320  12.871
35760W        W 2543  31.449   8.806   3.629
35761W        W 2544  43.334   1.298   0.872
35762W        W 2545   6.678  17.584  13.523
35763W        W 2546  44.380  18.973  11.510
35764W        W 2547   4.434  38.544   2.862
35765W        W 2548  34.527  19.656   3.703
35766W        W 2549  44.467   3.327  11.140
35767W        W 2550  23.190   1.297  14.002
35768W        W 2551  14.692  14.846   3.134
35769W        W 2552  18.839  13.266  14.011
35770W        W 2553  25.553  14.068   4.575
35771W        W 2554  34.817  13.122   4.096
35772W        W 2555   0.721   4.430  14.766
35773W        W 2556  12.255  36.627   4.474
35774W        W 2557  11.663  20.031   1.208
35775W        W 2558  34.991  41.184   2.146
35776W        W 2559  43.258  23.006   0.448
35777W        W 2560  43.052  42.413   2.267
35778W        W 2561  39.869  21.006   0.311
35779W        W 2562  18.475  32.615   3.277
35780W        W 2563  34.434   7.774   1.511
35781W        W 2564  40.320  41.391  13.978
35782W        W 2565  26.541  35.332  13.554
35783W        W 2566  39.735   1.610   2.829
35784W        W 2567  23.264  40.561  14.355
35785W        W 2568   2.914   2.444  14.923
35786W        W 2569   6.162  18.850   3.204
35787W        W 2570  20.250  11.741   2.832
35788W        W 2571  20.608  20.693   2.140
35789W        W 2572  30.823  28.555   2.312
35790W        W 2573   3.345  25.472   3.130
35791W        W 2574  39.931  27.492   1.393
35792W        W 2575  27.232  11.123  12.994
35793W        W 2576   5.866   8.897   1.713
35794W        W 2577  28.397  25.716  13.769
35795W        W 2578   1.686   8.740   4.745
35796W        W 2579  31.506  16.923   3.778
35797W        W 2580  26.646  32.085   0.318
35798W        W 2581  16.565  43.490   4.279
35799W        W 2582  16.809  24.721  14.811
35800W        W 2583  33.566  26.344   0.677
35801W        W 2584  21.698  38.128  13.233
35802W        W 2585  19.739   0.481   3.162
35803W        W 2586  26.698  10.026   4.549
35804W        W 2587  43.226  28.176  10.966
35805W        W 2588  10.244   1.467  13.400
35806W        W 2589  18.474  38.498  13.455
35807W        W 2590  29.439  13.165   0.495
35808W        W 2591  39.990  39.016   3.485
35809W        W 2592  36.977   2.012  14.312
35810W        W 2593  16.692  26.152   0.371
35811W        W 2594  40.547  16.575  14.722
35812W        W 2595  37.369  31.013   4.998
35813W        W 2596  37.912   1.166   0.951
35814W        W 2597  19.075  30.446  11.282
35815W        W 2598  16.564   3.658   2.154
35816W        W 2599  18.077  11.887   1.366
35817W        W 2600  22.372  31.955  14.675
35818W        W 2601  44.511   7.387  12.590
35819W        W 2602   2.474   1.900  10.740
35820W        W 2603  25.800  43.461  12.822
35821W        W 2604  25.113  10.447   2.445
35822W        W 2605   3.891  36.890  14.540
35823W        W 2606   7.868   7.959   1.629
35824W        W 2607  10.430   5.164  14.726
35825W        W 2608  15.431  30.043   3.202
35826W        W 2609  16.671  38.550   4.783
35827W        W 2610   0.875  11.589  11.541
35828W        W 2611   2.482  16.723  11.601
35829W        W 2612  21.258   9.852  14.486
35830W        W 2613  31.605  15.423  13.138
35831W        W 2614   8.419  27.675  11.610
35832W        W 2615  40.468  15.414  10.772
35833W        W 2616  38.336  39.791   0.434
35834W        W 2617  28.498  16.194   2.880
35835W        W 2618  18.510   9.641  13.138
35836W        W 2619   3.935  34.607   2.650
35837W        W 2620  41.948  15.940  13.018
35838W        W 2621  25.921  11.897   4.250
35839W        W 2622  39.810   0.252  10.903
35840W        W 2623  38.557   6.407   4.871
35841W        W 2624  31.269  28.694  13.416
35842W        W 2625   1.870  21.818  14.582
35843W        W 2626  28.470  20.317   2.154
35844W        W 2627  41.324  16.542   3.811
35845W        W 2628  22.977  18.235  14.810
35846W        W 2629  34.905  26.355   4.114
35847W        W 2630   2.741  43.237   5.016
35848W        W 2631  21.316  10.746  11.033
35849W        W 2632  35.258   1.496  11.549
35850W        W 2633  41.905  19.440   4.677
35851W        W 2634  15.199  19.038   3.862
35852W        W 2635  25.694  30.977   2.700
35853W        W 2636  14.688  13.853   3.941
35854W        W 2637  24.230  31.005  11.109
35855W        W 2638  22.986  21.207   0.408
35856W        W 2639  35.208  42.827   0.620
35857W        W 2640  41.397  36.814   1.336
35858W        W 2641  19.563  25.067   4.932
35859W        W 2642  38.349   9.119  10.388
35860W        W 2643  14.126   6.935  10.473
35861W        W 2644  28.487  41.183  10.699
35862W        W 2645  40.216  21.589   0.997
35863W        W 2646  26.609  19.589  11.407
35864W        W 2647  16.714  33.844  13.341
35865W        W 2648  23.304  44.329   4.250
35866W        W 2649  17.605  28.566   4.476
35867W        W 2650  26.094  18.885   1.652
35868W        W 2651  23.783  43.480  14.047
35869W        W 2652  44.024  39.336  13.239
35870W        W 2653   5.474  35.049  10.264
35871W        W 2654  27.385   5.703  10.828
35872W        W 2655   0.908  15.433  14.785
35873W        W 2656   9.673  15.709  14.914
35874W        W 2657  22.599  28.659  12.253
35875W        W 2658   6.591  43.731  13.642
35876W        W 2659   1.404  10.830   3.171
35877W        W 2660  35.805  33.993  10.965
35878W        W 2661  32.066  19.983   2.246
35879W        W 2662  13.494  18.157   3.172
35880W        W 2663  24.021  30.892  11.555
35881W        W 2664  24.664  20.985   2.816
35882W        W 2665  44.752   9.108   2.763
35883W        W 2666  26.173  44.346  14.011
35884W        W 2667  31.895  17.704  12.767
35885W        W 2668  38.811  24.010  14.404
35886W        W 2669  16.305  14.144  12.416
35887W        W 2670  38.956  25.482   1.112
35888W        W 2671  35.819  33.438  12.487
35889W        W 2672  31.630  24.676   2.307
35890W        W 2673  42.884  21.420  10.132
35891W        W 2674  32.421  23.798  14.493
35892W        W 2675  41.324  39.373   0.983
35893W        W 2676  32.154  11.261  14.351
35894W        W 2677  20.672  18.565   2.309
35895W        W 2678  31.387   8.308   5.080
35896W        W 2679  17.170   8.727  10.682
35897W        W 2680  13.921  33.518  11.834
35898W        W 2681  35.443  38.562   3.927
35899W        W 2682  33.483  28.890   4.784
35900W        W 2683  39.390  14.422  10.865
35901W        W 2684  23.542  37.819   2.027
35902W        W 2685   0.915  22.523   3.731
35903W        W 2686  32.425  10.603   4.972
35904W        W 2687  39.951  13.231  14.267
35905W        W 2688   9.644  17.297   3.708
35906W        W 2689  18.627  11.236   0.977
35907W        W 2690  14.770  43.864   1.041
35908W        W 2691  15.244  43.049  11.758
35909W        W 2692   2.484  33.036  11.626
35910W        W 2693  44.101   3.221  12.918
35911W        W 2694   4.158  31.176   4.404
35912W        W 2695  24.398   1.876  11.503
35913W        W 2696  18.981  33.876   0.961
35914W        W 2697  22.989   3.369   0.337
35915W        W 2698  35.745  36.423  12.864
35916W        W 2699  37.014  40.045  12.503
35917W        W 2700  13.451   8.962   0.276
35918W        W 2701   4.180  26.322  11.809
35919W        W 2702  44.320   2.342   0.971
35920W        W 2703  29.186  12.308  11.618
35921W        W 2704   4.799   9.066   2.713
35922W        W 2705  25.515  29.565  13.883
35923W        W 2706  40.509   9.629   3.931
35924W        W 2707  17.824  28.331   2.302
35925W        W 2708  41.814  40.444  10.340
35926W        W 2709  37.452   9.135   2.735
35927W        W 2710  39.988  18.792   3.233
35928W        W 2711   6.557   7.670  11.094
35929W        W 2712  26.922  23.854  12.891
35930W        W 2713  37.324  14.777   2.419
35931W        W 2714   3.213   7.379   1.190
35932W        W 2715  33.703  29.716   0.896
35933W        W 2716   1.416   2.020   0.919
35934W        W 2717  13.768  11.893   4.123
35935W        W 2718   4.018  10.387   1.953
35936W        W 2719  26.622   5.433   0.007
35937W        W 2720  33.488  35.939  10.893
35938W        W 2721  33.528  36.523   4.414
35939W        W 2722   7.694  32.329  10.705
35940W        W 2723  10.401   6.688   1.173
35941W        W 2724  24.559   6.754  11.517
35942W        W 2725   5.025  27.683  14.645
35943W        W 2726  29.374  24.572  11.000
35944W        W 2727  20.527  43.797   0.861
35945W        W 2728  11.650   8.387  12.905
35946W        W 2729  17.037  27.049  12.464
35947W        W 2730   0.910  37.319  13.447
35948W        W 2731  21.462  32.045   9.922
35949W        W 2732   1.662  11.044  11.752
35950W        W 2733  17.751  20.976  12.852
35951W        W 2734  31.961  40.046   4.174
35952W        W 2735   6.379   4.014  10.652
35953W        W 2736  27.293  23.558   4.599
35954W        W 2737  39.515  14.351  12.168
35955W        W 2738   8.345  44.815  12.490
35956W        W 2739  33.408  31.359  13.949
35957W        W 2740  22.245  17.146  10.691
35958W        W 2741   3.195  38.582   3.273
35959W        W 2742  16.066  41.512   5.105
35960W        W 2743  21.672  27.537   0.299
35961W        W 2744  16.003  18.418   4.604
35962W        W 2745  41.913  40.871   1.441
35963W        W 2746  22.138  37.894  10.685
35964W        W 2747  24.751  44.466  12.868
35965W        W 2748  26.962  16.144   0.182
35966W        W 2749  29.930  18.970  13.458
35967W        W 2750   0.938  20.722   3.300
35968W        W 2751  35.568   1.487  13.277
35969W        W 2752  44.838  32.958   4.564
35970W        W 2753  14.754  27.417   1.660
35971W        W 2754  39.310   2.909  11.479
35972W        W 2755  30.280   2.382  14.309
35973W        W 2756  37.976  24.608  14.934
35974W        W 2757   3.886  27.039   4.434
35975W        W 2758  38.142  20.547   0.898
35976W        W 2759  36.576  18.039  12.505
35977W        W 2760  44.437  17.542   4.580
35978W        W 2761  30.724  24.970  11.095
35979W        W 2762  14.536  39.220   1.274
35980W        W 2763  44.210  23.560  10.314
35981W        W 2764   3.818  29.995   4.151
35982W        W 2765  20.521   1.673   1.787
35983W        W 2766  41.087  40.451  13.580
35984W        W 2767  24.558  27.493  11.394
35985W        W 2768  17.313  23.009  12.806
35986W        W 2769  29.490  36.307   1.422
35987W        W 2770  31.468  20.162  11.367
35988W        W 2771  42.996  18.052   2.821
35989W        W 2772  37.322  28.571   3.242
35990W        W 2773  12.156  37.440   3.851
35991W        W 2774  15.400  41.467  13.076
35992W        W 2775  14.832  19.137   2.453
35993W        W 2776  38.644  18.665   5.037
35994W        W 2777  36.410   4.548  12.074
35995W        W 2778  27.040  10.404  13.891
35996W        W 2779  27.622  44.259   1.364
35997W        W 2780   4.565   9.866  11.518
35998W        W 2781  15.918  24.693   0.968
35999W        W 2782  38.106   8.119   9.786
36000W        W 2783  12.317  44.323   2.150
36001W        W 2784  30.721  26.299  10.920
36002W        W 2785  26.516  36.447   4.098
36003W        W 2786  27.677  26.317   3.755
36004W        W 2787  37.934  13.841   3.636
36005W        W 2788  36.703  14.199  13.447
36006W        W 2789  35.457  42.470   2.271
36007W        W 2790   2.341  11.842   1.832
36008W        W 2791   1.032  32.893   3.356
36009W        W 2792  40.352  25.726  11.495
36010W        W 2793  14.816   9.162   1.865
36011W        W 2794  35.164   5.328   0.636
36012W        W 2795  44.304  17.178   1.818
36013W        W 2796  18.420  12.280   4.966
36014W        W 2797  37.551  25.172  14.881
36015W        W 2798  12.843   1.468   0.357
36016W        W 2799  38.053  40.054  14.701
36017W        W 2800  39.176   7.173  10.981
36018W        W 2801   5.182  26.574  11.863
36019W        W 2802  16.294  37.436  12.111
36020W        W 2803  35.415  24.521   0.277
36021W        W 2804  20.602  24.983   3.193
36022W        W 2805   0.765   1.528   1.388
36023W        W 2806  24.824  11.768   0.217
36024W        W 2807   8.887  37.523   3.683
36025W        W 2808  36.805  10.338  12.637
36026W        W 2809   2.632  38.959   4.063
36027W        W 2810  32.325  15.900  11.530
36028W        W 2811  34.378  21.248   0.383
36029W        W 2812  44.005   1.069  10.876
36030W        W 2813  20.674  31.878  13.030
36031W        W 2814   2.520  41.001   1.257
36032W        W 2815  38.473   9.603   0.252
36033W        W 2816  28.821   5.722  14.692
36034W        W 2817  39.813   7.992   2.848
36035W        W 2818  37.990  43.855   2.989
36036W        W 2819  37.419   0.842   0.015
36037W        W 2820  26.696   3.037   4.134
36038W        W 2821  40.797  33.178  10.699
36039W        W 2822  38.058  16.676   4.754
36040W        W 2823  21.820   5.402  14.096
36041W        W 2824  30.275  30.154   0.830
36042W        W 2825  16.681   8.585   0.158
36043W        W 2826  37.486  35.778  14.795
36044W        W 2827   2.246  32.727  13.538
36045W        W 2828  14.729  27.524  11.512
36046W        W 2829   5.313   1.280   4.608
36047W        W 2830  41.334  30.548  14.965
36048W        W 2831  22.634   9.198  12.864
36049W        W 2832   9.278  27.387   4.157
36050W        W 2833  39.440  15.134   0.508
36051W        W 2834  22.162   1.049  13.982
36052W        W 2835   1.320  37.912  13.019
36053W        W 2836   4.646  34.583  11.571
36054W        W 2837  29.097  32.906  13.951
36055W        W 2838  38.948   4.088  14.410
36056W        W 2839   4.332  40.272  14.994
36057W        W 2840  34.530  30.148   3.705
36058W        W 2841  21.249  44.309  12.022
36059W        W 2842  28.607  12.258   1.474
36060W        W 2843  37.229  32.333  11.181
36061W        W 2844  27.619   3.244  11.873
36062W        W 2845   9.925  43.272  13.027
36063W        W 2846  24.776  37.026   2.787
36064W        W 2847  18.199  21.793   1.785
36065W        W 2848  12.241  14.043   4.611
36066W        W 2849   5.357   9.675  10.387
36067W        W 2850   5.309  42.430   2.501
36068W        W 2851   6.804  42.856  13.300
36069W        W 2852  43.526  22.140   4.542
36070W        W 2853  28.966  20.539  12.674
36071W        W 2854   8.682   7.691   0.746
36072W        W 2855   6.734  20.358  11.605
36073W        W 2856  22.639  41.051  11.086
36074W        W 2857  13.418  10.710   3.738
36075W        W 2858  20.726  39.618   4.656
36076W        W 2859  43.944  28.463   2.204
36077W        W 2860   0.911  36.927  12.199
36078W        W 2861  38.070  19.358   4.199
36079W        W 2862  41.570  12.196   1.419
36080W        W 2863  32.932  23.974  13.464
36081W        W 2864  39.226  18.785   1.924
36082W        W 2865  38.750  18.501   3.521
36083W        W 2866  13.480   6.247  12.926
36084W        W 2867  18.269  27.108   4.152
36085W        W 2868  25.792  23.149   1.823
36086W        W 2869   7.619   9.794  11.983
36087W        W 2870   4.533  27.072  14.927
36088W        W 2871  39.903  33.529  12.445
36089W        W 2872  36.240  30.290   1.407
36090W        W 2873  38.966   0.236  13.365
36091W        W 2874  21.712  29.259  13.488
36092W        W 2875  11.414   0.374   0.735
36093W        W 2876  39.466  25.712   4.096
36094W        W 2877  30.144  16.790  12.557
36095W        W 2878  18.362  44.571  11.133
36096W        W 2879   7.813  22.013   0.734
36097W        W 2880  16.294  34.970  10.645
36098W        W 2881  37.079  32.920  13.874
36099W        W 2882  16.100   1.007   0.374
36100W        W 2883   0.864  24.404  11.446
36101W        W 2884  38.971   7.322   0.473
36102W        W 2885  30.480  29.919   0.400
36103W        W 2886   2.561  35.131  12.928
36104W        W 2887  23.147  16.013  10.371
36105W        W 2888  17.729  12.576   4.426
36106W        W 2889   4.285  31.073   3.905
36107W        W 2890  22.109  16.739   1.451
36108W        W 2891  26.629  25.072   4.295
36109W        W 2892  11.154  30.455  13.330
36110W        W 2893   9.620  35.689  14.800
36111W        W 2894  30.183  35.665  12.130
36112W        W 2895  38.632  26.598  10.522
36113W        W 2896  18.718  10.215   3.655
36114W        W 2897  29.489  20.615  11.836
36115W        W 2898  41.818  35.886   0.764
36116W        W 2899  22.091  23.707   1.400
36117W        W 2900   5.149  40.427  14.810
36118W        W 2901   6.370  19.978   2.948
36119W        W 2902  17.647  41.855   4.579
36120W        W 2903  41.509  14.201   2.172
36121W        W 2904  25.225  33.424  11.477
36122W        W 2905  32.508  30.286   2.050
36123W        W 2906   3.211  37.183   0.401
36124W        W 2907  42.425  25.208  14.367
36125W        W 2908  39.407  13.683   2.312
36126W        W 2909   2.282  23.022  13.127
36127W        W 2910  25.957  17.127  13.072
36128W        W 2911  12.646  36.014   0.490
36129W        W 2912  12.012  35.345  14.528
36130W        W 2913   1.449  14.141  14.248
36131W        W 2914  18.974  36.926   0.897
36132W        W 2915  14.168   2.035   0.443
36133W        W 2916  26.400  29.388   5.043
36134W        W 2917   8.183  23.048   3.702
36135W        W 2918  14.799  34.430   0.765
36136W        W 2919  14.114  29.686  11.625
36137W        W 2920  29.718  42.370  11.127
36138W        W 2921  10.732  32.144   1.919
36139W        W 2922   3.326   2.688   0.337
36140W        W 2923   8.706  43.236  10.795
36141W        W 2924  22.770  20.019  11.993
36142W        W 2925  36.401  35.992   4.580
36143W        W 2926  33.068  44.691   2.842
36144W        W 2927  19.641   5.729  13.901
36145W        W 2928   8.138  20.250  11.602
36146W        W 2929  42.561  34.378  13.405
36147W        W 2930  29.611  10.772   1.695
36148W        W 2931  33.943   9.952   3.779
36149W        W 2932  31.977  11.964   2.272
36150W        W 2933  44.853  13.692   9.823
36151W        W 2934   4.679  22.994   3.578
36152W        W 2935   9.295  37.295  13.901
36153W        W 2936  14.711  43.768  14.383
36154W        W 2937  41.260  38.605   2.813
36155W        W 2938  22.017  42.059  10.939
36156W        W 2939  28.998  19.054   0.398
36157W        W 2940   0.701  13.619   3.223
36158W        W 2941  34.017   3.393   1.568
36159W        W 2942  15.639  26.692  14.392
36160W        W 2943  40.346  22.016  11.904
36161W        W 2944  18.619  24.680   2.250
36162W        W 2945  26.494  17.816  12.489
36163W        W 2946  13.378  31.524   1.378
36164W        W 2947  11.390  28.650   4.611
36165W        W 2948  19.683  17.778  11.877
36166W        W 2949   3.783  41.078  11.768
36167W        W 2950  15.785   4.421   4.970
36168W        W 2951  33.583   9.597  14.812
36169W        W 2952  18.869  17.153   2.272
36170W        W 2953  35.963  24.980  12.643
36171W        W 2954  17.135  37.853  14.647
36172W        W 2955   7.689   5.180   3.760
36173W        W 2956   8.450  31.612  11.494
36174W        W 2957  21.763  13.150  14.044
36175W        W 2958  41.505  41.340   3.598
36176W        W 2959  11.800  15.267   1.151
36177W        W 2960  28.519  32.163  12.925
36178W        W 2961  25.132  34.156  14.523
36179W        W 2962  25.196   5.842  10.512
36180W        W 2963  42.449   9.326   3.345
36181W        W 2964   5.853  40.435   3.174
36182W        W 2965  23.132  33.147   4.802
36183W        W 2966  22.953  15.629   0.027
36184W        W 2967   6.190  30.922   4.388
36185W        W 2968  10.424  12.540  14.399
36186W        W 2969  22.549  18.853  14.402
36187W        W 2970  38.317  21.833  12.116
36188W        W 2971  17.894  25.926  11.506
36189W        W 2972  44.359   8.194   3.611
36190W        W 2973  38.431  31.015   1.365
36191W        W 2974  16.020  12.299  12.053
36192W        W 2975  34.788  23.081  12.852
36193W        W 2976  31.513  30.468  13.276
36194W        W 2977   0.411  35.722   0.773
36195W        W 2978  35.000  35.002   0.534
36196W        W 2979  17.442   6.801   0.670
36197W        W 2980  20.095  27.329   4.246
36198W        W 2981  32.393  39.107  12.759
36199W        W 2982  24.763  35.128   3.795
36200W        W 2983  27.586  14.632  10.610
36201W        W 2984   4.290   6.630   1.918
36202W        W 2985   1.206   0.197  14.987
36203W        W 2986  21.579   1.912  12.553
36204W        W 2987  41.415  43.346   1.384
36205W        W 2988  11.395  40.980  14.359
36206W        W 2989  14.123  20.019   1.913
36207W        W 2990  42.424  39.405  10.679
36208W        W 2991  44.695   8.842  11.436
36209W        W 2992  25.397  35.039   1.900
36210W        W 2993  25.409   1.702  11.524
36211W        W 2994  15.532  15.751   3.786
36212W        W 2995  28.096  14.471   3.285
36213W        W 2996  32.695  15.793   1.917
36214W        W 2997  16.016   8.007  13.130
36215W        W 2998   9.274  12.143  13.737
36216W        W 2999  39.565  17.416  11.078
36217W        W 3000  21.265   3.777   0.938
36218W        W 3001  37.988  29.614   2.795
36219W        W 3002   5.793  16.675   3.721
36220W        W 3003  10.783  31.969   2.805
36221W        W 3004  26.973  37.845   1.872
36222W        W 3005   1.655   0.604   3.725
36223W        W 3006   9.015   3.464   2.885
36224W        W 3007  15.676  41.318  12.383
36225W        W 3008  43.784   9.102   2.793
36226W        W 3009   9.233  19.975  14.465
36227W        W 3010  35.513   4.103  13.133
36228W        W 3011  14.732  20.070  12.612
36229W        W 3012   9.848  25.703   2.449
36230W        W 3013  17.302  25.116   1.287
36231W        W 3014  26.242  38.409  10.998
36232W        W 3015  32.202   6.402  12.229
36233W        W 3016   5.229  29.611   1.939
36234W        W 3017   6.320  27.924  11.586
36235W        W 3018   0.882  15.636   4.519
36236W        W 3019   7.335  34.269   4.592
36237W        W 3020  20.832  32.197  14.002
36238W        W 3021  24.096  11.705  10.635
36239W        W 3022  34.893  19.267   3.656
36240W        W 3023  22.385  28.976   3.112
36241W        W 3024  41.915  25.162   4.712
36242W        W 3025  14.627  27.867  14.809
36243W        W 3026   6.055   5.752   2.949
36244W        W 3027  37.397  44.542   0.408
36245W        W 3028  32.540   8.349   1.434
36246W        W 3029  19.092  29.928  12.148
36247W        W 3030  25.242  42.976   0.393
36248W        W 3031   8.257  23.590   3.751
36249W        W 3032  11.335  43.350   4.589
36250W        W 3033  41.936   1.918   1.781
36251W        W 3034   1.889  14.640   2.134
36252W        W 3035   6.233   5.857   0.735
36253W        W 3036  15.222  44.986   4.639
36254W        W 3037  32.329  34.096   3.806
36255W        W 3038   4.702  34.438   0.474
36256W        W 3039  20.226  36.089  10.443
36257W        W 3040  18.495  40.871   4.863
36258W        W 3041  43.737  21.112  11.089
36259W        W 3042  41.760  22.585   2.334
36260W        W 3043  11.578  20.223  11.992
36261W        W 3044  14.665   7.867   0.795
36262W        W 3045  27.750   9.200  12.405
36263W        W 3046  32.138  37.399  11.708
36264W        W 3047   1.341  21.474  11.625
36265W        W 3048  34.856  15.968   0.249
36266W        W 3049  19.490  37.403  10.688
36267W        W 3050  44.977  12.687  11.999
36268W        W 3051  40.948  16.893  14.767
36269W        W 3052  42.279   9.370  12.121
36270W        W 3053   8.814   3.585  12.816
36271W        W 3054  34.089  21.243   0.834
36272W        W 3055  40.753  21.467   4.175
36273W        W 3056  17.687  39.009   3.096
36274W        W 3057   7.730  39.557   1.823
36275W        W 3058  17.064  20.444   1.242
36276W        W 3059  41.059  34.497  10.646
36277W        W 3060  38.662  11.394  12.424
36278W        W 3061  39.255  39.925  13.416
36279W        W 3062   0.252  18.691   2.799
36280W        W 3063  22.692  12.970  14.747
36281W        W 3064  11.546  31.660   3.693
36282W        W 3065   5.344  37.332   4.526
36283W        W 3066  44.517  30.476   1.879
36284W        W 3067  23.541  11.965   2.248
36285W        W 3068  19.621  12.831  13.838
36286W        W 3069  31.109  28.628   0.196
36287W        W 3070  25.185  26.551   4.979
36288W        W 3071   9.866  23.476   2.665
36289W        W 3072  28.599   9.734   1.294
36290W        W 3073  39.264  41.338   2.323
36291W        W 3074  27.625   5.706  13.069
36292W        W 3075  16.000   3.487   1.268
36293W        W 3076  36.042   0.355   2.348
36294W        W 3077  41.519  30.135   2.210
36295W        W 3078   7.848  42.833  14.360
36296W        W 3079  21.760  35.879   1.870
36297W        W 3080  36.585   9.138  12.679
36298W        W 3081   3.849  17.262  10.733
36299W        W 3082  36.831  40.477  14.641
36300W        W 3083  31.343   6.767  13.946
36301W        W 3084  36.752  14.199  14.006
36302W        W 3085   9.749  41.558  14.091
36303W        W 3086  24.540   6.416   2.851
36304W        W 3087  14.585  38.524   2.469
36305W        W 3088  11.687  44.759  13.422
36306W        W 3089  42.054  21.040   0.890
36307W        W 3090   6.227  32.809  13.964
36308W        W 3091  19.761  37.774   3.346
36309W        W 3092  38.890  26.381   1.872
36310W        W 3093  33.395  11.620   2.454
36311W        W 3094  14.812  26.253  13.519
36312W        W 3095  12.566  44.782  11.866
36313W        W 3096  27.282  28.437  12.806
36314W        W 3097   9.795  19.036  12.901
36315W        W 3098  40.340  25.579  12.377
36316W        W 3099  19.470  15.324  14.158
36317W        W 3100  29.661  11.894   1.155
36318W        W 3101  34.877  41.743  12.094
36319W        W 3102   1.889  36.931  12.544
36320W        W 3103  19.480  18.168   4.232
36321W        W 3104   6.315  16.062  11.110
36322W        W 3105  31.172  19.053  11.552
36323W        W 3106  40.345  24.041  12.078
36324W        W 3107  15.252  24.562   4.494
36325W        W 3108  29.567  15.075  13.400
36326W        W 3109  24.731  34.189  14.864
36327W        W 3110  18.134  24.612  13.866
36328W        W 3111  18.282  21.974  12.480
36329W        W 3112  42.969  31.277   4.762
36330W        W 3113  41.058  18.208   3.777
36331W        W 3114  18.670  11.217  11.928
36332W        W 3115  17.556  16.464   2.351
36333W        W 3116   8.807  44.292  11.926
36334W        W 3117  14.716  16.688  11.193
36335W        W 3118  43.968  33.896   4.602
36336W        W 3119  20.290  22.636  13.024
36337W        W 3120  33.499  41.242   3.844
36338W        W 3121   0.864  19.041   4.877
36339W        W 3122  27.499  34.049   3.284
36340W        W 3123  43.267  37.478  13.525
36341W        W 3124  13.820  28.869   0.821
36342W        W 3125  26.147  18.131  10.427
36343W        W 3126  41.897  22.251   1.332
36344W        W 3127   7.852   1.650   4.609
36345W        W 3128  28.144   2.160   2.313
36346W        W 3129   3.123  20.201   2.468
36347W        W 3130  23.295   5.371  14.438
36348W        W 3131  26.613  20.097   3.119
36349W        W 3132   3.993  23.695  13.948
36350W        W 3133   5.258  13.247   2.822
36351W        W 3134   1.919   5.637   3.910
36352W        W 3135  15.233  29.938  12.776
36353W        W 3136  15.414  40.972  13.327
36354W        W 3137  31.945  43.779  11.163
36355W        W 3138  37.135  27.170  12.904
36356W        W 3139  18.641  23.966  13.320
36357W        W 3140  10.814  37.292  12.603
36358W        W 3141  31.031  33.492   4.662
36359W        W 3142  41.840  43.082  13.384
36360W        W 3143  31.622  10.671   3.967
36361W        W 3144  33.417   9.171  11.616
36362W        W 3145  24.451  17.813  14.275
36363W        W 3146  37.325  22.292   2.290
36364W        W 3147  26.696  30.162  11.951
36365W        W 3148  40.899   1.508   2.207
36366W        W 3149  37.960  36.494  14.821
36367W        W 3150  31.726   5.686   3.678
36368W        W 3151  34.966  11.886   3.788
36369W        W 3152  18.479  30.925   2.258
36370W        W 3153  12.636  35.829  11.625
36371W        W 3154  18.299  39.844   0.267
36372W        W 3155   2.742  32.009   4.564
36373W        W 3156   1.211  37.560   4.105
36374W        W 3157   0.023   9.390   3.102
36375W        W 3158  39.577  39.900  12.016
36376W        W 3159  43.908  11.128  10.702
36377W        W 3160   7.332  20.125  12.000
36378W        W 3161  15.270  42.903   4.508
36379W        W 3162   0.406  31.203   2.241
36380W        W 3163  24.695  22.976   2.758
36381W        W 3164  12.645   0.970   1.906
36382W        W 3165  41.154  35.429  10.705
36383W        W 3166   4.216  21.154  10.707
36384W        W 3167   9.731  39.365  13.046
36385W        W 3168   1.871  26.230   4.937
36386W        W 3169  43.000   1.335   1.688
36387W        W 3170  37.725  43.430  13.002
36388W        W 3171  41.012  30.035  11.607
36389W        W 3172  29.126  42.387   1.344
36390W        W 3173  33.564  13.124  10.775
36391W        W 3174   9.439   6.351  13.415
36392W        W 3175  22.800  20.849  14.815
36393W        W 3176  19.260  27.307   0.835
36394W        W 3177  37.105   4.965  12.100
36395W        W 3178  37.781  30.951   4.589
36396W        W 3179  38.000   3.204   1.720
36397W        W 3180   3.043   5.319  12.971
36398W        W 3181   6.937  16.846  11.964
36399W        W 3182  42.929  38.744   1.430
36400W        W 3183  20.486  23.463  12.878
36401W        W 3184   5.796  39.530   2.971
36402W        W 3185  17.643  23.653   0.732
36403W        W 3186  28.118   3.760   2.158
36404W        W 3187  27.405  30.699  13.044
36405W        W 3188  30.952  37.275  11.352
36406W        W 3189   0.513  38.910  10.757
36407W        W 3190  20.289  35.513   4.570
36408W        W 3191  38.691  19.246   1.391
36409W        W 3192  30.093   0.509  12.694
36410W        W 3193  31.811  28.558  10.651
36411W        W 3194  14.759  15.144   4.830
36412W        W 3195  38.925  25.685   3.692
36413W        W 3196  28.140  13.681   2.620
36414W        W 3197  30.499  18.348  10.221
36415W        W 3198   9.385   5.985   3.130
36416W        W 3199   2.333  35.024  11.746
36417W        W 3200  31.013  13.262   4.777
36418W        W 3201  39.609  28.925  13.553
36419W        W 3202  14.669   0.133   3.624
36420W        W 3203   8.694  22.228  11.718
36421W        W 3204   6.167  11.198  14.825
36422W        W 3205   9.775  25.943  12.998
36423W        W 3206  33.988  10.336  11.751
36424W        W 3207  18.134  13.511  10.181
36425W        W 3208  37.962  38.816   1.465
36426W        W 3209   4.489   7.618  11.987
36427W        W 3210   8.151  37.891  13.941
36428W        W 3211   3.388   6.741   2.598
36429W        W 3212  34.045  43.327   4.076
36430W        W 3213  19.249  43.254   5.003
36431W        W 3214  20.561  37.015  14.783
36432W        W 3215  39.962  36.041   2.636
36433W        W 3216  44.761  22.183   0.347
36434W        W 3217  37.246  33.965   3.627
36435W        W 3218  39.018   5.929   1.367
36436W        W 3219  30.601  39.840  12.598
36437W        W 3220  13.709  29.269  12.096
36438W        W 3221   7.283  26.609   2.591
36439W        W 3222  26.530  31.902  12.503
36440W        W 3223  29.740   0.841   2.103
36441W        W 3224  13.042  24.315   1.467
36442W        W 3225  10.420  39.183   2.306
36443W        W 3226  22.735  25.977  13.867
36444W        W 3227   4.582  33.896  14.222
36445W        W 3228  22.575  25.274  13.470
36446W        W 3229   7.224  28.001  11.456
36447W        W 3230  10.758  30.899  11.189
36448W        W 3231  20.294  33.270  14.395
36449W        W 3232  29.407  13.446  14.912
36450W        W 3233  41.060  10.906   3.234
36451W        W 3234  23.573  34.557   4.752
36452W        W 3235  18.598   3.696  13.126
36453W        W 3236  39.476  11.795   3.299
36454W        W 3237  15.905  36.992   1.410
36455W        W 3238  15.239  35.134   4.133
36456W        W 3239  10.149  10.553  13.560
36457W        W 3240  44.253  40.564   1.303
36458W        W 3241  29.180   0.440   0.921
36459W        W 3242  14.003  16.207  10.608
36460W        W 3243   2.457  12.283  14.283
36461W        W 3244  40.042  27.572  13.107
36462W        W 3245  37.449  38.277  11.744
36463W        W 3246  42.339  15.700  14.679
36464W        W 3247  31.112   1.760  12.917
36465W        W 3248  35.408   4.899   0.856
36466W        W 3249  38.119   2.462  14.912
36467W        W 3250   0.466  17.693   0.548
36468W        W 3251  37.794  18.643  12.145
36469W        W 3252   4.848  22.040  14.878
36470W        W 3253  23.315   4.802  11.285
36471W        W 3254  15.534  36.609  14.216
36472W        W 3255   1.825  43.308   2.301
36473W        W 3256   5.272  15.622   2.423
36474W        W 3257  22.656   4.109   1.370
36475W        W 3258   5.128  33.433   2.790
36476W        W 3259  42.636  35.972   3.334
36477W        W 3260  16.884  18.253   0.416
36478W        W 3261  34.854  12.446   2.593
36479W        W 3262  24.620  33.894   0.287
36480W        W 3263  19.435   2.700   1.758
36481W        W 3264  12.958  16.703   2.240
36482W        W 3265  30.604  14.654   2.690
36483W        W 3266  26.664  24.770   2.018
36484W        W 3267  43.321  10.937  14.441
36485W        W 3268  19.749  34.603  13.205
36486W        W 3269  11.626  13.595   2.796
36487W        W 3270   0.318  18.598   3.677
36488W        W 3271  34.016  39.437  13.063
36489W        W 3272  36.537  30.070  10.686
36490W        W 3273  13.519  43.351  13.404
36491W        W 3274  34.895  37.133  13.554
36492W        W 3275  32.595  26.950   4.094
36493W        W 3276  15.013  10.935   3.375
36494W        W 3277  24.809   0.832   2.680
36495W        W 3278  18.637  10.687  14.254
36496W        W 3279  31.654   3.628   3.239
36497W        W 3280  28.614  31.471  11.603
36498W        W 3281  32.401   5.190   1.262
36499W        W 3282   0.326  13.578  12.681
36500W        W 3283   8.848  19.316  14.080
36501W        W 3284  42.536  31.379   3.237
36502W        W 3285  19.646   0.424  11.493
36503W        W 3286  33.075  40.847  12.561
36504W        W 3287  21.661  25.565  13.418
36505W        W 3288  17.638  20.619   2.740
36506W        W 3289  25.436  27.487   2.470
36507W        W 3290  10.563  24.104   3.653
36508W        W 3291  34.787  19.218  11.557
36509W        W 3292   4.669  11.284  12.792
36510W        W 3293  25.054  16.402  11.576
36511W        W 3294  40.755  38.711  14.393
36512W        W 3295   7.423  21.496   4.737
36513W        W 3296  21.732   9.616  12.560
36514W        W 3297  32.529   7.647  11.629
36515W        W 3298   1.660  43.811   3.667
36516W        W 3299  30.067  22.780  11.825
36517W        W 3300  36.889  30.079  13.721
36518W        W 3301  44.891  16.195  13.919
36519W        W 3302  43.471  17.388  11.594
36520W        W 3303  30.373  16.638  13.027
36521W        W 3304  20.452  30.159  14.204
36522W        W 3305  43.361   9.423   1.566
36523W        W 3306  19.205  17.193   4.035
36524W        W 3307  18.040  43.506   1.855
36525W        W 3308  18.635  34.119  12.975
36526W        W 3309  17.190  31.361   0.895
36527W        W 3310  27.093  26.462   1.452
36528W        W 3311  41.260   6.873  14.876
36529W        W 3312  22.889   9.178  11.121
36530W        W 3313  35.088  22.267  10.899
36531W        W 3314   9.734  31.433   4.492
36532W        W 3315  14.155   3.002  14.298
36533W        W 3316   1.212  12.020  12.796
36534W        W 3317  27.420   0.314   2.350
36535W        W 3318   1.069  35.352  11.569
36536W        W 3319  15.277  20.892  14.845
36537W        W 3320   3.551  36.076   2.179
36538W        W 3321  29.570  27.097  11.444
36539W        W 3322  28.083  39.625  13.485
36540W        W 3323  28.820  42.135   3.131
36541W        W 3324  13.366   5.246   1.220
36542W        W 3325  20.981  42.832  11.109
36543W        W 3326   1.747  10.250  13.386
36544W        W 3327  41.196   2.264   2.565
36545W        W 3328   7.422  33.129  12.167
36546W        W 3329   1.657  40.547   0.740
36547W        W 3330  41.982  36.536  11.461
36548W        W 3331  28.841  36.909   0.268
36549W        W 3332   7.943  13.148  12.517
36550W        W 3333  38.899  17.300  11.680
36551W        W 3334  24.194  11.640  14.411
36552W        W 3335  27.565  38.140   1.208
36553W        W 3336  43.532  15.030  12.522
36554W        W 3337  25.551  25.400   1.743
36555W        W 3338  18.198  27.254   1.398
36556W        W 3339  22.712   2.370   1.764
36557W        W 3340   9.253  19.751  11.969
36558W        W 3341  32.004   7.187   3.029
36559W        W 3342  25.929  41.552   0.803
36560W        W 3343   2.890  31.610   2.190
36561W        W 3344  38.869  38.847  14.779
36562W        W 3345   0.018  39.888   4.442
36563W        W 3346  21.049  11.743   3.255
36564W        W 3347   2.730  16.747  13.840
36565W        W 3348   5.188   2.474   4.427
36566W        W 3349  12.780  34.902   1.201
36567W        W 3350  20.279  18.013  11.607
36568W        W 3351  43.394  17.968   0.647
36569W        W 3352  15.032  37.332  13.403
36570W        W 3353  13.387  10.927   5.036
36571W        W 3354  44.787  40.495   0.395
36572W        W 3355   8.447   8.121   4.102
36573W        W 3356   6.159  36.219  12.939
36574W        W 3357   5.438  14.570   0.769
36575W        W 3358  12.838  40.423  14.729
36576W        W 3359  26.014   3.986   1.680
36577W        W 3360  26.121  25.472   1.337
36578W        W 3361  19.706   1.204  12.023
36579W        W 3362   2.822  19.894  12.479
36580W        W 3363   1.351  23.690  14.434
36581W        W 3364  23.168  27.545  11.479
36582W        W 3365  16.089  16.111  14.804
36583W        W 3366  39.020  28.868   1.510
36584W        W 3367  28.710   2.837  14.317
36585W        W 3368  12.914  27.247  13.811
36586W        W 3369  27.208  10.331  11.422
36587W        W 3370   7.514  40.090   2.633
36588W        W 3371  32.028  23.075  14.569
36589W        W 3372  18.120   1.640  11.658
36590W        W 3373  13.737  21.725  13.431
36591W        W 3374  39.936  34.649   4.532
36592W        W 3375  37.156  43.264   2.256
36593W        W 3376  12.206  33.739  12.907
36594W        W 3377   7.887   6.402  14.830
36595W        W 3378  25.043  36.806  11.636
36596W        W 3379   0.336  26.325  14.947
36597W        W 3380   2.313  12.709  10.330
36598W        W 3381  38.810  15.228  11.753
36599W        W 3382   3.662  27.540  14.758
36600W        W 3383  27.715   0.888  14.749
36601W        W 3384   9.593  34.120   3.366
36602W        W 3385  35.878  15.410   3.314
36603W        W 3386  22.682  35.606   2.208
36604W        W 3387  43.250  44.327   1.929
36605W        W 3388  27.181  39.525   3.405
36606W        W 3389  35.015   1.969  11.558
36607W        W 3390  34.880  27.649  14.817
36608W        W 3391  26.065  40.841   0.003
36609W        W 3392  37.338  30.872   1.804
36610W        W 3393  20.300   4.127  14.315
36611W        W 3394   6.071  20.557   4.143
36612W        W 3395  43.486  27.472   2.159
36613W        W 3396  14.006   3.720  13.828
36614W        W 3397   9.166  22.154  11.545
36615W        W 3398  36.801   3.698  10.649
36616W        W 3399  43.482  18.737   3.241
36617W        W 3400  11.112   3.237  14.979
36618W        W 3401   4.148  22.557   2.366
36619W        W 3402  43.934  23.478   2.377
36620W        W 3403  40.760  22.249  14.053
36621W        W 3404  21.221   1.326  11.896
36622W        W 3405   9.141   8.975  12.495
36623W        W 3406  12.656   3.319  11.667
36624W        W 3407  36.358  26.133   4.246
36625W        W 3408   6.881   6.985   2.575
36626W        W 3409  40.902   2.307  12.371
36627W        W 3410  23.690  27.444   1.337
36628W        W 3411  14.670  15.853  14.686
36629W        W 3412  23.822  13.947  12.103
36630W        W 3413  13.855  36.548   3.194
36631W        W 3414  12.989  30.063  14.002
36632W        W 3415  40.010  20.818  10.807
36633W        W 3416  31.418  25.583   0.216
36634W        W 3417  22.552  15.194  12.641
36635W        W 3418  30.599  19.323   3.341
36636W        W 3419  33.026  11.814  14.539
36637W        W 3420  17.232   6.845  14.688
36638W        W 3421  26.952   9.260  11.445
36639W        W 3422  10.981  14.292  14.025
36640W        W 3423  28.113  40.791  11.285
36641W        W 3424   4.807  39.753   0.446
36642W        W 3425  34.643   6.739   3.607
36643W        W 3426   8.263  40.604  10.784
36644W        W 3427  29.513  42.824   4.169
36645W        W 3428  19.494  36.492   2.290
36646W        W 3429  24.010  29.376   3.680
36647W        W 3430   4.876  14.573   4.331
36648W        W 3431  43.391   8.178   2.630
36649W        W 3432  27.135   7.019   4.229
36650W        W 3433   7.840  30.023   4.851
36651W        W 3434  19.591  39.488   0.854
36652W        W 3435   7.963   7.351   0.438
36653W        W 3436   9.905  21.403  12.390
36654W        W 3437  22.931  19.001  10.655
36655W        W 3438  12.344   6.465   2.289
36656W        W 3439  25.808  34.078  10.591
36657W        W 3440  41.573  40.252  14.856
36658W        W 3441  20.485  21.645   1.232
36659W        W 3442  11.481  10.199   0.410
36660W        W 3443  27.357  32.630   1.301
36661W        W 3444  35.951  40.579   4.054
36662W        W 3445  20.177  19.044  11.566
36663W        W 3446  25.485  24.915   1.953
36664W        W 3447  32.554  13.765   4.153
36665W        W 3448  25.195  14.251   2.332
36666W        W 3449  17.846   4.218   1.123
36667W        W 3450  42.891   7.448  14.645
36668W        W 3451   9.299  17.685   0.364
36669W        W 3452  19.742  17.714   4.164
36670W        W 3453  14.689  37.046  14.370
36671W        W 3454  24.773  19.483  11.561
36672W        W 3455  18.619  35.121  11.125
36673W        W 3456  27.091  16.570   2.206
36674W        W 3457   2.858   4.407   4.348
36675W        W 3458  38.711   5.843  10.558
36676W        W 3459  28.365   7.427  11.254
36677W        W 3460  12.666  12.395  11.195
36678W        W 3461  25.112  18.085  13.011
36679W        W 3462  35.995   9.917   4.292
36680W        W 3463  14.804  25.478   4.416
36681W        W 3464   5.579  35.752   1.928
36682W        W 3465   3.217  43.933  13.944
36683W        W 3466  11.900  34.776   5.251
36684W        W 3467   8.870  14.216   0.020
36685W        W 3468   4.924  22.028   4.244
36686W        W 3469  17.698  27.010   2.705
36687W        W 3470  18.511  21.570  10.793
36688W        W 3471  13.866   4.692   4.372
36689W        W 3472  39.406  43.783  12.379
36690W        W 3473   9.787  12.403  11.584
36691W        W 3474   4.287  18.354   3.218
36692W        W 3475   9.280  19.282   2.650
36693W        W 3476   1.385  41.935   1.879
36694W        W 3477  13.279  20.663   2.317
36695W        W 3478  24.287  22.421  10.044
36696W        W 3479  17.974  17.351  14.967
36697W        W 3480  40.811  32.833   4.204
36698W        W 3481  29.817  43.862  13.417
36699W        W 3482  35.809  44.332   0.924
36700W        W 3483  42.275  19.088   1.232
36701W        W 3484  38.396  10.425  13.348
36702W        W 3485  12.685   2.011  10.446
36703W        W 3486  12.370  32.015   0.686
36704W        W 3487  20.759  24.061   1.198
36705W        W 3488  16.234  37.132   0.705
36706W        W 3489  23.769  24.979   1.508
36707W        W 3490  30.072  41.019   1.317
36708W        W 3491  43.330  34.606  14.366
36709W        W 3492  32.971  29.235   3.816
36710W        W 3493  43.329  15.108  11.615
36711W        W 3494  41.427   6.311   0.010
36712W        W 3495   5.730  17.511  11.616
36713W        W 3496  44.979  26.581  11.896
36714W        W 3497   1.760   5.195   4.103
36715W        W 3498  36.275  38.001  14.879
36716W        W 3499  16.681  20.149   0.971
36717W        W 3500  33.828   2.872   3.253
36718W        W 3501  13.684   5.359   2.252
36719W        W 3502  36.485  15.855   0.221
36720W        W 3503  30.000  42.030  11.396
36721W        W 3504  26.674  14.531  12.592
36722W        W 3505  38.703  36.997  10.655
36723W        W 3506  17.626  19.485  11.336
36724W        W 3507  37.786  11.647  13.802
36725W        W 3508  38.051  31.981   3.110
36726W        W 3509  18.239  35.845   1.512
36727W        W 3510   1.915  34.342  14.335
36728W        W 3511  24.179  40.330   3.715
36729W        W 3512  39.792   6.964  14.786
36730W        W 3513  36.753  44.351  12.955
36731W        W 3514   4.901  34.682  12.852
36732W        W 3515  21.916  23.542   3.274
36733W        W 3516  13.734  18.156  12.550
36734W        W 3517  17.303  11.778   0.265
36735W        W 3518  35.411  25.933  14.881
36736W        W 3519  37.835  26.050   0.957
36737W        W 3520  24.426  33.564   2.766
36738W        W 3521  24.254  23.271  12.425
36739W        W 3522   5.296   0.470  10.373
36740W        W 3523  43.840  20.863   0.798
36741W        W 3524  29.021  27.675  10.982
36742W        W 3525   6.956  29.975  12.395
36743W        W 3526  16.484   2.245  13.416
36744W        W 3527  25.169  10.183  14.059
36745W        W 3528  31.577   8.416  11.448
36746W        W 3529  11.182  11.639  10.636
36747W        W 3530  37.827  11.762   4.654
36748W        W 3531  44.851   8.382  14.903
36749W        W 3532   5.699  12.285  13.409
36750W        W 3533  15.147  18.307   2.179
36751W        W 3534  40.306  18.181   4.567
36752W        W 3535  21.216  43.470   3.250
36753W        W 3536   8.676  36.470   3.901
36754W        W 3537  17.847   6.829   1.414
36755W        W 3538  31.939   7.162  10.079
36756W        W 3539  33.005  43.954  11.156
36757W        W 3540   4.839  30.140  11.106
36758W        W 3541  34.552  29.142  10.704
36759W        W 3542  33.489  14.781  11.932
36760W        W 3543   8.821  33.883   3.765
36761W        W 3544  30.207  21.088  11.826
36762W        W 3545  22.198  12.181  11.217
36763W        W 3546  12.131  14.663  14.990
36764W        W 3547   6.310  17.654  12.057
36765W        W 3548   1.593  13.057   2.295
36766W        W 3549  41.236  41.680   3.894
36767W        W 3550  22.494  25.604  14.495
36768W        W 3551  24.009   3.737  11.902
36769W        W 3552   4.118  32.951  12.946
36770W        W 3553  21.602  12.893   1.780
36771W        W 3554  40.177  31.094   4.241
36772W        W 3555  34.968  24.733  12.093
36773W        W 3556  11.922  16.942  12.452
36774W        W 3557  16.726  26.413  13.339
36775W        W 3558  42.896   2.250   1.723
36776W        W 3559  44.985  41.306  14.826
36777W        W 3560   7.563  17.646   0.021
36778W        W 3561  25.160  27.663   9.942
36779W        W 3562  26.996  35.953   4.849
36780W        W 3563   7.850  38.758  11.562
36781W        W 3564  15.237   2.350   3.112
36782W        W 3565   3.062  15.281   0.777
36783W        W 3566  28.716  27.053  11.211
36784W        W 3567  17.433  26.141   4.884
36785W        W 3568   8.062   7.028   3.599
36786W        W 3569   9.756  25.944  13.514
36787W        W 3570   2.158  12.585  10.878
36788W        W 3571  37.118   2.317  14.770
36789W        W 3572  42.223  17.692   2.654
36790W        W 3573   3.657   5.913   0.875
36791W        W 3574  31.129   3.257   2.749
36792W        W 3575  14.915  23.235  12.453
36793W        W 3576  41.509  17.982   2.867
36794W        W 3577   9.389  14.107   0.882
36795W        W 3578  18.723  13.790   1.331
36796W        W 3579   3.674  41.907  12.591
36797W        W 3580  12.863   9.803  13.807
36798W        W 3581  30.707   5.254  10.659
36799W        W 3582  43.402  10.694  10.502
36800W        W 3583  39.066  35.829  12.044
36801W        W 3584  17.148  20.246  11.139
36802W        W 3585   4.549  18.978   5.016
36803W        W 3586  32.510  43.421   2.950
36804W        W 3587  38.039  11.201  11.038
36805W        W 3588  43.719  29.245  11.935
36806W        W 3589  41.488   0.904  14.531
36807W        W 3590   7.089  24.574   4.111
36808W        W 3591  41.718  29.112   4.162
36809W        W 3592  43.642  43.999   4.066
36810W        W 3593  10.681  28.482   4.053
36811W        W 3594  32.352  20.262  13.515
36812W        W 3595   1.757  12.764  14.365
36813W        W 3596  40.320  21.246  10.024
36814W        W 3597  34.832  31.343   2.184
36815W        W 3598  16.301  26.915   2.006
36816W        W 3599  32.588  15.661   2.830
36817W        W 3600   0.530  27.657  12.481
36818W        W 3601  22.557  10.457   3.620
36819W        W 3602   2.340  18.155   4.731
36820W        W 3603  20.640  12.443   2.772
36821W        W 3604  22.461  20.542  12.962
36822W        W 3605  25.328  31.925   3.196
36823W        W 3606  31.463  32.067  14.961
36824W        W 3607  16.745   0.978  11.728
36825W        W 3608  16.738  14.851  12.513
36826W        W 3609  16.779  33.512   3.591
36827W        W 3610  35.529  24.176  13.891
36828W        W 3611  43.874   9.320  14.965
36829W        W 3612  24.397  35.435  12.128
36830W        W 3613  18.286  10.836   4.535
36831W        W 3614  27.900  20.654  14.444
36832W        W 3615  19.668  43.299   1.176
36833W        W 3616  39.483  14.111   0.795
36834W        W 3617  25.252  21.683  11.087
36835W        W 3618  29.450  38.980   4.539
36836W        W 3619  25.351  42.392  14.305
36837W        W 3620  15.108  36.095   3.248
36838W        W 3621  37.050  32.966  14.468
36839W        W 3622   2.147  14.617  13.278
36840W        W 3623  28.420  29.928  13.399
36841W        W 3624   7.826  41.565  12.486
36842W        W 3625   4.472  21.688  12.035
36843W        W 3626  36.851  26.639  14.823
36844W        W 3627  28.454   9.846  10.617
36845W        W 3628  22.350  35.550   0.440
36846W        W 3629  18.652  39.330   4.521
36847W        W 3630  28.108  31.568  13.534
36848W        W 3631  16.147  39.278   0.331
36849W        W 3632  11.390   3.881  10.662
36850W        W 3633  34.354  12.339   1.900
36851W        W 3634  31.644  33.209   1.376
36852W        W 3635   2.792  41.961   4.567
36853W        W 3636   5.892   5.786  10.475
36854W        W 3637  21.622  20.340   1.841
36855W        W 3638  21.682  37.986   1.891
36856W        W 3639  15.252  25.108  14.841
36857W        W 3640   4.153   4.369  10.793
36858W        W 3641  16.275  17.026   4.030
36859W        W 3642   7.307  21.046   1.247
36860W        W 3643  36.768  11.759  12.680
36861W        W 3644  15.128  12.770   3.232
36862W        W 3645  18.736  19.983  13.611
36863W        W 3646  19.036  42.436   3.173
36864W        W 3647  21.385  13.894  12.116
36865W        W 3648  23.385  10.254   1.732
36866W        W 3649  16.197  20.717   1.866
36867W        W 3650   8.171  22.695   2.736
36868W        W 3651  21.497   5.482   3.269
36869W        W 3652  24.106  28.193  12.493
36870W        W 3653  13.187  20.208   3.647
36871W        W 3654  19.197  16.382   1.932
36872W        W 3655  36.502  14.485   4.575
36873W        W 3656   6.602  22.165   0.420
36874W        W 3657  33.146  21.299  12.033
36875W        W 3658   9.005  42.546  11.441
36876W        W 3659  11.678  20.689   3.631
36877W        W 3660   9.331  44.266   1.247
36878W        W 3661  32.083  17.048  13.312
36879W        W 3662  22.242   9.660  11.154
36880W        W 3663  44.451  19.517   2.251
36881W        W 3664   1.769  23.254  13.419
36882W        W 3665  16.142  23.285  14.943
36883W        W 3666  40.889  21.241   1.371
36884W        W 3667  29.203  29.174  11.107
36885W        W 3668  43.231   2.736  11.838
36886W        W 3669  21.819   7.728   4.708
36887W        W 3670  37.825  36.523  14.293
36888W        W 3671  29.119  26.581   0.710
36889W        W 3672  30.421  13.254   0.949
36890W        W 3673  36.523  38.783   0.420
36891W        W 3674   1.965  19.321  14.668
36892W        W 3675  43.259  28.598  10.681
36893W        W 3676  42.091  28.793   4.401
36894W        W 3677  18.233  21.294   3.637
36895W        W 3678  32.504  36.279   0.509
36896W        W 3679   2.353  34.809   2.875
36897W        W 3680   1.557  22.999  10.659
36898W        W 3681  30.943  37.520   3.085
36899W        W 3682  13.136  23.242   3.721
36900W        W 3683  28.217   2.917   3.615
36901W        W 3684  31.928   5.030  13.037
36902W        W 3685  40.356  36.966   4.108
36903W        W 3686  35.877  14.588   3.972
36904W        W 3687   7.048   7.564   5.342
36905W        W 3688  11.249  13.158   4.225
36906W        W 3689  27.300  40.811   3.553
36907W        W 3690  23.413  33.628  12.514
36908W        W 3691  38.202   4.240  14.886
36909W        W 3692   8.855  12.852  11.677
36910W        W 3693  42.459   9.698  13.056
36911W        W 3694   4.161  24.655   4.265
36912W        W 3695  33.609  25.990  10.787
36913W        W 3696   8.202  27.771   2.624
36914W        W 3697  25.503   3.903  11.212
36915W        W 3698   8.734  11.530  11.944
36916W        W 3699  27.466   9.968   3.305
36917W        W 3700  23.461  17.526  12.522
36918W        W 3701   9.798   9.161  14.540
36919W        W 3702  42.536  29.610  13.494
36920W        W 3703  25.126  24.700   2.783
36921W        W 3704  10.224  39.094   4.147
36922W        W 3705  41.004   7.020  14.436
36923W        W 3706  21.526  16.569   0.762
36924W        W 3707  19.608  26.505   4.269
36925W        W 3708  35.978  31.993  12.187
36926W        W 3709   1.319  10.398  14.260
36927W        W 3710  44.920  36.525   3.285
36928W        W 3711  28.050  18.260  14.401
36929W        W 3712  37.358   4.953  10.590
36930W        W 3713  19.676  33.973   0.905
36931W        W 3714  42.477  22.261   2.286
36932W        W 3715  20.045  10.043   0.316
36933W        W 3716  43.382  35.507   2.129
36934W        W 3717   7.233  44.945  11.407
36935W        W 3718  42.912  36.451  14.521
36936W        W 3719  37.919  28.468  12.441
36937W        W 3720   5.488  32.964   4.834
36938W        W 3721  42.360  33.596  12.943
36939W        W 3722  14.868   6.405  11.460
36940W        W 3723  28.903  27.040  13.923
36941W        W 3724  17.662  37.056  10.630
36942W        W 3725  38.914  28.498  14.295
36943W        W 3726  37.064  14.893   1.679
36944W        W 3727  14.112  36.643  14.753
36945W        W 3728  23.305  35.817   3.818
36946W        W 3729  21.327  15.070  10.627
36947W        W 3730   1.473   5.335  11.543
36948W        W 3731   0.038  44.436   2.379
36949W        W 3732  22.690  33.730  12.013
36950W        W 3733  38.674  38.954   0.513
36951W        W 3734  42.355  39.872  12.896
36952W        W 3735  16.153  44.581   1.916
36953W        W 3736  38.835  17.295  14.976
36954W        W 3737  40.354  20.749  14.372
36955W        W 3738  34.948  25.264   4.850
36956W        W 3739   0.752  15.805   2.737
36957W        W 3740  11.408   2.467  11.092
36958W        W 3741   6.418  15.745  10.691
36959W        W 3742  28.122  34.905   1.367
36960W        W 3743  19.155  19.654  13.531
36961W        W 3744   5.817  28.819  14.205
36962W        W 3745  12.752  38.359  12.867
36963W        W 3746   3.017  19.379   4.633
36964W        W 3747  31.491  12.301  13.772
36965W        W 3748   2.856   4.362  14.400
36966W        W 3749   2.458  34.403  10.695
36967W        W 3750  43.498  22.784   1.423
36968W        W 3751  30.957  23.745   0.191
36969W        W 3752   3.087  18.981   2.795
36970W        W 3753  42.856  14.905  14.215
36971W        W 3754  43.060   4.094   3.926
36972W        W 3755  37.826  17.722   4.786
36973W        W 3756  11.188   8.894  14.973
36974W        W 3757  12.784  42.077   1.878
36975W        W 3758  12.605  20.046  13.852
36976W        W 3759  16.543  29.505   0.941
36977W        W 3760  36.431   0.716   4.207
36978W        W 3761  42.516   3.885   0.834
36979W        W 3762  17.057   8.339  12.373
36980W        W 3763   2.316  42.949  12.003
36981W        W 3764  44.365  14.355  10.201
36982W        W 3765  16.415  29.919  11.440
36983W        W 3766   8.211   1.094  13.957
36984W        W 3767  34.168   8.382   1.805
36985W        W 3768  22.578  34.349  14.449
36986W        W 3769  10.205   2.048   0.921
36987W        W 3770  12.879   3.361  14.932
36988W        W 3771  24.166  12.524  13.971
36989W        W 3772   0.562  24.591   0.475
36990W        W 3773  23.286  19.584  13.746
36991W        W 3774   6.805  16.884  14.191
36992W        W 3775  42.533  33.616   4.129
36993W        W 3776  36.342  17.759   0.446
36994W        W 3777  24.705  28.984  13.743
36995W        W 3778  41.941  28.713  11.569
36996W        W 3779   1.969  16.736  11.548
36997W        W 3780  32.346   0.368   4.885
36998W        W 3781   2.448  19.042  14.890
36999W        W 3782  11.840  11.139  13.094
37000W        W 3783  22.933  16.617  11.137
37001W        W 3784  27.095   3.262   4.383
37002W        W 3785  30.072  37.634  12.937
37003W        W 3786  13.604  32.348   1.088
37004W        W 3787  11.592   3.821  12.458
37005W        W 3788  15.547  35.391   2.364
37006W        W 3789  16.909  14.675  12.027
37007W        W 3790  36.569  33.940   1.489
37008W        W 3791  20.712  18.787  11.647
37009W        W 3792   3.274  10.667  10.962
37010W        W 3793  13.937  23.871  12.449
37011W        W 3794   2.417  11.440   2.177
37012W        W 3795  32.130  23.641  10.581
37013W        W 3796  19.220  11.591   3.901
37014W        W 3797  37.017  17.206  14.171
37015W        W 3798  34.734  24.130  13.483
37016W        W 3799  40.590   5.194   5.149
37017W        W 3800  39.937   0.816   1.285
37018W        W 3801  39.954  33.490  10.706
37019W        W 3802  31.654  10.380  11.716
37020W        W 3803   6.744  27.845  13.318
37021W        W 3804  30.950  24.741   3.817
37022W        W 3805  40.134  34.211  14.903
37023W        W 3806   6.860  42.632  14.329
37024W        W 3807   0.854  38.913   2.656
37025W        W 3808  29.562   8.048  13.504
37026W        W 3809  44.065  10.214  11.565
37027W        W 3810   0.576  32.036   0.837
37028W        W 3811   3.399  17.136  14.803
37029W        W 3812   7.618  33.488   0.866
37030W        W 3813  34.976  25.245  11.144
37031W        W 3814  21.925  43.858   4.341
37032W        W 3815   3.719  14.679  11.512
37033W        W 3816  42.687  30.427  13.854
37034W        W 3817  43.776  31.169   1.741
37035W        W 3818   5.400  13.645   1.451
37036W        W 3819  13.360   3.998   2.348
37037W        W 3820   1.832   0.667   0.061
37038W        W 3821  41.999  36.773   2.859
37039W        W 3822  22.051   0.085  11.271
37040W        W 3823  39.376   0.840   2.628
37041W        W 3824  36.576   8.835   3.114
37042W        W 3825  25.121  19.619  11.189
37043W        W 3826  36.832  28.222  13.156
37044W        W 3827  28.564  22.102  14.538
37045W        W 3828  21.532   6.763  11.717
37046W        W 3829  26.601  14.809   1.383
37047W        W 3830  19.580  13.400  12.952
37048W        W 3831  31.840  19.544  10.684
37049W        W 3832   1.781  34.405  14.839
37050W        W 3833  38.296  11.732  12.485
37051W        W 3834  38.243  43.793   0.183
37052W        W 3835   0.353   7.619   5.110
37053W        W 3836   6.914  25.066   4.103
37054W        W 3837  26.733   6.408   0.731
37055W        W 3838  39.770  30.727  11.496
37056W        W 3839  21.422  18.868  11.123
37057W        W 3840  19.723  23.802   2.397
37058W        W 3841  31.675  13.021  14.516
37059W        W 3842  39.780  26.572   1.417
37060W        W 3843  12.771   8.904   1.301
37061W        W 3844  29.647  21.856  13.465
37062W        W 3845  44.409  37.120   4.893
37063W        W 3846   7.166  39.615   1.400
37064W        W 3847  30.434  38.506  13.032
37065W        W 3848  26.573   5.282  10.738
37066W        W 3849   6.090   3.241   2.670
37067W        W 3850  38.711   4.110  10.996
37068W        W 3851  22.626  17.917  13.969
37069W        W 3852  37.638  41.337  12.936
37070W        W 3853  29.535  26.047  13.998
37071W        W 3854   1.293   8.739  10.704
37072W        W 3855  12.138  33.929  10.586
37073W        W 3856  19.847  13.469  10.473
37074W        W 3857  44.777  33.317  14.287
37075W        W 3858  26.390  30.375   4.311
37076W        W 3859   9.725  38.046  11.165
37077W        W 3860  28.673  42.364   4.106
37078W        W 3861  36.986  40.595   1.329
37079W        W 3862  38.492  35.645  11.554
37080W        W 3863  24.593  26.228  13.422
37081W        W 3864   4.721  20.662  13.161
37082W        W 3865  12.355  36.809   9.922
37083W        W 3866  32.389  38.053  13.931
37084W        W 3867   7.908  17.114  13.330
37085W        W 3868  23.623  41.599   5.383
37086W        W 3869  21.958  31.559  12.147
37087W        W 3870  21.375   4.002   5.221
37088W        W 3871  28.367  27.253   0.969
37089W        W 3872  41.642  15.138   1.296
37090W        W 3873  13.815   0.643  13.138
37091W        W 3874  41.949  31.238  12.301
37092W        W 3875   4.915  34.071   1.735
37093W        W 3876  33.926  15.709  11.104
37094W        W 3877  39.823   8.323   0.456
37095W        W 3878   1.791   7.340   0.253
37096W        W 3879  18.246  14.055   3.277
37097W        W 3880  37.290   6.708  13.424
37098W        W 3881   6.863  37.323  12.055
37099W        W 3882  34.014   9.692   0.085
37100W        W 3883  30.891   8.792  13.349
37101W        W 3884  37.140  10.273   2.094
37102W        W 3885  27.468  15.657  13.245
37103W        W 3886  25.979  37.063   4.663
37104W        W 3887  18.677   5.799  14.492
37105W        W 3888  33.449  42.811   0.739
37106W        W 3889  34.549  30.635   3.941
37107W        W 3890  10.606  34.989   1.912
37108W        W 3891  29.661   6.298  10.592
37109W        W 3892  39.694  13.884  12.286
37110W        W 3893   6.638   1.878  10.608
37111W        W 3894  23.898   7.174  11.204
37112W        W 3895  32.512   3.210   1.209
37113W        W 3896  29.863  44.370  10.782
37114W        W 3897  13.279   7.784   5.098
37115W        W 3898  29.566  13.644   0.976
37116W        W 3899  15.660  16.316   1.213
37117W        W 3900  15.395  16.163   5.248
37118W        W 3901  17.755  13.336  12.645
37119W        W 3902  38.404   3.540   1.822
37120W        W 3903  27.282  23.137   5.086
37121W        W 3904  31.939  10.585  10.653
37122W        W 3905   3.320  31.732  13.279
37123W        W 3906   1.944  32.196  12.685
37124W        W 3907  42.947  41.975   4.619
37125W        W 3908   7.642  21.560   1.736
37126W        W 3909  31.956  28.825  10.151
37127W        W 3910  36.091  21.313  13.993
37128W        W 3911  42.975   7.381  11.864
37129W        W 3912  31.398   0.111  11.622
37130W        W 3913  28.188  13.795   1.131
37131W        W 3914  26.899  12.740   3.097
37132W        W 3915  23.982   8.769  12.428
37133W        W 3916  40.872  12.499  11.141
37134W        W 3917  34.907  32.667  14.836
37135W        W 3918  18.125  43.240   1.274
37136W        W 3919  41.560  13.384  13.001
37137W        W 3920  31.207  26.057  13.490
37138W        W 3921   5.863  30.673   2.873
37139W        W 3922   3.405  41.075   2.254
37140W        W 3923  20.185  26.230   0.836
37141W        W 3924   5.732  25.641  12.027
37142W        W 3925  15.321  31.400  12.426
37143W        W 3926   9.733  16.169   2.763
37144W        W 3927   7.802  15.638   0.023
37145W        W 3928  42.512  23.127  13.486
37146W        W 3929  30.401   6.717   4.233
37147W        W 3930  40.998  36.082  13.163
37148W        W 3931  16.172  34.159   3.066
37149W        W 3932  19.550  20.310  14.014
37150W        W 3933  17.268  40.974  12.212
37151W        W 3934  34.066  14.421   3.637
37152W        W 3935   3.196  10.069  14.491
37153W        W 3936  24.574  27.144  14.771
37154W        W 3937  44.472  19.646   3.171
37155W        W 3938  33.127  17.757   0.475
37156W        W 3939  11.527  38.034  11.439
37157W        W 3940   8.291  18.548   4.512
37158W        W 3941  32.996  41.818  11.652
37159W        W 3942  17.105  22.081   4.278
37160W        W 3943  28.633   1.972   2.407
37161W        W 3944  40.888   8.475  14.321
37162W        W 3945  41.165  20.629  13.806
37163W        W 3946  13.708   2.029   4.242
37164W        W 3947   7.840  34.649  10.674
37165W        W 3948  37.632  30.988   3.057
37166W        W 3949  22.028  13.438   0.707
37167W        W 3950  42.059  37.035  14.479
37168W        W 3951  21.953  32.077  12.378
37169W        W 3952  28.200  30.864   4.635
37170W        W 3953   6.959   3.985  13.500
37171W        W 3954  13.280  14.314  14.421
37172W        W 3955  34.895  32.581  11.142
37173W        W 3956  35.704  19.617  12.625
37174W        W 3957  39.841  10.895  13.995
37175W        W 3958  15.807   7.783  11.219
37176W        W 3959  20.288  26.811   3.250
37177W        W 3960  26.443  22.939   4.679
37178W        W 3961  19.367   9.794  13.500
37179W        W 3962  23.670  37.598  14.351
37180W        W 3963  39.858  16.778   2.168
37181W        W 3964  13.858  38.441  12.627
37182W        W 3965  23.052  27.963   1.967
37183W        W 3966   7.318  10.815  14.026
37184W        W 3967   8.836  26.195   3.427
37185W        W 3968   2.688  20.235  10.706
37186W        W 3969  38.535  41.042  10.644
37187W        W 3970   7.252   5.191   1.510
37188W        W 3971  39.394  27.419  13.888
37189W        W 3972   2.252   7.776  14.547
37190W        W 3973  22.344   4.312   5.032
37191W        W 3974  31.598   1.981  11.496
37192W        W 3975   7.888  35.454   0.039
37193W        W 3976  32.644  34.116   0.459
37194W        W 3977  19.181  16.593  13.574
37195W        W 3978  24.328  23.326  10.274
37196W        W 3979   5.422  40.755   3.159
37197W        W 3980  43.263  29.727  11.695
37198W        W 3981  16.048  42.502   4.436
37199W        W 3982  33.870   4.850   0.805
37200W        W 3983  43.670  36.889  13.080
37201W        W 3984  35.752  36.376   4.160
37202W        W 3985  27.443   6.834   2.448
37203W        W 3986  24.327  41.495   4.127
37204W        W 3987  18.848  18.601   4.583
37205W        W 3988   2.285  40.487  10.721
37206W        W 3989  21.168  43.996  12.644
37207W        W 3990  29.537  40.742   1.906
37208W        W 3991  34.638  10.879  12.822
37209W        W 3992   1.182   3.888   1.362
37210W        W 3993  43.016   3.528  11.681
37211W        W 3994   7.817  31.395  10.440
37212W        W 3995   6.491  40.910   2.778
37213W        W 3996  39.280  43.806   0.250
37214W        W 3997  34.123  38.076   3.200
37215W        W 3998  30.493  22.992  13.011
37216W        W 3999   6.458  24.546  14.463
37217W        W 4000  18.669  19.510  10.386
37218W        W 4001  26.904  40.378   1.849
37219W        W 4002  25.689  25.251   0.875
37220W        W 4003  32.884   2.044   1.682
37221W        W 4004  42.915  12.058  14.663
37222W        W 4005  29.715  18.729   3.806
37223W        W 4006  29.083  12.821  11.523
37224W        W 4007  39.843   8.408  14.512
37225W        W 4008  18.864  12.061  11.487
37226W        W 4009   4.987  13.895  11.142
37227W        W 4010   8.801   6.983   4.664
37228W        W 4011  20.581  38.782  12.279
37229W        W 4012  13.226   2.008  11.099
37230W        W 4013  41.580   0.169   0.821
37231W        W 4014  40.830  32.836   0.886
37232W        W 4015   5.992  13.071  11.092
37233W        W 4016  39.268   8.121  12.028
37234W        W 4017   1.657  25.252  13.383
37235W        W 4018   8.312  30.215   4.656
37236W        W 4019  27.877  26.550  13.587
37237W        W 4020  36.367  39.859  10.784
37238W        W 4021  12.205  37.057   2.191
37239W        W 4022  29.239  18.222   4.637
37240W        W 4023  24.141  41.344  11.877
37241W        W 4024  29.375  28.872   3.595
37242W        W 4025  38.487  39.025  11.515
37243W        W 4026  15.707  17.271   4.581
37244W        W 4027  29.264  21.635   1.821
37245W        W 4028   8.846  37.724  11.590
37246W        W 4029  19.581  23.549  12.974
37247W        W 4030  14.520  26.962  12.409
37248W        W 4031  13.877   5.708   1.395
37249W        W 4032  12.129  15.185  14.732
37250W        W 4033   4.666  28.154   3.139
37251W        W 4034  21.144  24.619  10.963
37252W        W 4035   1.928   5.791  13.862
37253W        W 4036   9.274   6.238   4.554
37254W        W 4037  21.279  22.745   3.064
37255W        W 4038   1.027  16.600   3.273
37256W        W 4039  35.517  28.182   1.198
37257W        W 4040  38.277  40.235   1.393
37258W        W 4041  21.401  34.060   3.242
37259W        W 4042  24.492   0.698   0.280
37260W        W 4043  18.636  40.268  11.341
37261W        W 4044   5.278   6.247   3.196
37262W        W 4045  31.026  40.852   2.935
37263W        W 4046  36.306   0.264   4.709
37264W        W 4047  28.711   0.928   2.392
37265W        W 4048   0.181   0.471  13.492
37266W        W 4049  40.363  11.485   2.825
37267W        W 4050  38.055   9.814   2.737
37268W        W 4051  24.030  17.023   4.576
37269W        W 4052  38.931  12.352  12.362
37270W        W 4053  41.854  15.570   4.672
37271W        W 4054  35.947  18.043   0.556
37272W        W 4055  44.855  36.367  11.512
37273W        W 4056  38.333  32.504  13.030
37274W        W 4057  13.188  32.601   1.419
37275W        W 4058  29.894  34.149   2.447
37276W        W 4059  23.396  13.251  11.921
37277W        W 4060   0.472  17.261   1.801
37278W        W 4061  31.021  32.509   0.771
37279W        W 4062  12.457  26.598  11.388
37280W        W 4063  31.607  20.220   2.282
37281W        W 4064  37.514  28.646  12.710
37282W        W 4065   9.259   3.837  14.374
37283W        W 4066  17.480   8.102   0.973
37284W        W 4067  18.288  18.790  13.790
37285W        W 4068  28.303  37.050   0.226
37286W        W 4069   4.446  44.039  13.543
37287W        W 4070  43.702  11.721  14.455
37288W        W 4071  12.837  33.261  14.488
37289W        W 4072   2.936   0.820  11.688
37290W        W 4073   0.733  44.627   5.127
37291W        W 4074   9.513  41.969  11.142
37292W        W 4075  16.583   9.573  12.190
37293W        W 4076  32.051  19.979  14.330
37294W        W 4077   5.145  44.392  11.616
37295W        W 4078  33.255  28.946   0.312
37296W        W 4079  21.090  33.506  11.390
37297W        W 4080   5.182   3.783  12.583
37298W        W 4081  40.351  37.254   5.021
37299W        W 4082   3.505  10.261   0.302
37300W        W 4083  24.878  34.398   0.748
37301W        W 4084  35.354   5.817   0.892
37302W        W 4085  41.724  26.366   5.079
37303W        W 4086  11.209  26.020   2.285
37304W        W 4087   7.577  24.702  10.971
37305W        W 4088  29.580  35.270   0.476
37306W        W 4089  41.485  34.820   1.809
37307W        W 4090  36.459  19.485  14.882
37308W        W 4091  27.413  34.291   3.742
37309W        W 4092  29.094  42.943   3.891
37310W        W 4093   7.580  40.929  14.417
37311W        W 4094  26.740  14.429  14.427
37312W        W 4095  39.719   8.723   4.655
37313W        W 4096  41.761  10.712   0.861
37314W        W 4097  30.614   8.517  13.006
37315W        W 4098   1.036  31.428   4.387
37316W        W 4099   4.603   3.799  13.128
37317W        W 4100  25.111  35.475   3.593
37318W        W 4101  26.781  22.220  14.951
37319W        W 4102  28.056  25.674   3.159
37320W        W 4103   8.190   2.549   3.933
37321W        W 4104  43.468  28.170   1.070
37322W        W 4105  35.432  34.217  10.692
37323W        W 4106  31.871  28.103   4.183
37324W        W 4107  12.398   4.692  11.152
37325W        W 4108  28.993  35.023  13.317
37326W        W 4109  29.981  35.639   1.707
37327W        W 4110   6.841  42.784  13.818
37328W        W 4111  42.188  42.331   1.181
37329W        W 4112  39.598  10.896  13.120
37330W        W 4113  12.601  31.403  13.929
37331W        W 4114  21.142  43.842  13.521
37332W        W 4115  37.967  34.394   1.936
37333W        W 4116  25.952   3.955   2.194
37334W        W 4117  23.293  17.851   3.626
37335W        W 4118  17.253  16.712   0.287
37336W        W 4119   6.364   7.225   3.269
37337W        W 4120   1.300  19.123  11.261
37338W        W 4121  31.736   9.704  14.893
37339W        W 4122   2.236  10.740   1.883
37340W        W 4123  15.037  23.057   2.231
37341W        W 4124   6.872  23.114  12.229
37342W        W 4125  31.161  17.107  13.510
37343W        W 4126  23.640  12.190   1.394
37344W        W 4127  36.142  11.405   0.916
37345W        W 4128  43.779  39.436  13.858
37346W        W 4129  16.513  22.254   0.403
37347W        W 4130  20.310  31.413   0.339
37348W        W 4131  30.833  14.562   0.752
37349W        W 4132  28.139  30.945   1.651
37350W        W 4133  18.016  13.856  13.289
37351W        W 4134  13.406  27.420  12.484
37352W        W 4135  24.239  43.852  14.363
37353W        W 4136   8.298   1.476   0.281
37354W        W 4137  39.872   0.310   2.416
37355W        W 4138  43.941   3.896  11.695
37356W        W 4139   8.945  23.090   1.700
37357W        W 4140  43.819  20.340   0.813
37358W        W 4141  23.548  20.415  14.536
37359W        W 4142   3.210  10.704   0.335
37360W        W 4143  10.589  14.720  14.932
37361W        W 4144  43.582  30.159   0.288
37362W        W 4145  19.210  11.135   0.274
37363W        W 4146   8.185  12.689  12.873
37364W        W 4147  14.122  13.185   2.560
37365W        W 4148   7.700  26.530  14.836
37366W        W 4149  41.644  19.691  13.005
37367W        W 4150  12.859   2.048   4.110
37368W        W 4151  19.723  22.230  14.953
37369W        W 4152  30.795  24.490   0.780
37370W        W 4153  20.706  27.166   3.028
37371W        W 4154  20.250   3.291   1.498
37372W        W 4155  16.220   6.886  12.372
37373W        W 4156   4.300  38.763   3.755
37374W        W 4157  23.055  36.038  12.816
37375W        W 4158  44.605  13.704  10.382
37376W        W 4159  20.073  33.340   0.770
37377W        W 4160  32.428  14.791   4.222
37378W        W 4161   8.939  12.861  13.898
37379W        W 4162  12.844   5.499  14.348
37380W        W 4163  32.375  20.083   1.712
37381W        W 4164  14.379   9.844   3.867
37382W        W 4165  17.164   7.240   0.014
37383W        W 4166  40.663  39.991  13.845
37384W        W 4167   0.881  17.964  13.412
37385W        W 4168  43.978  40.832   3.332
37386W        W 4169  12.711   1.432   2.151
37387W        W 4170  25.949  29.644   4.942
37388W        W 4171  16.131   1.187   1.205
37389W        W 4172  28.235  33.915   1.013
37390W        W 4173  25.208  22.864   4.875
37391W        W 4174   2.254  20.108  13.463
37392W        W 4175  28.915  18.151  12.271
37393W        W 4176  10.260   2.773  10.656
37394W        W 4177  39.843  10.711   1.727
37395W        W 4178  24.966  11.102  14.792
37396W        W 4179   3.584  35.895  13.783
37397W        W 4180   9.528  33.060   0.294
37398W        W 4181  10.377   4.706  10.623
37399W        W 4182   0.341   8.973   1.444
37400W        W 4183  16.332  19.756  11.512
37401W        W 4184  15.974  39.053   1.640
37402W        W 4185  37.479  20.228   0.484
37403W        W 4186   2.489  32.605   0.526
37404W        W 4187   4.700  30.412  11.513
37405W        W 4188   3.981   8.896  10.167
37406W        W 4189  29.484  28.045   0.482
37407W        W 4190  12.930  25.990   3.230
37408W        W 4191   8.158  41.597   3.991
37409W        W 4192   1.780  36.260   0.382
37410W        W 4193  25.003  23.638   9.793
37411W        W 4194   3.881  14.288  12.810
37412W        W 4195  29.813   2.533  14.463
37413W        W 4196  18.766  11.638   3.231
37414W        W 4197  15.140  39.467  11.005
37415W        W 4198   8.661  22.493   1.479
37416W        W 4199   6.420  27.214  14.353
37417W        W 4200  33.506   5.177   2.493
37418W        W 4201  34.367  35.793   1.810
37419W        W 4202  24.969  10.166   0.079
37420W        W 4203  36.560  34.139  13.023
37421W        W 4204  14.305  26.971   2.207
37422W        W 4205  42.137  15.214  14.372
37423W        W 4206  32.988  13.225   4.645
37424W        W 4207   5.869   3.893  10.657
37425W        W 4208  31.562  26.468  11.164
37426W        W 4209  22.663  34.443   0.355
37427W        W 4210  43.174  10.321   5.419
37428W        W 4211  31.563   6.420   3.129
37429W        W 4212  23.561  41.938   1.357
37430W        W 4213  22.631   0.499   1.691
37431W        W 4214  42.990  38.747  11.139
37432W        W 4215  25.174  23.203   4.105
37433W        W 4216  13.388  38.457  14.037
37434W        W 4217  31.635  17.311  13.406
37435W        W 4218   4.155   5.276  12.359
37436W        W 4219  44.450   2.428  14.834
37437W        W 4220   4.637  32.130  13.778
37438W        W 4221  38.057   1.155   3.221
37439W        W 4222  27.880   8.113  12.943
37440W        W 4223  40.814   6.773  11.792
37441W        W 4224   5.191  28.938  12.126
37442W        W 4225  18.788  16.891   4.771
37443W        W 4226  13.611  29.078   2.923
37444W        W 4227  44.374   3.217   0.316
37445W        W 4228  19.348  29.154  14.555
37446W        W 4229  32.083  35.883   2.172
37447W        W 4230  38.040  30.714   2.839
37448W        W 4231  14.097  19.422   0.888
37449W        W 4232  33.372  36.378  12.920
37450W        W 4233  30.706   6.908  11.927
37451W        W 4234  42.734  25.364  10.596
37452W        W 4235   6.349   3.104  14.562
37453W        W 4236  33.934  39.404   2.796
37454W        W 4237   1.283  16.140  11.711
37455W        W 4238  29.652   1.870   3.694
37456W        W 4239  28.272  13.225   4.756
37457W        W 4240   2.521  25.572  13.334
37458W        W 4241  32.012   6.544   4.850
37459W        W 4242  17.314  31.396   4.575
37460W        W 4243  14.642  24.088  14.987
37461W        W 4244  15.774   6.606  11.516
37462W        W 4245  24.295   5.647   1.877
37463W        W 4246   3.874  13.847   0.650
37464W        W 4247  22.426  16.583  10.064
37465W        W 4248  34.470   1.947  12.536
37466W        W 4249  19.646  23.585   3.760
37467W        W 4250   5.556   1.671  11.267
37468W        W 4251  16.112  11.648  13.990
37469W        W 4252  37.144  40.859   2.786
37470W        W 4253   4.718  43.056  14.031
37471W        W 4254  20.248  12.304   1.607
37472W        W 4255  21.264  12.057   2.722
37473W        W 4256  41.634  38.877   1.840
37474W        W 4257  33.127   5.298   2.007
37475W        W 4258  15.331   6.192  14.229
37476W        W 4259  36.382   0.799   2.952
37477W        W 4260   2.472   3.697   0.483
37478W        W 4261  34.632   4.603  14.265
37479W        W 4262  13.338  33.273   1.869
37480W        W 4263  22.238  31.934   5.151
37481W        W 4264   2.994  32.978  12.502
37482W        W 4265  37.703  17.610   2.353
37483W        W 4266  13.786   3.038  10.734
37484W        W 4267  32.208   2.998  12.143
37485W        W 4268  18.757  24.490   3.921
37486W        W 4269   6.892  13.369  12.126
37487W        W 4270   5.388  20.612   1.415
37488W        W 4271  23.673  19.558  11.897
37489W        W 4272  19.039  33.693   3.353
37490W        W 4273  44.973  10.363   3.023
37491W        W 4274   7.090  16.733   1.672
37492W        W 4275  13.755   0.734   4.455
37493W        W 4276  25.686  21.234   1.184
37494W        W 4277  23.552  36.495   2.368
37495W        W 4278  26.406   4.317   2.889
37496W        W 4279   1.566  41.360  13.513
37497W        W 4280  36.170  12.783  14.913
37498W        W 4281   9.722  19.700   2.271
37499W        W 4282  44.559  43.806  10.945
37500W        W 4283  38.528  22.044   4.740
37501W        W 4284  32.076  40.064   3.678
37502W        W 4285  28.555  26.583  12.486
37503W        W 4286  39.110  26.164  13.589
37504W        W 4287  27.480  31.213  12.373
37505W        W 4288  16.240   2.249  12.861
37506W        W 4289  15.284  34.055   1.938
37507W        W 4290  14.564   8.104   9.981
37508W        W 4291   0.913   7.679  14.921
37509W        W 4292   4.675  14.244  14.977
37510W        W 4293  42.953  20.169  13.294
37511W        W 4294   1.407  25.484  10.713
37512W        W 4295  20.669  27.650  13.708
37513W        W 4296  26.986   3.703  14.195
37514W        W 4297   3.014  11.376  14.321
37515W        W 4298   4.317  12.182   4.122
37516W        W 4299  12.941  33.566   1.683
37517W        W 4300  42.010  19.674   4.230
37518W        W 4301  42.037  40.457   3.687
37519W        W 4302  44.886  19.066  12.156
37520W        W 4303  17.068  29.511   0.938
37521W        W 4304  26.041  21.397  11.447
37522W        W 4305  35.666   3.412   9.446
37523W        W 4306  10.828  21.998  14.182
37524W        W 4307  20.031   9.872  12.094
37525W        W 4308  32.081  10.110  11.616
37526W        W 4309  26.021  14.369  13.913
37527W        W 4310  11.386  33.631  11.100
37528W        W 4311  30.523  16.299   3.202
37529W        W 4312   4.287  35.086   0.864
37530W        W 4313  34.039  21.814  12.170
37531W        W 4314  38.286  21.250   3.650
37532W        W 4315   9.375  42.473   3.356
37533W        W 4316  43.856  44.486  12.081
37534W        W 4317  23.485  12.828   4.572
37535W        W 4318  23.208   0.660   4.266
37536W        W 4319  16.528  26.710   3.170
37537W        W 4320   2.513  37.924  12.593
37538W        W 4321  43.427   3.217   0.508
37539W        W 4322   1.846  41.954  11.952
37540W        W 4323  26.384   0.271   3.995
37541W        W 4324  30.399   0.268  10.616
37542W        W 4325  16.195  40.389   2.409
37543W        W 4326  42.971  31.928   2.772
37544W        W 4327  25.545  31.476   3.965
37545W        W 4328  19.605  38.969   3.125
37546W        W 4329  10.980  34.502  12.895
37547W        W 4330  43.493  34.495   4.919
37548W        W 4331  16.233  10.904  11.081
37549W        W 4332  30.038   3.118   1.368
37550W        W 4333   9.132  42.780  12.100
37551W        W 4334  39.070  32.143   3.313
37552W        W 4335  21.449  38.966   2.708
37553W        W 4336  36.926  12.398   1.391
37554W        W 4337  26.707  39.622   3.235
37555W        W 4338  21.620  39.500   0.473
37556W        W 4339  42.315  35.945   4.402
37557W        W 4340  26.591  18.103  14.705
37558W        W 4341   1.683  16.664  11.953
37559W        W 4342  29.864  34.039  14.710
37560W        W 4343  19.692  26.852   3.816
37561W        W 4344  30.979  29.176  11.203
37562W        W 4345   7.110   3.700   0.912
37563W        W 4346  40.935  20.509  12.433
37564W        W 4347  17.101  28.508  14.832
37565W        W 4348  33.375  16.198   2.739
37566W        W 4349  14.136  30.093   0.515
37567W        W 4350  44.020  38.381   0.400
37568W        W 4351  42.820   8.637  13.325
37569W        W 4352  23.872  42.905  10.636
37570W        W 4353  43.233  26.287   3.138
37571W        W 4354  36.637  12.760  10.396
37572W        W 4355  16.320   9.125  13.653
37573W        W 4356   9.202  33.569   4.021
37574W        W 4357  10.249  28.884  14.717
37575W        W 4358  27.546  26.946   4.518
37576W        W 4359  36.816   6.277  12.628
37577W        W 4360   0.560  31.892   5.073
37578W        W 4361  10.132  25.039  10.614
37579W        W 4362  35.729  21.861  10.165
37580W        W 4363  37.770   8.463  12.159
37581W        W 4364  18.200  38.314  13.051
37582W        W 4365  41.072  22.612   3.845
37583W        W 4366   8.994  14.257   2.186
37584W        W 4367  36.822  43.836  12.427
37585W        W 4368  26.687  11.073  13.817
37586W        W 4369  23.985  27.369   0.876
37587W        W 4370  34.185  10.856   1.393
37588W        W 4371  10.102   7.458  13.094
37589W        W 4372  26.734  36.147  13.909
37590W        W 4373  44.952  20.746   1.221
37591W        W 4374  36.937  20.035   1.896
37592W        W 4375  13.363   7.227  12.857
37593W        W 4376  27.643   3.915  12.576
37594W        W 4377  23.679  10.941   0.375
37595W        W 4378  22.110  35.902  12.049
37596W        W 4379  17.059  29.408  14.010
37597W        W 4380  26.733  30.146  12.831
37598W        W 4381   0.847   6.432  13.213
37599W        W 4382  21.778  14.511  12.372
37600W        W 4383  42.005  30.060   0.218
37601W        W 4384  39.732  30.154   1.883
37602W        W 4385  30.175  31.954   4.519
37603W        W 4386  33.000  34.638   4.863
37604W        W 4387  16.067  34.990   4.830
37605W        W 4388  24.010  38.321   4.657
37606W        W 4389  12.143  41.475  13.126
37607W        W 4390  42.446  19.050  14.431
37608W        W 4391  14.725  26.094  12.599
37609W        W 4392  42.249  22.737  13.298
37610W        W 4393   8.846  32.990   4.514
37611W        W 4394  10.413  19.641  13.868
37612W        W 4395  22.649  37.887   3.293
37613W        W 4396  35.529  34.059   0.764
37614W        W 4397   4.279  15.717  14.006
37615W        W 4398  18.237  23.585   4.871
37616W        W 4399   6.866  13.169   0.847
37617W        W 4400  26.066  37.965  13.463
37618W        W 4401  24.890  36.471   1.152
37619W        W 4402   8.703  25.256  13.770
37620W        W 4403  17.390  25.584  12.016
37621W        W 4404  16.809  15.738   5.391
37622W        W 4405   0.459  24.136   2.891
37623W        W 4406  42.854  36.981   3.415
37624W        W 4407  14.786  18.425   4.158
37625W        W 4408  10.747   4.880   1.912
37626W        W 4409  16.763  26.540   3.870
37627W        W 4410  15.946  28.886  10.386
37628W        W 4411  11.086   8.289   4.080
37629W        W 4412  31.505   1.147   1.541
37630W        W 4413  28.194  30.608  14.186
37631W        W 4414  39.215   4.132  11.085
37632W        W 4415  31.258  18.110   4.646
37633W        W 4416  34.900   2.799   3.198
37634W        W 4417   2.407   0.351  13.505
37635W        W 4418   6.714  29.562  12.589
37636W        W 4419  34.383   2.991  13.457
37637W        W 4420  41.929  29.409   2.004
37638W        W 4421  41.560  37.087  11.075
37639W        W 4422  16.133  17.765   3.254
37640W        W 4423  39.987  43.285   2.632
37641W        W 4424  36.971  16.778  11.098
37642W        W 4425  35.574  35.572   1.885
37643W        W 4426  37.441  28.686   0.401
37644W        W 4427  44.421  16.478  10.383
37645W        W 4428   4.617  24.664   2.326
37646W        W 4429  35.625  10.204  14.051
37647W        W 4430  44.124  30.119  10.284
37648W        W 4431   1.708  14.562  11.162
37649W        W 4432  41.209  25.243   1.096
37650W        W 4433   5.490  42.706  12.446
37651W        W 4434   0.700  29.404  12.972
37652W        W 4435   6.415  25.483   2.782
37653W        W 4436  36.456   7.924   3.160
37654W        W 4437  18.505  35.857   2.498
37655W        W 4438  18.171   5.209  12.483
37656W        W 4439  11.438  20.315   0.781
37657W        W 4440  20.153  30.623   2.000
37658W        W 4441  20.496   7.384  12.955
37659W        W 4442  25.263  23.198   1.885
37660W        W 4443   7.609  44.031  12.009
37661W        W 4444  30.502  14.151  11.519
37662W        W 4445  15.715   1.714  12.419
37663W        W 4446  41.108   0.991  12.684
37664W        W 4447  17.595   3.751  11.069
37665W        W 4448  41.727  41.803   3.743
37666W        W 4449   5.429  40.431  13.430
37667W        W 4450  23.634  29.902   0.303
37668W        W 4451  26.193  19.585   2.228
37669W        W 4452  43.018   1.338  11.057
37670W        W 4453   4.893  43.546   1.774
37671W        W 4454  35.122  40.037  13.400
37672W        W 4455  34.970   9.386   1.910
37673W        W 4456  44.883  30.133  13.414
37674W        W 4457  10.293  24.465  11.369
37675W        W 4458  14.084  22.545  10.546
37676W        W 4459  14.391  26.187   1.323
37677W        W 4460   2.296   9.047  11.071
37678W        W 4461  13.847  15.625  12.464
37679W        W 4462  31.887  38.374  11.266
37680W        W 4463   9.434   6.730   3.588
37681W        W 4464  23.852  33.481  13.428
37682W        W 4465  17.576  27.894   2.284
37683W        W 4466   0.946  28.679   3.553
37684W        W 4467  24.073   7.902   2.225
37685W        W 4468  44.103   3.805   3.272
37686W        W 4469   7.462   8.921   4.260
37687W        W 4470  11.212  14.145  12.031
37688W        W 4471  23.459  35.101   3.243
37689W        W 4472  19.667   1.319   1.726
37690W        W 4473   3.703  32.972   1.927
37691W        W 4474  11.825   7.039  12.840
37692W        W 4475   8.903  32.930  10.662
37693W        W 4476  30.565  39.564   2.712
37694W        W 4477  22.449   5.815   2.259
37695W        W 4478  23.589   3.468   0.958
37696W        W 4479  27.714  31.060  12.831
37697W        W 4480  28.734  32.456   1.830
37698W        W 4481  20.095  30.878   0.974
37699W        W 4482  22.478  42.874  13.959
37700W        W 4483  12.946  11.369  13.986
37701W        W 4484  13.837  24.779   1.042
37702W        W 4485  38.328  36.517  12.071
37703W        W 4486  40.925   4.415   4.468
37704W        W 4487  18.587  40.763  14.365
37705W        W 4488  22.824  12.755  13.877
37706W        W 4489  22.290  12.861  11.424
37707W        W 4490  32.604  37.972   0.267
37708W        W 4491   6.830  25.693  13.917
37709W        W 4492  26.677  26.666  12.767
37710W        W 4493  15.582  28.085  10.643
37711W        W 4494  38.001  16.543   1.648
37712W        W 4495  34.234  31.039  12.304
37713W        W 4496  41.938  35.840  12.965
37714W        W 4497  12.813  18.067  11.124
37715W        W 4498   1.766  31.071  13.476
37716W        W 4499  32.138   0.831   4.757
37717W        W 4500  13.726  21.286  12.457
37718W        W 4501   9.162  10.082  12.931
37719W        W 4502  32.583   7.522   3.126
37720W        W 4503  43.949  16.079   4.132
37721W        W 4504  12.821   7.103   1.271
37722W        W 4505  43.276  38.838   0.402
37723W        W 4506  30.611  21.684  13.813
37724W        W 4507   1.945  22.987  12.158
37725W        W 4508  44.397  35.607  10.503
37726W        W 4509  35.591  20.089   4.687
37727W        W 4510  43.500  44.645  13.358
37728W        W 4511  34.468  38.415  14.391
37729W        W 4512  44.768  39.126   0.820
37730W        W 4513  27.706  40.387  12.528
37731W        W 4514  44.657  21.587  10.131
37732W        W 4515  42.271  11.246  11.139
37733W        W 4516  20.590  13.330   1.505
37734W        W 4517   0.278  37.122  13.428
37735W        W 4518   1.851  24.072   4.220
37736W        W 4519  38.086  27.495  12.785
37737W        W 4520  19.670  27.036   4.289
37738W        W 4521  22.768  15.033  11.905
37739W        W 4522  43.682  12.532  12.809
37740W        W 4523   3.162   7.790  14.844
37741W        W 4524   5.441  10.864   1.649
37742W        W 4525  28.177  18.557   2.391
37743W        W 4526  24.388  26.261  12.431
37744W        W 4527  26.444  19.498  14.953
37745W        W 4528  29.740  20.559   0.480
37746W        W 4529   9.909  29.480   1.709
37747W        W 4530  36.388  34.958   0.535
37748W        W 4531   0.293  39.410   1.448
37749W        W 4532  18.833  21.225  11.893
37750W        W 4533  24.103  29.860   3.895
37751W        W 4534  10.875  37.752   3.745
37752W        W 4535  43.721  12.783  14.659
37753W        W 4536  19.545   0.028   3.572
37754W        W 4537  20.929  43.262   1.858
37755W        W 4538  13.805  11.851  12.916
37756W        W 4539  31.682   6.031  11.540
37757W        W 4540   6.939  38.629   1.264
37758W        W 4541  14.705  40.663   2.436
37759W        W 4542  11.600  24.798   2.404
37760W        W 4543   1.026  29.225   1.807
37761W        W 4544   8.853  13.522  14.500
37762W        W 4545  20.725   4.565   3.177
37763W        W 4546   6.743   9.414   4.719
37764W        W 4547  14.305  26.313  14.628
37765W        W 4548  30.146  15.607   3.163
37766W        W 4549  10.408  17.873  12.597
37767W        W 4550  22.387  10.346   2.065
37768W        W 4551   4.268   1.858   1.189
37769W        W 4552   7.579  34.398   4.160
37770W        W 4553  33.638  35.835  14.767
37771W        W 4554  40.511   1.042  11.928
37772W        W 4555  16.744  13.327   0.442
37773W        W 4556  18.203  28.089  12.892
37774W        W 4557  25.588   7.565   1.298
37775W        W 4558  23.268  15.134  14.979
37776W        W 4559  37.132  10.616  12.911
37777W        W 4560  14.729  43.446   0.729
37778W        W 4561   9.813  29.669   0.274
37779W        W 4562  29.897  44.032   1.738
37780W        W 4563  37.981  15.274   0.569
37781W        W 4564   6.274  28.679  14.445
37782W        W 4565  23.208  14.071  13.442
37783W        W 4566  15.641  43.034  11.066
37784W        W 4567  24.618  14.093  13.876
37785W        W 4568   0.440   9.820   0.828
37786W        W 4569  36.109  35.852  12.043
37787W        W 4570  40.984  25.926  14.109
37788W        W 4571  12.870   9.538   4.451
37789W        W 4572  16.038   9.732   2.787
37790W        W 4573  19.773   5.689   1.766
37791W        W 4574  27.663  30.408  10.577
37792W        W 4575  24.121  31.488   2.383
37793W        W 4576  11.227   0.780  10.501
37794W        W 4577  44.998  24.179  10.696
37795W        W 4578  15.924  23.751   0.124
37796W        W 4579  25.156  24.113   4.274
37797W        W 4580   4.694  16.223  12.340
37798W        W 4581  40.898  34.645   4.357
37799W        W 4582  42.898  32.529  14.336
37800W        W 4583  10.399  27.777  11.191
37801W        W 4584  25.416   3.991  11.787
37802W        W 4585  41.750  11.310  11.119
37803W        W 4586  23.369  39.511   3.355
37804W        W 4587  39.388  41.577   3.314
37805W        W 4588  37.541  41.320  10.646
37806W        W 4589  31.639  21.698  13.694
37807W        W 4590   5.349  32.687  10.712
37808W        W 4591  39.051   2.822  10.121
37809W        W 4592  31.495  11.251   0.048
37810W        W 4593  25.024  40.449  12.874
37811W        W 4594  22.125  23.202   1.332
37812W        W 4595  22.776   0.375  10.957
37813W        W 4596  16.303  13.317   4.161
37814W        W 4597   6.729  12.655  12.671
37815W        W 4598   4.245   3.317  11.605
37816W        W 4599  29.531   4.469   4.438
37817W        W 4600  31.538  38.929  10.636
37818W        W 4601  16.109   2.902  11.002
37819W        W 4602   3.933  31.620   5.007
37820W        W 4603  21.284  19.550   2.742
37821W        W 4604  38.839  43.391  11.665
37822W        W 4605  33.510  32.437   2.559
37823W        W 4606   0.334   8.266  13.086
37824W        W 4607  37.432  40.410   3.401
37825W        W 4608  36.385  33.921   4.665
37826W        W 4609  36.046  29.466   3.284
37827W        W 4610  32.572  39.504   2.389
37828W        W 4611  43.878  38.924   4.821
37829W        W 4612  10.586  33.208   1.317
37830W        W 4613  21.281  40.369   0.491
37831W        W 4614  16.031   2.385  14.854
37832W        W 4615  26.731  38.895  10.748
37833W        W 4616  38.556  13.299  13.452
37834W        W 4617   4.496  12.777   2.365
37835W        W 4618   3.027  29.486  13.054
37836W        W 4619  41.219   1.835   1.952
37837W        W 4620  10.817   5.770  10.241
37838W        W 4621  24.233  20.114   2.149
37839W        W 4622  27.234  25.691   0.765
37840W        W 4623  29.938  18.599   2.462
37841W        W 4624   9.649   5.205   1.309
37842W        W 4625  30.828  27.980  14.949
37843W        W 4626   4.269  39.083   1.228
37844W        W 4627  11.169  17.470  12.906
37845W        W 4628  31.075  21.462  14.355
37846W        W 4629  33.009  30.230   1.398
37847W        W 4630  27.411  36.434   0.833
37848W        W 4631  20.876  21.598   0.301
37849W        W 4632  19.727  11.348  13.097
37850W        W 4633  40.252  35.491  14.491
37851W        W 4634  40.206  12.838  13.894
37852W        W 4635  29.441  18.268  12.424
37853W        W 4636  27.217  39.353  14.802
37854W        W 4637  17.250  10.558   0.039
37855W        W 4638  33.865   0.873   3.781
37856W        W 4639  37.789  42.477   2.163
37857W        W 4640  26.157  41.537   4.615
37858W        W 4641  18.091   7.010   1.820
37859W        W 4642   6.691  37.899  14.040
37860W        W 4643  14.042  10.047   1.932
37861W        W 4644  25.254   5.192  11.070
37862W        W 4645  42.285  23.276  13.963
37863W        W 4646  18.528  27.847   2.657
37864W        W 4647  27.540  34.597   0.486
37865W        W 4648  38.065  26.141   2.544
37866W        W 4649  38.790  15.960   0.691
37867W        W 4650  21.823   9.058  13.331
37868W        W 4651  18.578  35.100  11.969
37869W        W 4652  41.277  12.901  10.268
37870W        W 4653  19.264   8.906   3.856
37871W        W 4654   6.712  36.069   3.231
37872W        W 4655  38.226  10.534   1.252
37873W        W 4656  30.195  13.401  12.474
37874W        W 4657  10.537  11.155  11.834
37875W        W 4658   6.783   6.522   4.859
37876W        W 4659  34.093  31.337  14.516
37877W        W 4660   2.789   5.934   3.480
37878W        W 4661  13.224  29.857  13.385
37879W        W 4662  31.701  42.749   4.357
37880W        W 4663  28.546  17.641  14.320
37881W        W 4664  35.086  34.693  11.141
37882W        W 4665  13.927  29.682  12.899
37883W        W 4666   0.397  36.017  14.738
37884W        W 4667  22.201  39.913  14.959
37885W        W 4668  39.951  41.381   3.261
37886W        W 4669  21.674  27.398  14.795
37887W        W 4670  26.585  30.756   2.580
37888W        W 4671  31.476   9.767  13.417
37889W        W 4672  28.408   4.224   3.701
37890W        W 4673  43.297  40.582   1.254
37891W        W 4674  17.243  17.661  14.298
37892W        W 4675   4.853  42.249  11.450
37893W        W 4676   0.400  40.443  14.453
37894W        W 4677  18.863  44.912   4.368
37895W        W 4678  43.323  22.927  11.620
37896W        W 4679  10.324  33.160  12.876
37897W        W 4680  30.418  11.328  14.705
37898W        W 4681   9.946  29.150  11.636
37899W        W 4682  19.019  39.572   1.992
37900W        W 4683   3.075  12.472   1.328
37901W        W 4684  21.808  11.605  13.400
37902W        W 4685  28.400   4.462   3.238
37903W        W 4686  10.220  21.476  10.085
37904W        W 4687   9.824  33.523  14.727
37905W        W 4688   1.848   1.699  14.892
37906W        W 4689  30.097  30.485   2.514
37907W        W 4690   1.538  32.501  10.984
37908W        W 4691   0.999  11.157   1.704
37909W        W 4692  27.953  27.655   0.067
37910W        W 4693  22.243  33.169  11.551
37911W        W 4694   3.511  28.431   1.315
37912W        W 4695  29.154  16.751   2.714
37913W        W 4696  22.759   5.165   2.857
37914W        W 4697   7.926  37.462  12.541
37915W        W 4698   8.946  28.438  14.627
37916W        W 4699  19.727  38.984  13.029
37917W        W 4700  34.062  11.886  11.863
37918W        W 4701  13.672   1.939   0.331
37919W        W 4702  40.617  38.300   3.701
37920W        W 4703  27.642  29.171  14.293
37921W        W 4704  36.520  23.296   3.601
37922W        W 4705   3.535  29.646  13.125
37923W        W 4706  44.351  19.555   0.922
37924W        W 4707   7.906  39.071   1.915
37925W        W 4708  17.757  22.715  14.251
37926W        W 4709  32.659  18.732   4.121
37927W        W 4710  21.011   0.220   2.748
37928W        W 4711  30.175  32.970   1.004
37929W        W 4712  29.145  25.860   1.702
37930W        W 4713   6.843   3.935   2.920
37931W        W 4714  32.348  12.585  11.530
37932W        W 4715  27.485  33.529   2.363
37933W        W 4716  29.948  39.056   2.923
37934W        W 4717  13.391  25.565  10.727
37935W        W 4718  36.936  13.115   3.217
37936W        W 4719  12.699  30.169  14.931
37937W        W 4720  16.332  35.909  13.624
37938W        W 4721  28.970   1.448  12.761
37939W        W 4722   6.310   8.135  11.164
37940W        W 4723  25.933   5.342   3.368
37941W        W 4724  20.605   3.859   0.508
37942W        W 4725  22.632   8.809  13.503
37943W        W 4726  25.912  12.826   3.214
37944W        W 4727  20.982  32.080   3.114
37945W        W 4728  16.362   2.204  11.968
37946W        W 4729   0.355   4.234   2.219
37947W        W 4730  33.580   8.463  11.144
37948W        W 4731  38.646  23.493   0.815
37949W        W 4732  15.119   4.332  12.625
37950W        W 4733  22.512  19.543   3.296
37951W        W 4734   7.464  20.226   0.949
37952W        W 4735  39.813  12.049   1.583
37953W        W 4736  44.055   1.247  13.425
37954W        W 4737  34.187  29.691   1.209
37955W        W 4738  13.543   6.654  14.892
37956W        W 4739  18.060   6.190  13.784
37957W        W 4740  28.713  43.539  12.458
37958W        W 4741  20.967  16.365   3.657
37959W        W 4742  22.670   2.658  11.279
37960W        W 4743   9.226  37.889  10.455
37961W        W 4744  33.909  24.410  13.309
37962W        W 4745   0.916  34.289   3.145
37963W        W 4746  25.229  37.877  13.019
37964W        W 4747  18.323   4.962  14.922
37965W        W 4748  22.534   8.547  11.546
37966W        W 4749  22.658   8.493   4.152
37967W        W 4750  24.081  30.380  11.754
37968W        W 4751   3.222  22.347  10.076
37969W        W 4752  20.279  41.351   2.324
37970W        W 4753   3.373  20.419  13.032
37971W        W 4754  34.412   5.735   5.196
37972W        W 4755   5.242  42.113  13.882
37973W        W 4756  16.093   2.369   1.947
37974W        W 4757  39.879  44.950  14.534
37975W        W 4758  41.259  42.914   3.757
37976W        W 4759  28.024  11.078  12.922
37977W        W 4760   3.872  23.289  13.077
37978W        W 4761  35.963  28.149  14.423
37979W        W 4762  31.368  36.504   2.211
37980W        W 4763  29.956  18.084   2.331
37981W        W 4764  38.616  31.907   0.885
37982W        W 4765  30.665   6.747   2.233
37983W        W 4766  22.806  29.196   2.819
37984W        W 4767  37.339   4.335   2.887
37985W        W 4768  21.280   7.139   2.853
37986W        W 4769  42.305  10.740   1.044
37987W        W 4770  33.980  12.348   1.351
37988W        W 4771   4.206  23.198   3.646
37989W        W 4772  10.454   9.464   4.594
37990W        W 4773   7.957  43.621  14.813
37991W        W 4774  29.769  12.893   4.056
37992W        W 4775  38.493   9.576   3.456
37993W        W 4776   5.770  32.033   3.070
37994W        W 4777  29.687  30.109   0.730
37995W        W 4778  27.687  24.568  13.839
37996W        W 4779  30.413   9.898  12.080
37997W        W 4780   5.503  42.988   2.605
37998W        W 4781  20.510  15.771   2.689
37999W        W 4782  11.336  10.308   5.164
38000W        W 4783  20.606  36.555  12.691
38001W        W 4784  12.148   0.357  11.747
38002W        W 4785  30.495  40.293  14.371
38003W        W 4786  20.530  10.327   4.676
38004W        W 4787  14.587   0.343   3.157
38005W        W 4788  39.544  24.412  14.851
38006W        W 4789  42.708  21.549  10.630
38007W        W 4790   9.695   4.954   4.637
38008W        W 4791  11.558  20.581  11.149
38009W        W 4792  39.848  23.933   2.253
38010W        W 4793  29.127  41.977  13.677
38011W        W 4794  28.026   8.677   0.880
38012W        W 4795  12.821   4.358  14.505
38013W        W 4796  25.735  37.966   2.724
38014W        W 4797  28.700  44.378  14.013
38015W        W 4798   1.548  15.552   0.693
38016W        W 4799  31.081  24.620   3.106
38017W        W 4800   3.895   1.267  12.599
38018W        W 4801  28.981  44.534   3.674
38019W        W 4802   6.906  40.700  14.963
38020W        W 4803  42.800  17.092   1.253
38021W        W 4804  24.612  15.938   0.843
38022W        W 4805  42.324  24.156   1.951
38023W        W 4806  18.616  21.083  14.882
38024W        W 4807  21.316  31.426  11.067
38025W        W 4808  39.779  41.984   4.598
38026W        W 4809  24.434  39.579  12.803
38027W        W 4810  39.386  41.066   3.294
38028W        W 4811   0.795  34.065   4.826
38029W        W 4812  13.194  37.056   0.014
38030W        W 4813  41.900  37.396   1.451
38031W        W 4814  39.875  16.479   1.277
38032W        W 4815  34.448  16.840  12.870
38033W        W 4816  28.709  44.406  14.863
38034W        W 4817  10.352  23.377  14.337
38035W        W 4818  25.058  12.656  10.758
38036W        W 4819  32.194   0.415  10.308
38037W        W 4820  14.302  11.879   3.760
38038W        W 4821  22.808   6.354   2.246
38039W        W 4822  35.059  14.741  10.709
38040W        W 4823  41.532  16.139   3.123
38041W        W 4824  34.158  38.343   1.238
38042W        W 4825  37.750  33.960   3.686
38043W        W 4826  43.536  27.479  12.442
38044W        W 4827  39.840   7.651  12.803
38045W        W 4828  21.318  12.217  14.023
38046W        W 4829   9.856  33.614   1.648
38047W        W 4830   2.929  36.191  14.570
38048W        W 4831  36.853  31.515  14.290
38049W        W 4832  22.925  23.599  14.320
38050W        W 4833   8.756  41.707   5.385
38051W        W 4834  33.631  20.207  14.718
38052W        W 4835  15.728  39.479  12.015
38053W        W 4836   1.042  13.107   0.893
38054W        W 4837   2.022  32.949  14.835
38055W        W 4838   1.717  20.031  14.313
38056W        W 4839  23.451  18.207  11.902
38057W        W 4840  39.107   1.226  14.080
38058W        W 4841  30.614  14.387   1.411
38059W        W 4842  22.503   1.023   0.202
38060W        W 4843   4.940   3.627   5.168
38061W        W 4844  27.285  26.479   4.075
38062W        W 4845  14.813  28.189   2.869
38063W        W 4846  35.418  11.246   3.292
38064W        W 4847  12.848  42.442   4.107
38065W        W 4848  23.087   9.066  14.995
38066W        W 4849  40.765  36.949  13.318
38067W        W 4850  10.784   8.364  13.097
38068W        W 4851   4.131  34.495   1.560
38069W        W 4852   3.220  20.310   4.268
38070W        W 4853  13.195   4.371  11.047
38071W        W 4854   8.653  31.566  10.778
38072W        W 4855  30.491  31.695  14.780
38073W        W 4856  38.395  26.848  10.933
38074W        W 4857   1.870   4.306   1.458
38075W        W 4858  27.557  13.517  13.427
38076W        W 4859   8.012  40.983   3.393
38077W        W 4860  15.332   8.176  14.891
38078W        W 4861  43.276   5.133   1.890
38079W        W 4862   8.234   8.263   1.409
38080W        W 4863  35.616  44.444  14.087
38081W        W 4864  27.434  18.413  12.921
38082W        W 4865  39.118  12.600   3.702
38083W        W 4866  14.448  42.444   0.485
38084W        W 4867  20.251  43.271   4.152
38085W        W 4868  16.277   5.288  11.032
38086W        W 4869  18.646   4.306  14.354
38087W        W 4870  26.758  33.422   2.839
38088W        W 4871   3.460  30.603   1.542
38089W        W 4872   6.224  38.427  12.034
38090W        W 4873  33.097  27.053   4.654
38091W        W 4874  18.836  11.204   1.959
38092W        W 4875  30.774  21.888  12.047
38093W        W 4876  42.749  12.170   3.755
38094W        W 4877  28.081  33.084   1.900
38095W        W 4878   3.510  41.552   1.487
38096W        W 4879   3.990  25.224  11.649
38097W        W 4880  42.078  15.357  11.116
38098W        W 4881  35.304   7.200  13.780
38099W        W 4882  29.232  18.490   3.159
38100W        W 4883  41.351   2.764   0.722
38101W        W 4884  33.751  32.400   0.882
38102W        W 4885  26.515  12.349  10.695
38103W        W 4886   7.122  17.282   4.352
38104W        W 4887  16.640  10.133   2.226
38105W        W 4888  27.431  16.829  10.585
38106W        W 4889  10.568  17.286   1.242
38107W        W 4890  35.040   4.999  10.168
38108W        W 4891  37.084  11.171  10.366
38109W        W 4892   8.885  34.406   3.770
38110W        W 4893   6.357  13.625   3.750
38111W        W 4894  38.824  33.207  13.571
38112W        W 4895  12.429  12.623   4.624
38113W        W 4896   3.289  13.675  11.185
38114W        W 4897  26.060  28.624  13.270
38115W        W 4898  15.842  39.020   1.136
38116W        W 4899  18.980  30.566   3.670
38117W        W 4900  43.330  19.699  13.970
38118W        W 4901  30.027  36.284   3.332
38119W        W 4902  38.394  29.452   4.135
38120W        W 4903  18.480   1.414  14.886
38121W        W 4904  28.484   2.942   4.091
38122W        W 4905   3.403  35.397  10.783
38123W        W 4906  12.171  37.952  13.786
38124W        W 4907  42.038  16.364   3.411
38125W        W 4908   3.296  36.426  14.859
38126W        W 4909  21.792  17.673  10.389
38127W        W 4910  11.675  26.016  10.566
38128W        W 4911  39.818  38.012   0.995
38129W        W 4912  31.766  18.165   0.719
38130W        W 4913   9.146  43.256   4.342
38131W        W 4914   1.130   2.487  11.543
38132W        W 4915  20.865  38.859   0.899
38133W        W 4916  27.230  40.938   9.702
38134W        W 4917  43.537  39.433   4.827
38135W        W 4918  38.337  42.481  14.868
38136W        W 4919  16.053  35.530  13.903
38137W        W 4920  32.012  25.786  14.071
38138W        W 4921  38.917   6.036  13.686
38139W        W 4922  30.890   7.766  12.455
38140W        W 4923   5.295  35.519  14.378
38141W        W 4924  35.727   3.652   0.406
38142W        W 4925  22.154  23.282  12.196
38143W        W 4926  12.712  43.487   2.803
38144W        W 4927  22.048  20.929  14.390
38145W        W 4928  26.128  41.859  10.719
38146W        W 4929  35.642  25.949  11.097
38147W        W 4930  38.714  25.622  12.609
38148W        W 4931  22.520   5.904   0.356
38149W        W 4932  25.155   1.430   1.940
38150W        W 4933  16.850  12.325   0.691
38151W        W 4934  41.964  15.159  13.446
38152W        W 4935  33.095  37.793   3.272
38153W        W 4936  24.736  22.648  14.583
38154W        W 4937  16.158  33.073   1.751
38155W        W 4938  31.546  24.140   0.310
38156W        W 4939  38.034  36.942  14.053
38157W        W 4940  44.226  39.612  12.822
38158W        W 4941  19.645  15.348  11.248
38159W        W 4942  31.130  16.684   2.427
38160W        W 4943  41.557  37.776  14.343
38161W        W 4944  39.913  34.781   2.128
38162W        W 4945  10.166  42.832  12.889
38163W        W 4946  41.480   5.742   2.179
38164W        W 4947  38.098  30.422   2.196
38165W        W 4948  40.398  34.460   4.799
38166W        W 4949  38.401   6.286  14.565
38167W        W 4950  43.472  13.078   3.696
38168W        W 4951  24.788  32.123   4.886
38169W        W 4952  27.841  18.627   2.802
38170W        W 4953  29.645  11.085  13.302
38171W        W 4954  32.188  10.404   4.557
38172W        W 4955  15.096  13.741   1.391
38173W        W 4956  28.615  35.343   0.867
38174W        W 4957  30.700  31.510  12.084
38175W        W 4958   9.907  16.133  10.944
38176W        W 4959   3.854  12.181  10.652
38177W        W 4960  32.553  40.269  13.290
38178W        W 4961  38.945  24.391   4.285
38179W        W 4962  21.557  13.362   4.711
38180W        W 4963  36.405  30.465   3.585
38181W        W 4964  13.516  44.082   1.884
38182W        W 4965  12.068  19.579   1.933
38183W        W 4966   0.292   1.759  13.879
38184W        W 4967   2.209   8.253  12.777
38185W        W 4968  16.731  17.512  14.293
38186W        W 4969  16.280   0.984   1.689
38187W        W 4970   8.453  42.930   3.907
38188W        W 4971  17.781  31.478  11.118
38189W        W 4972  12.173  28.698   1.185
38190W        W 4973   7.690  11.784   4.579
38191W        W 4974  38.960  20.678   3.559
38192W        W 4975  32.962  16.626   3.638
38193W        W 4976  14.065  28.118   4.573
38194W        W 4977  24.221  36.431  10.742
38195W        W 4978   9.706  39.112   4.482
38196W        W 4979   7.677  16.814  13.852
38197W        W 4980  27.966   8.713   1.455
38198W        W 4981  19.523   0.147  14.414
38199W        W 4982  11.336   8.710  12.528
38200W        W 4983  38.405   3.848  11.614
38201W        W 4984   4.636  42.051   0.838
38202W        W 4985  38.043  33.924  14.091
38203W        W 4986  32.374  27.992   0.766
38204W        W 4987  13.645  20.543  14.890
38205W        W 4988  40.265  30.025   4.641
38206W        W 4989  28.037  44.192  14.067
38207W        W 4990  22.205  19.549  11.970
38208W        W 4991   3.124  14.158  11.076
38209W        W 4992  15.230  32.848   1.321
38210W        W 4993   2.221  25.224  13.065
38211W        W 4994  17.244  44.942  13.431
38212W        W 4995  14.833   5.751   0.389
38213W        W 4996   1.557  41.700   2.881
38214W        W 4997  36.590   3.408  12.597
38215W        W 4998  40.601   2.324   1.873
38216W        W 4999   2.010  29.462   2.527
38217W        W 5000  28.947   4.691  11.670
38218W        W 5001  33.125  34.887  14.087
38219W        W 5002  19.383   4.234  12.035
38220W        W 5003  40.416  31.477  14.943
38221W        W 5004  42.742  11.585  14.845
38222W        W 5005  31.503   1.932  14.271
38223W        W 5006  20.172  29.967  13.795
38224W        W 5007  41.487  28.720   1.419
38225W        W 5008  15.627  39.386  14.490
38226W        W 5009  20.546   5.189  10.700
38227W        W 5010  14.583  11.662  13.420
38228W        W 5011   0.222   7.348  14.394
38229W        W 5012   6.896  11.166   0.317
38230W        W 5013  16.766  35.470  12.020
38231W        W 5014  13.185  35.578  13.871
38232W        W 5015  29.651   4.167  12.790
38233W        W 5016  24.732  27.109   1.848
38234W        W 5017   5.697   7.672   0.416
38235W        W 5018   6.407   9.646  14.934
38236W        W 5019  32.611  21.216  13.594
38237W        W 5020  38.293   1.408  14.530
38238W        W 5021  43.507   1.894  10.565
38239W        W 5022  38.451  30.369   4.354
38240W        W 5023  22.638   1.633   3.721
38241W        W 5024  23.679   1.779  10.184
38242W        W 5025  43.537   4.121  11.439
38243W        W 5026  41.396   3.261   4.753
38244W        W 5027  44.523  14.580   4.058
38245W        W 5028   2.393   3.809   4.616
38246W        W 5029  34.443  16.323   0.991
38247W        W 5030   2.237   9.911  14.477
38248W        W 5031  20.868  22.507   4.038
38249W        W 5032  13.333  44.331   3.635
38250W        W 5033  38.455  19.604  11.225
38251W        W 5034  34.977  38.887  10.771
38252W        W 5035  13.046  14.567  10.232
38253W        W 5036  11.861  14.829  12.459
38254W        W 5037  19.541  21.774  13.686
38255W        W 5038  19.693  43.477   4.797
38256W        W 5039  33.828  34.813  14.779
38257W        W 5040   0.289  28.079   2.407
38258W        W 5041  20.399   2.894   1.912
38259W        W 5042  26.299  15.237   4.647
38260W        W 5043  19.125   2.210   0.983
38261W        W 5044  35.041  13.849   4.694
38262W        W 5045   3.944  42.456  11.888
38263W        W 5046  23.981  21.812   5.076
38264W        W 5047  33.610  15.581   1.795
38265W        W 5048  40.098   9.572   1.029
38266W        W 5049  34.616  27.520  13.337
38267W        W 5050  21.244  41.978  12.549
38268W        W 5051  42.949  17.299  13.794
38269W        W 5052  44.532   1.781   3.175
38270W        W 5053   4.631   9.870   2.323
38271W        W 5054  30.387  44.624   4.698
38272W        W 5055  31.126   4.460  10.547
38273W        W 5056   0.967  37.800  14.442
38274W        W 5057  11.589   9.926  14.302
38275W        W 5058  26.146  42.483   2.324
38276W        W 5059  30.028  11.609  13.980
38277W        W 5060   6.705  41.115  12.110
38278W        W 5061  36.545   5.131   4.322
38279W        W 5062  13.366   1.824   1.170
38280W        W 5063  11.324  14.879  14.420
38281W        W 5064  15.211  31.873  14.489
38282W        W 5065  19.008  36.378  10.673
38283W        W 5066  11.139  27.702  12.665
38284W        W 5067  35.498  44.379   2.593
38285W        W 5068  39.872  14.403   3.660
38286W        W 5069   6.893  30.512  11.868
38287W        W 5070  33.037  43.109   0.854
38288W        W 5071  23.990  24.093  11.212
38289W        W 5072  16.749  14.534   2.244
38290W        W 5073  26.168  12.801  11.531
38291W        W 5074  38.415  44.694  13.394
38292W        W 5075  13.596  15.844  12.054
38293W        W 5076  13.205  41.995   2.429
38294W        W 5077   4.437  25.659   1.608
38295W        W 5078  42.323  35.996  12.092
38296W        W 5079  23.180  20.037  14.492
38297W        W 5080  33.532  32.859   4.541
38298W        W 5081  17.558  33.325  13.029
38299W        W 5082  41.473  42.119  11.529
38300W        W 5083   5.776  21.606  13.933
38301W        W 5084  32.897  24.039  11.166
38302W        W 5085   7.737  42.315  10.653
38303W        W 5086  22.562   1.264  14.586
38304W        W 5087  41.471  18.654  14.762
38305W        W 5088   2.869  21.632   1.215
38306W        W 5089   8.060  18.458  13.253
38307W        W 5090  12.682  37.240   5.603
38308W        W 5091  23.647  15.184   3.365
38309W        W 5092  12.365  30.598   4.493
38310W        W 5093  16.859  16.271   0.436
38311W        W 5094   9.280  39.082   2.026
38312W        W 5095   4.343  40.023   0.431
38313W        W 5096  26.625  34.517  12.483
38314W        W 5097  34.494  31.483  12.410
38315W        W 5098  11.212   8.965  13.984
38316W        W 5099  14.327  19.160  13.553
38317W        W 5100  44.707  12.393  11.051
38318W        W 5101  39.875  13.366   0.280
38319W        W 5102  28.674  11.699  11.607
38320W        W 5103  28.188  26.603  10.928
38321W        W 5104  41.020  42.818  14.875
38322W        W 5105  40.509  26.015   4.174
38323W        W 5106  25.349  15.128   1.918
38324W        W 5107  28.687  13.069  10.478
38325W        W 5108  19.774  20.938  12.450
38326W        W 5109   7.118  37.719   2.251
38327W        W 5110  17.205  31.183   4.125
38328W        W 5111  15.228  21.745   3.223
38329W        W 5112   5.405  24.134   4.390
38330W        W 5113  26.872  42.806   3.553
38331W        W 5114  40.479  18.149  11.586
38332W        W 5115  13.289  16.504   2.604
38333W        W 5116   5.075  10.677   0.424
38334W        W 5117   3.314  20.277  12.166
38335W        W 5118  40.630  14.936  10.691
38336W        W 5119  12.079   4.867   1.903
38337W        W 5120   9.822  16.825  11.908
38338W        W 5121  18.502  33.881  11.618
38339W        W 5122  23.131   6.312  14.502
38340W        W 5123  39.219  26.042  14.141
38341W        W 5124  43.269  14.531   3.699
38342W        W 5125   9.849  41.975   1.172
38343W        W 5126  40.098   5.525   0.441
38344W        W 5127  20.713  26.234   1.584
38345W        W 5128   3.528  38.795  12.087
38346W        W 5129  42.041  26.205   2.243
38347W        W 5130  12.593  20.007  12.104
38348W        W 5131  44.362  21.517   3.083
38349W        W 5132   6.311  33.989   0.780
38350W        W 5133  33.606  36.301  14.522
38351W        W 5134   7.932  12.215  11.214
38352W        W 5135  38.052  38.023   1.006
38353W        W 5136   1.026   8.401  14.202
38354W        W 5137  15.288  23.478   3.668
38355W        W 5138  37.434  13.241  10.600
38356W        W 5139  21.141   4.454  12.870
38357W        W 5140  24.560  25.353  11.031
38358W        W 5141  35.884  37.730   0.880
38359W        W 5142  17.724  34.623   3.845
38360W        W 5143   8.221   2.963  10.660
38361W        W 5144  25.056   2.371   4.978
38362W        W 5145  35.582  43.791  10.641
38363W        W 5146   8.177  32.918  14.016
38364W        W 5147  19.991  20.554   0.046
38365W        W 5148  14.737  12.151   4.920
38366W        W 5149  27.935  33.543   2.131
38367W        W 5150  32.062  17.732   2.813
38368W        W 5151  17.958  26.995  14.876
38369W        W 5152  39.993  34.968  12.024
38370W        W 5153  21.635  43.728   2.350
38371W        W 5154  31.160  30.091   0.324
38372W        W 5155  39.987  22.755   1.178
38373W        W 5156  37.338  26.151   3.246
38374W        W 5157  26.939   2.750   4.464
38375W        W 5158  14.027  19.173   2.846
38376W        W 5159  44.552  31.926  10.576
38377W        W 5160  29.425  10.960  10.704
38378W        W 5161   3.528  42.570   2.212
38379W        W 5162   2.691  18.399  13.718
38380W        W 5163  27.477   5.254  12.760
38381W        W 5164  10.335  18.541  13.483
38382W        W 5165   8.225  41.573  12.082
38383W        W 5166  33.472  24.485   2.746
38384W        W 5167  35.427  32.902   1.900
38385W        W 5168  42.593  32.503   4.642
38386W        W 5169  24.483  43.174  12.396
38387W        W 5170   7.971  21.516   4.637
38388W        W 5171  31.906  38.786  14.052
38389W        W 5172  39.970  40.506  13.143
38390W        W 5173  13.736  19.573  13.225
38391W        W 5174  22.624  18.720  11.433
38392W        W 5175  33.064  37.826   0.502
38393W        W 5176  43.679  30.001  14.178
38394W        W 5177  25.723  42.506   1.068
38395W        W 5178  31.402  39.780   4.125
38396W        W 5179   8.157  29.186   3.553
38397W        W 5180  41.816  39.810   4.218
38398W        W 5181  16.902   8.675   4.217
38399W        W 5182  26.519   6.293  11.605
38400W        W 5183  39.567  24.100  14.030
38401W        W 5184  25.526  10.184  14.430
38402W        W 5185  12.256   4.435   1.700
38403W        W 5186  15.664   2.832  13.315
38404W        W 5187  36.758  20.242  11.630
38405W        W 5188  36.358  30.032  13.834
38406W        W 5189   7.180   8.772   2.428
38407W        W 5190  25.896  17.739   2.301
38408W        W 5191  40.817  15.261  13.922
38409W        W 5192  41.548  21.093   3.245
38410W        W 5193   6.144  10.652   0.480
38411W        W 5194  22.211  12.162   2.675
38412W        W 5195  15.228  32.141   4.576
38413W        W 5196  39.582  27.558  12.079
38414W        W 5197  42.866  23.997   3.643
38415W        W 5198  17.530  14.101   2.026
38416W        W 5199  38.423   7.104  12.375
38417W        W 5200  13.468   1.244  11.520
38418W        W 5201   8.288  38.532   0.381
38419W        W 5202  22.275   9.672  11.972
38420W        W 5203  11.193   2.372   2.100
38421W        W 5204  13.254  18.348  11.059
38422W        W 5205   4.795  22.127   1.722
38423W        W 5206  39.529  23.607   1.024
38424W        W 5207  15.565   0.236   1.766
38425W        W 5208  25.533  11.645   2.452
38426W        W 5209  36.048  23.973   3.790
38427W        W 5210  38.892  13.038   3.081
38428W        W 5211  15.195  28.280   1.836
38429W        W 5212  28.927  15.824   4.961
38430W        W 5213  25.429  39.284  10.642
38431W        W 5214  30.906  29.204   4.121
38432W        W 5215   4.399  34.833  12.823
38433W        W 5216  41.863   1.086  14.255
38434W        W 5217  30.082  23.440   3.779
38435W        W 5218  41.005  17.782   4.082
38436W        W 5219  18.105  17.242  14.473
38437W        W 5220   2.848  42.763  10.855
38438W        W 5221  32.513  43.432   1.442
38439W        W 5222  14.050  44.246   0.875
38440W        W 5223  29.467   8.590  11.638
38441W        W 5224  35.673  33.258  13.364
38442W        W 5225  14.754  18.188   1.827
38443W        W 5226  32.212  25.487   2.405
38444W        W 5227   3.779  23.310   3.216
38445W        W 5228  22.823  31.179  14.804
38446W        W 5229  43.675   3.581   1.288
38447W        W 5230  44.920  42.906  11.643
38448W        W 5231  42.459  39.810   0.754
38449W        W 5232  30.684  16.717  12.635
38450W        W 5233  24.492  20.030   2.710
38451W        W 5234   2.084  29.884  14.741
38452W        W 5235  33.094  14.175  12.589
38453W        W 5236  44.475  43.246  12.638
38454W        W 5237  38.797  29.383  14.867
38455W        W 5238  38.824  41.920  14.417
38456W        W 5239  14.032  39.731  11.611
38457W        W 5240  42.030   5.402   1.406
38458W        W 5241  16.269  18.112  13.884
38459W        W 5242  16.573  12.368   2.603
38460W        W 5243  15.035  13.189   2.752
38461W        W 5244  31.917  10.303   4.146
38462W        W 5245  43.546  42.461   2.078
38463W        W 5246  15.561  28.548   2.885
38464W        W 5247  23.120  32.505   1.303
38465W        W 5248  22.296  39.779  13.223
38466W        W 5249  42.746  32.571   0.778
38467W        W 5250  15.981   6.023  12.582
38468W        W 5251  38.088  34.052  12.860
38469W        W 5252  22.632  20.561   3.927
38470W        W 5253  16.397   9.187  12.490
38471W        W 5254  40.417   2.370   1.406
38472W        W 5255  31.463  34.855   2.864
38473W        W 5256  16.008  37.034  14.833
38474W        W 5257  41.434   7.412  13.504
38475W        W 5258  43.785  37.838   0.902
38476W        W 5259  31.141  24.575   2.122
38477W        W 5260  23.540  29.004   3.157
38478W        W 5261  14.106  35.006  11.021
38479W        W 5262  39.456   3.397  14.272
38480W        W 5263  21.629  14.117   1.017
38481W        W 5264  18.721  11.611   2.331
38482W        W 5265  21.074  15.818   2.757
38483W        W 5266  37.113  11.231  13.397
38484W        W 5267  15.182  39.014   0.489
38485W        W 5268  37.527  18.975   2.329
38486W        W 5269  44.090  27.542   2.272
38487W        W 5270  38.336  27.580  13.538
38488W        W 5271   8.454   4.451  11.483
38489W        W 5272  18.216  42.607   0.314
38490W        W 5273  24.292  30.774  14.037
38491W        W 5274  23.377  37.358   1.822
38492W        W 5275  36.059   1.127   4.187
38493W        W 5276   9.638   9.770  13.611
38494W        W 5277  32.199  33.849   4.262
38495W        W 5278  10.651  14.631   3.721
38496W        W 5279  18.170   4.839   4.754
38497W        W 5280   2.795  43.602   0.453
38498W        W 5281  11.986  36.911   3.173
38499W        W 5282  17.193  24.769   4.242
38500W        W 5283  16.251  34.585  13.232
38501W        W 5284   7.255  44.841   1.925
38502W        W 5285  24.735  31.402  14.537
38503W        W 5286  33.490  41.835   1.108
38504W        W 5287  41.966  36.970   4.027
38505W        W 5288  32.359  32.701   3.775
38506W        W 5289  28.654  35.569   4.072
38507W        W 5290  17.485  38.403  11.491
38508W        W 5291  26.595   9.001   0.468
38509W        W 5292   3.649  21.468  13.587
38510W        W 5293   5.078  14.138  12.857
38511W        W 5294  24.342  13.889   4.255
38512W        W 5295  23.294  14.692  14.281
38513W        W 5296  28.605   7.278   4.274
38514W        W 5297  33.640  31.665  14.794
38515W        W 5298   7.566  21.196  14.482
38516W        W 5299   9.317  22.768   4.197
38517W        W 5300  42.506  12.942   9.888
38518W        W 5301  13.210  19.624  10.642
38519W        W 5302  11.707  22.038   3.705
38520W        W 5303  39.693  40.434   0.862
38521W        W 5304  19.205  43.349  12.547
38522W        W 5305  19.401   6.528   5.126
38523W        W 5306  15.069  21.607   3.849
38524W        W 5307  40.768  17.593  13.231
38525W        W 5308   7.558  14.357  14.287
38526W        W 5309  20.036  23.628   1.146
38527W        W 5310  41.916  34.169   2.125
38528W        W 5311  44.960  41.315   2.317
38529W        W 5312  43.627  13.038   5.287
38530W        W 5313  13.237  35.823   3.140
38531W        W 5314   2.718  11.130   4.396
38532W        W 5315   6.120  34.576   2.497
38533W        W 5316  36.028  40.587  10.707
38534W        W 5317  28.733  40.771  13.178
38535W        W 5318  26.698  37.355   1.492
38536W        W 5319   1.286  14.270   1.648
38537W        W 5320  31.601  11.259   1.049
38538W        W 5321  32.076  14.340  14.357
38539W        W 5322  43.820  29.537   3.764
38540W        W 5323   1.494  17.647   4.503
38541W        W 5324  12.543   6.147   1.365
38542W        W 5325  23.045  18.700  14.227
38543W        W 5326   2.407  44.474   1.619
38544W        W 5327  34.362   5.958  10.749
38545W        W 5328  12.824  18.974   0.774
38546W        W 5329  32.932  28.733  14.892
38547W        W 5330  22.705  26.710  11.578
38548W        W 5331   9.650   0.485  11.416
38549W        W 5332  17.755  21.637   3.287
38550W        W 5333   7.644  19.717  12.072
38551W        W 5334  39.511  39.283   0.012
38552W        W 5335  36.807  16.865  11.933
38553W        W 5336  42.279  12.749  10.318
38554W        W 5337  24.112  29.436   4.678
38555W        W 5338  36.746   8.044  10.297
38556W        W 5339   6.733  24.400  10.432
38557W        W 5340  21.316  23.635   0.298
38558W        W 5341  26.976  10.856  12.600
38559W        W 5342  37.721  42.637  11.618
38560W        W 5343  33.853  42.325  12.853
38561W        W 5344  40.419  40.074  11.208
38562W        W 5345  26.229  26.509  14.190
38563W        W 5346  36.903  36.597   0.961
38564W        W 5347   1.560  29.033   1.864
38565W        W 5348  25.003   2.072   4.124
38566W        W 5349  42.346   1.010  14.067
38567W        W 5350  15.358  14.169  10.677
38568W        W 5351  38.327  16.235   2.757
38569W        W 5352  20.346  20.224   4.241
38570W        W 5353  41.615  30.991  14.862
38571W        W 5354  28.145   3.276   4.603
38572W        W 5355   8.684  14.563  13.523
38573W        W 5356  22.968  28.887   1.903
38574W        W 5357  19.079  36.032  12.465
38575W        W 5358  20.928  14.912   0.440
38576W        W 5359  42.524   6.911  11.497
38577W        W 5360   2.233  33.441   4.341
38578W        W 5361  15.575  38.085   1.417
38579W        W 5362  39.276  17.680  11.920
38580W        W 5363  43.471  24.619  12.943
38581W        W 5364   0.003  10.173  13.971
38582W        W 5365  10.862  31.038   3.353
38583W        W 5366  24.663  13.519  11.696
38584W        W 5367  15.563  32.458   1.242
38585W        W 5368  17.788   3.240   3.171
38586W        W 5369  26.791  12.226   4.205
38587W        W 5370  43.736  19.208  14.970
38588W        W 5371   1.066   3.245  13.425
38589W        W 5372  39.863  13.417   2.384
38590W        W 5373   5.595  34.024  14.431
38591W        W 5374   9.235   5.993  11.556
38592W        W 5375   8.404   0.146  14.298
38593W        W 5376  10.652  31.314  13.500
38594W        W 5377  18.491  35.048   1.768
38595W        W 5378   9.173   6.222   2.725
38596W        W 5379  21.272  40.898   3.240
38597W        W 5380  13.708   1.532  13.506
38598W        W 5381  16.385  24.699   2.420
38599W        W 5382  31.330  32.181  13.812
38600W        W 5383   0.754   1.898  12.564
38601W        W 5384  37.625  20.482   0.072
38602W        W 5385  11.424  16.347  14.513
38603W        W 5386  15.643   2.654   4.165
38604W        W 5387  21.593  40.842   2.703
38605W        W 5388  44.701  22.786   3.798
38606W        W 5389  11.236  31.027  10.512
38607W        W 5390  44.380   4.464   2.842
38608W        W 5391  40.767  32.020  10.563
38609W        W 5392  39.354  36.016   0.159
38610W        W 5393  31.038   2.686  14.736
38611W        W 5394   3.268  34.381  12.823
38612W        W 5395  15.096  42.473  14.377
38613W        W 5396  10.490  15.052  13.094
38614W        W 5397   8.988  21.495   0.395
38615W        W 5398  31.429  44.586   3.935
38616W        W 5399  27.889  12.268  14.580
38617W        W 5400  25.459   7.862  14.813
38618W        W 5401  33.436  36.372   1.710
38619W        W 5402  10.305   8.843   1.900
38620W        W 5403  32.045  16.530  13.386
38621W        W 5404  38.332  37.497   0.760
38622W        W 5405  17.263  44.914   1.858
38623W        W 5406  36.904  39.283  13.740
38624W        W 5407   1.239  30.402  14.649
38625W        W 5408  23.677  37.326   4.769
38626W        W 5409  31.954  23.842   4.091
38627W        W 5410   1.845  40.515   1.623
38628W        W 5411  11.114   1.151   1.955
38629W        W 5412   0.972  17.585   4.494
38630W        W 5413  27.919  16.085  10.980
38631W        W 5414  34.108  38.492  14.798
38632W        W 5415  44.057  33.509   3.636
38633W        W 5416  20.469  25.078   0.008
38634W        W 5417  18.259  17.507   2.825
38635W        W 5418  27.869   9.652   3.251
38636W        W 5419  29.533  32.356   2.318
38637W        W 5420  36.403  22.749  12.312
38638W        W 5421   5.360  37.336   5.029
38639W        W 5422  28.512  15.212  12.630
38640W        W 5423  23.627   4.526  13.366
38641W        W 5424  28.746   8.770   1.686
38642W        W 5425  35.393   0.287  11.683
38643W        W 5426  24.853  41.331   9.986
38644W        W 5427  43.058   9.788  13.031
38645W        W 5428  29.486  44.083   3.180
38646W        W 5429  15.579  21.643   1.871
38647W        W 5430  35.327  20.434   0.917
38648W        W 5431  31.247  35.699   0.763
38649W        W 5432  27.070  24.719  13.257
38650W        W 5433   4.851   2.217   3.841
38651W        W 5434   8.896   1.424   1.354
38652W        W 5435  39.701  40.409  14.312
38653W        W 5436  27.005  37.738  10.356
38654W        W 5437  12.072  16.221   3.158
38655W        W 5438  34.820   4.311  11.582
38656W        W 5439   7.359  14.071  12.195
38657W        W 5440  38.849   2.168   1.907
38658W        W 5441   3.196  38.620  12.479
38659W        W 5442  12.161  40.257  12.499
38660W        W 5443   0.634  24.563  12.540
38661W        W 5444  41.404  39.768  11.210
38662W        W 5445  19.389   9.353  11.788
38663W        W 5446  40.981  19.973  12.570
38664W        W 5447  42.458  12.798   4.159
38665W        W 5448   5.667  14.267  14.849
38666W        W 5449  42.597  11.619   0.892
38667W        W 5450   6.206  20.338  13.638
38668W        W 5451   9.819  13.269   0.907
38669W        W 5452  39.518  20.592   1.031
38670W        W 5453  22.504  35.846   2.968
38671W        W 5454  16.035  27.896  11.210
38672W        W 5455  14.120  23.562  13.332
38673W        W 5456   9.886  29.461  12.453
38674W        W 5457  35.501  34.174   3.721
38675W        W 5458  28.062  42.350  14.330
38676W        W 5459  38.321  43.494  14.763
38677W        W 5460  21.436  31.430  12.060
38678W        W 5461  33.336  24.137   1.017
38679W        W 5462   0.479  18.057  10.640
38680W        W 5463  28.984  21.452   0.992
38681W        W 5464   8.647   6.363   0.510
38682W        W 5465   4.288   9.305  14.508
38683W        W 5466  13.780  23.103   1.883
38684W        W 5467  27.447  42.278   3.657
38685W        W 5468  41.850   1.195   4.421
38686W        W 5469   3.370   6.545  12.966
38687W        W 5470   4.316   1.697  13.885
38688W        W 5471  34.613   3.676   0.808
38689W        W 5472   2.910  44.763   4.736
38690W        W 5473  23.496  29.211   3.624
38691W        W 5474   6.483  10.873   0.887
38692W        W 5475  33.569  12.638   1.144
38693W        W 5476   9.431  33.387  12.050
38694W        W 5477  35.511  11.283   2.790
38695W        W 5478   0.189  38.124  11.139
38696W        W 5479  44.317  38.900  13.317
38697W        W 5480  17.275  32.881   0.889
38698W        W 5481   7.454  44.549  11.169
38699W        W 5482  32.125  15.917   0.370
38700W        W 5483   8.635  20.276   1.699
38701W        W 5484  35.555  11.390   1.419
38702W        W 5485  25.954  14.815   4.480
38703W        W 5486  32.538   0.475   0.987
38704W        W 5487   3.337   8.488   1.660
38705W        W 5488  11.308  22.061  13.349
38706W        W 5489  17.979   3.317  13.396
38707W        W 5490   4.838  42.412   2.708
38708W        W 5491  26.467  36.851  12.015
38709W        W 5492  38.571  39.799   1.363
38710W        W 5493  37.020  25.422   0.780
38711W        W 5494  27.190  29.487   0.889
38712W        W 5495   4.409  22.862  14.021
38713W        W 5496   1.532   8.847   3.292
38714W        W 5497  24.598  11.684  10.802
38715W        W 5498   9.356  12.565  14.012
38716W        W 5499  27.703  16.656   2.973
38717W        W 5500   8.199  29.938  13.743
38718W        W 5501  12.872  24.468  14.944
38719W        W 5502  30.019  20.322  10.134
38720W        W 5503   6.330  10.212   9.944
38721W        W 5504  20.128  33.394  11.630
38722W        W 5505  13.160  38.372   4.585
38723W        W 5506   5.920  10.687  11.172
38724W        W 5507  39.938  39.132   1.734
38725W        W 5508  42.110  35.687  11.681
38726W        W 5509   5.844  24.112   2.118
38727W        W 5510  44.974  26.493  14.252
38728W        W 5511  27.744  23.874  12.340
38729W        W 5512  25.497  31.384  14.889
38730W        W 5513  16.673  23.265   3.759
38731W        W 5514   2.724  11.041  14.648
38732W        W 5515  29.158   7.442  14.298
38733W        W 5516   2.172  44.227  11.629
38734W        W 5517  15.573  39.776   2.778
38735W        W 5518  23.058   3.774   2.709
38736W        W 5519   5.525  42.302  14.315
38737W        W 5520  27.647  16.303   1.288
38738W        W 5521  29.064  30.455   4.725
38739W        W 5522  27.959   7.144  11.578
38740W        W 5523  22.615  14.874  10.964
38741W        W 5524  42.026  20.124   2.950
38742W        W 5525  15.813  44.451  11.493
38743W        W 5526  21.976  14.073   0.464
38744W        W 5527  27.174  14.653   0.747
38745W        W 5528  36.576  35.680   3.211
38746W        W 5529   1.777  33.940   2.700
38747W        W 5530  23.753  10.676   3.100
38748W        W 5531  26.710  15.641  12.471
38749W        W 5532  21.002  10.726  11.430
38750W        W 5533  16.847  33.813  14.766
38751W        W 5534  26.455  29.773   1.124
38752W        W 5535  17.053   4.928  12.891
38753W        W 5536  10.943  35.390  10.584
38754W        W 5537  20.088  43.762   4.069
38755W        W 5538  27.172  44.384  13.852
38756W        W 5539  24.961  38.946  13.604
38757W        W 5540   6.315  13.649  11.557
38758W        W 5541  39.350  35.608  13.579
38759W        W 5542  42.479   0.717  12.063
38760W        W 5543  18.633  36.792   2.650
38761W        W 5544  40.071  29.196   3.883
38762W        W 5545  37.557  16.094  13.380
38763W        W 5546   3.543  15.256  14.961
38764W        W 5547   9.090   3.261  13.098
38765W        W 5548   8.233   5.882   2.387
38766W        W 5549   8.003  32.625  11.065
38767W        W 5550   0.098  21.555   3.728
38768W        W 5551  16.336  30.581   0.339
38769W        W 5552  16.092  33.866   0.682
38770W        W 5553   6.882  25.697   0.729
38771W        W 5554  29.945  38.407   0.830
38772W        W 5555  22.418  28.571   4.619
38773W        W 5556  41.984  12.268   2.900
38774W        W 5557   2.413  21.554   3.623
38775W        W 5558  42.706  41.534   5.135
38776W        W 5559  21.107   6.304  10.949
38777W        W 5560   9.151  36.342  13.509
38778W        W 5561  19.740  43.686  14.369
38779W        W 5562  33.172  42.030   4.939
38780W        W 5563  42.681  21.224  12.474
38781W        W 5564   3.926  38.862  13.522
38782W        W 5565  26.734  27.344   1.265
38783W        W 5566  26.989   0.380  12.421
38784W        W 5567  24.884  13.274   4.654
38785W        W 5568  31.907  14.766   4.063
38786W        W 5569  32.065  44.851  13.867
38787W        W 5570   6.845   6.384  11.569
38788W        W 5571  11.379   9.811   2.770
38789W        W 5572  11.264  30.435   0.307
38790W        W 5573  35.497  22.129   3.206
38791W        W 5574   2.751  39.362   2.654
38792W        W 5575  23.968  15.696  13.314
38793W        W 5576  38.994  10.405   0.932
38794W        W 5577  24.888  14.724   1.480
38795W        W 5578   0.379  20.724  11.238
38796W        W 5579  36.107  27.997  11.267
38797W        W 5580  41.224  44.826   1.529
38798W        W 5581  35.842  38.286  14.782
38799W        W 5582  31.182  37.523  14.059
38800W        W 5583  36.607   4.319   2.380
38801W        W 5584   5.948  34.428  12.990
38802W        W 5585  42.665  35.420   1.406
38803W        W 5586  15.499  42.690  10.663
38804W        W 5587  29.647  43.321   1.342
38805W        W 5588  35.812  39.257   4.583
38806W        W 5589  40.371   1.406  14.305
38807W        W 5590  16.481   7.875   3.144
38808W        W 5591   9.383  22.880  14.569
38809W        W 5592  36.129  28.616   4.634
38810W        W 5593  42.697  36.027   4.731
38811W        W 5594  27.060  16.367   1.655
38812W        W 5595  19.209   7.991   2.864
38813W        W 5596  24.695  24.640  10.697
38814W        W 5597  25.074   2.808  11.956
38815W        W 5598  16.191  43.142  12.167
38816W        W 5599  31.818  23.477   3.294
38817W        W 5600  36.436  34.422   2.747
38818W        W 5601  10.504   3.957   4.068
38819W        W 5602  22.181  23.215  13.958
38820W        W 5603  11.904  21.629   3.131
38821W        W 5604   8.359  29.672   3.604
38822W        W 5605  24.053  39.694   4.971
38823W        W 5606  38.430   0.948  10.482
38824W        W 5607  26.149  19.073  10.732
38825W        W 5608  35.070  15.521  12.196
38826W        W 5609  44.954   3.443  10.371
38827W        W 5610  32.946  13.521   2.308
38828W        W 5611  13.586  25.641  14.774
38829W        W 5612   1.966  44.423  13.073
38830W        W 5613  36.631  26.701   0.305
38831W        W 5614  36.139  21.267   5.422
38832W        W 5615  37.825  37.577   0.779
38833W        W 5616  27.367  26.633  13.561
38834W        W 5617  15.557  24.330  14.487
38835W        W 5618   7.371  22.874   3.534
38836W        W 5619  21.228  21.341   2.358
38837W        W 5620  33.879  38.804   0.378
38838W        W 5621   3.423  22.139  14.365
38839W        W 5622  17.330  38.369  13.390
38840W        W 5623  38.580  37.110  12.930
38841W        W 5624   4.377  24.182   4.137
38842W        W 5625  14.999  41.121   5.018
38843W        W 5626  16.181  16.268  13.720
38844W        W 5627  34.065  35.673  11.683
38845W        W 5628  30.780  11.856   3.101
38846W        W 5629  29.962  22.541  10.680
38847W        W 5630  38.682  42.380   1.226
38848W        W 5631  16.773  18.901   4.006
38849W        W 5632   3.260  43.906   0.400
38850W        W 5633  28.090  32.657  14.336
38851W        W 5634  25.341  22.557   2.342
38852W        W 5635  14.022  24.370  12.455
38853W        W 5636   0.347  15.097   4.361
38854W        W 5637  38.943   8.420   2.707
38855W        W 5638   5.268  44.918  12.788
38856W        W 5639  18.065  12.411  11.948
38857W        W 5640  23.984  23.673  12.160
38858W        W 5641   6.235  44.787   4.710
38859W        W 5642  20.955  26.487  12.860
38860W        W 5643  32.970   2.240  12.298
38861W        W 5644  14.938  37.538  12.925
38862W        W 5645  30.937  17.786   1.837
38863W        W 5646  20.141  26.669  11.485
38864W        W 5647   3.174  33.559   1.872
38865W        W 5648  39.963  12.545   1.461
38866W        W 5649  30.346  34.629   4.895
38867W        W 5650  27.473   0.764   1.444
38868W        W 5651  36.369  10.272   4.341
38869W        W 5652  16.361  33.661  12.124
38870W        W 5653  26.581  40.494   4.543
38871W        W 5654  18.841  43.600   1.102
38872W        W 5655  21.780   0.774   0.938
38873W        W 5656  41.244  37.603   2.483
38874W        W 5657  18.431  20.524  11.126
38875W        W 5658  20.055  14.072   1.852
38876W        W 5659   6.394  26.578  13.041
38877W        W 5660  34.889  17.266  10.176
38878W        W 5661  36.277  35.308   0.164
38879W        W 5662  23.224  15.851   4.494
38880W        W 5663   7.333   8.666   1.403
38881W        W 5664  12.276   3.368  14.067
38882W        W 5665   3.900   0.751  14.555
38883W        W 5666  30.274  41.630  11.610
38884W        W 5667  25.206  34.156   1.054
38885W        W 5668  20.213  26.437  11.958
38886W        W 5669  12.796   1.544  11.152
38887W        W 5670   3.905  27.034   1.260
38888W        W 5671  32.098  26.550  11.993
38889W        W 5672  18.138  27.592   1.797
38890W        W 5673  42.063  33.894  11.103
38891W        W 5674  13.916  44.528   1.840
38892W        W 5675  23.156  16.681  13.916
38893W        W 5676  16.488   0.417   1.657
38894W        W 5677  33.106  26.670   0.013
38895W        W 5678  14.152   1.177   2.850
38896W        W 5679   4.747  20.747   3.462
38897W        W 5680   2.935  19.593  12.866
38898W        W 5681  13.726   4.549  10.312
38899W        W 5682  21.095  27.400   4.232
38900W        W 5683   5.347  10.694  12.182
38901W        W 5684  23.110  24.190  13.838
38902W        W 5685  30.492  34.069  12.610
38903W        W 5686   4.377  19.788   2.766
38904W        W 5687  26.730  11.191  11.080
38905W        W 5688   1.477   6.372  11.551
38906W        W 5689  17.844  11.699  14.363
38907W        W 5690  11.115   5.701   2.548
38908W        W 5691  24.419  34.141   0.724
38909W        W 5692   0.447  24.980  12.280
38910W        W 5693  15.205  41.788  12.732
38911W        W 5694   3.707  22.961   3.588
38912W        W 5695  35.005  35.931   0.400
38913W        W 5696   2.956  12.334  14.211
38914W        W 5697  40.420  24.411   3.722
38915W        W 5698  22.598  12.262   3.921
38916W        W 5699  21.183  13.609  10.645
38917W        W 5700  38.632   6.824   3.942
38918W        W 5701  40.020  30.482   1.620
38919W        W 5702  11.298  22.166  11.430
38920W        W 5703  13.047   5.211   0.798
38921W        W 5704  39.017  16.714  13.795
38922W        W 5705  14.776  17.672   4.632
38923W        W 5706  40.851   0.539   1.417
38924W        W 5707  19.043  43.958   4.109
38925W        W 5708  35.043  36.872   1.826
38926W        W 5709  21.113  11.416  12.756
38927W        W 5710  25.446  18.588  13.660
38928W        W 5711   3.042   0.914   4.842
38929W        W 5712  33.462  29.251   0.694
38930W        W 5713  26.752  29.214   2.658
38931W        W 5714   5.433  22.422   3.225
38932W        W 5715  38.844   1.947  10.101
38933W        W 5716  16.677  36.437  12.463
38934W        W 5717   5.936  17.548  12.984
38935W        W 5718   9.145  26.539  11.972
38936W        W 5719  40.027  19.257  11.969
38937W        W 5720   2.396  20.215  14.379
38938W        W 5721   8.275  44.800   1.826
38939W        W 5722  12.019  38.592   1.804
38940W        W 5723  31.395  29.358   4.083
38941W        W 5724  41.935  32.084  12.847
38942W        W 5725  44.928  14.650  14.428
38943W        W 5726   2.943  17.196  12.968
38944W        W 5727  11.208  25.007  12.843
38945W        W 5728   5.483  15.184   3.299
38946W        W 5729  32.022   4.920   1.010
38947W        W 5730  13.100  15.301  14.315
38948W        W 5731  23.906  11.240   4.362
38949W        W 5732  40.978  41.566  14.455
38950W        W 5733  11.738   2.476  12.943
38951W        W 5734  34.372   0.468  13.440
38952W        W 5735  44.132  23.277   4.537
38953W        W 5736  37.102  16.209  14.036
38954W        W 5737   3.621  41.960   4.114
38955W        W 5738  42.317  25.032  10.630
38956W        W 5739   7.358  22.966  12.986
38957W        W 5740  31.003   7.799  11.399
38958W        W 5741  24.680  34.443   3.137
38959W        W 5742   0.219   9.125  14.543
38960W        W 5743  31.016   3.426  14.270
38961W        W 5744  12.864  32.510   4.513
38962W        W 5745  36.655  25.971   1.896
38963W        W 5746   2.457  32.020   5.002
38964W        W 5747   4.407  25.501  11.696
38965W        W 5748  25.074  10.718   4.323
38966W        W 5749  24.609  11.942  14.254
38967W        W 5750  34.606  33.067  10.682
38968W        W 5751  43.211  34.305  13.965
38969W        W 5752  40.383  27.981   4.628
38970W        W 5753   8.398  43.831  14.990
38971W        W 5754  36.112  10.997   4.670
38972W        W 5755  23.146  33.914   3.521
38973W        W 5756  28.271  38.892  11.637
38974W        W 5757   6.491  40.694  12.341
38975W        W 5758  20.697  32.133  14.845
38976W        W 5759  30.167  10.328  11.909
38977W        W 5760  22.739  38.995  10.860
38978W        W 5761  31.499  22.157   2.221
38979W        W 5762  13.086   2.553   3.744
38980W        W 5763  40.017   9.874  10.138
38981W        W 5764   0.986  16.199   0.402
38982W        W 5765  28.949  32.407  13.977
38983W        W 5766  10.699   5.451   2.762
38984W        W 5767  35.172  32.506   0.493
38985W        W 5768  34.632  10.949  14.476
38986W        W 5769  20.054  19.544  11.522
38987W        W 5770   0.805   1.278   2.846
38988W        W 5771  38.853  20.225   0.507
38989W        W 5772  16.407   6.390   4.467
38990W        W 5773  26.160  19.608  10.923
38991W        W 5774  34.199   2.607  14.409
38992W        W 5775   9.385  28.424  11.877
38993W        W 5776  43.448  10.275   4.151
38994W        W 5777   6.448  21.308   4.640
38995W        W 5778   3.819   8.090  10.675
38996W        W 5779  28.444  33.654  12.940
38997W        W 5780  38.560   8.955  13.602
38998W        W 5781  14.512  37.909  11.873
38999W        W 5782  19.999   3.432   3.646
39000W        W 5783   1.171  22.601   2.768
39001W        W 5784   6.223   1.973   1.679
39002W        W 5785   9.351  30.569   0.726
39003W        W 5786   0.166  31.069  14.573
39004W        W 5787  42.425  28.357   4.500
39005W        W 5788  35.014  11.797  13.763
39006W        W 5789   4.661  43.409  11.518
39007W        W 5790  33.092  12.826   0.982
39008W        W 5791  30.425  18.207   3.765
39009W        W 5792  43.069   1.635  14.448
39010W        W 5793  40.330  21.207   3.694
39011W        W 5794  26.489  10.149   1.857
39012W        W 5795  35.038  24.311  13.879
39013W        W 5796  32.646   2.848  14.404
39014W        W 5797  15.754  39.321   0.712
39015W        W 5798   9.901  20.374   1.795
39016W        W 5799  23.446  39.871  11.369
39017W        W 5800  42.889  43.543   1.348
39018W        W 5801  11.696   2.892   4.168
39019W        W 5802  43.778  22.830   2.808
39020W        W 5803   0.351   2.207   4.797
39021W        W 5804  35.108  33.902   2.230
39022W        W 5805  44.942  20.708  11.507
39023W        W 5806   6.804  35.358  11.243
39024W        W 5807  23.009  26.218   2.851
39025W        W 5808   9.766  10.605  11.994
39026W        W 5809  26.251  33.336  11.117
39027W        W 5810  10.352  35.433   0.327
39028W        W 5811  35.885  23.048  13.983
39029W        W 5812  12.593   3.714   3.191
39030W        W 5813   9.358  39.730   1.357
39031W        W 5814  10.665  14.034  10.786
39032W        W 5815  15.661  44.927  14.783
39033W        W 5816  19.246  37.414   2.635
39034W        W 5817  12.828  34.039  12.884
39035W        W 5818  33.069  28.102   1.464
39036W        W 5819   3.423  11.598   0.373
39037W        W 5820  17.376  25.834  13.083
39038W        W 5821   4.999  44.802   2.237
39039W        W 5822   7.735  34.664   5.038
39040W        W 5823  12.799  16.356  13.530
39041W        W 5824  32.002  10.089  10.730
39042W        W 5825  32.916  30.070   2.320
39043W        W 5826  35.044   2.381  10.985
39044W        W 5827  21.065  14.425   0.265
39045W        W 5828  42.201  38.722  10.282
39046W        W 5829   5.193  13.147   4.350
39047W        W 5830  30.079  23.474  14.715
39048W        W 5831   0.813   4.856  12.111
39049W        W 5832  23.580  44.966  13.720
39050W        W 5833   7.628   2.455  12.601
39051W        W 5834  12.162  23.790  11.488
39052W        W 5835   4.467  19.230   3.650
39053W        W 5836  23.565  13.607   4.156
39054W        W 5837   0.255  21.736   3.178
39055W        W 5838  38.127   7.365   4.570
39056W        W 5839  23.710  33.718  11.078
39057W        W 5840  18.672  31.497   2.728
39058W        W 5841  38.492  20.859   2.775
39059W        W 5842  25.053  12.190  14.346
39060W        W 5843   3.161  33.488   4.530
39061W        W 5844  19.971  27.766   0.442
39062W        W 5845  40.780  29.186   1.734
39063W        W 5846  22.428  29.564   1.167
39064W        W 5847   3.572  31.746  10.194
39065W        W 5848   9.903  24.468  14.831
39066W        W 5849  24.281  27.682  14.551
39067W        W 5850  15.183   5.707  11.922
39068W        W 5851  24.859  35.896   2.740
39069W        W 5852  16.261   1.885   1.950
39070W        W 5853  29.939   0.544   3.604
39071W        W 5854  28.535  31.839  10.992
39072W        W 5855  27.471  17.569   4.829
39073W        W 5856   6.240  31.822   3.145
39074W        W 5857   0.978   9.889   4.732
39075W        W 5858  30.342  42.468   0.291
39076W        W 5859  33.148  33.993   5.083
39077W        W 5860  20.437   5.402   0.801
39078W        W 5861   4.347   2.524  13.038
39079W        W 5862  40.754   2.845   0.252
39080W        W 5863  15.808  11.403  12.019
39081W        W 5864  31.882   4.213   3.187
39082W        W 5865  42.759  34.138   3.557
39083W        W 5866  21.676   6.783  14.374
39084W        W 5867  14.098  34.151  12.382
39085W        W 5868  42.265  40.460  12.435
39086W        W 5869  43.788  23.580  13.379
39087W        W 5870  34.900   3.172  12.706
39088W        W 5871  35.873  42.380  13.996
39089W        W 5872   3.924  11.552   2.215
39090W        W 5873  17.504  41.867  11.047
39091W        W 5874   5.282  34.052  14.030
39092W        W 5875  28.091  35.551   3.653
39093W        W 5876  13.522   0.380   4.157
39094W        W 5877   2.225   1.712   3.662
39095W        W 5878  13.828  17.138  11.090
39096W        W 5879   1.346  32.302  13.976
39097W        W 5880  35.052  39.796   3.682
39098W        W 5881  11.635  41.870   4.177
39099W        W 5882  31.368  31.575  12.969
39100W        W 5883   0.494   8.911  11.112
39101W        W 5884  26.891  25.617   1.686
39102W        W 5885  10.340  19.035  13.286
39103W        W 5886   9.754  14.889   3.304
39104W        W 5887   7.848  42.409   2.451
39105W        W 5888  38.985  22.043  13.464
39106W        W 5889  21.973  17.246   1.471
39107W        W 5890   7.330   0.865   3.606
39108W        W 5891  14.737   5.667   3.123
39109W        W 5892  31.571   9.587  11.082
39110W        W 5893   2.465  17.386  12.831
39111W        W 5894   6.092  23.103   2.263
39112W        W 5895  14.302  29.109  11.663
39113W        W 5896   5.982  40.812  12.444
39114W        W 5897  10.436   1.281  11.948
39115W        W 5898  19.156  36.416  14.602
39116W        W 5899  32.107  16.746  14.317
39117W        W 5900  39.971  12.271  10.716
39118W        W 5901  23.400   8.852  11.717
39119W        W 5902  19.749  32.627  11.221
39120W        W 5903  23.297  23.002  14.964
39121W        W 5904  10.721  13.162   4.162
39122W        W 5905  33.872   1.348  12.975
39123W        W 5906   9.943  12.629   1.476
39124W        W 5907  33.073  37.256  11.981
39125W        W 5908  25.940  30.215  11.545
39126W        W 5909  13.385  11.040  13.851
39127W        W 5910  33.848   2.422   1.326
39128W        W 5911  27.812  21.139  12.847
39129W        W 5912  31.089   5.441  14.436
39130W        W 5913   0.988   6.866   0.395
39131W        W 5914  18.195   9.407   2.846
39132W        W 5915  35.057  10.730  13.977
39133W        W 5916  22.225  34.176   3.506
39134W        W 5917  13.261  27.764   0.438
39135W        W 5918   1.953  30.048   4.197
39136W        W 5919  30.567  40.106  11.616
39137W        W 5920  16.352   2.250   4.649
39138W        W 5921   9.897  28.967   0.962
39139W        W 5922  21.391  39.482  11.457
39140W        W 5923  36.584  32.603  10.678
39141W        W 5924  24.643  24.753  13.516
39142W        W 5925  37.439  23.714   2.208
39143W        W 5926  14.699  29.245  11.165
39144W        W 5927  24.498  44.218   0.246
39145W        W 5928  38.318  17.227   0.877
39146W        W 5929   6.736  17.848   2.314
39147W        W 5930  19.696   1.176   0.326
39148W        W 5931  23.256  14.233  13.953
39149W        W 5932  36.002  14.824   1.254
39150W        W 5933   5.899  43.680  12.109
39151W        W 5934  19.773  31.050  12.691
39152W        W 5935  22.011  14.659  12.804
39153W        W 5936  25.714  32.154   1.800
39154W        W 5937  23.016  43.451   1.892
39155W        W 5938  19.537   8.397  12.411
39156W        W 5939  35.421  10.922   5.068
39157W        W 5940  28.568   0.308  11.166
39158W        W 5941  15.282   7.770  11.215
39159W        W 5942   3.940  12.696   4.215
39160W        W 5943  39.955  31.079  10.565
39161W        W 5944  22.978  31.583  11.481
39162W        W 5945   0.304  25.128  13.300
39163W        W 5946  38.508   6.716  11.429
39164W        W 5947  29.090  24.498  14.859
39165W        W 5948  17.138  37.963  12.876
39166W        W 5949  13.350  25.104  12.519
39167W        W 5950  15.518  18.103   2.460
39168W        W 5951  29.997  35.129  14.343
39169W        W 5952  11.788   1.263   2.398
39170W        W 5953  39.291   4.353  13.016
39171W        W 5954   7.656  17.572  10.758
39172W        W 5955  24.491  44.367   0.755
39173W        W 5956  14.042  27.948  11.984
39174W        W 5957  24.125  14.726  14.705
39175W        W 5958  43.703   8.886  13.531
39176W        W 5959  15.664  31.559  12.851
39177W        W 5960  31.583   1.445  12.525
39178W        W 5961  25.525  28.609   2.141
39179W        W 5962  22.292  17.472  12.817
39180W        W 5963  26.620   2.196  13.523
39181W        W 5964  32.971  13.632   3.868
39182W        W 5965  35.147  41.554   0.783
39183W        W 5966  38.124   9.945   0.397
39184W        W 5967   4.505  38.428  12.831
39185W        W 5968   4.966  33.647  10.628
39186W        W 5969  33.907  42.702   0.152
39187W        W 5970  30.990  29.946   2.959
39188W        W 5971  19.740  40.987  12.467
39189W        W 5972  15.046  29.315   1.742
39190W        W 5973  42.309  42.336  11.246
39191W        W 5974  40.322  15.145  13.766
39192W        W 5975   5.252  28.423   0.770
39193W        W 5976  25.709  33.987  12.664
39194W        W 5977  13.772  28.236  14.336
39195W        W 5978  38.273   4.447   1.669
39196W        W 5979  14.058   2.553   2.674
39197W        W 5980   6.292  37.854  12.577
39198W        W 5981  30.061  38.445   2.317
39199W        W 5982  41.540   6.906  14.357
39200W        W 5983  36.101  29.385   1.290
39201W        W 5984  19.644  13.705  14.472
39202W        W 5985  10.817  40.834   3.899
39203W        W 5986   2.076   7.835  13.086
39204W        W 5987  31.940  26.154  11.192
39205W        W 5988  35.891  26.617  10.102
39206W        W 5989  31.323  19.809  12.585
39207W        W 5990  36.428  20.811  14.350
39208W        W 5991  27.381  32.414  10.487
39209W        W 5992  42.605  42.301  12.244
39210W        W 5993  44.199  44.908  13.981
39211W        W 5994  29.454   8.672   0.493
39212W        W 5995  18.241  10.964   1.213
39213W        W 5996  24.133  22.636   3.123
39214W        W 5997  42.336   4.008   0.312
39215W        W 5998  27.553  35.272   4.511
39216W        W 5999  17.483  35.003   0.797
39217W        W 6000   8.819   8.220   3.657
39218W        W 6001  23.104  43.996   1.813
39219W        W 6002  31.523   0.281  12.433
39220W        W 6003   1.302  42.777   0.307
39221W        W 6004   7.718  12.744   0.093
39222W        W 6005  30.937  18.181   3.673
39223W        W 6006  12.801   7.551   3.778
39224W        W 6007  18.574  44.306   4.107
39225W        W 6008  39.967   7.682  12.293
39226W        W 6009   0.276  11.653   2.178
39227W        W 6010  36.509  24.770   1.020
39228W        W 6011  29.018  29.104  13.430
39229W        W 6012  36.033  26.036  12.056
39230W        W 6013  30.609  24.999  14.110
39231W        W 6014  23.040  43.478  14.474
39232W        W 6015  13.753  13.281  11.653
39233W        W 6016  32.877  40.430  10.742
39234W        W 6017  12.546  18.108   1.145
39235W        W 6018   6.115  35.286   0.346
39236W        W 6019  33.954  26.253  13.055
39237W        W 6020  34.760  30.583  12.860
39238W        W 6021  36.883   2.225  10.957
39239W        W 6022  10.263  26.528   1.685
39240W        W 6023  27.478   6.821   5.023
39241W        W 6024  23.738  27.599  12.664
39242W        W 6025  33.121   5.232  10.879
39243W        W 6026  21.538  27.626   4.368
39244W        W 6027  10.980  24.269  14.050
39245W        W 6028  18.669  12.758  13.254
39246W        W 6029  43.429   0.452  11.177
39247W        W 6030  34.875   7.232  10.799
39248W        W 6031  32.472  23.774   4.005
39249W        W 6032  30.870  34.775   4.668
39250W        W 6033  20.110  33.880  10.737
39251W        W 6034  39.961   8.101   1.418
39252W        W 6035  38.490   7.747   4.503
39253W        W 6036   7.176  28.630  13.102
39254W        W 6037  16.060  15.259  10.352
39255W        W 6038  38.949  30.001   2.884
39256W        W 6039  22.196  16.155   2.342
39257W        W 6040  40.083  38.451   0.901
39258W        W 6041  28.340   7.431  12.247
39259W        W 6042   8.315  39.555   4.189
39260W        W 6043  20.448  33.631   2.960
39261W        W 6044  22.293  42.522  10.920
39262W        W 6045  15.618  32.473  12.945
39263W        W 6046  41.313  41.163   4.039
39264W        W 6047   2.276  11.171  13.883
39265W        W 6048  29.638  15.361   3.341
39266W        W 6049   7.358  27.592   0.878
39267W        W 6050   6.507   6.612  12.503
39268W        W 6051  12.832  31.606   2.737
39269W        W 6052  17.362  10.541   3.559
39270W        W 6053  29.526  32.249  11.861
39271W        W 6054  12.925   9.824   3.671
39272W        W 6055  16.054   8.198  11.090
39273W        W 6056  33.037  21.785   0.430
39274W        W 6057  18.468  10.768  11.068
39275W        W 6058  33.011  42.752   1.441
39276W        W 6059  20.407   3.214  14.720
39277W        W 6060  25.775  31.834  11.042
39278W        W 6061  23.765  34.844   2.871
39279W        W 6062  14.700  18.181   4.631
39280W        W 6063  43.660  19.132  12.934
39281W        W 6064  37.387  33.360   2.259
39282W        W 6065  30.134   0.294  11.046
39283W        W 6066  22.952  29.842  12.356
39284W        W 6067  34.177  13.612   2.185
39285W        W 6068  42.229  34.836  11.110
39286W        W 6069  39.556  39.416   1.947
39287W        W 6070  40.445  33.797   4.153
39288W        W 6071  29.819  43.569   2.723
39289W        W 6072  12.260   1.230  11.857
39290W        W 6073   6.640  16.292   0.458
39291W        W 6074  40.339  40.645   3.224
39292W        W 6075  24.471  15.260  12.063
39293W        W 6076   7.930  29.644   0.305
39294W        W 6077   2.948  43.081  11.247
39295W        W 6078  17.360  35.504  14.768
39296W        W 6079  17.114  43.008  13.948
39297W        W 6080  23.880  13.894  11.220
39298W        W 6081  26.073  34.996  11.452
39299W        W 6082   8.304  20.714   4.058
39300W        W 6083   3.035  39.895   3.868
39301W        W 6084  35.321  22.450   0.237
39302W        W 6085   6.489   5.942  14.772
39303W        W 6086   2.175  23.212  11.762
39304W        W 6087  24.073  38.572   4.206
39305W        W 6088  16.777   7.321   3.271
39306W        W 6089  30.819   4.648  12.586
39307W        W 6090   8.883   1.863   0.787
39308W        W 6091  16.144  16.196  10.607
39309W        W 6092  22.098  15.735   4.834
39310W        W 6093  35.566  38.831   0.479
39311W        W 6094  43.430  14.086   0.540
39312W        W 6095  43.495  39.301  14.294
39313W        W 6096  35.636  18.788  10.285
39314W        W 6097  15.362  22.815   4.233
39315W        W 6098   3.294   2.881  13.143
39316W        W 6099   2.355   1.759   2.011
39317W        W 6100   2.392  43.003   0.731
39318W        W 6101  25.637   5.150  10.250
39319W        W 6102  40.307   9.850  14.824
39320W        W 6103   8.422  44.959  13.028
39321W        W 6104  19.987  43.761  14.868
39322W        W 6105  18.081  29.105   0.301
39323W        W 6106  23.875  26.466  13.080
39324W        W 6107   3.420  19.656   1.785
39325W        W 6108  32.921  10.736   4.910
39326W        W 6109   8.598   1.424   4.806
39327W        W 6110  26.225  29.064   4.141
39328W        W 6111  23.743  30.554   4.888
39329W        W 6112  29.418   8.383  12.425
39330W        W 6113  27.604  35.649   2.172
39331W        W 6114  23.413  18.219   2.652
39332W        W 6115   7.739  39.942   2.193
39333W        W 6116  10.710  24.581  12.562
39334W        W 6117   1.800  24.877  11.184
39335W        W 6118   9.759   5.281   3.247
39336W        W 6119   4.322  36.333   0.233
39337W        W 6120  16.291  33.357  11.705
39338W        W 6121   9.697   7.392  11.403
39339W        W 6122  27.655   2.527   4.736
39340W        W 6123   2.417  25.556   4.766
39341W        W 6124  14.500  42.468  13.768
39342W        W 6125  34.097  10.096   2.790
39343W        W 6126   1.222  39.974   2.222
39344W        W 6127  25.842   8.699   4.155
39345W        W 6128  10.194   9.930   4.502
39346W        W 6129  24.814  11.278   2.726
39347W        W 6130  16.132   0.723  14.946
39348W        W 6131   2.917  34.009  12.395
39349W        W 6132   0.000   7.748   3.043
39350W        W 6133   1.372  38.504  12.207
39351W        W 6134  21.547   0.521   4.578
39352W        W 6135  29.690   0.466   3.118
39353W        W 6136  40.564  29.090   3.612
39354W        W 6137  11.783  10.735  12.400
39355W        W 6138  15.403  19.508   3.736
39356W        W 6139  37.939  18.495   1.751
39357W        W 6140  35.552  14.708   4.729
39358W        W 6141  32.968  42.626   3.620
39359W        W 6142  10.856  10.297   1.299
39360W        W 6143  30.969  34.920   1.095
39361W        W 6144  25.958   5.516  13.269
39362W        W 6145   5.406  34.574  12.863
39363W        W 6146  25.725  21.801   2.897
39364W        W 6147  29.430  20.620   3.167
39365W        W 6148   5.468   8.703  12.301
39366W        W 6149  27.734   7.352   1.846
39367W        W 6150  14.314   2.693  13.279
39368W        W 6151  17.676  36.577   3.537
39369W        W 6152   8.272  32.280  13.548
39370W        W 6153  40.602  12.728   2.295
39371W        W 6154  27.350  24.928   4.562
39372W        W 6155  38.617  19.741  14.420
39373W        W 6156  32.832   9.815  11.996
39374W        W 6157  31.386   8.285   2.244
39375W        W 6158  43.688  24.796  12.503
39376W        W 6159   1.929  17.260   2.649
39377W        W 6160  17.054  35.855  11.553
39378W        W 6161  41.474  12.591   2.281
39379W        W 6162  32.219  31.459  13.273
39380W        W 6163  17.929  32.353  14.749
39381W        W 6164   8.958  32.625   1.388
39382W        W 6165   6.429  25.701  12.612
39383W        W 6166  15.682  39.361  11.063
39384W        W 6167   7.256  11.385   0.845
39385W        W 6168  29.662   1.943   4.557
39386W        W 6169  30.490  14.219  13.822
39387W        W 6170  40.448   9.914   0.841
39388W        W 6171   4.018  26.687  14.347
39389W        W 6172  26.779   9.746   1.761
39390W        W 6173  40.894  11.867  13.379
39391W        W 6174  13.216  30.327   2.744
39392W        W 6175  16.174   8.878   1.287
39393W        W 6176  40.454  10.582   4.639
39394W        W 6177  33.877  23.102  10.257
39395W        W 6178  16.186   7.943  11.664
39396W        W 6179  34.028  33.359  13.890
39397W        W 6180   2.704   4.355   4.843
39398W        W 6181  32.518   2.289   3.652
39399W        W 6182  12.707  20.169   3.886
39400W        W 6183  29.490   7.560   3.748
39401W        W 6184  17.587  38.339  13.840
39402W        W 6185  34.475  13.407  12.960
39403W        W 6186  34.409  10.933  14.941
39404W        W 6187  20.870  39.337   1.089
39405W        W 6188  10.939  12.570   2.525
39406W        W 6189  20.312  37.061  11.644
39407W        W 6190  29.075  19.135   2.420
39408W        W 6191  41.546   3.885   0.797
39409W        W 6192   3.039  27.340   0.705
39410W        W 6193  32.859  12.681  13.224
39411W        W 6194  23.217  24.745  13.049
39412W        W 6195   1.889  43.004  13.825
39413W        W 6196  25.743   1.263  10.295
39414W        W 6197   8.154  40.722  12.507
39415W        W 6198  29.657   1.795   5.033
39416W        W 6199  32.381  34.873   0.856
39417W        W 6200  44.430  28.731   1.279
39418W        W 6201   9.326  19.071  14.801
39419W        W 6202  27.174   5.400   0.716
39420W        W 6203  16.201   8.304  12.005
39421W        W 6204  10.237  30.019  13.446
39422W        W 6205  28.981  39.218   4.578
39423W        W 6206   0.568   3.945  13.050
39424W        W 6207   0.522  16.774   2.372
39425W        W 6208  43.311  19.658   4.543
39426W        W 6209  11.765  18.699  10.848
39427W        W 6210  23.205  21.200   1.380
39428W        W 6211  44.292  33.149  14.407
39429W        W 6212  23.165  39.689  14.583
39430W        W 6213  20.600   8.932   4.608
39431W        W 6214  36.350  11.205  11.078
39432W        W 6215  38.062   1.265   4.308
39433W        W 6216  24.381   4.396  13.907
39434W        W 6217  28.078   4.703   3.866
39435W        W 6218  36.754   6.385   3.238
39436W        W 6219  35.772  12.470  14.824
39437W        W 6220  33.406  23.849  11.266
39438W        W 6221  37.777   2.772   1.908
39439W        W 6222  13.597  32.047   4.632
39440W        W 6223  13.752  32.503  13.015
39441W        W 6224  36.774  42.827   0.307
39442W        W 6225  33.929  24.147  14.661
39443W        W 6226   4.084  43.565   3.676
39444W        W 6227  21.223   8.607  12.011
39445W        W 6228   0.443  14.114   4.106
39446W        W 6229  18.265  12.268  10.685
39447W        W 6230  12.862   3.249   0.530
39448W        W 6231  38.340   0.305   0.308
39449W        W 6232  29.521  19.584   5.221
39450W        W 6233   6.472  33.767  13.759
39451W        W 6234   4.015  30.041  11.620
39452W        W 6235  44.181  30.066   5.048
39453W        W 6236  27.577   0.452  13.830
39454W        W 6237  29.390  43.478  12.989
39455W        W 6238  20.766   3.410  12.079
39456W        W 6239  12.010  19.697  11.566
39457W        W 6240  25.252  21.433  13.395
39458W        W 6241  26.137  22.771   1.761
39459W        W 6242   9.694  22.508  13.417
39460W        W 6243  41.398  32.058   5.082
39461W        W 6244   5.368  11.767  13.781
39462W        W 6245   9.281  18.157  14.552
39463W        W 6246  31.600   8.165  12.609
39464W        W 6247  14.257  20.730  12.810
39465W        W 6248  35.653   4.525   1.672
39466W        W 6249  26.272   2.894   2.422
39467W        W 6250  19.145  12.851   3.087
39468W        W 6251  41.722  21.551   4.544
39469W        W 6252   8.368  32.983  11.783
39470W        W 6253  38.738  38.550   0.194
39471W        W 6254  10.662   5.947  14.547
39472W        W 6255   7.783  12.531   4.981
39473W        W 6256   4.684   7.492   2.088
39474W        W 6257  11.101  14.639  14.907
39475W        W 6258  42.532   2.022   3.423
39476W        W 6259  29.682   7.965  14.504
39477W        W 6260  32.594  19.702   1.998
39478W        W 6261  43.500   8.854   4.069
39479W        W 6262   2.254  39.045   0.414
39480W        W 6263  25.581  23.056  11.111
39481W        W 6264   1.441  35.056  13.704
39482W        W 6265  12.207  19.577  12.020
39483W        W 6266  44.989  25.805  13.150
39484W        W 6267  17.833  10.888  11.808
39485W        W 6268   3.323  34.397  13.777
39486W        W 6269  35.815   3.716  10.749
39487W        W 6270   4.531  18.203  13.980
39488W        W 6271   8.510   4.825  14.357
39489W        W 6272  15.403   4.832   3.627
39490W        W 6273  40.756  39.986   0.377
39491W        W 6274  38.385  38.093   4.595
39492W        W 6275  26.057  25.225   0.062
39493W        W 6276  26.722  35.657  10.767
39494W        W 6277  21.726  43.895   1.867
39495W        W 6278  37.229  31.028   0.408
39496W        W 6279  35.875   1.323  10.692
39497W        W 6280  42.009  29.351  13.474
39498W        W 6281  18.551  12.575   0.408
39499W        W 6282  23.193  38.308   2.330
39500W        W 6283  24.296  33.059   2.689
39501W        W 6284  13.800  25.408   4.643
39502W        W 6285   8.335  30.304   2.200
39503W        W 6286  23.998  30.352   4.091
39504W        W 6287  12.312   3.466  10.696
39505W        W 6288  30.997  28.033  11.427
39506W        W 6289  14.360  30.569  11.046
39507W        W 6290  23.162  15.496  14.569
39508W        W 6291  17.606   5.935  13.686
39509W        W 6292  41.327   6.671   4.525
39510W        W 6293  38.388  44.937  14.341
39511W        W 6294   8.825  19.516   2.518
39512W        W 6295   7.044  28.600  12.184
39513W        W 6296  33.467  25.166   4.544
39514W        W 6297  20.416   6.279  10.020
39515W        W 6298  39.120   9.610  10.605
39516W        W 6299  40.792  17.541  10.610
39517W        W 6300  44.019  20.653   2.143
39518W        W 6301   8.658   7.200  11.875
39519W        W 6302  15.306  30.357  14.264
39520W        W 6303  32.933  30.368  12.596
39521W        W 6304  32.428   1.857   2.883
39522W        W 6305  36.561  35.601   0.986
39523W        W 6306   0.464   4.090  14.431
39524W        W 6307  24.141  15.841  11.500
39525W        W 6308  11.584  38.022   3.062
39526W        W 6309   7.430  19.194  12.111
39527W        W 6310   6.284  44.522  11.871
39528W        W 6311  26.555  20.331   4.078
39529W        W 6312  35.038   4.002  11.182
39530W        W 6313  38.867   1.601   2.687
39531W        W 6314  11.872  18.100  14.746
39532W        W 6315   2.789   9.738   0.417
39533W        W 6316  18.213  32.103  11.893
39534W        W 6317  37.565   7.692   1.368
39535W        W 6318   3.324  35.633   2.306
39536W        W 6319  25.466  39.536  13.118
39537W        W 6320  25.567  37.347   4.493
39538W        W 6321  38.957  34.995  14.087
39539W        W 6322  41.559  34.190  13.992
39540W        W 6323  20.689  14.537   1.692
39541W        W 6324  30.105  33.587   1.750
39542W        W 6325  33.127  10.076   3.616
39543W        W 6326  28.392  39.502  10.241
39544W        W 6327   8.614  32.524  11.891
39545W        W 6328  29.021  26.127   2.162
39546W        W 6329  11.894  43.397   2.333
39547W        W 6330  22.724  29.933   0.284
39548W        W 6331  33.009  13.581  11.993
39549W        W 6332  21.632   7.674  13.285
39550W        W 6333  37.015  12.576   2.342
39551W        W 6334  24.953   3.993  11.600
39552W        W 6335  12.906   9.757   0.811
39553W        W 6336  11.517  18.549  11.319
39554W        W 6337  27.006  42.855  12.955
39555W        W 6338  16.845   9.435   2.749
39556W        W 6339  25.728  40.683   1.523
39557W        W 6340  40.570  12.153   4.020
39558W        W 6341  30.586  11.498   4.109
39559W        W 6342  36.008  18.186   2.312
39560W        W 6343   5.270  15.146  10.486
39561W        W 6344  40.854  34.462  14.223
39562W        W 6345  38.535   1.749  14.840
39563W        W 6346  38.350  29.861   4.474
39564W        W 6347  33.414   7.882   3.358
39565W        W 6348  33.344  13.717  12.453
39566W        W 6349  22.585  31.602  12.856
39567W        W 6350  16.677   3.454   4.642
39568W        W 6351  21.071  36.863   2.231
39569W        W 6352  16.314   7.643   1.484
39570W        W 6353   1.499  39.926  14.054
39571W        W 6354  23.474  38.440  12.602
39572W        W 6355  17.157  29.067  10.801
39573W        W 6356  19.528  37.869  13.919
39574W        W 6357  11.846  24.627   3.814
39575W        W 6358  29.535  37.417   3.202
39576W        W 6359  12.560  20.100   4.374
39577W        W 6360   5.347  34.651   4.194
39578W        W 6361   1.419  26.722   0.270
39579W        W 6362   2.323  40.135   4.117
39580W        W 6363  39.853  10.931   3.621
39581W        W 6364  10.200  12.988  14.247
39582W        W 6365  26.006   6.896  10.701
39583W        W 6366  30.833  29.562  12.092
39584W        W 6367   9.622   8.246  14.449
39585W        W 6368  12.139  29.094   1.557
39586W        W 6369  13.431  14.175   2.743
39587W        W 6370   9.810   9.315   3.266
39588W        W 6371   5.237  40.550   1.430
39589W        W 6372  37.985  26.499  11.097
39590W        W 6373  20.126  38.580   0.531
39591W        W 6374  26.552  16.125   4.359
39592W        W 6375  22.473  17.299   4.972
39593W        W 6376  29.040  35.562   1.114
39594W        W 6377   6.665   5.697   3.699
39595W        W 6378  25.434  29.106   3.817
39596W        W 6379  29.947   0.795  12.281
39597W        W 6380   6.836  31.380  12.345
39598W        W 6381   6.808  20.752  14.985
39599W        W 6382  42.877   8.301   0.388
39600W        W 6383   2.955  30.594   1.382
39601W        W 6384  20.090  37.462   1.339
39602W        W 6385   1.154  30.339   1.225
39603W        W 6386  23.322  19.120   4.807
39604W        W 6387  33.404  20.262  12.640
39605W        W 6388  14.307  24.557  10.587
39606W        W 6389   6.129   2.433  11.979
39607W        W 6390   6.006   8.699  14.874
39608W        W 6391  26.184  30.057   2.858
39609W        W 6392  42.650  44.052  12.416
39610W        W 6393  44.324  44.032   1.179
39611W        W 6394  29.827  30.654   2.092
39612W        W 6395   8.080  22.115  13.010
39613W        W 6396  27.157  32.398  12.913
39614W        W 6397  25.502   8.766   0.290
39615W        W 6398  17.696  40.300   3.702
39616W        W 6399  38.188  39.357  10.494
39617W        W 6400   2.741  28.413   4.601
39618W        W 6401   7.454   3.340  10.955
39619W        W 6402  38.618   8.766  11.536
39620W        W 6403  27.627  39.594   3.638
39621W        W 6404   5.533  31.841  11.972
39622W        W 6405  35.550  27.351   0.291
39623W        W 6406   5.255  20.199  14.770
39624W        W 6407  30.947   3.240  14.967
39625W        W 6408  43.851  22.543  13.931
39626W        W 6409   0.646   8.717   1.823
39627W        W 6410  32.103  38.104   0.412
39628W        W 6411   3.797  14.917   1.239
39629W        W 6412   5.010   6.236   3.649
39630W        W 6413  32.187  37.870   3.320
39631W        W 6414  20.243  44.099   4.436
39632W        W 6415  14.220  20.179  11.788
39633W        W 6416  26.446  36.552   3.220
39634W        W 6417   5.684  41.847  14.535
39635W        W 6418   1.341  33.777   0.797
39636W        W 6419  23.588  31.227  14.083
39637W        W 6420  10.252  23.491  11.045
39638W        W 6421  21.605  37.959  10.652
39639W        W 6422  23.705  21.762  14.459
39640W        W 6423  24.116  25.952  13.369
39641W        W 6424  30.864  24.230   1.467
39642W        W 6425  13.112  17.401  13.341
39643W        W 6426  43.068  33.047   3.000
39644W        W 6427  27.974   8.740  12.559
39645W        W 6428  37.469  38.571  10.781
39646W        W 6429  28.162  27.483   2.384
39647W        W 6430  42.791  10.618  13.360
39648W        W 6431   8.690  26.820  12.794
39649W        W 6432  42.001  29.134   0.480
39650W        W 6433  29.479  31.741  11.993
39651W        W 6434  44.549  35.119  10.575
39652W        W 6435  33.370  13.447   2.797
39653W        W 6436  40.751  39.966   3.583
39654W        W 6437  19.061   2.066  12.241
39655W        W 6438  29.581  35.637   3.593
39656W        W 6439  14.285  20.992   1.023
39657W        W 6440  30.299  15.594  12.881
39658W        W 6441  23.723   0.366   0.544
39659W        W 6442  21.653  24.944   2.347
39660W        W 6443  29.820   9.953   0.317
39661W        W 6444  35.014   1.501   3.711
39662W        W 6445  29.979  15.757  12.504
39663W        W 6446  19.351  16.415   4.981
39664W        W 6447  11.894  39.583   0.808
39665W        W 6448  10.093  30.908  14.405
39666W        W 6449   6.891  43.104   1.271
39667W        W 6450  20.988  16.123   1.841
39668W        W 6451  10.222  13.327  13.349
39669W        W 6452  43.870  38.085  10.527
39670W        W 6453  34.314  30.946   1.058
39671W        W 6454  38.014   0.490   3.808
39672W        W 6455   0.895  10.302   2.846
39673W        W 6456  12.592  22.717  13.555
39674W        W 6457   6.213  33.994  14.840
39675W        W 6458  19.965  29.040   4.518
39676W        W 6459  13.085  23.954   1.101
39677W        W 6460   7.222  39.620  11.398
39678W        W 6461  26.505  14.057   0.257
39679W        W 6462   7.742  44.876   2.907
39680W        W 6463  35.794   6.373  11.985
39681W        W 6464  27.430  43.304  14.392
39682W        W 6465  13.849  11.783   5.041
39683W        W 6466  37.289   2.255  11.701
39684W        W 6467  11.194  12.201   3.842
39685W        W 6468  39.912  26.494   1.944
39686W        W 6469  36.787  41.132  13.293
39687W        W 6470  20.808   9.260   0.474
39688W        W 6471  27.464   7.182  12.084
39689W        W 6472   7.955  25.010   2.348
39690W        W 6473  31.538  32.021   1.508
39691W        W 6474  37.574  23.456  11.163
39692W        W 6475   3.464  28.573  12.069
39693W        W 6476  40.065   8.302   1.873
39694W        W 6477  15.199  43.729   0.777
39695W        W 6478  31.768   7.517  14.287
39696W        W 6479   8.144  21.500  13.694
39697W        W 6480   7.312  20.204  14.526
39698W        W 6481  14.576  19.475   0.702
39699W        W 6482  28.029  39.712   1.433
39700W        W 6483   3.496  31.710   0.385
39701W        W 6484  40.925   7.360  13.695
39702W        W 6485   7.384  41.415   0.900
39703W        W 6486  22.616  31.448   1.774
39704W        W 6487  34.935  18.596  12.550
39705W        W 6488  21.533  23.635   0.953
39706W        W 6489   7.317  25.594  12.611
39707W        W 6490  22.551  34.216  13.488
39708W        W 6491   4.821  20.164  13.875
39709W        W 6492  35.810   3.706   1.290
39710W        W 6493  42.582   1.002  12.469
39711W        W 6494  38.386  41.606  12.098
39712W        W 6495  43.140  36.509  14.058
39713W        W 6496  37.882  43.734   4.580
39714W        W 6497  35.494  25.191  12.353
39715W        W 6498  33.521  38.487  12.058
39716W        W 6499   9.979   7.680  12.230
39717W        W 6500  13.064  25.685  14.849
39718W        W 6501   6.357  27.704  14.496
39719W        W 6502  33.605  34.505   3.696
39720W        W 6503  26.244   7.203   4.854
39721W        W 6504  27.668  11.990   2.366
39722W        W 6505   0.913  44.470   2.496
39723W        W 6506  27.346   6.219  10.715
39724W        W 6507  22.191   4.192  14.787
39725W        W 6508  24.677   4.953   2.310
39726W        W 6509   9.132  35.518   4.362
39727W        W 6510  32.485  26.012  14.096
39728W        W 6511  29.045  28.356   3.826
39729W        W 6512   2.895  31.051   5.238
39730W        W 6513  42.955  10.696   4.650
39731W        W 6514  44.071   6.793  13.287
39732W        W 6515   5.395  40.901   4.597
39733W        W 6516  10.749  39.882   2.671
39734W        W 6517   4.741   8.855  11.554
39735W        W 6518  20.727   4.465  12.406
39736W        W 6519   9.259  23.665   4.001
39737W        W 6520  18.537  12.060  11.098
39738W        W 6521  43.001   4.665  14.843
39739W        W 6522   4.545  20.121   4.548
39740W        W 6523   2.930   2.477   3.224
39741W        W 6524  17.262   7.647  11.098
39742W        W 6525  32.523   2.312   0.709
39743W        W 6526  30.083  35.320  11.750
39744W        W 6527  29.790   7.707   0.001
39745W        W 6528  33.105  16.636  14.494
39746W        W 6529  34.940  34.319  13.943
39747W        W 6530  39.783  36.823  10.495
39748W        W 6531  15.264   0.237  11.715
39749W        W 6532   0.025  42.161  12.897
39750W        W 6533  23.470  37.716  11.736
39751W        W 6534  42.792  11.185  14.508
39752W        W 6535  35.634  44.798   3.214
39753W        W 6536  15.068  41.452   2.859
39754W        W 6537  40.878  18.351   1.959
39755W        W 6538  19.807  20.102   0.283
39756W        W 6539  10.191  29.909   1.645
39757W        W 6540  20.765  17.688   2.284
39758W        W 6541  13.762  36.102   1.759
39759W        W 6542  36.381  10.930   0.369
39760W        W 6543  44.364  29.734   4.262
39761W        W 6544  36.422  11.552   2.640
39762W        W 6545  21.675  14.428   2.602
39763W        W 6546   5.341  31.381   2.700
39764W        W 6547  25.321  38.095  14.583
39765W        W 6548  36.504  24.606   0.485
39766W        W 6549  23.274  44.347  11.664
39767W        W 6550   4.381  21.683   3.404
39768W        W 6551  24.768  37.860  10.453
39769W        W 6552   2.246  29.074   1.306
39770W        W 6553   9.635  40.621   1.724
39771W        W 6554  37.290  37.872   3.177
39772W        W 6555  31.714  35.189  11.529
39773W        W 6556  38.878  40.528   0.340
39774W        W 6557  12.793  36.062  14.543
39775W        W 6558  38.948  43.835   2.442
39776W        W 6559  17.999  24.422   0.465
39777W        W 6560  17.229  14.090  12.590
39778W        W 6561  42.565  23.236   3.291
39779W        W 6562  44.691  29.512   4.603
39780W        W 6563   2.661   4.242   2.707
39781W        W 6564  29.195  24.475  11.478
39782W        W 6565   8.767  35.903  14.716
39783W        W 6566   0.910  33.992   0.939
39784W        W 6567  33.867  29.463  11.864
39785W        W 6568  25.046  17.996   3.767
39786W        W 6569  40.278  25.100  12.003
39787W        W 6570  32.513  23.931  10.821
39788W        W 6571  41.046  21.229   3.230
39789W        W 6572   5.452  37.067  11.136
39790W        W 6573   3.347  30.543   1.024
39791W        W 6574   2.438   9.666  10.725
39792W        W 6575   7.935  37.135   1.806
39793W        W 6576  33.262  40.768  14.900
39794W        W 6577   6.148  14.801  14.111
39795W        W 6578  24.832  29.441  10.074
39796W        W 6579  25.678  43.889   0.436
39797W        W 6580  34.819   0.003  14.069
39798W        W 6581   1.759   5.290  14.982
39799W        W 6582  20.933  36.605  14.812
39800W        W 6583  40.585   9.816   2.725
39801W        W 6584  26.239  25.040   2.123
39802W        W 6585  39.497  23.899  14.969
39803W        W 6586  10.372  36.283   4.813
39804W        W 6587   9.418  26.259  11.645
39805W        W 6588  29.735  10.588  13.408
39806W        W 6589  30.688  12.605   2.752
39807W        W 6590  38.065  25.548  13.828
39808W        W 6591  11.203  29.124  12.010
39809W        W 6592  10.095  21.168   2.300
39810W        W 6593  35.606  44.570   1.362
39811W        W 6594  28.026  31.029  14.485
39812W        W 6595  18.598  33.457  13.351
39813W        W 6596  43.911  19.038   0.440
39814W        W 6597  23.826  37.818   4.644
39815W        W 6598  23.229  32.202   1.951
39816W        W 6599  15.173  24.944  10.763
39817W        W 6600  23.863  22.126  11.991
39818W        W 6601  42.766  35.028  12.486
39819W        W 6602  28.035  37.640  10.552
39820W        W 6603  30.454  14.560  14.211
39821W        W 6604  32.163   5.043   2.530
39822W        W 6605   6.205  32.249  11.581
39823W        W 6606  21.295   8.933   3.141
39824W        W 6607  39.557  21.694   2.372
39825W        W 6608  27.764  25.354  12.150
39826W        W 6609   1.482   6.843  13.435
39827W        W 6610  16.278  41.385  10.512
39828W        W 6611   1.532   1.984   3.155
39829W        W 6612   0.307   7.274  11.554
39830W        W 6613  18.494  36.432  10.484
39831W        W 6614  32.033  42.320   1.328
39832W        W 6615  31.571  12.621  14.201
39833W        W 6616  29.978  42.381   0.736
39834W        W 6617  22.161  42.093  12.442
39835W        W 6618  26.745   6.689  14.463
39836W        W 6619  29.438  25.393   4.553
39837W        W 6620  31.010  25.543  10.501
39838W        W 6621  19.102  40.874   2.292
39839W        W 6622  44.516   2.027   2.634
39840W        W 6623   2.454  11.372  13.422
39841W        W 6624  38.086  28.628  11.982
39842W        W 6625  32.582  16.016  12.743
39843W        W 6626   1.101  22.323   2.244
39844W        W 6627  15.599  34.841   4.361
39845W        W 6628  30.817  10.710  12.871
39846W        W 6629   1.880   8.493   0.070
39847W        W 6630  29.852  44.376  12.086
39848W        W 6631  38.044  44.549  13.741
39849W        W 6632   7.951   0.436  11.308
39850W        W 6633   9.720  15.270  13.990
39851W        W 6634  19.762   3.974   3.463
39852W        W 6635  32.613  14.815   2.268
39853W        W 6636  26.426  35.423  12.021
39854W        W 6637  40.103  34.511   0.332
39855W        W 6638  37.608  22.634   3.249
39856W        W 6639  39.506  28.070   0.252
39857W        W 6640  40.891  23.553   3.154
39858W        W 6641  11.198  36.540  14.813
39859W        W 6642  14.191   7.172  13.497
39860W        W 6643  31.421  40.925  11.194
39861W        W 6644  14.550   7.856  11.703
39862W        W 6645  43.358  18.436  10.695
39863W        W 6646   1.045   6.992   3.765
39864W        W 6647  28.527  16.221  14.503
39865W        W 6648  16.679  10.789  11.869
39866W        W 6649  41.395  40.112   4.134
39867W        W 6650  33.304  39.945   4.944
39868W        W 6651  28.037  36.510  13.420
39869W        W 6652   5.628  43.442  11.224
39870W        W 6653  35.510   4.064   3.280
39871W        W 6654  38.426  33.293  10.531
39872W        W 6655   6.783  17.101   1.850
39873W        W 6656  12.282  19.371   2.377
39874W        W 6657  18.761  13.485   5.410
39875W        W 6658   8.147  27.128   0.825
39876W        W 6659   7.486  40.560  11.080
39877W        W 6660  34.451  10.365  12.005
39878W        W 6661   1.552  30.401  14.186
39879W        W 6662  14.198  20.519  11.417
39880W        W 6663  21.762  33.839  12.865
39881W        W 6664  23.628  24.697  12.324
39882W        W 6665  36.965  38.319   4.570
39883W        W 6666  33.326  25.765   3.198
39884W        W 6667  35.283  17.553   1.015
39885W        W 6668  19.716  22.792   3.292
39886W        W 6669  38.516   8.563  14.462
39887W        W 6670  21.652  16.859   1.188
39888W        W 6671   4.263  22.666   3.744
39889W        W 6672   3.664   4.852   2.399
39890W        W 6673  25.931  19.224  11.185
39891W        W 6674  28.009   9.715  14.967
39892W        W 6675  31.672  12.258  12.490
39893W        W 6676  12.692  18.337   2.348
39894W        W 6677   2.946  34.356   4.584
39895W        W 6678  26.283  37.379   4.352
39896W        W 6679  23.541  11.631   0.415
39897W        W 6680   6.618  33.452   2.020
39898W        W 6681  23.994   7.744   4.050
39899W        W 6682  32.534  23.024  12.789
39900W        W 6683  35.058  17.234   1.966
39901W        W 6684  19.010  32.522   1.404
39902W        W 6685  41.425   4.308  14.695
39903W        W 6686  35.305  13.318  11.411
39904W        W 6687  33.990  36.026   0.190
39905W        W 6688   9.491   8.785   4.077
39906W        W 6689   1.359  44.040   1.325
39907W        W 6690   0.060  25.837  14.941
39908W        W 6691   0.218   4.280  14.839
39909W        W 6692   8.207  24.557   2.275
39910W        W 6693  26.918   5.042   3.339
39911W        W 6694  17.569  22.708   3.742
39912W        W 6695   3.347   4.900   5.073
39913W        W 6696  23.957   9.175  11.105
39914W        W 6697  22.183  36.381  12.819
39915W        W 6698  38.391  32.379   2.115
39916W        W 6699  14.180  13.040  13.175
39917W        W 6700  42.456  21.220   2.248
39918W        W 6701   6.033  34.733   0.410
39919W        W 6702  27.722  32.966   0.952
39920W        W 6703  13.049  34.323  13.325
39921W        W 6704  15.657   5.908  13.049
39922W        W 6705  12.009  14.082  13.010
39923W        W 6706   8.266  33.952   3.111
39924W        W 6707  17.599  27.841  14.603
39925W        W 6708  14.251  28.558  14.926
39926W        W 6709  32.596  13.267  12.175
39927W        W 6710  25.158  35.343  13.432
39928W        W 6711  38.160  24.663  14.430
39929W        W 6712  29.384   4.382  13.957
39930W        W 6713  22.291  12.085  11.724
39931W        W 6714  20.295  41.504   3.695
39932W        W 6715  24.494   9.127  10.619
39933W        W 6716   2.705  18.009   4.389
39934W        W 6717  36.012  37.185  11.711
39935W        W 6718   3.945   0.323   3.573
39936W        W 6719  13.063  31.521  12.049
39937W        W 6720  29.325  42.400   0.122
39938W        W 6721  35.593  21.219   3.055
39939W        W 6722  21.103  35.414  12.685
39940W        W 6723   6.229  24.457   0.897
39941W        W 6724  23.908  27.247   4.184
39942W        W 6725  23.120  34.856  11.514
39943W        W 6726  12.886  14.099  10.594
39944W        W 6727  41.102   3.645   2.803
39945W        W 6728  42.395  17.909   0.293
39946W        W 6729  28.508   1.613   4.606
39947W        W 6730  17.489  37.762   5.054
39948W        W 6731   5.154  17.192  12.960
39949W        W 6732  33.824  19.412   5.100
39950W        W 6733  31.577  35.597  13.513
39951W        W 6734   6.842  10.825  13.009
39952W        W 6735  26.265  12.307   4.277
39953W        W 6736  44.850   2.279  12.443
39954W        W 6737  16.747   7.355  12.845
39955W        W 6738  39.417  11.302   1.279
39956W        W 6739   2.091  40.479  14.627
39957W        W 6740   9.323   4.973   3.236
39958W        W 6741   4.975   7.087   3.345
39959W        W 6742  33.104  21.709   3.289
39960W        W 6743  41.998  15.345   5.113
39961W        W 6744  10.636  24.143   4.624
39962W        W 6745   0.659  23.678  12.064
39963W        W 6746  32.651   0.761  11.740
39964W        W 6747  17.832  28.825   2.457
39965W        W 6748  33.537  44.387   0.908
39966W        W 6749   8.284  44.466   2.253
39967W        W 6750  14.235  11.272   0.291
39968W        W 6751   3.651  33.158  12.892
39969W        W 6752  17.053  17.596   0.300
39970W        W 6753   7.818  32.531   2.217
39971W        W 6754  35.063  44.461   2.880
39972W        W 6755  37.280  13.915   2.257
39973W        W 6756  29.591   1.720   2.286
39974W        W 6757  37.002   0.951  13.270
39975W        W 6758  30.180   2.235  14.873
39976W        W 6759  32.084   8.796   0.752
39977W        W 6760  14.538   7.335   3.429
39978W        W 6761   1.772  23.598  14.731
39979W        W 6762  23.240  21.681  10.667
39980W        W 6763  33.473  28.146  13.739
39981W        W 6764   0.839   4.791   2.705
39982W        W 6765  10.405  10.692  11.275
39983W        W 6766   8.745  19.354   4.340
39984W        W 6767  17.752  23.155   1.302
39985W        W 6768  12.565  30.916  10.764
39986W        W 6769  11.089   1.687   0.766
39987W        W 6770  16.062  27.379  11.941
39988W        W 6771  25.966  32.523   4.678
39989W        W 6772  32.564  34.576   3.738
39990W        W 6773  36.494  40.358  10.756
39991W        W 6774  42.246  30.648  13.600
39992W        W 6775   3.934  43.058   3.653
39993W        W 6776  38.852  23.773  13.915
39994W        W 6777  27.681  44.808  14.934
39995W        W 6778  24.041  42.896   3.306
39996W        W 6779   7.821   6.525  14.317
39997W        W 6780  21.482   5.880  11.540
39998W        W 6781  16.712   6.406  13.801
39999W        W 6782  22.276   4.292  10.737
40000W        W 6783  18.254  18.602  12.365
40001W        W 6784  40.979  33.087   0.294
40002W        W 6785  19.119  33.517   2.469
40003W        W 6786  31.474  29.762   1.859
40004W        W 6787  36.839  29.488   1.807
40005W        W 6788  24.138   4.931   4.458
40006W        W 6789  35.938  26.388   1.263
40007W        W 6790  40.799  34.898  14.980
40008W        W 6791  28.086  37.578  11.086
40009W        W 6792  41.706   6.208  11.800
40010W        W 6793   6.428   5.350  13.944
40011W        W 6794  27.042   0.824  12.692
40012W        W 6795  16.764  31.216  12.350
40013W        W 6796  15.307  20.132   1.671
40014W        W 6797  44.259  10.601   0.360
40015W        W 6798  14.698  10.277  13.964
40016W        W 6799  16.463  13.934  13.317
40017W        W 6800  19.242   5.266  13.054
40018W        W 6801  35.953  10.856  14.841
40019W        W 6802   5.994  27.017  14.560
40020W        W 6803  37.494  19.564  12.370
40021W        W 6804  39.416  14.265   2.742
40022W        W 6805  28.955  38.846  13.170
40023W        W 6806  16.729  33.510   0.318
40024W        W 6807   7.837  41.290  10.729
40025W        W 6808  28.484  25.514  14.405
40026W        W 6809   9.949  22.496   4.872
40027W        W 6810  43.139  22.435   5.269
40028W        W 6811  15.130   8.060   3.292
40029W        W 6812  35.194   3.586   0.059
40030W        W 6813  15.103  43.468  13.592
40031W        W 6814  35.048  28.643   1.815
40032W        W 6815  28.544  32.503  11.610
40033W        W 6816   4.756  13.379  13.884
40034W        W 6817  11.210  26.258   2.861
40035W        W 6818   9.351  34.034   1.649
40036W        W 6819  22.172  20.754   0.600
40037W        W 6820  14.070  44.870  14.899
40038W        W 6821  12.248  40.423   2.438
40039W        W 6822  27.212  32.970   0.826
40040W        W 6823  44.291  42.063  11.429
40041W        W 6824  17.757  31.656  12.470
40042W        W 6825  34.851   3.456  13.996
40043W        W 6826   5.408  36.869   3.184
40044W        W 6827  21.487  16.519  14.327
40045W        W 6828  15.745   2.004   2.149
40046W        W 6829  35.640  44.222  13.182
40047W        W 6830   4.175  44.994  13.242
40048W        W 6831  28.876  21.075   1.805
40049W        W 6832  20.040   0.249  14.420
40050W        W 6833   8.050  34.138   0.332
40051W        W 6834  29.132  20.569  10.552
40052W        W 6835  35.918  29.072   4.497
40053W        W 6836  25.733  20.783  13.809
40054W        W 6837  39.027  11.390  11.115
40055W        W 6838  39.432  24.205  12.614
40056W        W 6839   7.754  21.715   2.566
40057W        W 6840  21.234  19.007   1.782
40058W        W 6841  29.070  38.541  12.107
40059W        W 6842  36.410  34.184   3.742
40060W        W 6843  28.530  19.665  13.556
40061W        W 6844  35.536   3.564   3.329
40062W        W 6845  20.561  33.114  12.429
40063W        W 6846  14.292  30.087   3.304
40064W        W 6847  23.444  31.378  14.974
40065W        W 6848  20.300  36.848   2.021
40066W        W 6849  44.914  44.185  10.945
40067W        W 6850  37.872  20.806  12.789
40068W        W 6851  26.253   4.435  13.358
40069W        W 6852  21.600   9.689   4.926
40070W        W 6853   7.688  23.055  11.655
40071W        W 6854  33.015  27.935  13.905
40072W        W 6855  38.714  39.252   1.320
40073W        W 6856  19.637   8.250   1.293
40074W        W 6857  31.527   2.527  14.810
40075W        W 6858  38.581  19.203   2.462
40076W        W 6859  20.995  17.078   1.706
40077W        W 6860  42.785  44.982  11.057
40078W        W 6861  38.749  31.921   4.517
40079W        W 6862  32.141  14.654   2.135
40080W        W 6863  39.673  35.616   0.417
40081W        W 6864   0.784   7.378  11.405
40082W        W 6865   2.734  13.186   3.945
40083W        W 6866  30.971  15.773   0.484
40084W        W 6867  36.993  44.214   0.301
40085W        W 6868  40.935  26.346  10.766
40086W        W 6869   9.424   5.286   3.660
40087W        W 6870  13.332  16.032  11.233
40088W        W 6871  35.075   1.399   2.769
40089W        W 6872  34.366  39.558   2.451
40090W        W 6873  17.660  34.803  11.065
40091W        W 6874  41.818   5.750  14.377
40092W        W 6875  37.927  25.924  12.720
40093W        W 6876  25.044  21.515   4.541
40094W        W 6877  42.160  21.522   0.713
40095W        W 6878  39.608   2.929  11.938
40096W        W 6879  33.538  39.749   2.902
40097W        W 6880  31.184  33.604  10.326
40098W        W 6881  13.642  29.904   1.658
40099W        W 6882  15.033  27.640  11.122
40100W        W 6883  33.637  41.520  11.946
40101W        W 6884  23.970  20.692   4.389
40102W        W 6885  27.227  36.363   1.658
40103W        W 6886   1.927  10.199   2.076
40104W        W 6887   4.899  37.828   0.898
40105W        W 6888   5.759  14.844  14.456
40106W        W 6889   2.489  33.160  13.350
40107W        W 6890  18.679  29.723  11.079
40108W        W 6891  32.841   6.489  12.245
40109W        W 6892  43.093  27.541   0.868
40110W        W 6893  19.550  32.460  10.736
40111W        W 6894  28.689  35.022   4.129
40112W        W 6895  39.488  32.149   1.431
40113W        W 6896   3.234  20.149  13.472
40114W        W 6897  13.421  34.332  13.903
40115W        W 6898  44.990  25.551   4.082
40116W        W 6899  40.533  13.090   2.648
40117W        W 6900  24.121  31.150   1.971
40118W        W 6901   6.990  22.542  13.983
40119W        W 6902  16.161  36.512   3.655
40120W        W 6903  22.554  29.987   9.929
40121W        W 6904  16.305  23.792   3.114
40122W        W 6905  15.333  36.197   1.019
40123W        W 6906  29.086  43.223   3.283
40124W        W 6907  27.238   7.423   0.844
40125W        W 6908  32.005  23.263   0.543
40126W        W 6909  40.931   6.344   4.465
40127W        W 6910  22.288  14.004   4.409
40128W        W 6911  16.549  38.850  11.451
40129W        W 6912   2.714   6.917  10.636
40130W        W 6913  11.937  37.941   2.691
40131W        W 6914  21.216  42.195   3.845
40132W        W 6915  11.466  17.046  14.555
40133W        W 6916   2.816   0.281   4.546
40134W        W 6917  39.392  20.715   4.360
40135W        W 6918  35.708  11.500  11.524
40136W        W 6919  37.615  11.234  13.508
40137W        W 6920  42.915  23.781   4.809
40138W        W 6921   0.368  30.587   3.465
40139W        W 6922  31.935   8.420   4.448
40140W        W 6923  36.381  42.708  12.591
40141W        W 6924   4.666  17.881  11.968
40142W        W 6925  12.639  43.800   3.630
40143W        W 6926  32.730  40.389   3.172
40144W        W 6927   8.373  38.229  14.973
40145W        W 6928  16.811   8.620  13.045
40146W        W 6929   7.554  34.836  14.327
40147W        W 6930  12.834  28.828  11.641
40148W        W 6931   4.707  44.521   1.803
40149W        W 6932  25.551  19.023   2.719
40150W        W 6933  37.033  23.468  13.478
40151W        W 6934  23.225  37.969  10.462
40152W        W 6935  28.064  44.754  11.401
40153W        W 6936  42.785  30.041  13.075
40154W        W 6937  30.602  12.917  13.842
40155W        W 6938  31.240  30.723   2.270
40156W        W 6939  40.546   0.796  12.393
40157W        W 6940   2.780   1.546   1.637
40158W        W 6941   1.413  23.218  14.199
40159W        W 6942   1.559  38.098  13.444
40160W        W 6943   1.378   8.178   4.173
40161W        W 6944  34.059  25.017  12.474
40162W        W 6945  28.499  19.001   3.272
40163W        W 6946  25.464  27.774   1.966
40164W        W 6947  15.756   2.247  12.486
40165W        W 6948  23.117  41.774   0.032
40166W        W 6949  25.709  42.418   2.634
40167W        W 6950  21.781   6.362   3.175
40168W        W 6951   3.667  28.673   1.798
40169W        W 6952  38.020  27.422  11.596
40170W        W 6953   8.717  23.229   1.227
40171W        W 6954  27.191  19.491  13.814
40172W        W 6955  15.865  34.570   0.794
40173W        W 6956  15.232  11.739   2.788
40174W        W 6957   9.111  32.960  13.466
40175W        W 6958  31.695  38.386  10.660
40176W        W 6959  38.533  41.097   0.803
40177W        W 6960  16.290  17.864   1.930
40178W        W 6961   2.289  10.316   3.768
40179W        W 6962  20.589  26.703  12.551
40180W        W 6963  42.951   3.393   3.434
40181W        W 6964  22.940  10.840   1.793
40182W        W 6965   5.241  33.157   0.776
40183W        W 6966   2.618  14.246  11.102
40184W        W 6967  27.574  33.663   0.409
40185W        W 6968  19.736   5.117  11.190
40186W        W 6969  24.903   7.393  14.489
40187W        W 6970  36.549  42.909  12.027
40188W        W 6971  36.074   5.805   5.217
40189W        W 6972  14.925   2.971   1.756
40190W        W 6973  36.189  30.183   2.315
40191W        W 6974   9.868  25.465   1.216
40192W        W 6975  44.555  23.106  13.422
40193W        W 6976  18.976  16.359  11.838
40194W        W 6977  35.327  16.286  13.330
40195W        W 6978  20.669   7.743   3.115
40196W        W 6979   8.113   4.181  13.245
40197W        W 6980  22.901  30.312  12.547
40198W        W 6981  17.806  18.106   2.663
40199W        W 6982  44.899  19.256   2.213
40200W        W 6983  31.874  38.643   1.868
40201W        W 6984  29.929  33.536  14.866
40202W        W 6985  20.935  14.508  14.723
40203W        W 6986  32.002  11.388   3.654
40204W        W 6987  33.879   4.284  13.801
40205W        W 6988  31.942  25.147  13.241
40206W        W 6989   2.755  36.157  14.093
40207W        W 6990  17.661  18.604   1.847
40208W        W 6991   8.609   9.182   2.564
40209W        W 6992  15.819   9.324   1.786
40210W        W 6993  37.791  17.414   3.177
40211W        W 6994  40.910   2.774   4.077
40212W        W 6995   5.973  11.473   0.230
40213W        W 6996  20.342  25.654   1.529
40214W        W 6997   9.727  15.813  11.636
40215W        W 6998  26.451  19.483   4.249
40216W        W 6999  17.714  17.608   3.533
40217W        W 7000  35.108  34.635  12.925
40218W        W 7001  12.680  26.429  13.269
40219W        W 7002   2.671  19.777   1.266
40220W        W 7003  28.961  15.357   0.828
40221W        W 7004  18.664   1.892  12.577
40222W        W 7005  16.901  36.965   3.628
40223W        W 7006  28.543  26.925  10.743
40224W        W 7007  19.127  38.898   0.284
40225W        W 7008  37.689   6.304  11.558
40226W        W 7009  19.810   2.887  12.003
40227W        W 7010  11.603   9.693   4.890
40228W        W 7011  44.429  13.604  12.056
40229W        W 7012   5.200   9.878   4.684
40230W        W 7013  18.789  10.648  12.669
40231W        W 7014  24.967  30.908  12.449
40232W        W 7015   1.701  41.078   0.828
40233W        W 7016   1.936  34.458  12.918
40234W        W 7017  40.990  31.069  13.078
40235W        W 7018  33.790  13.252  12.493
40236W        W 7019  36.221  11.439  14.336
40237W        W 7020  41.351  15.544  14.576
40238W        W 7021  13.669  18.006  11.591
40239W        W 7022  34.339  28.208   3.196
40240W        W 7023  32.545  13.124  12.666
40241W        W 7024  34.446  23.559  14.118
40242W        W 7025  25.186  34.412   3.016
40243W        W 7026  33.989  15.173   4.202
40244W        W 7027  38.253   3.243  13.821
40245W        W 7028  23.160  26.676   1.182
40246W        W 7029   0.246  31.309   2.725
40247W        W 7030   9.203  27.499  12.344
40248W        W 7031   4.408  39.471  13.985
40249W        W 7032  13.807  10.206   1.043
40250W        W 7033  14.584  16.701  12.651
40251W        W 7034  40.751  41.416   1.428
40252W        W 7035  10.138  22.727  12.525
40253W        W 7036  24.734   2.208   4.592
40254W        W 7037  11.722  42.151   3.542
40255W        W 7038  41.273  21.676   3.591
40256W        W 7039  11.291  11.744   2.143
40257W        W 7040  10.348  39.200   3.250
40258W        W 7041  31.647  23.659  13.477
40259W        W 7042  32.039  36.558   3.633
40260W        W 7043   9.401  19.686  10.667
40261W        W 7044  25.741  43.301   2.249
40262W        W 7045  15.666  35.590  14.739
40263W        W 7046   4.215  26.294   2.899
40264W        W 7047  13.177  24.878   1.664
40265W        W 7048   6.693   3.138   4.165
40266W        W 7049   4.306  40.109  14.520
40267W        W 7050   5.003  42.028   2.387
40268W        W 7051  19.944  14.909  12.855
40269W        W 7052   9.866  22.044  12.495
40270W        W 7053  35.539  19.820   1.754
40271W        W 7054  11.748  20.201   3.362
40272W        W 7055   0.442  37.321   3.676
40273W        W 7056   2.020  32.651   0.762
40274W        W 7057  21.068   1.848  11.755
40275W        W 7058  44.899  11.895  14.987
40276W        W 7059   4.956  20.192  11.596
40277W        W 7060   5.643  17.123  12.012
40278W        W 7061  38.814  29.621  13.454
40279W        W 7062  29.045  29.830   3.603
40280W        W 7063  33.005  31.074   2.085
40281W        W 7064  40.935   6.585   0.749
40282W        W 7065  29.192   0.361   3.240
40283W        W 7066  22.079  21.011  11.679
40284W        W 7067  37.607   6.210  12.978
40285W        W 7068   3.305   2.889   2.321
40286W        W 7069  28.616   6.481   2.469
40287W        W 7070  12.665  12.724  11.956
40288W        W 7071  27.471  43.628  13.062
40289W        W 7072  23.682  12.692  13.667
40290W        W 7073  12.847   5.608  13.375
40291W        W 7074  27.750  22.828  14.462
40292W        W 7075  37.773  33.930   4.701
40293W        W 7076  38.825  24.907   2.332
40294W        W 7077  19.098  27.442   1.408
40295W        W 7078   6.503   9.153  13.065
40296W        W 7079   4.446  44.332   0.812
40297W        W 7080  16.935   6.159  12.522
40298W        W 7081   3.636  17.147   3.832
40299W        W 7082  10.687  39.779  13.083
40300W        W 7083   7.830   4.274   3.698
40301W        W 7084  44.570  14.579   3.121
40302W        W 7085  13.074   4.550   3.683
40303W        W 7086   1.625   3.823   4.119
40304W        W 7087  35.511  36.105  11.610
40305W        W 7088  11.613   3.490  12.855
40306W        W 7089   7.082  22.794  13.522
40307W        W 7090  44.538  35.006   0.293
40308W        W 7091  19.394  22.086   3.531
40309W        W 7092  33.816  20.647   2.881
40310W        W 7093  23.717  41.668   3.605
40311W        W 7094  25.727  25.601  11.625
40312W        W 7095  25.797  13.355   4.063
40313W        W 7096  28.738   6.281  13.928
40314W        W 7097   5.058  18.514  11.536
40315W        W 7098  36.404  22.483  11.083
40316W        W 7099  44.449  43.550   0.229
40317W        W 7100  18.378  39.485   1.424
40318W        W 7101  35.294  35.519  10.743
40319W        W 7102  14.453  25.505   2.518
40320W        W 7103   8.538  42.861   1.334
40321W        W 7104  15.329   2.877   5.001
40322W        W 7105  44.429   3.842  11.021
40323W        W 7106  38.305  11.184   4.229
40324W        W 7107   4.404  20.274  12.451
40325W        W 7108   4.508  10.417   4.727
40326W        W 7109   0.702  17.697   1.635
40327W        W 7110   0.656  18.839   1.853
40328W        W 7111  19.373  28.573  13.138
40329W        W 7112  18.614   7.849  13.960
40330W        W 7113  11.334  11.149   1.252
40331W        W 7114  17.176   8.360   4.964
40332W        W 7115  27.287  22.125  14.948
40333W        W 7116  31.546  43.547  14.926
40334W        W 7117  36.969   3.434   3.245
40335W        W 7118   9.752  13.493   4.579
40336W        W 7119  12.830  15.711   3.425
40337W        W 7120   3.560  16.241   3.312
40338W        W 7121   4.411  39.428   0.852
40339W        W 7122  27.583  31.678  11.065
40340W        W 7123  24.766  24.895  11.189
40341W        W 7124  24.526  10.474   4.449
40342W        W 7125  21.605  17.641   4.667
40343W        W 7126  29.110  13.181   3.519
40344W        W 7127  38.010  44.437  12.456
40345W        W 7128  36.250  30.577  12.588
40346W        W 7129  27.211  26.319   5.295
40347W        W 7130  42.061  41.938   3.345
40348W        W 7131   4.697  19.446   4.074
40349W        W 7132   0.461  42.452  12.939
40350W        W 7133  24.539  22.928  13.222
40351W        W 7134  31.100   9.654   2.504
40352W        W 7135  17.660  21.991   4.190
40353W        W 7136  20.209  40.856   2.299
40354W        W 7137  30.722  20.059   2.672
40355W        W 7138   8.966  31.713  11.565
40356W        W 7139  20.557  25.972  13.808
40357W        W 7140  37.135  36.091   2.770
40358W        W 7141  20.792   2.584   2.825
40359W        W 7142  35.887  21.241   0.791
40360W        W 7143  29.032  30.560  11.759
40361W        W 7144  33.270  34.644  12.486
40362W        W 7145  18.165  38.063  11.190
40363W        W 7146  23.577  23.650   2.900
40364W        W 7147  38.770  36.880  13.355
40365W        W 7148  41.908   0.599  14.463
40366W        W 7149  14.817  27.374  12.594
40367W        W 7150  19.427  30.089  12.525
40368W        W 7151  44.931  13.329   4.265
40369W        W 7152  17.826   8.465  14.071
40370W        W 7153  44.380  40.801   0.300
40371W        W 7154   2.870  43.299   4.189
40372W        W 7155  12.102  15.741   3.326
40373W        W 7156  21.855  11.976  12.233
40374W        W 7157  30.947  34.994  10.453
40375W        W 7158   8.260  37.913   4.751
40376W        W 7159  12.029  18.035  13.568
40377W        W 7160   4.247  19.127  11.322
40378W        W 7161  34.676  22.604   1.871
40379W        W 7162   0.731  12.306   1.300
40380W        W 7163  16.706  30.537  10.435
40381W        W 7164  10.719  28.134   2.142
40382W        W 7165  33.176  29.742   2.738
40383W        W 7166   4.036   7.638   4.825
40384W        W 7167  32.032  11.889  11.056
40385W        W 7168  21.967   1.813  11.416
40386W        W 7169  41.120  15.081   1.304
40387W        W 7170  16.733  44.926   1.716
40388W        W 7171  37.911   3.723   3.760
40389W        W 7172   8.906  32.072  13.038
40390W        W 7173  25.634   3.903  14.899
40391W        W 7174  17.762  25.298   3.139
40392W        W 7175  41.066  35.339  13.913
40393W        W 7176  26.680   5.152  14.598
40394W        W 7177  31.467  10.076   4.214
40395W        W 7178  36.485  11.971   0.214
40396W        W 7179  15.982  32.000   2.337
40397W        W 7180   7.861   0.300   2.624
40398W        W 7181   6.305   8.108  13.785
40399W        W 7182   7.677  19.067  11.619
40400W        W 7183  39.586  18.765  12.773
40401W        W 7184  31.550  36.372  12.180
40402W        W 7185  26.679  35.389  11.578
40403W        W 7186  36.028  43.804   4.709
40404W        W 7187  29.593  30.106  13.837
40405W        W 7188  16.749  37.838   0.062
40406W        W 7189   4.846  27.195  14.524
40407W        W 7190  41.968  23.155   2.341
40408W        W 7191  22.260  44.729  10.329
40409W        W 7192  36.002   7.450   0.870
40410W        W 7193  36.976  34.112  12.405
40411W        W 7194  33.392  26.003  11.243
40412W        W 7195  34.051  32.004   1.921
40413W        W 7196   2.774   1.326   2.699
40414W        W 7197   3.829  20.960   0.677
40415W        W 7198  29.018  12.449  12.905
40416W        W 7199  12.785  21.589   2.273
40417W        W 7200   8.397  44.407  12.201
40418W        W 7201  18.254  26.457  14.748
40419W        W 7202  21.642  16.138  12.076
40420W        W 7203   4.732   2.381  13.844
40421W        W 7204  26.653  44.395   4.346
40422W        W 7205  39.750  35.593  14.496
40423W        W 7206   7.151  35.449   0.679
40424W        W 7207  28.850   0.454  10.734
40425W        W 7208  34.090  44.481  11.783
40426W        W 7209  12.823  16.166   0.032
40427W        W 7210  16.039  31.105   4.141
40428W        W 7211  21.407  43.816  11.276
40429W        W 7212   4.276   2.182  14.044
40430W        W 7213   2.696  41.526   5.099
40431W        W 7214  39.476  30.963  10.761
40432W        W 7215  27.960  24.665  14.364
40433W        W 7216   3.351  20.011  14.916
40434W        W 7217  29.043  29.046   2.227
40435W        W 7218  37.392  41.286   1.459
40436W        W 7219  42.972  30.071  14.108
40437W        W 7220  26.413  42.539  11.729
40438W        W 7221   6.635  31.063  14.905
40439W        W 7222  35.065  38.993  12.680
40440W        W 7223  20.780  20.069  11.584
40441W        W 7224  12.203  42.307  10.990
40442W        W 7225  44.605   5.814  13.189
40443W        W 7226   8.743  22.218  14.377
40444W        W 7227  20.756  39.916  14.385
40445W        W 7228  37.140   5.471  11.522
40446W        W 7229  13.721   1.747   4.683
40447W        W 7230  11.738  41.271  12.896
40448W        W 7231  26.873  16.688  14.917
40449W        W 7232  30.851   8.359   3.613
40450W        W 7233  44.915  11.746   0.495
40451W        W 7234  26.997   1.190   3.073
40452W        W 7235  12.631   1.867   2.424
40453W        W 7236  29.615  37.780  11.842
40454W        W 7237  27.014  41.399  11.342
40455W        W 7238   5.693   9.101  11.114
40456W        W 7239  33.892   0.725  12.461
40457W        W 7240  28.414  39.356  14.286
40458W        W 7241  34.518   9.834  12.874
40459W        W 7242  41.680  40.006  13.599
40460W        W 7243   7.961  22.523  14.361
40461W        W 7244  23.204  29.722   4.541
40462W        W 7245   7.936  16.087  12.534
40463W        W 7246  10.905  28.646  12.856
40464W        W 7247  14.148   4.722   3.198
40465W        W 7248  19.274  42.337  11.466
40466W        W 7249  32.496  19.456   4.599
40467W        W 7250   8.236  40.626  11.649
40468W        W 7251  11.220  26.164  11.474
40469W        W 7252  42.374  42.024   0.477
40470W        W 7253   5.196  29.009   3.266
40471W        W 7254   3.197  28.618  13.338
40472W        W 7255   0.647  19.543  11.556
40473W        W 7256  11.519   9.237  11.941
40474W        W 7257  39.416  29.314  11.907
40475W        W 7258  16.629   3.203  13.309
40476W        W 7259   0.209  30.780   1.320
40477W        W 7260  20.980  13.955   3.830
40478W        W 7261  30.526   1.923  13.751
40479W        W 7262   2.668  13.703  13.011
40480W        W 7263   6.916  12.370   4.636
40481W        W 7264  20.133  39.280  14.939
40482W        W 7265   3.895  13.325   0.763
40483W        W 7266  43.343  17.062   4.977
40484W        W 7267  37.656  22.153  13.023
40485W        W 7268   3.856  29.468   2.389
40486W        W 7269   2.879   8.033   4.026
40487W        W 7270  27.860  34.958  11.912
40488W        W 7271  17.222   0.382   3.592
40489W        W 7272  29.949   7.915   2.278
40490W        W 7273  32.049   9.928   2.339
40491W        W 7274  13.458  10.693   4.552
40492W        W 7275  40.069  18.124   2.457
40493W        W 7276  22.276  37.878   0.468
40494W        W 7277  43.778  11.310   4.608
40495W        W 7278  15.179  42.304   4.375
40496W        W 7279   4.313   7.129  11.934
40497W        W 7280  41.784  44.902  13.682
40498W        W 7281   2.330  33.568  14.714
40499W        W 7282   3.807   8.354   0.868
40500W        W 7283  23.555  25.799   2.233
40501W        W 7284  38.573  37.158   0.431
40502W        W 7285  42.793   8.152   0.888
40503W        W 7286  17.896   0.324  13.066
40504W        W 7287  29.207  34.463   1.345
40505W        W 7288  22.063  13.644   2.323
40506W        W 7289   9.262  38.565  12.096
40507W        W 7290  21.763  31.754  12.990
40508W        W 7291   5.668  32.072   4.642
40509W        W 7292   9.268   7.357  11.696
40510W        W 7293  41.289  29.838   0.389
40511W        W 7294  42.305  28.589   1.862
40512W        W 7295  32.152  39.281   2.102
40513W        W 7296   4.289  34.944   2.840
40514W        W 7297  42.423   4.639   3.649
40515W        W 7298  28.663  41.943  13.919
40516W        W 7299   0.676  17.167  10.830
40517W        W 7300  28.228  20.537  13.015
40518W        W 7301  44.347   0.488   2.948
40519W        W 7302  44.151  27.610   0.876
40520W        W 7303  11.798   3.955   2.825
40521W        W 7304   6.325  36.372  13.428
40522W        W 7305   2.428  16.869   4.123
40523W        W 7306   4.402  40.514   3.321
40524W        W 7307  44.518  38.316   0.269
40525W        W 7308  14.123   6.913   2.865
40526W        W 7309  13.316  14.152  11.543
40527W        W 7310  34.055  44.980  14.400
40528W        W 7311  33.454  41.632  11.489
40529W        W 7312  28.941  41.825   4.689
40530W        W 7313  14.591  43.773  13.866
40531W        W 7314  14.586  22.332  11.230
40532W        W 7315  16.661  29.521  12.587
40533W        W 7316  19.668  30.569   0.935
40534W        W 7317  21.576  38.670   3.593
40535W        W 7318  43.601   4.756   1.799
40536W        W 7319  35.267   4.440  12.824
40537W        W 7320   0.122  16.362  11.697
40538W        W 7321   0.827   4.202   3.354
40539W        W 7322   0.179  31.123   0.088
40540W        W 7323   2.318  18.627  10.736
40541W        W 7324  36.774   7.347  13.942
40542W        W 7325   4.667   0.740   4.120
40543W        W 7326  15.395  20.528   3.618
40544W        W 7327  24.535  22.448   1.464
40545W        W 7328  24.952  12.632  13.447
40546W        W 7329   6.844   5.218   3.131
40547W        W 7330  11.227   8.144  14.342
40548W        W 7331  21.029  15.705  13.870
40549W        W 7332   9.546  41.850   0.744
40550W        W 7333  30.144  35.241   1.984
40551W        W 7334   7.574  31.989   2.844
40552W        W 7335  21.683  37.037   1.304
40553W        W 7336  38.261  22.349  12.030
40554W        W 7337  30.798  27.402   2.891
40555W        W 7338  19.234  41.412  12.437
40556W        W 7339  33.060  29.761   3.743
40557W        W 7340  33.469  25.683   2.229
40558W        W 7341  17.207   4.295   2.399
40559W        W 7342  11.838  20.207  10.288
40560W        W 7343  25.926  37.467  10.665
40561W        W 7344   8.476  41.941  13.003
40562W        W 7345  20.500  42.709  11.237
40563W        W 7346  21.963  10.174  10.484
40564W        W 7347   9.785  25.252   2.165
40565W        W 7348  38.990  32.671   0.668
40566W        W 7349  15.374  13.219   3.169
40567W        W 7350  43.368  17.947  12.607
40568W        W 7351   2.449   4.709   0.770
40569W        W 7352  22.123  43.596  12.453
40570W        W 7353  40.897  29.463   3.652
40571W        W 7354  42.906   3.703  12.194
40572W        W 7355  40.003  35.887   3.158
40573W        W 7356  11.454  15.106   3.628
40574W        W 7357  12.113  21.679   3.635
40575W        W 7358  22.220   3.942   0.757
40576W        W 7359  37.334  32.322  14.902
40577W        W 7360  16.131  21.051  12.509
40578W        W 7361  24.164  30.620  12.202
40579W        W 7362   6.779  36.799   4.977
40580W        W 7363  22.565  12.841   2.709
40581W        W 7364  25.854  38.549   2.286
40582W        W 7365  39.556  39.985   4.151
40583W        W 7366  10.359  36.645   4.011
40584W        W 7367  42.236  33.226   4.224
40585W        W 7368  21.085   6.463   2.162
40586W        W 7369  37.872   5.904  12.040
40587W        W 7370  27.085  35.776  11.939
40588W        W 7371  18.997  22.360  14.319
40589W        W 7372   6.138  20.314  10.819
40590W        W 7373   2.479   3.321  11.108
40591W        W 7374  24.744  40.972   1.283
40592W        W 7375   9.818  30.540  10.645
40593W        W 7376  18.769  29.219   2.355
40594W        W 7377   8.606  35.446   0.911
40595W        W 7378  11.360  19.307   4.589
40596W        W 7379  33.074   0.409   1.809
40597W        W 7380   8.952  25.953   0.405
40598W        W 7381   1.370  11.886  11.414
40599W        W 7382  15.089  15.356  12.010
40600W        W 7383  18.382  33.430  12.095
40601W        W 7384  39.703  22.126   0.208
40602W        W 7385   7.664   5.076   0.690
40603W        W 7386  41.784   9.223  13.398
40604W        W 7387  16.792  21.790   1.445
40605W        W 7388   9.854  17.584  10.935
40606W        W 7389   6.264  16.492   3.805
40607W        W 7390  10.349  17.268  11.094
40608W        W 7391  23.997  23.015  14.319
40609W        W 7392   1.749  27.748   0.898
40610W        W 7393  43.808  26.230  13.480
40611W        W 7394  11.584  40.096  14.333
40612W        W 7395  13.570  23.775   0.990
40613W        W 7396  26.944  36.869   0.066
40614W        W 7397  37.200  36.682   2.387
40615W        W 7398  19.629  30.243   0.529
40616W        W 7399  35.993  22.492   2.913
40617W        W 7400  25.120  40.321  14.869
40618W        W 7401  30.874   1.312  12.918
40619W        W 7402  41.301  23.488  14.952
40620W        W 7403  25.956  17.093   4.003
40621W        W 7404  24.688  20.200  12.338
40622W        W 7405  17.284  43.272  11.564
40623W        W 7406  35.469  42.184  13.723
40624W        W 7407  41.470  16.039  12.784
40625W        W 7408   2.794  36.642  12.017
40626W        W 7409  41.601  41.507   0.441
40627W        W 7410  31.590   7.927  14.581
40628W        W 7411  32.642  15.794  11.948
40629W        W 7412   9.709  42.402   0.918
40630W        W 7413   6.186   1.421   2.312
40631W        W 7414  14.325  36.382  11.366
40632W        W 7415  23.076  44.430   0.172
40633W        W 7416  29.130  32.904   0.953
40634W        W 7417   3.516  41.114   3.695
40635W        W 7418  28.978  43.981  13.773
40636W        W 7419   5.807   2.920  13.431
40637W        W 7420  39.012  37.372   2.624
40638W        W 7421   0.561  30.923   2.662
40639W        W 7422  30.624   0.500  11.133
40640W        W 7423  40.208  33.035   0.011
40641W        W 7424   9.242  37.042  10.652
40642W        W 7425  13.725  39.221   4.187
40643W        W 7426  39.842   5.607   3.959
40644W        W 7427  11.818  25.602   2.835
40645W        W 7428   3.838  36.339   0.438
40646W        W 7429   5.200  41.068   1.437
40647W        W 7430   1.271   0.637   3.334
40648W        W 7431   3.411  26.642  12.147
40649W        W 7432  20.523  32.258   2.213
40650W        W 7433  20.887  35.660   0.830
40651W        W 7434  42.431  33.516  11.943
40652W        W 7435   8.920   7.316   0.434
40653W        W 7436  41.273  20.807  11.184
40654W        W 7437   4.665  34.472  13.548
40655W        W 7438   5.723  33.919  10.469
40656W        W 7439  38.067  33.582   4.420
40657W        W 7440   2.144  11.380   0.779
40658W        W 7441  14.081  30.164   4.692
40659W        W 7442  33.998  10.616  14.960
40660W        W 7443   4.911  14.885  10.809
40661W        W 7444  15.291  44.764  13.908
40662W        W 7445  40.560  23.155   3.128
40663W        W 7446  36.468  23.005   3.159
40664W        W 7447   1.310  29.515   0.010
40665W        W 7448   0.882  36.377   0.231
40666W        W 7449  20.797  13.903   4.608
40667W        W 7450  40.825  25.472   4.223
40668W        W 7451  37.530  17.090   2.305
40669W        W 7452  34.950   1.214   0.846
40670W        W 7453  13.363   1.497   0.336
40671W        W 7454  21.081  44.376  10.708
40672W        W 7455  21.749  10.195  13.439
40673W        W 7456  28.496  19.809   2.208
40674W        W 7457   7.201  17.057  14.697
40675W        W 7458  28.725  11.743   1.429
40676W        W 7459  42.355  38.101  14.920
40677W        W 7460  30.739  35.774   0.759
40678W        W 7461  17.308  41.858  10.575
40679W        W 7462  36.586  12.306   2.441
40680W        W 7463  22.607  15.834   2.334
40681W        W 7464  13.205   0.264  13.609
40682W        W 7465   6.752  31.053   4.509
40683W        W 7466  25.986  12.369   2.142
40684W        W 7467  41.428  42.773  13.407
40685W        W 7468  23.580   6.933  11.575
40686W        W 7469  21.671  26.682  10.742
40687W        W 7470   0.837  39.886   3.720
40688W        W 7471   3.895   0.355   1.425
40689W        W 7472   4.615  30.537  12.425
40690W        W 7473  37.835  31.651   0.422
40691W        W 7474   2.486  26.226   3.444
40692W        W 7475  25.032  24.152  13.929
40693W        W 7476   6.931   2.422  14.882
40694W        W 7477  29.961  28.573  13.534
40695W        W 7478  38.061  13.039   0.039
40696W        W 7479  42.420  42.808   0.620
40697W        W 7480   1.648   9.178   5.460
40698W        W 7481  37.425   3.739   0.221
40699W        W 7482   1.913  16.437  10.631
40700W        W 7483  22.971  24.895  10.761
40701W        W 7484  18.253  34.806   3.590
40702W        W 7485  20.088  32.933  12.590
40703W        W 7486  25.102   2.638  14.446
40704W        W 7487   2.507   5.331   0.238
40705W        W 7488   6.272   5.506  13.426
40706W        W 7489   5.888  21.940  12.294
40707W        W 7490  11.707   0.163  11.570
40708W        W 7491  35.111   1.209   4.128
40709W        W 7492  29.727  34.494  13.284
40710W        W 7493  34.040   7.922  12.424
40711W        W 7494   0.507   2.363  13.041
40712W        W 7495  19.150  26.660   2.280
40713W        W 7496  17.805  35.807  14.703
40714W        W 7497  26.724  19.072  11.590
40715W        W 7498  33.883  14.487  12.173
40716W        W 7499  30.993  39.375  12.656
40717W        W 7500  25.132   7.382  13.975
40718W        W 7501  25.196  37.894  11.669
40719W        W 7502  29.553  40.572  14.041
40720W        W 7503  28.482  28.772  12.474
40721W        W 7504  24.189  28.647  10.252
40722W        W 7505  15.064  44.236   4.074
40723W        W 7506  29.253   0.525   2.744
40724W        W 7507   8.627  42.976   0.393
40725W        W 7508   3.708  26.569   4.679
40726W        W 7509  22.729  14.202  11.513
40727W        W 7510  25.194   1.891   3.250
40728W        W 7511  27.667   1.675  10.732
40729W        W 7512  27.111  30.894  11.063
40730W        W 7513  31.137  35.633  12.864
40731W        W 7514  39.281  11.678  12.145
40732W        W 7515  22.110  40.066   4.507
40733W        W 7516  38.625  14.037   2.156
40734W        W 7517  19.765  39.937   1.052
40735W        W 7518  38.424  32.511   3.099
40736W        W 7519   9.911  12.815   2.320
40737W        W 7520   3.913  29.714   3.226
40738W        W 7521   7.318  23.720   0.667
40739W        W 7522  12.432  19.749  14.311
40740W        W 7523   6.824  24.268  14.230
40741W        W 7524  23.683  29.993  13.937
40742W        W 7525   3.981  15.758  13.135
40743W        W 7526   7.326  44.908   0.505
40744W        W 7527   4.710  18.745  12.879
40745W        W 7528   2.253  17.831   4.237
40746W        W 7529   6.910  42.778  14.846
40747W        W 7530  21.655  24.470   4.109
40748W        W 7531  33.085  11.850   1.292
40749W        W 7532   6.596  12.712   0.746
40750W        W 7533  25.449  30.015  12.524
40751W        W 7534  24.735   5.854   4.703
40752W        W 7535  39.134  13.978   1.997
40753W        W 7536  16.159  13.263   1.762
40754W        W 7537  22.770   3.181   1.407
40755W        W 7538  17.732  21.976  14.981
40756W        W 7539  36.746  41.932   0.226
40757W        W 7540  15.832  30.457   0.374
40758W        W 7541  41.575  35.353   2.654
40759W        W 7542  28.006  20.010   2.164
40760W        W 7543   3.952   2.234   1.454
40761W        W 7544  20.183  24.985  12.455
40762W        W 7545  20.751   2.339   5.342
40763W        W 7546  18.816  19.195   3.715
40764W        W 7547  35.254  38.086  13.590
40765W        W 7548   1.308  40.214  11.521
40766W        W 7549  44.224  41.098   1.353
40767W        W 7550  37.905  37.132   1.065
40768W        W 7551  23.632  20.728   3.621
40769W        W 7552  42.868  39.502   1.681
40770W        W 7553  24.422   4.001  12.179
40771W        W 7554  13.440  32.306   2.205
40772W        W 7555  30.590   8.455   1.876
40773W        W 7556  29.724  26.663  14.806
40774W        W 7557  27.613  44.397   0.226
40775W        W 7558  19.425  27.203   3.357
40776W        W 7559  17.296   0.787   4.246
40777W        W 7560   0.158  34.005   1.208
40778W        W 7561  38.940  41.842   3.259
40779W        W 7562  41.856  32.096  14.977
40780W        W 7563  22.215  29.766  10.915
40781W        W 7564   4.925   1.652   4.584
40782W        W 7565  15.622  37.526   1.206
40783W        W 7566  35.941   7.881  11.394
40784W        W 7567  27.406  13.550  12.545
40785W        W 7568  13.502  40.855   1.434
40786W        W 7569  13.628  27.751  14.290
40787W        W 7570  37.340  37.523   0.942
40788W        W 7571  13.440  14.286   0.380
40789W        W 7572  24.645  39.981   1.125
40790W        W 7573  32.874  20.448   3.989
40791W        W 7574  20.355  30.567   3.681
40792W        W 7575  42.449  15.058   0.419
40793W        W 7576  42.915  37.310   0.516
40794W        W 7577   9.361  41.759   1.224
40795W        W 7578  39.677  14.139  14.942
40796W        W 7579  34.897  42.901  10.925
40797W        W 7580  15.605  11.187   3.327
40798W        W 7581  19.282  30.473  10.820
40799W        W 7582  34.421  17.081   4.960
40800W        W 7583  20.201   8.692  13.809
40801W        W 7584  44.484  40.387   1.754
40802W        W 7585  33.307  25.810  11.711
40803W        W 7586   5.359  20.537   4.867
40804W        W 7587  13.753  17.717   3.064
40805W        W 7588  24.010   8.195  13.388
40806W        W 7589  36.752  30.893   0.245
40807W        W 7590  27.919  17.257  11.684
40808W        W 7591  37.553   0.552   2.529
40809W        W 7592  14.568  44.239  13.580
40810W        W 7593  24.509  27.532   0.931
40811W        W 7594  44.970  26.968  14.456
40812W        W 7595  33.667  20.392  13.794
40813W        W 7596  27.128   6.030   3.081
40814W        W 7597  20.971  29.402  11.186
40815W        W 7598  39.664  33.146   1.429
40816W        W 7599  42.609  15.338  12.879
40817W        W 7600  14.071   6.185   0.323
40818W        W 7601  25.191  12.577  14.777
40819W        W 7602   3.407  35.960   4.523
40820W        W 7603   1.454  12.836  12.939
40821W        W 7604  16.775   4.668  13.873
40822W        W 7605  15.814   0.735   0.940
40823W        W 7606  44.734   3.181   1.830
40824W        W 7607  28.984  17.338  13.519
40825W        W 7608  27.404  42.110  13.788
40826W        W 7609  43.831  23.157  13.006
40827W        W 7610   3.811  19.669  14.997
40828W        W 7611  44.873  38.301   2.414
40829W        W 7612  39.324  10.287  12.662
40830W        W 7613  21.653   6.700  13.387
40831W        W 7614  42.431  36.839   4.201
40832W        W 7615   4.812  41.743  11.356
40833W        W 7616  41.809   3.782   3.291
40834W        W 7617  15.222   7.356  10.848
40835W        W 7618  21.750  31.497  14.373
40836W        W 7619   4.382  17.062  10.476
40837W        W 7620  13.744  21.783   2.058
40838W        W 7621   1.871  35.471  12.494
40839W        W 7622  15.645   6.429   2.856
40840W        W 7623   8.744  44.586  13.954
40841W        W 7624  22.611   4.742   3.128
40842W        W 7625  39.332  13.806   5.002
40843W        W 7626   8.318  29.746  11.895
40844W        W 7627  23.545   7.967   4.183
40845W        W 7628  30.172   5.518  11.538
40846W        W 7629  10.110  22.961  11.129
40847W        W 7630  35.148  32.187   3.175
40848W        W 7631   0.679  19.596  12.362
40849W        W 7632  12.085  33.192  12.982
40850W        W 7633  28.477  18.628  13.309
40851W        W 7634  14.867   8.258  10.396
40852W        W 7635  36.132  25.667   4.311
40853W        W 7636  19.137  26.331   4.111
40854W        W 7637  20.133  32.092   0.277
40855W        W 7638  24.779   1.875   3.594
40856W        W 7639  15.866  20.200   5.123
40857W        W 7640  40.422  29.399  10.709
40858W        W 7641  13.581  44.318   4.081
40859W        W 7642   4.177  19.823   1.290
40860W        W 7643   4.491  12.109   3.633
40861W        W 7644  38.814  41.307  12.079
40862W        W 7645  23.993  26.978  13.074
40863W        W 7646  29.189  33.366  12.434
40864W        W 7647  32.010  38.906   3.337
40865W        W 7648  16.624  10.097  12.410
40866W        W 7649   4.990  32.497   0.392
40867W        W 7650  21.166  39.883   4.598
40868W        W 7651  25.425  33.923   0.583
40869W        W 7652  41.369  41.392   4.888
40870W        W 7653  11.315  27.931   1.937
40871W        W 7654  22.704  30.308   3.639
40872W        W 7655   6.378  11.794   0.019
40873W        W 7656  18.745  40.130  12.872
40874W        W 7657  41.437  10.182   2.647
40875W        W 7658  30.658  29.657  13.884
40876W        W 7659   5.339  31.664  14.944
40877W        W 7660  26.271  28.215   0.080
40878W        W 7661  11.654  34.138  10.668
40879W        W 7662   6.452  36.371   3.604
40880W        W 7663   6.559  28.326  10.959
40881W        W 7664  17.520  30.913   4.512
40882W        W 7665   9.457  37.214  13.415
40883W        W 7666   2.036  17.085  13.521
40884W        W 7667  31.954  32.842  13.307
40885W        W 7668  38.196  38.318   1.439
40886W        W 7669   8.678   9.519  11.135
40887W        W 7670  28.386   7.463   9.779
40888W        W 7671  38.762  41.334   2.707
40889W        W 7672  28.535   0.078   1.789
40890W        W 7673  28.797   8.207   3.262
40891W        W 7674  34.832  11.242   0.205
40892W        W 7675  26.038  16.699  14.396
40893W        W 7676  30.073  39.072  10.865
40894W        W 7677  10.058   3.969   1.851
40895W        W 7678  11.599  14.732   3.276
40896W        W 7679  24.917  16.905  11.194
40897W        W 7680  43.375  35.528  11.541
40898W        W 7681  36.380  25.772  10.820
40899W        W 7682  38.860  20.221  14.997
40900W        W 7683  20.525  44.395   4.133
40901W        W 7684   0.449  26.965   1.640
40902W        W 7685   9.853  19.982   3.080
40903W        W 7686  32.841  28.289   4.225
40904W        W 7687  43.021   4.790  11.084
40905W        W 7688  15.365  31.195   2.209
40906W        W 7689  34.465  38.048   4.081
40907W        W 7690  26.524  18.738   1.394
40908W        W 7691   3.412  31.872   4.295
40909W        W 7692  39.333   5.064   2.728
40910W        W 7693   3.176  39.037  11.150
40911W        W 7694  23.392  35.434  13.152
40912W        W 7695  38.527   3.684  13.634
40913W        W 7696  43.790   2.797  13.016
40914W        W 7697  16.616   1.705  10.692
40915W        W 7698  31.948  25.542   0.075
40916W        W 7699  44.927   4.854  12.383
40917W        W 7700  17.583  29.091   0.169
40918W        W 7701  24.133  26.647  12.664
40919W        W 7702  34.689  22.071   4.629
40920W        W 7703  12.675  38.043  11.634
40921W        W 7704   2.250  24.572  11.239
40922W        W 7705  43.188  39.070   3.715
40923W        W 7706  39.931  42.525   3.639
40924W        W 7707  27.548  26.407  10.190
40925W        W 7708   3.432  10.173  12.810
40926W        W 7709  23.064  16.838   1.409
40927W        W 7710  28.043  11.424   3.486
40928W        W 7711  42.948  27.838  10.712
40929W        W 7712  17.195  31.200   3.254
40930W        W 7713  35.867   1.834   4.924
40931W        W 7714  12.589  20.624   4.156
40932W        W 7715   8.015   2.875   3.318
40933W        W 7716  24.261  37.452   0.536
40934W        W 7717   2.397   4.276   2.257
40935W        W 7718  35.891   9.323  12.474
40936W        W 7719   3.461  22.552   1.202
40937W        W 7720   0.821  25.205   2.304
40938W        W 7721  44.744  41.913  11.241
40939W        W 7722  10.450  24.524  13.006
40940W        W 7723  21.085  41.718   0.333
40941W        W 7724  12.815  30.620   2.385
40942W        W 7725   9.430   0.453  13.914
40943W        W 7726  26.842  18.346   1.251
40944W        W 7727  37.417   3.658   2.374
40945W        W 7728  36.087   4.295   3.888
40946W        W 7729  41.408  41.524   4.383
40947W        W 7730   4.267  33.440  12.859
40948W        W 7731  20.097   4.433  13.907
40949W        W 7732  11.051  11.294   5.216
40950W        W 7733  34.034  37.865   1.383
40951W        W 7734  27.415  33.958  11.825
40952W        W 7735  41.079  17.776   4.585
40953W        W 7736  22.025  24.079  12.849
40954W        W 7737  28.028  12.183  11.626
40955W        W 7738  14.076  34.828  12.930
40956W        W 7739   4.924   4.752  13.628
40957W        W 7740  18.137  24.949   1.160
40958W        W 7741  11.077   1.270  11.271
40959W        W 7742   4.960   0.342   0.491
40960W        W 7743  20.365   3.713  13.449
40961W        W 7744  39.879  20.845   3.208
40962W        W 7745   7.846   3.495   2.175
40963W        W 7746  40.376   1.742   4.561
40964W        W 7747   7.149  31.077   2.666
40965W        W 7748  16.574  43.335   4.775
40966W        W 7749  17.689  43.199   4.062
40967W        W 7750  27.523  25.976  11.212
40968W        W 7751  28.031  23.516   3.616
40969W        W 7752  15.223  22.734  12.857
40970W        W 7753  30.477  17.123   3.806
40971W        W 7754  10.260  35.643  13.986
40972W        W 7755  23.123  42.947  11.965
40973W        W 7756   9.546  27.217   4.671
40974W        W 7757  41.193  29.079  12.956
40975W        W 7758   1.305  14.020   0.667
40976W        W 7759  11.312   7.805   3.138
40977W        W 7760  15.359  31.584   4.742
40978W        W 7761  32.817   5.913  10.356
40979W        W 7762  36.996  23.779   4.533
40980W        W 7763  39.787   4.386  12.854
40981W        W 7764  18.358  26.161  13.101
40982W        W 7765  37.381  15.862  10.538
40983W        W 7766  14.718  38.299   4.619
40984W        W 7767   4.282  33.319  11.081
40985W        W 7768  37.044  18.596   2.822
40986W        W 7769  23.476  11.201  12.046
40987W        W 7770  18.634  43.973   4.524
40988W        W 7771  22.652   6.710  11.583
40989W        W 7772  44.328  40.108  13.844
40990W        W 7773  28.843  43.269   4.214
40991W        W 7774  22.610   0.640   4.138
40992W        W 7775  34.259   3.907   5.004
40993W        W 7776   2.227  11.144   0.285
40994W        W 7777   6.387  42.063   3.570
40995W        W 7778  44.290  15.172   1.849
40996W        W 7779  27.447   7.746   4.020
40997W        W 7780  17.729  40.258   1.634
40998W        W 7781  19.103   3.290  14.015
40999W        W 7782  30.813   1.137   2.688
41000W        W 7783  31.527  29.853   2.360
41001W        W 7784  17.277  32.352  13.015
41002W        W 7785  34.290  31.906   4.279
41003W        W 7786  12.662  41.431   1.896
41004W        W 7787  33.117  11.686   0.023
41005W        W 7788  39.921   7.098   3.126
41006W        W 7789  21.216   5.393  14.884
41007W        W 7790  40.330  19.490  14.959
41008W        W 7791  25.236  12.862  13.803
41009W        W 7792   0.043  42.668   0.979
41010W        W 7793  13.543  16.044   1.303
41011W        W 7794  15.675   6.318  13.373
41012W        W 7795  26.949  20.200  11.957
41013W        W 7796   1.004  39.985   4.302
41014W        W 7797  20.778  39.572   3.786
41015W        W 7798  31.345  31.663   1.827
41016W        W 7799   3.777  14.243   0.979
41017W        W 7800  33.785  40.735  14.834
41018W        W 7801  16.701  35.628  12.847
41019W        W 7802  21.537  13.657   2.290
41020W        W 7803  22.600  20.633   1.930
41021W        W 7804  21.030   6.211  12.338
41022W        W 7805  17.176  41.935   3.364
41023W        W 7806  30.594  10.062  13.053
41024W        W 7807  30.874  39.599  13.581
41025W        W 7808  42.285  19.485   2.637
41026W        W 7809  30.154  12.837   2.733
41027W        W 7810   3.123  35.655   4.016
41028W        W 7811   9.269  39.638  12.906
41029W        W 7812  44.347   3.396   4.542
41030W        W 7813  33.740  13.796   2.815
41031W        W 7814  32.497  16.768  13.425
41032W        W 7815  19.952  39.291   1.779
41033W        W 7816  35.621  40.397   1.351
41034W        W 7817  17.178   7.647  12.162
41035W        W 7818  19.636  10.703  11.801
41036W        W 7819  30.584  24.098  11.148
41037W        W 7820  16.367  42.236   4.755
41038W        W 7821  31.491  39.860   0.443
41039W        W 7822  32.115  22.795   1.504
41040W        W 7823  34.856   1.423  12.950
41041W        W 7824  21.348   7.483   0.556
41042W        W 7825  40.364  18.123  14.426
41043W        W 7826  11.145  43.910  14.862
41044W        W 7827  25.531   5.413  10.669
41045W        W 7828  26.513  12.921   2.741
41046W        W 7829   5.632  24.080  14.275
41047W        W 7830   4.748   0.295  12.269
41048W        W 7831  32.795  13.206  13.511
41049W        W 7832  44.754  44.928   1.125
41050W        W 7833  20.171  32.947  10.692
41051W        W 7834   6.399  41.400   0.907
41052W        W 7835  39.119  36.534   2.374
41053W        W 7836  33.011  37.221   4.599
41054W        W 7837  27.373  26.144   2.243
41055W        W 7838  36.418  37.097  14.760
41056W        W 7839  13.153  32.519   0.049
41057W        W 7840   4.013  19.057   2.824
41058W        W 7841  28.189  19.038   2.192
41059W        W 7842  44.494   2.557  13.606
41060W        W 7843   6.538  44.089   3.743
41061W        W 7844  32.351  31.075   4.214
41062W        W 7845   5.063  33.144   5.127
41063W        W 7846  28.566  35.781   1.295
41064W        W 7847  29.350  15.180   1.338
41065W        W 7848  10.869  12.352  12.996
41066W        W 7849   1.792  24.977  12.949
41067W        W 7850   3.849   7.849   3.320
41068W        W 7851  34.794  15.524  13.293
41069W        W 7852  37.047   9.743   4.138
41070W        W 7853   7.932   9.622  12.351
41071W        W 7854  21.268  15.021  13.333
41072W        W 7855  17.970  36.017   2.375
41073W        W 7856  34.573  27.926   1.262
41074W        W 7857  25.199  34.825  11.136
41075W        W 7858  37.879  36.352  10.583
41076W        W 7859   8.652   0.746   2.100
41077W        W 7860  17.744  19.050  12.827
41078W        W 7861   0.892  38.778   3.815
41079W        W 7862   9.549  15.692  11.173
41080W        W 7863  42.002  42.467  11.659
41081W        W 7864  34.557  10.010   5.242
41082W        W 7865  14.778  22.750  13.410
41083W        W 7866  34.685  16.183   4.575
41084W        W 7867  31.867  44.925   4.712
41085W        W 7868  44.591  25.422   3.691
41086W        W 7869  29.497   5.432  10.770
41087W        W 7870  14.080   3.554   0.117
41088W        W 7871  29.729  42.700   3.729
41089W        W 7872  12.640   6.854  14.781
41090W        W 7873  23.310  17.765  12.980
41091W        W 7874  17.068  37.277  13.436
41092W        W 7875  42.589  40.643   1.805
41093W        W 7876  14.720  40.843  13.911
41094W        W 7877   9.721  39.082  10.512
41095W        W 7878  12.693  40.961  13.892
41096W        W 7879   2.947  13.339   0.602
41097W        W 7880  30.505  24.762   4.169
41098W        W 7881   9.203  23.927  14.381
41099W        W 7882  40.695  32.571  10.719
41100W        W 7883   3.772   8.385  11.989
41101W        W 7884   1.881   5.713   0.838
41102W        W 7885  37.017   8.973   1.324
41103W        W 7886  32.322  28.461   0.940
41104W        W 7887  41.066  35.602  11.587
41105W        W 7888  18.815  27.457  14.071
41106W        W 7889  40.560  15.840  11.780
41107W        W 7890  18.594  36.146   1.264
41108W        W 7891   8.046  30.533  14.988
41109W        W 7892  32.877  44.469   4.099
41110W        W 7893  20.814  26.982   5.105
41111W        W 7894  11.672  18.268   0.765
41112W        W 7895  18.731  24.437  13.523
41113W        W 7896   9.111   3.896  12.528
41114W        W 7897  10.423  27.656   0.194
41115W        W 7898  33.604  24.939  13.900
41116W        W 7899  39.593  34.148  13.086
41117W        W 7900   0.967  43.386  11.472
41118W        W 7901  24.981   3.864   0.751
41119W        W 7902  39.891  14.828   2.266
41120W        W 7903  28.206   3.030  12.561
41121W        W 7904  28.270   6.745   0.355
41122W        W 7905  33.542  39.257  13.405
41123W        W 7906  17.625  14.734   0.379
41124W        W 7907  32.884   4.019   1.280
41125W        W 7908  24.954  21.319   3.209
41126W        W 7909  17.048  33.120  14.514
41127W        W 7910   6.460  22.588  11.649
41128W        W 7911  32.429  35.283   0.289
41129W        W 7912  30.015  22.273  11.852
41130W        W 7913  15.182  31.392   3.070
41131W        W 7914  24.502  21.107  11.882
41132W        W 7915  15.794  20.014   1.489
41133W        W 7916  10.334  35.089  14.883
41134W        W 7917   0.449  32.981  11.705
41135W        W 7918  41.976  23.126  13.542
41136W        W 7919   7.948  33.129  13.572
41137W        W 7920  38.026  15.190  10.786
41138W        W 7921   3.016  37.444   4.886
41139W        W 7922  10.126  39.357  13.446
41140W        W 7923   3.274   9.393  11.477
41141W        W 7924  23.710  15.828  11.139
41142W        W 7925  19.499  19.140  11.172
41143W        W 7926  37.041  15.820   4.912
41144W        W 7927  38.789  42.611   4.979
41145W        W 7928  13.064  35.033   4.706
41146W        W 7929   0.196  32.403  13.432
41147W        W 7930  39.613  26.558  14.929
41148W        W 7931  33.158   8.020  13.096
41149W        W 7932   1.209  16.181  12.216
41150W        W 7933  31.034  44.539  12.457
41151W        W 7934   5.973  15.728  13.094
41152W        W 7935  33.720  42.618   2.423
41153W        W 7936  38.041  21.773   2.843
41154W        W 7937   5.802   3.313   3.310
41155W        W 7938  28.734   1.716  13.654
41156W        W 7939   1.973  20.490  14.286
41157W        W 7940  29.500  24.457   1.455
41158W        W 7941  13.388   8.234   1.404
41159W        W 7942  37.098   6.230  13.563
41160W        W 7943  21.578  12.107   0.800
41161W        W 7944  12.781  18.564  13.912
41162W        W 7945  36.519   6.972   2.742
41163W        W 7946  16.137  39.411  14.490
41164W        W 7947   7.901  35.342  12.024
41165W        W 7948   3.390  43.291  12.012
41166W        W 7949   0.201   8.259   3.185
41167W        W 7950  37.380  30.514   3.778
41168W        W 7951   8.654   8.220  14.337
41169W        W 7952  28.566  20.622  11.670
41170W        W 7953   1.059  28.569  10.548
41171W        W 7954   1.343  41.950   3.924
41172W        W 7955  39.502  15.680  14.821
41173W        W 7956  40.045  44.959   4.323
41174W        W 7957  36.931   3.727  11.939
41175W        W 7958  22.118  24.290  14.934
41176W        W 7959  22.242  10.625  12.921
41177W        W 7960   1.777   5.935   1.747
41178W        W 7961   6.054   4.970  10.975
41179W        W 7962   3.285   4.032  14.384
41180W        W 7963  43.792  40.942  14.021
41181W        W 7964  25.667  13.409  14.872
41182W        W 7965   3.760  23.458   3.739
41183W        W 7966  13.072  37.984  12.457
41184W        W 7967  17.222  28.569  10.437
41185W        W 7968  33.907  40.724   4.138
41186W        W 7969  23.592  19.938   2.272
41187W        W 7970   5.768  16.761   4.270
41188W        W 7971   0.527   8.887  10.185
41189W        W 7972  42.020   7.875   3.511
41190W        W 7973   1.172  18.255   3.724
41191W        W 7974  17.751  31.353  12.026
41192W        W 7975   4.822  22.595  10.586
41193W        W 7976  30.758   7.584   0.834
41194W        W 7977   8.662  26.553  13.229
41195W        W 7978  30.888  39.105  10.499
41196W        W 7979  43.453  32.725  11.742
41197W        W 7980  18.769  12.410   3.742
41198W        W 7981  12.178  19.770   4.148
41199W        W 7982  18.298  42.759   2.193
41200W        W 7983  37.915   8.395  13.345
41201W        W 7984  13.488  43.805   4.180
41202W        W 7985  11.044   7.309   4.230
41203W        W 7986   1.833   3.039   2.243
41204W        W 7987   0.818  21.459  14.728
41205W        W 7988   8.305  16.279  13.447
41206W        W 7989  14.377  34.887   0.696
41207W        W 7990  44.813   0.214  11.049
41208W        W 7991  26.647   0.373   3.398
41209W        W 7992  21.209  12.157   1.845
41210W        W 7993  11.713  43.412  12.200
41211W        W 7994  22.681  42.511  14.856
41212W        W 7995  37.422  18.064   1.145
41213W        W 7996  21.281  25.511  13.043
41214W        W 7997   1.967  22.765   3.227
41215W        W 7998   0.542  15.633  14.486
41216W        W 7999  40.025  39.821   1.245
41217W        W 8000   9.111  44.001   2.265
41218W        W 8001  23.064  43.747   0.890
41219W        W 8002  33.704  17.689   1.359
41220W        W 8003  42.010   8.663  13.005
41221W        W 8004   7.196  37.186   2.158
41222W        W 8005  33.848  11.824   0.829
41223W        W 8006  19.043   3.191   4.737
41224W        W 8007  32.247  14.749   5.120
41225W        W 8008  12.109   4.416   0.184
41226W        W 8009   9.949  22.071  14.738
41227W        W 8010  18.010  16.203   2.427
41228W        W 8011  30.576  33.572   3.861
41229W        W 8012  13.944  12.849  11.066
41230W        W 8013  33.520  33.959   2.777
41231W        W 8014   2.797  41.924  13.941
41232W        W 8015  16.666  44.987  11.742
41233W        W 8016  28.009  13.785  14.314
41234W        W 8017  17.387   5.270  14.492
41235W        W 8018  38.291  23.052   2.693
41236W        W 8019  32.835   6.787   9.791
41237W        W 8020   5.675  23.248   4.641
41238W        W 8021  34.434   0.397  11.728
41239W        W 8022  25.998  10.953  12.558
41240W        W 8023   6.481  17.323   3.752
41241W        W 8024  16.950   0.435  13.479
41242W        W 8025  38.078   7.818  11.543
41243W        W 8026   8.967  11.700   2.729
41244W        W 8027  29.802  32.908   3.567
41245W        W 8028  26.082  42.169   2.896
41246W        W 8029   0.529  19.830  14.477
41247W        W 8030  39.882  21.920  12.423
41248W        W 8031  16.740  11.712   4.617
41249W        W 8032   4.759  10.615   1.504
41250W        W 8033  44.234  27.873  13.990
41251W        W 8034  41.077  19.281   1.732
41252W        W 8035  24.407  42.948   1.938
41253W        W 8036   8.818  44.237   3.140
41254W        W 8037  36.643  16.253  13.280
41255W        W 8038  14.687   3.968   2.207
41256W        W 8039  39.890   8.554  11.861
41257W        W 8040  36.814  20.439  10.523
41258W        W 8041  43.319  43.232  13.036
41259W        W 8042  14.773  35.223   9.840
41260W        W 8043  42.856   5.638   2.400
41261W        W 8044  38.472  14.309  12.022
41262W        W 8045  25.736   6.723  13.000
41263W        W 8046   6.370  42.458   2.210
41264W        W 8047  22.200  28.086   0.127
41265W        W 8048  22.119  22.465   0.246
41266W        W 8049  16.728  33.031   3.414
41267W        W 8050  13.193  33.098   2.874
41268W        W 8051  23.744   1.700   3.641
41269W        W 8052  28.496  10.673   2.605
41270W        W 8053  20.485  37.332  12.101
41271W        W 8054   9.892   8.802   3.722
41272W        W 8055  19.728   0.156  13.123
41273W        W 8056  15.337  18.628   0.227
41274W        W 8057  26.374  32.135   2.191
41275W        W 8058  22.601  27.064   1.727
41276W        W 8059   6.692  31.800  14.133
41277W        W 8060  41.907  14.337  12.569
41278W        W 8061   7.349  13.701   4.337
41279W        W 8062  22.111  10.457  12.438
41280W        W 8063  43.190  22.661   3.659
41281W        W 8064  13.387  14.239  10.528
41282W        W 8065  38.280  42.866   0.349
41283W        W 8066   8.792  40.750   4.410
41284W        W 8067  21.112  31.197  11.497
41285W        W 8068  20.548  44.988  13.785
41286W        W 8069   8.670   3.856   0.641
41287W        W 8070  21.803  34.111  11.152
41288W        W 8071  23.749  44.448  13.828
41289W        W 8072  21.447  39.529   3.251
41290W        W 8073  44.445  30.939   4.568
41291W        W 8074  28.075  10.260   4.070
41292W        W 8075  41.081  37.810   3.199
41293W        W 8076  42.045  23.095  12.604
41294W        W 8077  32.968   7.636  13.413
41295W        W 8078  17.540  37.536  10.581
41296W        W 8079  21.478   9.419   1.270
41297W        W 8080   5.664  26.313  10.492
41298W        W 8081  35.942  22.627   1.203
41299W        W 8082   6.983  20.378   3.145
41300W        W 8083  27.427   7.397  12.589
41301W        W 8084  40.516  12.700   0.483
41302W        W 8085  26.523  39.456   2.787
41303W        W 8086   0.007  27.494   3.315
41304W        W 8087  32.156   6.384   2.453
41305W        W 8088  42.924   9.593  13.499
41306W        W 8089   3.242  19.582  12.437
41307W        W 8090  19.119   4.763   0.867
41308W        W 8091  21.469  13.741  12.958
41309W        W 8092  31.638  37.827   0.376
41310W        W 8093  11.814   0.839   2.766
41311W        W 8094   6.295   6.354  13.627
41312W        W 8095  28.745  27.050  12.605
41313W        W 8096  26.611  14.082  10.676
41314W        W 8097   2.349  16.599   0.269
41315W        W 8098   4.355  30.434  11.915
41316W        W 8099  29.507  20.124   3.302
41317W        W 8100  18.267  43.817  14.766
41318W        W 8101  39.468  35.534   2.166
41319W        W 8102   2.871  34.863   4.609
41320W        W 8103   1.969  37.366  11.386
41321W        W 8104   7.286  22.501  10.881
41322W        W 8105  44.742  10.258   2.098
41323W        W 8106  39.454  34.247   2.786
41324W        W 8107   7.678  44.267  10.567
41325W        W 8108  10.766  34.922  12.063
41326W        W 8109   2.638  42.767  14.998
41327W        W 8110  42.717  15.562   4.001
41328W        W 8111  15.604   9.280  12.889
41329W        W 8112  40.025   8.626   1.440
41330W        W 8113  37.106  42.054   1.170
41331W        W 8114  35.319  21.082   1.433
41332W        W 8115  29.615  32.012   0.224
41333W        W 8116  43.718  17.714   5.047
41334W        W 8117   0.440  21.262  13.505
41335W        W 8118  13.835  36.321  12.055
41336W        W 8119   2.362  42.403  14.716
41337W        W 8120  36.763  16.075   3.189
41338W        W 8121  27.197   9.431   1.791
41339W        W 8122  19.562  38.851  14.034
41340W        W 8123  11.117  16.505  12.840
41341W        W 8124  24.908  24.564   4.315
41342W        W 8125  37.538  42.381   3.463
41343W        W 8126  40.136  23.827   0.273
41344W        W 8127  36.931   6.632   2.807
41345W        W 8128  31.862   6.187  10.166
41346W        W 8129  10.834   6.189   9.646
41347W        W 8130  13.715   1.247  13.055
41348W        W 8131  43.650   3.798   3.029
41349W        W 8132  23.150  20.038   1.049
41350W        W 8133  15.158   0.693  13.879
41351W        W 8134   2.930  10.626   2.504
41352W        W 8135  12.910   8.016  14.338
41353W        W 8136   2.697  29.921  12.932
41354W        W 8137  25.981  43.933   0.005
41355W        W 8138   1.138   5.356   1.247
41356W        W 8139   4.400  32.007  14.844
41357W        W 8140  34.469  20.540   2.092
41358W        W 8141  12.045  25.494   0.011
41359W        W 8142  37.882  27.564   3.697
41360W        W 8143   5.398  24.798  15.000
41361W        W 8144  19.494  27.891  13.636
41362W        W 8145  29.357  10.624   3.583
41363W        W 8146  19.495  30.755   1.418
41364W        W 8147  19.968  21.730  10.989
41365W        W 8148  41.492   8.875   3.191
41366W        W 8149   7.422  22.488  12.332
41367W        W 8150  43.196  43.778   3.616
41368W        W 8151  34.669  39.064   0.038
41369W        W 8152  13.491  44.434  12.042
41370W        W 8153   8.844   1.256  10.741
41371W        W 8154   9.565  38.342   3.643
41372W        W 8155  14.899   2.338  12.414
41373W        W 8156  27.121  40.866   1.799
41374W        W 8157  37.888  16.642   1.161
41375W        W 8158  14.661  30.389  13.604
41376W        W 8159  18.632  22.270   4.004
41377W        W 8160  24.432  25.346   3.970
41378W        W 8161  35.890   8.037   5.467
41379W        W 8162  42.336  13.229   0.366
41380W        W 8163  11.691  19.697  11.983
41381W        W 8164  43.460   0.272   1.031
41382W        W 8165  35.731  22.618  13.052
41383W        W 8166  35.963  14.806  14.253
41384W        W 8167  28.078  44.527   1.336
41385W        W 8168  36.372  11.189  14.768
41386W        W 8169  11.354  18.659   3.331
41387W        W 8170  31.548  37.349   1.498
41388W        W 8171  33.828  13.396   1.314
41389W        W 8172  34.973  28.044  11.366
41390W        W 8173  28.449  43.782   2.658
41391W        W 8174  44.885  22.012  11.113
41392W        W 8175  27.037  30.628   0.296
41393W        W 8176  37.976  27.202  13.518
41394W        W 8177  14.896   0.377  11.043
41395W        W 8178  26.961  43.196   2.673
41396W        W 8179  29.019  33.664   2.148
41397W        W 8180  26.482  17.782   3.679
41398W        W 8181  29.432  32.050  10.939
41399W        W 8182  29.645  39.241  11.079
41400W        W 8183   2.395  32.464   0.043
41401W        W 8184   6.778  32.453  12.333
41402W        W 8185  43.625  20.796   3.649
41403W        W 8186   9.052  15.554  11.178
41404W        W 8187  41.315   9.408  13.520
41405W        W 8188  31.023  29.272  13.136
41406W        W 8189  33.591  15.387   4.605
41407W        W 8190   1.151  27.983   2.246
41408W        W 8191   3.409  19.188   0.314
41409W        W 8192   4.740   4.316   1.716
41410W        W 8193   5.901   4.559   4.678
41411W        W 8194   0.319   6.473   0.686
41412W        W 8195  40.802  32.077   4.279
41413W        W 8196  28.908  43.208  12.113
41414W        W 8197  26.161  26.287   5.028
41415W        W 8198  12.380  11.481  14.648
41416W        W 8199  22.393  33.900   2.220
41417W        W 8200   3.785  38.959   4.300
41418W        W 8201   2.177  25.627  14.405
41419W        W 8202  34.038   2.234  12.636
41420W        W 8203  41.552  39.093  14.023
41421W        W 8204  25.081   3.894  12.809
41422W        W 8205   5.419  17.055   2.817
41423W        W 8206   6.301   0.060  11.835
41424W        W 8207  20.779  43.047   2.322
41425W        W 8208  12.079  10.790   0.887
41426W        W 8209   2.440   7.687  10.952
41427W        W 8210   7.207   2.769  14.021
41428W        W 8211  22.509  17.266   3.194
41429W        W 8212  23.885  13.122  11.977
41430W        W 8213   3.582  11.356  12.219
41431W        W 8214  32.165  42.825   4.565
41432W        W 8215  16.306   7.804  12.160
41433W        W 8216  40.946  11.060  12.959
41434W        W 8217  37.608  24.932   0.359
41435W        W 8218  29.414  20.157   3.813
41436W        W 8219  37.663  26.907  11.104
41437W        W 8220  13.617  38.941  13.997
41438W        W 8221   2.266  19.574  13.309
41439W        W 8222  12.567   4.677   2.266
41440W        W 8223   3.889  18.278  14.877
41441W        W 8224  10.648  21.987   3.707
41442W        W 8225  11.402  11.718   3.694
41443W        W 8226  12.199   4.960  11.533
41444W        W 8227   7.729  20.347   2.628
41445W        W 8228  35.725  15.632  14.907
41446W        W 8229  30.695  25.002   1.427
41447W        W 8230  19.507  28.277  12.376
41448W        W 8231  44.620  15.176  14.465
41449W        W 8232  13.224  13.117   3.634
41450W        W 8233  30.463   6.412   0.860
41451W        W 8234  35.006  31.395  14.715
41452W        W 8235   3.974   2.673   2.787
41453W        W 8236  32.156  34.769   4.472
41454W        W 8237  28.702   6.660  12.991
41455W        W 8238   6.748  30.107  13.972
41456W        W 8239  32.964  26.852   9.699
41457W        W 8240   9.635  20.738  13.238
41458W        W 8241  32.663  10.608   4.452
41459W        W 8242  19.348   0.878   0.662
41460W        W 8243   5.338  36.148  11.946
41461W        W 8244  44.390   0.306  13.734
41462W        W 8245  10.754  43.951  10.875
41463W        W 8246  31.479  10.044  12.066
41464W        W 8247  36.039  15.887   4.608
41465W        W 8248  23.534  13.338  14.310
41466W        W 8249  21.606  35.492  12.833
41467W        W 8250  37.401  37.557   1.841
41468W        W 8251  37.165  20.256   4.713
41469W        W 8252  24.751   9.221  14.838
41470W        W 8253  27.717   2.819   0.063
41471W        W 8254  40.990  43.307  11.582
41472W        W 8255  21.547  34.222   4.533
41473W        W 8256  43.717  22.124   1.076
41474W        W 8257  24.441  44.889   1.347
41475W        W 8258   6.600  35.577   5.042
41476W        W 8259   5.252  17.620  13.917
41477W        W 8260  39.526  17.759   4.468
41478W        W 8261  32.511   1.469   4.084
41479W        W 8262   2.693  44.762   4.286
41480W        W 8263   4.672  15.633   3.168
41481W        W 8264  29.135   2.784   4.840
41482W        W 8265  10.824   0.037   4.216
41483W        W 8266  36.338  21.602  11.956
41484W        W 8267  14.208  15.698   3.093
41485W        W 8268  23.850   3.972   5.031
41486W        W 8269  29.405  30.993   3.120
41487W        W 8270  43.812   6.307   1.199
41488W        W 8271  32.098   4.542   2.356
41489W        W 8272   9.911  14.598   3.875
41490W        W 8273  19.141  32.767   1.853
41491W        W 8274   5.705  43.666  14.335
41492W        W 8275   0.468   6.955  11.969
41493W        W 8276  20.686  13.004  13.766
41494W        W 8277  13.529  42.503  12.938
41495W        W 8278  39.484   9.882  10.853
41496W        W 8279  44.485  20.584   2.362
41497W        W 8280  44.432  42.421  10.696
41498W        W 8281  26.532  41.342  11.152
41499W        W 8282   7.153  24.541  10.706
41500W        W 8283  39.520  40.729  13.024
41501W        W 8284  14.752  36.630  13.051
41502W        W 8285   7.687   7.876  10.463
41503W        W 8286   8.162  18.629   4.028
41504W        W 8287  39.984  25.629   2.058
41505W        W 8288  28.058  18.005   3.381
41506W        W 8289   4.947  13.570   4.072
41507W        W 8290  44.478  38.457   2.808
41508W        W 8291   2.493  31.043   3.051
41509W        W 8292   2.049  11.904   0.794
41510W        W 8293  29.431  27.510  12.226
41511W        W 8294  19.904  35.995  13.604
41512W        W 8295   1.909   3.877   3.699
41513W        W 8296  21.230  40.661  14.210
41514W        W 8297  10.934   9.171   1.331
41515W        W 8298  16.048  16.205   2.516
41516W        W 8299  39.517  16.314   2.188
41517W        W 8300   4.874   2.916  12.047
41518W        W 8301  14.756  35.819   3.785
41519W        W 8302   2.378  22.448   3.296
41520W        W 8303  35.419  10.341   3.688
41521W        W 8304  34.411  17.310  14.539
41522W        W 8305  39.036   3.573   2.634
41523W        W 8306  30.429  33.445  10.973
41524W        W 8307   8.666  31.511  11.965
41525W        W 8308  16.337  23.269   4.167
41526W        W 8309  43.737  42.188  12.972
41527W        W 8310  33.380  26.501  11.106
41528W        W 8311  16.475  30.331   1.691
41529W        W 8312  44.102   2.986  12.145
41530W        W 8313  12.613   2.744   3.668
41531W        W 8314  20.483  20.068  12.044
41532W        W 8315  16.553  33.582  14.392
41533W        W 8316  35.603  43.882  14.753
41534W        W 8317  14.006  33.766  13.613
41535W        W 8318   4.187   2.426   0.506
41536W        W 8319  26.066   1.543   2.256
41537W        W 8320  21.396  16.723   2.447
41538W        W 8321  16.911  26.615   2.712
41539W        W 8322  43.782  28.063  14.172
41540W        W 8323  35.307  37.295   2.068
41541W        W 8324  30.206  16.145  13.763
41542W        W 8325  13.690  16.746  12.606
41543W        W 8326   8.048  43.420   1.785
41544W        W 8327  30.266  40.873  13.418
41545W        W 8328  22.032   5.951   4.148
41546W        W 8329  17.363  44.368  10.523
41547W        W 8330  10.297  40.378  14.789
41548W        W 8331  15.855  31.498  12.385
41549W        W 8332   5.431  24.388   1.940
41550W        W 8333   1.718  18.772  13.874
41551W        W 8334  24.404   7.921  12.639
41552W        W 8335  12.812  24.618  11.531
41553W        W 8336  16.363  29.449   2.165
41554W        W 8337   7.370  11.848  14.004
41555W        W 8338   8.231  41.994  11.733
41556W        W 8339  32.178  11.251  12.944
41557W        W 8340  32.089  43.887  12.893
41558W        W 8341  24.670  14.539   0.727
41559W        W 8342  34.840  30.346   2.284
41560W        W 8343   7.818  27.594  12.368
41561W        W 8344   8.329  30.263  11.788
41562W        W 8345  28.135  14.998  11.220
41563W        W 8346   5.081  16.644   2.907
41564W        W 8347   1.339  31.691   1.405
41565W        W 8348  41.685   1.676   4.535
41566W        W 8349  13.246  37.426  11.805
41567W        W 8350  21.794  27.282  11.502
41568W        W 8351  37.108  31.036   3.918
41569W        W 8352  25.339  15.235  12.761
41570W        W 8353  19.123  15.490   2.834
41571W        W 8354  33.866  12.781  13.313
41572W        W 8355  44.760  41.863   3.224
41573W        W 8356   1.517   8.768   0.885
41574W        W 8357  29.473  19.235  14.363
41575W        W 8358  12.365  35.811   2.729
41576W        W 8359  12.988   5.301   0.276
41577W        W 8360  43.699  24.779   0.499
41578W        W 8361  35.798  39.226  10.600
41579W        W 8362   0.045  39.932  12.634
41580W        W 8363  19.552  43.530   1.628
41581W        W 8364  11.471  26.431   2.441
41582W        W 8365  24.588  42.509   1.002
41583W        W 8366  22.668  38.799   0.287
41584W        W 8367  40.296  25.212   2.088
41585W        W 8368  11.284  32.412  14.416
41586W        W 8369   8.614  23.959  12.029
41587W        W 8370  19.104  23.750  12.053
41588W        W 8371  20.696  24.958   4.186
41589W        W 8372   8.656   0.264   3.295
41590W        W 8373  14.843  10.208   1.629
41591W        W 8374  27.932  16.690   3.432
41592W        W 8375  29.998   9.753  10.678
41593W        W 8376  30.576  32.082   4.843
41594W        W 8377  23.748  26.863   3.860
41595W        W 8378   6.418  29.623   0.335
41596W        W 8379   4.863   7.249   1.676
41597W        W 8380  35.116  41.388  10.597
41598W        W 8381  38.329  13.295   0.468
41599W        W 8382  22.685  43.807   3.926
41600W        W 8383  35.804  19.954  11.625
41601W        W 8384  13.725  15.660   3.363
41602W        W 8385  42.827  22.068  10.569
41603W        W 8386  36.432  25.539   4.711
41604W        W 8387   0.771  24.264  13.843
41605W        W 8388   6.220  34.321  12.563
41606W        W 8389  24.624  12.547   4.243
41607W        W 8390   9.136   6.981  10.200
41608W        W 8391  35.879  13.154   0.487
41609W        W 8392  14.580  24.959   4.554
41610W        W 8393  24.065  15.978   3.217
41611W        W 8394   5.914  14.995   1.481
41612W        W 8395  10.655   5.012   4.839
41613W        W 8396  11.581  40.227   4.888
41614W        W 8397  15.688   6.103  11.670
41615W        W 8398  10.908  33.898  11.179
41616W        W 8399  42.402  11.211   4.181
41617W        W 8400  43.398  20.765  14.953
41618W        W 8401  36.470  23.838  10.722
41619W        W 8402  34.238  11.357   3.825
41620W        W 8403  28.681  28.877   0.392
41621W        W 8404   2.297   2.160  14.356
41622W        W 8405  42.889  21.581   0.070
41623W        W 8406   9.104  21.681  11.193
41624W        W 8407  13.596   2.805  11.699
41625W        W 8408  28.694  25.643  14.881
41626W        W 8409  20.754  10.795   4.829
41627W        W 8410  22.888   0.944   1.719
41628W        W 8411  26.428  42.899  14.967
41629W        W 8412  38.099  28.200   0.203
41630W        W 8413  32.703   9.706   1.512
41631W        W 8414  33.312  28.535  10.723
41632W        W 8415   7.171  34.810  14.707
41633W        W 8416  29.333  29.375  12.514
41634W        W 8417   0.198  15.365   3.380
41635W        W 8418   1.782  17.109   4.059
41636W        W 8419  12.736  23.552  10.586
41637W        W 8420  34.596  24.561   2.763
41638W        W 8421   6.733  35.570   3.071
41639W        W 8422  13.456  25.462  11.565
41640W        W 8423  20.629  17.016  13.906
41641W        W 8424   7.594   5.811   3.665
41642W        W 8425   1.348  21.254   0.937
41643W        W 8426  23.492  13.095  12.921
41644W        W 8427  15.097  37.562  13.868
41645W        W 8428  11.821  40.342  10.548
41646W        W 8429  14.248  28.122  12.969
41647W        W 8430  27.514  35.132   2.154
41648W        W 8431  15.075  40.780   5.704
41649W        W 8432   5.380  33.116  14.865
41650W        W 8433  18.558  22.088  14.435
41651W        W 8434   6.701   4.954   1.902
41652W        W 8435  44.879   4.553   1.591
41653W        W 8436   4.651  42.254  12.599
41654W        W 8437  35.958   5.768   3.246
41655W        W 8438  23.631  27.184   4.617
41656W        W 8439   9.475  38.388  11.677
41657W        W 8440  37.781  15.180  13.305
41658W        W 8441  13.298  10.704  12.501
41659W        W 8442  35.406  14.073  10.592
41660W        W 8443   7.886   1.503  10.400
41661W        W 8444  22.174  24.565   1.769
41662W        W 8445  27.878   9.904  13.588
41663W        W 8446  35.441  36.587  11.442
41664W        W 8447  44.551  33.061  13.333
41665W        W 8448   1.016   7.849  11.597
41666W        W 8449   6.345   6.519  11.647
41667W        W 8450  32.103  28.057  12.384
41668W        W 8451   3.058  18.282  10.729
41669W        W 8452  19.154  27.593  13.385
41670W        W 8453  38.817  40.924  12.407
41671W        W 8454  27.018  33.476  12.146
41672W        W 8455   4.468  34.488   1.969
41673W        W 8456  13.715  16.238  13.890
41674W        W 8457  35.866   2.082  12.957
41675W        W 8458  12.433  30.096   4.309
41676W        W 8459  27.717  41.730  13.984
41677W        W 8460  26.631  35.571  14.801
41678W        W 8461   9.724  16.998   4.123
41679W        W 8462  16.571  12.850   4.147
41680W        W 8463  30.893  15.606   0.973
41681W        W 8464  26.691  13.879  14.450
41682W        W 8465  19.168  11.716  12.612
41683W        W 8466  29.616   3.743  14.953
41684W        W 8467  18.188  11.255  11.698
41685W        W 8468  42.444   7.239  12.753
41686W        W 8469   6.738  37.623  11.145
41687W        W 8470   3.913  15.217  13.956
41688W        W 8471   6.356  18.793   3.730
41689W        W 8472  15.711  38.616   1.454
41690W        W 8473   1.393   1.933  12.963
41691W        W 8474  24.984  28.386   3.247
41692W        W 8475  23.172  29.707  11.672
41693W        W 8476   9.352  13.824   2.154
41694W        W 8477  18.560  30.477  11.584
41695W        W 8478  29.989  26.542   5.026
41696W        W 8479  21.451  31.951   2.216
41697W        W 8480  44.376   5.781   4.274
41698W        W 8481   2.003  20.537   3.264
41699W        W 8482  19.766   8.649  13.075
41700W        W 8483  24.800   2.353   1.077
41701W        W 8484  18.145   1.430   1.168
41702W        W 8485  27.804  18.285   5.398
41703W        W 8486  36.912  23.562  10.692
41704W        W 8487  43.986   6.166  11.078
41705W        W 8488  31.815   8.805   4.783
41706W        W 8489  43.968  20.412   3.601
41707W        W 8490  22.901  42.869   4.557
41708W        W 8491  24.634  39.415  10.154
41709W        W 8492  15.374  19.995   1.175
41710W        W 8493  41.938  30.342   2.448
41711W        W 8494  18.586  10.580  10.602
41712W        W 8495   5.314  12.102   3.239
41713W        W 8496  14.598  22.999   3.716
41714W        W 8497  42.507  23.217   2.294
41715W        W 8498   1.739   2.693  14.098
41716W        W 8499  37.372  12.239   1.600
41717W        W 8500  40.273  24.174   4.554
41718W        W 8501  27.928  24.581   1.150
41719W        W 8502  40.867   2.405  11.045
41720W        W 8503  40.275  40.473  10.652
41721W        W 8504  16.721   4.663   2.379
41722W        W 8505  18.167  38.340  10.751
41723W        W 8506  24.820  30.787  13.986
41724W        W 8507  27.963  43.349  13.520
41725W        W 8508  37.817  34.492   0.911
41726W        W 8509  28.343  34.372   0.719
41727W        W 8510   8.266  36.517  13.434
41728W        W 8511  31.383  40.459  10.735
41729W        W 8512  12.239  22.528  14.845
41730W        W 8513   3.186  39.993  11.103
41731W        W 8514  21.191  32.026  13.110
41732W        W 8515  24.849  20.316  11.828
41733W        W 8516  41.554  34.048  11.196
41734W        W 8517  30.847  33.015   2.633
41735W        W 8518  30.944  40.054  14.549
41736W        W 8519   3.394  31.584   3.806
41737W        W 8520  31.171  20.080   0.474
41738W        W 8521  19.707   4.879  14.884
41739W        W 8522   4.270  10.379   1.494
41740W        W 8523   8.789  31.279   2.591
41741W        W 8524  14.905  15.619  12.455
41742W        W 8525   1.970  42.881   2.546
41743W        W 8526   2.024  42.234  14.335
41744W        W 8527  32.624  44.012   4.167
41745W        W 8528   6.933  16.312   1.456
41746W        W 8529  38.988   8.806  14.546
41747W        W 8530   7.920  37.434  11.646
41748W        W 8531  24.149  27.265  10.637
41749W        W 8532   9.806   3.385  11.165
41750W        W 8533  23.964  38.854   3.723
41751W        W 8534  44.779   5.733  14.596
41752W        W 8535  15.403   0.349  12.228
41753W        W 8536  27.226  28.951  11.082
41754W        W 8537  30.577  14.122   0.495
41755W        W 8538  38.106  15.232  12.098
41756W        W 8539  13.185  10.200  12.395
41757W        W 8540  29.072  40.391  13.945
41758W        W 8541  30.441  36.490  14.125
41759W        W 8542  37.375   8.351   3.194
41760W        W 8543   7.206  25.061   2.729
41761W        W 8544  40.534  26.151  11.203
41762W        W 8545  13.232   7.684   0.625
41763W        W 8546  10.066  27.678   4.068
41764W        W 8547   3.410   0.755   1.263
41765W        W 8548  43.490   6.270  12.371
41766W        W 8549   1.758  40.433  10.649
41767W        W 8550  11.076  34.198  12.493
41768W        W 8551   2.043   8.817   0.809
41769W        W 8552  39.842   0.824   2.331
41770W        W 8553  37.194  35.375  12.675
41771W        W 8554  25.039  39.110  12.032
41772W        W 8555   0.722  42.156  11.016
41773W        W 8556  31.856  43.906   4.375
41774W        W 8557  16.744  39.816   3.688
41775W        W 8558  43.037  20.704  13.121
41776W        W 8559  19.320  24.614   1.642
41777W        W 8560  14.575  39.070  12.794
41778W        W 8561  42.737  33.653   0.221
41779W        W 8562  26.157  19.799   2.985
41780W        W 8563  17.675   0.213   3.136
41781W        W 8564  24.672  18.395  13.100
41782W        W 8565  10.294   9.218  14.874
41783W        W 8566  15.766  34.312   1.838
41784W        W 8567   7.598  35.576   3.192
41785W        W 8568  40.461  40.062   4.137
41786W        W 8569  36.997  36.904   4.615
41787W        W 8570  38.976  16.335  14.450
41788W        W 8571   4.861  38.096   2.257
41789W        W 8572  29.224  44.158   2.184
41790W        W 8573   7.121   4.682   1.798
41791W        W 8574  11.733  18.340  10.478
41792W        W 8575  42.373  44.438  11.588
41793W        W 8576  16.748   8.848   1.735
41794W        W 8577  25.415  30.394   4.151
41795W        W 8578  10.649  12.767   3.811
41796W        W 8579  34.568  24.728   4.290
41797W        W 8580   9.309  21.700   4.199
41798W        W 8581  14.017  13.271  12.581
41799W        W 8582  13.127   9.822  13.370
41800W        W 8583  10.332  44.158   4.514
41801W        W 8584  23.685  39.192  12.964
41802W        W 8585  16.361  31.561  12.472
41803W        W 8586   7.692  22.133  13.386
41804W        W 8587  35.967   7.718   3.149
41805W        W 8588  38.910  11.719   0.888
41806W        W 8589   2.466  28.484  11.886
41807W        W 8590  24.486  30.603   0.262
41808W        W 8591  32.650  40.018   2.757
41809W        W 8592  13.031   5.022  14.497
41810W        W 8593   7.212  22.691   4.036
41811W        W 8594  29.517  12.009   4.132
41812W        W 8595   5.687   9.631   1.245
41813W        W 8596  38.423  40.841  14.264
41814W        W 8597  32.502  27.596   4.370
41815W        W 8598  36.565  35.290  13.829
41816W        W 8599  15.541   4.650   4.088
41817W        W 8600  37.926  30.222   1.755
41818W        W 8601   1.338  33.946  14.050
41819W        W 8602   0.407  14.627   2.290
41820W        W 8603  37.730  37.839  11.744
41821W        W 8604  36.141   5.992  11.464
41822W        W 8605  41.887  35.007   1.240
41823W        W 8606  33.449   3.681  14.917
41824W        W 8607  15.836  13.825  11.992
41825W        W 8608  38.928   2.998  12.430
41826W        W 8609   4.472   7.682   4.509
41827W        W 8610  28.987  20.072   4.616
41828W        W 8611   7.801  14.046  12.514
41829W        W 8612  31.452  20.514   0.414
41830W        W 8613   7.569  41.959   4.550
41831W        W 8614  40.757  16.723   0.212
41832W        W 8615  32.326  28.145  11.910
41833W        W 8616   9.726  40.093  12.329
41834W        W 8617  29.190  29.146   4.418
41835W        W 8618  36.538  16.582   1.758
41836W        W 8619  17.703   0.868  10.933
41837W        W 8620   0.452  18.184  13.967
41838W        W 8621  44.300  26.324  13.319
41839W        W 8622  33.572  11.262  10.670
41840W        W 8623  30.702  28.232   1.814
41841W        W 8624  25.082  19.027   4.472
41842W        W 8625  32.086  21.748   3.712
41843W        W 8626  10.701  42.426  10.507
41844W        W 8627  11.337  36.466   4.038
41845W        W 8628  15.750  26.089  13.408
41846W        W 8629  29.370  27.929   2.933
41847W        W 8630  35.342   2.067  12.595
41848W        W 8631  33.434  11.084   2.417
41849W        W 8632   9.921  17.776   1.675
41850W        W 8633  35.192   7.419  11.185
41851W        W 8634  42.823  17.151   4.966
41852W        W 8635  11.300  18.616  13.561
41853W        W 8636   8.877  41.147  14.513
41854W        W 8637   4.028   8.244  12.572
41855W        W 8638  27.928  15.855  14.952
41856W        W 8639  23.675  10.228   3.344
41857W        W 8640  29.701   3.089   3.200
41858W        W 8641  17.567  44.715   1.358
41859W        W 8642  20.471  10.185   3.398
41860W        W 8643   7.838  29.441  11.841
41861W        W 8644   5.331  14.167  12.419
41862W        W 8645  35.695   8.991   5.003
41863W        W 8646   6.271  14.664   2.847
41864W        W 8647   6.933  21.696   4.781
41865W        W 8648   6.532  18.935  11.253
41866W        W 8649  39.798   1.468  13.522
41867W        W 8650  10.846  21.708  13.197
41868W        W 8651  23.048   5.939  14.166
41869W        W 8652  33.690   0.323  14.491
41870W        W 8653  19.677  18.234   1.932
41871W        W 8654  11.808  42.799   3.746
41872W        W 8655   0.557   8.727  14.408
41873W        W 8656  35.242   3.774  11.589
41874W        W 8657  35.077   0.851   2.606
41875W        W 8658  30.218   4.887  11.894
41876W        W 8659   2.388  19.229  13.951
41877W        W 8660   5.701  28.313  14.088
41878W        W 8661  23.253   9.898  10.802
41879W        W 8662  29.874  20.127   4.670
41880W        W 8663  19.693  16.618  13.449
41881W        W 8664  44.789  39.451   1.669
41882W        W 8665  34.367   8.519  14.162
41883W        W 8666  28.027  37.475   2.853
41884W        W 8667  24.879  27.260   5.414
41885W        W 8668  11.677  35.830  13.821
41886W        W 8669   3.406  33.887  10.717
41887W        W 8670  17.099  39.520   1.842
41888W        W 8671  27.639  24.577  14.783
41889W        W 8672  20.533   4.885   2.801
41890W        W 8673   5.523   2.507   4.041
41891W        W 8674  34.794  36.633   1.119
41892W        W 8675  22.209  35.927   0.830
41893W        W 8676  33.126  19.093   3.993
41894W        W 8677  44.722  11.422  14.892
41895W        W 8678  13.390  21.713  12.889
41896W        W 8679  26.413  28.513   0.918
41897W        W 8680  13.650  15.959  14.674
41898W        W 8681  19.117   5.756  13.959
41899W        W 8682   5.923  24.186   1.615
41900W        W 8683  39.409  41.051  10.711
41901W        W 8684  44.103  27.248   0.352
41902W        W 8685  42.943  22.213  12.785
41903W        W 8686  28.976  34.935   0.868
41904W        W 8687   1.853   8.349   4.364
41905W        W 8688   2.487  10.288   4.727
41906W        W 8689  41.090  28.601  12.020
41907W        W 8690  40.818  43.945   2.682
41908W        W 8691  28.631   2.116  11.169
41909W        W 8692  16.905  33.179  14.015
41910W        W 8693  32.396  16.983   1.414
41911W        W 8694  35.280  18.018  14.844
41912W        W 8695  22.760   0.438  13.448
41913W        W 8696  38.519  11.098   0.340
41914W        W 8697  14.133  37.502  14.893
41915W        W 8698   6.815  36.370  14.579
41916W        W 8699  17.685   2.318  10.655
41917W        W 8700  39.362  44.725   4.349
41918W        W 8701  35.128  25.595   4.492
41919W        W 8702  34.420  39.561  11.611
41920W        W 8703  18.219   5.120  12.987
41921W        W 8704  17.721   0.544  13.515
41922W        W 8705  23.627  13.095   4.152
41923W        W 8706  13.691   2.298  14.966
41924W        W 8707  10.725  43.656   3.759
41925W        W 8708   6.402   0.270   1.925
41926W        W 8709  31.901  27.109  13.069
41927W        W 8710  26.099   7.827  10.714
41928W        W 8711  12.051  39.860  14.434
41929W        W 8712  37.771  36.591  13.773
41930W        W 8713  36.516   3.298  11.177
41931W        W 8714  32.199  41.485   4.133
41932W        W 8715   3.728  19.039  11.110
41933W        W 8716   7.783  42.695  13.458
41934W        W 8717  43.129  19.106   1.710
41935W        W 8718  19.207   5.644   0.315
41936W        W 8719  12.173  33.994  13.361
41937W        W 8720  38.463  20.494   1.759
41938W        W 8721  29.947  21.223  14.839
41939W        W 8722  19.556  22.689  14.721
41940W        W 8723  22.594  39.116   3.821
41941W        W 8724  26.259  32.303  13.084
41942W        W 8725   6.926  13.912   4.553
41943W        W 8726  30.271  35.933   0.947
41944W        W 8727  31.506   5.488  11.847
41945W        W 8728  28.034  37.055  13.381
41946W        W 8729  38.469  22.100  12.548
41947W        W 8730  18.621  23.554  10.878
41948W        W 8731  17.364  30.702   0.415
41949W        W 8732   7.841  20.245   4.500
41950W        W 8733  33.085  38.781   2.129
41951W        W 8734  16.043   9.395  11.071
41952W        W 8735   9.450  14.287   3.085
41953W        W 8736  15.600   6.484  12.001
41954W        W 8737  13.644  40.990  12.934
41955W        W 8738   0.899   3.927  12.642
41956W        W 8739  14.345   6.288   0.765
41957W        W 8740  22.477  13.778   3.310
41958W        W 8741  21.304  26.067   4.643
41959W        W 8742   3.209  16.726  11.277
41960W        W 8743  43.947  19.627   0.285
41961W        W 8744  37.622  15.179   2.401
41962W        W 8745  42.822   1.718   1.379
41963W        W 8746  27.107  33.108  13.867
41964W        W 8747  32.777   7.425   3.810
41965W        W 8748  33.578  18.676   0.184
41966W        W 8749  29.042   2.512  14.557
41967W        W 8750   4.229  34.313   4.732
41968W        W 8751  43.671  25.767  10.963
41969W        W 8752  28.968   5.345   4.042
41970W        W 8753   1.827  18.272   1.472
41971W        W 8754  28.137   0.367   4.887
41972W        W 8755  10.372  30.448   4.441
41973W        W 8756   1.922  36.485   2.644
41974W        W 8757  27.210  28.183  14.969
41975W        W 8758  16.217  14.692   0.755
41976W        W 8759   2.289   7.505   1.366
41977W        W 8760  25.717   7.410  14.834
41978W        W 8761  22.381  34.308  14.937
41979W        W 8762  22.200  25.408  11.761
41980W        W 8763  30.700  10.185  13.561
41981W        W 8764  35.740  16.141  11.666
41982W        W 8765  13.702  27.584   3.948
41983W        W 8766  38.925  23.640  11.670
41984W        W 8767   8.400   4.826  13.026
41985W        W 8768   6.909  21.379  11.643
41986W        W 8769  19.180  31.006  12.895
41987W        W 8770  24.490  10.677  13.899
41988W        W 8771  43.741  17.889   0.255
41989W        W 8772  29.656  23.902   0.276
41990W        W 8773   3.330  31.320   2.214
41991W        W 8774  30.725  33.429  10.547
41992W        W 8775  33.673  10.877   2.810
41993W        W 8776  26.745  13.026   2.307
41994W        W 8777   7.706  26.456  13.545
41995W        W 8778   4.534  20.622  14.418
41996W        W 8779  30.252  24.645   2.260
41997W        W 8780  15.813  16.394   3.297
41998W        W 8781  17.253   6.759   2.235
41999W        W 8782   0.372  11.259   2.829
42000W        W 8783   0.045  20.588   0.324
42001W        W 8784  28.505  20.602  14.055
42002W        W 8785  10.307  42.797   1.696
42003W        W 8786  31.470   8.907  11.494
42004W        W 8787  32.223  24.221  14.752
42005W        W 8788   4.327   3.224   2.311
42006W        W 8789  43.339  34.481  13.039
42007W        W 8790  26.595  42.267   3.682
42008W        W 8791  17.252  27.408   4.614
42009W        W 8792  10.730   3.706  12.914
42010W        W 8793  28.133   6.302   0.763
42011W        W 8794  21.598  18.702  12.956
42012W        W 8795  12.040  37.107  12.773
42013W        W 8796  20.663  27.049   3.540
42014W        W 8797  36.971  10.848   4.177
42015W        W 8798  13.278   9.390   0.956
42016W        W 8799  27.976   7.756   0.756
42017W        W 8800  41.290  17.098  11.156
42018W        W 8801  28.995   2.411  12.684
42019W        W 8802  40.916   7.337  10.650
42020W        W 8803  25.518  13.835  14.579
42021W        W 8804  25.935  25.260  13.603
42022W        W 8805   7.267  16.334   4.095
42023W        W 8806  24.127  34.945   0.177
42024W        W 8807  15.766  23.621  13.758
42025W        W 8808   3.843   8.132   0.294
42026W        W 8809   1.424  37.570  12.034
42027W        W 8810  30.159  10.274   3.789
42028W        W 8811  38.558  33.568   0.745
42029W        W 8812  44.265  15.246   3.609
42030W        W 8813  34.283  12.359  11.638
42031W        W 8814   6.178  28.992  10.728
42032W        W 8815  38.461   9.595  13.095
42033W        W 8816  37.580  23.640   2.710
42034W        W 8817   2.728  43.578  11.226
42035W        W 8818  25.452  22.654  13.291
42036W        W 8819  15.855  14.726  12.840
42037W        W 8820  40.967  11.345   4.501
42038W        W 8821  15.883   5.801   2.522
42039W        W 8822  21.176  21.619  13.494
42040W        W 8823  38.934   6.448  12.255
42041W        W 8824  29.766  25.068   1.720
42042W        W 8825  11.596  13.093   2.691
42043W        W 8826  28.810  35.414  13.615
42044W        W 8827  33.854  10.631  12.660
42045W        W 8828  40.868  23.702  13.004
42046W        W 8829  29.919  42.707  11.464
42047W        W 8830  43.251  29.152   3.433
42048W        W 8831   4.679  23.002   4.516
42049W        W 8832  30.681  25.971   2.774
42050W        W 8833  33.878   3.673   2.917
42051W        W 8834  43.510   3.368  14.894
42052W        W 8835  14.725  13.806  11.577
42053W        W 8836   2.790  22.357  13.579
42054W        W 8837  37.069  12.335   0.897
42055W        W 8838  41.258   6.705  13.886
42056W        W 8839  22.726  35.043   3.688
42057W        W 8840  15.073   6.232   1.638
42058W        W 8841   2.612  22.271  11.139
42059W        W 8842  18.197   2.966   0.407
42060W        W 8843  17.404  33.805  12.902
42061W        W 8844  15.102  33.947   2.420
42062W        W 8845  37.625  21.717   3.202
42063W        W 8846  40.413  23.531   4.045
42064W        W 8847   9.378  27.977  14.004
42065W        W 8848  18.661  14.595   0.315
42066W        W 8849  24.635   0.367   1.289
42067W        W 8850   1.780  13.191   3.955
42068W        W 8851  25.770  21.044  11.178
42069W        W 8852  36.054  30.191   4.024
42070W        W 8853  36.543  29.870   2.124
42071W        W 8854  10.283  33.887   1.775
42072W        W 8855  37.345  25.403   0.343
42073W        W 8856   4.040   3.402   3.443
42074W        W 8857   7.157  24.573   0.563
42075W        W 8858  21.744  28.079  12.104
42076W        W 8859   4.916   9.394  10.444
42077W        W 8860   6.376  40.150  11.637
42078W        W 8861  15.062  24.268   2.776
42079W        W 8862  23.771   8.087  14.711
42080W        W 8863  33.815  43.998  10.579
42081W        W 8864  35.861   2.477   4.175
42082W        W 8865  11.730  16.840   3.922
42083W        W 8866  18.045  35.679  12.046
42084W        W 8867  40.470  19.613   4.621
42085W        W 8868  44.234  15.878   1.301
42086W        W 8869   5.912  12.521  13.000
42087W        W 8870   5.242  22.299  11.880
42088W        W 8871  44.482  39.850   1.796
42089W        W 8872  34.483  31.073   3.115
42090W        W 8873  33.299  31.929   4.202
42091W        W 8874   5.935  34.433  14.859
42092W        W 8875  10.216  26.676   1.164
42093W        W 8876   7.398  12.560   3.323
42094W        W 8877  29.696  21.734   0.744
42095W        W 8878  18.654  15.734  11.138
42096W        W 8879  13.863  28.085   3.191
42097W        W 8880  28.683  27.481   3.344
42098W        W 8881  21.793  15.956   9.806
42099W        W 8882  30.444  21.141  10.454
42100W        W 8883  17.750  14.248  13.879
42101W        W 8884  39.132   3.507   2.153
42102W        W 8885   6.608   8.765   0.321
42103W        W 8886  21.476   0.426   2.799
42104W        W 8887  18.972  36.971  13.917
42105W        W 8888  28.807  33.137  14.331
42106W        W 8889  16.569  42.682  12.707
42107W        W 8890  37.446  31.063  10.736
42108W        W 8891  36.082   9.910   1.914
42109W        W 8892  22.270  18.579   3.725
42110W        W 8893   9.851  39.443   4.115
42111W        W 8894  26.973  10.560   1.203
42112W        W 8895  10.567  40.542   0.272
42113W        W 8896  31.898   0.404   4.552
42114W        W 8897   9.809  33.030  11.646
42115W        W 8898  16.627   0.156   3.571
42116W        W 8899  37.834  26.136   3.032
42117W        W 8900  34.951  35.556   2.904
42118W        W 8901  16.990   1.734  13.079
42119W        W 8902  15.561  20.460   1.352
42120W        W 8903  41.984  23.647  10.768
42121W        W 8904   8.250  42.389  13.244
42122W        W 8905  43.025  29.490  10.931
42123W        W 8906   7.809  34.141   3.764
42124W        W 8907   6.624  43.869  13.095
42125W        W 8908  43.886   8.646  14.960
42126W        W 8909  18.440   7.225  14.753
42127W        W 8910  36.025   5.188   0.268
42128W        W 8911  44.911  39.440  14.794
42129W        W 8912  19.547   5.829   3.267
42130W        W 8913   1.690  15.048  13.430
42131W        W 8914  30.489  16.779  14.869
42132W        W 8915  44.021   1.284  12.540
42133W        W 8916  27.829   1.744   2.353
42134W        W 8917   9.180  36.245   3.230
42135W        W 8918  35.035  19.506  12.103
42136W        W 8919   3.785  41.967  14.144
42137W        W 8920  22.499  20.523  13.893
42138W        W 8921   6.790  37.379  14.301
42139W        W 8922   6.966  17.534  11.179
42140W        W 8923  38.971  10.389   1.804
42141W        W 8924  40.313  29.992  11.203
42142W        W 8925  18.193  34.853  13.922
42143W        W 8926  20.517   9.462  11.237
42144W        W 8927  27.761  26.612   4.210
42145W        W 8928   9.464   7.674  14.403
42146W        W 8929  11.943  44.283   1.364
42147W        W 8930  40.414  26.967   2.569
42148W        W 8931   8.836   8.225   5.152
42149W        W 8932  18.488  44.234   3.332
42150W        W 8933  27.243   9.430   4.432
42151W        W 8934  16.723  16.668   4.006
42152W        W 8935  14.632  15.884   3.366
42153W        W 8936  39.158  24.989   1.865
42154W        W 8937  34.677  24.112  10.679
42155W        W 8938  20.813  37.893  13.552
42156W        W 8939  19.769  34.093   4.639
42157W        W 8940  20.927  15.372   0.226
42158W        W 8941   0.267  18.077   1.382
42159W        W 8942  44.337  18.560  13.060
42160W        W 8943  35.673   0.687   1.722
42161W        W 8944  20.081   4.314   0.867
42162W        W 8945  29.052  23.680  13.098
42163W        W 8946  19.219  13.186  12.346
42164W        W 8947  40.441  40.101   1.329
42165W        W 8948  32.470  39.550   0.931
42166W        W 8949  26.959  32.460   4.287
42167W        W 8950  41.097  34.475   0.205
42168W        W 8951  10.205   6.281   4.588
42169W        W 8952   5.840  10.316   2.248
42170W        W 8953  28.001  26.110   0.451
42171W        W 8954  33.810  36.410   0.938
42172W        W 8955   6.673  40.429   2.755
42173W        W 8956  23.641  30.421   0.278
42174W        W 8957   7.854  42.780   9.856
42175W        W 8958  41.072  31.153   3.097
42176W        W 8959  38.105  24.524   2.660
42177W        W 8960  39.796  43.941  14.328
42178W        W 8961  18.310  17.018   4.174
42179W        W 8962  19.718   5.827  14.431
42180W        W 8963  19.411   6.123   4.119
42181W        W 8964  22.823  41.414   3.170
42182W        W 8965  26.181  24.092   2.718
42183W        W 8966  39.103  23.609  11.104
42184W        W 8967  27.722   2.887   3.822
42185W        W 8968   3.402  15.161   1.700
42186W        W 8969  38.368  43.123  10.112
42187W        W 8970  34.710  36.768   4.196
42188W        W 8971  25.406  39.379   5.071
42189W        W 8972   0.374  29.029  10.702
42190W        W 8973  21.163  41.960   4.968
42191W        W 8974  29.669  13.784  13.075
42192W        W 8975  15.027  20.030  14.705
42193W        W 8976  26.623  40.537   2.256
42194W        W 8977  19.788  27.389   0.746
42195W        W 8978  38.280   6.665   1.370
42196W        W 8979  35.195  39.635   0.778
42197W        W 8980  13.295  30.888  13.457
42198W        W 8981   3.713   1.838   1.190
42199W        W 8982  32.081   5.003  12.034
42200W        W 8983   2.768  39.984  13.997
42201W        W 8984  23.246  11.242   1.611
42202W        W 8985  11.777   0.405   4.642
42203W        W 8986  20.539  39.017  13.313
42204W        W 8987   7.890   4.002   1.313
42205W        W 8988  10.809  17.068  10.182
42206W        W 8989  19.709  40.891   2.339
42207W        W 8990  38.596   0.524   4.282
42208W        W 8991  37.180  40.522  11.476
42209W        W 8992   7.579  21.995   3.464
42210W        W 8993  22.033  37.030  14.038
42211W        W 8994  14.022  19.091  11.572
42212W        W 8995  22.315  27.731   1.351
42213W        W 8996  10.931   6.457   0.980
42214W        W 8997  11.630  30.496  12.121
42215W        W 8998   6.282   7.008   2.802
42216W        W 8999  21.207   1.410  10.458
42217W        W 9000   9.608  22.204  12.962
42218W        W 9001  10.805   4.197  13.053
42219W        W 9002  39.991  31.082   2.289
42220W        W 9003  11.457  40.846  13.065
42221W        W 9004  12.371  12.959   1.464
42222W        W 9005  27.973  44.413  12.185
42223W        W 9006   1.304  14.351  12.478
42224W        W 9007  12.407  26.125  11.140
42225W        W 9008   0.005  44.220  12.311
42226W        W 9009  28.031   6.850   0.788
42227W        W 9010  14.839  13.641  14.027
42228W        W 9011  39.082  23.888   4.374
42229W        W 9012   3.210   2.321  12.022
42230W        W 9013  30.865  14.772  12.393
42231W        W 9014   4.354  42.854   3.361
42232W        W 9015  27.320  27.825  13.943
42233W        W 9016  39.495  24.000  13.124
42234W        W 9017  12.499  38.135   4.082
42235W        W 9018  24.783  32.861  13.577
42236W        W 9019  22.208  41.096  10.774
42237W        W 9020   7.165   3.866  14.618
42238W        W 9021  14.078  26.583  10.642
42239W        W 9022  42.025  40.086   0.727
42240W        W 9023  33.829  30.128  13.078
42241W        W 9024   8.263  12.086   3.921
42242W        W 9025  43.814  29.085   4.086
42243W        W 9026  20.187  16.641  12.454
42244W        W 9027   5.464  37.841  12.246
42245W        W 9028  23.642  40.288  12.503
42246W        W 9029  10.483  28.481   3.579
42247W        W 9030  13.060  10.906  12.069
42248W        W 9031  12.686   0.967   0.980
42249W        W 9032  30.607  20.986  14.465
42250W        W 9033  24.096  28.933  14.986
42251W        W 9034   7.655  31.879   4.150
42252W        W 9035  43.533   1.929   2.290
42253W        W 9036   2.201  32.100   2.184
42254W        W 9037   5.632  22.434   0.445
42255W        W 9038  40.809   6.926  13.948
42256W        W 9039   7.010  35.297  14.800
42257W        W 9040  33.123  37.600   4.941
42258W        W 9041   0.911   4.885   5.079
42259W        W 9042  42.944  32.311   3.833
42260W        W 9043  40.897  19.033  11.034
42261W        W 9044  16.804  13.307   4.088
42262W        W 9045  18.234  41.593   2.769
42263W        W 9046   9.169  22.678  13.480
42264W        W 9047   0.626  16.352   3.475
42265W        W 9048  31.379  31.692   2.811
42266W        W 9049  21.230  22.253   4.462
42267W        W 9050  17.720  18.081   1.807
42268W        W 9051  43.016  41.564   0.888
42269W        W 9052  16.765  21.289   3.931
42270W        W 9053  10.339  22.622   0.778
42271W        W 9054  12.482  33.169   3.247
42272W        W 9055  33.007   5.892   2.679
42273W        W 9056  12.604   5.087   0.561
42274W        W 9057  29.246  12.823   4.110
42275W        W 9058   2.524   8.489  12.449
42276W        W 9059  10.923  23.091  12.483
42277W        W 9060  10.878  30.778   3.777
42278W        W 9061  37.148  16.206   1.236
42279W        W 9062   9.834   9.418  11.516
42280W        W 9063  39.689  26.731   4.146
42281W        W 9064  13.756  29.355  14.965
42282W        W 9065  18.905  34.383   3.872
42283W        W 9066  25.853  15.440   1.904
42284W        W 9067  30.854  19.294   1.974
42285W        W 9068   4.504  15.260  10.763
42286W        W 9069  41.142  37.527   0.085
42287W        W 9070  31.142  17.141  11.232
42288W        W 9071   0.139  34.224   4.141
42289W        W 9072   2.736   7.516  12.528
42290W        W 9073  29.098   5.967  11.198
42291W        W 9074  12.064  19.156  11.011
42292W        W 9075  22.148  22.010  14.990
42293W        W 9076   8.260   5.327  14.413
42294W        W 9077  21.005   2.603   0.028
42295W        W 9078  15.117  15.715   3.303
42296W        W 9079   3.419  22.172   0.439
42297W        W 9080   8.879  13.193   1.592
42298W        W 9081  42.843  37.981  10.775
42299W        W 9082   3.347  12.644   2.786
42300W        W 9083  25.196  40.016   0.419
42301W        W 9084   7.372   4.562   3.722
42302W        W 9085   4.895  22.616   1.877
42303W        W 9086  44.906  14.218   2.311
42304W        W 9087   3.764  43.969  13.094
42305W        W 9088  14.719  36.494  12.136
42306W        W 9089  12.306  22.009  14.959
42307W        W 9090  28.166  28.006  10.980
42308W        W 9091  37.593  30.162  10.647
42309W        W 9092  44.542  23.072   3.026
42310W        W 9093  32.496  38.384  13.518
42311W        W 9094  35.925   1.584   0.820
42312W        W 9095  21.701  28.384  12.673
42313W        W 9096   0.023  42.672  14.089
42314W        W 9097  12.887  10.283  13.251
42315W        W 9098  17.240  21.003  11.971
42316W        W 9099  21.088  21.780   0.808
42317W        W 9100  28.519  44.862  14.763
42318W        W 9101   1.230  36.254   4.303
42319W        W 9102  31.922  25.277  10.658
42320W        W 9103  43.166  31.803   4.948
42321W        W 9104  10.745  43.015  11.174
42322W        W 9105  18.740  44.098  12.853
42323W        W 9106  33.060  42.558   1.946
42324W        W 9107  31.716  31.134   2.209
42325W        W 9108  19.351  40.481  13.920
42326W        W 9109  10.621  39.808   3.792
42327W        W 9110  28.995  40.503  10.284
42328W        W 9111  19.682  28.793  11.167
42329W        W 9112  28.201   8.134  10.676
42330W        W 9113  21.630  34.853  14.452
42331W        W 9114  19.961  34.986  11.526
42332W        W 9115   5.396   0.957   3.152
42333W        W 9116  29.429  41.335  11.560
42334W        W 9117  23.876  23.503  14.341
42335W        W 9118  39.868   9.593  12.867
42336W        W 9119  33.031  39.979  12.429
42337W        W 9120  23.095  20.552  11.494
42338W        W 9121   9.915  26.037   4.151
42339W        W 9122   1.994  33.124   4.917
42340W        W 9123  32.918   3.481   4.889
42341W        W 9124  22.272  19.658   4.278
42342W        W 9125  19.103  20.115   3.365
42343W        W 9126  33.568  13.752  10.536
42344W        W 9127   1.750  37.487   1.001
42345W        W 9128   0.366  21.764   4.528
42346W        W 9129   9.920  40.311   0.792
42347W        W 9130  18.687  16.720  11.546
42348W        W 9131  26.490  41.795  13.777
42349W        W 9132  24.018  38.341  13.276
42350W        W 9133   1.448  20.517  12.437
42351W        W 9134  29.161  22.468  14.815
42352W        W 9135  12.670  17.348   3.973
42353W        W 9136  32.454  10.198  12.000
42354W        W 9137  27.487   9.870  12.816
42355W        W 9138  37.613  33.024   0.521
42356W        W 9139   7.787  25.769   0.264
42357W        W 9140  10.853  33.458   0.419
42358W        W 9141   9.209  11.912  10.968
42359W        W 9142  10.328   0.298   2.232
42360W        W 9143  26.638   8.761  11.173
42361W        W 9144  36.911  21.746   4.256
42362W        W 9145  12.837  32.572  11.392
42363W        W 9146  37.481  35.908   0.373
42364W        W 9147   0.702   0.815  13.024
42365W        W 9148  22.680  15.861  14.022
42366W        W 9149   3.665  22.669  12.580
42367W        W 9150  33.067  13.095  11.974
42368W        W 9151  36.490  30.068   4.789
42369W        W 9152  21.166  30.565   0.355
42370W        W 9153   9.584  20.752  13.782
42371W        W 9154  43.930  33.977  10.569
42372W        W 9155  18.116  19.776  13.896
42373W        W 9156  39.565  28.554   4.881
42374W        W 9157  35.546  35.752  10.337
42375W        W 9158  16.531  27.382  13.382
42376W        W 9159   8.583  27.413   2.693
42377W        W 9160   3.681   9.370   4.117
42378W        W 9161  17.781  18.747  10.587
42379W        W 9162  41.836  37.907  11.240
42380W        W 9163  28.539  29.344  10.669
42381W        W 9164  40.326  35.503   1.865
42382W        W 9165   7.446  13.847   1.215
42383W        W 9166  19.215  32.036   1.321
42384W        W 9167  28.175  26.202   0.925
42385W        W 9168   6.765  10.192  14.438
42386W        W 9169   7.808  30.971  12.659
42387W        W 9170  15.207  29.007  14.978
42388W        W 9171  31.987  22.531  11.922
42389W        W 9172  12.094  33.234   0.705
42390W        W 9173  10.105  40.858  14.019
42391W        W 9174  10.265  26.729  13.780
42392W        W 9175  18.207  39.585   4.629
42393W        W 9176  37.720  35.203  12.545
42394W        W 9177  17.328  15.284   1.176
42395W        W 9178   8.816   8.741   3.801
42396W        W 9179  43.754  12.729  14.129
42397W        W 9180  14.873  25.915   4.122
42398W        W 9181  38.981  11.736  13.428
42399W        W 9182   3.844  19.394  11.505
42400W        W 9183  31.016   1.829  10.666
42401W        W 9184  39.482  33.620   0.001
42402W        W 9185   1.610  24.241   0.529
42403W        W 9186  37.164   9.922   2.869
42404W        W 9187  43.957  41.026   4.772
42405W        W 9188  16.350  22.698   2.207
42406W        W 9189   3.702  34.476   3.530
42407W        W 9190  10.099   5.379  11.952
42408W        W 9191   9.647  35.620  13.444
42409W        W 9192  22.842  23.845  13.400
42410W        W 9193  44.367  40.763  12.364
42411W        W 9194  29.953  40.858  13.838
42412W        W 9195  18.598  38.747   2.194
42413W        W 9196  43.058  35.069  10.623
42414W        W 9197  28.473  36.456  11.574
42415W        W 9198   8.617  15.685  14.255
42416W        W 9199  38.083  41.863   2.785
42417W        W 9200  38.110   3.415  11.633
42418W        W 9201  32.915  39.961   3.469
42419W        W 9202   1.480  39.901   4.643
42420W        W 9203  13.186   5.435   3.807
42421W        W 9204  16.326  42.548  13.498
42422W        W 9205  30.040  17.349   3.625
42423W        W 9206  27.488  31.584   5.077
42424W        W 9207   7.837  38.093  14.896
42425W        W 9208  21.008   6.785  11.657
42426W        W 9209  20.163  11.447   1.931
42427W        W 9210  36.574  34.861  12.030
42428W        W 9211   7.919  13.946  14.229
42429W        W 9212  16.269  20.255  13.166
42430W        W 9213  29.245  16.782  14.389
42431W        W 9214   3.774  28.947  10.617
42432W        W 9215  33.499   5.300  14.575
42433W        W 9216  20.777   9.083   2.708
42434W        W 9217   3.223  13.158   3.154
42435W        W 9218   4.905   2.232   1.749
42436W        W 9219  36.483  37.064   3.701
42437W        W 9220   8.832  27.535  10.664
42438W        W 9221  39.022   4.615  14.438
42439W        W 9222  16.398  14.684  12.017
42440W        W 9223  38.442   2.815  13.608
42441W        W 9224  18.205  38.279   1.299
42442W        W 9225  43.769   9.667  13.884
42443W        W 9226  44.940  44.377  11.412
42444W        W 9227  15.797  20.954  12.138
42445W        W 9228  34.119  34.537  12.784
42446W        W 9229  31.646  43.728  12.514
42447W        W 9230  24.997  14.799  12.794
42448W        W 9231   0.334  41.180  12.841
42449W        W 9232  34.869  32.535   3.437
42450W        W 9233  43.893  29.419  13.310
42451W        W 9234  34.547  22.205   0.130
42452W        W 9235  24.752  36.882  14.692
42453W        W 9236  40.022  27.262   3.803
42454W        W 9237  22.740  11.325   1.712
42455W        W 9238   7.809  34.517   0.002
42456W        W 9239   0.804  13.990  13.951
42457W        W 9240  20.385  18.253   0.383
42458W        W 9241  31.096   1.001  11.599
42459W        W 9242  32.147  14.895   0.373
42460W        W 9243   8.039   6.736  11.270
42461W        W 9244   2.188  40.082   2.575
42462W        W 9245  44.956  16.184   4.182
42463W        W 9246   7.105  33.479   0.904
42464W        W 9247  37.416  30.083   0.341
42465W        W 9248  27.528  12.375  11.613
42466W        W 9249  18.549  39.772  10.648
42467W        W 9250  18.344  18.676   4.700
42468W        W 9251   6.441  13.321  13.871
42469W        W 9252  42.425   5.316   2.263
42470W        W 9253   6.724  29.867  14.439
42471W        W 9254  21.959  20.482  13.034
42472W        W 9255  18.748  40.207  10.854
42473W        W 9256  26.727  16.740  11.086
42474W        W 9257   3.061  24.791  10.725
42475W        W 9258  17.115  23.586  14.114
42476W        W 9259  23.971  20.725  13.429
42477W        W 9260   5.435  16.454  14.386
42478W        W 9261  20.239   3.739   1.795
42479W        W 9262  27.973   4.625  12.079
42480W        W 9263  38.497   0.356   1.827
42481W        W 9264  32.622  44.597  10.138
42482W        W 9265   3.801  34.555   4.548
42483W        W 9266   5.447   3.923  13.479
42484W        W 9267  44.687   5.371   0.865
42485W        W 9268  32.032   7.949  14.831
42486W        W 9269   9.852   1.213   3.190
42487W        W 9270  41.125   2.924   3.192
42488W        W 9271  31.993  35.825   4.277
42489W        W 9272  15.451  25.903   2.602
42490W        W 9273   8.273  22.325  11.413
42491W        W 9274  34.210  37.747  14.548
42492W        W 9275   5.096  26.655  13.346
42493W        W 9276  38.341  34.200   0.309
42494W        W 9277  31.455  10.221  14.065
42495W        W 9278  38.881   8.970   3.803
42496W        W 9279   6.489  39.961   2.722
42497W        W 9280   2.255  27.713  12.970
42498W        W 9281   4.759  40.163   4.755
42499W        W 9282   1.483  39.827  11.212
42500W        W 9283  19.657  42.002   3.782
42501W        W 9284  28.059  32.962   3.797
42502W        W 9285  25.159  23.821   5.128
42503W        W 9286   9.814  37.471  11.482
42504W        W 9287  20.534  13.764   2.350
42505W        W 9288   6.516  41.236  13.016
42506W        W 9289  43.786  38.832   0.314
42507W        W 9290  15.730  22.122   1.688
42508W        W 9291   1.782  19.429  13.251
42509W        W 9292  34.620  15.668   1.557
42510W        W 9293  17.278  42.817  11.333
42511W        W 9294  36.844  16.527  13.675
42512W        W 9295  35.958   8.670   2.782
42513W        W 9296  33.128  34.418   2.046
42514W        W 9297  29.923   1.159  11.939
42515W        W 9298  17.937  32.574  13.431
42516W        W 9299  37.025   3.797  12.937
42517W        W 9300  25.818  19.382  13.263
42518W        W 9301  42.602   5.857  11.533
42519W        W 9302  39.889   1.934   4.481
42520W        W 9303  25.530  18.778   0.878
42521W        W 9304  30.545  36.909  11.057
42522W        W 9305  42.679   9.785   3.454
42523W        W 9306   4.753  22.168  13.695
42524W        W 9307  11.954  38.870   3.621
42525W        W 9308  25.064   7.102   1.964
42526W        W 9309  21.354  44.973   3.071
42527W        W 9310  28.209  16.568  12.999
42528W        W 9311  32.719  38.534   1.853
42529W        W 9312  18.147   3.273  14.815
42530W        W 9313  11.802  40.952   3.856
42531W        W 9314   6.753  14.061  12.567
42532W        W 9315   1.980  26.371   3.301
42533W        W 9316  31.677  39.047   2.171
42534W        W 9317   6.325   9.203   1.708
42535W        W 9318  43.726   8.684   0.905
42536W        W 9319   7.935  24.887   0.419
42537W        W 9320  11.548  10.333  12.224
42538W        W 9321  11.420  26.962  12.155
42539W        W 9322  43.654  12.270  13.577
42540W        W 9323  21.165  14.580  11.591
42541W        W 9324   4.441  32.128  13.296
42542W        W 9325  10.121  18.168   3.303
42543W        W 9326  27.947  17.714   3.830
42544W        W 9327  41.035  28.463   1.419
42545W        W 9328  16.558  36.507  11.967
42546W        W 9329  34.592  39.526   0.382
42547W        W 9330  21.607   7.732  13.823
42548W        W 9331  35.992  16.171   2.485
42549W        W 9332  39.240  38.853   0.731
42550W        W 9333  18.705  17.546   0.898
42551W        W 9334  40.346   0.858   2.172
42552W        W 9335  44.757  33.680   2.657
42553W        W 9336   2.505  41.535   4.629
42554W        W 9337  27.485  11.857  14.538
42555W        W 9338   4.484  23.579   4.869
42556W        W 9339  18.616  22.721   5.081
42557W        W 9340  38.803  15.788   1.156
42558W        W 9341  30.616   1.028  11.115
42559W        W 9342  17.536  13.603   4.452
42560W        W 9343  43.129  19.075  13.581
42561W        W 9344  15.398   4.340   1.252
42562W        W 9345  16.380  13.688   0.870
42563W        W 9346  11.619  32.607  13.112
42564W        W 9347  27.904  20.698   3.267
42565W        W 9348  25.429   0.987   4.687
42566W        W 9349   5.113   5.891  11.649
42567W        W 9350  33.491  39.100   2.136
42568W        W 9351   7.640   5.830  13.454
42569W        W 9352  34.255  44.728   2.376
42570W        W 9353  30.085  35.130   0.470
42571W        W 9354  32.135  30.562   3.255
42572W        W 9355  21.552  11.623  14.852
42573W        W 9356   4.261  24.678   0.739
42574W        W 9357  42.021  31.934   0.463
42575W        W 9358   1.170   0.460  13.346
42576W        W 9359  31.460  44.413   2.378
42577W        W 9360  27.993  19.718   2.843
42578W        W 9361   6.115  22.241  12.957
42579W        W 9362  18.225  25.190   1.632
42580W        W 9363   5.062  32.617  10.300
42581W        W 9364   5.711  31.612  12.404
42582W        W 9365  37.308  14.723  11.102
42583W        W 9366  10.317  10.965   4.917
42584W        W 9367  24.560  15.012   3.147
42585W        W 9368  35.920   5.289  12.578
42586W        W 9369  25.659   0.787   2.353
42587W        W 9370  38.873  37.005   2.216
42588W        W 9371  26.630   1.896   3.343
42589W        W 9372   6.203  17.171  10.779
42590W        W 9373   7.278   6.253   1.225
42591W        W 9374  14.575  44.726   1.315
42592W        W 9375  30.919  41.593   1.231
42593W        W 9376  30.035   9.232   1.971
42594W        W 9377   8.237  13.770   1.657
42595W        W 9378  35.510  39.410   3.372
42596W        W 9379  26.587  43.952   4.560
42597W        W 9380  36.592  23.992   4.813
42598W        W 9381   3.500  39.614   3.059
42599W        W 9382  28.402   1.524   2.226
42600W        W 9383   7.012  40.717  12.195
42601W        W 9384  42.842  30.127  14.849
42602W        W 9385  17.880  10.880  12.819
42603W        W 9386  30.375  21.663   5.070
42604W        W 9387  42.311  39.422  12.670
42605W        W 9388  13.696   3.479   1.409
42606W        W 9389  30.483  29.258  11.440
42607W        W 9390   7.954  10.225  14.490
42608W        W 9391  10.306  21.104   3.751
42609W        W 9392  26.136   4.431  12.194
42610W        W 9393  44.129  39.847   4.362
42611W        W 9394  16.545   7.734   1.041
42612W        W 9395  36.494  25.052   3.139
42613W        W 9396  30.237  29.197   0.913
42614W        W 9397  38.327  42.313   4.662
42615W        W 9398  31.852   7.358   3.505
42616W        W 9399  38.152  13.735  10.719
42617W        W 9400  24.513  23.402   1.467
42618W        W 9401  17.109  34.239  12.975
42619W        W 9402  19.112  27.215   3.763
42620W        W 9403  19.709   7.083   5.018
42621W        W 9404  25.414  44.535  11.885
42622W        W 9405   2.203  21.005   3.135
42623W        W 9406  30.983  29.589   2.001
42624W        W 9407   1.944  17.374  12.759
42625W        W 9408   4.958   4.962   0.483
42626W        W 9409  17.841  16.333   3.433
42627W        W 9410   0.005  38.145  13.616
42628W        W 9411  23.714  27.016   1.645
42629W        W 9412  37.629  41.564   0.613
42630W        W 9413   4.454  29.385  14.727
42631W        W 9414  20.109  32.534   2.484
42632W        W 9415  29.565  37.949  14.554
42633W        W 9416  13.176   7.711  14.680
42634W        W 9417   8.832  44.009   3.618
42635W        W 9418  40.997  34.908   1.724
42636W        W 9419   1.771  18.270   2.455
42637W        W 9420  35.134  24.213   4.417
42638W        W 9421  31.820  42.447   0.596
42639W        W 9422  16.167  18.130  14.405
42640W        W 9423  29.625  23.704   2.161
42641W        W 9424  23.660  18.822  11.680
42642W        W 9425  15.346  27.481   3.664
42643W        W 9426  10.478  26.144   0.334
42644W        W 9427  19.231  20.703  11.577
42645W        W 9428  30.672  39.973   4.551
42646W        W 9429  13.678  26.964  10.622
42647W        W 9430  43.243  43.506  14.837
42648W        W 9431  10.692  41.114  11.063
42649W        W 9432  38.128   5.231  13.089
42650W        W 9433   0.839  21.347  13.810
42651W        W 9434  19.077  24.009  11.107
42652W        W 9435  29.023  26.723  10.941
42653W        W 9436  42.050  35.502   2.292
42654W        W 9437   4.963  22.242   2.267
42655W        W 9438  38.156  26.212  13.097
42656W        W 9439   7.780  43.483   3.104
42657W        W 9440   2.958  43.897   4.846
42658W        W 9441   3.020  17.437  11.080
42659W        W 9442  32.008  22.944  12.211
42660W        W 9443  14.198   0.478  11.564
42661W        W 9444  31.396  40.744  11.660
42662W        W 9445   8.074  21.063  14.450
42663W        W 9446   0.922  14.812  14.585
42664W        W 9447  35.443  19.179  12.513
42665W        W 9448  16.702  20.446  10.998
42666W        W 9449  24.959  42.877  14.042
42667W        W 9450  35.151  15.603   2.848
42668W        W 9451  17.172  26.642  13.117
42669W        W 9452  32.971   4.215   0.366
42670W        W 9453  44.460  29.175   2.956
42671W        W 9454  26.173  21.710  12.449
42672W        W 9455  33.513  17.186  12.846
42673W        W 9456  10.923  32.932  12.160
42674W        W 9457   7.915  37.057   3.982
42675W        W 9458  35.109   8.005   5.011
42676W        W 9459  10.129  26.122   2.330
42677W        W 9460  44.089  15.213   1.386
42678W        W 9461  39.325  12.225   4.597
42679W        W 9462  20.773  33.867   0.291
42680W        W 9463   6.199   8.238   0.023
42681W        W 9464  42.321  22.484   4.496
42682W        W 9465   9.782  17.570   4.123
42683W        W 9466  21.771  14.726   5.781
42684W        W 9467  33.876  36.150  13.324
42685W        W 9468   3.339  30.731   0.494
42686W        W 9469  43.772  26.893   1.149
42687W        W 9470  23.158   7.716   2.763
42688W        W 9471  27.573  10.762   3.925
42689W        W 9472   3.372   8.423  11.608
42690W        W 9473   7.379  38.041  10.690
42691W        W 9474  22.575  28.601  11.766
42692W        W 9475   5.834   6.918   1.841
42693W        W 9476  16.833  33.028  10.971
42694W        W 9477  16.242  12.628   0.918
42695W        W 9478  22.245   1.861  14.627
42696W        W 9479  42.502  40.401   3.885
42697W        W 9480  19.480  16.790   4.641
42698W        W 9481  10.999  21.241   2.130
42699W        W 9482  37.614  22.319   4.948
42700W        W 9483   9.213  40.083   0.445
42701W        W 9484  18.273  35.968   3.757
42702W        W 9485  21.494  11.933   1.371
42703W        W 9486  17.701  38.551  11.925
42704W        W 9487  40.281  16.118  12.548
42705W        W 9488  14.234   1.622  11.140
42706W        W 9489   1.765  11.794  14.451
42707W        W 9490  35.665  39.851   2.163
42708W        W 9491  24.168   6.978   1.760
42709W        W 9492  19.899  30.094   2.734
42710W        W 9493   1.393   7.761  10.857
42711W        W 9494  10.677  25.444   4.040
42712W        W 9495   4.180  31.597   3.171
42713W        W 9496  37.497   9.353   2.273
42714W        W 9497  11.104  15.845   3.245
42715W        W 9498  41.065  31.598   0.346
42716W        W 9499  44.928   4.499  11.628
42717W        W 9500  10.416   4.774  11.600
42718W        W 9501  30.004   5.250  11.136
42719W        W 9502  23.747  21.526  13.545
42720W        W 9503  25.885  44.781  12.995
42721W        W 9504  12.557  14.965  14.925
42722W        W 9505  17.590  40.461   2.714
42723W        W 9506  12.928  35.522  10.689
42724W        W 9507  26.158  21.025   3.921
42725W        W 9508  34.375  30.612  14.322
42726W        W 9509  40.063   9.145   1.395
42727W        W 9510  20.991  41.625  14.389
42728W        W 9511  18.107   6.610   4.057
42729W        W 9512  43.297  22.309  14.003
42730W        W 9513  32.594  37.163   1.823
42731W        W 9514  20.123   3.885  14.748
42732W        W 9515  12.552  35.820  13.394
42733W        W 9516  19.904  10.634  14.383
42734W        W 9517  25.735   8.266   0.902
42735W        W 9518  39.831   8.959   3.787
42736W        W 9519  43.238  36.322  12.010
42737W        W 9520  13.720  24.502   2.896
42738W        W 9521  29.199  44.411  11.539
42739W        W 9522  15.791  24.311  10.707
42740W        W 9523  38.612  41.056  12.937
42741W        W 9524  21.776  29.421   3.793
42742W        W 9525   6.660  42.260   4.813
42743W        W 9526   6.675  12.540  13.166
42744W        W 9527  12.287  35.110   1.286
42745W        W 9528   8.681   2.427   1.399
42746W        W 9529   6.985  10.321  12.307
42747W        W 9530  15.329   9.159   1.778
42748W        W 9531  43.613  29.488   0.781
42749W        W 9532  31.869   0.870  12.047
42750W        W 9533   6.457  37.438  12.357
42751W        W 9534  15.145  13.656   0.473
42752W        W 9535   6.658  20.234   1.352
42753W        W 9536  15.355  26.547  14.866
42754W        W 9537  15.690   5.511  11.964
42755W        W 9538  11.799  11.127  14.920
42756W        W 9539  43.661  27.614   3.084
42757W        W 9540  36.714  14.267   2.176
42758W        W 9541  27.022  33.228   1.645
42759W        W 9542  40.235   2.821  14.370
42760W        W 9543  27.618  28.532  14.683
42761W        W 9544  20.500  21.610  12.286
42762W        W 9545  26.897  41.050  12.541
42763W        W 9546  30.491  18.981   4.786
42764W        W 9547  43.434  26.151   0.227
42765W        W 9548  11.972  29.143   1.072
42766W        W 9549  23.154  41.590   2.738
42767W        W 9550   2.693  34.339   0.998
42768W        W 9551  14.828  14.151   5.128
42769W        W 9552  33.695  34.932  10.278
42770W        W 9553  41.484  41.958   1.921
42771W        W 9554  15.990  44.381  13.324
42772W        W 9555  25.612  23.011  12.026
42773W        W 9556  42.392  10.200   0.464
42774W        W 9557   4.955  32.512  13.645
42775W        W 9558  35.808  38.344   0.348
42776W        W 9559  17.111  38.357   4.551
42777W        W 9560  14.079  37.820   1.489
42778W        W 9561  11.125  40.064   1.243
42779W        W 9562   1.838  36.784   0.295
42780W        W 9563  25.811  35.488   4.775
42781W        W 9564  15.793  22.579   5.008
42782W        W 9565  32.491  10.250   1.702
42783W        W 9566  32.172   7.831  11.977
42784W        W 9567  34.855  31.336  13.924
42785W        W 9568  35.932  24.868   2.216
42786W        W 9569  12.174  32.463  13.697
42787W        W 9570  27.148  11.301   3.977
42788W        W 9571  38.784  44.365  14.996
42789W        W 9572  19.336  15.616  12.975
42790W        W 9573  15.605  37.392  14.854
42791W        W 9574  44.381  37.944   2.764
42792W        W 9575  19.211  31.531   4.798
42793W        W 9576  42.716   7.647   0.897
42794W        W 9577  25.675  39.051   2.840
42795W        W 9578  36.964  10.294  10.624
42796W        W 9579  11.297  26.493  12.351
42797W        W 9580  37.375  37.071   1.251
42798W        W 9581   5.183   8.626   4.192
42799W        W 9582  17.115  11.994   3.886
42800W        W 9583  15.709   3.886  11.905
42801W        W 9584  16.957   8.275  10.825
42802W        W 9585   8.575   1.381   0.941
42803W        W 9586  24.558  41.027  11.848
42804W        W 9587  14.318  16.833   4.197
42805W        W 9588  30.977   0.821  14.738
42806W        W 9589  37.854  26.588   3.753
42807W        W 9590  29.706   2.671   4.122
42808W        W 9591  34.810  10.486  12.423
42809W        W 9592   4.858  15.095   4.606
42810W        W 9593  11.305  23.136  10.643
42811W        W 9594   7.620  29.579  14.878
42812W        W 9595  44.390  11.670   1.742
42813W        W 9596   6.310  12.757  10.818
42814W        W 9597  10.675   8.683   0.621
42815W        W 9598  28.932  27.466   4.206
42816W        W 9599  41.316  22.940  14.932
42817W        W 9600  31.120   8.265  11.533
42818W        W 9601   3.185  36.906   2.698
42819W        W 9602   9.816  41.571   0.029
42820W        W 9603  15.398  29.075  13.402
42821W        W 9604   3.903  25.804   0.829
42822W        W 9605   9.602  20.120   0.353
42823W        W 9606  41.025   4.434   1.506
42824W        W 9607  30.524  39.519   0.251
42825W        W 9608  40.985  44.860  11.124
42826W        W 9609  20.066  34.058  12.432
42827W        W 9610  34.395  26.028  14.915
42828W        W 9611  11.468  35.277  14.503
42829W        W 9612  38.767  30.108   1.496
42830W        W 9613   2.739   5.365  11.135
42831W        W 9614  38.033  40.994   0.994
42832W        W 9615   6.863  36.383  13.540
42833W        W 9616  38.963   2.510   4.629
42834W        W 9617  39.505  28.536   4.387
42835W        W 9618  28.919  29.631  14.387
42836W        W 9619   1.688  17.853  13.892
42837W        W 9620  15.285  18.639  12.451
42838W        W 9621  42.406  20.963  14.283
42839W        W 9622  13.169  36.846   1.745
42840W        W 9623  25.728  22.248  12.620
42841W        W 9624   0.030   6.008  13.989
42842W        W 9625  42.089  14.135  13.081
42843W        W 9626  21.002   3.950   2.305
42844W        W 9627   5.050  25.688   1.324
42845W        W 9628   3.626   8.228  14.774
42846W        W 9629  20.135  44.672   0.061
42847W        W 9630   2.718   0.855   1.160
42848W        W 9631  29.120  29.168   0.316
42849W        W 9632  18.009  43.343   3.236
42850W        W 9633  27.998  20.225  14.801
42851W        W 9634   5.252  29.848  11.169
42852W        W 9635   9.621  13.924   0.439
42853W        W 9636  23.401  34.503   0.769
42854W        W 9637   5.472  24.605  14.331
42855W        W 9638   9.123  29.805   4.142
42856W        W 9639  16.758   4.129  13.852
42857W        W 9640  44.779   0.518   1.187
42858W        W 9641  27.068  41.426  13.290
42859W        W 9642  29.049  19.525  10.677
42860W        W 9643   9.717  12.123   0.850
42861W        W 9644  33.502  17.327   2.739
42862W        W 9645  27.284  44.750   0.896
42863W        W 9646  40.031  22.025  11.482
42864W        W 9647  39.859  35.012   0.221
42865W        W 9648   7.870  19.967   1.189
42866W        W 9649  38.446  11.921  14.983
42867W        W 9650  23.470  18.719   4.503
42868W        W 9651  43.462   4.722   0.923
42869W        W 9652  13.086   9.756  14.753
42870W        W 9653  34.875  33.989  14.339
42871W        W 9654  12.934  12.656   4.699
42872W        W 9655  14.298   1.459   2.449
42873W        W 9656  43.843  35.877  14.141
42874W        W 9657  32.779  39.407   4.254
42875W        W 9658   9.197  19.499   3.124
42876W        W 9659  11.820  42.687   4.761
42877W        W 9660   1.334   9.168  12.068
42878W        W 9661   5.266  18.770   0.181
42879W        W 9662   1.961  12.714  12.996
42880W        W 9663  35.878  13.835  13.803
42881W        W 9664  29.345  34.917  10.402
42882W        W 9665   6.478   8.354  10.396
42883W        W 9666  21.287   0.873  12.531
42884W        W 9667   1.246  39.547   3.828
42885W        W 9668   1.831  34.981   4.158
42886W        W 9669   6.630  12.135   3.314
42887W        W 9670  24.069   0.847   3.151
42888W        W 9671  37.367  18.488  14.855
42889W        W 9672   1.710  44.678   4.123
42890W        W 9673  34.411   7.416  12.017
42891W        W 9674   3.658  29.772   1.434
42892W        W 9675  39.468  31.856  14.456
42893W        W 9676  10.687  37.928  14.395
42894W        W 9677  42.341  25.787   0.263
42895W        W 9678   3.862  13.234  12.893
42896W        W 9679  16.585   6.180  11.358
42897W        W 9680  33.463   6.681   2.867
42898W        W 9681  38.216   0.425   4.625
42899W        W 9682   4.833   9.372   2.288
42900W        W 9683  37.501  42.839   3.765
42901W        W 9684  19.121  17.672   3.530
42902W        W 9685  15.109   5.825   3.672
42903W        W 9686  28.866  38.398   3.629
42904W        W 9687  15.094   5.920   4.217
42905W        W 9688  16.072  24.539  14.389
42906W        W 9689   4.806   2.633   2.580
42907W        W 9690  24.881  18.554  12.295
42908W        W 9691  37.887  22.946  12.574
42909W        W 9692  36.966   2.408   1.244
42910W        W 9693  42.385  24.047   3.863
42911W        W 9694  31.144  14.593   3.355
42912W        W 9695  42.999   4.339  11.482
42913W        W 9696  15.231  28.669   0.772
42914W        W 9697   5.102  20.052   0.245
42915W        W 9698  14.802  44.146   0.477
42916W        W 9699  32.324  32.563   4.572
42917W        W 9700  15.380  35.138  12.474
42918W        W 9701  35.047  15.479   0.283
42919W        W 9702  25.666  13.617   3.649
42920W        W 9703  34.372   1.062   0.430
42921W        W 9704   2.861  36.461   0.529
42922W        W 9705   4.436  44.644   0.255
42923W        W 9706  42.464  29.254  12.252
42924W        W 9707  41.118  36.916   4.666
42925W        W 9708  28.326  38.427   2.749
42926W        W 9709  24.546  32.523  12.094
42927W        W 9710   1.159  35.582   0.462
42928W        W 9711  39.013  43.366   0.439
42929W        W 9712  19.592   0.547  12.817
42930W        W 9713  26.463   0.993  10.450
42931W        W 9714  38.731  37.442   4.438
42932W        W 9715  19.564   8.153   2.540
42933W        W 9716   3.287  32.477  12.714
42934W        W 9717  39.826  32.631   4.285
42935W        W 9718  22.324  10.627  14.919
42936W        W 9719  11.207  37.705   3.166
42937W        W 9720  21.025  25.080  12.833
42938W        W 9721  39.635   4.194   2.715
42939W        W 9722   5.607  40.303  10.647
42940W        W 9723  23.974   7.395   2.237
42941W        W 9724  34.551  25.886  13.560
42942W        W 9725  25.068  39.601   4.744
42943W        W 9726   4.466  30.018   0.344
42944W        W 9727  21.129  39.889   2.163
42945W        W 9728   0.487  14.396   2.736
42946W        W 9729  35.135  26.981  12.486
42947W        W 9730  25.322  28.172  13.378
42948W        W 9731  35.821  24.137  13.475
42949W        W 9732  37.074  42.988   1.815
42950W        W 9733  19.894   7.259   4.558
42951W        W 9734  25.615  11.181   1.165
42952W        W 9735  23.192  19.928   0.008
42953W        W 9736   2.755  27.958   4.865
42954W        W 9737  12.557  29.499   0.342
42955W        W 9738   9.790   3.459  12.504
42956W        W 9739  23.100   4.492  10.950
42957W        W 9740   1.934  43.917   2.287
42958W        W 9741  23.479  41.087   0.802
42959W        W 9742  29.175   4.303  13.494
42960W        W 9743  11.462  15.241  13.481
42961W        W 9744  21.002  30.473  12.911
42962W        W 9745  39.110  29.415  12.507
42963W        W 9746   5.667  44.523   3.639
42964W        W 9747  35.543  38.841   1.401
42965W        W 9748   1.316  23.636  14.983
42966W        W 9749  23.146  10.143  12.161
42967W        W 9750  26.680  28.537  12.623
42968W        W 9751  30.608  13.131   0.329
42969W        W 9752  27.624  40.984   1.767
42970W        W 9753  11.193   4.686   1.741
42971W        W 9754   6.392  15.112   1.304
42972W        W 9755  12.579   9.010  14.944
42973W        W 9756  10.182  36.786  12.897
42974W        W 9757  37.858  15.184   3.286
42975W        W 9758   6.927  24.811   4.574
42976W        W 9759  37.126  16.127   2.196
42977W        W 9760  41.945  30.948   2.202
42978W        W 9761  44.411  25.344   1.781
42979W        W 9762  33.450   9.413   3.067
42980W        W 9763  36.030  11.901  12.218
42981W        W 9764  30.168   8.361  11.503
42982W        W 9765   2.718  36.103  13.595
42983W        W 9766  16.495  35.861   3.711
42984W        W 9767  35.850  33.549  11.586
42985W        W 9768  31.707  33.795  11.187
42986W        W 9769  26.658   8.043   3.358
42987W        W 9770  43.223  44.350   2.851
42988W        W 9771  17.623  40.438   2.133
42989W        W 9772   7.383  10.576  11.151
42990W        W 9773  15.331  38.970   1.040
42991W        W 9774  29.974   6.667   0.852
42992W        W 9775  30.502  32.384   2.358
42993W        W 9776  23.117   2.841   1.258
42994W        W 9777  11.561  40.654  13.549
42995W        W 9778   5.734   5.825  10.969
42996W        W 9779   2.695   8.381  12.931
42997W        W 9780  18.529  33.344  14.264
42998W        W 9781  19.245  28.576  14.242
42999W        W 9782  33.759  39.049  12.852
43000W        W 9783  19.154  29.894   1.029
43001W        W 9784  44.481  33.460  12.991
43002W        W 9785   2.527  39.172  11.987
43003W        W 9786  29.248  39.784  12.969
43004W        W 9787  18.980  14.757  13.084
43005W        W 9788   5.393  22.495  13.047
43006W        W 9789  27.556  36.631   1.331
43007W        W 9790  27.946  19.605   3.707
43008W        W 9791   5.115   1.383   3.273
43009W        W 9792  37.695  27.384  12.445
43010W        W 9793  16.833   3.725   0.275
43011W        W 9794  40.036  43.480  13.538
43012W        W 9795  16.127  22.098  11.816
43013W        W 9796   2.793  40.299  11.583
43014W        W 9797  16.665  17.004  14.771
43015W        W 9798  10.144  36.134  10.996
43016W        W 9799  29.215  41.873   2.825
43017W        W 9800  34.921   5.384   3.409
43018W        W 9801   2.424  43.664  14.290
43019W        W 9802   2.436  42.479  10.760
43020W        W 9803  20.263  22.946   0.387
43021W        W 9804  44.191   8.829  13.847
43022W        W 9805  15.183  42.523   1.791
43023W        W 9806  44.489  11.352  13.509
43024W        W 9807   2.878  31.870   1.701
43025W        W 9808  25.911  32.740   3.212
43026W        W 9809   9.951  41.720  11.494
43027W        W 9810   5.846  13.783   3.752
43028W        W 9811  42.751  26.915   2.710
43029W        W 9812  14.339  41.819   0.934
43030W        W 9813  17.691  42.368   3.669
43031W        W 9814  39.384  18.140  11.591
43032W        W 9815  28.317  36.456  11.083
43033W        W 9816  25.706   7.841   0.295
43034W        W 9817   4.533  27.604  10.547
43035W        W 9818  38.159  33.232  11.539
43036W        W 9819  40.490  43.661  14.759
43037W        W 9820  12.650  35.030   0.296
43038W        W 9821  31.431   4.407   1.276
43039W        W 9822  43.271  12.305  14.969
43040W        W 9823  15.239  36.956   3.340
43041W        W 9824  15.573  36.840   2.293
43042W        W 9825  41.969   5.968  10.444
43043W        W 9826  28.084  42.799  14.004
43044W        W 9827  26.035   9.669  12.462
43045W        W 9828  36.077  29.610   2.151
43046W        W 9829  15.136  42.961   2.066
43047W        W 9830   7.299  43.394  13.270
43048W        W 9831  39.832   6.424   3.748
43049W        W 9832  40.378   0.244   0.650
43050W        W 9833   0.441  36.018   3.645
43051W        W 9834  42.736   0.545   0.249
43052W        W 9835  18.631   3.487  13.912
43053W        W 9836  10.614  33.721   5.134
43054W        W 9837  38.304   7.450  13.354
43055W        W 9838  40.556  33.010  11.536
43056W        W 9839  30.041  30.649  13.517
43057W        W 9840  20.068  20.018  12.944
43058W        W 9841  44.287  35.810   1.559
43059W        W 9842  30.971  16.800  13.908
43060W        W 9843  33.554  34.216   3.252
43061W        W 9844  27.748  23.486  11.027
43062W        W 9845   8.631  23.554   0.808
43063W        W 9846   7.731  23.998   3.201
43064W        W 9847  25.428  10.139   3.220
43065W        W 9848   0.449  24.731  11.129
43066W        W 9849   1.301  40.413  13.510
43067W        W 9850   7.871   0.382   2.118
43068W        W 9851  30.803  11.252   2.761
43069W        W 9852   0.756  18.693   2.754
43070W        W 9853  14.676   5.225  12.080
43071W        W 9854  19.042   1.992  11.710
43072W        W 9855  17.098   6.927   3.372
43073W        W 9856  34.486   7.153  11.565
43074W        W 9857  37.990  11.076  12.950
43075W        W 9858  44.998   6.917  11.795
43076W        W 9859  27.075  39.283  10.741
43077W        W 9860  33.548   2.174  10.696
43078W        W 9861  20.982  23.579  13.050
43079W        W 9862  17.251  37.498  12.449
43080W        W 9863   6.140  20.158   1.341
43081W        W 9864  41.286  23.046  13.999
43082W        W 9865  32.486  15.382  14.047
43083W        W 9866   2.695  32.119   0.318
43084W        W 9867   0.448  40.837   3.783
43085W        W 9868  11.792  13.600  14.980
43086W        W 9869   6.787  31.868   0.529
43087W        W 9870  29.768   6.213   2.116
43088W        W 9871  21.645  44.337  13.031
43089W        W 9872  43.301  39.242   0.740
43090W        W 9873  43.578   3.263  12.907
43091W        W 9874  33.634  39.828   0.349
43092W        W 9875  28.897   1.817   0.026
43093W        W 9876   7.945  41.873  12.953
43094W        W 9877  30.345   4.990   4.082
43095W        W 9878  24.552   1.502  12.035
43096W        W 9879  15.629  33.919   0.953
43097W        W 9880   3.872  26.651   9.890
43098W        W 9881  28.086  33.659  10.685
43099W        W 9882  25.330  35.577   1.205
43100W        W 9883  11.958   3.789  11.617
43101W        W 9884  39.872   3.958   2.310
43102W        W 9885  40.692  43.987  12.342
43103W        W 9886  10.389  14.955  13.595
43104W        W 9887   9.239   5.862  13.369
43105W        W 9888  36.397  41.545  12.069
43106W        W 9889  27.563  15.138  13.421
43107W        W 9890  35.526  42.254   1.795
43108W        W 9891  34.545  26.162   2.861
43109W        W 9892   1.058  39.546  10.520
43110W        W 9893  16.741   6.242  14.781
43111W        W 9894  18.277   6.733   2.233
43112W        W 9895   0.692  26.061   3.116
43113W        W 9896  42.542  13.105   0.858
43114W        W 9897  15.110  44.653  11.121
43115W        W 9898  21.209  26.236  10.874
43116W        W 9899   2.128  20.602   3.778
43117W        W 9900   8.628  15.512  10.737
43118W        W 9901  44.580  40.887   4.178
43119W        W 9902  26.437   3.845   1.409
43120W        W 9903  35.559  33.933  12.545
43121W        W 9904  12.768  34.777  11.508
43122W        W 9905   9.780  16.781   3.620
43123W        W 9906  28.661   0.017   2.339
43124W        W 9907   4.281   7.250  14.275
43125W        W 9908  35.083  15.337  13.831
43126W        W 9909  11.604  29.455   3.188
43127W        W 9910   8.825  36.714  10.680
43128W        W 9911  25.495  30.511  11.484
43129W        W 9912  13.411  24.839   0.789
43130W        W 9913  34.534  26.063  11.852
43131W        W 9914   5.335   9.304  14.607
43132W        W 9915  25.980  15.212  10.750
43133W        W 9916   0.047  18.720   4.130
43134W        W 9917  25.497   2.205   4.177
43135W        W 9918  28.553   4.698   3.705
43136W        W 9919  17.502  17.137   4.478
43137W        W 9920  20.881  12.898   2.686
43138W        W 9921   7.266  12.787  10.700
43139W        W 9922  44.736   5.753   0.510
43140W        W 9923  31.942  39.103   3.849
43141W        W 9924  37.304  16.559  10.113
43142W        W 9925  29.521   9.343   1.182
43143W        W 9926  42.457  28.597   0.403
43144W        W 9927   0.298  42.851  10.809
43145W        W 9928  34.159   2.419  13.528
43146W        W 9929  36.194   7.496   3.602
43147W        W 9930  23.623   1.647  11.989
43148W        W 9931  13.570  24.032   4.540
43149W        W 9932  44.557  38.948  10.288
43150W        W 9933  17.511  33.614   4.254
43151W        W 9934   7.446  21.983  14.866
43152W        W 9935   1.674  29.667   1.200
43153W        W 9936   6.441  26.221   1.289
43154W        W 9937   2.707  29.058   3.342
43155W        W 9938  21.666  16.800  11.385
43156W        W 9939  27.475  29.641   1.846
43157W        W 9940   3.638  20.614   4.575
43158W        W 9941  38.448  23.035  13.908
43159W        W 9942  37.846   3.159  10.819
43160W        W 9943  23.666   0.704   2.252
43161W        W 9944  21.067   3.295   3.174
43162W        W 9945  20.455   0.305   0.757
43163W        W 9946  41.477  24.480  14.056
43164W        W 9947  18.628   0.945  13.140
43165W        W 9948  32.448   3.713   1.301
43166W        W 9949  44.844  36.884  11.546
43167W        W 9950   6.868   6.303  10.571
43168W        W 9951   0.959   9.107   3.114
43169W        W 9952  38.442  16.812   3.425
43170W        W 9953  44.027  11.217   3.134
43171W        W 9954  29.398  39.369  13.873
43172W        W 9955   2.143  33.809  11.103
43173W        W 9956  19.660   6.867  14.471
43174W        W 9957   5.052  22.433  11.030
43175W        W 9958  29.148  15.579  10.448
43176W        W 9959  29.066  18.693   4.463
43177W        W 9960  30.449   5.069  12.700
43178W        W 9961  40.317  28.958   1.735
43179W        W 9962  37.463  19.133   3.295
43180W        W 9963   9.276  19.674   0.690
43181W        W 9964  33.961  29.683  14.267
43182W        W 9965   8.938   4.238  14.307
43183W        W 9966  36.964  40.643  13.294
43184W        W 9967   1.786   2.518   2.253
43185W        W 9968  33.512  31.081   2.212
43186W        W 9969  11.553  28.196  11.049
43187W        W 9970  23.039  37.303   3.388
43188W        W 9971  34.627   0.945  13.418
43189W        W 9972  16.369  38.316  12.548
43190W        W 9973  25.530  27.277  13.361
43191W        W 9974   2.904  27.988  12.457
43192W        W 9975   8.288  33.802   2.251
43193W        W 9976  12.940  32.215  14.359
43194W        W 9977   7.232  27.349   0.429
43195W        W 9978  12.693  24.568  14.465
43196W        W 9979  32.018   0.477  12.373
43197W        W 9980  21.312  32.154  14.803
43198W        W 9981  29.634  23.118   1.874
43199W        W 9982  38.925   5.928   4.611
43200W        W 9983  37.085  34.031   3.081
43201W        W 9984  16.600  14.017   2.182
43202W        W 9985  29.553  34.561  11.874
43203W        W 9986  17.162  33.502  11.483
43204W        W 9987  21.386   6.385   4.922
43205W        W 9988  21.389  28.043  13.535
43206W        W 9989  36.387  27.187  12.198
43207W        W 9990  40.284  29.439  13.091
43208W        W 9991  14.381  42.889  13.372
43209W        W 9992   2.180  39.392   3.680
43210W        W 9993  28.661  19.526  11.013
43211W        W 9994   3.924  23.065   4.054
43212W        W 9995  12.285  19.988  13.365
43213W        W 9996   1.153  23.110  11.535
43214W        W 9997  25.576  42.030   3.352
43215W        W 9998   0.843  13.773  11.871
43216W        W 9999  24.762  21.213   1.453
43217W        W10000  33.391  27.568   4.942
43218W        W10001   8.638  37.825  12.065
43219W        W10002  43.298  15.453   0.414
43220W        W10003  40.728  21.576  14.707
43221W        W10004  24.009  32.857  14.000
43222W        W10005  35.011   1.948   0.447
43223W        W10006   5.717   0.007  12.504
43224W        W10007   5.803  36.430   4.267
43225W        W10008  21.219  15.348   3.596
43226W        W10009  41.912  35.950   4.089
43227W        W10010  20.158  23.679  12.047
43228W        W10011   2.679  30.161   1.426
43229W        W10012  29.620  25.749  14.719
43230W        W10013   0.820   9.401   4.642
43231W        W10014  34.718  37.486  13.167
43232W        W10015  34.951  43.284  12.651
43233W        W10016   2.995   9.688  12.497
43234W        W10017  29.476  28.875  10.466
43235W        W10018  20.104  30.833  10.622
43236W        W10019  42.627  18.435   5.021
43237W        W10020  18.295  11.643   4.415
43238W        W10021  31.887  11.279   0.383
43239W        W10022   3.653  35.883   0.253
43240W        W10023  28.438  22.730   2.680
43241W        W10024  26.736  35.453   3.183
43242W        W10025  42.035  19.627  14.667
43243W        W10026  38.488  44.536   4.730
43244W        W10027   5.245  43.371   2.827
43245W        W10028   5.604   5.913  12.004
43246W        W10029  17.801  32.969  14.346
43247W        W10030  21.144  39.519  12.541
43248W        W10031   9.277   0.609   4.154
43249W        W10032  14.075   5.481   4.724
43250W        W10033  13.623   6.381  10.936
43251W        W10034  29.927   4.127   4.055
43252W        W10035  21.712  28.530  11.186
43253W        W10036  11.006  36.369  10.933
43254W        W10037  32.598  16.209   3.204
43255W        W10038  40.599  36.066  13.555
43256W        W10039  40.297   5.966   0.250
43257W        W10040  41.265  26.179   1.766
43258W        W10041  17.609  24.911   0.090
43259W        W10042  33.880  40.905  11.917
43260W        W10043  11.559   0.394   1.685
43261W        W10044  22.555  17.966  12.607
43262W        W10045   3.632  32.569   2.293
43263W        W10046   5.176   7.214  12.572
43264W        W10047  32.014  24.434  11.061
43265W        W10048   6.217   5.457  10.915
43266W        W10049  22.151   8.127   1.676
43267W        W10050  36.505  21.328  14.347
43268W        W10051  22.931  13.452  14.581
43269W        W10052  23.756   6.551  12.529
43270W        W10053  28.136  22.089   3.167
43271W        W10054  27.435  23.776  10.652
43272W        W10055  37.093  37.956   0.225
43273W        W10056   6.162  38.465   3.014
43274W        W10057   3.760  30.558   0.718
43275W        W10058  33.095  43.881   0.551
43276W        W10059  19.627  17.114   1.780
43277W        W10060  21.725  11.724   2.339
43278W        W10061  10.776  28.059   3.155
43279W        W10062  14.997  31.523  14.801
43280W        W10063   3.967  27.657  13.572
43281W        W10064  32.757  15.284   4.935
43282W        W10065  21.782  30.084   2.560
43283W        W10066  34.010  34.100  11.669
43284W        W10067  22.030  23.493  14.371
43285W        W10068  15.004  34.469  10.589
43286W        W10069  34.885  26.498  14.376
43287W        W10070  10.079  10.351   1.856
43288W        W10071  18.352  21.762   2.278
43289W        W10072  14.719  39.279   0.437
43290W        W10073  40.965   8.963  11.177
43291W        W10074  26.642   2.191   3.782
43292W        W10075  33.486  42.033   1.587
43293W        W10076  43.385  12.423  14.480
43294W        W10077   0.481   6.857  14.514
43295W        W10078   6.455  20.054  14.569
43296W        W10079  17.042  33.612  14.271
43297W        W10080   3.442   2.024  12.937
43298W        W10081  19.600   8.856   0.655
43299W        W10082  16.906  25.942  11.419
43300W        W10083  17.157  23.947   2.241
43301W        W10084  18.547   2.192  11.724
43302W        W10085  42.800  11.701  14.298
43303W        W10086  29.919   0.811  13.113
43304W        W10087  27.929   7.363   1.341
43305W        W10088  14.456  24.103  12.510
43306W        W10089  42.972  43.883  11.989
43307W        W10090  21.014  34.893  12.643
43308W        W10091  27.887  23.286   1.245
43309W        W10092  41.896  21.033  10.741
43310W        W10093  38.539  25.426   1.461
43311W        W10094  28.544  17.884   1.305
43312W        W10095  37.959  32.758  11.619
43313W        W10096  35.229  14.651   3.084
43314W        W10097  34.347  22.641  12.090
43315W        W10098  12.378  37.515  13.622
43316W        W10099  32.008  26.412   0.449
43317W        W10100   8.967  40.294   4.161
43318W        W10101  25.942  19.203  12.004
43319W        W10102  37.409  36.649   3.837
43320W        W10103   4.422  15.163   3.146
43321W        W10104   0.833  12.189   3.191
43322W        W10105  18.771   4.437  13.865
43323W        W10106  14.081  42.791  13.784
43324W        W10107   4.974  38.029  10.764
43325W        W10108   4.350   2.439   3.850
43326W        W10109  11.032  20.266   2.618
43327W        W10110   2.547   1.138  12.863
43328W        W10111   0.962  31.286   0.978
43329W        W10112  24.280  39.461   0.382
43330W        W10113  16.646  32.925   1.945
43331W        W10114   7.739  35.882   0.319
43332W        W10115   7.820  10.323   0.717
43333W        W10116   0.037  16.785   3.240
43334W        W10117  25.034   1.601  11.172
43335W        W10118  35.757  30.395   1.260
43336W        W10119  21.479  26.128   4.146
43337W        W10120  41.991   3.382   2.542
43338W        W10121  13.674  24.931  13.582
43339W        W10122  34.460  43.801   0.889
43340W        W10123  22.676   5.487   3.678
43341W        W10124  44.222  22.098   1.325
43342W        W10125  25.163  40.258   2.276
43343W        W10126  20.494   7.762   5.006
43344W        W10127  38.433  21.188   2.270
43345W        W10128  16.603  37.294   3.916
43346W        W10129  21.736   5.764   3.712
43347W        W10130  21.113  18.584  10.800
43348W        W10131  18.325  32.041  10.436
43349W        W10132  30.472  41.826  10.705
43350W        W10133  17.066  44.786  14.941
43351W        W10134   5.648  24.582   2.372
43352W        W10135  37.074  24.618  11.658
43353W        W10136  42.046  10.849   2.540
43354W        W10137  31.671   7.505   1.732
43355W        W10138  12.836  37.864   3.498
43356W        W10139  23.076  38.552  11.511
43357W        W10140  11.865  13.242   3.107
43358W        W10141  17.678  12.113   5.437
43359W        W10142  15.088   4.736   1.255
43360W        W10143  26.057  43.421   3.600
43361W        W10144  20.099   2.384   3.591
43362W        W10145   1.155  34.563   3.942
43363W        W10146  33.559  32.133   2.143
43364W        W10147  27.153  19.713  11.127
43365W        W10148  16.781   1.833  13.548
43366W        W10149  14.096  44.769  13.457
43367W        W10150  17.237  17.758  11.496
43368W        W10151  32.354  38.321  11.602
43369W        W10152  12.103  30.149  14.323
43370W        W10153  41.801   6.417   3.673
43371W        W10154  24.593  39.032   1.271
43372W        W10155  40.392  15.883   1.880
43373W        W10156  11.148  23.074   0.683
43374W        W10157  11.756   0.274  12.865
43375W        W10158  20.747  11.815  10.687
43376W        W10159  24.983  41.511   5.063
43377W        W10160  36.241  16.224   1.003
43378W        W10161  23.738  34.315   2.866
43379W        W10162  42.938   2.649   0.408
43380W        W10163  14.596  34.950   1.735
43381W        W10164  44.869   5.561   2.318
43382W        W10165  38.485  28.193  14.311
43383W        W10166  40.409  22.513   5.051
43384W        W10167  36.665  36.397   0.519
43385W        W10168  28.732  35.068   0.421
43386W        W10169   1.704   7.334  11.903
43387W        W10170   1.049  27.583  12.459
43388W        W10171  23.467  12.237  13.336
43389W        W10172  32.077  44.748   1.182
43390W        W10173  12.045  20.579   2.901
43391W        W10174  42.702  15.611  13.314
43392W        W10175  15.767   8.508   2.788
43393W        W10176  31.582   4.925   1.813
43394W        W10177   9.583   3.794   1.100
43395W        W10178  15.579   2.923  12.799
43396W        W10179   0.949   3.348  11.095
43397W        W10180  24.760   2.399   3.640
43398W        W10181   1.730   9.255   0.871
43399W        W10182  38.106   6.114  12.779
43400W        W10183  37.206   2.518  13.855
43401W        W10184   1.286  17.473  12.617
43402W        W10185  42.490  13.596  13.768
43403W        W10186  13.192  11.765   2.582
43404W        W10187  10.246  22.000  12.060
43405W        W10188  13.567  10.952  12.070
43406W        W10189  21.164  28.920   0.077
43407W        W10190   3.352  35.005   0.450
43408W        W10191   2.313   4.175   0.811
43409W        W10192  15.068   8.826  10.358
43410W        W10193   0.797  42.793   5.083
43411W        W10194  17.544  15.978   2.161
43412W        W10195  23.720  17.587  14.704
43413W        W10196  10.238  42.591  10.331
43414W        W10197   1.407   6.428  14.353
43415W        W10198  38.914  14.388   2.840
43416W        W10199  19.759  37.054  13.502
43417W        W10200   1.218  44.891  13.966
43418W        W10201  35.970  26.505  11.637
43419W        W10202   3.388   6.147  14.628
43420W        W10203  31.161  11.514   3.031
43421W        W10204   2.222   3.242  11.553
43422W        W10205   3.208  38.345  14.352
43423W        W10206  18.953  25.444   0.510
43424W        W10207  10.940  24.025  12.693
43425W        W10208  26.245   8.301  14.751
43426W        W10209  16.440  13.844   5.049
43427W        W10210   3.526  14.683   2.434
43428W        W10211  30.474   8.957   1.912
43429W        W10212  12.554   1.913   0.423
43430W        W10213  23.145  33.032  13.797
43431W        W10214  41.426  27.953   4.617
43432W        W10215   7.397  29.812  12.170
43433W        W10216  13.628  36.570  13.410
43434W        W10217  43.717  16.605  11.740
43435W        W10218  34.544   1.771  13.827
43436W        W10219  41.326  42.803   0.282
43437W        W10220  12.851   1.002  13.183
43438W        W10221  19.378   3.909  13.414
43439W        W10222   4.441  38.076   4.181
43440W        W10223  40.709   9.929  11.077
43441W        W10224   6.152  32.617  10.712
43442W        W10225  40.513   9.801  11.527
43443W        W10226   4.721   1.939  11.122
43444W        W10227  41.521  40.633  11.637
43445W        W10228   1.645  30.119   2.728
43446W        W10229  41.377  43.856   4.846
43447W        W10230  43.868   1.421  13.923
43448W        W10231  29.674  25.126   3.561
43449W        W10232  12.950  40.574   4.633
43450W        W10233   4.830  36.043  14.442
43451W        W10234  15.675  19.743   4.542
43452W        W10235   6.721  10.260   3.688
43453W        W10236   8.652  39.956  11.180
43454W        W10237  39.018  11.909  14.314
43455W        W10238  28.612  11.081  11.909
43456W        W10239  15.869  30.482   4.250
43457W        W10240   1.875  31.544   1.282
43458W        W10241  20.266   6.950  12.058
43459W        W10242  38.595  37.643   0.223
43460W        W10243  15.681  30.630   3.308
43461W        W10244  37.454  27.312   4.405
43462W        W10245  36.624  29.335   1.283
43463W        W10246  30.521  36.410   3.171
43464W        W10247   8.733  30.154  10.550
43465W        W10248   2.966  37.962   0.965
43466W        W10249  28.104  30.417  12.096
43467W        W10250  23.122  38.806  12.501
43468W        W10251  38.876  43.401   0.961
43469W        W10252  23.007  44.883  11.070
43470W        W10253   0.248   9.644  13.926
43471W        W10254  34.201  23.674   5.048
43472W        W10255  18.248  17.247   4.988
43473W        W10256  38.940  15.115  10.263
43474W        W10257  22.169  35.861  10.704
43475W        W10258  42.793  37.469   3.575
43476W        W10259  42.506  34.517   0.629
43477W        W10260  38.593  18.723   4.439
43478W        W10261  25.317  25.514  13.894
43479W        W10262   5.367  19.122  12.111
43480W        W10263  16.119  34.521  14.727
43481W        W10264  37.299  43.144  12.952
43482W        W10265  41.027   4.607  11.858
43483W        W10266   7.059  44.261   2.649
43484W        W10267  37.128  13.475  13.225
43485W        W10268  14.605  39.034   1.908
43486W        W10269  25.702  33.112   4.544
43487W        W10270  11.079  25.486  11.546
43488W        W10271   1.621  34.612  12.025
43489W        W10272   2.523  34.008   1.391
43490W        W10273  42.488  20.269   2.831
43491W        W10274  36.612  21.667  13.397
43492W        W10275  29.953  17.364   0.116
43493W        W10276  37.374  26.542   2.301
43494W        W10277  27.190  42.959   4.146
43495W        W10278  29.567   4.746   1.454
43496W        W10279  28.531   1.728  14.671
43497W        W10280  10.269  25.161   1.937
43498W        W10281  23.937  39.994   4.189
43499W        W10282   1.862   1.275   4.876
43500W        W10283  32.200  42.791   5.080
43501W        W10284  15.070  12.294  14.345
43502W        W10285  36.435   1.512   3.735
43503W        W10286  30.623  24.266  12.451
43504W        W10287  22.993  17.186   4.939
43505W        W10288  43.946  30.361   3.365
43506W        W10289  28.891  27.091   3.868
43507W        W10290  25.719  18.152  10.732
43508W        W10291  34.831  30.907   1.221
43509W        W10292  38.996   5.140   3.558
43510W        W10293  10.341  25.769   4.243
43511W        W10294   9.686  22.160  14.275
43512W        W10295   9.852  29.583  14.489
43513W        W10296  37.435  44.772   1.212
43514W        W10297   1.470   7.796  11.852
43515W        W10298  15.286  43.309  11.312
43516W        W10299  14.275  25.184  14.847
43517W        W10300  19.805  31.702   1.291
43518W        W10301   7.794   3.386   4.190
43519W        W10302  30.963  35.309  12.417
43520W        W10303  12.130  44.315   3.103
43521W        W10304   3.696  26.335   2.914
43522W        W10305  40.950   1.342   3.231
43523W        W10306  12.346  25.579   0.435
43524W        W10307  29.155   7.224  13.804
43525W        W10308  36.984   5.210  13.793
43526W        W10309   9.078  27.204   0.512
43527W        W10310  15.890  41.081  14.542
43528W        W10311  15.680   0.021  10.774
43529W        W10312   0.856  40.956   4.118
43530W        W10313  34.715  22.021   3.741
43531W        W10314  22.524   0.753  13.778
43532W        W10315  44.434  33.697   4.279
43533W        W10316   3.775   8.399   1.953
43534W        W10317  32.354  38.981  11.901
43535W        W10318   8.859  10.015  11.120
43536W        W10319  42.435  40.557   3.344
43537W        W10320   7.147  31.467   4.519
43538W        W10321  17.828  20.304   3.567
43539W        W10322  20.720   4.885  11.619
43540W        W10323  31.547  26.978   0.761
43541W        W10324  28.531  26.729  12.984
43542W        W10325  31.600  41.656  11.740
43543W        W10326  33.344   0.646  12.469
43544W        W10327  39.967  22.473   4.450
43545W        W10328   3.972  24.141  12.518
43546W        W10329  13.738  43.888  14.265
43547W        W10330  30.999  26.502   0.723
43548W        W10331   6.176  43.417   1.366
43549W        W10332  41.813  12.417   1.013
43550W        W10333   9.340  35.665  11.597
43551W        W10334  40.462  10.755  12.900
43552W        W10335  28.894  39.982   1.262
43553W        W10336  14.821  32.171  14.388
43554W        W10337  34.165  31.030  13.582
43555W        W10338  23.029  43.252  12.381
43556W        W10339   8.330   2.228   0.933
43557W        W10340  44.977  11.917  13.974
43558W        W10341  32.540  19.056  11.701
43559W        W10342   8.128  21.903  11.148
43560W        W10343   7.305  31.668  12.425
43561W        W10344  40.669  40.105  10.694
43562W        W10345  37.428   8.274   1.650
43563W        W10346  42.606  44.819  14.482
43564W        W10347   0.746   5.849   0.412
43565W        W10348  33.589  20.471  11.949
43566W        W10349  26.032  38.812   1.244
43567W        W10350  19.167  14.153  11.827
43568W        W10351  36.093   7.600   2.553
43569W        W10352  40.993   4.904  12.836
43570W        W10353   2.877  26.698  13.856
43571W        W10354   8.512   0.257  12.212
43572W        W10355  19.095  37.356   1.187
43573W        W10356  13.222  40.777  14.835
43574W        W10357   9.091  10.197   0.266
43575W        W10358  35.389  20.117   1.322
43576W        W10359  23.207   4.218  13.518
43577W        W10360  34.338  36.422   0.063
43578W        W10361   4.957  17.045  12.503
43579W        W10362  28.696  24.692   2.265
43580W        W10363  11.112  10.354  12.516
43581W        W10364  26.755  16.019   3.880
43582W        W10365  14.809  14.333   0.426
43583W        W10366  16.188   7.614   2.477
43584W        W10367  26.945  30.400   4.248
43585W        W10368  25.505  16.927  14.199
43586W        W10369   6.245   6.877  14.292
43587W        W10370   8.817  24.874  13.437
43588W        W10371   1.272  14.308  10.663
43589W        W10372  26.436  36.659  11.023
43590W        W10373  19.148   0.014   0.953
43591W        W10374  16.252   6.812   2.433
43592W        W10375  34.896  26.647   1.127
43593W        W10376  16.401  42.921   2.237
43594W        W10377  11.912  26.993  11.980
43595W        W10378  43.602  27.095   0.322
43596W        W10379   9.758  36.399  14.122
43597W        W10380  19.080  14.185  11.332
43598W        W10381  42.440  28.655  11.710
43599W        W10382  33.612  43.170  13.814
43600W        W10383  18.965  20.632  11.115
43601W        W10384  26.221  22.715   3.259
43602W        W10385   5.944  18.462  11.768
43603W        W10386  25.214  13.120  13.350
43604W        W10387  22.107  15.378   0.783
43605W        W10388  27.521   3.380   2.642
43606W        W10389  18.238  22.563  10.694
43607W        W10390  36.947  15.269  14.435
43608W        W10391   8.320   6.376  12.199
43609W        W10392  30.240  22.175  14.984
43610W        W10393   9.292  42.304  13.963
43611W        W10394  28.329   6.015   2.466
43612W        W10395  23.020   7.995  14.315
43613W        W10396   5.115  39.374   3.316
43614W        W10397  34.404  32.421   2.674
43615W        W10398  22.658  41.338   1.333
43616W        W10399   1.626  33.144   2.794
43617W        W10400   4.907  36.093   4.464
43618W        W10401  19.040  19.031   3.272
43619W        W10402   4.687  33.446  14.459
43620W        W10403   5.448  11.387   0.265
43621W        W10404  23.022  19.231  12.944
43622W        W10405  28.964  33.102   3.305
43623W        W10406   0.760  11.852  10.036
43624W        W10407  14.849  23.998  14.077
43625W        W10408  43.855  38.564  11.882
43626W        W10409  41.600  14.683  12.389
43627W        W10410   7.971  11.805  10.900
43628W        W10411  39.405   4.404   2.275
43629W        W10412  10.412  11.611  11.330
43630W        W10413   8.205  30.613   9.930
43631W        W10414   3.493  10.599   3.929
43632W        W10415  19.370  24.267   2.447
43633W        W10416  33.544  26.192   2.924
43634W        W10417  23.739  35.003   3.733
43635W        W10418   6.624  35.979   0.341
43636W        W10419  21.926   6.889   1.740
43637W        W10420  10.184  28.054  14.419
43638W        W10421  17.018  30.942  10.523
43639W        W10422  23.817   6.071   3.277
43640W        W10423  29.123   8.816  12.978
43641W        W10424  12.423  25.153   0.809
43642W        W10425  11.201  34.322   4.109
43643W        W10426   8.597   3.985  12.552
43644W        W10427   5.856  35.969   2.303
43645W        W10428   6.877   4.759   3.349
43646W        W10429  28.450  27.068  14.496
43647W        W10430  27.030  29.007   4.570
43648W        W10431   6.381  12.290  11.922
43649W        W10432  11.765  44.871   3.711
43650W        W10433  44.958   7.150   4.131
43651W        W10434  30.490  16.154  10.661
43652W        W10435  39.826  14.679  12.928
43653W        W10436  41.928  37.384   0.933
43654W        W10437   9.087  31.637  10.457
43655W        W10438  14.745  34.955   4.305
43656W        W10439  34.386  18.704   2.199
43657W        W10440   9.169  30.098   3.720
43658W        W10441  44.449   5.459   2.613
43659W        W10442   8.116  25.458  12.902
43660W        W10443  26.571   5.300   0.505
43661W        W10444  30.211  44.722   2.978
43662W        W10445  32.436  44.489  14.891
43663W        W10446   8.452  18.324  12.578
43664W        W10447  13.203  38.095   3.208
43665W        W10448   6.642  42.461   0.423
43666W        W10449   9.559   7.681   2.616
43667W        W10450  28.100  27.855   5.100
43668W        W10451  15.179  12.784  12.208
43669W        W10452  26.682  19.699  10.905
43670W        W10453   8.231  22.047  14.385
43671W        W10454  15.788   6.124  14.463
43672W        W10455   7.286  42.618  12.083
43673W        W10456  14.912  21.461   1.360
43674W        W10457   2.833   0.238   0.856
43675W        W10458  15.705  40.072  10.498
43676W        W10459  41.252  36.124  11.312
43677W        W10460  43.931   2.256   3.964
43678W        W10461  26.670  18.108   0.209
43679W        W10462  39.373  22.308   1.679
43680W        W10463  34.172  30.012  13.434
43681W        W10464  29.483  31.136   1.230
43682W        W10465  32.605  19.248   2.256
43683W        W10466  25.805  24.130   0.031
43684W        W10467  21.697  12.196  11.259
43685W        W10468   5.785  39.247   3.826
43686W        W10469   5.216   3.240   2.185
43687W        W10470  12.735  31.402   0.194
43688W        W10471  44.019  35.931  11.673
43689W        W10472   9.067   6.332  11.192
43690W        W10473  35.674  27.744  14.293
43691W        W10474  27.672  29.484   3.418
43692W        W10475  15.859  42.489   2.484
43693W        W10476  34.528  24.900   3.157
43694W        W10477   2.669  35.216  10.716
43695W        W10478  40.051  30.267   1.151
43696W        W10479  12.583   5.209  11.213
43697W        W10480  36.433  13.842  12.412
43698W        W10481  31.378  13.109  14.096
43699W        W10482  43.849  14.787   2.670
43700W        W10483  28.881  44.020  12.393
43701W        W10484   9.701  11.593   0.940
43702W        W10485  14.293  31.865   1.381
43703W        W10486  41.570  22.494   1.665
43704W        W10487   1.579  12.699   2.750
43705W        W10488  13.550  13.831   1.295
43706W        W10489  10.105   6.741  14.865
43707W        W10490  44.047  12.009   0.498
43708W        W10491   9.026  34.426   0.400
43709W        W10492  29.104  17.123   4.130
43710W        W10493  13.349  30.695   4.584
43711W        W10494  21.009  43.675  13.020
43712W        W10495  22.104  12.006  13.517
43713W        W10496  43.846  19.480  12.051
43714W        W10497   2.892  27.686   3.678
43715W        W10498  19.400  39.348  10.707
43716W        W10499  26.218  41.692  12.952
43717W        W10500  13.396  10.136   2.381
43718W        W10501  29.716  38.709  11.088
43719W        W10502  29.127  21.518  11.587
43720W        W10503  44.537  23.564   3.235
43721W        W10504  27.576  25.894  10.187
43722W        W10505  39.326  44.839   3.841
43723W        W10506  15.101  38.051   4.845
43724W        W10507  22.006  13.729  14.871
43725W        W10508  33.038  10.856   2.211
43726W        W10509  20.162  21.914  12.534
43727W        W10510  42.902  35.833   0.233
43728W        W10511  11.071  38.891  12.967
43729W        W10512  35.824   8.692  10.747
43730W        W10513  44.530   7.384   4.974
43731W        W10514  37.379  31.199  11.219
43732W        W10515   2.077  37.280   5.216
43733W        W10516  42.479  13.705  12.367
43734W        W10517  30.586  41.771  12.522
43735W        W10518  38.384  14.225  10.753
43736W        W10519  24.759  25.176   3.599
43737W        W10520  41.975  18.056   0.524
43738W        W10521  27.923  40.003   3.633
43739W        W10522   0.083  11.132  12.513
43740W        W10523  37.537  34.995  12.960
43741W        W10524   5.342  39.553   2.703
43742W        W10525  28.573  18.288   4.042
43743W        W10526  34.842  16.518  13.468
43744W        W10527   1.888   9.579  11.619
43745W        W10528   3.957  35.313  11.543
43746W        W10529  25.116  27.020  13.938
43747W        W10530  13.286  21.629  14.351
43748W        W10531   6.348  16.718   0.329
43749W        W10532  17.188  22.578  12.561
43750W        W10533  30.962  29.359  10.261
43751W        W10534  16.129  28.972  11.003
43752W        W10535  14.897  24.028  12.865
43753W        W10536   0.653  24.744   4.204
43754W        W10537  19.297  26.113   4.563
43755W        W10538  23.758  23.423   3.859
43756W        W10539  16.052  37.367   0.262
43757W        W10540  21.297   6.699  12.983
43758W        W10541  27.269   2.882   0.329
43759W        W10542  15.352  43.305  14.013
43760W        W10543  43.885   2.985   0.462
43761W        W10544  16.183  23.107   4.640
43762W        W10545   6.857  11.148  12.545
43763W        W10546  15.807  21.459  12.292
43764W        W10547  44.352  20.053  14.961
43765W        W10548  17.631  22.664   4.723
43766W        W10549  33.681  17.253   4.192
43767W        W10550  29.527  41.900  14.418
43768W        W10551   6.855  33.325  11.062
43769W        W10552  29.426  10.493  11.559
43770W        W10553  27.709  37.997  14.306
43771W        W10554  30.566  31.438  14.330
43772W        W10555  20.382   2.870   9.829
43773W        W10556  38.564  40.862   2.750
43774W        W10557  13.470  28.175  11.072
43775W        W10558   6.948  13.025   1.358
43776W        W10559  34.436   1.606   0.145
43777W        W10560  30.435  11.347   0.720
43778W        W10561  12.277  37.628  11.407
43779W        W10562  36.422  13.870  13.769
43780W        W10563  38.417  37.061   3.674
43781W        W10564  38.973  31.114  13.549
43782W        W10565  14.380  34.081  13.800
43783W        W10566  37.541  17.046  13.280
43784W        W10567  33.384  19.282   1.856
43785W        W10568  32.988  21.948   4.926
43786W        W10569  41.868  39.653  12.961
43787W        W10570   6.456  33.825   3.427
43788W        W10571   1.804  26.419   1.305
43789W        W10572  19.507   3.448   4.730
43790W        W10573   9.293  40.800  14.848
43791W        W10574   5.331  19.818   1.023
43792W        W10575  18.006  25.140   2.707
43793W        W10576  44.352  39.495   3.076
43794W        W10577   7.195  32.548   1.393
43795W        W10578  26.754  13.358   2.882
43796W        W10579  33.403  32.964  11.913
43797W        W10580  12.617   7.607  14.241
43798W        W10581   0.898  25.570  14.025
43799W        W10582  39.797  35.409   3.278
43800W        W10583  42.298   2.426   3.654
43801W        W10584   3.486  37.765   4.150
43802W        W10585  15.805  14.776  10.300
43803W        W10586  24.968  39.294  14.995
43804W        W10587  24.054  19.052  13.485
43805W        W10588   9.473   9.562   0.290
43806W        W10589  38.053   0.399  10.761
43807W        W10590  25.959  17.713  14.441
43808W        W10591  35.055   4.634  14.807
43809W        W10592  34.090  18.802   0.201
43810W        W10593  10.239   5.242   2.880
43811W        W10594  14.447   5.890  13.870
43812W        W10595  12.061   8.153   2.615
43813W        W10596  28.322  11.877  11.950
43814W        W10597  42.595  41.033   2.549
43815W        W10598  32.162  29.939  13.638
43816W        W10599  26.207  43.464  14.800
43817W        W10600   0.747  40.951  14.658
43818W        W10601  39.113  31.994   2.066
43819W        W10602  44.343  37.132  14.408
43820W        W10603   9.575   4.443  13.533
43821W        W10604   9.649  11.900  11.636
43822W        W10605  29.068  39.816   1.768
43823W        W10606  41.880   6.347  11.332
43824W        W10607  25.230  25.288  14.964
43825W        W10608  31.853  16.659   4.546
43826W        W10609  29.675  36.512  10.613
43827W        W10610  41.268  18.699   1.890
43828W        W10611  37.298  42.975  12.472
43829W        W10612  34.250  42.055  12.517
43830W        W10613  44.274  42.131   3.282
43831W        W10614  11.757  33.721  14.046
43832W        W10615  17.049   0.770  10.017
43833W        W10616   7.916  16.554  10.646
43834W        W10617   3.025  14.554  14.949
43835W        W10618   0.049  35.911   1.769
43836W        W10619  31.105  28.253  12.849
43837W        W10620  20.082  32.020   3.742
43838W        W10621  23.158  42.912  12.779
43839W        W10622   6.396   1.776   4.300
43840W        W10623  42.688  37.479  11.155
43841W        W10624  13.776  19.344   3.573
43842W        W10625   4.703  29.524   1.826
43843W        W10626  23.824   6.366  13.822
43844W        W10627  19.326  31.165  11.601
43845W        W10628   0.355   5.144  13.271
43846W        W10629   0.459  37.322   4.486
43847W        W10630  14.315  37.943   0.078
43848W        W10631  23.259  27.610   1.612
43849W        W10632  27.371  39.357  10.329
43850W        W10633  44.919   6.425  12.648
43851W        W10634  16.931  31.524  14.889
43852W        W10635  11.960  14.258   2.717
43853W        W10636  36.496  12.932  13.981
43854W        W10637  28.231  31.113  13.278
43855W        W10638   7.765  38.126   1.941
43856W        W10639  24.053  22.418   4.021
43857W        W10640  25.067  37.084  11.184
43858W        W10641  16.228  10.434   4.611
43859W        W10642   1.946   9.066   1.312
43860W        W10643  19.988  41.825   2.374
43861W        W10644  15.686   8.114   3.668
43862W        W10645   0.015  40.167   3.980
43863W        W10646  31.038  19.202   1.509
43864W        W10647   5.718   4.440   3.633
43865W        W10648   7.752  24.955  14.743
43866W        W10649  24.925  14.727   4.617
43867W        W10650  16.077  36.310   5.334
43868W        W10651  19.981  21.682  14.922
43869W        W10652  14.091  13.123  14.524
43870W        W10653  14.185  33.275  13.602
43871W        W10654   2.968  31.892  14.424
43872W        W10655  35.320   9.270  10.538
43873W        W10656  28.721  44.068   2.216
43874W        W10657  37.830  32.671  12.126
43875W        W10658  33.931  12.620   1.777
43876W        W10659   4.372   6.360  10.807
43877W        W10660  34.218   9.784   4.567
43878W        W10661  25.184   0.416   4.633
43879W        W10662  28.481  38.457   0.751
43880W        W10663  36.482  17.161   5.017
43881W        W10664  13.349  30.575   0.238
43882W        W10665  33.730   3.030   1.792
43883W        W10666  38.807   2.425  11.385
43884W        W10667  16.829   8.797   4.748
43885W        W10668  41.833  34.397  12.076
43886W        W10669  39.391  37.920   3.984
43887W        W10670   8.941  32.798  12.187
43888W        W10671   7.336  22.471  12.845
43889W        W10672  34.202  39.760   4.054
43890W        W10673  12.796  39.274   2.238
43891W        W10674   9.261  31.990   0.892
43892W        W10675  13.102   2.759   0.469
43893W        W10676  24.246  32.058   0.688
43894W        W10677  32.256   7.466  14.458
43895W        W10678  39.806  38.524   3.390
43896W        W10679  40.005  12.571   0.740
43897W        W10680   8.908  14.348   3.188
43898W        W10681   2.194  34.226   0.995
43899W        W10682  28.101  41.233   4.133
43900W        W10683  42.238  21.087  11.117
43901W        W10684  14.223  23.435  10.710
43902W        W10685   8.132  27.274  11.462
43903W        W10686  31.356  36.022  12.489
43904W        W10687  21.166  28.223   0.008
43905W        W10688  19.813   3.430  12.097
43906W        W10689  36.421  38.476  10.944
43907W        W10690  18.132  31.381   0.524
43908W        W10691   8.763  30.211  14.415
43909W        W10692  42.473  33.902   2.834
43910W        W10693  10.425  41.915  11.488
43911W        W10694  14.931  31.002  14.210
43912W        W10695  41.854  43.226  14.930
43913W        W10696  11.976  24.988  14.881
43914W        W10697  40.552  27.952  12.467
43915W        W10698  41.586  37.880   4.316
43916W        W10699   3.928  41.272   1.358
43917W        W10700  32.078  17.161   4.656
43918W        W10701  23.755   3.141   2.289
43919W        W10702  23.526   1.452  12.756
43920W        W10703  30.876   1.284  12.012
43921W        W10704  11.580  12.622   1.797
43922W        W10705   9.477  22.212   1.626
43923W        W10706  36.548  41.032   1.905
43924W        W10707  23.999  44.875   4.202
43925W        W10708  20.174  42.246   0.266
43926W        W10709  22.465  30.215  12.820
43927W        W10710  37.496  13.265   1.355
43928W        W10711   1.682   0.204   1.705
43929W        W10712  37.564  44.252  10.994
43930W        W10713   7.834   3.288   0.239
43931W        W10714   4.798   1.913  12.015
43932W        W10715   2.465  42.775   2.915
43933W        W10716  33.509  32.914   2.717
43934W        W10717  36.641  20.196   4.677
43935W        W10718   2.258  27.684  11.122
43936W        W10719  30.683   7.441   3.149
43937W        W10720  15.005   0.447  14.314
43938W        W10721   6.341   8.672   0.835
43939W        W10722  17.093  35.771   3.278
43940W        W10723  16.258  41.017  13.843
43941W        W10724   9.808  23.283   3.130
43942W        W10725   7.684  27.434   1.332
43943W        W10726  43.570  18.002   1.966
43944W        W10727  10.671  40.580   2.836
43945W        W10728  20.752  35.416  14.506
43946W        W10729   3.254  15.673  13.743
43947W        W10730  12.757  26.964   0.341
43948W        W10731  20.142  23.365  13.594
43949W        W10732   4.892   2.111  12.484
43950W        W10733   3.343  29.463   3.161
43951W        W10734   2.819   3.976  12.907
43952W        W10735  19.449  42.761   1.375
43953W        W10736  33.641   0.976   1.802
43954W        W10737  39.328   4.755   3.713
43955W        W10738  22.701  38.306   2.852
43956W        W10739  21.145  24.677   0.315
43957W        W10740   6.418  21.648  14.855
43958W        W10741  16.653  17.350   1.182
43959W        W10742   3.731  43.352  12.417
43960W        W10743  39.502  22.586  13.086
43961W        W10744   4.838   9.135  11.970
43962W        W10745   5.338  40.378   2.310
43963W        W10746  40.534  43.910   1.235
43964W        W10747  18.618  15.146  10.346
43965W        W10748  40.852  17.264  11.455
43966W        W10749  44.764  13.352   2.967
43967W        W10750   1.897  43.469  11.660
43968W        W10751   3.422  42.113  12.984
43969W        W10752  35.042  42.789  11.955
43970W        W10753   5.972  29.967   0.295
43971W        W10754  11.292  42.215   0.411
43972W        W10755   0.981  35.021   3.666
43973W        W10756   6.396  13.580   1.178
43974W        W10757   8.344  43.308  14.987
43975W        W10758  36.819  32.223  14.931
43976W        W10759  10.739  36.834   0.291
43977W        W10760   5.271  15.682   1.703
43978W        W10761   8.146  39.571  10.696
43979W        W10762   4.391  35.620   4.180
43980W        W10763  43.548  13.363   1.816
43981W        W10764   9.906  14.436  11.643
43982W        W10765   7.607  16.627   3.829
43983W        W10766   4.393  18.145   1.858
43984W        W10767   5.360   3.226   3.608
43985W        W10768  40.929  38.732   3.436
43986W        W10769  32.948  21.972   4.090
43987W        W10770   3.338  34.942  14.897
43988W        W10771  19.665  37.667   0.998
43989W        W10772  27.878  32.437  11.184
43990W        W10773  27.405  35.414   0.412
43991W        W10774  19.191  16.313   3.333
43992W        W10775  20.436  14.127   1.501
43993W        W10776  31.271  36.163  12.954
43994W        W10777  44.264   6.267  14.377
43995W        W10778  43.866  27.615  14.448
43996W        W10779  26.195  30.989   2.891
43997W        W10780  14.563  23.569  14.226
43998W        W10781  41.516  38.292   0.013
43999W        W10782  26.572  42.455  14.738
44000W        W10783  38.338  16.784  13.797
44001W        W10784  37.377  32.164  11.665
44002W        W10785  15.948  10.415   3.348
44003W        W10786   4.004  12.108   2.282
44004W        W10787  39.566  22.941   2.334
44005W        W10788  23.702  40.989   2.342
44006W        W10789   7.734   5.586   4.482
44007W        W10790  25.894  38.024   1.881
44008W        W10791  39.950  30.426  14.445
44009W        W10792  41.987  14.386   0.916
44010W        W10793  17.581  42.462   0.941
44011W        W10794  13.128   2.241  13.744
44012W        W10795  32.450   1.253   2.201
44013W        W10796  27.686  26.967  10.927
44014W        W10797   9.863  40.734  14.466
44015W        W10798  30.877  24.935  11.582
44016W        W10799  22.643  22.501   4.696
44017W        W10800  28.203  34.936   0.023
44018W        W10801  34.989   0.190   4.310
44019W        W10802  18.272  24.643  14.975
44020W        W10803   4.540  29.795   2.669
44021W        W10804  29.007   4.994   0.841
44022W        W10805  11.946  37.939  11.123
44023W        W10806  41.946   2.798   1.328
44024W        W10807  43.136   0.737   2.931
44025W        W10808  30.995   0.299  14.518
44026W        W10809   4.799  37.980   3.761
44027W        W10810   7.062  42.583  11.216
44028W        W10811   2.003  41.071  13.558
44029W        W10812   1.843  18.598  14.345
44030W        W10813   0.008  30.601   0.292
44031W        W10814  12.244  16.769  14.990
44032W        W10815   2.756  26.540   2.699
44033W        W10816  18.001   1.680  12.987
44034W        W10817   9.765  28.658   3.798
44035W        W10818  25.752  25.230   2.307
44036W        W10819  27.688  25.598  12.604
44037W        W10820  29.237   3.908   3.755
44038W        W10821  11.708   7.797  11.763
44039W        W10822   9.746  21.220  14.002
44040W        W10823   5.562   5.142  13.109
44041W        W10824  26.023   0.787  12.942
44042W        W10825  40.754  29.435   2.795
44043W        W10826  38.543  44.317  14.394
44044W        W10827  17.169  26.011  14.307
44045W        W10828  11.691  41.068   0.900
44046W        W10829  16.542  15.139   3.477
44047W        W10830   8.325   5.255   0.302
44048W        W10831  24.492  19.029   1.641
44049W        W10832  42.817  21.519   0.574
44050W        W10833  30.397  31.148  11.839
44051W        W10834  24.741  14.813   3.705
44052W        W10835  29.987  13.143   1.453
44053W        W10836  22.505  17.814  13.462
44054W        W10837  10.762   7.668   0.210
44055W        W10838  10.829   5.815  14.058
44056W        W10839  24.555  43.300  13.572
44057W        W10840  32.992  19.019  13.831
44058W        W10841  14.276  26.704  11.608
44059W        W10842   2.583  39.507  13.295
44060W        W10843  19.831   2.335  11.485
44061W        W10844  19.477  21.837   4.454
44062W        W10845   1.289  39.526   4.345
44063W        W10846   4.747  28.906  10.146
44064W        W10847  31.093  28.389   9.992
44065W        W10848  42.713  28.131   1.359
44066W        W10849  27.584  15.232  10.560
44067W        W10850  14.072  20.026  11.293
44068W        W10851   4.275  36.419   4.901
44069W        W10852   3.755  34.406  10.623
44070W        W10853   3.533   6.056  12.873
44071W        W10854   8.389  33.398  10.034
44072W        W10855  44.925  24.158   3.755
44073W        W10856  42.779  23.199   0.686
44074W        W10857  14.326  33.225  12.047
44075W        W10858  39.105  30.053   0.830
44076W        W10859  31.425  44.704  11.144
44077W        W10860  13.323  40.790   3.817
44078W        W10861  21.119   6.789   1.226
44079W        W10862  11.954   8.794  11.677
44080W        W10863  35.965  27.148   3.700
44081W        W10864  19.337  30.448   2.219
44082W        W10865   1.878   7.851  10.677
44083W        W10866  18.043   5.170  10.674
44084W        W10867  32.553  41.261   0.653
44085W        W10868  12.650  37.245   0.268
44086W        W10869  17.812   7.671  14.428
44087W        W10870  34.006  23.662  12.829
44088W        W10871   9.649   2.388   2.659
44089W        W10872  36.283  10.706  13.457
44090W        W10873   1.162  32.921   2.834
44091W        W10874   1.310  22.967  12.736
44092W        W10875   4.330  41.252   0.751
44093W        W10876  32.901  41.666   2.736
44094W        W10877  25.582   7.689  10.744
44095W        W10878  38.645  23.334  13.511
44096W        W10879  18.894  21.070  11.407
44097W        W10880  41.741   6.484   0.932
44098W        W10881  18.623  15.188   3.707
44099W        W10882   2.915  27.140   3.538
44100W        W10883  22.224  18.320  12.456
44101W        W10884   2.661   9.902  11.147
44102W        W10885   4.696  12.920   0.921
44103W        W10886  10.051  15.339  14.878
44104W        W10887  24.271   7.999  13.924
44105W        W10888  25.704   8.834  13.212
44106W        W10889   2.481  34.179   3.096
44107W        W10890  33.705  15.147   0.326
44108W        W10891  36.563  38.854   1.855
44109W        W10892   6.951   2.155  10.955
44110W        W10893  12.096  17.635   2.862
44111W        W10894  21.383  14.823  12.512
44112W        W10895  31.551  30.191  14.944
44113W        W10896  34.896  21.179  14.978
44114W        W10897   2.356   3.746  12.835
44115W        W10898  32.509  12.639   4.625
44116W        W10899  43.430   5.113  11.649
44117W        W10900  24.148  14.081   2.206
44118W        W10901  38.089  14.682  10.559
44119W        W10902  35.160  21.059  11.955
44120W        W10903  24.656  41.755   0.623
44121W        W10904   1.458  17.754   3.665
44122W        W10905   4.741  44.747   2.686
44123W        W10906  38.410   8.847   2.841
44124W        W10907  29.426  23.681  13.507
44125W        W10908  38.913  42.764  14.759
44126W        W10909   1.850  35.976  12.697
44127W        W10910  44.459   6.747   0.504
44128W        W10911  41.908   5.933   2.421
44129W        W10912  14.648  37.615  14.152
44130W        W10913  38.838  14.729   0.359
44131W        W10914  24.709  32.011   2.899
44132W        W10915   6.415  24.707  13.569
44133W        W10916  38.083  11.712  14.646
44134W        W10917  37.181  30.140   4.084
44135W        W10918   6.786  40.480   3.242
44136W        W10919  18.647  40.416   1.099
44137W        W10920  25.601   9.670   3.284
44138W        W10921   9.588  41.011   1.303
44139W        W10922  41.477  35.853  10.664
44140W        W10923  44.259  22.165   3.148
44141W        W10924  44.990  11.269  14.475
44142W        W10925   4.648  28.842  10.670
44143W        W10926  37.817   2.199   0.247
44144W        W10927   5.864  22.002  13.629
44145W        W10928   5.286  34.208   2.255
44146W        W10929  19.913  40.955  10.684
44147W        W10930  38.074  10.298   3.400
44148W        W10931  20.233   8.839  14.288
44149W        W10932  36.258   7.485  11.226
44150W        W10933   8.876   4.072  12.966
44151W        W10934  42.595  32.661  11.818
44152W        W10935  16.713  14.673   3.302
44153W        W10936   9.208   2.796  14.341
44154W        W10937  25.999   4.436   1.946
44155W        W10938   5.662  25.403   2.211
44156W        W10939  26.848  40.653   1.029
44157W        W10940  11.715  33.033  13.983
44158W        W10941  34.572  37.802   3.117
44159W        W10942  16.768  36.311   4.650
44160W        W10943  23.656  23.549   0.857
44161W        W10944  35.445  24.620  14.170
44162W        W10945   3.282   7.912   1.163
44163W        W10946  13.221  39.324   1.959
44164W        W10947  12.506  21.186   2.423
44165W        W10948  24.610  30.424  10.496
44166W        W10949   2.793  25.656  12.881
44167W        W10950  19.273   8.772  14.460
44168W        W10951   4.858   0.980  14.026
44169W        W10952  34.648  19.615   2.337
44170W        W10953  35.167  21.525  12.589
44171W        W10954  39.101  35.112   4.530
44172W        W10955  40.746  10.703   0.195
44173W        W10956   8.386   3.342  11.017
44174W        W10957  25.744  16.161   2.759
44175W        W10958   2.362  44.433   4.966
44176W        W10959  18.018   3.735  14.007
44177W        W10960  27.931  17.208  14.336
44178W        W10961  10.755  32.918   3.972
44179W        W10962  36.384  32.215   3.584
44180W        W10963  38.539  32.073   3.325
44181W        W10964  42.428  21.306  13.374
44182W        W10965  12.147  31.952  13.527
44183W        W10966  44.911  39.890   2.807
44184W        W10967  19.548  11.638   1.668
44185W        W10968  37.669  10.090  14.816
44186W        W10969  14.676  41.279  11.179
44187W        W10970  35.449  32.504   0.039
44188W        W10971  16.063  15.835   0.374
44189W        W10972  28.002  28.356  13.392
44190W        W10973  41.819  27.035   3.864
44191W        W10974  21.739  41.617   2.875
44192W        W10975   3.580  28.541   4.584
44193W        W10976   8.149  19.540   1.268
44194W        W10977  19.231  17.443  13.688
44195W        W10978  44.092  10.918   4.491
44196W        W10979  12.263  42.529  11.962
44197W        W10980  42.598   0.270   0.774
44198W        W10981  38.073  18.143   4.977
44199W        W10982  34.623  34.376   3.213
44200W        W10983  25.653  37.924  10.594
44201W        W10984  10.397  13.916   4.168
44202W        W10985   9.237  33.470   0.897
44203W        W10986   5.733  11.787   4.579
44204W        W10987  36.478   4.737   4.632
44205W        W10988  44.031  27.931  10.726
44206W        W10989  21.866  14.084  12.064
44207W        W10990  41.281  37.898  13.477
44208W        W10991   9.616  41.082   3.868
44209W        W10992  19.144  10.208  14.440
44210W        W10993  27.100  18.237   4.355
44211W        W10994   0.828  12.621  11.519
44212W        W10995  38.548   5.212  12.810
44213W        W10996   9.844   0.437   2.425
44214W        W10997  25.419   7.308  14.430
44215W        W10998  12.213  27.204   2.331
44216W        W10999  18.141  43.851   4.709
44217W        W11000  33.225  33.535  11.648
44218W        W11001  13.143   1.225   1.967
44219W        W11002  29.940  25.009  11.661
44220W        W11003  37.846  17.550   1.323
44221W        W11004  35.963  12.265   0.722
44222W        W11005   8.761  23.263   0.284
44223W        W11006  43.331  24.470  14.395
44224W        W11007  15.692  37.099   3.134
44225W        W11008  14.614  20.763   3.801
44226W        W11009  19.543  41.387  14.709
44227W        W11010   9.845  25.995  11.696
44228W        W11011  42.477  17.188  11.462
44229W        W11012  14.549   7.075  13.109
44230W        W11013  11.659  36.810   0.519
44231W        W11014  43.068  36.428  12.477
44232W        W11015  10.520  16.736   2.898
44233W        W11016  12.698  20.778  11.126
44234W        W11017  39.344  22.712  13.982
44235W        W11018  14.918  39.615  11.455
44236W        W11019  15.285  35.957  10.755
44237W        W11020   5.196  12.102  13.416
44238W        W11021  16.842  27.221  12.961
44239W        W11022  32.118  36.223  14.758
44240W        W11023  15.092  20.254   2.120
44241W        W11024  30.866  11.151   3.293
44242W        W11025   6.112  36.486  14.033
44243W        W11026   5.931  18.415  14.029
44244W        W11027  42.954  24.532  12.969
44245W        W11028  12.301  11.434  12.394
44246W        W11029   2.381  30.653   0.022
44247W        W11030  22.548  19.367   0.324
44248W        W11031   2.681  40.728  12.498
44249W        W11032  21.675  34.352  14.309
44250W        W11033   2.266   8.173   3.120
44251W        W11034  37.443  36.066  11.534
44252W        W11035  33.871   1.377   2.295
44253W        W11036  21.333  28.622  12.959
44254W        W11037   3.293  35.136   1.346
44255W        W11038  17.036  21.150  14.908
44256W        W11039   7.329   2.524   2.668
44257W        W11040  41.793  42.216   1.513
44258W        W11041  13.157  31.038   1.510
44259W        W11042  12.902  20.582   3.188
44260W        W11043  40.266  11.180   0.409
44261W        W11044   4.832   0.071  14.007
44262W        W11045  15.714  30.995   3.678
44263W        W11046  30.156  19.889   2.146
44264W        W11047  35.900  31.784   1.290
44265W        W11048  11.771  11.318   1.474
44266W        W11049   2.385  42.790  13.356
44267W        W11050  27.867  30.490  13.776
44268W        W11051  25.562  14.821   4.120
44269W        W11052  16.069  34.112   2.556
44270W        W11053   5.708  35.331   4.630
44271W        W11054   6.794  11.649  11.631
44272W        W11055   4.364  44.825  14.763
44273W        W11056   3.935  10.423   3.083
44274W        W11057  37.622  15.928   3.111
44275W        W11058  17.567  21.729  13.271
44276W        W11059  29.697  18.809   1.359
44277W        W11060  20.727  34.125  13.899
44278W        W11061  40.828  20.104  12.094
44279W        W11062  22.089  37.643   2.642
44280W        W11063  27.082  22.078   4.462
44281W        W11064  26.429  19.195  11.138
44282W        W11065  42.747   2.865  14.465
44283W        W11066  11.644  21.963   2.775
44284W        W11067  34.692  40.304  11.172
44285W        W11068  10.675  32.498   4.783
44286W        W11069  39.858   6.489  14.955
44287W        W11070  33.809  39.406   4.191
44288W        W11071   2.696   0.676  12.665
44289W        W11072   8.185  25.962  12.787
44290W        W11073  18.893  38.932  11.603
44291W        W11074  30.832  11.649   0.501
44292W        W11075  33.858   5.675   2.189
44293W        W11076   0.167  12.353   4.907
44294W        W11077  38.922  39.864   1.751
44295W        W11078  29.091  41.495   0.007
44296W        W11079  39.299  42.886   4.085
44297W        W11080   9.282  26.674   0.325
44298W        W11081  36.062  26.988  11.371
44299W        W11082  16.095  31.818  12.054
44300W        W11083  35.506  30.642   3.737
44301W        W11084  44.933  12.176  12.090
44302W        W11085  11.744   4.439   1.891
44303W        W11086  40.074  11.277  11.959
44304W        W11087  28.683  25.435   0.765
44305W        W11088  13.028  23.632  12.140
44306W        W11089  12.691  26.974   4.200
44307W        W11090  10.561  21.997   1.004
44308W        W11091  20.750   0.361   3.236
44309W        W11092  10.209  36.168  14.058
44310W        W11093  21.682  38.300  11.953
44311W        W11094  43.400  23.524   1.687
44312W        W11095  41.528  15.604   0.051
44313W        W11096  36.104  41.294   0.483
44314W        W11097  20.604  44.193  10.964
44315W        W11098  15.144   9.923   1.316
44316W        W11099   4.832  11.119  11.489
44317W        W11100  24.701  10.742  13.426
44318W        W11101  15.982  15.897   3.498
44319W        W11102   6.479  19.524  14.729
44320W        W11103  28.686  38.622  12.636
44321W        W11104   9.291  13.261   1.253
44322W        W11105   9.171  20.866  11.190
44323W        W11106  37.373  34.403  12.557
44324W        W11107  40.659   2.943  12.890
44325W        W11108  39.029  21.466   3.122
44326W        W11109  33.762  26.209  12.567
44327W        W11110   1.036   6.933  13.143
44328W        W11111   5.204  22.683  14.531
44329W        W11112  34.140  23.412  12.382
44330W        W11113  40.081  15.158  12.174
44331W        W11114  28.727  36.994   2.008
44332W        W11115  10.865  41.385   0.439
44333W        W11116   1.969  31.229  11.031
44334W        W11117   2.479  22.612  12.854
44335W        W11118  44.911  40.819  12.996
44336W        W11119  19.720  10.627   4.707
44337W        W11120  11.170   0.992  13.490
44338W        W11121  17.023  28.347   2.697
44339W        W11122  18.185   4.598  12.963
44340W        W11123  41.531  21.754  11.367
44341W        W11124   2.797   9.329   0.829
44342W        W11125  21.881  25.482   1.602
44343W        W11126  36.029  32.158   2.868
44344W        W11127  35.093  29.150   1.624
44345W        W11128  15.486  31.899   3.770
44346W        W11129   3.229  34.913  12.411
44347W        W11130  23.621   5.752   0.461
44348W        W11131   6.290  32.615   0.898
44349W        W11132  44.265  19.314   1.797
44350W        W11133  25.488  26.149   0.856
44351W        W11134  13.411  40.979   0.278
44352W        W11135  14.781  13.184   2.042
44353W        W11136  17.123  16.130  10.244
44354W        W11137  37.410   1.031   1.946
44355W        W11138  12.844  27.223  14.800
44356W        W11139  13.590  12.358  11.227
44357W        W11140  35.963  36.839  12.071
44358W        W11141  35.612  36.479   0.445
44359W        W11142   2.975   8.074  11.627
44360W        W11143  13.735  29.380   0.800
44361W        W11144  10.046  39.621   3.143
44362W        W11145  32.863  36.559  11.003
44363W        W11146  14.943  39.426  13.919
44364W        W11147  43.129   8.501   3.885
44365W        W11148   5.976   4.884   3.763
44366W        W11149   5.391  18.511   3.863
44367W        W11150  21.678   9.519   3.908
44368W        W11151  16.264   7.930  13.994
44369W        W11152   7.914  35.381   2.265
44370W        W11153   8.868  24.394  11.947
44371W        W11154  36.354  42.590   2.205
44372W        W11155  31.011  32.231  13.380
44373W        W11156   7.180  27.979   4.122
44374W        W11157   9.882  11.719   3.680
44375W        W11158  21.644   5.084   0.019
44376W        W11159  39.156  38.605   4.512
44377W        W11160  24.700  34.191   1.189
44378W        W11161  28.736  26.985   3.189
44379W        W11162  10.238  15.516  14.403
44380W        W11163  37.241  27.368   0.930
44381W        W11164   9.930  25.751  12.146
44382W        W11165   4.961  37.900   4.260
44383W        W11166  19.345  41.438  11.925
44384W        W11167   5.312  22.117   1.865
44385W        W11168  28.066   4.705   1.877
44386W        W11169  32.186  26.757  14.084
44387W        W11170  37.898  24.378  12.501
44388W        W11171   1.443   2.384   3.539
44389W        W11172  23.084  21.181  10.706
44390W        W11173  16.378  31.427   4.849
44391W        W11174  32.360  29.644  11.989
44392W        W11175   9.296  24.626   1.451
44393W        W11176  18.024  20.571   1.464
44394W        W11177   1.089   2.979   4.337
44395W        W11178   9.931  27.581   0.681
44396W        W11179  24.261   3.422  11.565
44397W        W11180  11.425   3.587   0.943
44398W        W11181  25.524  15.676  13.006
44399W        W11182  14.782  14.668   3.932
44400W        W11183  37.818  41.423   2.681
44401W        W11184  40.963  19.786   0.766
44402W        W11185  42.119  31.096  11.344
44403W        W11186  10.929   9.834  12.393
44404W        W11187  42.868  39.582  13.882
44405W        W11188  18.294  13.791   2.825
44406W        W11189  43.874   4.233  14.849
44407W        W11190   6.827  12.849   3.636
44408W        W11191  10.704   4.305  10.625
44409W        W11192  20.045  44.810  12.935
44410W        W11193  12.279  43.054  14.746
44411W        W11194  20.096  11.410   4.313
44412W        W11195  41.364  37.640   3.693
44413W        W11196   5.985  15.943   1.251
44414W        W11197   5.188  19.495   2.230
44415W        W11198  13.279  13.810  13.266
44416W        W11199   5.291   9.736  13.796
44417W        W11200  18.227  11.261  12.971
44418W        W11201  40.861   9.770  14.851
44419W        W11202   5.772  23.034  14.530
44420W        W11203  23.150  33.811   1.763
44421W        W11204  16.131  41.274   4.315
44422W        W11205  14.839  12.215   3.921
44423W        W11206  26.238  13.842  12.723
44424W        W11207  27.352  38.540   1.446
44425W        W11208  12.030  33.043  12.393
44426W        W11209  40.406  19.626  11.512
44427W        W11210  22.749   6.744  14.278
44428W        W11211  29.961  19.109   4.703
44429W        W11212   0.554  12.344   0.420
44430W        W11213   8.148  22.619  12.303
44431W        W11214  29.675  12.080   4.633
44432W        W11215   4.244  12.762  11.123
44433W        W11216  22.951  41.865  11.818
44434W        W11217  13.174  33.528  14.953
44435W        W11218   6.352  41.884   4.634
44436W        W11219   2.972  26.653  10.593
44437W        W11220  37.127  28.302  11.994
44438W        W11221  18.877  11.575   0.259
44439W        W11222  24.972  37.970   0.178
44440W        W11223  12.315  13.644   2.264
44441W        W11224  20.611  18.640   5.384
44442W        W11225  25.524  15.374  14.551
44443W        W11226  35.109  18.672  11.543
44444W        W11227  23.591  44.681   3.103
44445W        W11228   7.321  31.462  10.569
44446W        W11229  32.424  40.656   4.366
44447W        W11230   1.690  18.292  12.529
44448W        W11231   7.772  33.635  13.815
44449W        W11232  11.281  44.446  13.531
44450W        W11233  20.675   8.659  13.574
44451W        W11234  25.718  31.145   2.169
44452W        W11235  15.201   1.867   2.862
44453W        W11236   8.471  13.892  14.330
44454W        W11237  34.790   0.826   0.225
44455W        W11238  10.760  41.359  12.907
44456W        W11239  38.494  26.566  13.817
44457W        W11240  11.410  40.277   2.225
44458W        W11241  10.686  40.276   1.402
44459W        W11242  29.706  33.199   4.586
44460W        W11243  28.620  37.662  11.991
44461W        W11244  33.376  23.004  12.823
44462W        W11245   4.673  41.300  13.016
44463W        W11246  17.510  28.529   2.744
44464W        W11247  32.824  15.695  11.488
44465W        W11248  42.371  37.486  13.935
44466W        W11249  22.680  22.715   4.221
44467W        W11250  20.726   6.910  14.553
44468W        W11251   6.944  34.604   0.878
44469W        W11252   1.837  27.655   2.853
44470W        W11253  23.143  25.164   3.696
44471W        W11254  29.148  43.338  11.666
44472W        W11255  36.018  40.683   3.148
44473W        W11256  37.954  33.460  10.647
44474W        W11257  33.822  40.303   2.190
44475W        W11258  32.560   6.166  12.528
44476W        W11259  26.069  43.863   1.403
44477W        W11260  43.185   5.806  12.383
44478W        W11261   4.954  18.857  11.941
44479W        W11262  24.199  29.238  12.652
44480W        W11263  18.765  43.571  12.855
44481W        W11264  17.737  23.226  13.378
44482W        W11265  19.445  25.074   4.378
44483W        W11266  31.102  32.033  12.899
44484W        W11267  44.762  16.940   2.132
44485W        W11268  14.693  12.560   4.500
44486W        W11269  25.542  37.550  11.553
44487W        W11270  13.199  26.453  10.981
44488W        W11271   2.283   7.781  12.551
44489W        W11272   3.017   7.531   1.668
44490W        W11273  20.278   5.780   2.432
44491W        W11274  16.982  22.834   5.235
44492W        W11275  35.490  22.656  10.701
44493W        W11276   2.550  25.921  11.507
44494W        W11277   2.006  11.353  14.325
44495W        W11278   9.803   9.490   2.296
44496W        W11279  33.270  19.193   3.504
44497W        W11280  33.976   2.358  14.010
44498W        W11281  22.163  29.635   3.527
44499W        W11282   2.677  30.560  12.447
44500W        W11283  25.031   2.440  12.904
44501W        W11284  44.440  33.980  12.865
44502W        W11285  13.129   3.764  10.797
44503W        W11286  34.077   9.765   1.559
44504W        W11287  10.148  25.407  12.458
44505W        W11288  35.525  42.973  12.021
44506W        W11289  23.575  42.568  11.335
44507W        W11290  38.128   2.642   4.232
44508W        W11291  23.314  13.867   0.303
44509W        W11292  19.179  29.435   1.276
44510W        W11293  19.315  24.756  12.481
44511W        W11294  31.022   0.322  12.916
44512W        W11295  26.077  12.865  13.769
44513W        W11296  23.238  24.286   2.460
44514W        W11297  43.073  30.035   0.305
44515W        W11298  20.782   5.337   2.763
44516W        W11299  25.499  35.849  12.548
44517W        W11300  32.471  22.177  13.469
44518W        W11301  33.154   0.908   1.673
44519W        W11302  42.941  30.977   3.940
44520W        W11303  43.449  14.131   2.261
44521W        W11304  26.500  23.813   3.644
44522W        W11305  33.891  36.181  11.653
44523W        W11306   4.505  39.906  12.678
44524W        W11307  34.613  21.939  14.634
44525W        W11308  44.633  37.879  13.364
44526W        W11309   4.468  17.179  12.405
44527W        W11310  38.928  22.704  11.587
44528W        W11311   3.689  13.842   4.748
44529W        W11312  21.941   0.460   0.286
44530W        W11313  19.219  29.517   0.212
44531W        W11314  10.518  25.584  14.176
44532W        W11315  17.221  26.803   0.875
44533W        W11316  27.974  31.100   2.820
44534W        W11317  33.791  14.347   4.531
44535W        W11318   9.849  44.135  11.407
44536W        W11319  22.642   2.622   1.301
44537W        W11320  28.027   0.396   4.402
44538W        W11321  31.598  32.464  10.587
44539W        W11322   7.682  17.313   0.751
44540W        W11323  32.980  25.562  12.419
44541W        W11324  18.915   7.364   1.919
44542W        W11325   9.720  41.117   4.734
44543W        W11326  38.988   3.620  14.190
44544W        W11327   8.283  15.721  13.348
44545W        W11328   1.342  30.850   2.395
44546W        W11329   4.974  26.171  12.138
44547W        W11330  17.281  44.032   1.898
44548W        W11331   4.779  31.338   3.518
44549W        W11332  20.150  14.535   1.674
44550W        W11333  40.828  41.374   3.024
44551W        W11334  27.071   4.150   4.566
44552W        W11335   3.185  44.294  11.661
44553W        W11336  33.921   6.560   1.712
44554W        W11337  10.780  17.157  13.071
44555W        W11338  31.589  14.747  11.169
44556W        W11339  39.312  29.530  10.491
44557W        W11340  21.885  15.703  10.671
44558W        W11341  18.753  16.404   3.066
44559W        W11342  24.712  41.424   5.521
44560W        W11343   1.481   7.154   4.213
44561W        W11344  18.108  15.096  14.888
44562W        W11345  16.530  16.212   2.265
44563W        W11346  27.607  20.044  13.332
44564W        W11347  29.483  36.529   1.876
44565W        W11348  41.200  13.661  13.421
44566W        W11349  30.354  14.917   2.233
44567W        W11350  19.535  32.601  14.336
44568W        W11351  43.315  20.739  10.733
44569W        W11352  11.814  42.335  13.989
44570W        W11353  42.790  17.153  11.919
44571W        W11354  29.996  43.863  12.055
44572W        W11355   9.773  21.661   0.164
44573W        W11356  30.164  33.033  11.086
44574W        W11357  12.847  39.872   0.872
44575W        W11358  18.158  43.105   2.602
44576W        W11359   0.375   1.230  10.720
44577W        W11360  14.214  20.556  14.188
44578W        W11361   9.129  11.712  12.866
44579W        W11362  34.004  18.571   1.809
44580W        W11363  15.917  28.039   0.381
44581W        W11364   1.080  18.752  14.993
44582W        W11365  27.620  38.653  13.717
44583W        W11366  44.451  10.322   2.948
44584W        W11367  35.148   8.703  11.595
44585W        W11368  42.775  44.828  13.512
44586W        W11369   4.426  42.372   4.258
44587W        W11370  42.701  38.540   4.671
44588W        W11371   2.803  20.312   1.138
44589W        W11372   8.326  33.802  12.540
44590W        W11373  18.135  24.397   2.284
44591W        W11374   5.166  34.478   2.668
44592W        W11375  40.618   4.914   3.227
44593W        W11376  41.344  19.733   2.953
44594W        W11377  43.992  39.348  12.440
44595W        W11378  25.181  16.672  12.531
44596W        W11379  31.956  33.969  14.465
44597W        W11380  15.070  11.853   3.266
44598W        W11381  28.614  42.644  10.582
44599W        W11382  36.931  32.554  11.529
44600W        W11383  33.181  43.912   2.369
44601W        W11384  12.182  34.755   2.659
44602W        W11385  37.250  29.896  12.517
44603W        W11386  42.226  33.397  11.470
44604W        W11387  35.913  25.555  10.888
44605W        W11388  10.677   1.410   1.898
44606W        W11389  19.877  40.614   1.900
44607W        W11390  31.952  25.562  12.370
44608W        W11391  41.666  17.278   2.309
44609W        W11392   7.718  16.800  12.927
44610W        W11393  29.491   3.675  12.728
44611W        W11394  15.311  15.575  11.590
44612W        W11395  27.243  27.467   4.295
44613W        W11396  26.124  41.001  13.942
44614W        W11397  16.719   7.213  14.762
44615W        W11398  42.371  36.275  11.647
44616W        W11399  19.534  20.431   4.605
44617W        W11400  28.118  26.292   4.037
44618W        W11401  16.131  15.747  12.931
44619W        W11402  43.236  22.222   3.144
44620W        W11403  42.984   5.912  12.846
44621W        W11404   6.599  23.095   2.140
44622W        W11405  25.238  25.942  11.503
44623W        W11406  28.252  32.304   0.355
44624W        W11407   1.910  30.740  14.351
44625W        W11408  42.717   1.821  14.844
44626W        W11409  25.608  31.915   2.750
44627W        W11410  29.936  21.093   1.853
44628W        W11411  14.687  39.578  13.476
44629W        W11412   7.170  43.456   2.301
44630W        W11413  26.793  14.681   4.964
44631W        W11414  25.593  40.606   0.013
44632W        W11415   4.960  17.115  13.883
44633W        W11416  38.344  18.664  10.391
44634W        W11417  44.364  22.555  14.098
44635W        W11418  29.459  40.014   3.226
44636W        W11419  26.951   2.971  12.903
44637W        W11420  39.574  43.927  13.850
44638W        W11421  23.527  13.206  13.801
44639W        W11422  16.291  28.449   0.416
44640W        W11423   9.364  23.371   2.768
44641W        W11424  13.820  17.769   0.290
44642W        W11425  15.265  12.539   0.943
44643W        W11426  38.051  26.822   3.291
44644W        W11427  26.900  19.648  12.418
44645W        W11428  23.986   6.359  14.706
44646W        W11429  13.839   4.793   2.783
44647W        W11430  27.963  23.153  12.667
44648W        W11431  24.596  22.026  12.368
44649W        W11432   4.950  36.082   2.786
44650W        W11433  13.294  37.904   1.315
44651W        W11434  43.189  41.221   4.466
44652W        W11435  39.078  21.155  12.973
44653W        W11436   1.010  40.026   4.833
44654W        W11437  26.443   3.989  12.047
44655W        W11438   2.585  35.819   2.316
44656W        W11439  42.800  23.722  12.571
44657W        W11440   7.919   7.052   1.888
44658W        W11441  24.070  40.440  10.808
44659W        W11442  25.397  24.039  10.636
44660W        W11443   8.698   5.248  13.073
44661W        W11444  40.048  21.030  13.583
44662W        W11445  42.896  40.576  14.019
44663W        W11446   2.978  19.323   3.688
44664W        W11447  14.108  13.273   0.024
44665W        W11448   6.849   2.228   1.859
44666W        W11449   3.266  42.936   4.374
44667W        W11450  20.267   3.603   4.068
44668W        W11451  19.134   4.808  13.854
44669W        W11452  44.978  31.569   3.195
44670W        W11453  41.633   8.322  14.814
44671W        W11454  31.633  22.267  11.658
44672W        W11455  11.724  29.084   4.656
44673W        W11456  32.539  40.841  13.355
44674W        W11457  29.102  15.999   0.411
44675W        W11458  14.816   8.905   4.231
44676W        W11459  29.646   4.580  10.256
44677W        W11460  32.582  11.014  12.439
44678W        W11461  28.024  24.085   0.960
44679W        W11462  25.280   2.068  11.120
44680W        W11463   9.383  35.661  12.958
44681W        W11464  11.598  11.381   1.953
44682W        W11465  21.690  30.537   4.335
44683W        W11466  32.428  21.335  14.399
44684W        W11467   5.515  44.359  11.226
44685W        W11468  38.387  10.610   1.949
44686W        W11469  20.675   0.714   2.430
44687W        W11470   3.451  16.449   4.408
44688W        W11471  28.538  16.576   4.718
44689W        W11472  26.662  28.212   1.256
44690W        W11473  33.705  12.074  14.422
44691W        W11474  27.653  44.837   2.394
44692W        W11475  42.444  12.070  14.121
44693W        W11476   8.890  36.838  11.945
44694W        W11477  10.124  22.124   2.738
44695W        W11478   3.237  37.320  11.968
44696W        W11479  39.254   1.246   3.629
44697W        W11480  19.238   9.990  13.967
44698W        W11481  20.550  12.507  11.847
44699W        W11482  44.958   9.704   0.298
44700W        W11483  16.937   3.300   3.326
44701W        W11484  40.508  10.144   3.180
44702W        W11485  37.500   8.102  13.472
44703W        W11486  42.870  11.286   4.488
44704W        W11487  14.340  14.176   0.216
44705W        W11488   9.637  36.535   0.013
44706W        W11489  23.159  36.392   1.929
44707W        W11490  29.704   9.767   2.854
44708W        W11491  24.190   0.028  14.538
44709W        W11492  40.194  41.057  10.890
44710W        W11493  43.012  13.410   2.952
44711W        W11494   6.343  23.157  12.004
44712W        W11495  12.877  10.297   1.455
44713W        W11496  16.993  11.296   2.250
44714W        W11497  30.720  43.499  13.927
44715W        W11498  27.685  11.170   4.221
44716W        W11499  37.256  15.151  13.283
44717W        W11500  23.917  17.381  11.529
44718W        W11501  31.151   6.529   2.371
44719W        W11502   4.488  31.538   2.358
44720W        W11503  41.061  21.221  14.460
44721W        W11504   0.877  28.535   4.521
44722W        W11505  13.796  32.500  11.964
44723W        W11506  29.070  17.735   1.895
44724W        W11507   1.675  40.613  11.548
44725W        W11508  43.551  34.930  11.868
44726W        W11509  21.151   3.791   3.097
44727W        W11510  15.181  18.515  13.350
44728W        W11511  26.317  14.684   1.824
44729W        W11512  41.733  35.403   0.431
44730W        W11513  32.586   9.385  10.503
44731W        W11514   3.358   4.614   2.030
44732W        W11515  22.757  35.794   1.359
44733W        W11516   8.205  10.944   1.671
44734W        W11517  10.723   0.723  13.363
44735W        W11518  39.336  10.804   1.857
44736W        W11519   4.142  38.541  10.376
44737W        W11520   6.458  22.709   0.523
44738W        W11521  29.578  30.391   0.238
44739W        W11522  12.764  13.798   1.822
44740W        W11523  31.381   9.318  13.623
44741W        W11524  38.804  35.671  14.509
44742W        W11525   7.573  34.943  10.327
44743W        W11526  14.715  11.760  12.484
44744W        W11527  31.897  34.665   3.203
44745W        W11528  17.576   2.429  11.553
44746W        W11529  44.260  23.203  11.111
44747W        W11530  10.576  44.789   2.544
44748W        W11531   0.488  23.287   4.477
44749W        W11532  35.921  36.018   0.447
44750W        W11533  18.104   4.658  10.733
44751W        W11534  11.358  11.260  12.657
44752W        W11535  13.849  26.696  10.186
44753W        W11536  42.325  29.944  12.478
44754W        W11537   7.002  24.946   3.600
44755W        W11538  42.708  13.042   2.200
44756W        W11539  20.142  34.188   2.345
44757W        W11540  43.069  11.179   1.646
44758W        W11541  14.285  13.768   2.652
44759W        W11542  33.200  44.194  11.581
44760W        W11543  20.305  12.770   1.398
44761W        W11544  32.582  11.392  10.484
44762W        W11545  21.118   6.173   2.583
44763W        W11546  40.770  18.100  12.962
44764W        W11547  29.908  26.095  10.669
44765W        W11548  18.266  32.498   0.148
44766W        W11549  27.983  15.848   3.936
44767W        W11550  18.542  26.597   4.752
44768W        W11551  27.636  35.793   3.633
44769W        W11552  15.707  41.840   1.799
44770W        W11553  39.680  38.545   4.623
44771W        W11554  21.303  32.840  13.528
44772W        W11555   7.530  11.317   2.296
44773W        W11556  26.713  16.616  11.944
44774W        W11557  18.473  14.193   3.724
44775W        W11558   2.992  13.810   0.849
44776W        W11559   9.778  11.051  12.805
44777W        W11560  42.428  11.478  10.697
44778W        W11561  30.119   7.709  13.051
44779W        W11562  26.858  41.434   3.583
44780W        W11563  43.519  30.956   3.682
44781W        W11564  23.056  16.658   2.299
44782W        W11565  44.536  21.530   2.131
44783W        W11566   8.178  31.128   2.849
44784W        W11567  14.362  31.970  12.921
44785W        W11568  34.859   4.572   4.145
44786W        W11569   0.399  29.715  14.084
44787W        W11570  25.937  39.091   4.553
44788W        W11571   1.366  42.809  14.471
44789W        W11572  16.020  10.907   3.178
44790W        W11573   1.293  43.279   0.344
44791W        W11574  34.324  28.730   3.068
44792W        W11575  41.929   0.111  10.880
44793W        W11576   2.415  30.907   0.887
44794W        W11577   8.545  21.004  10.644
44795W        W11578  34.286  30.687  12.661
44796W        W11579  27.162  24.325  12.916
44797W        W11580  23.279   2.003   3.178
44798W        W11581  16.193   0.087   3.302
44799W        W11582  25.613   5.166   4.617
44800W        W11583  28.554  35.817   3.581
44801W        W11584   4.737  10.157   1.290
44802W        W11585  20.034  16.018   2.780
44803W        W11586  11.587  36.761  10.221
44804W        W11587  36.028  19.516   0.411
44805W        W11588   0.174   4.292  10.797
44806W        W11589  34.651  20.285  12.103
44807W        W11590  24.527   1.111   2.305
44808W        W11591  17.188  16.515   3.247
44809W        W11592   6.382   5.434   3.188
44810W        W11593  33.209   9.641   2.681
44811W        W11594  43.189  29.689   1.710
44812W        W11595  31.916  12.230  10.674
44813W        W11596   6.189   8.347   4.243
44814W        W11597  17.216   5.377   1.432
44815W        W11598   5.802   7.166   4.570
44816W        W11599  17.702  11.292  13.058
44817W        W11600  25.072   8.812   3.034
44818W        W11601  32.365  26.195   4.640
44819W        W11602  18.223  11.192   2.782
44820W        W11603  12.382  21.401  13.121
44821W        W11604  22.161  39.575   0.356
44822W        W11605  27.014   9.664  12.008
44823W        W11606   5.848  15.287  11.096
44824W        W11607  27.347   2.862  12.045
44825W        W11608  38.734  35.425  10.249
44826W        W11609  32.978  21.192   3.231
44827W        W11610  36.530  33.542  13.934
44828W        W11611  19.749   8.822  12.607
44829W        W11612  23.051  22.494   2.658
44830W        W11613  13.529  38.597   2.349
44831W        W11614  38.100  20.523  11.650
44832W        W11615  18.657  34.618  13.866
44833W        W11616  26.122  34.472  12.529
44834W        W11617   1.818  19.734  14.956
44835W        W11618  34.783  30.222   2.788
44836W        W11619  24.575  37.355  14.767
44837W        W11620   2.902  27.614  12.808
44838W        W11621   9.641  35.510   4.197
44839W        W11622  22.262   3.020   1.267
44840W        W11623  31.625   4.894   4.568
44841W        W11624  22.477  15.559  14.833
44842W        W11625  14.237   9.026  13.999
44843W        W11626  42.979  30.622  14.986
44844W        W11627  19.955   8.950  13.452
44845W        W11628  18.054  31.229  12.434
44846W        W11629  18.180  31.626   2.829
44847W        W11630  29.557  39.260   2.678
44848W        W11631  39.210  37.833  14.872
44849W        W11632  18.541   8.390   4.444
44850W        W11633  26.735  23.180  14.014
44851W        W11634  37.825   1.679   0.949
44852W        W11635  17.746  21.524  14.227
44853W        W11636  23.429  16.332   4.408
44854W        W11637  34.131  32.375   0.350
44855W        W11638  17.539   2.462  14.978
44856W        W11639  34.921  23.077   1.908
44857W        W11640   5.769  32.516   2.861
44858W        W11641  24.772  44.464  14.014
44859W        W11642  37.415  42.012   0.753
44860W        W11643  41.130  16.234  14.136
44861W        W11644  17.781   2.900  12.542
44862W        W11645  14.206  12.537  13.286
44863W        W11646  26.172  24.453   0.224
44864W        W11647   3.273  36.798  12.042
44865W        W11648  12.675  24.265   3.613
44866W        W11649  34.632   1.779  11.190
44867W        W11650   2.750  39.456   1.184
44868W        W11651   0.468  18.512   1.183
44869W        W11652  43.864  43.335   2.926
44870W        W11653  37.855  24.445   2.218
44871W        W11654  40.277   6.726  12.704
44872W        W11655  26.595  16.795   2.372
44873W        W11656  13.684  23.802  11.104
44874W        W11657  32.250  14.641  12.474
44875W        W11658  30.608  38.135  11.663
44876W        W11659  40.656   6.460  10.158
44877W        W11660  24.572  43.543   5.134
44878W        W11661  27.450  22.157  13.619
44879W        W11662   1.207  33.196  12.116
44880W        W11663  13.123  26.964   3.511
44881W        W11664  14.126  35.856  14.347
44882W        W11665  22.951  10.467  12.543
44883W        W11666   2.691  24.072  13.808
44884W        W11667  20.779  10.442   1.023
44885W        W11668  31.904  26.177   3.227
44886W        W11669   5.125  21.314  10.704
44887W        W11670   2.141  40.088  12.960
44888W        W11671  18.817  25.900   0.352
44889W        W11672  25.628  42.874   2.876
44890W        W11673  37.301  21.193  10.754
44891W        W11674  28.232   4.439   0.892
44892W        W11675   7.345   1.264  11.017
44893W        W11676  34.277  19.660   4.149
44894W        W11677  41.930  35.004   4.281
44895W        W11678  10.875   4.489  11.094
44896W        W11679   5.603  28.385  12.871
44897W        W11680  36.192  12.807  14.398
44898W        W11681  33.426  23.190  14.361
44899W        W11682  29.456   0.868  10.342
44900W        W11683  17.647   3.413  10.674
44901W        W11684   2.296  36.446   3.372
44902W        W11685  43.978  44.923   4.877
44903W        W11686  22.026  29.102   3.470
44904W        W11687   8.401  11.640  10.606
44905W        W11688   3.810   8.106   4.936
44906W        W11689  33.932   6.899  12.480
44907W        W11690  39.924   4.487   2.256
44908W        W11691  34.663   4.686   0.581
44909W        W11692  30.364   6.852   2.658
44910W        W11693   6.639  12.357  10.728
44911W        W11694  14.651  30.046   1.913
44912W        W11695  29.403  35.421  12.444
44913W        W11696   4.944   6.147  13.082
44914W        W11697   8.488  14.359   2.295
44915W        W11698  25.026  16.642   3.705
44916W        W11699   5.318  24.457  12.923
44917W        W11700  26.109  17.269  10.911
44918W        W11701   6.839  42.565  12.705
44919W        W11702  11.130   6.822  14.764
44920W        W11703  32.400   5.706  10.619
44921W        W11704  20.915  34.240   2.368
44922W        W11705  40.468  20.088  11.739
44923W        W11706  40.805  31.142  13.557
44924W        W11707   6.850  16.761  11.438
44925W        W11708  15.401   4.685   0.826
44926W        W11709  10.620   5.179   3.211
44927W        W11710  19.729  28.674  12.626
44928W        W11711  35.450   9.370   1.739
44929W        W11712  26.691  26.893   2.211
44930W        W11713  37.826  39.138   1.928
44931W        W11714  26.213   3.343   3.223
44932W        W11715  18.180  35.435   4.764
44933W        W11716  34.971  25.590  13.415
44934W        W11717  37.371  12.286  11.642
44935W        W11718  31.523  15.386   4.383
44936W        W11719   3.164  15.616  14.822
44937W        W11720  26.533  19.283  14.380
44938W        W11721  19.181  42.487  13.381
44939W        W11722  25.024  19.557  12.086
44940W        W11723  14.983  33.676  12.484
44941W        W11724  29.381   4.198   2.357
44942W        W11725  39.103  13.139   0.737
44943W        W11726  19.103  18.832  10.662
44944W        W11727  41.569   8.820   1.985
44945W        W11728  27.374  36.777  11.216
44946W        W11729   0.559  21.148  12.209
44947W        W11730  18.261  40.379   1.444
44948W        W11731  33.235   6.176  12.350
44949W        W11732  23.782  19.425  14.401
44950W        W11733  20.322  15.155   2.789
44951W        W11734  15.098  31.100  12.061
44952W        W11735  41.339  35.867  13.954
44953W        W11736  41.858   1.977   0.855
44954W        W11737  40.442  29.373  13.937
44955W        W11738  12.941  40.357  10.195
44956W        W11739  35.865  41.569  12.007
44957W        W11740  11.592  13.667   0.979
44958W        W11741   5.725  13.737   1.850
44959W        W11742  31.330  13.284   2.212
44960W        W11743  10.322  31.006   4.594
44961W        W11744   7.981  12.843  13.561
44962W        W11745   5.409  19.010   3.824
44963W        W11746   4.294  23.304  13.750
44964W        W11747  34.519  19.975   3.274
44965W        W11748   8.156  36.899   0.685
44966W        W11749  21.708  26.653   0.906
44967W        W11750  37.282   7.302  12.389
44968W        W11751  40.432  38.993   3.234
44969W        W11752  23.850   5.256  12.079
44970W        W11753  39.776  20.717  14.343
44971W        W11754   5.914  11.894  10.618
44972W        W11755  33.651  38.048  11.291
44973W        W11756   3.281  21.677   4.597
44974W        W11757  37.561  12.051  14.788
44975W        W11758  12.124   2.908   0.351
44976W        W11759  39.552   6.819   3.534
44977W        W11760  23.883  41.777  10.327
44978W        W11761  22.687  36.481   2.209
44979W        W11762   5.674  17.137   3.898
44980W        W11763  15.330  26.442  13.436
44981W        W11764   5.703  25.017   1.351
44982W        W11765  11.929   2.177  13.296
44983W        W11766  20.045  29.054  10.428
44984W        W11767  43.982   8.310  14.567
44985W        W11768  15.686  29.435   3.792
44986W        W11769  39.878  15.672   3.123
44987W        W11770  28.581  22.758   1.374
44988W        W11771  31.597  38.283   4.095
44989W        W11772  36.543  42.385  14.324
44990W        W11773  16.827  31.823  10.292
44991W        W11774   0.325  24.075  12.093
44992W        W11775  15.332  23.249  11.519
44993W        W11776  34.576  13.454  10.615
44994W        W11777   8.136   7.520  12.596
44995W        W11778  43.312  20.118  11.889
44996W        W11779   3.458  33.410  14.837
44997W        W11780  29.898  24.489   4.656
44998W        W11781   9.141  13.886   3.068
44999W        W11782  44.834  17.213   4.547
45000W        W11783  20.140  19.260   4.167
45001W        W11784  14.345   5.756   0.215
45002W        W11785  43.888  25.348  13.171
45003W        W11786  26.107   4.230   3.878
45004W        W11787  43.884   0.047  10.551
45005W        W11788  22.763   4.941  11.147
45006W        W11789  35.884   4.606  13.863
45007W        W11790  37.452  34.321   1.251
45008W        W11791  10.234  16.843  10.789
45009W        W11792  32.077  20.489   2.302
45010W        W11793  32.248   0.926  14.310
45011W        W11794   7.773   4.713   4.020
45012W        W11795  13.828   7.283  10.785
45013W        W11796  15.065  24.814  12.821
45014W        W11797  39.454  20.788   2.896
45015W        W11798  43.298  32.064   4.514
45016W        W11799  24.709  41.864   2.760
45017W        W11800  34.208  10.150  14.924
45018W        W11801   6.794  11.598  13.514
45019W        W11802  12.745  24.408   2.293
45020W        W11803  24.420  25.198   2.785
45021W        W11804  32.357  27.583  12.426
45022W        W11805  39.586   3.044   1.234
45023W        W11806  30.648  40.846   4.918
45024W        W11807   4.327  10.262   0.986
45025W        W11808   1.900  12.818   4.992
45026W        W11809  31.480   5.327  12.352
45027W        W11810   2.162  13.971   3.733
45028W        W11811   4.468  35.442  12.627
45029W        W11812  44.008   6.552   4.868
45030W        W11813   1.262  25.449  13.100
45031W        W11814  31.201  11.060  12.971
45032W        W11815  30.469  17.574   1.699
45033W        W11816  36.071   2.716   4.973
45034W        W11817  38.283  26.586  12.371
45035W        W11818  44.771  40.390  13.567
45036W        W11819   4.058   1.421   1.335
45037W        W11820  31.776   2.837  12.636
45038W        W11821  26.546  20.649  13.834
45039W        W11822  14.602  16.074  11.841
45040W        W11823  32.361  30.014  14.577
45041W        W11824   0.075   2.140  12.881
45042W        W11825  33.556  40.264   2.854
45043W        W11826  10.494   6.281   2.600
45044W        W11827   4.158  14.352  13.595
45045W        W11828  40.527  39.797  13.041
45046W        W11829   5.411   5.855   0.393
45047W        W11830  30.419  40.957   0.794
45048W        W11831   2.390  31.638  13.446
45049W        W11832  38.402  40.505   1.824
45050W        W11833  40.952  38.536   2.081
45051W        W11834   0.217  18.030  11.628
45052W        W11835  24.276  17.732  11.065
45053W        W11836   7.640  28.970  10.354
45054W        W11837  32.635  36.505  13.909
45055W        W11838  29.439  32.231  10.446
45056W        W11839   0.476   1.631   1.906
45057W        W11840   8.750  27.900   2.648
45058W        W11841  19.467  43.448   3.339
45059W        W11842   1.381  33.648  14.495
45060W        W11843   8.156  18.313   3.615
45061W        W11844  23.551  19.242  13.451
45062W        W11845  18.747   8.142   0.383
45063W        W11846   3.492   2.213  12.452
45064W        W11847  38.250  37.739  14.823
45065W        W11848  15.227  16.064  11.529
45066W        W11849  32.343  30.566  13.849
45067W        W11850  37.647  34.476   0.367
45068W        W11851   9.104  23.656  12.498
45069W        W11852  18.821  17.919  12.518
45070W        W11853  21.005   7.510  11.207
45071W        W11854   3.690  19.492  12.006
45072W        W11855   9.239  15.629  11.695
45073W        W11856  44.430  12.690  11.351
45074W        W11857  38.807  30.145  13.238
45075W        W11858   7.641  21.735  11.077
45076W        W11859  18.229  22.481  14.195
45077W        W11860  15.610   6.823  10.641
45078W        W11861  39.117  23.798  12.556
45079W        W11862  40.400  15.532   4.158
45080W        W11863   1.955  35.024  13.546
45081W        W11864  34.417  40.442   4.053
45082W        W11865   8.310  19.707  13.021
45083W        W11866  26.176  39.263   5.522
45084W        W11867  12.949  20.876   4.434
45085W        W11868  16.680   8.642  14.617
45086W        W11869  39.084   3.222  10.652
45087W        W11870  18.701   9.677   0.268
45088W        W11871  42.812  29.202   3.124
45089W        W11872  39.977   1.337  13.990
45090W        W11873  13.120  33.956  10.750
45091W        W11874  36.907  15.633  10.674
45092W        W11875   1.028  27.365  11.565
45093W        W11876  22.666  22.932  13.051
45094W        W11877  15.894  26.520  12.435
45095W        W11878  33.984  43.578   0.754
45096W        W11879  41.297  24.805  12.536
45097W        W11880   5.810  13.871  10.747
45098W        W11881  37.556  39.196   4.518
45099W        W11882   9.778  26.963  12.888
45100W        W11883   9.640  42.624   4.073
45101W        W11884  44.103  42.791  14.488
45102W        W11885  21.319  33.807  11.021
45103W        W11886  42.861  36.771   3.885
45104W        W11887  44.725   6.820   3.184
45105W        W11888  39.610  28.402   1.404
45106W        W11889  34.365  14.615   2.810
45107W        W11890  18.222   6.321   3.128
45108W        W11891  27.203  31.006   3.797
45109W        W11892  28.937   5.534   4.555
45110W        W11893   5.477  16.714  11.757
45111W        W11894  19.077  38.582   2.379
45112W        W11895   7.094  18.232  11.902
45113W        W11896  27.038  17.402  12.102
45114W        W11897  10.690  14.126  13.580
45115W        W11898  22.841   2.422  14.619
45116W        W11899   9.714  17.218   1.727
45117W        W11900   5.896  43.929  11.650
45118W        W11901  25.341   6.027   3.395
45119W        W11902  31.797   6.757  14.157
45120W        W11903   5.116  40.588   2.750
45121W        W11904   8.889  29.654   3.644
45122W        W11905   2.376  39.859   0.774
45123W        W11906   1.320  30.794   3.286
45124W        W11907  20.955  39.083  10.234
45125W        W11908   0.911   0.970  12.580
45126W        W11909   7.350  36.607  13.410
45127W        W11910  16.169  23.988  10.578
45128W        W11911  33.701  27.116  12.491
45129W        W11912   6.146  18.547   2.191
45130W        W11913  16.785  27.469   4.811
45131W        W11914  27.933  18.849  11.553
45132W        W11915   3.397  26.948   3.717
45133W        W11916  19.733  10.004  14.040
45134W        W11917  11.449   8.036   1.872
45135W        W11918  12.908  32.868   3.239
45136W        W11919  17.122  35.994   2.810
45137W        W11920  19.604  38.341   4.504
45138W        W11921   1.926  43.619  13.481
45139W        W11922   4.528  15.849  12.022
45140W        W11923  12.885  17.613   4.391
45141W        W11924  11.652  15.466   3.228
45142W        W11925  44.154  32.963  11.613
45143W        W11926   6.689   6.851   3.061
45144W        W11927   6.827  32.178   1.495
45145W        W11928  41.099  42.726   3.213
45146W        W11929  23.406  16.201  13.726
45147W        W11930  11.540  37.414   4.549
45148W        W11931  37.749  40.336   3.812
45149W        W11932  36.786   0.435  11.933
45150W        W11933  20.437  29.515  12.038
45151W        W11934  27.175  25.160   0.834
45152W        W11935  15.650  38.320   0.494
45153W        W11936  38.310  34.650   3.080
45154W        W11937  11.731  44.644   0.060
45155W        W11938   0.426   3.363  11.091
45156W        W11939  33.904  26.118   0.126
45157W        W11940  27.203   6.488   2.812
45158W        W11941  16.026  36.520  14.381
45159W        W11942  20.509  42.709   1.365
45160W        W11943  31.260  41.685   3.338
45161W        W11944   0.983  44.343   3.281
45162W        W11945  37.419  24.090   4.390
45163W        W11946  32.705  19.638   0.903
45164W        W11947  10.901  35.131   0.739
45165W        W11948  37.413  21.679   4.179
45166W        W11949  40.421  33.954   4.645
45167W        W11950   3.249  22.934   2.621
45168W        W11951   4.965  26.071   3.374
45169W        W11952  34.989  31.874   4.513
45170W        W11953  26.583  37.999  11.029
45171W        W11954  25.622  43.827  13.538
45172W        W11955  19.774  37.983  13.316
45173W        W11956  40.727  15.757   2.626
45174W        W11957  40.423  33.480  12.350
45175W        W11958   5.347  27.696  13.112
45176W        W11959  15.826  40.981   4.026
45177W        W11960  33.432  17.600   4.486
45178W        W11961  11.136  42.019  14.959
45179W        W11962   1.418  30.985  12.604
45180W        W11963  32.010  24.186   1.698
45181W        W11964  40.534   8.846  11.858
45182W        W11965  42.342  42.773  14.222
45183W        W11966   8.186  16.230  11.758
45184W        W11967   6.490   1.273  10.289
45185W        W11968  33.633   5.148   2.989
45186W        W11969  14.143  23.770   2.793
45187W        W11970  24.814  18.652   1.782
45188W        W11971   1.878  40.536   2.772
45189W        W11972  21.286  16.070  14.461
45190W        W11973  39.338  12.271  14.504
45191W        W11974  29.675   8.321   1.783
45192W        W11975  32.050  16.110   1.090
45193W        W11976   8.279  10.819  12.347
45194W        W11977  18.859  10.318   1.919
45195W        W11978  14.174  11.735   2.369
45196W        W11979  25.136  31.051  14.479
45197W        W11980  19.640  32.534   0.735
45198W        W11981  12.208   7.702  12.382
45199W        W11982  32.508  19.004   3.219
45200W        W11983  38.431  22.547  11.581
45201W        W11984  24.357  33.194  13.424
45202W        W11985  11.048  26.433   4.154
45203W        W11986  24.404  42.966  14.962
45204W        W11987  17.975  32.399   4.164
45205W        W11988  23.643   0.922   4.199
45206W        W11989  34.459  21.464   2.024
45207W        W11990  37.841  22.229   1.862
45208W        W11991   0.555  36.236   0.798
45209W        W11992  13.737  22.639  11.819
45210W        W11993  30.203  31.604   1.218
45211W        W11994  12.659  12.386   2.244
45212W        W11995  29.235  40.594  13.343
45213W        W11996  11.585  17.342  10.606
45214W        W11997   5.731  24.978   0.405
45215W        W11998  17.881  13.200   1.361
45216W        W11999  44.925  32.248   1.682
45217W        W12000   7.759  42.960   1.804
45218W        W12001  27.854  42.512   3.226
45219W        W12002  32.600  15.687   3.742
45220W        W12003  29.103  42.457  14.570
45221W        W12004  38.222  36.363  13.946
45222W        W12005  31.651   8.189   2.686
45223W        W12006   0.005  28.850   3.595
45224W        W12007   1.144  40.526   4.869
45225W        W12008   8.204  31.942   0.480
45226W        W12009   6.747  30.899  12.458
45227W        W12010  30.531  13.078   4.599
45228W        W12011  38.006  38.546   1.005
45229W        W12012  10.271  18.581   4.256
45230W        W12013  10.209  31.511   3.035
45231W        W12014  43.082   9.884  14.538
45232W        W12015  19.272  24.253  12.610
45233W        W12016  35.565  42.651  14.893
45234W        W12017  42.443  19.912  14.489
45235W        W12018  40.026  39.646   1.747
45236W        W12019  28.442  33.557   2.013
45237W        W12020  17.152  26.137   0.096
45238W        W12021   9.927   9.106  13.448
45239W        W12022  38.745   0.579   2.577
45240W        W12023  37.085  28.678  13.971
45241W        W12024  37.843  27.539   0.331
45242W        W12025   7.233  32.563  12.583
45243W        W12026  19.621  21.598  11.801
45244W        W12027  19.616  40.954  14.361
45245W        W12028  23.271   0.656   9.747
45246W        W12029  26.700  21.100  14.025
45247W        W12030   9.314  33.014   1.608
45248W        W12031   3.674  31.129  14.557
45249W        W12032  28.363  24.767  13.048
45250W        W12033  17.797  20.205  13.327
45251W        W12034  29.918  34.811  11.161
45252W        W12035  33.193  32.846   1.311
45253W        W12036  38.828  21.148  14.518
45254W        W12037  38.573  30.026  10.598
45255W        W12038   6.207  32.342   3.166
45256W        W12039  40.471   1.093   3.184
45257W        W12040  19.811  26.001   4.589
45258W        W12041  27.687  24.697  10.488
45259W        W12042  19.691  18.324  12.056
45260W        W12043  23.002  33.441  11.641
45261W        W12044  15.011  40.955  14.323
45262W        W12045  35.347  18.770  11.046
45263W        W12046  13.585  16.684   4.589
45264W        W12047  40.423  32.603  12.434
45265W        W12048  13.173   3.763   0.221
45266W        W12049  37.672  21.179  13.085
45267W        W12050  40.403  20.693  12.429
45268W        W12051  18.186  20.162   4.838
45269W        W12052  44.290  21.524  11.536
45270W        W12053  32.545   3.023  13.094
45271W        W12054  30.961  10.064  12.128
45272W        W12055   0.746  43.833   2.052
45273W        W12056   0.949  14.596   3.531
45274W        W12057  44.233  39.659   1.366
45275W        W12058  10.379   7.807  12.542
45276W        W12059  41.854   9.630  14.957
45277W        W12060  32.490  27.583  14.321
45278W        W12061  43.843  20.274  13.386
45279W        W12062  17.250   4.369   1.821
45280W        W12063  23.339   3.158  13.907
45281W        W12064  10.583   5.372   1.813
45282W        W12065  27.254  18.056  13.340
45283W        W12066  13.854  14.696   3.965
45284W        W12067  13.423  24.799   4.662
45285W        W12068  30.709  19.739   2.202
45286W        W12069  12.633  22.217  13.382
45287W        W12070  29.081  15.198  13.325
45288W        W12071   3.470  10.275  13.827
45289W        W12072  28.463  41.331   5.148
45290W        W12073   3.513  25.271  11.437
45291W        W12074  37.732  31.985   2.704
45292W        W12075  23.786  22.028   0.915
45293W        W12076  16.050   4.515   4.138
45294W        W12077   5.918  27.598  10.619
45295W        W12078  26.713   2.808  10.697
45296W        W12079  15.364  27.299   4.392
45297W        W12080  37.826  14.429   0.032
45298W        W12081  31.301   6.440  14.942
45299W        W12082  16.737  14.656   0.875
45300W        W12083  10.609  35.577   0.767
45301W        W12084  35.842  43.375  11.950
45302W        W12085  17.254  21.090   4.045
45303W        W12086  42.039  37.925   2.322
45304W        W12087  25.414   9.218  13.602
45305W        W12088   6.835  18.295   3.085
45306W        W12089  27.826  26.050  11.625
45307W        W12090  31.059  19.733  13.810
45308W        W12091  26.525  44.981  10.672
45309W        W12092  24.738   6.901   2.370
45310W        W12093  22.548  19.110  13.962
45311W        W12094  33.420  35.034  14.467
45312W        W12095  35.659   6.790   3.617
45313W        W12096  29.127  28.872   0.753
45314W        W12097  29.916  25.868   4.241
45315W        W12098  15.105  27.768   1.768
45316W        W12099  29.615  20.591  14.578
45317W        W12100  10.443  41.860   3.090
45318W        W12101  28.223  14.983  13.915
45319W        W12102  37.562  38.945  11.163
45320W        W12103  38.914  13.390   1.184
45321W        W12104  43.825  31.869  14.328
45322W        W12105  15.849  33.010   3.446
45323W        W12106  34.046  27.018  14.384
45324W        W12107  37.507  16.087  11.003
45325W        W12108  35.564   6.884   1.817
45326W        W12109  39.492   0.963   3.157
45327W        W12110  44.586  35.516   0.160
45328W        W12111   6.751  32.144   4.979
45329W        W12112  18.151  23.026  12.437
45330W        W12113  13.836  34.822  13.753
45331W        W12114  28.133  29.724   3.559
45332W        W12115  25.143  41.394   3.578
45333W        W12116   5.630  23.129  13.026
45334W        W12117  30.322  17.720   4.921
45335W        W12118  28.651  26.415  10.725
45336W        W12119  28.897  21.764   2.759
45337W        W12120  41.051  13.736   1.506
45338W        W12121  42.503  20.793  13.426
45339W        W12122  44.450  44.022  13.864
45340W        W12123  14.850  24.440  12.551
45341W        W12124   3.284   4.377   2.497
45342W        W12125  28.409   9.783  11.852
45343W        W12126   1.994   3.535  13.142
45344W        W12127   1.716  44.915  13.058
45345W        W12128  33.644  14.770   1.272
45346W        W12129   2.455   8.101  11.688
45347W        W12130  20.863   6.411   4.778
45348W        W12131  29.379  14.107  13.923
45349W        W12132  44.566   9.334  11.422
45350W        W12133  18.534   1.378  13.854
45351W        W12134  10.663  42.234  14.999
45352W        W12135  25.110  29.017  14.425
45353W        W12136  19.317   4.995  11.554
45354W        W12137  27.640  23.358  12.336
45355W        W12138  20.106  13.318  13.066
45356W        W12139  34.053   0.686   1.715
45357W        W12140  44.845  43.823   4.591
45358W        W12141  21.009  41.043  10.620
45359W        W12142   7.705  34.433   3.337
45360W        W12143   7.834   8.305   4.778
45361W        W12144  43.290   3.929   1.206
45362W        W12145   8.818  15.124   1.299
45363W        W12146  11.700  38.200  14.289
45364W        W12147  36.843  22.969  12.467
45365W        W12148  30.404  23.339  10.236
45366W        W12149  14.824  11.822  11.958
45367W        W12150   2.175   9.459  13.363
45368W        W12151  31.849   6.103  11.065
45369W        W12152  18.896  11.886  11.985
45370W        W12153  20.630  18.323   2.829
45371W        W12154  23.795  15.247  14.930
45372W        W12155   2.160  17.604  13.916
45373W        W12156   9.609  18.609  13.169
45374W        W12157  15.714  12.893   0.883
45375W        W12158  42.844  26.443  13.741
45376W        W12159  42.231   7.856  14.346
45377W        W12160  23.083   6.191   1.857
45378W        W12161  25.512  12.847   2.868
45379W        W12162  38.503   0.056   2.840
45380W        W12163   6.281  23.162  10.943
45381W        W12164  32.072  22.576   0.876
45382W        W12165   0.514  11.208  14.476
45383W        W12166  38.793  15.524  13.351
45384W        W12167  27.583  10.302   4.204
45385W        W12168  38.032   9.101   9.584
45386W        W12169   7.889  18.598   4.826
45387W        W12170   1.977  23.559   1.709
45388W        W12171  20.805  17.750  12.467
45389W        W12172  17.340   8.649  14.068
45390W        W12173   8.250   1.116  11.153
45391W        W12174  36.106  43.509  14.857
45392W        W12175  39.699  33.990   2.419
45393W        W12176   4.665   5.325   3.852
45394W        W12177  28.308  24.038  11.479
45395W        W12178  30.809  31.921  10.817
45396W        W12179  37.041  40.802   0.842
45397W        W12180  12.760  11.869   2.291
45398W        W12181  44.865  21.125   3.827
45399W        W12182  44.241  37.789   1.208
45400W        W12183  12.267  24.746   2.895
45401W        W12184   9.390   9.339  14.257
45402W        W12185  43.447   4.342   4.156
45403W        W12186  17.623  15.162   0.788
45404W        W12187  22.121  22.814  11.959
45405W        W12188   7.966  17.988  10.732
45406W        W12189  16.084  27.014  11.278
45407W        W12190   2.090  11.903  11.944
45408W        W12191  20.235  29.504  14.980
45409W        W12192  35.622  38.938   2.165
45410W        W12193  10.249  39.912   1.008
45411W        W12194  28.692  34.099  12.856
45412W        W12195   3.705  29.043   0.883
45413W        W12196  22.983  24.941  11.286
45414W        W12197  16.795  24.556   3.024
45415W        W12198   8.267  27.714  12.084
45416W        W12199  44.908   4.277  13.422
45417W        W12200  24.824   4.915  10.781
45418W        W12201  44.043  10.866   3.802
45419W        W12202  36.031  20.764   3.288
45420W        W12203   6.926  44.522   0.318
45421W        W12204   8.597  37.914  14.196
45422W        W12205   1.672  35.437  13.410
45423W        W12206  25.548  29.611   2.100
45424W        W12207   2.341  15.396  10.910
45425W        W12208   5.498  16.228  14.856
45426W        W12209  14.585  27.496   4.130
45427W        W12210  25.525  20.359   4.721
45428W        W12211   6.598  28.075  13.810
45429W        W12212   2.289  39.610   1.331
45430W        W12213  21.259   2.476   3.011
45431W        W12214  33.037  38.013   4.624
45432W        W12215  39.589  26.452  11.000
45433W        W12216   8.954  10.514  11.045
45434W        W12217  10.773   2.198   2.364
45435W        W12218  40.460  34.577   3.759
45436W        W12219  28.113  23.596  13.552
45437W        W12220   8.396   9.851  12.324
45438W        W12221  17.763  34.000   2.239
45439W        W12222  43.054   7.124  14.294
45440W        W12223  25.058  31.659   4.763
45441W        W12224  42.598  16.279  14.495
45442W        W12225   0.002  30.630  13.178
45443W        W12226  23.016  31.924   4.073
45444W        W12227   5.770  13.944  13.352
45445W        W12228  35.397  40.232   0.095
45446W        W12229  38.743  44.602  11.620
45447W        W12230  31.471  23.829  14.453
45448W        W12231  11.505  19.767  11.515
45449W        W12232  35.368  27.007   4.253
45450W        W12233  19.402  35.138   4.350
45451W        W12234  40.458  44.988  11.978
45452W        W12235   0.889   6.469   4.525
45453W        W12236   9.704  43.301   3.146
45454W        W12237  37.125  29.044   1.166
45455W        W12238  31.561  11.193  11.389
45456W        W12239   8.762  26.965  11.139
45457W        W12240  38.317  32.039   3.807
45458W        W12241  10.404  36.317   1.850
45459W        W12242  17.184  19.063   2.382
45460W        W12243  40.080  25.730  13.794
45461W        W12244  43.404  27.084   4.765
45462W        W12245   1.978  33.000   4.406
45463W        W12246  12.076   8.892   0.000
45464W        W12247  20.601  27.186  13.954
45465W        W12248  21.566  29.580   2.775
45466W        W12249  14.641   3.635  12.134
45467W        W12250  26.956  14.734   4.479
45468W        W12251  10.833  31.597   0.930
45469W        W12252  38.568  42.076  11.620
45470W        W12253  30.332  43.795   2.446
45471W        W12254   3.711  33.162  12.032
45472W        W12255  22.167  38.129  13.016
45473W        W12256  18.750  43.840  10.922
45474W        W12257  25.009  19.590   3.652
45475W        W12258  22.056  13.293   1.192
45476W        W12259  11.173   2.245   3.743
45477W        W12260  43.497   1.346  11.587
45478W        W12261   4.925  27.411   2.714
45479W        W12262  41.960  30.474   1.456
45480W        W12263  16.748  34.390   4.134
45481W        W12264  33.146   9.039   1.921
45482W        W12265   9.115  18.687   1.230
45483W        W12266  30.128  25.926   0.449
45484W        W12267  39.130  22.551  13.489
45485W        W12268  11.656  10.474   3.134
45486W        W12269   8.860  21.755  11.633
45487W        W12270  35.770  22.708   0.354
45488W        W12271  20.984   0.507   4.659
45489W        W12272  29.478  16.697  13.905
45490W        W12273  44.579  29.726   5.086
45491W        W12274  39.087   7.461   3.687
45492W        W12275  33.046  39.503  12.214
45493W        W12276  41.789  18.159  12.053
45494W        W12277  31.608  40.512  13.080
45495W        W12278  27.560  32.952  14.969
45496W        W12279   6.533  23.370   4.222
45497W        W12280  14.638  33.534  13.450
45498W        W12281   1.795  34.315   2.036
45499W        W12282  43.918   5.222   2.680
45500W        W12283  40.873  35.266  12.004
45501W        W12284   8.850   9.677  12.972
45502W        W12285  30.465  42.009  12.972
45503W        W12286  18.393   6.929  11.992
45504W        W12287  22.503  18.818  13.315
45505W        W12288  24.920  23.154  13.907
45506W        W12289   1.999  25.539   0.980
45507W        W12290  41.162  17.029  14.320
45508W        W12291  25.666  33.897  11.050
45509W        W12292  16.327   4.410  13.785
45510W        W12293  18.235  39.923   2.157
45511W        W12294   9.201   5.741   0.898
45512W        W12295  23.889  43.432   0.428
45513W        W12296   2.820   6.744  12.104
45514W        W12297  39.458  11.872   4.238
45515W        W12298  42.726  40.914  12.021
45516W        W12299  21.505  30.908  11.270
45517W        W12300   1.494  24.094   2.866
45518W        W12301   6.911  19.661   3.716
45519W        W12302  16.581  41.893  13.347
45520W        W12303  26.564   3.023   1.003
45521W        W12304  37.033  38.331  13.893
45522W        W12305  14.785  30.122   3.899
45523W        W12306  20.475  10.746  10.686
45524W        W12307  16.791  40.470  12.786
45525W        W12308  20.746  40.640   4.627
45526W        W12309   2.813  21.730   4.402
45527W        W12310  22.026  18.966  12.856
45528W        W12311  16.890   4.332   1.410
45529W        W12312  34.607   0.886   3.353
45530W        W12313   6.580  18.759   2.401
45531W        W12314   4.754  40.920  14.316
45532W        W12315  31.864  44.326  12.629
45533W        W12316  18.993  43.722  14.017
45534W        W12317  19.169  25.626   0.047
45535W        W12318  20.487  14.890  13.483
45536W        W12319  12.856  21.064   1.015
45537W        W12320  22.126   1.262   4.511
45538W        W12321  23.048  13.224  13.516
45539W        W12322  28.609   4.208   1.792
45540W        W12323  35.140   3.926   2.535
45541W        W12324   5.223  33.716   2.382
45542W        W12325   1.892  19.070   4.019
45543W        W12326  35.472   0.756   3.419
45544W        W12327  14.595   8.366  14.515
45545W        W12328   7.973  11.662   3.801
45546W        W12329  43.991  27.113  14.381
45547W        W12330  39.485   3.673   4.536
45548W        W12331  35.537  40.950  13.602
45549W        W12332  23.499  27.178  12.079
45550W        W12333  11.300   6.772   1.158
45551W        W12334  28.064  34.624  12.572
45552W        W12335  38.124  13.046  12.408
45553W        W12336  15.578  25.068  13.418
45554W        W12337  43.889  25.546  12.263
45555W        W12338   1.476  40.449  11.089
45556W        W12339  17.555  10.744  10.886
45557W        W12340   4.756   5.515  12.601
45558W        W12341   5.659   2.876  13.921
45559W        W12342  40.569  19.246   2.861
45560W        W12343  15.392  18.632   1.845
45561W        W12344  17.777  33.886   2.745
45562W        W12345  21.949  25.901   0.782
45563W        W12346  28.641  18.818   2.411
45564W        W12347  25.226   6.941   0.209
45565W        W12348  16.754  38.590  11.027
45566W        W12349  29.506  24.508  13.315
45567W        W12350   3.940  39.840  14.825
45568W        W12351  31.400  29.623   0.728
45569W        W12352  18.233  30.476   0.493
45570W        W12353   0.825  35.917   3.321
45571W        W12354  26.191  18.829   3.301
45572W        W12355  38.005  36.080  14.493
45573W        W12356  29.145  38.795   1.372
45574W        W12357  27.182  20.226  14.754
45575W        W12358  41.902   9.371  10.278
45576W        W12359  41.817   6.983   5.406
45577W        W12360  26.769  39.831   1.805
45578W        W12361  26.595  34.198   2.351
45579W        W12362  32.125   7.494   3.919
45580W        W12363   0.585  31.906  14.430
45581W        W12364  16.269  38.092  14.732
45582W        W12365  27.736  24.876   3.712
45583W        W12366   1.371  18.672  13.307
45584W        W12367  30.034   3.281  13.987
45585W        W12368  23.566  11.038   3.876
45586W        W12369  38.487  36.409  14.964
45587W        W12370   4.661   7.866   0.460
45588W        W12371  21.024  28.443   2.773
45589W        W12372  28.098   1.557  14.975
45590W        W12373  41.207  44.286   0.851
45591W        W12374   2.376  23.491  11.372
45592W        W12375   1.402  19.152  13.509
45593W        W12376  14.413   0.219  11.120
45594W        W12377  20.874  20.090  10.751
45595W        W12378  15.906   4.159   0.389
45596W        W12379  34.170  16.152   3.147
45597W        W12380  30.186  40.054  10.947
45598W        W12381  31.659  35.991   0.946
45599W        W12382   0.419  17.613  11.408
45600W        W12383  39.171  23.690   0.678
45601W        W12384  33.065  44.798  12.556
45602W        W12385  13.694  36.055   1.037
45603W        W12386  34.415  23.138   2.852
45604W        W12387  42.861   6.773  13.964
45605W        W12388  12.620  11.163  12.083
45606W        W12389  43.841  34.901  14.952
45607W        W12390  34.416  25.002  12.878
45608W        W12391  43.867  17.700  11.598
45609W        W12392  21.625  22.406  13.974
45610W        W12393  30.561  37.548   0.315
45611W        W12394  19.468  26.369  12.422
45612W        W12395  24.334  25.133  11.453
45613W        W12396  17.623  17.233  10.884
45614W        W12397  30.577  21.574   3.402
45615W        W12398  14.979  44.195  14.497
45616W        W12399  10.935  12.499   0.730
45617W        W12400  20.514  16.562  12.857
45618W        W12401  13.306  18.218   4.530
45619W        W12402  39.437  15.858  13.923
45620W        W12403   5.268  14.084   0.838
45621W        W12404  16.775   1.761   1.934
45622W        W12405   7.840  12.023   5.011
45623W        W12406   6.149  43.785  14.591
45624W        W12407  17.140  38.480   3.683
45625W        W12408  23.740   8.461  11.560
45626W        W12409  17.602  12.701  10.309
45627W        W12410   8.269  39.927   2.238
45628W        W12411  37.298  15.297  11.886
45629W        W12412  44.537  30.966  13.839
45630W        W12413   5.854  14.690   1.054
45631W        W12414   3.687  38.767   3.281
45632W        W12415  31.590  20.348   2.772
45633W        W12416  30.577   0.807   1.711
45634W        W12417   6.411  22.014  12.596
45635W        W12418  13.915  40.834  13.452
45636W        W12419  22.239  19.631   1.912
45637W        W12420  44.292  16.074  14.868
45638W        W12421  37.362  15.589  11.001
45639W        W12422  35.418  14.558   0.999
45640W        W12423  18.756  26.632   3.307
45641W        W12424  42.587  34.991  11.966
45642W        W12425   9.962   3.874  14.953
45643W        W12426  29.634   8.921  12.045
45644W        W12427  17.167  18.627   2.132
45645W        W12428  13.575  41.304  11.632
45646W        W12429  16.685  39.097  11.029
45647W        W12430  40.632  22.127  13.450
45648W        W12431  34.678  36.403   3.376
45649W        W12432  38.415  15.082  12.507
45650W        W12433  41.884  24.563  14.470
45651W        W12434  21.205  24.016   1.498
45652W        W12435  37.635  41.950   1.935
45653W        W12436  20.347  41.438  11.114
45654W        W12437  18.252  19.605   4.138
45655W        W12438  42.299  14.118   1.269
45656W        W12439  34.860  22.624  11.190
45657W        W12440  31.782  15.740   4.045
45658W        W12441   1.447  29.946   0.827
45659W        W12442  35.189  44.437  11.141
45660W        W12443  31.158  35.418  10.674
45661W        W12444  23.083  33.687   2.671
45662W        W12445  15.759  25.030  12.037
45663W        W12446   9.901   2.698   2.318
45664W        W12447  30.433  34.900   2.794
45665W        W12448  43.929  39.494   3.426
45666W        W12449  42.394  19.281  12.344
45667W        W12450  36.079  32.628   3.089
45668W        W12451  17.774  39.270  14.842
45669W        W12452   9.791  12.417  10.726
45670W        W12453  27.918  13.215  14.247
45671W        W12454  40.771   5.837  12.894
45672W        W12455   4.075  19.127  11.875
45673W        W12456  21.132  33.603  10.590
45674W        W12457  25.529  44.990   3.283
45675W        W12458  35.983  40.170   3.124
45676W        W12459  23.919  44.881   1.354
45677W        W12460  19.252  18.295  10.264
45678W        W12461  11.802  11.705   0.267
45679W        W12462  16.983  40.608  11.075
45680W        W12463  14.475  40.397   4.687
45681W        W12464   0.867  11.389  12.042
45682W        W12465  23.492  43.236  14.469
45683W        W12466   4.295  33.643  13.333
45684W        W12467   6.903  19.577  12.978
45685W        W12468  37.920  41.064   0.497
45686W        W12469  16.401  35.117  11.979
45687W        W12470   6.899  24.725  13.310
45688W        W12471  26.895  16.072  12.978
45689W        W12472   1.396  39.874  12.455
45690W        W12473  22.259  32.603  13.051
45691W        W12474  18.071  43.328  13.897
45692W        W12475  39.978  19.336   3.169
45693W        W12476   9.790  15.612   4.535
45694W        W12477  44.392  36.649   3.384
45695W        W12478  27.007  21.196  12.881
45696W        W12479  14.409  42.946  12.484
45697W        W12480  21.586   2.844   3.176
45698W        W12481  14.864  43.414  11.764
45699W        W12482  40.548  34.050   3.567
45700W        W12483  28.686  20.220  10.601
45701W        W12484  27.351  11.552  12.125
45702W        W12485  40.045  43.727   1.209
45703W        W12486  21.050  14.201   4.271
45704W        W12487  10.161  12.256   1.209
45705W        W12488  12.637  11.636  10.441
45706W        W12489  27.150  24.095  10.402
45707W        W12490  23.980  28.092   3.540
45708W        W12491  24.020  21.294  11.154
45709W        W12492  12.301  19.033   3.586
45710W        W12493  35.469   4.300   2.115
45711W        W12494  25.294   4.756  14.811
45712W        W12495  22.211  41.086  14.938
45713W        W12496  36.635  43.702   1.404
45714W        W12497  26.079  35.056  11.951
45715W        W12498  10.349  36.516   3.186
45716W        W12499   2.342  39.270  14.939
45717W        W12500  21.282  43.894  10.606
45718W        W12501  40.983  40.977   0.364
45719W        W12502  20.604  18.527   3.643
45720W        W12503  37.320   2.908  14.207
45721W        W12504  25.226  22.090   2.162
45722W        W12505   7.723  11.163   1.827
45723W        W12506  29.019  35.432   2.800
45724W        W12507   1.992   1.733  13.851
45725W        W12508  30.000  10.907   0.402
45726W        W12509  11.152  26.505  10.910
45727W        W12510  10.618  40.024  12.602
45728W        W12511  26.474   2.886   4.621
45729W        W12512  13.654  22.699   0.789
45730W        W12513  15.836  15.305   3.798
45731W        W12514  15.273  28.495   1.362
45732W        W12515  23.736  21.969   4.175
45733W        W12516  10.077  30.503  13.470
45734W        W12517  22.217  42.451  12.843
45735W        W12518  15.717   5.025  12.832
45736W        W12519  38.348  31.381   0.993
45737W        W12520  16.331  43.956  13.429
45738W        W12521  20.156   0.989   0.488
45739W        W12522  32.014  24.244  13.848
45740W        W12523  38.586  20.701  10.792
45741W        W12524  19.117  42.269  12.922
45742W        W12525  23.072  38.275  13.368
45743W        W12526   3.360  43.512   4.196
45744W        W12527   4.141  26.110  12.418
45745W        W12528  44.220   1.420   2.913
45746W        W12529  13.124  30.187   3.820
45747W        W12530  35.805   5.792  10.528
45748W        W12531  31.888  12.153  12.937
45749W        W12532   0.413  40.234  12.865
45750W        W12533  32.143   2.931   0.932
45751W        W12534   0.807   6.387   0.520
45752W        W12535  38.354  37.943  12.522
45753W        W12536   3.862  25.330   4.791
45754W        W12537  24.062  27.860   3.061
45755W        W12538  20.043  26.940  11.953
45756W        W12539   2.702  37.569   1.220
45757W        W12540  39.152   6.110   3.285
45758W        W12541   7.560  19.473   0.462
45759W        W12542  26.602   8.612   1.851
45760W        W12543  18.597  30.132   4.148
45761W        W12544  15.128  21.215   3.204
45762W        W12545  33.199  33.677  14.798
45763W        W12546  30.014  42.063   5.102
45764W        W12547  42.031  39.323  12.248
45765W        W12548  40.379  40.916  14.216
45766W        W12549   9.427   1.078  14.952
45767W        W12550  37.067  15.167  14.966
45768W        W12551  26.043  10.081  14.325
45769W        W12552   3.707  40.844   0.003
45770W        W12553  20.769   3.402   4.118
45771W        W12554  19.063   7.844  14.258
45772W        W12555  36.878  25.817   3.806
45773W        W12556  21.806   7.300   5.168
45774W        W12557  12.943  10.618   2.809
45775W        W12558  39.326  16.871   4.701
45776W        W12559   3.044   2.911   0.742
45777W        W12560  43.848  16.906   4.590
45778W        W12561  26.711  32.339  13.739
45779W        W12562  40.489   3.206   2.441
45780W        W12563  33.182  34.909   0.424
45781W        W12564  20.587  21.042   0.505
45782W        W12565  37.287  31.102   4.482
45783W        W12566  16.598  10.077  13.425
45784W        W12567  25.268  34.522   1.909
45785W        W12568  14.023   8.178   4.195
45786W        W12569   5.435   1.386  12.444
45787W        W12570  31.991   9.626  11.426
45788W        W12571   2.990  13.098   4.816
45789W        W12572  37.007   1.690  10.376
45790W        W12573  25.063  32.973   3.168
45791W        W12574  11.737  38.733   4.078
45792W        W12575   4.909   5.091   3.451
45793W        W12576  34.114  40.993  13.522
45794W        W12577  30.383  26.982   2.692
45795W        W12578  10.335  26.019   4.690
45796W        W12579  44.350  30.121  13.327
45797W        W12580   4.704   2.673   4.173
45798W        W12581  30.026  13.702   0.722
45799W        W12582  38.212   6.359   0.960
45800W        W12583  18.623   6.392   1.724
45801W        W12584  36.906   2.907  11.128
45802W        W12585  19.782  10.806  11.310
45803W        W12586   5.647   9.818   2.275
45804W        W12587  28.935  33.396  13.872
45805W        W12588  36.026  19.925   3.085
45806W        W12589  28.182  27.900  13.565
45807W        W12590  33.112  20.603   1.625
45808W        W12591  31.498  23.158   0.437
45809W        W12592  11.497  39.247   0.781
45810W        W12593  43.754  41.898   1.216
45811W        W12594   0.831  18.795  10.402
45812W        W12595  43.093   9.664   0.399
45813W        W12596  41.820   3.209   5.102
45814W        W12597  25.121  37.547  12.093
45815W        W12598  21.978  34.793   4.063
45816W        W12599   8.643  16.686   4.103
45817W        W12600  37.980   0.172  13.440
45818W        W12601  32.650  22.260   3.183
45819W        W12602  30.542  23.603   0.498
45820W        W12603  17.207  15.281  11.853
45821W        W12604  30.469  30.490  10.719
45822W        W12605   1.989   5.895  11.375
45823W        W12606  29.925  38.385   1.682
45824W        W12607  25.208  38.836  14.933
45825W        W12608   8.790   0.380  13.496
45826W        W12609  23.398  34.447  14.790
45827W        W12610  42.805  20.115  11.914
45828W        W12611  29.470   5.092   0.414
45829W        W12612  18.056   9.519   0.899
45830W        W12613  40.931  34.662   4.871
45831W        W12614  18.153  28.565  12.727
45832W        W12615  26.799  36.021   4.053
45833W        W12616  18.663   3.283   2.128
45834W        W12617   4.110   3.325   5.151
45835W        W12618   3.485   4.529  12.653
45836W        W12619   8.755   1.262  13.378
45837W        W12620  27.404  25.119  11.876
45838W        W12621  23.125  16.071   3.153
45839W        W12622  10.304  13.567   0.820
45840W        W12623  43.941  19.831   0.770
45841W        W12624  12.124   4.985  14.338
45842W        W12625   6.351  19.800  11.173
45843W        W12626  35.354  22.486   2.261
45844W        W12627  43.204   0.313   0.032
45845W        W12628  20.846  26.199  13.300
45846W        W12629  23.509   6.512  14.827
45847W        W12630  44.534   7.647   0.061
45848W        W12631  11.259  32.598   2.646
45849W        W12632  44.962  15.349  11.694
45850W        W12633  40.438  20.689   0.917
45851W        W12634   5.647  20.602   0.698
45852W        W12635  20.624  19.650  10.709
45853W        W12636   3.805  27.005  11.386
45854W        W12637  43.724  28.727   1.761
45855W        W12638  17.824  12.608  14.935
45856W        W12639  33.921  29.245  14.549
45857W        W12640   6.960  39.301  14.794
45858W        W12641   8.431  35.142  12.846
45859W        W12642   7.171  44.217  11.824
45860W        W12643  35.270  31.870  10.978
45861W        W12644  19.138  10.740  14.419
45862W        W12645  10.264  16.591  11.730
45863W        W12646   0.231  27.280  11.228
45864W        W12647  27.416  22.686   2.690
45865W        W12648  43.723  25.340  11.323
45866W        W12649  41.353  18.696   0.949
45867W        W12650  12.775  17.114   1.025
45868W        W12651  29.074  19.624  12.640
45869W        W12652  30.000  12.454  12.741
45870W        W12653  14.303  44.537  13.900
45871W        W12654  28.182   2.657   3.136
45872W        W12655   5.242  19.167   0.504
45873W        W12656   8.199  34.852  11.619
45874W        W12657  41.551  26.223   4.100
45875W        W12658  11.881  24.881  12.837
45876W        W12659  21.462  39.900  13.765
45877W        W12660  38.166  10.210   2.386
45878W        W12661  24.429  28.400  11.592
45879W        W12662   0.720  43.425  14.126
45880W        W12663  36.643  38.341   4.144
45881W        W12664  20.070  20.691   3.451
45882W        W12665  31.520   4.873   2.696
45883W        W12666  25.225   9.548  10.943
45884W        W12667  36.620  23.625  10.277
45885W        W12668  33.525  24.428  13.895
45886W        W12669  39.944  22.300   4.943
45887W        W12670  19.639  43.046   1.825
45888W        W12671  24.120  25.491   3.116
45889W        W12672  39.603  13.008  14.968
45890W        W12673  13.369  26.743  11.392
45891W        W12674  23.308  24.180  14.542
45892W        W12675  31.381  36.367   1.223
45893W        W12676   7.177  44.965  14.448
45894W        W12677  19.723   2.289  12.791
45895W        W12678   3.009  26.935  11.022
45896W        W12679   0.437  21.797   0.808
45897W        W12680  36.498  19.165   0.875
45898W        W12681  11.286  29.005   3.356
45899W        W12682  44.918  33.722   3.142
45900W        W12683  29.252   3.967  10.404
45901W        W12684   7.312  44.279   4.276
45902W        W12685   6.942  23.011   0.373
45903W        W12686   6.228   8.832  14.431
45904W        W12687   1.206  36.175  12.822
45905W        W12688  38.275  38.559  11.451
45906W        W12689   8.467  25.773   4.471
45907W        W12690  19.469  34.133  11.533
45908W        W12691   2.874  15.055  13.147
45909W        W12692  27.859  27.356   1.019
45910W        W12693   5.661   6.866  13.380
45911W        W12694   9.395   0.900   4.603
45912W        W12695   1.478  43.672   2.224
45913W        W12696  42.272   7.632   1.205
45914W        W12697  44.101  17.483  11.205
45915W        W12698  42.042  23.691  14.488
45916W        W12699  44.246   6.277  13.308
45917W        W12700  40.829  18.878   3.342
45918W        W12701  42.426  27.392   4.403
45919W        W12702  17.201   3.277  11.581
45920W        W12703  18.831   5.920   0.969
45921W        W12704   8.228  37.881   3.113
45922W        W12705  44.043  30.502  13.528
45923W        W12706  43.315  10.190  12.023
45924W        W12707  37.235  37.841  14.391
45925W        W12708   9.552   2.222   1.566
45926W        W12709  31.563  20.177   3.640
45927W        W12710  14.080  27.132  10.326
45928W        W12711  23.906  18.186   2.855
45929W        W12712  25.632  30.859  12.947
45930W        W12713  28.667  44.261   2.687
45931W        W12714  35.879   5.122  13.927
45932W        W12715  40.488  24.560   2.854
45933W        W12716   7.501  32.089  12.739
45934W        W12717  43.891   2.688   4.745
45935W        W12718  30.000  30.469  11.708
45936W        W12719  17.270  42.450   0.477
45937W        W12720   2.392  30.385  13.568
45938W        W12721  19.492  19.692   0.374
45939W        W12722   4.410  17.724   1.551
45940W        W12723  19.338  26.225  11.445
45941W        W12724  41.719  17.812   3.909
45942W        W12725  12.826  31.107  14.777
45943W        W12726  41.556  31.966  11.648
45944W        W12727  11.153   0.781   2.332
45945W        W12728   0.703  26.333  11.756
45946W        W12729   9.375  17.039   3.351
45947W        W12730  16.167   8.363   3.625
45948W        W12731   0.221  40.927   3.328
45949W        W12732  27.178  42.320   0.935
45950W        W12733  36.006  39.456  13.806
45951W        W12734  32.655   8.828  12.050
45952W        W12735  41.033  38.492   3.955
45953W        W12736  25.713   8.253   2.428
45954W        W12737   0.339  24.247   1.407
45955W        W12738  43.200  11.528  13.337
45956W        W12739   3.345   4.530  14.479
45957W        W12740  17.977  25.159   3.599
45958W        W12741  33.948  16.840   2.219
45959W        W12742  24.111  43.420  13.314
45960W        W12743  44.947  32.993  11.900
45961W        W12744  22.832   8.590  11.068
45962W        W12745  27.670  39.639  14.949
45963W        W12746   2.345  37.988   3.249
45964W        W12747  13.372  17.374  11.166
45965W        W12748  37.164   2.736   0.728
45966W        W12749   4.935  43.879   1.378
45967W        W12750   9.850  18.325   1.742
45968W        W12751   7.879  19.307  13.753
45969W        W12752  19.185   2.519   2.203
45970W        W12753   2.393  28.424   0.715
45971W        W12754  41.045  31.078   0.420
45972W        W12755  43.999  42.911   4.179
45973W        W12756   5.905   5.406   4.322
45974W        W12757  24.423  23.751   2.373
45975W        W12758  14.755  30.118  13.112
45976W        W12759  43.486  26.747   3.297
45977W        W12760   8.210   9.856   0.221
45978W        W12761  23.238  19.780  12.770
45979W        W12762  39.416  44.282   4.617
45980W        W12763  29.938  40.514  13.194
45981W        W12764  41.278   1.228   2.460
45982W        W12765  40.365  19.244  12.370
45983W        W12766   5.795  21.077   3.257
45984W        W12767   4.864  42.314   0.366
45985W        W12768  32.989   3.867  14.273
45986W        W12769   3.492  44.387  11.251
45987W        W12770  32.532   1.064  14.716
45988W        W12771  41.565  25.941  12.051
45989W        W12772  34.913  41.167   0.523
45990W        W12773   0.008   8.901  10.383
45991W        W12774  35.371  14.847  12.038
45992W        W12775   1.635  25.941   3.229
45993W        W12776  44.773  20.338  14.408
45994W        W12777  26.420  24.369  14.458
45995W        W12778   8.247  35.361  11.617
45996W        W12779  26.466  33.020   1.002
45997W        W12780  17.069  38.965  10.718
45998W        W12781  32.079  39.822  10.765
45999W        W12782  44.440  26.602  14.975
46000W        W12783   3.469  12.904  14.867
46001W        W12784  22.320  29.189   2.652
46002W        W12785  12.746  26.959   4.744
46003W        W12786  37.395  32.491  13.867
46004W        W12787  15.366   3.075  14.143
46005W        W12788  30.858  21.165   3.618
46006W        W12789  24.710  27.614  13.489
46007W        W12790  18.825  29.623   5.016
46008W        W12791   3.424  36.973  11.604
46009W        W12792   1.931  32.362   3.873
46010W        W12793  10.731   8.716   1.619
46011W        W12794  15.515  40.227   2.547
46012W        W12795  34.863  11.390  11.186
46013W        W12796  20.393  19.581  12.233
46014W        W12797  41.068   3.793   0.956
46015W        W12798   4.215  20.308   2.828
46016W        W12799   9.665   7.018  14.756
46017W        W12800  21.981  25.560  14.438
46018W        W12801  21.622  30.545  12.102
46019W        W12802  25.426  18.672   4.221
46020W        W12803  35.296  10.767   2.077
46021W        W12804  28.270  35.310   3.211
46022W        W12805   5.647   1.574   0.750
46023W        W12806  32.959  36.783   0.302
46024W        W12807  31.144   5.312   1.018
46025W        W12808   8.400  28.549   0.027
46026W        W12809  40.098   3.357  10.632
46027W        W12810  33.650   7.476   3.158
46028W        W12811  15.285  39.931   3.207
46029W        W12812  12.301  22.618   1.770
46030W        W12813  32.463  17.616   0.776
46031W        W12814  27.027  24.101  12.119
46032W        W12815   0.492  32.666   1.466
46033W        W12816  18.168  30.041   3.157
46034W        W12817  31.575   0.852   1.962
46035W        W12818  41.414   0.414  12.094
46036W        W12819  10.120  31.036   2.079
46037W        W12820   9.161  25.925  10.702
46038W        W12821  29.336   8.888  12.501
46039W        W12822  28.069   7.459  14.337
46040W        W12823  32.855  18.073  14.909
46041W        W12824  10.356   5.826  11.965
46042W        W12825   2.781  33.845  14.658
46043W        W12826  10.617  12.311   0.366
46044W        W12827  16.798   5.492   4.574
46045W        W12828  18.063  17.905  11.044
46046W        W12829   2.050  36.100   1.702
46047W        W12830  31.740  41.303  11.407
46048W        W12831  29.614  19.077   3.316
46049W        W12832  19.698  33.482   1.222
46050W        W12833   5.252  26.295   4.801
46051W        W12834  36.000   0.627  12.202
46052W        W12835  27.587  31.907  10.453
46053W        W12836  18.105  44.457   1.700
46054W        W12837   3.168  37.389  11.426
46055W        W12838   1.869  18.194   0.958
46056W        W12839   7.850  14.591  11.589
46057W        W12840  22.836   7.669   2.370
46058W        W12841  24.579  15.288  14.425
46059W        W12842  11.419   9.924  12.533
46060W        W12843  40.434  36.998   3.231
46061W        W12844  35.035  10.194   4.784
46062W        W12845  16.299  22.092   0.955
46063W        W12846  11.719  35.344  14.963
46064W        W12847  42.774  40.453  12.229
46065W        W12848  22.797   3.012  13.946
46066W        W12849  42.850  36.753   0.703
46067W        W12850  43.326  33.102   0.213
46068W        W12851  16.486  41.881  11.016
46069W        W12852  32.221  43.674   2.194
46070W        W12853  37.483  19.927  11.149
46071W        W12854  44.795   2.702  11.496
46072W        W12855  18.629   8.686  12.244
46073W        W12856  24.892   9.396   3.591
46074W        W12857   8.137  43.009  10.338
46075W        W12858  27.609  21.347  14.449
46076W        W12859   1.847  35.370   4.533
46077W        W12860  42.865  35.781   2.412
46078W        W12861  41.304  37.550   9.882
46079W        W12862  33.515  21.782   0.700
46080W        W12863   9.118  30.065  12.645
46081W        W12864  28.563  41.334   0.944
46082W        W12865   1.807  21.295  13.237
46083W        W12866   1.036  33.529   1.223
46084W        W12867  26.250  38.012  12.975
46085W        W12868  26.504  27.105  10.752
46086W        W12869  32.646  33.630  13.945
46087W        W12870   0.550  43.361   0.972
46088W        W12871   9.601  29.919  12.446
46089W        W12872  25.645  41.467   0.352
46090W        W12873   6.761   3.860   3.433
46091W        W12874  39.386  42.568   3.688
46092W        W12875   3.516  34.154   0.739
46093W        W12876  44.981  34.718   3.347
46094W        W12877  26.132  42.088   3.423
46095W        W12878  23.764  36.797  13.956
46096W        W12879  25.255  40.787   1.312
46097W        W12880  40.075  39.389   4.539
46098W        W12881   2.848  18.368   4.825
46099W        W12882  26.669  13.260  13.675
46100W        W12883  29.688   0.736  14.926
46101W        W12884  20.196  29.521  13.500
46102W        W12885  13.570   5.188  13.881
46103W        W12886  40.527  24.763   0.784
46104W        W12887  19.652   4.882   3.153
46105W        W12888   9.091  17.919  13.090
46106W        W12889  13.912  34.111  10.163
46107W        W12890  40.060  31.054   2.870
46108W        W12891  44.746   2.558   4.561
46109W        W12892  42.890  22.105   2.029
46110W        W12893  38.502  13.281  10.620
46111W        W12894  23.591  34.103  11.893
46112W        W12895  23.509  13.347   4.613
46113W        W12896   9.857  10.180   3.187
46114W        W12897  36.489  41.866   1.502
46115W        W12898   9.860  34.515  14.339
46116W        W12899  40.074  43.512  14.461
46117W        W12900  20.018  36.495  10.706
46118W        W12901  37.876  22.747   1.860
46119W        W12902  28.693   8.692  11.909
46120W        W12903  43.327  11.061   4.632
46121W        W12904  40.933  22.705   0.341
46122W        W12905  32.927  41.622  13.622
46123W        W12906  23.792  30.429  10.610
46124W        W12907  32.143  42.855   1.346
46125W        W12908  15.710   1.042   3.070
46126W        W12909  11.639  30.130   4.642
46127W        W12910  31.987  16.278  14.522
46128W        W12911   2.786   7.429  10.615
46129W        W12912   3.644   7.688  14.018
46130W        W12913  40.838  36.400   3.542
46131W        W12914  19.267  27.515   2.951
46132W        W12915   3.259  44.287  12.579
46133W        W12916   3.921  21.503  11.041
46134W        W12917  32.970  14.849   0.821
46135W        W12918  39.956   3.293  12.088
46136W        W12919  24.302  42.763   0.646
46137W        W12920  15.101  19.183  11.651
46138W        W12921   3.184  37.397  13.966
46139W        W12922   9.363  30.320  13.019
46140W        W12923   3.185  42.384   0.911
46141W        W12924  34.971  24.194  13.002
46142W        W12925   5.080  23.928  11.141
46143W        W12926  17.252  36.736  14.127
46144W        W12927  43.752  11.786   3.322
46145W        W12928  18.257  42.059  11.480
46146W        W12929  40.872  38.924   2.940
46147W        W12930  13.833  44.573   0.533
46148W        W12931  32.550  31.437  10.638
46149W        W12932  43.637   1.862  11.487
46150W        W12933  14.074  36.922   2.648
46151W        W12934  37.055  27.864  11.467
46152W        W12935   3.650  28.414  13.045
46153W        W12936  14.252  44.825   0.399
46154W        W12937  29.096  22.193   1.191
46155W        W12938  21.146  20.441   3.589
46156W        W12939  23.916  35.510  12.016
46157W        W12940  36.218  13.335  14.528
46158W        W12941  28.124  21.600  11.048
46159W        W12942  26.646  19.111   3.332
46160W        W12943  35.049  13.161  10.546
46161W        W12944  12.629   3.689   1.225
46162W        W12945   9.715  28.952  13.941
46163W        W12946  16.341   8.779   4.936
46164W        W12947  42.922  42.670   0.824
46165W        W12948  41.691   5.140   2.748
46166W        W12949   1.834  43.783   4.182
46167W        W12950  13.655  24.686  12.635
46168W        W12951  14.288   2.764   4.196
46169W        W12952  44.432  20.525  11.601
46170W        W12953  32.837  32.122   2.712
46171W        W12954  36.518  13.525   4.731
46172W        W12955  28.304  43.786  13.430
46173W        W12956  33.954  18.577  11.566
46174W        W12957  41.937  25.483   1.435
46175W        W12958  40.777   5.474  13.827
46176W        W12959  27.909   5.209   1.988
46177W        W12960  44.926   0.358  12.977
46178W        W12961  13.733  39.211   3.655
46179W        W12962   7.030   0.931  10.704
46180W        W12963  11.873   6.003  12.046
46181W        W12964  20.566  23.948   3.306
46182W        W12965  19.383  35.951   2.751
46183W        W12966  41.750  32.053   4.642
46184W        W12967   9.245  41.862  14.720
46185W        W12968   3.288   3.512  14.434
46186W        W12969  31.347  22.662   3.886
46187W        W12970   7.073   7.776  14.455
46188W        W12971   2.709  36.892  13.041
46189W        W12972  41.731  39.319  11.845
46190W        W12973  38.496  24.006   0.864
46191W        W12974  30.592  44.836   2.378
46192W        W12975  24.120  24.575  12.444
46193W        W12976  41.471  31.929  12.622
46194W        W12977  42.820  42.260  10.320
46195W        W12978  39.528  22.143  13.365
46196W        W12979  10.305  36.792   2.735
46197W        W12980  18.752  10.154   4.791
46198W        W12981  36.032  22.026  11.191
46199W        W12982  21.524  12.401  11.712
46200W        W12983  41.796   2.404   3.788
46201W        W12984  26.124  19.692  11.907
46202W        W12985  40.077  34.943   0.695
46203W        W12986  41.947  20.150  10.726
46204W        W12987   2.305  11.289   3.901
46205W        W12988  36.626   7.850  11.340
46206W        W12989  33.361  38.880   1.692
46207W        W12990  41.366  21.331  11.100
46208W        W12991  20.263  42.266  11.070
46209W        W12992  43.175   6.770   0.958
46210W        W12993  15.490  39.859  12.669
46211W        W12994  14.657  21.531   2.305
46212W        W12995  22.012  22.421  14.357
46213W        W12996   6.879  42.329  12.232
46214W        W12997  17.603  26.376   4.078
46215W        W12998  28.661  17.422  12.858
46216W        W12999  23.021  41.434  12.761
46217W        W13000  13.452  34.750  11.931
46218W        W13001   9.808   0.949   1.108
46219W        W13002  13.757   3.198   2.404
46220W        W13003  18.556  14.224   1.096
46221W        W13004  25.961  16.176  13.512
46222W        W13005  37.377  32.068   0.370
46223W        W13006   6.503   6.723  11.204
46224W        W13007  24.967  44.964   1.336
46225W        W13008   6.788  29.738   2.872
46226W        W13009  33.689  27.167  11.590
46227W        W13010  18.701  34.529   3.413
46228W        W13011  13.825  42.772   0.472
46229W        W13012  35.023  15.819   0.717
46230W        W13013  38.377  13.370   3.351
46231W        W13014  14.663  31.966   3.670
46232W        W13015  17.289   0.851  13.476
46233W        W13016  29.312  24.294   0.277
46234W        W13017  10.237  28.740   3.992
46235W        W13018  19.638   8.999   2.246
46236W        W13019  38.882  39.644  12.391
46237W        W13020  16.580  38.777  12.587
46238W        W13021  13.037   4.793   0.439
46239W        W13022   8.905  26.611  14.307
46240W        W13023   7.149  23.736  13.399
46241W        W13024  42.938  10.331   2.625
46242W        W13025  30.864   6.365  11.222
46243W        W13026  37.422  18.570  12.520
46244W        W13027  35.350  37.517   4.053
46245W        W13028  28.599  19.338   2.438
46246W        W13029  33.936  13.971  10.946
46247W        W13030   1.307  39.487   3.160
46248W        W13031  41.814   0.261  12.397
46249W        W13032  18.909  20.672   3.911
46250W        W13033  39.813   2.921  11.470
46251W        W13034  23.125   4.486   4.946
46252W        W13035  14.394   1.851   1.553
46253W        W13036   0.452  11.296   4.700
46254W        W13037  38.285  44.897   1.685
46255W        W13038  39.026  28.075   0.058
46256W        W13039  41.543  18.293  10.690
46257W        W13040  28.565  17.606  13.334
46258W        W13041  29.850   5.167   4.172
46259W        W13042  43.749  19.334  14.298
46260W        W13043  15.901  41.717   4.221
46261W        W13044  28.817  19.673  13.123
46262W        W13045  30.036  40.836   1.795
46263W        W13046  42.243  25.568  10.594
46264W        W13047  11.352  29.461  13.406
46265W        W13048   0.311  42.470   0.043
46266W        W13049  36.292   1.961  13.927
46267W        W13050   6.458  22.966   4.528
46268W        W13051  34.313  18.606  14.778
46269W        W13052  14.152  39.577  14.337
46270W        W13053  42.925   5.519   4.588
46271W        W13054   4.678  44.200   3.574
46272W        W13055   6.466  27.459   3.500
46273W        W13056  14.165  38.244  12.983
46274W        W13057  10.752  38.639  12.096
46275W        W13058  21.223   9.870   4.621
46276W        W13059  27.472  13.000   4.303
46277W        W13060   6.651  39.218  14.353
46278W        W13061   8.438  41.883   0.510
46279W        W13062  14.990  30.657   0.714
46280W        W13063   5.990  21.060  11.487
46281W        W13064  37.256  17.827  14.380
46282W        W13065  21.966  22.343  12.123
46283W        W13066  26.423   6.821  14.874
46284W        W13067  10.650  30.042  12.479
46285W        W13068  34.843  11.188   2.189
46286W        W13069  39.387  44.914   2.938
46287W        W13070  20.967   9.489  13.441
46288W        W13071  37.926  43.702  11.500
46289W        W13072  37.655  37.581   2.288
46290W        W13073  44.023  24.959   0.866
46291W        W13074  24.607   4.324   3.389
46292W        W13075  27.578  43.289   3.827
46293W        W13076  11.584   0.434  13.822
46294W        W13077  36.803  29.669   3.667
46295W        W13078  36.122  31.581   4.060
46296W        W13079  26.666   7.315   4.540
46297W        W13080  40.634   0.005   3.232
46298W        W13081  15.090  20.714  11.733
46299W        W13082  13.362  30.184  11.749
46300W        W13083  44.833  44.984   3.647
46301W        W13084  37.814  10.523  11.171
46302W        W13085  27.892   1.227  11.955
46303W        W13086  28.776  34.497   4.135
46304W        W13087  25.683  35.995  13.108
46305W        W13088  42.054  23.938  13.157
46306W        W13089  17.369   8.895   4.108
46307W        W13090   8.280  34.149  10.931
46308W        W13091   9.335  16.086   1.823
46309W        W13092  37.013  11.567   2.248
46310W        W13093  15.888  38.042   2.346
46311W        W13094  42.912  14.707  12.071
46312W        W13095  27.062  20.301   0.270
46313W        W13096  21.076  34.900  11.834
46314W        W13097  42.801  24.378  14.499
46315W        W13098  30.457   5.723   1.632
46316W        W13099   5.749   5.200   1.469
46317W        W13100  10.557  39.004   2.782
46318W        W13101  33.496  39.578  11.523
46319W        W13102  10.422   6.313   4.118
46320W        W13103  19.620  21.032   4.152
46321W        W13104   6.369  30.391   1.968
46322W        W13105  38.282   2.512  11.429
46323W        W13106  32.156  30.695   1.049
46324W        W13107   1.692  26.499   2.266
46325W        W13108  14.101  33.081  11.618
46326W        W13109  23.202  12.180  14.222
46327W        W13110  44.819  12.490  12.476
46328W        W13111  34.715  26.167   1.236
46329W        W13112  36.788  36.389  13.890
46330W        W13113  29.917  24.675  14.707
46331W        W13114   6.991   1.181   2.764
46332W        W13115  12.025   0.678  13.691
46333W        W13116  33.929  44.975  10.512
46334W        W13117   4.941   9.025   1.883
46335W        W13118   2.306  17.778   0.346
46336W        W13119  19.021   5.210   1.768
46337W        W13120  13.162  13.422   4.060
46338W        W13121   7.802  13.155   2.020
46339W        W13122  24.094  36.047   4.375
46340W        W13123  22.315  38.298   0.880
46341W        W13124  21.883  31.845   3.121
46342W        W13125  36.644  19.869  11.996
46343W        W13126  12.915  44.591  13.796
46344W        W13127  37.885  30.156  13.057
46345W        W13128  20.399  42.705   2.316
46346W        W13129   3.992   3.836  14.952
46347W        W13130  29.992  16.776  13.931
46348W        W13131  36.809  33.062   0.998
46349W        W13132  28.477  14.711  11.592
46350W        W13133  37.413   6.065   3.590
46351W        W13134  44.504   4.644   5.035
46352W        W13135  42.936   1.165   4.704
46353W        W13136  36.768  37.677  14.199
46354W        W13137  16.595  34.233  13.814
46355W        W13138  28.890   5.936  12.429
46356W        W13139  27.598  23.729   2.295
46357W        W13140  28.059  36.941   1.186
46358W        W13141  41.172   3.984  11.497
46359W        W13142  33.446  28.903  13.016
46360W        W13143  28.117  29.172   2.275
46361W        W13144   3.716  44.112   1.883
46362W        W13145  44.407  21.791   1.705
46363W        W13146  14.279  17.375   2.936
46364W        W13147  43.494  28.753   2.247
46365W        W13148  17.490  24.649  14.256
46366W        W13149   4.185  29.852   1.310
46367W        W13150   1.994  37.135   2.294
46368W        W13151  38.971   9.753   0.351
46369W        W13152   5.964  13.250   1.026
46370W        W13153   8.688  41.627  14.391
46371W        W13154  38.798   3.866  12.325
46372W        W13155  18.505   5.366  13.784
46373W        W13156  39.281  13.376   3.140
46374W        W13157  18.047  18.820  14.298
46375W        W13158   4.850   6.587   3.302
46376W        W13159  20.078  17.068  14.399
46377W        W13160   4.424   9.952   0.034
46378W        W13161  30.735  29.504  12.596
46379W        W13162  25.959  15.323   0.976
46380W        W13163  26.170  20.625   4.742
46381W        W13164  34.680  22.136  11.220
46382W        W13165   0.576   8.296   0.473
46383W        W13166  10.844  22.645   0.683
46384W        W13167   7.340  11.135   2.862
46385W        W13168  30.514  15.607   2.780
46386W        W13169  23.175  12.397  12.018
46387W        W13170   0.683   3.912   1.347
46388W        W13171  11.148  39.417   2.121
46389W        W13172  34.947  35.007   0.003
46390W        W13173  34.316  34.986   1.911
46391W        W13174   4.921  29.116   3.691
46392W        W13175  29.904  10.634   4.113
46393W        W13176  34.183  13.600   1.682
46394W        W13177  29.923   2.023  14.468
46395W        W13178  37.487   0.805  13.106
46396W        W13179  33.889  12.717  11.500
46397W        W13180  20.968  39.923   4.116
46398W        W13181  34.147  44.357   3.773
46399W        W13182  16.318  19.012  11.255
46400W        W13183  24.285  21.602  13.021
46401W        W13184  34.176   9.459  13.061
46402W        W13185  44.652  29.346  12.018
46403W        W13186   3.996  11.676   1.703
46404W        W13187  14.101  41.338  13.327
46405W        W13188  32.414  21.011   1.702
46406W        W13189  10.373  31.327  11.484
46407W        W13190  44.126  25.121   3.689
46408W        W13191  26.174  23.968   0.420
46409W        W13192  35.934  42.203   2.284
46410W        W13193  41.411  38.591  13.987
46411W        W13194  30.291  18.158  11.701
46412W        W13195  14.686  23.957   5.026
46413W        W13196  36.316  29.073  13.896
46414W        W13197  25.942  33.559   2.300
46415W        W13198  32.309  24.992  11.555
46416W        W13199  40.021  39.196   0.200
46417W        W13200  37.872  35.395   1.743
46418W        W13201  38.247  16.817  11.974
46419W        W13202   1.944  42.706   0.745
46420W        W13203  11.067  41.033   1.943
46421W        W13204   5.184  30.561  12.409
46422W        W13205   3.973  32.492   4.926
46423W        W13206  12.262  35.098   3.067
46424W        W13207  15.640   2.857   3.698
46425W        W13208  15.540   4.263  11.569
46426W        W13209  20.111  23.614   1.667
46427W        W13210  11.160   4.816   4.088
46428W        W13211  14.814  18.656   0.690
46429W        W13212  41.532   9.793  10.967
46430W        W13213  26.455  21.673   3.890
46431W        W13214   8.174   2.740   2.131
46432W        W13215  43.251  11.445  14.354
46433W        W13216  27.570  14.883  11.629
46434W        W13217  10.780  18.506  10.616
46435W        W13218   4.923   8.168   0.113
46436W        W13219   2.868  34.041   3.880
46437W        W13220  27.587  29.947  13.033
46438W        W13221  15.156  44.768   3.340
46439W        W13222  37.920  39.431   3.616
46440W        W13223  31.397  26.060  12.114
46441W        W13224  19.768  29.581   2.875
46442W        W13225  21.814  14.804   4.003
46443W        W13226   8.914  12.731   1.351
46444W        W13227  42.651  40.377   2.685
46445W        W13228  37.827  34.438  13.897
46446W        W13229  33.636  36.671  12.569
46447W        W13230  44.294  11.294   3.685
46448W        W13231   7.859  29.978   0.899
46449W        W13232  10.849  25.787   0.295
46450W        W13233   7.764  29.615  10.962
46451W        W13234  15.753  33.810   1.985
46452W        W13235  12.114  42.651  10.574
46453W        W13236  22.095   1.625  11.868
46454W        W13237  12.665  17.025   3.564
46455W        W13238  30.608  22.578  14.005
46456W        W13239  28.077  26.923   3.983
46457W        W13240  15.587  37.940  13.996
46458W        W13241   6.860  29.626   3.410
46459W        W13242   7.321  30.082  13.354
46460W        W13243   2.758   5.399  14.791
46461W        W13244  35.675  27.285  11.601
46462W        W13245  33.880  23.779   1.371
46463W        W13246   9.337  10.893  11.933
46464W        W13247  24.639  41.456   1.402
46465W        W13248  28.487  25.224  13.834
46466W        W13249  19.838   4.990  11.686
46467W        W13250  25.750   8.555  12.203
46468W        W13251   8.513  32.514   2.692
46469W        W13252  35.338  40.119  14.239
46470W        W13253   0.453  23.812   4.522
46471W        W13254   7.630   0.694   2.867
46472W        W13255  29.830  29.152   3.267
46473W        W13256  13.529  38.510   3.190
46474W        W13257  13.083  40.354   2.891
46475W        W13258  37.957   0.810  12.622
46476W        W13259  18.563  41.355   5.013
46477W        W13260   1.357   0.682   2.201
46478W        W13261  32.759  26.662   0.915
46479W        W13262  38.091  25.191   3.226
46480W        W13263   5.653  13.672   4.617
46481W        W13264   2.768  40.294  10.768
46482W        W13265  33.874   7.832  13.865
46483W        W13266   0.976  34.455   1.473
46484W        W13267  24.975  25.379  10.289
46485W        W13268  16.025  14.733   9.835
46486W        W13269   8.323  14.973   4.241
46487W        W13270  16.309  14.365   2.425
46488W        W13271  10.349  35.644   3.641
46489W        W13272  21.496  10.504  13.815
46490W        W13273  20.922  12.032   0.034
46491W        W13274  38.855   3.368  12.889
46492W        W13275  22.196  18.784   4.195
46493W        W13276  40.708   1.824   1.825
46494W        W13277  10.730  15.082   4.632
46495W        W13278   2.883  25.514  12.396
46496W        W13279   5.862  17.121   4.905
46497W        W13280  27.965  21.961  12.906
46498W        W13281   1.277  28.031  11.425
46499W        W13282  43.329  22.321   0.788
46500W        W13283  39.471  20.750   2.395
46501W        W13284  14.249  39.251  14.735
46502W        W13285  18.020  31.529   1.909
46503W        W13286  43.089  33.927   0.831
46504W        W13287  30.218  36.150   4.239
46505W        W13288  43.964  24.053  12.096
46506W        W13289   7.301   5.378   0.939
46507W        W13290  18.657  33.391   0.287
46508W        W13291  25.052  25.616   2.237
46509W        W13292  44.734  26.026   0.754
46510W        W13293  43.867   8.896  12.133
46511W        W13294  22.729  44.996   1.878
46512W        W13295  37.961  44.583  11.956
46513W        W13296  37.547  30.284   2.367
46514W        W13297  39.374  35.425   0.818
46515W        W13298  27.828  32.050  13.582
46516W        W13299  12.836  44.630   4.888
46517W        W13300  30.107  17.281  14.088
46518W        W13301  44.985  15.829   3.384
46519W        W13302  32.508  26.946  10.928
46520W        W13303  25.661  35.248  13.873
46521W        W13304  23.952  16.096   2.330
46522W        W13305  17.198  27.435   3.644
46523W        W13306  15.985  33.090   4.009
46524W        W13307  10.145  17.163   3.604
46525W        W13308  33.445  39.967  10.072
46526W        W13309  31.408  39.775  14.345
46527W        W13310  16.199  21.495   2.491
46528W        W13311  16.732  13.293   1.523
46529W        W13312  28.707   6.854   1.536
46530W        W13313  31.373  22.465  14.872
46531W        W13314  20.496  18.711  12.128
46532W        W13315   2.682  39.031  13.451
46533W        W13316  38.176   4.683   3.642
46534W        W13317  12.422  44.492  10.793
46535W        W13318   4.913  12.462   2.355
46536W        W13319  41.506  43.363  12.022
46537W        W13320  22.035   1.375   0.308
46538W        W13321  32.164  41.730  12.568
46539W        W13322  30.595  28.087  14.095
46540W        W13323  39.355   4.634   4.783
46541W        W13324  42.859  42.453   3.341
46542W        W13325  16.618  13.415  14.369
46543W        W13326  29.356   2.054  10.305
46544W        W13327  27.590   2.387  13.281
46545W        W13328  41.810  13.625  11.227
46546W        W13329  42.677   8.358   3.635
46547W        W13330  39.203   4.798  14.968
46548W        W13331   1.001  15.132  10.969
46549W        W13332  32.632  40.874  10.628
46550W        W13333  27.731  27.650  14.565
46551W        W13334  34.782  21.658   2.504
46552W        W13335   2.307  20.854  14.380
46553W        W13336  42.812   1.390  13.013
46554W        W13337  26.334  25.593  13.991
46555W        W13338  34.612  40.045  13.484
46556W        W13339  42.047  32.664   2.276
46557W        W13340  10.299   5.777   2.795
46558W        W13341  22.576  27.215   0.701
46559W        W13342   7.718   7.430  10.754
46560W        W13343  35.909  36.572  14.000
46561W        W13344  21.300   5.222   2.846
46562W        W13345  19.170  19.236  12.858
46563W        W13346   8.963  18.775  13.941
46564W        W13347  36.339  28.760   2.120
46565W        W13348  18.557   7.804  13.011
46566W        W13349  36.541  22.243  12.447
46567W        W13350   5.572  19.696   4.277
46568W        W13351  23.536   8.158  11.166
46569W        W13352  11.694  39.994  12.290
46570W        W13353  41.359  27.165  10.633
46571W        W13354  22.201  40.742  11.149
46572W        W13355   2.962  21.102  12.047
46573W        W13356  40.750  29.150  14.539
46574W        W13357  40.506  40.394   1.858
46575W        W13358  20.548  23.615   1.393
46576W        W13359  44.359  36.547  10.731
46577W        W13360  37.990  30.192   2.634
46578W        W13361  24.769  21.835  11.078
46579W        W13362  14.374   6.287  11.605
46580W        W13363  18.137  40.814   4.105
46581W        W13364  40.608   4.402   3.270
46582W        W13365  24.536  17.185   1.354
46583W        W13366  14.741  44.681   0.332
46584W        W13367  34.146  19.114  13.894
46585W        W13368  32.481  39.439  10.721
46586W        W13369   9.290  31.402   4.207
46587W        W13370   4.861  18.317   1.972
46588W        W13371  10.684  32.493   4.252
46589W        W13372  19.832  19.612   0.820
46590W        W13373   0.813  44.522   0.246
46591W        W13374  43.772  32.031   1.096
46592W        W13375  25.250   5.905   4.917
46593W        W13376  24.008   0.563  12.818
46594W        W13377  41.117  42.449  11.723
46595W        W13378   2.328  30.424  12.091
46596W        W13379  24.650  14.227   0.274
46597W        W13380  18.541  33.167  11.106
46598W        W13381  15.780  21.732   4.654
46599W        W13382  14.677  19.069   0.408
46600W        W13383  16.105  21.553   0.994
46601W        W13384   2.263  11.861   3.172
46602W        W13385  34.024  35.880   2.189
46603W        W13386  38.400  41.247   3.785
46604W        W13387  17.829   4.846   2.280
46605W        W13388  22.149  25.111   2.402
46606W        W13389  18.335   8.549   3.213
46607W        W13390  19.009   0.453   0.675
46608W        W13391  10.860  14.824   0.357
46609W        W13392  20.176   1.268   1.811
46610W        W13393   3.533  10.332   1.761
46611W        W13394   1.956  41.477   1.969
46612W        W13395  22.651  40.387   1.714
46613W        W13396  13.555  39.029  11.987
46614W        W13397  15.013   8.955   4.728
46615W        W13398   8.192  10.205   3.389
46616W        W13399   3.458  23.144  14.369
46617W        W13400  14.989  34.952  14.880
46618W        W13401  19.010   4.308  14.727
46619W        W13402   9.209   8.261   0.008
46620W        W13403  29.046  25.958   4.018
46621W        W13404  32.839   5.644   3.102
46622W        W13405  31.042   4.827   1.816
46623W        W13406  13.442  44.360  10.289
46624W        W13407  13.286   3.153   1.480
46625W        W13408  27.934  27.398  12.317
46626W        W13409  39.917  11.202  14.975
46627W        W13410  37.635  31.901  12.624
46628W        W13411  20.471  24.093  12.015
46629W        W13412  24.561  32.219   4.243
46630W        W13413   1.084  42.885   1.646
46631W        W13414  27.316  36.338  10.960
46632W        W13415   8.974   9.371   0.330
46633W        W13416  21.215  17.214  14.765
46634W        W13417  19.770  15.350  13.136
46635W        W13418  26.658  18.595   0.439
46636W        W13419  19.181  17.829   0.929
46637W        W13420  19.506  34.304   3.735
46638W        W13421  38.382   6.179   2.711
46639W        W13422  21.201  38.325  13.268
46640W        W13423   7.701   3.884   0.418
46641W        W13424  33.078  19.058  14.344
46642W        W13425  17.898  27.256   0.339
46643W        W13426  30.140  21.678   1.443
46644W        W13427  16.335  31.709  13.046
46645W        W13428  36.662  39.785  13.527
46646W        W13429  23.631  29.759   2.798
46647W        W13430  15.668   7.375  12.072
46648W        W13431  26.239  28.661   3.774
46649W        W13432   9.290   1.246  11.608
46650W        W13433  23.385  35.589   0.332
46651W        W13434  25.010  18.248   0.785
46652W        W13435  32.665  44.307  11.013
46653W        W13436   8.607   0.493   0.570
46654W        W13437  10.291  37.406  13.288
46655W        W13438  33.855  14.132  11.774
46656W        W13439  39.068   5.997  11.492
46657W        W13440   7.738   1.751   1.443
46658W        W13441  42.554  14.694   4.098
46659W        W13442  31.997  25.817  10.816
46660W        W13443   2.005   3.360   3.261
46661W        W13444  29.918   4.649   4.098
46662W        W13445  43.035  39.540   3.657
46663W        W13446   8.748   8.285  12.950
46664W        W13447   4.302  43.045  11.008
46665W        W13448  10.500  19.919   2.210
46666W        W13449  44.965  22.514   0.016
46667W        W13450  41.694  28.273  11.002
46668W        W13451  13.751   3.185  14.916
46669W        W13452   7.619  10.573  14.360
46670W        W13453   7.482   0.816   4.116
46671W        W13454  17.930  42.529  12.269
46672W        W13455  31.316  19.151   0.675
46673W        W13456  19.236  22.616  12.883
46674W        W13457  33.056   1.399   4.773
46675W        W13458   1.245   5.942   2.605
46676W        W13459   7.718  13.604   1.739
46677W        W13460  34.456   7.103  13.857
46678W        W13461  10.073  42.834  13.774
46679W        W13462  15.829  15.585  10.708
46680W        W13463  10.382  22.972   2.372
46681W        W13464  28.914  39.372   2.147
46682W        W13465   6.381   2.204   3.978
46683W        W13466  17.085   2.624  12.910
46684W        W13467  39.378  14.166   4.552
46685W        W13468  29.455  17.161  11.531
46686W        W13469  28.435   9.846   0.267
46687W        W13470  18.550  10.186   1.515
46688W        W13471  24.010  31.918  11.653
46689W        W13472  24.121  17.556   2.207
46690W        W13473  38.760  16.871  12.007
46691W        W13474  20.109   5.214   3.121
46692W        W13475  26.525  36.754   0.419
46693W        W13476  43.843   4.958  12.399
46694W        W13477  19.414  14.735   1.870
46695W        W13478  42.815  38.431  11.518
46696W        W13479   5.352   9.367   4.728
46697W        W13480  13.169  43.710  13.594
46698W        W13481  13.309  31.809  14.284
46699W        W13482  15.260  44.219  12.699
46700W        W13483   9.169   8.405   1.887
46701W        W13484  26.387   5.781  13.494
46702W        W13485  27.605  41.316   0.343
46703W        W13486  27.667  13.456  11.611
46704W        W13487  24.126  18.755   4.682
46705W        W13488  16.220  23.955  13.516
46706W        W13489  34.549  37.969   1.332
46707W        W13490  34.564  29.641  12.168
46708W        W13491  12.402  21.231   3.736
46709W        W13492   9.697  14.893  12.942
46710W        W13493  33.025  43.594   1.804
46711W        W13494  44.310  34.545   2.679
46712W        W13495  30.096   5.641   2.003
46713W        W13496   5.692  14.642  13.943
46714W        W13497  10.850   3.965   3.644
46715W        W13498  19.612   7.495  10.346
46716W        W13499  28.039  18.388  12.088
46717W        W13500  14.020  21.594   0.397
46718W        W13501  10.834  29.614  10.277
46719W        W13502  16.840  36.345  11.517
46720W        W13503  35.909  29.732  14.357
46721W        W13504  20.626  27.426   4.915
46722W        W13505   1.939  23.079  14.823
46723W        W13506   3.058  27.445  11.548
46724W        W13507  38.543  16.128  11.022
46725W        W13508  18.780  22.501  12.078
46726W        W13509  16.755  33.900  10.496
46727W        W13510   1.550  38.393   0.791
46728W        W13511   5.626  29.055   4.557
46729W        W13512  31.663  36.933   2.226
46730W        W13513  35.063  39.410   2.684
46731W        W13514  24.767  43.286  11.479
46732W        W13515  32.083  25.047   0.231
46733W        W13516   5.034  34.661   0.925
46734W        W13517  21.818  33.364  14.483
46735W        W13518  33.103  27.437   3.173
46736W        W13519  15.909  28.730   2.508
46737W        W13520  35.448  42.091   4.716
46738W        W13521  44.441  26.970   2.871
46739W        W13522  21.491  23.744  13.085
46740W        W13523  39.190  17.056   3.000
46741W        W13524  37.537  13.802  13.530
46742W        W13525  23.046  34.017  12.627
46743W        W13526   6.777  33.259   0.532
46744W        W13527  18.488  19.567   0.398
46745W        W13528   1.483   5.404   4.505
46746W        W13529  34.352  14.270  12.003
46747W        W13530  36.289   2.218  12.081
46748W        W13531  29.855  25.680  13.818
46749W        W13532  17.829  19.525   1.805
46750W        W13533  43.927  26.007  13.955
46751W        W13534  12.205  27.861  14.835
46752W        W13535   1.558  17.493  13.061
46753W        W13536  22.666   6.627  10.698
46754W        W13537  11.926  37.655  11.924
46755W        W13538  14.774  28.434  13.464
46756W        W13539  21.985  40.997   1.828
46757W        W13540  11.986   5.825  14.498
46758W        W13541  25.929   5.410  11.823
46759W        W13542  39.806  29.399  13.352
46760W        W13543  20.101   8.810   1.144
46761W        W13544   4.918  39.572   2.390
46762W        W13545   5.082  27.132  12.468
46763W        W13546  32.270  44.793   1.753
46764W        W13547  32.182  25.920   0.381
46765W        W13548  10.807  10.089   2.252
46766W        W13549  34.333  16.284   0.032
46767W        W13550  43.890  33.889   2.818
46768W        W13551  41.336  34.570   0.685
46769W        W13552   6.730   2.389   3.310
46770W        W13553  20.563   2.788  12.608
46771W        W13554  33.455  27.029  11.157
46772W        W13555  42.464  26.031   4.154
46773W        W13556  14.391   5.375  12.534
46774W        W13557  42.935  21.077   2.961
46775W        W13558   3.889  44.899   4.841
46776W        W13559  34.954  25.632   1.924
46777W        W13560  44.764  34.516   4.853
46778W        W13561  24.547  20.083  10.738
46779W        W13562  25.975  30.525   2.758
46780W        W13563  39.499   1.200   2.218
46781W        W13564  37.546  13.725  12.994
46782W        W13565   4.374   3.312  11.043
46783W        W13566  44.312  21.949  12.910
46784W        W13567   1.950  31.173   4.706
46785W        W13568  24.531  24.681  11.620
46786W        W13569  44.543  29.368  10.743
46787W        W13570  27.275  23.971   4.140
46788W        W13571  21.970  11.478  12.419
46789W        W13572  16.634   8.620   1.198
46790W        W13573  43.978  42.566  13.921
46791W        W13574   5.265  19.166   3.300
46792W        W13575  12.882   5.467  12.495
46793W        W13576  14.217   8.816  10.343
46794W        W13577   4.849  17.999  14.924
46795W        W13578   2.166  15.867   1.902
46796W        W13579  37.686  42.751  14.129
46797W        W13580  14.206  18.045   4.899
46798W        W13581  34.516  21.699   1.555
46799W        W13582  27.767  19.607   4.182
46800W        W13583  35.839  16.675   1.767
46801W        W13584   0.678  32.657   0.115
46802W        W13585   6.199  39.533  11.094
46803W        W13586  22.875  19.274   3.570
46804W        W13587   5.648  18.710   4.318
46805W        W13588  43.924  32.686  11.982
46806W        W13589   7.869   3.615  11.024
46807W        W13590  42.342  31.452  12.556
46808W        W13591  37.067  35.968   0.049
46809W        W13592  14.083  29.452  13.363
46810W        W13593  13.617   9.119  13.061
46811W        W13594  36.882  33.873   4.805
46812W        W13595  30.160  34.436  11.892
46813W        W13596  12.334  43.382   0.942
46814W        W13597  39.565  41.533  11.474
46815W        W13598  40.701   9.307  12.124
46816W        W13599   3.754  33.200  11.210
46817W        W13600  25.082   7.241  13.444
46818W        W13601  31.012  21.400  12.368
46819W        W13602  17.096  16.282   4.990
46820W        W13603  40.906  11.893   2.210
46821W        W13604   7.809  25.640  12.505
46822W        W13605  27.590  30.411   3.777
46823W        W13606  20.401  34.538  12.512
46824W        W13607  25.669  10.018  13.954
46825W        W13608  10.125  27.096  10.654
46826W        W13609   9.220  30.167  14.747
46827W        W13610   9.694  40.811   4.301
46828W        W13611  43.043  29.072   1.286
46829W        W13612  17.243  36.539  14.640
46830W        W13613   1.191   8.886   0.405
46831W        W13614  38.008   2.315  14.405
46832W        W13615  42.960  36.976   1.845
46833W        W13616   8.237   0.419  10.505
46834W        W13617  28.891  25.177   2.319
46835W        W13618  41.551   2.225   2.163
46836W        W13619  36.756  36.778  12.929
46837W        W13620  16.872  24.693   2.537
46838W        W13621  27.574  18.071   3.180
46839W        W13622   3.873  13.660   1.640
46840W        W13623   9.646  40.052  13.691
46841W        W13624  21.637  10.643  12.515
46842W        W13625  41.993  44.656   4.192
46843W        W13626  19.827  25.410   2.548
46844W        W13627   1.661   4.518   2.447
46845W        W13628  11.543  38.443  10.282
46846W        W13629  20.600  11.078   3.768
46847W        W13630  15.098  43.419   4.527
46848W        W13631   1.978  41.363  11.117
46849W        W13632  22.012  18.301   4.148
46850W        W13633   2.416   6.066   2.348
46851W        W13634  35.411  13.547  10.551
46852W        W13635  43.744  21.798   3.713
46853W        W13636  43.759  24.094  11.633
46854W        W13637   7.371  20.458  14.090
46855W        W13638  13.421  22.602  13.915
46856W        W13639  15.676  16.538   1.828
46857W        W13640   1.177  18.070   4.588
46858W        W13641  22.512   8.081   5.062
46859W        W13642   4.614  31.364   3.040
46860W        W13643  22.152  43.904   0.718
46861W        W13644  16.353  28.836   0.777
46862W        W13645  12.518  26.548  10.408
46863W        W13646   3.864  38.268  10.744
46864W        W13647   2.432  41.281  10.245
46865W        W13648  15.845   6.912  12.986
46866W        W13649  12.379  23.931  13.771
46867W        W13650   7.817  28.448   4.627
46868W        W13651  38.008   4.225   0.352
46869W        W13652  14.668  37.887   1.236
46870W        W13653   5.237  30.525   0.967
46871W        W13654  12.024  11.134  13.823
46872W        W13655  30.479  41.126   1.640
46873W        W13656  22.033  42.577  12.280
46874W        W13657  43.225  44.817   1.296
46875W        W13658  40.232   7.433   4.198
46876W        W13659   6.982  20.101   0.781
46877W        W13660  42.823  34.573  12.990
46878W        W13661  29.508  33.216  13.935
46879W        W13662  34.316  29.130  14.898
46880W        W13663  32.126  19.339  11.891
46881W        W13664  25.238   2.471  11.602
46882W        W13665  20.640  25.471   4.172
46883W        W13666   2.109  16.534   0.743
46884W        W13667   9.640  12.234   1.340
46885W        W13668  19.073   6.956  14.024
46886W        W13669   3.872  19.669   4.194
46887W        W13670   8.709  12.914  10.549
46888W        W13671  10.933  30.455   4.189
46889W        W13672   8.167  20.117   1.870
46890W        W13673  15.707  24.155  12.248
46891W        W13674  32.886  20.107   1.636
46892W        W13675  41.486  23.579  10.886
46893W        W13676  30.180  24.761   3.252
46894W        W13677   0.199  12.155   2.248
46895W        W13678  40.450  25.675  10.967
46896W        W13679  29.110  42.118   1.788
46897W        W13680  23.269  23.172   2.142
46898W        W13681  37.867  23.224   4.065
46899W        W13682   9.414   0.449  10.970
46900W        W13683  11.792   2.259   0.052
46901W        W13684  22.954  14.135   3.797
46902W        W13685  10.743  30.536   1.758
46903W        W13686  37.840   3.552  12.064
46904W        W13687  39.304  27.737   3.034
46905W        W13688   0.505  24.955   3.753
46906W        W13689  42.159  25.183  12.447
46907W        W13690   6.628  18.720   2.931
46908W        W13691   5.198  13.317   3.320
46909W        W13692  21.897  21.266   2.115
46910W        W13693  44.467  16.093   2.608
46911W        W13694  34.451  32.048  12.480
46912W        W13695  44.800  43.278   1.445
46913W        W13696  35.894  35.524  13.824
46914W        W13697  38.852   5.557  13.522
46915W        W13698  41.409  23.044   3.863
46916W        W13699  32.421   7.353  12.997
46917W        W13700  23.454  37.391   0.869
46918W        W13701  40.820  26.108  12.299
46919W        W13702   5.807   3.367   3.817
46920W        W13703  27.974   3.792   4.569
46921W        W13704  12.754  15.147  12.865
46922W        W13705  28.109  16.779   4.472
46923W        W13706  13.525   8.872   4.563
46924W        W13707   5.736  41.909   1.840
46925W        W13708  44.907  35.016   2.215
46926W        W13709  19.596  12.728   2.405
46927W        W13710  31.393  38.849   4.097
46928W        W13711   6.709  29.072  12.943
46929W        W13712  35.391  11.707   4.068
46930W        W13713  33.128  32.067  11.242
46931W        W13714   2.900  19.769  10.614
46932W        W13715  41.610   3.972   2.788
46933W        W13716   6.758  44.866  11.207
46934W        W13717  27.368  10.908   1.269
46935W        W13718  29.013  36.546   1.317
46936W        W13719   0.320  41.835  14.287
46937W        W13720   7.555   4.837  13.335
46938W        W13721  29.143   2.293   0.047
46939W        W13722  28.815  44.475  10.777
46940W        W13723  37.037  31.050  11.580
46941W        W13724  19.115  42.387  14.229
46942W        W13725  41.208  17.581   2.762
46943W        W13726   9.145  44.126  14.847
46944W        W13727  22.905  11.467  10.239
46945W        W13728  43.876  33.645  12.311
46946W        W13729   7.296   8.343   3.357
46947W        W13730  34.030   1.054  13.416
46948W        W13731  42.422  44.281   0.338
46949W        W13732   6.355  28.447  11.667
46950W        W13733  17.764   3.477   1.719
46951W        W13734  28.604  18.893  13.763
46952W        W13735   8.107  29.443   4.025
46953W        W13736  25.620  24.720   2.612
46954W        W13737  16.588  33.796   1.720
46955W        W13738  16.330  31.952   4.959
46956W        W13739  16.533  31.118  14.066
46957W        W13740  35.905  29.416  14.788
46958W        W13741  26.994   3.317   0.403
46959W        W13742  43.910  11.670   1.460
46960W        W13743  38.839   4.670  13.471
46961W        W13744   8.331  28.757  12.177
46962W        W13745  24.584  21.125  12.375
46963W        W13746  25.282  43.685   3.352
46964W        W13747  21.162  19.681   3.234
46965W        W13748  32.132   1.616  13.319
46966W        W13749  41.952  26.037   2.839
46967W        W13750  18.785  27.114  14.462
46968W        W13751  15.624  12.758  14.046
46969W        W13752  29.178   3.911   1.183
46970W        W13753  40.374  34.321   1.147
46971W        W13754  24.745  37.857  11.458
46972W        W13755  41.295  12.135  13.582
46973W        W13756  14.273  18.438   4.544
46974W        W13757   3.887   7.958  13.320
46975W        W13758  34.071  29.836   2.086
46976W        W13759  22.461  34.597   3.675
46977W        W13760  44.227  31.737   4.277
46978W        W13761  24.930  14.085   0.798
46979W        W13762   4.280  42.665   3.840
46980W        W13763  14.192  36.920   1.142
46981W        W13764  18.686  31.613   4.674
46982W        W13765  30.597  24.263   4.255
46983W        W13766  35.501  23.432   0.318
46984W        W13767  43.268   8.074   0.715
46985W        W13768  38.090  22.437   4.182
46986W        W13769  27.267  21.683   0.257
46987W        W13770  43.416  41.529   2.262
46988W        W13771  39.583  11.072  12.606
46989W        W13772  19.385  23.326   4.119
46990W        W13773  41.417  35.186   3.130
46991W        W13774  23.896  11.831   3.310
46992W        W13775  11.150  28.577  12.401
46993W        W13776  36.023   1.931   3.580
46994W        W13777  23.611  34.888   0.014
46995W        W13778  18.488  22.632  11.143
46996W        W13779  13.341  30.109  12.587
46997W        W13780  42.285  29.937  11.031
46998W        W13781  22.709  11.887  12.988
46999W        W13782  44.865   7.359  12.979
47000W        W13783  34.552  33.383   3.587
47001W        W13784  14.448  39.906  12.476
47002W        W13785  12.304  37.359   1.539
47003W        W13786  10.776  19.007   2.657
47004W        W13787  10.817  33.006  13.962
47005W        W13788   2.311   8.414  13.796
47006W        W13789  28.231  32.044   0.805
47007W        W13790  17.589   3.914  14.860
47008W        W13791  13.431  27.648   2.814
47009W        W13792  12.956  15.906   9.904
47010W        W13793   4.888  41.274   0.558
47011W        W13794  24.523   1.106   3.215
47012W        W13795  26.369  24.192  11.582
47013W        W13796  42.129  40.288   2.781
47014W        W13797  37.215   6.436  10.205
47015W        W13798  43.775  44.357   1.924
47016W        W13799  42.294  37.789  13.525
47017W        W13800  23.312  30.567  12.254
47018W        W13801  41.942   7.279   0.965
47019W        W13802  29.538  10.344  14.964
47020W        W13803  43.880  34.595  11.377
47021W        W13804  14.915  37.445  10.160
47022W        W13805  42.001  38.303  13.879
47023W        W13806  37.703   9.874  10.061
47024W        W13807   2.671  42.257   0.934
47025W        W13808  11.198  39.576   3.382
47026W        W13809  39.812  41.883   3.312
47027W        W13810  32.643  10.715  10.994
47028W        W13811  36.587  34.406   2.261
47029W        W13812  42.277  14.554  12.864
47030W        W13813   9.730  42.985  14.764
47031W        W13814  33.498   9.904  13.401
47032W        W13815  40.132  26.160  14.734
47033W        W13816  23.201  17.449  11.667
47034W        W13817   5.416  17.832   4.287
47035W        W13818  29.405  21.162  13.996
47036W        W13819  18.779  22.922   0.723
47037W        W13820  27.950   2.627   9.990
47038W        W13821  13.699  35.530   4.596
47039W        W13822  37.259  44.310  12.936
47040W        W13823  23.885  35.373  14.991
47041W        W13824  36.373  16.686  13.821
47042W        W13825  10.695  44.951  14.754
47043W        W13826  38.692  41.326  10.241
47044W        W13827  23.462  36.812  13.110
47045W        W13828  26.517   8.316  10.898
47046W        W13829  25.098  18.176   4.241
47047W        W13830  30.998   5.016  13.512
47048W        W13831  25.176   5.292   1.672
47049W        W13832  32.889   5.983  13.083
47050W        W13833  24.719  35.911  11.434
47051W        W13834  15.147  42.448   2.712
47052W        W13835  34.916   3.703  10.775
47053W        W13836  27.266  23.143   2.872
47054W        W13837  44.491   6.678  13.597
47055W        W13838   1.215   8.823  11.538
47056W        W13839  24.366  21.412  11.504
47057W        W13840  18.498  30.409  12.567
47058W        W13841  19.229  10.810   4.622
47059W        W13842  34.202  40.988   2.787
47060W        W13843  15.976  44.501  12.023
47061W        W13844  30.264  21.989  12.192
47062W        W13845  12.585   1.013   0.472
47063W        W13846  44.084  13.629  11.182
47064W        W13847   6.585   1.854  11.580
47065W        W13848   3.936   6.658  10.954
47066W        W13849   7.434   1.733  12.127
47067W        W13850  24.592  38.849  11.195
47068W        W13851  23.144  32.303   2.645
47069W        W13852   2.162   8.726   2.214
47070W        W13853  29.865  13.141  14.576
47071W        W13854  18.802   8.441  10.398
47072W        W13855  22.042  36.428  11.955
47073W        W13856   6.161   1.515   9.920
47074W        W13857  15.876   7.004  14.666
47075W        W13858   3.291  43.097   3.883
47076W        W13859  14.922  14.134   2.607
47077W        W13860   1.625  20.543   3.824
47078W        W13861  24.929  12.931  12.984
47079W        W13862   8.112  38.126   2.664
47080W        W13863  19.140   2.373  10.978
47081W        W13864  44.995  28.675  13.025
47082W        W13865  30.028   6.859  13.850
47083W        W13866  40.467  11.201  13.868
47084W        W13867   4.805   8.453  13.348
47085W        W13868  28.638  25.785  11.572
47086W        W13869  21.920  26.544  10.309
47087W        W13870  41.959  11.953   0.342
47088W        W13871  38.940   3.930  12.801
47089W        W13872  10.501  26.909  12.514
47090W        W13873  43.504  44.527   3.245
47091W        W13874  10.479  34.628  11.097
47092W        W13875  44.815  14.900   0.726
47093W        W13876  28.598  10.282  11.535
47094W        W13877  22.059  17.946  12.806
47095W        W13878  36.596  35.874  12.922
47096W        W13879   8.666   8.703  12.614
47097W        W13880  20.614  27.611  12.645
47098W        W13881  27.976  27.319   3.666
47099W        W13882   3.509  37.023  13.742
47100W        W13883  34.884  24.626   1.572
47101W        W13884  11.587  44.056  10.996
47102W        W13885  20.508  27.135  14.833
47103W        W13886  22.222  26.906   0.920
47104W        W13887  30.617  32.441  10.777
47105W        W13888  30.362  25.868  13.894
47106W        W13889  31.610  27.722   1.888
47107W        W13890  40.520  27.025  14.388
47108W        W13891  34.034  23.344   3.263
47109W        W13892  31.417  26.217  14.515
47110W        W13893   5.992  17.766  14.346
47111W        W13894  43.619   4.430   2.227
47112W        W13895  25.631  13.011  11.532
47113W        W13896   6.356  39.301  10.663
47114W        W13897   6.923  33.620   3.453
47115W        W13898  43.348  15.610  14.423
47116W        W13899  15.312  37.062  13.997
47117W        W13900   8.185  28.131   4.369
47118W        W13901  39.932  19.027   1.592
47119W        W13902  40.041   7.787   5.137
47120W        W13903   2.514  17.583  11.583
47121W        W13904  13.207  17.110  13.749
47122W        W13905  22.118  43.098  12.830
47123W        W13906   9.484   4.403  12.530
47124W        W13907  37.303  44.626   2.162
47125W        W13908  28.615  34.792   1.461
47126W        W13909  22.203   9.745  13.967
47127W        W13910  20.706  15.268  11.208
47128W        W13911  41.398  22.252  11.216
47129W        W13912   0.155  36.240  13.923
47130W        W13913  19.626  32.104  12.514
47131W        W13914  18.173  27.703   0.318
47132W        W13915  41.757  29.436   2.502
47133W        W13916  12.603  35.385   4.079
47134W        W13917  13.495  12.387  12.091
47135W        W13918  22.718  34.782   4.529
47136W        W13919   6.425   6.749  14.825
47137W        W13920   0.959   9.372  13.052
47138W        W13921  31.705  41.287   4.199
47139W        W13922  25.437  13.580   0.968
47140W        W13923  26.924   9.843   2.249
47141W        W13924  43.423  16.424  11.346
47142W        W13925  14.107   4.480  11.563
47143W        W13926  19.516  26.776   4.710
47144W        W13927  36.655  40.990  14.546
47145W        W13928  42.023  34.686  11.548
47146W        W13929  44.525   3.466  13.105
47147W        W13930  22.535  36.339   4.089
47148W        W13931   9.193  41.493  14.260
47149W        W13932  30.165  38.604  13.969
47150W        W13933  23.541  14.212  12.630
47151W        W13934  33.377  24.979  11.364
47152W        W13935  39.407  40.543   3.244
47153W        W13936  41.548  22.244  13.605
47154W        W13937   3.047  10.065  13.600
47155W        W13938  21.577  33.011   2.916
47156W        W13939  12.773  42.590   1.877
47157W        W13940  24.786  44.497   1.188
47158W        W13941  10.685  33.311  12.422
47159W        W13942   6.693  20.502   0.922
47160W        W13943  10.039  43.360   0.464
47161W        W13944  13.841  36.513  11.579
47162W        W13945  40.997  13.988   2.794
47163W        W13946  28.613  26.340   4.723
47164W        W13947  22.000  11.790   1.416
47165W        W13948  13.267  10.958  10.795
47166W        W13949  13.164  14.305  14.937
47167W        W13950  30.394  13.171  12.908
47168W        W13951  39.227  37.582   4.349
47169W        W13952   4.422  37.781   2.127
47170W        W13953   3.662  26.950   1.770
47171W        W13954  32.445  15.200   3.905
47172W        W13955  19.505  33.406  13.748
47173W        W13956   8.110  26.780   2.688
47174W        W13957  38.179  22.086  12.953
47175W        W13958  34.397  22.105   1.909
47176W        W13959  32.638  30.440   3.239
47177W        W13960  18.525   5.925  13.064
47178W        W13961  15.768  15.906  11.544
47179W        W13962   2.954   8.011  13.344
47180W        W13963  35.358   7.097  12.632
47181W        W13964   4.123  37.929   4.816
47182W        W13965  43.551  21.172  10.614
47183W        W13966  14.918  33.523   2.672
47184W        W13967  19.081  14.036   0.467
47185W        W13968  24.987   6.669   2.775
47186W        W13969   1.761  30.559  13.426
47187W        W13970  33.033  14.776  11.453
47188W        W13971  10.283  15.750  11.602
47189W        W13972  44.800  13.062  11.069
47190W        W13973  14.062  18.591  12.007
47191W        W13974  10.131  43.415  12.539
47192W        W13975  36.147   5.732  12.420
47193W        W13976  22.111   2.930   3.741
47194W        W13977  29.537  18.055   3.247
47195W        W13978  32.701  15.280   2.494
47196W        W13979  37.833   4.445  11.180
47197W        W13980   2.585  28.405   2.656
47198W        W13981  39.188   3.253   5.055
47199W        W13982  29.620  18.375  11.164
47200W        W13983  14.386   9.887  11.604
47201W        W13984  41.516  25.620   0.877
47202W        W13985  37.424  26.126   1.256
47203W        W13986  10.943  32.464  12.346
47204W        W13987  28.593  18.252   0.586
47205W        W13988   3.371  18.323  12.101
47206W        W13989   6.779   5.619  12.593
47207W        W13990  44.338  10.354  12.012
47208W        W13991  28.729  31.409  14.333
47209W        W13992  16.156  27.004  10.773
47210W        W13993  33.462  42.440   0.325
47211W        W13994  31.863  21.485  12.035
47212W        W13995  32.127  41.469   3.199
47213W        W13996  43.505   2.821   0.888
47214W        W13997   1.060   4.758  14.063
47215W        W13998  25.300  10.164   4.191
47216W        W13999  40.274  21.689  10.675
47217W        W14000  33.497   9.882  14.398
47218W        W14001  31.047  34.473   1.348
47219W        W14002  33.534  37.256   4.945
47220W        W14003  11.196   0.743  13.977
47221W        W14004  25.550   6.998  13.583
47222W        W14005  18.658  17.041   0.858
47223W        W14006  20.170  32.654   1.445
47224W        W14007  16.909   3.932  14.316
47225W        W14008  17.780  24.229  14.228
47226W        W14009   4.294   6.341  14.965
47227W        W14010  10.770  43.328  14.942
47228W        W14011  10.852  22.148  12.444
47229W        W14012  30.315  28.079  12.032
47230W        W14013  22.788  31.918  11.113
47231W        W14014   8.043  35.569   0.807
47232W        W14015  36.660  37.454  12.016
47233W        W14016  38.508  42.040  14.041
47234W        W14017  38.653  40.348   4.996
47235W        W14018   6.950   1.971   2.333
47236W        W14019  43.477   6.402   3.209
47237W        W14020  11.839  16.236  13.076
47238W        W14021  43.121   6.329  12.002
47239W        W14022  42.464  41.053  14.617
47240W        W14023  42.147  37.500  11.156
47241W        W14024  18.749   2.184  14.385
47242W        W14025  25.365  16.282  12.037
47243W        W14026   2.922  25.901  13.376
47244W        W14027  27.471  36.593  14.370
47245W        W14028  42.457  18.418   0.276
47246W        W14029  37.622  38.571   0.010
47247W        W14030  38.488   8.853   1.492
47248W        W14031   5.719  33.039   3.048
47249W        W14032  27.662  44.593   1.787
47250W        W14033  12.554  41.749   0.941
47251W        W14034  22.900  24.484  14.764
47252W        W14035  18.146  23.517   0.769
47253W        W14036  20.154  11.168  10.654
47254W        W14037  36.852  24.981  10.751
47255W        W14038  11.297  25.148  13.729
47256W        W14039  38.095   2.848   3.745
47257W        W14040   8.401  12.552   2.564
47258W        W14041  42.727   3.515  13.556
47259W        W14042  24.120  27.487   2.679
47260W        W14043   5.192  30.026   4.593
47261W        W14044  37.135  18.548  11.452
47262W        W14045  15.175   9.175  14.984
47263W        W14046  17.220  24.977   2.280
47264W        W14047   7.758   2.238   3.736
47265W        W14048  40.369  20.288   2.775
47266W        W14049  12.827  34.926  11.028
47267W        W14050  10.058  31.513  10.679
47268W        W14051   7.766  41.090   0.822
47269W        W14052  34.505  24.707  14.456
47270W        W14053   0.942  40.941   1.396
47271W        W14054  26.042   4.048  11.174
47272W        W14055  23.185   2.299   1.953
47273W        W14056  12.869  30.503   1.861
47274W        W14057  29.884  13.614   3.203
47275W        W14058  21.270   4.253   1.458
47276W        W14059   8.738  17.272   0.720
47277W        W14060  41.634  29.906   3.698
47278W        W14061  21.533  20.802  12.961
47279W        W14062  25.653  31.053  13.424
47280W        W14063  17.311  44.522   4.924
47281W        W14064   0.284   3.441   0.423
47282W        W14065  12.550  11.131   4.564
47283W        W14066   0.869   4.273   3.853
47284W        W14067  33.503   2.063   0.770
47285W        W14068   9.086  16.212   2.261
47286W        W14069   9.578  35.425   3.227
47287W        W14070  22.553   2.287   0.874
47288W        W14071   2.290  18.805  12.065
47289W        W14072  26.183  21.520  13.660
47290W        W14073  33.203  17.269  13.898
47291W        W14074  14.051  18.257   1.251
47292W        W14075  38.909  28.020   2.911
47293W        W14076  25.197  44.684  11.444
47294W        W14077  29.051  27.102  12.201
47295W        W14078  25.935  42.536   3.264
47296W        W14079  27.230  38.850  13.997
47297W        W14080   5.462  13.293  12.364
47298W        W14081  41.862  24.655   1.497
47299W        W14082  17.742  16.656   1.017
47300W        W14083  18.176  28.122  13.424
47301W        W14084  23.058   3.534  11.989
47302W        W14085  44.313  22.118  12.019
47303W        W14086  31.396  18.750  12.648
47304W        W14087  17.074  43.363   4.200
47305W        W14088  27.498  28.761   0.641
47306W        W14089   2.856  31.086   2.241
47307W        W14090   3.842  30.235   1.485
47308W        W14091  11.631  41.934  14.283
47309W        W14092  27.680  37.080  14.500
47310W        W14093  42.793  19.057   1.304
47311W        W14094  29.347  15.753   3.586
47312W        W14095   1.678   2.906   4.208
47313W        W14096   0.792   0.189   3.919
47314W        W14097  13.747  41.725  13.497
47315W        W14098   4.709  15.014  12.531
47316W        W14099  20.530  36.484   2.346
47317W        W14100  29.261  34.618  13.491
47318W        W14101  33.344  11.575   3.845
47319W        W14102   7.785  21.617   3.742
47320W        W14103  30.380  37.438  12.490
47321W        W14104  36.633  10.780   1.852
47322W        W14105  19.625  30.738   3.214
47323W        W14106  34.959  11.670  14.265
47324W        W14107  16.911  25.605  12.195
47325W        W14108  20.081  19.601   1.353
47326W        W14109  20.927  40.697  11.493
47327W        W14110   8.409  13.390   1.358
47328W        W14111  44.296  37.790   4.121
47329W        W14112   2.873  19.169  11.694
47330W        W14113  38.936  16.810  14.701
47331W        W14114  16.143  41.651  13.217
47332W        W14115  40.358  23.806   1.919
47333W        W14116  40.416  36.359   1.908
47334W        W14117  11.583  28.161  13.210
47335W        W14118  17.740  41.521  10.727
47336W        W14119  13.577  37.494   1.081
47337W        W14120   0.490  37.536   3.185
47338W        W14121  15.228  14.761  10.309
47339W        W14122  11.839  37.086   1.786
47340W        W14123   9.572   5.649  11.422
47341W        W14124  40.345  19.975  10.722
47342W        W14125  31.241  34.103  11.055
47343W        W14126  37.901  16.266  12.394
47344W        W14127   6.876  13.059  13.893
47345W        W14128   8.340  17.107   2.190
47346W        W14129  26.266  35.111   2.963
47347W        W14130  35.121  25.888   1.431
47348W        W14131  26.235   2.775  14.872
47349W        W14132   6.965  37.127  13.401
47350W        W14133  26.036  12.612  10.631
47351W        W14134   0.685  26.736   2.104
47352W        W14135  11.249  12.642   0.306
47353W        W14136  34.444  41.471   4.352
47354W        W14137  15.630  10.234  11.245
47355W        W14138  36.938  28.102  14.819
47356W        W14139  37.016  25.697  12.921
47357W        W14140  35.617  33.882  13.831
47358W        W14141   4.131  27.681   3.263
47359W        W14142  32.381  38.014   3.809
47360W        W14143  13.145  16.387   1.233
47361W        W14144  26.373  19.618  12.360
47362W        W14145  27.962  31.978   3.977
47363W        W14146  16.025   4.295   2.321
47364W        W14147  23.938  13.642   2.370
47365W        W14148  12.887  16.769   2.758
47366W        W14149  21.300  22.746  11.529
47367W        W14150  43.126   0.840  10.988
47368W        W14151  29.466  44.711   3.867
47369W        W14152  14.123  22.636   4.106
47370W        W14153  16.927  10.342  12.005
47371W        W14154  23.505  16.913   2.248
47372W        W14155  32.541  31.041  13.797
47373W        W14156  17.097  24.324  12.968
47374W        W14157  41.852  40.110   2.158
47375W        W14158  17.820   8.256  13.016
47376W        W14159   6.780  19.302   4.690
47377W        W14160  33.518  34.193   4.128
47378W        W14161  38.654  16.665  14.217
47379W        W14162  22.339  17.164   4.238
47380W        W14163  34.666  34.860  11.869
47381W        W14164  43.282   2.788  11.321
47382W        W14165  30.117  37.037  13.820
47383W        W14166  43.774  15.705   2.560
47384W        W14167  40.507  40.985   1.683
47385W        W14168  20.628  41.803  12.202
47386W        W14169  25.517  33.366  14.251
47387W        W14170   0.011   2.393  14.827
47388W        W14171  40.242  37.425   2.303
47389W        W14172  36.004  10.238  10.758
47390W        W14173  30.589  29.518   2.368
47391W        W14174  43.121  43.231   4.887
47392W        W14175  20.040   3.423   0.000
47393W        W14176  12.237  16.704  12.048
47394W        W14177  33.894  29.155  13.101
47395W        W14178   1.856  37.326   1.503
47396W        W14179  34.905   6.877  13.969
47397W        W14180   8.187  14.696  11.990
47398W        W14181  34.342  36.967  11.657
47399W        W14182  10.769  18.473   0.752
47400W        W14183  38.828  13.280   0.306
47401W        W14184  36.596  34.829   1.985
47402W        W14185  44.460  27.472   1.732
47403W        W14186  23.182  39.226  10.231
47404W        W14187  20.361  22.453   0.285
47405W        W14188   4.180  23.651   3.404
47406W        W14189  13.806  11.158  11.672
47407W        W14190  41.967   8.400  14.409
47408W        W14191  31.413  24.247   3.189
47409W        W14192  37.964  11.475  11.565
47410W        W14193  41.519  20.713  11.639
47411W        W14194  32.429  14.262  11.833
47412W        W14195  30.590   6.265   1.790
47413W        W14196  41.000  22.208  13.073
47414W        W14197  24.506  44.190   3.271
47415W        W14198   5.343  16.543   0.336
47416W        W14199  30.898  20.408  10.277
47417W        W14200  13.091  16.991   3.257
47418W        W14201  21.590   5.638  11.102
47419W        W14202  36.298  34.093  10.826
47420W        W14203  32.496  40.507  13.746
47421W        W14204  16.136  33.610  10.714
47422W        W14205  42.183  11.862   2.656
47423W        W14206  38.182  42.867  11.627
47424W        W14207  15.687  37.211  13.418
47425W        W14208  37.926  31.219   1.601
47426W        W14209   3.684  41.117  13.778
47427W        W14210   8.768  21.710  14.321
47428W        W14211  33.067  25.029   0.195
47429W        W14212  39.504  23.965  11.610
47430W        W14213  16.714  36.882  13.436
47431W        W14214  30.942  35.908  10.728
47432W        W14215  19.508  11.464   4.566
47433W        W14216  28.584  27.155  13.483
47434W        W14217   4.191  14.536  13.121
47435W        W14218  32.364   1.372   1.485
47436W        W14219  21.509  44.228   2.216
47437W        W14220  34.014  18.424  10.671
47438W        W14221  16.356  30.484  12.120
47439W        W14222   8.683  20.242   3.667
47440W        W14223  12.702  28.471   0.357
47441W        W14224  24.636   0.486  13.921
47442W        W14225  22.045  17.653  13.235
47443W        W14226  42.515  12.126   2.366
47444W        W14227  26.064  44.537  13.415
47445W        W14228  10.274  20.315  11.541
47446W        W14229  31.699  42.298   4.082
47447W        W14230  17.086  33.270  12.789
47448W        W14231  44.245   8.669   0.781
47449W        W14232  14.840  38.343  13.410
47450W        W14233  25.708  44.973   1.878
47451W        W14234  36.917  24.090  14.389
47452W        W14235  14.256  28.473  10.574
47453W        W14236  39.345  34.042   0.405
47454W        W14237  17.127   2.669   4.057
47455W        W14238  12.655  44.637   0.960
47456W        W14239  20.068   2.774  11.577
47457W        W14240   7.745  20.731   4.203
47458W        W14241  31.204  17.754   3.801
47459W        W14242  23.390  40.391   0.131
47460W        W14243  23.708  11.618  14.597
47461W        W14244   9.095  43.369   2.824
47462W        W14245  27.125  39.644  14.329
47463W        W14246  41.008  40.560  11.561
47464W        W14247   9.839   5.019   0.848
47465W        W14248  31.948  37.799   0.815
47466W        W14249   1.409  37.423  13.251
47467W        W14250  16.122  14.581  11.580
47468W        W14251  27.651  12.831   1.274
47469W        W14252  33.009  40.464  12.994
47470W        W14253  35.518   8.634  11.232
47471W        W14254   8.324  30.410  13.337
47472W        W14255  29.070  26.593   2.647
47473W        W14256  24.606   2.723  14.284
47474W        W14257   4.379  31.581   4.155
47475W        W14258  42.144  16.293  10.189
47476W        W14259  32.485  22.728   1.875
47477W        W14260  40.992  15.837  11.484
47478W        W14261  38.119  28.661  13.896
47479W        W14262  22.247  37.275   4.499
47480W        W14263   1.892  36.456  12.923
47481W        W14264  16.961  27.546   1.923
47482W        W14265  11.914  11.953   4.534
47483W        W14266  10.332  28.584  10.790
47484W        W14267  21.495  21.170  13.544
47485W        W14268  43.832  30.067  13.269
47486W        W14269   0.747  24.081  12.413
47487W        W14270   7.447   8.889  12.816
47488W        W14271  26.461  27.044  14.299
47489W        W14272  21.905  32.658   1.964
47490W        W14273  26.107  40.353   1.409
47491W        W14274  36.306  16.530  11.132
47492W        W14275  28.910  18.524   0.290
47493W        W14276   6.873  20.211  14.235
47494W        W14277  42.073   7.739   1.743
47495W        W14278  14.640   9.873   0.751
47496W        W14279  36.914  12.601   0.445
47497W        W14280  39.363  34.550  11.029
47498W        W14281  40.342   7.380   5.160
47499W        W14282  34.450  22.155  12.229
47500W        W14283  44.429  39.858  14.879
47501W        W14284  21.828  40.495   1.797
47502W        W14285  43.779  16.804   1.204
47503W        W14286  38.262  39.485  11.657
47504W        W14287  16.862   0.005   0.356
47505W        W14288   4.644  24.770   1.120
47506W        W14289  15.252  31.286   4.316
47507W        W14290   3.291  37.832   3.672
47508W        W14291  32.039  34.366  13.517
47509W        W14292  44.566  10.712   3.746
47510W        W14293  42.238  20.214   4.893
47511W        W14294   6.090  41.392   1.327
47512W        W14295  35.253  44.932  12.108
47513W        W14296  26.202  23.850   4.123
47514W        W14297   0.203  44.866  13.057
47515W        W14298  23.615  22.975  12.845
47516W        W14299  39.822  15.405   0.293
47517W        W14300  40.425  22.085   0.875
47518W        W14301  23.293  11.738  14.916
47519W        W14302  11.543  36.104  10.593
47520W        W14303  29.849  14.135   3.170
47521W        W14304  18.405  25.154  10.975
47522W        W14305   0.415   5.867  12.838
47523W        W14306  35.803  31.932   4.329
47524W        W14307  33.443   3.512   0.847
47525W        W14308  25.730  13.917   0.090
47526W        W14309  35.097   6.851  13.471
47527W        W14310  28.137  20.601   3.711
47528W        W14311  30.312  41.319  12.422
47529W        W14312  43.353  12.814   1.682
47530W        W14313   3.245   7.111   2.254
47531W        W14314  17.772  35.473   4.426
47532W        W14315  30.079  41.486  10.712
47533W        W14316  39.360  11.076   0.440
47534W        W14317  34.066  33.153   1.952
47535W        W14318  35.423  32.654   3.641
47536W        W14319  26.119  11.732   2.749
47537W        W14320  12.376  38.049  14.758
47538W        W14321  32.512   5.214  11.566
47539W        W14322  30.900  33.401  11.121
47540W        W14323  21.373  43.750   4.160
47541W        W14324  24.852  41.838  11.889
47542W        W14325  28.527   9.758   1.819
47543W        W14326  14.598  25.037   2.723
47544W        W14327  37.158  19.115  12.350
47545W        W14328  24.055  36.634  12.050
47546W        W14329  15.506   7.671   3.208
47547W        W14330  20.652   6.831  13.579
47548W        W14331   9.869  12.658  12.033
47549W        W14332  11.353  37.346  13.532
47550W        W14333  18.749  17.523  13.457
47551W        W14334   2.208  38.027   4.151
47552W        W14335  31.311   7.399   2.120
47553W        W14336  10.377  23.089  13.871
47554W        W14337  31.190  41.969  14.444
47555W        W14338   6.698  31.468  13.679
47556W        W14339  33.304  29.128  13.941
47557W        W14340  21.092  10.638   1.411
47558W        W14341  29.506  27.914  10.419
47559W        W14342  31.220  25.054   1.296
47560W        W14343   7.391  39.297  12.895
47561W        W14344   6.456   4.643   3.630
47562W        W14345  24.542  19.719   2.286
47563W        W14346  10.180  11.466   5.042
47564W        W14347  15.826  35.557   4.187
47565W        W14348  31.179  12.768   2.164
47566W        W14349  26.126  44.387   3.651
47567W        W14350  35.620   9.017  11.606
47568W        W14351  25.253  42.109  12.782
47569W        W14352   6.446   8.466   2.851
47570W        W14353  31.960  19.466  14.318
47571W        W14354  28.623  37.488   3.710
47572W        W14355  26.736  17.715  12.951
47573W        W14356   9.305  15.204   3.858
47574W        W14357  29.909  18.207   3.664
47575W        W14358  10.776   7.803  14.217
47576W        W14359  44.094  27.547   2.801
47577W        W14360   2.123  44.213  14.837
47578W        W14361  39.531  21.014   0.718
47579W        W14362  11.134  24.817  13.365
47580W        W14363  44.349  17.482  11.636
47581W        W14364   7.152  40.994   2.193
47582W        W14365  42.406  34.446   1.969
47583W        W14366  23.972  29.671   1.504
47584W        W14367  28.348  32.913  12.334
47585W        W14368  29.586  11.233  14.208
47586W        W14369  26.048  11.405   4.130
47587W        W14370   4.875  41.736   1.161
47588W        W14371  34.301  43.925  13.485
47589W        W14372  10.766  25.629   4.526
47590W        W14373  39.822  37.920   2.714
47591W        W14374  20.245  22.134  14.916
47592W        W14375  34.970  14.703   0.735
47593W        W14376  24.238  12.696  12.633
47594W        W14377  42.460   7.564   0.460
47595W        W14378  13.656  14.736   4.482
47596W        W14379  42.434  13.845   4.052
47597W        W14380  25.578  38.636  13.517
47598W        W14381  34.943  30.505  13.353
47599W        W14382   0.137  39.998  14.396
47600W        W14383  31.442  25.004  12.972
47601W        W14384   1.276   7.256   2.945
47602W        W14385   1.752   9.633   4.222
47603W        W14386  16.130  28.158  11.627
47604W        W14387   1.385   8.920   5.113
47605W        W14388   3.221  12.682  12.600
47606W        W14389  30.895  41.730  12.983
47607W        W14390   8.394  27.598   0.857
47608W        W14391  31.007   9.166   3.249
47609W        W14392   2.805  30.758   0.352
47610W        W14393  29.126  30.631  13.557
47611W        W14394  11.561  31.502   1.245
47612W        W14395   9.633  32.475  12.829
47613W        W14396  39.186  31.306   2.361
47614W        W14397  31.513  16.253   4.540
47615W        W14398  42.553  31.040   3.617
47616W        W14399  33.877  19.615  11.406
47617W        W14400  41.286  18.728  13.734
47618W        W14401  29.254   4.418  12.993
47619W        W14402   5.969  27.553  13.696
47620W        W14403  24.080  36.731  11.154
47621W        W14404  27.655  23.668  13.820
47622W        W14405  41.510  42.267  13.394
47623W        W14406  36.381  21.294   0.337
47624W        W14407  19.603  13.209  11.374
47625W        W14408  15.054  15.733   0.946
47626W        W14409  11.134  37.793  12.072
47627W        W14410  12.260   5.044  10.820
47628W        W14411  38.174  19.696   3.279
47629W        W14412  33.981   9.326  12.198
47630W        W14413  38.570  15.657   3.975
47631W        W14414  33.319  11.174  11.983
47632W        W14415  32.282  19.235   5.005
47633W        W14416  36.630  18.788  11.420
47634W        W14417   1.880   6.882   1.969
47635W        W14418  15.074  32.313   0.439
47636W        W14419   3.740   3.437   1.261
47637W        W14420  34.644  11.789  12.959
47638W        W14421  26.143  13.600   0.223
47639W        W14422  20.060  30.450  14.059
47640W        W14423  28.631  32.849   4.503
47641W        W14424  44.219   4.867   0.368
47642W        W14425   0.076   3.565   3.629
47643W        W14426  30.380  30.128   4.692
47644W        W14427  27.655  14.190  14.349
47645W        W14428  21.601  15.817   1.400
47646W        W14429   8.429  33.366  14.790
47647W        W14430   8.255  44.989  11.449
47648W        W14431  38.826  33.833   2.828
47649W        W14432  15.242   1.247   3.170
47650W        W14433  20.225  39.451  10.355
47651W        W14434   7.432  11.810   1.102
47652W        W14435  39.354  27.928  11.121
47653W        W14436  14.320  20.848  11.014
47654W        W14437  43.078  28.446   2.336
47655W        W14438  18.097   7.397   3.680
47656W        W14439   5.745   5.709   2.480
47657W        W14440  19.609  11.050   3.163
47658W        W14441  43.964   7.948  13.943
47659W        W14442  28.091  29.918   4.383
47660W        W14443   9.784  29.445   0.758
47661W        W14444  12.759   6.960   0.452
47662W        W14445  26.111  24.441   1.329
47663W        W14446  16.314   3.090   0.963
47664W        W14447  32.552  34.972  12.890
47665W        W14448   6.170  29.128   4.422
47666W        W14449  36.268  30.011  11.577
47667W        W14450   3.773   5.378  11.236
47668W        W14451  42.611   9.956   3.951
47669W        W14452  26.483  16.997  10.713
47670W        W14453  41.129  16.060   1.378
47671W        W14454  39.536  14.255   2.204
47672W        W14455   6.873  25.250  14.344
47673W        W14456  18.258  24.551   3.251
47674W        W14457  30.400  31.559   2.766
47675W        W14458   4.217  20.780  14.806
47676W        W14459  44.094   7.944   1.326
47677W        W14460  18.708  38.022   1.315
47678W        W14461   8.736   7.830   1.282
47679W        W14462   9.252  10.921   4.672
47680W        W14463  22.562  20.173   1.672
47681W        W14464  22.044  40.378  14.838
47682W        W14465  20.769  12.968   9.722
47683W        W14466   5.507  27.094   4.346
47684W        W14467   3.502  40.813  10.605
47685W        W14468  23.613  19.453   0.764
47686W        W14469  23.837   5.481  14.088
47687W        W14470  31.565  32.922  10.845
47688W        W14471  20.894  40.826  13.817
47689W        W14472  37.442  29.241  10.497
47690W        W14473  28.446  12.236   4.821
47691W        W14474  15.276  33.593   1.713
47692W        W14475  13.120   5.764  10.698
47693W        W14476  36.304  36.892   3.121
47694W        W14477  24.544  22.494   2.830
47695W        W14478  11.993  41.155  10.762
47696W        W14479  16.219  44.060   3.505
47697W        W14480   1.634   8.070   2.723
47698W        W14481  11.727  12.891   2.236
47699W        W14482   0.445  27.158  12.548
47700W        W14483  36.770  24.478  13.619
47701W        W14484  16.274  30.957  14.983
47702W        W14485   7.382  33.436   3.673
47703W        W14486  32.490  25.786   4.924
47704W        W14487  28.163  18.777   1.531
47705W        W14488  16.319  14.378   1.179
47706W        W14489  13.201  40.873   4.314
47707W        W14490  11.308   0.195  12.203
47708W        W14491  29.501  16.641   3.649
47709W        W14492  21.754  31.972   1.575
47710W        W14493   7.378  41.152   4.017
47711W        W14494  22.733  28.804   0.301
47712W        W14495  24.524  25.744  13.642
47713W        W14496  44.245  17.786   4.999
47714W        W14497  17.676  19.239  12.315
47715W        W14498  32.108  11.648  14.857
47716W        W14499   0.027  14.207  11.062
47717W        W14500   7.450  39.432   0.021
47718W        W14501  31.508  42.287  13.394
47719W        W14502   8.647  28.584   0.568
47720W        W14503  29.932  10.934  14.478
47721W        W14504   4.422  15.392   0.112
47722W        W14505   0.922  16.679   5.064
47723W        W14506   2.824  43.359   1.357
47724W        W14507  41.568  25.714   4.081
47725W        W14508  32.545  44.691  10.684
47726W        W14509  36.870  29.689  14.853
47727W        W14510  37.872   8.209   3.254
47728W        W14511  34.949   0.305   2.402
47729W        W14512   3.009   6.813   2.944
47730W        W14513  26.517  10.094  14.067
47731W        W14514  39.911  23.699  12.945
47732W        W14515   2.283  35.834  13.455
47733W        W14516  36.144   0.491   1.528
47734W        W14517  22.488  43.453  13.052
47735W        W14518   5.214  13.184  11.895
47736W        W14519  21.961  34.547   4.528
47737W        W14520   8.980  41.324  13.498
47738W        W14521  14.472  34.068  11.440
47739W        W14522  39.983  35.151  14.188
47740W        W14523   0.043  34.347  14.826
47741W        W14524  14.291  17.592  12.622
47742W        W14525  25.906  15.711   2.376
47743W        W14526  16.077  41.764   0.494
47744W        W14527   3.822  11.900   0.219
47745W        W14528  44.010  25.218  12.651
47746W        W14529  22.712  21.152   1.600
47747W        W14530   5.727  40.840  11.496
47748W        W14531   4.282  35.443   2.760
47749W        W14532  23.000  21.726   3.132
47750W        W14533  23.326  33.927   1.289
47751W        W14534  33.718   3.456  14.442
47752W        W14535  17.894   2.252  11.127
47753W        W14536   3.497  25.039  14.092
47754W        W14537   6.865  26.830  13.076
47755W        W14538  37.597  34.688  14.298
47756W        W14539  26.682  24.585  11.531
47757W        W14540  32.103   7.316  13.580
47758W        W14541   6.329   4.403   4.445
47759W        W14542   4.400   9.106  13.029
47760W        W14543  18.943  26.669   5.112
47761W        W14544  14.699  28.364  14.703
47762W        W14545  13.044  17.981   4.081
47763W        W14546  15.983  18.513   2.768
47764W        W14547  20.031  10.399  12.079
47765W        W14548   9.499   4.134   0.719
47766W        W14549  30.965  42.453  14.442
47767W        W14550  20.603  43.223   1.433
47768W        W14551  12.318   9.918   3.886
47769W        W14552  44.168  30.174  12.819
47770W        W14553   3.439  38.299  13.870
47771W        W14554  33.404  23.496  13.009
47772W        W14555  41.516   7.001   3.213
47773W        W14556   2.311   8.694  10.700
47774W        W14557   2.315  25.861   3.105
47775W        W14558  29.202  39.004   4.989
47776W        W14559   0.295  23.564   4.085
47777W        W14560  23.349  20.995  11.480
47778W        W14561   5.204  22.862   4.109
47779W        W14562  25.939   4.909   4.250
47780W        W14563   7.303  40.918   1.708
47781W        W14564  40.179  35.379   0.411
47782W        W14565  38.876  27.089  10.206
47783W        W14566   4.944  25.713  12.492
47784W        W14567  43.079  37.445  14.003
47785W        W14568  40.381  27.176   1.535
47786W        W14569  23.462  42.887  14.991
47787W        W14570   3.036  15.856  11.587
47788W        W14571  38.104  25.563  14.818
47789W        W14572  31.555  29.093   0.814
47790W        W14573  34.822  30.981  14.949
47791W        W14574  39.011  22.016   4.540
47792W        W14575  19.954  22.765  13.415
47793W        W14576  29.958   2.258  11.205
47794W        W14577  33.913  17.796  10.216
47795W        W14578  18.989   1.715   1.837
47796W        W14579  13.241   3.222   2.798
47797W        W14580  42.229  44.449   1.770
47798W        W14581  18.133  31.989  11.401
47799W        W14582  14.665  11.356   3.365
47800W        W14583  18.710  22.656   2.661
47801W        W14584   7.269  21.544  13.072
47802W        W14585  25.227   1.673   3.722
47803W        W14586  22.590  42.747   0.527
47804W        W14587  16.105   7.463   4.091
47805W        W14588  32.514   6.605   4.961
47806W        W14589  35.485  31.051   2.281
47807W        W14590  37.557  39.571  13.400
47808W        W14591  12.690  13.388   4.262
47809W        W14592   1.249  23.488  12.537
47810W        W14593  25.332  12.794  11.154
47811W        W14594  33.687  30.113   1.737
47812W        W14595   6.253   1.428  13.773
47813W        W14596  17.268   2.847  14.782
47814W        W14597  23.931   5.250   4.083
47815W        W14598  39.064  40.485  12.168
47816W        W14599  14.348  23.136   4.167
47817W        W14600  24.472  26.643   0.434
47818W        W14601  32.962  22.019   1.958
47819W        W14602  13.827   3.962   2.766
47820W        W14603  27.707   9.185   4.218
47821W        W14604   9.802  17.340  11.962
47822W        W14605   1.788  27.528  12.044
47823W        W14606   1.768  24.606   1.478
47824W        W14607  25.948   7.441   1.839
47825W        W14608  40.558  30.688  11.075
47826W        W14609  35.793  37.782   4.054
47827W        W14610  23.768  31.324  12.892
47828W        W14611  15.147  35.717  14.063
47829W        W14612  26.720  28.233  14.722
47830W        W14613   0.182  15.043   0.366
47831W        W14614  25.849  42.258  14.361
47832W        W14615  21.845  35.641   0.560
47833W        W14616  13.296  32.080   3.244
47834W        W14617  10.703  13.884   1.017
47835W        W14618   9.861  40.610   4.762
47836W        W14619  15.285   9.703   1.768
47837W        W14620  38.110  26.262   3.448
47838W        W14621  38.835  37.796   2.910
47839W        W14622  35.370  16.653   0.902
47840W        W14623  17.278   7.208   0.922
47841W        W14624   5.267  14.768   3.020
47842W        W14625  31.524  39.389  11.551
47843W        W14626  12.743  17.537   0.725
47844W        W14627  23.541  34.603  11.664
47845W        W14628  16.626  12.263   1.668
47846W        W14629   1.873  15.590   2.229
47847W        W14630  40.501  25.245  11.516
47848W        W14631  24.579  35.152   0.951
47849W        W14632  10.400  16.381  14.896
47850W        W14633  19.144   8.308  14.720
47851W        W14634  21.786  11.560   4.715
47852W        W14635   2.648   6.100   5.089
47853W        W14636  22.210  41.308  11.797
47854W        W14637  34.839   8.892   2.029
47855W        W14638   3.344  37.851  11.548
47856W        W14639  21.981   3.794  12.206
47857W        W14640   6.593   4.348   3.193
47858W        W14641  36.923  41.306   0.770
47859W        W14642   9.565  24.600   1.001
47860W        W14643   8.697  21.391  12.440
47861W        W14644  20.521  23.781   0.356
47862W        W14645  24.134   1.248  11.803
47863W        W14646  33.109  33.382   4.229
47864W        W14647  10.149  29.234  13.927
47865W        W14648  44.775  10.785   1.979
47866W        W14649  24.156   8.426   2.246
47867W        W14650  34.701  24.118   3.658
47868W        W14651  27.272   4.638   4.575
47869W        W14652  25.405  13.074   4.694
47870W        W14653  32.345  13.576   2.778
47871W        W14654  19.134  36.933   2.766
47872W        W14655  38.135  19.717   3.805
47873W        W14656   1.323   9.790   3.292
47874W        W14657  17.755  36.798  12.372
47875W        W14658  22.437  16.800   0.986
47876W        W14659   7.831  33.995  12.508
47877W        W14660  23.252  26.503  13.510
47878W        W14661  31.666  16.027   0.756
47879W        W14662  28.525  23.625   2.867
47880W        W14663   1.098  38.965  11.630
47881W        W14664  44.079  15.402  11.647
47882W        W14665  13.177   6.667   4.286
47883W        W14666  10.794   4.319  14.952
47884W        W14667  16.218  41.965   3.736
47885W        W14668  43.856  20.511   2.632
47886W        W14669  21.683  32.148   4.456
47887W        W14670   5.425  16.219   3.669
47888W        W14671  21.792   1.960  10.126
47889W        W14672  43.558  29.608   2.736
47890W        W14673  16.295  13.407   1.288
47891W        W14674  40.837  34.466   3.426
47892W        W14675   4.125  24.773  14.865
47893W        W14676  27.558  26.689   1.420
47894W        W14677   4.586  21.091   4.561
47895W        W14678  31.408  27.463  11.184
47896W        W14679  23.833  35.911  10.292
47897W        W14680  37.078  41.476  11.527
47898W        W14681  30.124   4.051  12.611
47899W        W14682  44.886  33.343   3.507
47900W        W14683  13.543  18.763  14.261
47901W        W14684  29.065  17.750  11.203
47902W        W14685   3.956   4.804  13.757
47903W        W14686  44.028  44.265   4.301
47904W        W14687   0.498  44.050  11.003
47905W        W14688  37.287  18.470   4.926
47906W        W14689  30.481  18.786  12.378
47907W        W14690   0.083  20.058   0.453
47908W        W14691   4.596  11.792  10.046
47909W        W14692  27.232   2.658  12.510
47910W        W14693  18.583  22.454  14.991
47911W        W14694  42.886  38.281   2.248
47912W        W14695  15.222  13.336   2.285
47913W        W14696   7.471  33.499   2.285
47914W        W14697  44.073  18.416  14.674
47915W        W14698  12.873   5.591   3.359
47916W        W14699  10.318  10.300  14.039
47917W        W14700  39.437  17.324   4.934
47918W        W14701  12.516  40.912   1.789
47919W        W14702   1.179   4.241  10.995
47920W        W14703   9.305   7.291   2.859
47921W        W14704   2.236  40.317  13.409
47922W        W14705   3.066   4.806  12.770
47923W        W14706  28.639  10.363   0.069
47924W        W14707  16.604  10.578  13.355
47925W        W14708   6.176   7.718   0.182
47926W        W14709   9.503  38.850  14.744
47927W        W14710  25.414   2.476   2.860
47928W        W14711   7.976   0.796   0.427
47929W        W14712  23.103   0.376  10.161
47930W        W14713  39.395  14.706   2.421
47931W        W14714  22.547  42.456  10.157
47932W        W14715  42.589  37.478   2.640
47933W        W14716  22.231   0.342  12.782
47934W        W14717   0.410   2.186  11.982
47935W        W14718  41.987   7.575  14.707
47936W        W14719  20.201  12.598   0.052
47937W        W14720  10.161   6.742   9.879
47938W        W14721  37.543  25.654  14.687
47939W        W14722  42.823  37.880   0.804
47940W        W14723   0.383  35.466   4.959
47941W        W14724  24.530   1.540  11.120
47942W        W14725  44.277  33.471   0.417
47943W        W14726  33.058  37.616   4.261
47944W        W14727  34.812  35.379  10.692
47945W        W14728   1.982   7.813  11.687
47946W        W14729  27.469   8.847   1.640
47947W        W14730   6.267  14.989   3.748
47948W        W14731  32.510   5.143  14.781
47949W        W14732   1.376  14.364   2.151
47950W        W14733  23.542  39.831   3.875
47951W        W14734   9.387  19.012   1.666
47952W        W14735  35.383  43.060  14.620
47953W        W14736   0.758   0.550  10.421
47954W        W14737  14.310  14.100   3.190
47955W        W14738  17.265  42.089  13.877
47956W        W14739  15.213   6.218  11.835
47957W        W14740  20.503  29.261   2.950
47958W        W14741   2.192   3.308   4.634
47959W        W14742  44.893  32.440   4.671
47960W        W14743  30.444  34.001   1.694
47961W        W14744  42.493  16.415  10.546
47962W        W14745  14.743  14.351  11.575
47963W        W14746  27.924  37.515  14.349
47964W        W14747   0.126  26.802  12.787
47965W        W14748  40.080  38.043   3.154
47966W        W14749  35.981  30.806   0.244
47967W        W14750   9.846  33.996   4.622
47968W        W14751  18.062  12.357   0.340
47969W        W14752  44.363  29.172   1.000
47970W        W14753  29.155  42.152   0.827
47971W        W14754  29.674  28.822  10.939
47972W        W14755  43.452   1.329   4.928
47973W        W14756   1.876  24.449  12.091
47974W        W14757  38.192  12.354  12.082
47975W        W14758   6.064  32.379   4.519
47976W        W14759  24.214  41.054   3.213
47977W        W14760  28.973  27.859   1.641
47978W        W14761  10.807  35.955   2.785
47979W        W14762  37.986  21.398  12.211
47980W        W14763  13.427  23.875  11.951
47981W        W14764  36.840  34.462  14.053
47982W        W14765  24.437  42.376  12.439
47983W        W14766  10.173  38.016  14.523
47984W        W14767   6.700  39.958   3.810
47985W        W14768   6.470  30.182   1.140
47986W        W14769  44.231  38.877  14.593
47987W        W14770  31.963  20.024   0.921
47988W        W14771  22.666  11.697   4.585
47989W        W14772  32.339  32.144  11.701
47990W        W14773   3.060  21.039   2.518
47991W        W14774  23.046  23.249   0.367
47992W        W14775  14.245  21.566  11.542
47993W        W14776   5.087  20.679  11.557
47994W        W14777  35.943  43.454  13.976
47995W        W14778  24.196  26.400   0.791
47996W        W14779  19.474  29.977   0.116
47997W        W14780   6.209   6.073   1.768
47998W        W14781   9.738  38.466  13.366
47999W        W14782  26.438  29.537   0.318
48000W        W14783   3.742  38.890   0.515
48001W        W14784  35.838  16.703  11.198
48002W        W14785   2.993  34.912   1.748
48003W        W14786  33.440  27.943  12.735
48004W        W14787  11.902  28.942   2.363
48005W        W14788  10.964  38.898  11.687
48006W        W14789  24.530  27.896  11.730
48007W        W14790  37.975  41.012  14.460
48008W        W14791  38.386  14.255   4.075
48009W        W14792   8.771  25.131   0.105
48010W        W14793   7.483  38.471  14.930
48011W        W14794  44.894  42.031   4.732
48012W        W14795  10.606  18.653  14.865
48013W        W14796  40.124  11.562  11.209
48014W        W14797   4.424  30.435  12.912
48015W        W14798  39.530   2.538  14.046
48016W        W14799  25.196  27.515   0.733
48017W        W14800  32.885  41.336  14.073
48018W        W14801  25.667   1.703  12.845
48019W        W14802  43.970  10.118   4.151
48020W        W14803  42.976  17.258   2.144
48021W        W14804  26.901  35.196   4.129
48022W        W14805  17.063  38.162  13.789
48023W        W14806  38.561  20.965  11.634
48024W        W14807   5.625  20.138   1.321
48025W        W14808   8.225  25.308   2.870
48026W        W14809  41.963  20.744  14.379
48027W        W14810  27.008  23.029   5.561
48028W        W14811  12.205  43.887   4.407
48029W        W14812   8.697  33.525  14.024
48030W        W14813  33.535  31.469   0.789
48031W        W14814  29.609  34.177  12.869
48032W        W14815  20.327  14.106   4.528
48033W        W14816  39.513   4.831  13.007
48034W        W14817  35.319   6.220  12.419
48035W        W14818  35.013  19.767  13.635
48036W        W14819  38.968  15.287   1.232
48037W        W14820  27.114  20.126  14.230
48038W        W14821   4.249  35.947  12.715
48039W        W14822  10.821  29.651   4.763
48040W        W14823   6.302  16.841  14.793
48041W        W14824  26.868  26.521  14.881
48042W        W14825   2.346   4.639  14.488
48043W        W14826  14.282  40.642   9.999
48044W        W14827  27.016   7.828  13.475
48045W        W14828  11.348  21.135   3.691
48046W        W14829  30.980  20.451  11.094
48047W        W14830  30.642   7.489  14.059
48048W        W14831  32.839  31.637  13.140
48049W        W14832  19.074  31.380   0.762
48050W        W14833   6.944  31.339   3.288
48051W        W14834  15.776  42.591   3.304
48052W        W14835  28.164  15.522  11.894
48053W        W14836  39.272   8.986   1.018
48054W        W14837  15.814   3.641  10.404
48055W        W14838  39.280  29.566   4.126
48056W        W14839  16.113  10.004   3.635
48057W        W14840  38.587  22.224   1.278
48058W        W14841  43.259  18.459   0.729
48059W        W14842  20.588  38.439  10.590
48060W        W14843  23.214  41.059   3.265
48061W        W14844  37.783  29.530  14.820
48062W        W14845  44.707  15.780   2.943
48063W        W14846  30.474   0.057   4.388
48064W        W14847  18.705  36.859   0.208
48065W        W14848   3.229   5.672   4.674
48066W        W14849  30.931   1.000  10.277
48067W        W14850  27.452  44.356   2.330
48068W        W14851  35.868  24.962  14.094
48069W        W14852  17.288   9.168  14.010
48070W        W14853  38.565  41.581  12.959
48071W        W14854  25.627  32.784  12.937
48072W        W14855  42.263  26.936   4.663
48073W        W14856  29.457  40.671   2.416
48074W        W14857  10.627  42.328  13.039
48075W        W14858  10.519  41.828  14.228
48076W        W14859  27.098   6.761   4.682
48077W        W14860  36.063  36.870   0.787
48078W        W14861  35.042   2.311  13.281
48079W        W14862  25.972  18.390   4.808
48080W        W14863  32.629  29.456  11.139
48081W        W14864   3.908  26.494  13.873
48082W        W14865  36.276  38.380   1.776
48083W        W14866  12.371   6.657   1.374
48084W        W14867  36.928  36.843   3.790
48085W        W14868   6.772   8.254   2.028
48086W        W14869   2.892   6.348   3.186
48087W        W14870   1.271  24.403   3.218
48088W        W14871  24.040  23.721  13.911
48089W        W14872  17.062   6.458  14.357
48090W        W14873  14.641  30.848  12.022
48091W        W14874   7.881  34.730  12.992
48092W        W14875  40.589  25.516  11.932
48093W        W14876   3.846   3.448   2.233
48094W        W14877  37.867  30.436   3.820
48095W        W14878  30.981  15.668  12.396
48096W        W14879   1.881  30.480   0.811
48097W        W14880  27.955  43.455   4.142
48098W        W14881  36.103  33.455  13.597
48099W        W14882  42.010  12.148   4.199
48100W        W14883  16.292   5.827   1.847
48101W        W14884  37.437  13.037   3.709
48102W        W14885  29.029  23.485  14.012
48103W        W14886  44.524  17.987  13.915
48104W        W14887  10.830  32.634   1.775
48105W        W14888  36.924  43.734  14.373
48106W        W14889   2.696  14.378  12.423
48107W        W14890  37.806  26.655  13.264
48108W        W14891  44.547  30.736  11.034
48109W        W14892   4.735  30.743  13.411
48110W        W14893   8.668  25.458  11.361
48111W        W14894  28.145   0.251   3.145
48112W        W14895  22.992  28.128   3.393
48113W        W14896  17.123  19.159  13.460
48114W        W14897  25.652  35.992   1.551
48115W        W14898  13.705   9.139   4.127
48116W        W14899   6.373  37.537   4.617
48117W        W14900  32.906  14.573  14.855
48118W        W14901  36.806   5.840  14.333
48119W        W14902  34.055  33.752  12.054
48120W        W14903  39.270  36.914  14.876
48121W        W14904  43.476  24.309   0.611
48122W        W14905  24.184   3.360   1.951
48123W        W14906   4.339  11.871   0.237
48124W        W14907  38.389  40.805   0.377
48125W        W14908  35.919  19.548  11.979
48126W        W14909  41.845  33.536  12.881
48127W        W14910  40.952  31.409   4.946
48128W        W14911   4.383   5.163  11.893
48129W        W14912   1.125  29.635   3.729
48130W        W14913  43.234   5.733   3.578
48131W        W14914   4.367  15.108  11.623
48132W        W14915  41.392  28.896   4.489
48133W        W14916  33.136  28.158   0.815
48134W        W14917  41.217  33.492  10.605
48135W        W14918  38.351  25.410   3.649
48136W        W14919  10.811  39.083   0.465
48137W        W14920  34.954  19.909   2.619
48138W        W14921  43.437   7.237   3.712
48139W        W14922  10.675  26.373   3.769
48140W        W14923  23.499   4.562   4.065
48141W        W14924  42.240  36.202  12.573
48142W        W14925   4.392  43.272  14.817
48143W        W14926   7.676  32.812  14.093
48144W        W14927  13.782   7.753  13.199
48145W        W14928  28.136  21.551  13.871
48146W        W14929  38.526  23.843  13.485
48147W        W14930  21.707   7.966   1.439
48148W        W14931  23.588  34.192  11.374
48149W        W14932  43.289  32.942   1.220
48150W        W14933  28.131  12.788  10.191
48151W        W14934   5.864  40.583  14.389
48152W        W14935  36.407  34.626  12.461
48153W        W14936   8.621   7.727   3.563
48154W        W14937  43.018  28.592  11.148
48155W        W14938  31.388  22.978  14.956
48156W        W14939  35.025  17.245   4.713
48157W        W14940  16.022  32.780  13.090
48158W        W14941   2.356  28.338   0.198
48159W        W14942   4.508   3.573   3.794
48160W        W14943  14.779  13.668   1.855
48161W        W14944  14.083  33.840  10.594
48162W        W14945   4.620   6.279   0.394
48163W        W14946  19.255  37.660   4.134
48164W        W14947  23.983  33.030   1.327
48165W        W14948  10.210  11.129  11.422
48166W        W14949  38.088   7.410   3.697
48167W        W14950  17.444  23.469  12.034
48168W        W14951  41.857  24.159   3.702
48169W        W14952  40.342  38.839  12.065
48170W        W14953  10.151  24.629   0.252
48171W        W14954  17.842  43.997   1.862
48172W        W14955  26.790   3.527   4.055
48173W        W14956  21.235  37.883   0.394
48174W        W14957  43.773  20.564   0.312
48175W        W14958   6.384  25.994   1.768
48176W        W14959  40.512  21.424  11.050
48177W        W14960  38.497   2.255   2.411
48178W        W14961  31.102  15.584  13.816
48179W        W14962  18.659   2.717   0.272
48180W        W14963   2.232  10.391   4.276
48181W        W14964  36.366  30.069  12.541
48182W        W14965  13.593  33.008   4.128
48183W        W14966  42.318  41.903  11.992
48184W        W14967   7.860   6.966  13.992
48185W        W14968   6.281   8.854   1.340
48186W        W14969  33.349  11.860  11.540
48187W        W14970  43.223   0.353  12.135
48188W        W14971  40.334  43.857   0.248
48189W        W14972   0.440  10.954  10.734
48190W        W14973   3.275  11.285   3.625
48191W        W14974  29.826  13.625   3.968
48192W        W14975  39.789  38.372   0.384
48193W        W14976  22.832  30.804   1.234
48194W        W14977   7.046  38.514  11.595
48195W        W14978   6.143  24.772  11.588
48196W        W14979  28.880  12.053  11.952
48197W        W14980  43.828   8.221   1.889
48198W        W14981   2.896  19.723  11.562
48199W        W14982  11.180  40.873   0.965
48200W        W14983  24.503  26.432  10.536
48201W        W14984  25.139  39.806  14.929
48202W        W14985  41.800   1.430  12.143
48203W        W14986   4.335  27.665   1.894
48204W        W14987   1.984  29.948   0.876
48205W        W14988  22.814  40.533  11.782
48206W        W14989   5.411  39.612   3.710
48207W        W14990  23.158   4.983  10.814
48208W        W14991  29.646  38.581   1.262
48209W        W14992  28.578  42.473  14.467
48210W        W14993  44.460   8.692   9.725
48211W        W14994  13.224  18.189   1.775
48212W        W14995  32.080  24.544  11.555
48213W        W14996  28.996  43.303  13.461
48214W        W14997  42.953  10.912   0.418
48215W        W14998  32.069   7.866   5.186
48216W        W14999  44.898   2.317  13.341
48217W        W15000  11.242   3.862  13.732
48218W        W15001  33.665  29.701   0.380
48219W        W15002  17.699  11.310  11.519
48220W        W15003  23.113  31.045  12.929
48221W        W15004   1.185  42.918  11.886
48222W        W15005  37.978  29.018   1.581
48223W        W15006  29.348  21.621   2.978
48224W        W15007  26.325  31.191   3.373
48225W        W15008  42.752  25.539   3.386
48226W        W15009  31.413  40.523   0.438
48227W        W15010   3.162  28.446  12.447
48228W        W15011  18.323  40.663   0.757
48229W        W15012  37.636  35.984  12.013
48230W        W15013  16.598  39.365  10.587
48231W        W15014  26.563  15.864  10.052
48232W        W15015   0.402  15.416   2.521
48233W        W15016   5.230  37.250  14.809
48234W        W15017   0.421  10.823   2.548
48235W        W15018  26.610  10.919  14.304
48236W        W15019   7.433  42.786   0.047
48237W        W15020  40.967   5.450  11.683
48238W        W15021  23.058  25.733  12.824
48239W        W15022  29.491  23.050  12.125
48240W        W15023   2.824  30.985   4.503
48241W        W15024   3.211  43.102  12.957
48242W        W15025  15.436  31.481   2.641
48243W        W15026   6.278  21.705   2.597
48244W        W15027  11.703  18.738  13.012
48245W        W15028  30.125  39.049  11.808
48246W        W15029  39.814   8.932  12.187
48247W        W15030  22.793  42.386  13.056
48248W        W15031  41.076  34.328   1.726
48249W        W15032  15.722  11.794   4.703
48250W        W15033  22.631   1.584   1.475
48251W        W15034  32.913   9.189   1.473
48252W        W15035  40.837  25.452   1.869
48253W        W15036  44.918   0.586  13.919
48254W        W15037  44.402  42.885  10.931
48255W        W15038  41.130   2.770  12.436
48256W        W15039  25.433   7.790   4.051
48257W        W15040  41.776  32.411  13.198
48258W        W15041  20.603  41.551   3.268
48259W        W15042  36.666   9.879  10.716
48260W        W15043  11.867  29.051  13.868
48261W        W15044  25.566   9.257  14.612
48262W        W15045   3.736  18.531  11.235
48263W        W15046  27.577  33.588  14.406
48264W        W15047   1.895  12.857   0.866
48265W        W15048  25.056   4.828   0.821
48266W        W15049   1.254  17.254  11.593
48267W        W15050  17.180  16.836   2.297
48268W        W15051  37.526  35.589  10.679
48269W        W15052  29.312  36.797   0.544
48270W        W15053  15.576   4.412  13.479
48271W        W15054  37.434   5.810   2.625
48272W        W15055   8.083   3.826  12.629
48273W        W15056  24.495  27.704  13.022
48274W        W15057  41.933  43.723   0.848
48275W        W15058  18.106  37.025   1.956
48276W        W15059  23.011  41.293   1.786
48277W        W15060  32.892  37.051  10.730
48278W        W15061  12.585  16.670   4.691
48279W        W15062   4.115  24.585   3.168
48280W        W15063  16.771  14.375  13.407
48281W        W15064  11.538   3.832   4.119
48282W        W15065   2.169  43.948  13.037
48283W        W15066  23.623  36.886   4.498
48284W        W15067   2.557   2.668   0.245
48285W        W15068   9.183   0.339  12.537
48286W        W15069  43.690  14.035  13.963
48287W        W15070  44.013  11.938  13.766
48288W        W15071  17.986  11.911  12.027
48289W        W15072  35.586   5.402  12.984
48290W        W15073  35.408  17.533   4.521
48291W        W15074  22.281  17.961  11.537
48292W        W15075  14.143  17.098  13.832
48293W        W15076  26.015   2.344   5.055
48294W        W15077  38.625  26.968   4.823
48295W        W15078  11.788  41.639   3.740
48296W        W15079  43.245  21.720   3.872
48297W        W15080  35.917  43.944  11.438
48298W        W15081   0.417  26.578   0.391
48299W        W15082   6.332  27.650   0.039
48300W        W15083  35.361  42.147  10.925
48301W        W15084   0.697   3.263   2.880
48302W        W15085   7.745  15.304  11.119
48303W        W15086  43.867   9.841  14.807
48304W        W15087  10.363  44.583  14.446
48305W        W15088  26.625  40.906   1.880
48306W        W15089  27.696  42.195   0.979
48307W        W15090   5.952  29.425   3.372
48308W        W15091   6.864  25.769  11.100
48309W        W15092  38.684  18.970  12.405
48310W        W15093  33.140  15.084   4.632
48311W        W15094  19.961  43.077  13.864
48312W        W15095  14.666  30.990  10.768
48313W        W15096  39.193  42.918  10.644
48314W        W15097   9.934  24.448  12.997
48315W        W15098  10.671  24.941   2.652
48316W        W15099  33.064  43.616   1.004
48317W        W15100  44.842  43.923   3.668
48318W        W15101  16.484  15.674   9.942
48319W        W15102  24.186  38.773  14.313
48320W        W15103  32.372  30.460  11.959
48321W        W15104  21.645  33.794  10.592
48322W        W15105  15.351  44.221  11.415
48323W        W15106   6.443  42.388  11.942
48324W        W15107  35.688   2.283   0.857
48325W        W15108  36.299  21.253  13.378
48326W        W15109  41.949  38.024  12.232
48327W        W15110   5.500  33.112  13.412
48328W        W15111  38.054  21.819   4.857
48329W        W15112  38.387  34.336   1.619
48330W        W15113  34.411  30.277   0.406
48331W        W15114   8.918   3.750  13.372
48332W        W15115  35.512   2.692  14.466
48333W        W15116  22.437  13.074   2.113
48334W        W15117  15.173  14.238   3.496
48335W        W15118   6.890  33.157   3.671
48336W        W15119  27.136  25.913  14.224
48337W        W15120  39.358  11.235   2.215
48338W        W15121  35.363  16.167  14.320
48339W        W15122   0.097  29.654   2.658
48340W        W15123  16.777  11.863  13.541
48341W        W15124  29.612   1.328  14.859
48342W        W15125  37.087  26.909   0.192
48343W        W15126  36.210  15.271   0.277
48344W        W15127   6.148   5.372   2.403
48345W        W15128  32.102  37.002  12.054
48346W        W15129  26.534   8.425   3.013
48347W        W15130  19.739  35.409   2.937
48348W        W15131   5.277  17.393  13.457
48349W        W15132  34.090  19.755  13.929
48350W        W15133   6.963   0.835   4.131
48351W        W15134   6.568  36.102   1.798
48352W        W15135  16.231  23.684   1.089
48353W        W15136  24.185  24.094   3.717
48354W        W15137   6.705   1.709  11.089
48355W        W15138  15.251  38.250   4.109
48356W        W15139  30.100  30.086   2.856
48357W        W15140   8.781  38.695   2.223
48358W        W15141  13.727   5.716   1.896
48359W        W15142   3.230  24.787   0.431
48360W        W15143  22.672  25.214   4.132
48361W        W15144   7.160  36.124   1.311
48362W        W15145   2.764  10.307  12.121
48363W        W15146  35.385  35.100  13.335
48364W        W15147  44.978  10.955  14.899
48365W        W15148   2.214  26.997   0.811
48366W        W15149  31.088  39.041   3.671
48367W        W15150  31.771   9.778  12.441
48368W        W15151  10.672  24.591  13.462
48369W        W15152  41.218  30.024  12.955
48370W        W15153   3.621  25.375  11.951
48371W        W15154   0.133  16.871   5.439
48372W        W15155  11.580   0.929   0.749
48373W        W15156  44.397   0.271  11.817
48374W        W15157  37.139  29.645  13.995
48375W        W15158   1.518  17.382   2.345
48376W        W15159  24.207  10.473   5.043
48377W        W15160  37.558  29.146  14.508
48378W        W15161  19.266  35.136   3.840
48379W        W15162   1.906   7.474  13.411
48380W        W15163  25.026   8.419   0.201
48381W        W15164  15.790  37.383  12.002
48382W        W15165  24.100  16.974   3.493
48383W        W15166  20.486  30.054   3.461
48384W        W15167  20.350   2.882   2.810
48385W        W15168  10.362  43.054   2.712
48386W        W15169  28.502  27.098   4.191
48387W        W15170  15.263  10.648  12.016
48388W        W15171  18.536  11.592   1.347
48389W        W15172   2.167  36.827  13.112
48390W        W15173  38.759  19.795  11.860
48391W        W15174  43.337  27.503  13.271
48392W        W15175  19.025  24.208   2.838
48393W        W15176  30.131  28.459   3.290
48394W        W15177  14.425  26.562  12.783
48395W        W15178   8.180   3.822   2.726
48396W        W15179   6.833  21.248   3.434
48397W        W15180  32.872  26.568  11.029
48398W        W15181  43.465  19.124  12.060
48399W        W15182  10.812   9.075   3.166
48400W        W15183  40.154  12.186  12.971
48401W        W15184  34.467   4.336   0.255
48402W        W15185  30.208  21.930  11.530
48403W        W15186   3.166  41.499   0.073
48404W        W15187  18.814  20.597   3.410
48405W        W15188  36.988  29.443   0.292
48406W        W15189  12.128   0.897   3.582
48407W        W15190  39.560   4.441   4.067
48408W        W15191  21.146  27.896   4.093
48409W        W15192  13.654  31.372   4.282
48410W        W15193  43.005  32.512   1.203
48411W        W15194  16.485  31.545   2.790
48412W        W15195   1.040   6.351  13.993
48413W        W15196  41.426  39.579   2.644
48414W        W15197   0.731   1.557  14.043
48415W        W15198  28.165   0.009  14.416
48416W        W15199  41.819  19.670  10.553
48417W        W15200  32.315  33.907  10.409
48418W        W15201  28.251   0.861   5.184
48419W        W15202  19.580  20.847   3.296
48420W        W15203  30.468  26.279   4.997
48421W        W15204  32.134  33.562   1.802
48422W        W15205  29.304   1.658  12.431
48423W        W15206   8.309   0.121   4.208
48424W        W15207  17.803   8.245   0.062
48425W        W15208  34.349   1.346   3.191
48426W        W15209  14.836  23.983   1.400
48427W        W15210  41.776  21.687   1.209
48428W        W15211   8.256   0.310  13.427
48429W        W15212  35.125  18.382   0.464
48430W        W15213  13.608  43.873   0.030
48431W        W15214  23.132  43.606   3.837
48432W        W15215  25.554  40.100   0.041
48433W        W15216   1.022  33.519  12.477
48434W        W15217  38.837  35.373   2.870
48435W        W15218  17.628   5.706   4.134
48436W        W15219   4.154  10.870  13.800
48437W        W15220  36.076  30.130   0.924
48438W        W15221  29.975   7.238   2.631
48439W        W15222  25.254  37.829   2.792
48440W        W15223  21.369  28.928  12.568
48441W        W15224  35.388   5.469   2.146
48442W        W15225   5.973  32.970   1.121
48443W        W15226  37.861  29.268   1.142
48444W        W15227  28.861  42.616  12.264
48445W        W15228  39.095  15.082  14.050
48446W        W15229   3.568  43.507   3.718
48447W        W15230  14.905  22.487   1.384
48448W        W15231  33.416  30.048  10.746
48449W        W15232   1.581  20.543  11.527
48450W        W15233  26.621  17.320   2.437
48451W        W15234  19.101  11.949  13.610
48452W        W15235  12.171  17.043   3.743
48453W        W15236   0.759  37.568  14.908
48454W        W15237   7.838  44.654   2.453
48455W        W15238  32.676  42.461   2.539
48456W        W15239  40.372  19.018   1.854
48457W        W15240  17.689  24.725   2.278
48458W        W15241  44.929  21.124  14.709
48459W        W15242   0.812  35.975   2.806
48460W        W15243  30.324  32.022  12.483
48461W        W15244  13.057  13.755   4.474
48462W        W15245  10.857  21.532   2.854
48463W        W15246  25.676   1.028  12.040
48464W        W15247   7.356  39.520   0.515
48465W        W15248  44.240  40.635   4.517
48466W        W15249  28.300  19.200   0.749
48467W        W15250  26.262  15.577   0.658
48468W        W15251  34.577  24.407   3.263
48469W        W15252  36.925  23.175  13.996
48470W        W15253  20.942  29.538  11.934
48471W        W15254  42.978  31.078  12.090
48472W        W15255  14.023  10.711   0.859
48473W        W15256  14.917   9.695   3.703
48474W        W15257  11.126  28.390   0.485
48475W        W15258  12.230  42.218  13.693
48476W        W15259  31.053  43.228   2.834
48477W        W15260   5.135  23.933   0.350
48478W        W15261  32.397   8.265  12.913
48479W        W15262  14.979   6.978   5.094
48480W        W15263  44.046  32.639  14.794
48481W        W15264   2.270  37.431  13.794
48482W        W15265  41.994  20.661   1.238
48483W        W15266  21.702  28.324  13.199
48484W        W15267  14.792  14.296   3.131
48485W        W15268  10.441  17.590   0.734
48486W        W15269  32.402   2.325   4.593
48487W        W15270  36.417   1.236   2.682
48488W        W15271  17.303  15.154  13.796
48489W        W15272  36.863  40.291   4.101
48490W        W15273  43.430  30.632  11.603
48491W        W15274  30.399   2.527   2.650
48492W        W15275  16.218  39.405   3.908
48493W        W15276  12.322  39.372   2.820
48494W        W15277  20.881  14.938   3.607
48495W        W15278   2.995  23.241   0.724
48496W        W15279  30.573  20.977   1.222
48497W        W15280  10.199  10.248  11.579
48498W        W15281  15.093  24.072   4.608
48499W        W15282  23.313   8.415   1.302
48500W        W15283  41.896  16.401  11.711
48501W        W15284  32.219   9.870   2.831
48502W        W15285  25.081  33.409   0.807
48503W        W15286   9.348   0.937   0.889
48504W        W15287  11.621   7.637  11.270
48505W        W15288  21.125   8.236   3.788
48506W        W15289  33.574  44.439  13.246
48507W        W15290  27.181   8.510   5.097
48508W        W15291   4.260  10.786   2.150
48509W        W15292  26.461   0.702   0.310
48510W        W15293  26.683  13.126  12.688
48511W        W15294  15.911  30.672  11.188
48512W        W15295   3.983   9.407  11.972
48513W        W15296  40.042  26.608   5.100
48514W        W15297  14.862  28.394   1.006
48515W        W15298  43.084  12.241   1.814
48516W        W15299  11.848  35.747   3.862
48517W        W15300  23.671  36.503   1.853
48518W        W15301  16.619  30.094   2.600
48519W        W15302  10.841  20.826  14.525
48520W        W15303   4.840  18.102   0.441
48521W        W15304  24.497  44.116   1.870
48522W        W15305  16.700  28.098  13.765
48523W        W15306  40.276  38.958  11.180
48524W        W15307  27.467   0.587  12.412
48525W        W15308  22.974  37.576  11.630
48526W        W15309  14.842   6.793   2.205
48527W        W15310  43.468  32.266   4.069
48528W        W15311  30.154  40.638  14.624
48529W        W15312  37.445  41.118   0.760
48530W        W15313  42.720  42.425  14.355
48531W        W15314  13.188   1.395  14.337
48532W        W15315   2.689  42.400  11.206
48533W        W15316  33.811  37.940   2.703
48534W        W15317  41.931   1.803  14.254
48535W        W15318   9.835  15.116   3.765
48536W        W15319  37.641   9.379  10.243
48537W        W15320  44.822  17.294  14.987
48538W        W15321  24.515  42.271   4.581
48539W        W15322  11.761  36.935  13.583
48540W        W15323   8.733  38.807   0.382
48541W        W15324   2.259  16.353   4.163
48542W        W15325   4.866  19.262  12.857
48543W        W15326  28.622  44.769  13.662
48544W        W15327  35.042  22.902  12.419
48545W        W15328   0.782   0.526   4.747
48546W        W15329  37.401  12.025  13.884
48547W        W15330   6.653  22.221  13.031
48548W        W15331  23.738  17.942   1.049
48549W        W15332  14.620  20.028  10.463
48550W        W15333  11.232  22.073  10.572
48551W        W15334  11.301  35.501   1.907
48552W        W15335   3.900   6.944  14.440
48553W        W15336  38.484   5.806   3.309
48554W        W15337  24.322  44.389   1.415
48555W        W15338  23.996  21.522   4.080
48556W        W15339   3.110  27.805   5.238
48557W        W15340  38.476  19.657  14.920
48558W        W15341  13.103   6.759  13.050
48559W        W15342  11.488   3.964  11.449
48560W        W15343  44.972  35.556   2.402
48561W        W15344  34.014  40.351  11.707
48562W        W15345  25.613   4.151   4.088
48563W        W15346  23.992  40.530   1.400
48564W        W15347  27.995  20.137  11.982
48565W        W15348  17.872  43.631   0.354
48566W        W15349  23.204  10.828  10.838
48567W        W15350   9.734  44.314   3.100
48568W        W15351   3.886   3.804   0.454
48569W        W15352  39.928  19.972  12.645
48570W        W15353  12.263  30.595   3.121
48571W        W15354  25.193  17.220   0.839
48572W        W15355  25.169  37.631   3.729
48573W        W15356  38.983   4.986   0.485
48574W        W15357  34.558  39.908  14.955
48575W        W15358  41.638  38.482   3.189
48576W        W15359  41.095  20.269  14.170
48577W        W15360  31.044  16.313  14.556
48578W        W15361  38.521  26.213   0.229
48579W        W15362   8.957   4.778   0.931
48580W        W15363  18.217  17.587   9.722
48581W        W15364  17.159  22.394  13.044
48582W        W15365  31.090  31.081   1.914
48583W        W15366   1.298  22.045   0.256
48584W        W15367  10.262  31.590  10.208
48585W        W15368  25.666   1.415   1.961
48586W        W15369  18.381  16.636  11.059
48587W        W15370  19.871  41.002  14.808
48588W        W15371  38.809  42.243  12.071
48589W        W15372  24.176  41.654  13.717
48590W        W15373  36.365   7.112  14.935
48591W        W15374  10.334  19.775   3.110
48592W        W15375  24.677   9.870   3.666
48593W        W15376  27.359  44.940  13.110
48594W        W15377  37.127  29.626   4.085
48595W        W15378  10.319  26.652  10.304
48596W        W15379  38.868  37.806  13.800
48597W        W15380  39.245   9.321   4.328
48598W        W15381  15.244  12.533  11.254
48599W        W15382   2.877  21.586   3.377
48600W        W15383  30.549   0.944  13.662
48601W        W15384  23.749  13.638  11.671
48602W        W15385  21.577  41.728  13.078
48603W        W15386   0.050  41.956   3.769
48604W        W15387   8.224   3.805   3.240
48605W        W15388  43.166  29.474   5.087
48606W        W15389  39.787   7.890  14.828
48607W        W15390  29.844  40.200   1.014
48608W        W15391  21.205  37.317  14.238
48609W        W15392  30.978   1.881   2.634
48610W        W15393  31.419   9.703   1.683
48611W        W15394   5.687  38.947   0.945
48612W        W15395   4.391  31.086   0.291
48613W        W15396  16.170  24.166  11.946
48614W        W15397  17.198  40.161   2.873
48615W        W15398   4.493  38.374  14.386
48616W        W15399  38.797  24.956  12.116
48617W        W15400  25.145  35.008  12.066
48618W        W15401   9.484  26.896  13.375
48619W        W15402   2.707  33.544  10.497
48620W        W15403  40.796  11.857  14.560
48621W        W15404  39.767  29.468   2.968
48622W        W15405   0.879  35.997  12.440
48623W        W15406  33.853  12.769   2.591
48624W        W15407   2.760  14.263   4.140
48625W        W15408  33.299   9.280  14.506
48626W        W15409  41.599  28.654  12.051
48627W        W15410  44.422  17.796  10.034
48628W        W15411  29.934  33.494  10.918
48629W        W15412   7.968  18.114   4.609
48630W        W15413  22.093  37.165  11.429
48631W        W15414  43.893  19.599   4.027
48632W        W15415   1.915   5.362   2.752
48633W        W15416  44.184   6.212   3.712
48634W        W15417  40.018  38.804   1.344
48635W        W15418  34.995  40.520  14.781
48636W        W15419  23.133  39.560  14.072
48637W        W15420   6.513  15.404  11.595
48638W        W15421  20.591  30.666   4.132
48639W        W15422  26.048   6.410  13.884
48640W        W15423  17.832  11.777   0.239
48641W        W15424  31.806   7.836  11.026
48642W        W15425   2.161   6.300  11.129
48643W        W15426  16.873  15.504   3.242
48644W        W15427  31.596  20.264  14.295
48645W        W15428  31.131  18.175   2.725
48646W        W15429  22.178  20.140   1.284
48647W        W15430  35.368  11.239   2.298
48648W        W15431  27.063  27.605  11.388
48649W        W15432   8.897  11.877   3.679
48650W        W15433  33.600  24.644   1.114
48651W        W15434  26.596  20.525   1.902
48652W        W15435  25.740  16.467   3.219
48653W        W15436  43.525  10.869   3.799
48654W        W15437  29.954  31.658  10.748
48655W        W15438   9.101  19.951   0.288
48656W        W15439   4.877  13.413  12.942
48657W        W15440  26.113  30.706   3.338
48658W        W15441   5.250  38.465  10.599
48659W        W15442  19.248  33.454  11.640
48660W        W15443  32.927  13.152  13.002
48661W        W15444   1.025  17.942  11.961
48662W        W15445  32.531  40.039  11.113
48663W        W15446  28.328  44.318  11.502
48664W        W15447  38.973   8.740  12.340
48665W        W15448   6.263  44.398  10.550
48666W        W15449  11.071   2.371   1.220
48667W        W15450  36.526  29.855  13.386
48668W        W15451  22.010  17.099  11.131
48669W        W15452  36.935  28.929   3.393
48670W        W15453  16.261  22.471  10.437
48671W        W15454  22.634  16.004  10.062
48672W        W15455   6.201  13.909  12.493
48673W        W15456  40.382  13.150  13.529
48674W        W15457  36.300  29.042  14.750
48675W        W15458  21.940  35.915  12.826
48676W        W15459  14.731  29.220  14.949
48677W        W15460  21.423  34.172   2.330
48678W        W15461  21.447  28.499  13.885
48679W        W15462  41.020  36.551  11.619
48680W        W15463  26.421  41.384   2.671
48681W        W15464   0.809  43.992  12.647
48682W        W15465   9.937  33.395  12.010
48683W        W15466  34.398  42.825  14.983
48684W        W15467  37.447  34.798   0.733
48685W        W15468  29.081   3.728  10.817
48686W        W15469  21.670   8.297  14.814
48687W        W15470  28.024  22.389   4.853
48688W        W15471  43.236  15.351  12.090
48689W        W15472   4.036  16.276   3.500
48690W        W15473  18.504  14.665   2.830
48691W        W15474   5.771  17.617  12.140
48692W        W15475  37.590  39.393  14.489
48693W        W15476  32.390  35.591   4.669
48694W        W15477  44.172  24.740  12.562
48695W        W15478  38.992  41.773   4.181
48696W        W15479  16.628  28.413  11.642
48697W        W15480  44.008  23.564   3.256
48698W        W15481   0.739  27.237   1.298
48699W        W15482  33.510  10.552   2.268
48700W        W15483   7.884  12.830  12.005
48701W        W15484   8.721  28.098  13.401
48702W        W15485  39.996   3.774   3.633
48703W        W15486  32.184  26.120  14.897
48704W        W15487   4.240  41.535   3.287
48705W        W15488  36.621  39.728  12.652
48706W        W15489   6.841   4.992   4.365
48707W        W15490  25.588   6.595  12.527
48708W        W15491   2.938  29.904   2.373
48709W        W15492   5.768  33.447   4.345
48710W        W15493  38.052   0.772   0.237
48711W        W15494  30.854  18.049  13.932
48712W        W15495   9.687   9.418  10.608
48713W        W15496  27.435  40.787  11.171
48714W        W15497  20.645  30.336  12.254
48715W        W15498  32.043   4.496  11.918
48716W        W15499  24.778  37.974   3.797
48717W        W15500  13.761   7.860  11.984
48718W        W15501  28.583  25.952   0.650
48719W        W15502   9.155  20.551   4.699
48720W        W15503  34.106  17.887   0.493
48721W        W15504  38.418  36.006   0.265
48722W        W15505   4.312   7.780  14.684
48723W        W15506  39.916  28.274   0.482
48724W        W15507  44.199  16.545  13.074
48725W        W15508  38.477  32.070   2.792
48726W        W15509   2.241  14.609   2.872
48727W        W15510   6.480  42.932  11.150
48728W        W15511   0.933   7.898  12.663
48729W        W15512   0.191  44.735  14.824
48730W        W15513  27.628   2.400  14.757
48731W        W15514   0.703   6.601   3.793
48732W        W15515  34.575  11.709   2.302
48733W        W15516  43.363  40.914  10.727
48734W        W15517  42.349   4.541   1.164
48735W        W15518  13.135   0.545  11.113
48736W        W15519  38.606   3.377  11.571
48737W        W15520  39.100  19.310   3.226
48738W        W15521  42.044  36.033  14.272
48739W        W15522  43.447   8.746   0.190
48740W        W15523  44.301  27.607  12.082
48741W        W15524  24.040   6.748  10.918
48742W        W15525  38.087  10.403  12.093
48743W        W15526  26.568  39.251  12.008
48744W        W15527   6.321  36.346   4.106
48745W        W15528  23.152  39.017   4.153
48746W        W15529  33.987  22.920  12.467
48747W        W15530   7.701  29.800  13.558
48748W        W15531  24.110  39.315   2.789
48749W        W15532  34.934  37.520   2.358
48750W        W15533  32.611  22.916  10.725
48751W        W15534   7.152  17.684  12.419
48752W        W15535  22.634  11.148  14.968
48753W        W15536  38.947  34.551   2.290
48754W        W15537  12.172   4.362   3.687
48755W        W15538  35.904  38.102  12.170
48756W        W15539   3.212  22.070  12.966
48757W        W15540  36.080  31.370   3.202
48758W        W15541   0.889  29.915  14.258
48759W        W15542  35.341   5.346   2.645
48760W        W15543  23.588  25.107  12.644
48761W        W15544  16.178  26.027  14.758
48762W        W15545   8.206   2.418   3.436
48763W        W15546  18.689   2.070   1.586
48764W        W15547  25.028  25.438   0.408
48765W        W15548  13.419  29.888   4.139
48766W        W15549  41.019  36.595  12.407
48767W        W15550  43.810  21.536  10.372
48768W        W15551  13.518  17.500  13.044
48769W        W15552  22.075  18.349   1.996
48770W        W15553  40.079  32.048  11.613
48771W        W15554  14.247  10.562  10.525
48772W        W15555  13.916  44.526   2.736
48773W        W15556  41.543  41.956   3.273
48774W        W15557  25.016   9.666  14.927
48775W        W15558  19.651   4.648  10.848
48776W        W15559   6.152  10.753  12.560
48777W        W15560   0.786  35.043   1.749
48778W        W15561  24.643  10.861  14.409
48779W        W15562  40.963  25.187   4.662
48780W        W15563  11.177  32.391   4.070
48781W        W15564   9.815  31.942   0.848
48782W        W15565   9.764   8.754   1.198
48783W        W15566  38.844  36.085   2.379
48784W        W15567  39.800  39.076  14.392
48785W        W15568   1.299   2.731  11.028
48786W        W15569  38.441  12.243  13.861
48787W        W15570  34.477  37.529   0.997
48788W        W15571  19.063  13.202   4.597
48789W        W15572  35.882  14.859   1.841
48790W        W15573   8.753  29.157  12.978
48791W        W15574  33.705  37.622   1.049
48792W        W15575   7.114  32.477  14.902
48793W        W15576  34.305  15.338   1.362
48794W        W15577  24.728  40.736   0.413
48795W        W15578  31.890   5.155   2.949
48796W        W15579  16.025  24.209  14.865
48797W        W15580  21.778  12.332  13.070
48798W        W15581  34.924  13.172   9.955
48799W        W15582  36.130  16.302   2.010
48800W        W15583  16.710  38.739   2.852
48801W        W15584  38.720  40.123  12.274
48802W        W15585  16.525  24.198  14.975
48803W        W15586   1.065  21.311   1.454
48804W        W15587  40.831  20.548   2.690
48805W        W15588  23.546  38.606  14.290
48806W        W15589   2.854  18.301  13.228
48807W        W15590  35.747  19.008  11.298
48808W        W15591  35.310  24.529   1.833
48809W        W15592  31.025   4.940  10.266
48810W        W15593   9.400  16.142  10.905
48811W        W15594  26.718   9.699   3.625
48812W        W15595  24.633   5.859  13.827
48813W        W15596  39.395  39.731   2.332
48814W        W15597   3.168  43.409  10.497
48815W        W15598  22.105  26.078   3.353
48816W        W15599  35.404  24.951  11.013
48817W        W15600  40.014  36.945  10.935
48818W        W15601  28.027  27.265  14.738
48819W        W15602  17.736  26.529  14.729
48820W        W15603   7.385  38.074  13.329
48821W        W15604  20.230  37.361   4.139
48822W        W15605  28.577  31.550   1.956
48823W        W15606  40.002   7.804   2.387
48824W        W15607  31.857  13.337   2.144
48825W        W15608  19.024  36.003   4.558
48826W        W15609   4.865  35.521  10.726
48827W        W15610  43.672  29.018  11.463
48828W        W15611   5.224   1.489  12.897
48829W        W15612  41.458  37.166   1.680
48830W        W15613   6.422  43.176  11.594
48831W        W15614  36.621  31.234  12.131
48832W        W15615  34.986  25.463   2.445
48833W        W15616   8.659  43.793  13.457
48834W        W15617  23.698  20.727  11.757
48835W        W15618  28.536  17.101  13.412
48836W        W15619  19.914  15.556  14.297
48837W        W15620  10.408  44.984   4.519
48838W        W15621   2.035  26.543  12.916
48839W        W15622  20.725  43.292   0.921
48840W        W15623  43.021  19.183   0.489
48841W        W15624  42.200   6.156  14.446
48842W        W15625   9.789  19.188   2.372
48843W        W15626  13.347  38.278  14.817
48844W        W15627   4.754  33.536  13.045
48845W        W15628  37.393  35.189   3.805
48846W        W15629  24.186  22.639   4.761
48847W        W15630  20.762  43.200   4.099
48848W        W15631  23.627  26.955   1.129
48849W        W15632  35.606  15.197  11.198
48850W        W15633  19.795  34.929   4.096
48851W        W15634  11.175  12.729  11.647
48852W        W15635   1.515  13.885   2.017
48853W        W15636  27.604  35.176  14.320
48854W        W15637   5.693  14.664  12.754
48855W        W15638  37.141  41.856   4.264
48856W        W15639   1.296   0.173   2.074
48857W        W15640  30.422   2.873  12.850
48858W        W15641  13.758  28.346  13.012
48859W        W15642  43.100  36.408   4.183
48860W        W15643  40.610  37.126   0.350
48861W        W15644  30.657   1.267  14.952
48862W        W15645  17.491  22.444  13.744
48863W        W15646  27.003   7.124  11.801
48864W        W15647  35.781  31.509  12.276
48865W        W15648   3.166  20.245  10.579
48866W        W15649  13.355   3.074   0.761
48867W        W15650  39.038  31.625  13.445
48868W        W15651  33.547  16.678   4.850
48869W        W15652  22.325   1.505   3.233
48870W        W15653  13.301  26.198   2.106
48871W        W15654  30.944  19.322   4.155
48872W        W15655  21.477  40.783  12.818
48873W        W15656   7.427  13.103  12.175
48874W        W15657   4.788   5.390  12.114
48875W        W15658  40.011  14.667   3.225
48876W        W15659  25.415  22.193   3.203
48877W        W15660   8.670  22.566  13.470
48878W        W15661  31.172  25.703   4.152
48879W        W15662  33.006  25.005  13.381
48880W        W15663  36.722   4.280  14.939
48881W        W15664  18.141   5.358   2.315
48882W        W15665  21.574  41.300   0.956
48883W        W15666  29.187   6.788  12.085
48884W        W15667  30.532  40.849  11.180
48885W        W15668  43.344  10.842   0.742
48886W        W15669  21.212  14.763   9.846
48887W        W15670  10.401  21.117   4.635
48888W        W15671  20.873  31.502   3.324
48889W        W15672  16.353   0.014   0.461
48890W        W15673   8.040   7.400  14.305
48891W        W15674  23.609  43.364  13.564
48892W        W15675   3.309  11.180  13.198
48893W        W15676  27.179  16.820   4.898
48894W        W15677   0.249   6.967   0.910
48895W        W15678  42.202  42.816   4.646
48896W        W15679  20.688  37.451  12.574
48897W        W15680  13.187   4.017   1.848
48898W        W15681  14.712  24.589   1.190
48899W        W15682  22.095  39.756  14.488
48900W        W15683  35.422  41.440   2.747
48901W        W15684  41.129  28.612  14.035
48902W        W15685  15.736  23.970  12.729
48903W        W15686  21.778  18.107   4.566
48904W        W15687  26.216   8.728  12.454
48905W        W15688  39.050  37.356  13.549
48906W        W15689  29.698  33.154  11.425
48907W        W15690  24.057   6.059  13.401
48908W        W15691  43.369   4.983   0.058
48909W        W15692   6.927  27.580  10.772
48910W        W15693  34.461   6.808  11.124
48911W        W15694   9.576  23.095   1.078
48912W        W15695   9.075   2.354   1.746
48913W        W15696  31.666  44.884   0.255
48914W        W15697  32.700  38.959  10.673
48915W        W15698  23.103  42.761   0.719
48916W        W15699  33.752  39.555  11.062
48917W        W15700  32.613  11.111  13.437
48918W        W15701  40.945  10.847  13.444
48919W        W15702  27.137  31.159   3.247
48920W        W15703  41.781  15.088   2.202
48921W        W15704  34.623  18.786  12.135
48922W        W15705  17.265  30.909   1.786
48923W        W15706  27.944   6.857   2.649
48924W        W15707  11.825  29.868  12.846
48925W        W15708  29.218  14.903  14.231
48926W        W15709  25.912  43.538  11.900
48927W        W15710  17.303  27.101  13.415
48928W        W15711  28.397   1.331  11.935
48929W        W15712  33.711  30.236  10.206
48930W        W15713   5.675  35.992  13.108
48931W        W15714  28.429  27.559  14.798
48932W        W15715  14.557  26.597   1.862
48933W        W15716   2.827   9.143  14.056
48934W        W15717  32.501  22.525  11.674
48935W        W15718  31.948  32.879  10.479
48936W        W15719  15.561  34.634   3.875
48937W        W15720  16.651  37.504   2.379
48938W        W15721   7.563   0.393  12.504
48939W        W15722  29.990   4.903   3.656
48940W        W15723  18.015   9.451   1.936
48941W        W15724  33.971  15.291  13.550
48942W        W15725  13.790  23.017  10.666
48943W        W15726  42.553   3.178   3.212
48944W        W15727  31.687  18.148  14.321
48945W        W15728   4.220  36.948  12.070
48946W        W15729   7.865  23.156  12.139
48947W        W15730  10.322  42.373  13.820
48948W        W15731  17.631  12.929   2.756
48949W        W15732  30.868  44.205   3.004
48950W        W15733  31.504   0.311   0.711
48951W        W15734   0.790  28.618  10.986
48952W        W15735  34.022   1.723  12.657
48953W        W15736  29.405  13.691  11.262
48954W        W15737  38.500   6.287  10.425
48955W        W15738   6.827   4.223  14.462
48956W        W15739  42.984   8.146   1.726
48957W        W15740  33.934  13.586   4.062
48958W        W15741  13.702  18.207   1.615
48959W        W15742  16.130  12.593  11.580
48960W        W15743  16.031  16.973  11.482
48961W        W15744   9.085  28.922  13.455
48962W        W15745  24.561  43.509   3.756
48963W        W15746  36.087  39.104  11.925
48964W        W15747  36.897  31.207   4.847
48965W        W15748  10.360  16.257  13.138
48966W        W15749   4.685  14.249   2.364
48967W        W15750  19.019   5.004   2.691
48968W        W15751   2.846  42.774   0.897
48969W        W15752  22.191  24.648  12.342
48970W        W15753   6.824  35.115   5.245
48971W        W15754  12.399  35.175  11.091
48972W        W15755  20.795  32.079  13.499
48973W        W15756  34.343  43.264   0.963
48974W        W15757   5.196   3.753   2.254
48975W        W15758  13.475  12.046   2.035
48976W        W15759  43.214  12.826  14.778
48977W        W15760  24.109  37.886  14.598
48978W        W15761  37.630  18.992   4.136
48979W        W15762  21.580  33.293  11.553
48980W        W15763   8.682  26.534  14.777
48981W        W15764  27.813   3.707  11.955
48982W        W15765   3.716  33.017  13.891
48983W        W15766  12.115  22.871  12.730
48984W        W15767   5.536  23.731  12.171
48985W        W15768  35.971  10.632   2.644
48986W        W15769  18.969   3.413   0.555
48987W        W15770  30.726  42.443  11.442
48988W        W15771  26.224   2.985  10.628
48989W        W15772   6.653  11.222   1.460
48990W        W15773  18.824  18.164   0.227
48991W        W15774  39.266  42.537  13.927
48992W        W15775  14.589  33.558   3.108
48993W        W15776  29.491   7.568   1.368
48994W        W15777  18.998  27.038  11.989
48995W        W15778  30.012  18.606  12.470
48996W        W15779  34.021   5.218   2.389
48997W        W15780  17.796  22.049  10.699
48998W        W15781  10.674  13.592  13.499
48999W        W15782  30.180  26.958  10.794
49000W        W15783  19.214  18.765   0.401
49001W        W15784   7.742  27.682  14.309
49002W        W15785  26.512  17.737  13.564
49003W        W15786  40.178  15.764   4.592
49004W        W15787   6.313  15.531  11.137
49005W        W15788   2.507   2.416  11.071
49006W        W15789  36.822  12.415  12.157
49007W        W15790  34.029  10.363   2.327
49008W        W15791   7.344  41.729  12.415
49009W        W15792   9.189  30.500   3.208
49010W        W15793  24.123  40.926  11.571
49011W        W15794  37.648   4.327   4.816
49012W        W15795  36.204  25.442  14.457
49013W        W15796  12.680  12.566  10.720
49014W        W15797  38.044  40.956   4.914
49015W        W15798  10.005  42.470  12.554
49016W        W15799  11.244   3.576   5.190
49017W        W15800   1.460  32.039  10.730
49018W        W15801  24.665  40.081  14.757
49019W        W15802  36.068  18.667  11.475
49020W        W15803  10.839  28.577   3.155
49021W        W15804  18.310  22.893  12.915
49022W        W15805  41.730  20.461   2.672
49023W        W15806   4.632  29.552   3.682
49024W        W15807   5.629  35.645   0.179
49025W        W15808  25.674  37.123  14.239
49026W        W15809  18.729  10.673   4.808
49027W        W15810  17.649  37.624  12.072
49028W        W15811  17.856  21.656   2.283
49029W        W15812  20.646  17.768  14.567
49030W        W15813   7.375   7.393  11.985
49031W        W15814  24.591  12.239  12.055
49032W        W15815   7.165  36.093   4.205
49033W        W15816  38.144  44.825  10.598
49034W        W15817   9.184  44.832   3.739
49035W        W15818  37.738  12.605   4.403
49036W        W15819  32.722   8.680  14.782
49037W        W15820  14.093   2.680  13.892
49038W        W15821  23.777  23.196  10.294
49039W        W15822   9.354  27.938   2.383
49040W        W15823   8.169  21.186  12.015
49041W        W15824  17.488   1.441  11.214
49042W        W15825  23.256  30.924  14.872
49043W        W15826   0.731  41.126  10.911
49044W        W15827  42.945  35.148  13.018
49045W        W15828  34.189  26.660  12.265
49046W        W15829   7.672   0.896  14.972
49047W        W15830  26.403  29.017  13.465
49048W        W15831  25.135   2.575   3.968
49049W        W15832  18.501  10.393   4.402
49050W        W15833   9.992  28.570  14.367
49051W        W15834  13.576  17.327   1.194
49052W        W15835  38.983   7.388  12.639
49053W        W15836  42.243  25.287   0.379
49054W        W15837   8.645  20.323  11.663
49055W        W15838  23.083   5.427  11.721
49056W        W15839  27.929  29.766   3.082
49057W        W15840   5.903  23.678   2.429
49058W        W15841  33.927   7.973   3.523
49059W        W15842  15.452  23.986  10.375
49060W        W15843  12.731   0.684   0.080
49061W        W15844  10.663  25.080  14.090
49062W        W15845   4.689  30.929  12.874
49063W        W15846  21.385   6.757   3.681
49064W        W15847  11.275  17.149  14.083
49065W        W15848   8.321  28.789  13.834
49066W        W15849  37.548  36.594  12.542
49067W        W15850  27.456   6.213  14.526
49068W        W15851  36.827  32.053   2.868
49069W        W15852  31.074  15.629   1.854
49070W        W15853  22.553   2.205  12.191
49071W        W15854  28.528  26.024  14.151
49072W        W15855  18.041  23.984  10.855
49073W        W15856  22.676  15.269   3.225
49074W        W15857  42.828  28.872   3.527
49075W        W15858  29.837  36.603  11.105
49076W        W15859  36.065  37.394  13.431
49077W        W15860  35.861  40.805   2.220
49078W        W15861   0.796   9.816   4.252
49079W        W15862   2.745   2.030   1.769
49080W        W15863  29.841  15.773  13.708
49081W        W15864  12.246  21.423   1.812
49082W        W15865  27.633  42.384  11.941
49083W        W15866  29.981   7.181  13.435
49084W        W15867   0.798   7.769   4.902
49085W        W15868  26.942   4.690  13.414
49086W        W15869  24.166  33.872   1.846
49087W        W15870  26.458  23.087  13.571
49088W        W15871  11.452  20.827   0.929
49089W        W15872  21.026  36.405   1.407
49090W        W15873   4.888  35.904  13.942
49091W        W15874  16.279   2.507  14.357
49092W        W15875  39.785  11.810  10.888
49093W        W15876  33.642  11.005  12.929
49094W        W15877  17.029  19.994  12.881
49095W        W15878  43.509  14.173  14.493
49096W        W15879   9.156   3.194   3.776
49097W        W15880   1.520  25.551   4.591
49098W        W15881  43.496  32.416  13.918
49099W        W15882  30.264   8.742   2.838
49100W        W15883   5.703  29.615  12.442
49101W        W15884  31.180   3.817  12.941
49102W        W15885  42.009  38.681   3.527
49103W        W15886  20.224  34.549  11.654
49104W        W15887  37.524   6.352  14.895
49105W        W15888  10.355  22.749   1.693
49106W        W15889  23.777  22.728   1.713
49107W        W15890  20.053  10.548   0.448
49108W        W15891  30.051  43.442  10.727
49109W        W15892  30.012   8.607  14.754
49110W        W15893  34.291   3.960  13.528
49111W        W15894  28.065  15.876   4.466
49112W        W15895   0.348  17.107  13.809
49113W        W15896   2.986  44.807  14.899
49114W        W15897  13.748  24.118   0.428
49115W        W15898   6.277  20.047  12.626
49116W        W15899  15.612   7.321  13.775
49117W        W15900  29.464   0.335  13.376
49118W        W15901  42.943  20.029  13.790
49119W        W15902  36.823  44.833   2.218
49120W        W15903  13.548  43.401  14.383
49121W        W15904  22.422  18.299  11.165
49122W        W15905  38.066   9.729   0.857
49123W        W15906   3.895  12.909  12.060
49124W        W15907  41.500  31.000   3.358
49125W        W15908  12.948  42.773  10.822
49126W        W15909   6.731   6.339   4.354
49127W        W15910  38.512  39.748  10.791
49128W        W15911   1.022   0.915  11.597
49129W        W15912   0.346  19.490   2.347
49130W        W15913  38.386  38.499  10.206
49131W        W15914  31.239  10.086   2.256
49132W        W15915  37.635  35.449   0.176
49133W        W15916   4.240   4.261   2.454
49134W        W15917  21.729  11.646   0.995
49135W        W15918   1.508   9.282  14.073
49136W        W15919   2.704   4.665  13.527
49137W        W15920  40.287   7.403  11.416
49138W        W15921  14.041   6.698   2.408
49139W        W15922  32.112  35.671  14.957
49140W        W15923  37.250  29.976  11.555
49141W        W15924  43.660  18.567   4.520
49142W        W15925  43.803  24.721  14.419
49143W        W15926  13.644  28.746   4.834
49144W        W15927  44.294  29.222   4.267
49145W        W15928  17.694   1.382   2.084
49146W        W15929   6.675   9.405  14.035
49147W        W15930  33.463  38.543   4.299
49148W        W15931  41.009  26.882   1.396
49149W        W15932  35.963  33.554   0.705
49150W        W15933   2.387   0.030   0.746
49151W        W15934  38.244  22.769  14.348
49152W        W15935   6.336  17.774   3.923
49153W        W15936  31.468  21.315   0.687
49154W        W15937  21.208  44.324  13.823
49155W        W15938  44.342  21.055   2.203
49156W        W15939  20.520  38.435  11.892
49157W        W15940  34.541  40.876  12.359
49158W        W15941  41.114  32.045  13.502
49159W        W15942  34.412  41.551   4.867
49160W        W15943  37.036  43.024  13.378
49161W        W15944  12.827   1.241  11.595
49162W        W15945  28.655  31.080   1.688
49163W        W15946  25.030  17.035   4.373
49164W        W15947  29.707  15.019  11.949
49165W        W15948  28.124  11.597  12.889
49166W        W15949  21.944  35.430   1.721
49167W        W15950  10.619  31.501   2.699
49168W        W15951  29.106  36.765  12.760
49169W        W15952  40.889  18.758  14.677
49170W        W15953   4.925  15.514  12.186
49171W        W15954   8.183  14.475   4.233
49172W        W15955   9.770  44.353  11.874
49173W        W15956   2.394  20.899   4.145
49174W        W15957  42.415  23.582   4.681
49175W        W15958  11.149  26.164   3.705
49176W        W15959  39.852  43.930   2.565
49177W        W15960  15.569  27.433  13.604
49178W        W15961   9.910  21.643  11.593
49179W        W15962  10.158  22.863  13.347
49180W        W15963  22.965  39.900  11.173
49181W        W15964  44.682   5.484   3.735
49182W        W15965  38.049  38.416   4.933
49183W        W15966  11.881  12.133  13.945
49184W        W15967  34.876  30.983  10.695
49185W        W15968  28.630  27.052  14.971
49186W        W15969  13.798  16.800   1.790
49187W        W15970  42.290   9.696   4.293
49188W        W15971  14.761   8.162  12.321
49189W        W15972   4.251  35.415   4.645
49190W        W15973   9.675  41.442   2.953
49191W        W15974   9.304   2.271  14.222
49192W        W15975  10.572  36.807  12.574
49193W        W15976   4.815   5.202   2.570
49194W        W15977  35.580  26.503  11.993
49195W        W15978  26.283  41.222   5.008
49196W        W15979  26.908  25.079   1.671
49197W        W15980  10.126  20.649  10.531
49198W        W15981  17.116  23.661  13.616
49199W        W15982  35.840  14.296  14.048
49200W        W15983   9.890  29.529   2.229
49201W        W15984   6.358  43.494  10.583
49202W        W15985  42.998   7.895   2.796
49203W        W15986  34.160  40.671   1.007
49204W        W15987   1.724  42.049   0.460
49205W        W15988   6.836  12.920   4.577
49206W        W15989  35.566  18.481  11.392
49207W        W15990  37.194   6.344  11.655
49208W        W15991  15.101  40.816   1.362
49209W        W15992  27.720  11.286  10.250
49210W        W15993  16.088  23.439  11.621
49211W        W15994  41.803  13.259   0.376
49212W        W15995  12.241  40.058   4.850
49213W        W15996   2.670  27.272  11.849
49214W        W15997  20.852  43.778   1.863
49215W        W15998  22.120  35.704   1.326
49216W        W15999  38.939  16.746   4.176
49217W        W16000  34.877  44.932   2.793
49218W        W16001   6.553  26.712   1.125
49219W        W16002  39.487  37.284   1.665
49220W        W16003   9.153  27.130  11.529
49221W        W16004  44.522  23.983  14.311
49222W        W16005   7.898  20.041   0.696
49223W        W16006  42.120  14.610   1.360
49224W        W16007  32.074  15.025   3.604
49225W        W16008  26.057  32.081  12.659
49226W        W16009  15.573  41.064   1.399
49227W        W16010  19.677  33.664  12.363
49228W        W16011  26.250  26.239  12.430
49229W        W16012  38.962  36.780  14.453
49230W        W16013   1.994  41.027  11.549
49231W        W16014  31.018  37.824  13.637
49232W        W16015  29.080  27.512   3.036
49233W        W16016  15.546  30.619  13.422
49234W        W16017  34.590  20.017  14.910
49235W        W16018   2.410   2.860   1.724
49236W        W16019  35.942  12.989   2.188
49237W        W16020  27.085  31.922  10.577
49238W        W16021  14.080  35.026   3.062
49239W        W16022   9.640  14.411   0.298
49240W        W16023  10.355  22.584  13.911
49241W        W16024  18.723  36.039  13.006
49242W        W16025  15.141  30.718  10.717
49243W        W16026  28.783  40.367  13.506
49244W        W16027  26.171  35.391  12.450
49245W        W16028   3.516  39.869   2.025
49246W        W16029  20.621  12.100   3.722
49247W        W16030  44.358  43.593   3.659
49248W        W16031  21.146  34.506   1.870
49249W        W16032  38.008   7.040   1.600
49250W        W16033   0.677  14.850  13.692
49251W        W16034  33.003   2.958   2.436
49252W        W16035  27.154  41.970   4.707
49253W        W16036  28.226  17.646   2.428
49254W        W16037  15.627  26.225   1.319
49255W        W16038   5.909  38.475   1.159
49256W        W16039  14.087  13.867   1.291
49257W        W16040  24.010   2.341  13.965
49258W        W16041  39.512  32.804   2.347
49259W        W16042  44.123  27.704   3.304
49260W        W16043  16.105  32.446  13.938
49261W        W16044  10.232  36.900   0.359
49262W        W16045  22.567  11.825   3.577
49263W        W16046  39.819  22.049   1.759
49264W        W16047  43.327   5.893  10.558
49265W        W16048  39.001   7.125   3.308
49266W        W16049  10.932  44.051  14.397
49267W        W16050  37.837   6.921  11.114
49268W        W16051  36.081  13.222   2.619
49269W        W16052  25.049  18.508   3.722
49270W        W16053  25.146  36.969  10.688
49271W        W16054  32.173  37.847  12.956
49272W        W16055  31.831   8.460   3.568
49273W        W16056  12.753  16.648  12.961
49274W        W16057  14.507  15.816  11.116
49275W        W16058   0.854  20.527   4.180
49276W        W16059  19.461  22.658  13.357
49277W        W16060  42.632  11.641  10.260
49278W        W16061  35.902  12.984  11.055
49279W        W16062  29.656  31.445  14.346
49280W        W16063  29.009  12.590   3.687
49281W        W16064  16.763   1.313   4.420
49282W        W16065   1.302  15.325  10.527
49283W        W16066  23.930  41.993   0.400
49284W        W16067  33.380   1.485  12.933
49285W        W16068  35.994  39.670   3.246
49286W        W16069  35.814  19.267   3.666
49287W        W16070  36.111  18.895   3.459
49288W        W16071  11.356  35.578   9.774
49289W        W16072  39.646  16.525   2.857
49290W        W16073  24.257  30.077   1.419
49291W        W16074  30.061  25.595  10.752
49292W        W16075   7.561   2.358  13.142
49293W        W16076   3.271   5.865  12.453
49294W        W16077  14.822  25.295  11.993
49295W        W16078  34.736  32.095   4.118
49296W        W16079  43.336  33.485   2.912
49297W        W16080  30.621  35.528  13.031
49298W        W16081   3.296  38.358   3.746
49299W        W16082   7.705  26.485   3.389
49300W        W16083  11.338  18.442   2.390
49301W        W16084   6.914  38.889  10.476
49302W        W16085   0.900  34.524   0.951
49303W        W16086  43.673  42.312   0.293
49304W        W16087   9.887  28.116   3.124
49305W        W16088  23.230  14.302  11.629
49306W        W16089  36.399  26.746  12.533
49307W        W16090  39.105   7.192  13.095
49308W        W16091  11.419  43.839   1.833
49309W        W16092  28.933  12.604   4.537
49310W        W16093  29.547  24.710  13.878
49311W        W16094  41.895   5.653  13.473
49312W        W16095  30.425  16.681   4.609
49313W        W16096  21.345  27.101   5.152
49314W        W16097   3.255  29.045  13.877
49315W        W16098  19.526  40.955   3.638
49316W        W16099   8.349  11.778   3.024
49317W        W16100   9.092   5.731   3.605
49318W        W16101  10.734  13.457   0.481
49319W        W16102  25.295   0.688   3.664
49320W        W16103  41.405   0.850  13.932
49321W        W16104  14.285  30.361  12.479
49322W        W16105  16.069  14.026  11.531
49323W        W16106  32.657  42.330   1.718
49324W        W16107  25.692   3.272  14.652
49325W        W16108   4.216  19.238  14.771
49326W        W16109  43.493   1.684   0.535
49327W        W16110  36.811  24.731   3.673
49328W        W16111  14.245  38.419  11.510
49329W        W16112  13.995  34.641  12.441
49330W        W16113  36.622  29.431   4.130
49331W        W16114   6.926  35.091   3.359
49332W        W16115  25.828  21.322   3.649
49333W        W16116  10.088  13.135   3.662
49334W        W16117  13.067   8.615   4.563
49335W        W16118   9.059   0.298   0.321
49336W        W16119  41.518   8.907  12.137
49337W        W16120  33.307  39.245  14.790
49338W        W16121  27.554  35.674  12.063
49339W        W16122  14.163  30.805   5.061
49340W        W16123   8.438  10.706   4.082
49341W        W16124   5.752  35.084   0.887
49342W        W16125   6.721  29.648  11.049
49343W        W16126   4.003  31.015  14.020
49344W        W16127   7.721   6.960  11.670
49345W        W16128  44.801  16.722   1.559
49346W        W16129  21.814  37.794  11.094
49347W        W16130  17.448  35.040   1.692
49348W        W16131  25.093  41.901   3.626
49349W        W16132  33.633  23.525   2.726
49350W        W16133   2.184  21.726  11.555
49351W        W16134  11.074   5.798  10.672
49352W        W16135  40.568  29.574   3.278
49353W        W16136  30.445  40.362   0.320
49354W        W16137   2.283  25.098  10.719
49355W        W16138  22.763  40.693  12.259
49356W        W16139  36.608  36.610   3.452
49357W        W16140  41.565  29.631  14.928
49358W        W16141  25.011  22.411  13.450
49359W        W16142  41.454   5.307  11.667
49360W        W16143   7.682  26.062   2.589
49361W        W16144   1.007  21.919   3.701
49362W        W16145  44.295  42.900   1.914
49363W        W16146  17.178   0.947   0.335
49364W        W16147   2.938   5.924   2.454
49365W        W16148   5.925   0.798  13.342
49366W        W16149  39.003  32.225   1.618
49367W        W16150  44.758  28.665   2.711
49368W        W16151   3.204  39.535   0.282
49369W        W16152  24.897  33.881   0.730
49370W        W16153  35.441  15.406  12.674
49371W        W16154  26.484   2.745  14.402
49372W        W16155  10.622  13.955   0.393
49373W        W16156  11.254   5.744   5.417
49374W        W16157  34.634   5.016   3.148
49375W        W16158   5.440   4.830  13.550
49376W        W16159   2.298  16.904  12.942
49377W        W16160  35.108  27.085   0.949
49378W        W16161  21.842  21.629   0.150
49379W        W16162   8.211   1.303  13.442
49380W        W16163  30.062   0.305  14.900
49381W        W16164  29.948  43.387  14.406
49382W        W16165   8.216  44.618  13.997
49383W        W16166  37.330  33.563  11.549
49384W        W16167  37.075  42.684  12.837
49385W        W16168  14.614  15.099   2.222
49386W        W16169  17.280  34.506   0.774
49387W        W16170  42.262  34.606  14.287
49388W        W16171  37.067  29.520  13.018
49389W        W16172  19.811  29.846  13.253
49390W        W16173  42.610  41.504  14.780
49391W        W16174  24.529  11.672  10.291
49392W        W16175  32.169   9.151   4.944
49393W        W16176   9.370  39.352  11.157
49394W        W16177  17.761  14.075   1.574
49395W        W16178   5.977  28.579   3.299
49396W        W16179  27.220  39.552   2.897
49397W        W16180  31.383  35.352   0.388
49398W        W16181  26.641  34.870   2.658
49399W        W16182  22.648  10.297  12.910
49400W        W16183   1.026  31.166   2.659
49401W        W16184  16.632  34.520  14.552
49402W        W16185  36.872  26.460   2.874
49403W        W16186  28.402  39.204  10.669
49404W        W16187  18.848  35.464   3.711
49405W        W16188  32.218   4.242  12.656
49406W        W16189  39.847  43.530  12.580
49407W        W16190  39.544  28.256  10.734
49408W        W16191  24.249  17.831   3.208
49409W        W16192  12.271  22.204   4.116
49410W        W16193  17.670  40.416  11.752
49411W        W16194  16.160  24.024  14.397
49412W        W16195   1.020  10.072   0.011
49413W        W16196  12.763  21.557   3.925
49414W        W16197  14.145  37.034  11.981
49415W        W16198  40.831  27.393   1.373
49416W        W16199  17.317  22.972   4.303
49417W        W16200  41.176  28.449   3.605
49418W        W16201  43.533  43.950  14.775
49419W        W16202  37.069   0.156   1.848
49420W        W16203  40.471  23.739  11.523
49421W        W16204   3.807  42.544   3.651
49422W        W16205  35.601  14.201  11.065
49423W        W16206  42.488  12.967  10.742
49424W        W16207  28.050  16.280   3.118
49425W        W16208  41.370  27.184  11.941
49426W        W16209  43.399  10.138  10.609
49427W        W16210  31.974  23.460  11.134
49428W        W16211   5.228  30.505  13.346
49429W        W16212   7.658  29.818  14.409
49430W        W16213   2.013  27.600  11.565
49431W        W16214   6.049  21.206  13.571
49432W        W16215  24.719  39.339  11.075
49433W        W16216  22.558  12.741   3.720
49434W        W16217   2.186   5.015  12.832
49435W        W16218  41.431  27.267  13.093
49436W        W16219  17.199  35.260   3.303
49437W        W16220   3.652  21.410   0.454
49438W        W16221  37.971  26.948   1.258
49439W        W16222  24.206  24.152  12.136
49440W        W16223  21.099  37.330   3.761
49441W        W16224  19.943  18.542  10.804
49442W        W16225   7.902  20.517   0.919
49443W        W16226  13.993  39.234   5.252
49444W        W16227  39.389  15.592   1.812
49445W        W16228  41.879  19.046   3.186
49446W        W16229  38.457   3.783   1.148
49447W        W16230  37.027  22.806  14.971
49448W        W16231  11.809  18.812   3.138
49449W        W16232  28.614   2.374   3.211
49450W        W16233  41.423  32.272   3.657
49451W        W16234  19.791  10.536  12.882
49452W        W16235  12.872   3.926   4.539
49453W        W16236   3.969  19.759   4.711
49454W        W16237   3.515  35.376  12.971
49455W        W16238  32.554  30.959   4.683
49456W        W16239   0.844   0.355  14.670
49457W        W16240  41.348  44.057  14.735
49458W        W16241   0.573  43.260   2.068
49459W        W16242  23.459  35.926   2.622
49460W        W16243  17.520  39.512  13.056
49461W        W16244  14.793  10.787   4.216
49462W        W16245   6.162  40.493   2.732
49463W        W16246  39.553  21.676  10.650
49464W        W16247  20.722   0.246   4.161
49465W        W16248  34.403   2.983   0.288
49466W        W16249  15.846  34.886  12.508
49467W        W16250  37.342   9.248  13.395
49468W        W16251  22.919   1.235  14.961
49469W        W16252  19.589   8.851  10.495
49470W        W16253  14.366  16.203   1.043
49471W        W16254  32.575  23.538   3.533
49472W        W16255   3.262  20.071   0.434
49473W        W16256   2.528  40.530   2.305
49474W        W16257  34.910  34.925  12.554
49475W        W16258  42.830   7.839  11.621
49476W        W16259  37.891  21.017   0.910
49477W        W16260  37.571  15.312  13.812
49478W        W16261  41.213  40.953  12.803
49479W        W16262  19.981  10.030   3.361
49480W        W16263   0.237   3.662  13.621
49481W        W16264  19.334  40.314   0.289
49482W        W16265   8.437  44.299  13.615
49483W        W16266  44.413  21.322   3.656
49484W        W16267  19.986  44.547  11.899
49485W        W16268  24.466  16.397  11.937
49486W        W16269   9.874  32.097  11.566
49487W        W16270  32.107  28.719   3.640
49488W        W16271  30.060  29.319  14.028
49489W        W16272  41.674  21.540  11.940
49490W        W16273  31.154  14.173  13.160
49491W        W16274   3.976   9.907   0.973
49492W        W16275  21.740  41.219   2.260
49493W        W16276  33.051  12.585  11.077
49494W        W16277  21.958   9.374   3.175
49495W        W16278  28.176   2.455  10.877
49496W        W16279   3.805  43.393   3.248
49497W        W16280   9.243  39.215   0.040
49498W        W16281  12.852   3.507   4.934
49499W        W16282   1.769   8.424  12.544
49500W        W16283  22.257  34.143   1.647
49501W        W16284   3.748  16.036   4.376
49502W        W16285  16.196  33.886  13.898
49503W        W16286  18.633  34.596  11.113
49504W        W16287  24.662  18.648  11.272
49505W        W16288  37.469  32.450   2.663
49506W        W16289  30.142  44.827  10.777
49507W        W16290  34.953  28.401  10.614
49508W        W16291  18.071  36.537   2.297
49509W        W16292  15.077  17.433   2.751
49510W        W16293  32.332  25.448   3.187
49511W        W16294   3.387  34.130   0.244
49512W        W16295  40.901  19.166   4.040
49513W        W16296   0.443   9.587  14.442
49514W        W16297   0.128   9.843  12.010
49515W        W16298  30.667  26.040   0.393
49516W        W16299  20.775   2.206   0.344
49517W        W16300  17.788  36.964   4.298
49518W        W16301   9.296   3.359   4.655
49519W        W16302  10.925  26.231   1.899
49520W        W16303  34.512  19.079   4.533
49521W        W16304  41.843  40.419  11.272
49522W        W16305  20.633  44.059   2.282
49523W        W16306  13.160  17.011  11.824
49524W        W16307  28.942   3.135   4.111
49525W        W16308   0.906  37.032   4.612
49526W        W16309  24.561  28.253  10.183
49527W        W16310  41.403  28.714  11.187
49528W        W16311  27.927  12.938   0.837
49529W        W16312  42.863  13.206   0.450
49530W        W16313  27.773   9.033  13.351
49531W        W16314   8.926   0.296   3.766
49532W        W16315  13.086  16.829   4.615
49533W        W16316  23.557   3.324  12.041
49534W        W16317   4.282  26.851  13.904
49535W        W16318  41.420  19.657  11.855
49536W        W16319   6.860   6.236  14.942
49537W        W16320   7.853  36.421   0.495
49538W        W16321  32.365  28.716   5.023
49539W        W16322   4.451  13.112  13.046
49540W        W16323  32.946   8.668   1.621
49541W        W16324  41.962  17.575  11.003
49542W        W16325  20.123  22.553   2.322
49543W        W16326  44.001  21.716  12.374
49544W        W16327  20.355  34.049  11.166
49545W        W16328   6.379  21.272  11.207
49546W        W16329  34.426  37.063  13.338
49547W        W16330  29.766  41.312  10.351
49548W        W16331  33.720  15.760   1.272
49549W        W16332  17.900   7.414  10.636
49550W        W16333  37.282  30.502  11.550
49551W        W16334  28.435  21.785   1.433
49552W        W16335  30.010   7.284  14.786
49553W        W16336  23.102  39.166  14.524
49554W        W16337  25.144  29.379  14.809
49555W        W16338   8.139  40.700   2.635
49556W        W16339  43.787   6.532   0.173
49557W        W16340  31.041  30.437  11.549
49558W        W16341  13.867  18.168   2.787
49559W        W16342   2.849  20.053  14.620
49560W        W16343  40.266  34.727  13.972
49561W        W16344  12.192  16.565   3.956
49562W        W16345   7.162  35.637  13.467
49563W        W16346  32.964  26.097   0.950
49564W        W16347   6.912   9.476   2.270
49565W        W16348  21.353   9.822  13.436
49566W        W16349  18.954  30.735  12.508
49567W        W16350  32.704  18.134   4.544
49568W        W16351  29.108   2.721   0.992
49569W        W16352  25.056  28.860  14.926
49570W        W16353  42.089  20.667  11.415
49571W        W16354   9.099   8.629   0.454
49572W        W16355  41.575   7.813  14.905
49573W        W16356  15.484  40.430   3.461
49574W        W16357  44.237  24.427  14.309
49575W        W16358  30.313  25.243   3.105
49576W        W16359  44.871  30.108   2.948
49577W        W16360  24.571   4.027  11.221
49578W        W16361   1.334  28.960  10.948
49579W        W16362  11.347  15.748   4.648
49580W        W16363  37.114  37.531   2.352
49581W        W16364  31.086  19.702   4.469
49582W        W16365  25.426  37.467  10.707
49583W        W16366  20.203  29.918   1.287
49584W        W16367   0.276  41.512   4.523
49585W        W16368  10.737  36.409   2.359
49586W        W16369   5.644   7.124   1.379
49587W        W16370   2.058  34.372   2.839
49588W        W16371  28.139  33.622  10.145
49589W        W16372  33.853  27.381  14.068
49590W        W16373  32.165  33.128   1.338
49591W        W16374   9.615  43.958   2.288
49592W        W16375  38.511  42.008   2.458
49593W        W16376  29.569  22.633   5.110
49594W        W16377  12.630  33.024  11.512
49595W        W16378  14.166  38.945  14.062
49596W        W16379  15.829  29.263   3.293
49597W        W16380  27.169  13.082  12.514
49598W        W16381  18.204  25.141  12.869
49599W        W16382  27.449  38.661   2.898
49600W        W16383  20.352  14.378   2.151
49601W        W16384  44.820  14.225  13.826
49602W        W16385  14.350  15.575  12.460
49603W        W16386  21.104   5.540   2.416
49604W        W16387  13.184  31.205  13.069
49605W        W16388  40.536  15.335  11.948
49606W        W16389  16.527   9.005  14.291
49607W        W16390  25.575  36.290  11.073
49608W        W16391  30.780  25.961  12.103
49609W        W16392  36.558  17.223   1.313
49610W        W16393  43.806  42.743   1.686
49611W        W16394   8.799   3.351  13.716
49612W        W16395  12.273  33.637   3.246
49613W        W16396  37.851  21.716  14.811
49614W        W16397  26.564   1.800   4.651
49615W        W16398  31.854  33.470   2.239
49616W        W16399  44.274  44.440  14.909
49617W        W16400  36.333  28.448  11.453
49618W        W16401   9.156  19.522   1.170
49619W        W16402  12.764  14.432   3.147
49620W        W16403  29.947  23.225   2.286
49621W        W16404  13.807  34.829   4.102
49622W        W16405  21.059  39.864  10.557
49623W        W16406   2.923  28.223  11.991
49624W        W16407  34.671   4.145   4.347
49625W        W16408  42.019  39.837   1.724
49626W        W16409   5.690  15.767   0.875
49627W        W16410  20.280  23.223  10.767
49628W        W16411   1.007  37.593   3.182
49629W        W16412  22.535  35.046  10.691
49630W        W16413  21.677  22.798  12.884
49631W        W16414  42.266  17.086   4.830
49632W        W16415   5.430  28.679  13.821
49633W        W16416  31.048   0.049  12.467
49634W        W16417   8.053  23.553   3.283
49635W        W16418  37.869   2.319   3.164
49636W        W16419   2.941   3.894  11.524
49637W        W16420  35.802  43.591  11.079
49638W        W16421  22.358  32.051   2.316
49639W        W16422  14.985   6.270  12.771
49640W        W16423  30.628  20.068   1.349
49641W        W16424   6.414  14.719   4.847
49642W        W16425   9.896  17.263   4.542
49643W        W16426  29.984  34.154  12.484
49644W        W16427  34.567  10.389   4.884
49645W        W16428  19.837   8.482  12.007
49646W        W16429  16.388   0.533   4.074
49647W        W16430   7.669   3.292  13.397
49648W        W16431  44.534  44.741  11.466
49649W        W16432  44.304   2.362   4.792
49650W        W16433  34.320  39.924   1.641
49651W        W16434  34.858  22.548  12.047
49652W        W16435  10.681  10.746  10.458
49653W        W16436  37.478  38.157   3.566
49654W        W16437  19.757  41.388   2.236
49655W        W16438   2.933  14.284  11.565
49656W        W16439   2.947   3.490   4.165
49657W        W16440  16.150  38.097  11.557
49658W        W16441  22.027   8.267   0.200
49659W        W16442  40.591  20.541  11.956
49660W        W16443  39.346  12.772   4.148
49661W        W16444  23.235   4.825  14.387
49662W        W16445   7.398  30.187  12.539
49663W        W16446   7.465   0.789  13.790
49664W        W16447   8.450  14.690  14.005
49665W        W16448  18.245   6.749  14.534
49666W        W16449  30.858  37.882  14.957
49667W        W16450  38.844  24.587   1.050
49668W        W16451  37.457   6.191  12.092
49669W        W16452  36.957  30.960  11.039
49670W        W16453  39.950   7.972   3.793
49671W        W16454   9.680  13.085   3.303
49672W        W16455  16.640  30.909  14.534
49673W        W16456   9.635   6.026   1.025
49674W        W16457   1.825  38.998   3.637
49675W        W16458  30.315  26.438  10.636
49676W        W16459  11.371  39.551   4.230
49677W        W16460  16.379   4.306   1.322
49678W        W16461  16.734  31.591  11.142
49679W        W16462  23.036  20.464  13.821
49680W        W16463  12.173  39.385   0.012
49681W        W16464  10.397  34.167  14.743
49682W        W16465  40.737   5.136   2.774
49683W        W16466  21.093  21.745   4.548
49684W        W16467  25.999  39.285   1.779
49685W        W16468  20.962  15.218   5.018
49686W        W16469  20.783  17.582   3.171
49687W        W16470   2.911  35.658  11.714
49688W        W16471   4.375   4.230  12.940
49689W        W16472   6.807  44.752  13.518
49690W        W16473   4.316   3.470   0.128
49691W        W16474  38.054  17.056   1.478
49692W        W16475  23.228  35.405  10.654
49693W        W16476  20.335  17.812  11.121
49694W        W16477  32.501  16.576  14.002
49695W        W16478  26.000  33.244   3.158
49696W        W16479  36.785  26.617   0.950
49697W        W16480   0.039  34.572   1.936
49698W        W16481   1.529  20.029   1.661
49699W        W16482   3.855  18.151   0.432
49700W        W16483   3.407   9.098  14.420
49701W        W16484  27.956  35.487  11.200
49702W        W16485  43.610   9.393  11.683
49703W        W16486  17.726  17.169  11.378
49704W        W16487  27.170  24.160   1.960
49705W        W16488  10.454  17.107  14.542
49706W        W16489   0.516   2.728  14.940
49707W        W16490  11.156  29.086  12.521
49708W        W16491  21.544  30.751   0.036
49709W        W16492  18.174  40.539   3.676
49710W        W16493   4.947  22.151  11.471
49711W        W16494   0.348  16.204  10.164
49712W        W16495   9.982   2.017  11.106
49713W        W16496  39.525  34.419  14.502
49714W        W16497  25.015  16.326   3.267
49715W        W16498  39.969  22.559   2.129
49716W        W16499  25.100   8.298  11.177
49717W        W16500   6.217  25.039   4.608
49718W        W16501  24.587  24.483   1.679
49719W        W16502  11.086  21.010  10.464
49720W        W16503  24.710  27.774   3.744
49721W        W16504  11.235  38.996  10.367
49722W        W16505  29.914  20.524  12.271
49723W        W16506   1.857  40.063  12.302
49724W        W16507  36.156  20.447   3.895
49725W        W16508  43.520   6.975  10.694
49726W        W16509  26.676   3.860   3.652
49727W        W16510  16.642   1.037   1.196
49728W        W16511   9.746   7.422   2.082
49729W        W16512  36.744   0.806  14.259
49730W        W16513  42.923  28.594   4.363
49731W        W16514  16.535  34.566   3.692
49732W        W16515  37.911  22.306  13.756
49733W        W16516  28.922  11.652   2.747
49734W        W16517  38.416  23.077  12.571
49735W        W16518  35.932  18.679   2.193
49736W        W16519  22.468  10.278   1.564
49737W        W16520   4.609  18.701   2.904
49738W        W16521  42.105  13.682   0.267
49739W        W16522  44.629   4.773  11.961
49740W        W16523  14.563   2.473  13.896
49741W        W16524  35.984  30.599   0.742
49742W        W16525   3.370   3.566  13.650
49743W        W16526  15.116  33.206  12.627
49744W        W16527  35.935  31.849   0.241
49745W        W16528  26.004  16.519  13.912
49746W        W16529  32.887   3.499   1.523
49747W        W16530   8.386  30.659  12.825
49748W        W16531   5.290  21.374  14.743
49749W        W16532  38.289  14.517  12.883
49750W        W16533  19.745  14.544   0.641
49751W        W16534  16.577  34.607   2.285
49752W        W16535   4.075  16.560  11.685
49753W        W16536  42.482  43.754   0.323
49754W        W16537  24.745  26.707   3.707
49755W        W16538  14.199  36.040   0.759
49756W        W16539  38.949   1.892   1.427
49757W        W16540  43.325  13.601  12.338
49758W        W16541  39.150  29.665  13.875
49759W        W16542  16.379  19.495   3.906
49760W        W16543  44.590   7.728   2.713
49761W        W16544   0.404  16.738   5.001
49762W        W16545  38.232  21.042  14.817
49763W        W16546   6.717  20.959  13.026
49764W        W16547  41.327   1.560   2.960
49765W        W16548   0.095  22.018  10.627
49766W        W16549   0.896  26.203   1.369
49767W        W16550  20.314  13.035  12.013
49768W        W16551   7.538  34.157   0.314
49769W        W16552  28.970  28.484   4.333
49770W        W16553  37.464  15.785   0.427
49771W        W16554  35.109  29.494  13.755
49772W        W16555  10.628  10.687  12.025
49773W        W16556  14.751  22.155  14.952
49774W        W16557  42.010   8.560   1.360
49775W        W16558  11.767   1.679  11.267
49776W        W16559  24.673  21.390  14.450
49777W        W16560   8.541   0.816  10.770
49778W        W16561  29.671  17.563   4.143
49779W        W16562  17.201  44.326  14.743
49780W        W16563  39.934   4.519   0.292
49781W        W16564   0.673  17.196  10.249
49782W        W16565   9.264  23.465   0.353
49783W        W16566  29.385  41.457  14.195
49784W        W16567   1.774  27.931  12.985
49785W        W16568  10.559  25.207   3.068
49786W        W16569   0.977  37.062  13.994
49787W        W16570   6.254  39.616  14.320
49788W        W16571  21.226  25.719   1.098
49789W        W16572  44.268  35.626  14.307
49790W        W16573  30.173  31.417   3.218
49791W        W16574   5.803  30.392   3.786
49792W        W16575  10.713  41.748  14.737
49793W        W16576  44.217  30.646   0.894
49794W        W16577   3.899   6.220  10.668
49795W        W16578  36.491  17.799  11.575
49796W        W16579   7.385  18.689  11.771
49797W        W16580   0.029  15.242  14.876
49798W        W16581  31.607  30.250   1.811
49799W        W16582  30.064  39.576  10.857
49800W        W16583  25.472  28.581   3.116
49801W        W16584   6.714  23.221   1.209
49802W        W16585  31.187  29.140   3.644
49803W        W16586  18.441  43.345   0.857
49804W        W16587  13.875   7.189   2.356
49805W        W16588  28.540  18.187   0.056
49806W        W16589  44.567   6.611   2.212
49807W        W16590   9.385   9.278  11.724
49808W        W16591  26.444   6.645   2.722
49809W        W16592  27.141  29.036   1.275
49810W        W16593  22.501  24.241  13.419
49811W        W16594  26.688  30.644   4.635
49812W        W16595  31.622  13.171  12.498
49813W        W16596  31.602  34.501   4.051
49814W        W16597   3.823   5.829   3.440
49815W        W16598  32.214  29.657   3.057
49816W        W16599   4.657  44.013   1.822
49817W        W16600  14.755  32.444  14.811
49818W        W16601  40.179   6.827   1.686
49819W        W16602  11.281  25.274   1.652
49820W        W16603  27.493   0.311   3.252
49821W        W16604  37.137  20.482   0.763
49822W        W16605  22.670  26.080  11.070
49823W        W16606  14.696   9.101  11.156
49824W        W16607  39.070  31.682   1.646
49825W        W16608  15.204   0.688  12.996
49826W        W16609  32.540  20.541   1.389
49827W        W16610  17.666  16.819  13.566
49828W        W16611  42.344   3.261   0.028
49829W        W16612   5.299  29.154   4.133
49830W        W16613  34.963  30.605   3.155
49831W        W16614  21.282   9.355   0.264
49832W        W16615  29.564   3.802   4.832
49833W        W16616   0.560  16.148   1.368
49834W        W16617   7.807  42.278  14.410
49835W        W16618  14.569  23.640   0.825
49836W        W16619  19.967  14.146  14.353
49837W        W16620  41.426  39.385   4.529
49838W        W16621   6.447  33.317   3.312
49839W        W16622  41.053  16.659   3.170
49840W        W16623   4.035  37.910   3.393
49841W        W16624  34.926  37.238   2.815
49842W        W16625  40.090  31.973  13.583
49843W        W16626  31.772  21.599  12.950
49844W        W16627  43.551   0.875  10.667
49845W        W16628   6.793  25.560   4.118
49846W        W16629   0.738   7.219  13.462
49847W        W16630  26.115  32.128   0.895
49848W        W16631  27.500  42.330   4.611
49849W        W16632  41.307   3.128   2.719
49850W        W16633  40.867   9.900   2.186
49851W        W16634  19.272  39.736  12.822
49852W        W16635  22.161  25.453   4.179
49853W        W16636  14.157  27.187   4.170
49854W        W16637  29.362  25.053  14.262
49855W        W16638  29.870   0.286  10.604
49856W        W16639  23.138  36.790   3.593
49857W        W16640   5.387  40.378   0.939
49858W        W16641  32.068  28.123   5.095
49859W        W16642  17.060  44.961   3.335
49860W        W16643  30.231  19.431  11.826
49861W        W16644  25.035   3.300   0.300
49862W        W16645  21.827  37.560   2.179
49863W        W16646  12.785   6.616   3.079
49864W        W16647  39.284  33.152  12.019
49865W        W16648  24.894  29.926   2.255
49866W        W16649  26.074  25.143  14.089
49867W        W16650  17.540  28.422   1.734
49868W        W16651  18.016  29.568   3.334
49869W        W16652  25.533  22.078  11.261
49870W        W16653  19.545  35.043   1.725
49871W        W16654  42.121   1.764  13.484
49872W        W16655  12.104  32.069   1.666
49873W        W16656  12.384  17.585   2.416
49874W        W16657  20.799  14.238   2.429
49875W        W16658  34.447   7.037   3.180
49876W        W16659  36.080   4.240  11.793
49877W        W16660   1.618  34.876   4.616
49878W        W16661  26.100  22.910  11.802
49879W        W16662  23.276  33.477  13.521
49880W        W16663  22.331  19.903  14.394
49881W        W16664   9.580  11.864  14.067
49882W        W16665   6.100  24.635   4.311
49883W        W16666  39.050  28.039  13.346
49884W        W16667  27.598  44.094  13.725
49885W        W16668  44.687  44.905  12.882
49886W        W16669  16.614  30.409  14.406
49887W        W16670  23.540   9.724  14.738
49888W        W16671  28.515  26.063  14.657
49889W        W16672  41.122  33.481   3.445
49890W        W16673   1.476  15.341  12.346
49891W        W16674  15.312  38.225  12.459
49892W        W16675   9.890   3.264  13.401
49893W        W16676  39.499  20.085   3.164
49894W        W16677  35.567   3.680   2.709
49895W        W16678  11.834  37.295   4.985
49896W        W16679   2.348  17.992  14.830
49897W        W16680  34.099  12.569   0.379
49898W        W16681  14.288  40.411  10.477
49899W        W16682   8.816   2.396   5.076
49900W        W16683  39.407   2.230   4.677
49901W        W16684   9.400  12.929   0.830
49902W        W16685  40.342  38.793   1.831
49903W        W16686  33.543  20.621   0.366
49904W        W16687   7.188  28.634   0.931
49905W        W16688  40.140   8.738  10.885
49906W        W16689  16.159  21.055   1.221
49907W        W16690  31.610  37.839  10.657
49908W        W16691  21.992  10.965  12.370
49909W        W16692  37.771   4.804  12.601
49910W        W16693   3.222  20.711   3.680
49911W        W16694   6.215  27.963  13.430
49912W        W16695  16.416   1.403   2.890
49913W        W16696  32.725  12.855   3.283
49914W        W16697   2.039  33.873   1.349
49915W        W16698  32.576  41.484   0.177
49916W        W16699  10.130   1.530   0.987
49917W        W16700  18.819   4.949  11.720
49918W        W16701   0.721   6.229  12.047
49919W        W16702   7.819   2.935  12.469
49920W        W16703  27.016  33.902  14.450
49921W        W16704   3.261  32.885   4.233
49922W        W16705   7.668  18.638   3.277
49923W        W16706  14.834  35.816   5.485
49924W        W16707   0.366  38.906   4.540
49925W        W16708  12.123   3.765  14.359
49926W        W16709  32.201  26.505  12.916
49927W        W16710  27.953  29.106  11.533
49928W        W16711  33.583  26.178   3.426
49929W        W16712  34.371  26.024   0.840
49930W        W16713   0.667  36.780   2.919
49931W        W16714  11.858  27.415   4.645
49932W        W16715  16.749  20.793  12.831
49933W        W16716  24.645  44.881   0.854
49934W        W16717   3.420  17.032   5.030
49935W        W16718  30.153  44.735  13.866
49936W        W16719  38.632  26.516  14.820
49937W        W16720  20.756  15.365  14.464
49938W        W16721  32.544  41.768   3.088
49939W        W16722   6.284   2.558   0.376
49940W        W16723  42.244  30.033   1.626
49941W        W16724  43.120  17.254   1.635
49942W        W16725  28.663  35.929  12.139
49943W        W16726  38.120  41.388  11.712
49944W        W16727   3.894   6.666  11.448
49945W        W16728  26.224  29.773  14.328
49946W        W16729  26.399  19.714   4.718
49947W        W16730  39.972   1.826   0.666
49948W        W16731   6.186  18.039   4.328
49949W        W16732  20.206  19.545   3.113
49950W        W16733  29.427  35.585  11.058
49951W        W16734  41.353  30.103   0.875
49952W        W16735  19.320  30.948   0.952
49953W        W16736  36.606  11.373   0.637
49954W        W16737  32.464  26.659   0.415
49955W        W16738   3.561  25.761  11.313
49956W        W16739  34.848  41.671   3.970
49957W        W16740  15.049  37.514   2.062
49958W        W16741  26.565  13.664  14.928
49959W        W16742  41.252   9.219  10.190
49960W        W16743  24.095  32.370   3.376
49961W        W16744  41.803  43.859   4.538
49962W        W16745  43.349  40.082  13.097
49963W        W16746   7.002  28.458  14.380
49964W        W16747  44.150  22.172  13.712
49965W        W16748   6.815  21.745   1.374
49966W        W16749  44.978   8.876  13.440
49967W        W16750  38.741  38.464  11.653
49968W        W16751  38.337  31.484   0.485
49969W        W16752  22.280  23.181   3.158
49970W        W16753  11.896   8.056  12.575
49971W        W16754  17.111  13.403  13.378
49972W        W16755  19.744  14.800  12.389
49973W        W16756  43.049   0.226  11.451
49974W        W16757  25.947  12.891  12.872
49975W        W16758   6.929  13.677   3.086
49976W        W16759  41.830  27.055   4.382
49977W        W16760  22.418  35.000   3.211
49978W        W16761   1.673  35.415   2.170
49979W        W16762  25.745   6.701   1.466
49980W        W16763  12.327  21.198  12.657
49981W        W16764  26.063  16.755   3.599
49982W        W16765  27.587   9.772   4.241
49983W        W16766  15.672   0.649  13.439
49984W        W16767   1.964   2.786   2.680
49985W        W16768   3.553  23.876   2.332
49986W        W16769  30.595  37.612  13.469
49987W        W16770  35.368  11.339   0.388
49988W        W16771   6.708  16.369  13.051
49989W        W16772   9.819  38.549  10.405
49990W        W16773  37.482   9.461   4.099
49991W        W16774   4.400  26.981   2.754
49992W        W16775  16.784  43.461  14.356
49993W        W16776  44.481  23.476   1.764
49994W        W16777   1.417  40.940   4.089
49995W        W16778  14.154  35.494   2.370
49996W        W16779   6.589   3.782   0.951
49997W        W16780   1.374  15.215  11.408
49998W        W16781  13.790  10.230  10.861
49999W        W16782  26.183   1.945  13.569
50000W        W16783  19.491  14.121   0.764
50001W        W16784   4.734   3.964   3.084
50002W        W16785  22.635   4.777   3.932
50003W        W16786   0.717  29.987   1.275
50004W        W16787   6.872   9.690  13.535
50005W        W16788  18.679  23.588  14.973
50006W        W16789  31.183  18.234   4.130
50007W        W16790  38.548  27.568  13.018
50008W        W16791  21.161  36.580   0.802
50009W        W16792   3.230  13.207   2.646
50010W        W16793  36.343  10.763  11.705
50011W        W16794  24.342  14.774   1.448
50012W        W16795   4.100  25.960   0.393
50013W        W16796  41.534  17.320   0.468
50014W        W16797  17.850  43.474   4.950
50015W        W16798  33.849  41.186  10.255
50016W        W16799  42.424  28.561  13.570
50017W        W16800  41.417  36.797  14.052
50018W        W16801  23.100   6.800  11.839
50019W        W16802  40.340   2.388  11.140
50020W        W16803   1.578  34.948  13.205
50021W        W16804   2.198  36.835   3.710
50022W        W16805  16.144  17.594  13.623
50023W        W16806  35.187   0.185   0.730
50024W        W16807  10.725   7.242  14.930
50025W        W16808  29.682   2.971  13.386
50026W        W16809  23.323  31.054   2.309
50027W        W16810  32.855  12.833  12.364
50028W        W16811  36.892  24.979   0.514
50029W        W16812   5.586  26.036  11.256
50030W        W16813  12.076  23.505  13.851
50031W        W16814  42.689  10.274   4.500
50032W        W16815   6.378  33.447  10.943
50033W        W16816  29.069  24.511  13.962
50034W        W16817   9.951  19.044   4.221
50035W        W16818  15.300   9.439   1.318
50036W        W16819  35.717  26.959   3.271
50037W        W16820  23.742   5.942  10.036
50038W        W16821  23.309  44.938   2.725
50039W        W16822  15.588   9.614  11.134
50040W        W16823  26.402  38.463  11.510
50041W        W16824   9.920  13.899   4.840
50042W        W16825  39.386   8.489   1.215
50043W        W16826  26.408  13.445  14.469
50044W        W16827   8.166  43.506  11.707
50045W        W16828  29.412   5.828   4.615
50046W        W16829  42.358   2.992  14.160
50047W        W16830  23.608  41.823  14.191
50048W        W16831   3.866  14.600  12.354
50049W        W16832   4.763  37.347  12.374
50050W        W16833   0.517  22.999   4.046
50051W        W16834   2.309  43.236   2.678
50052W        W16835  27.694  25.482   0.741
50053W        W16836  43.117  35.953  11.051
50054W        W16837  23.146  44.970   3.225
50055W        W16838  23.237  33.512   2.186
50056W        W16839   9.749  30.657  13.080
50057W        W16840  33.506  33.139   3.185
50058W        W16841  17.778  23.645   4.614
50059W        W16842   4.418  33.644  11.976
50060W        W16843  34.577   8.401  14.629
50061W        W16844   6.979  29.218  11.114
50062W        W16845  20.707  17.548  13.886
50063W        W16846  38.078  12.662   1.819
50064W        W16847  31.358  13.251  11.711
50065W        W16848  14.357  30.500   3.772
50066W        W16849   8.222  39.311  12.388
50067W        W16850  36.159  36.387   3.271
50068W        W16851   4.758  39.990   3.881
50069W        W16852  11.863  43.341  13.900
50070W        W16853  13.262  20.525   0.833
50071W        W16854  36.461   3.706  14.429
50072W        W16855  15.009  15.897   3.775
50073W        W16856   9.230   0.089  14.843
50074W        W16857  26.206  43.884   0.496
50075W        W16858   9.318   6.764  14.418
50076W        W16859  24.292  25.550   0.838
50077W        W16860  40.745   5.200   0.978
50078W        W16861  43.994  11.803   0.015
50079W        W16862  13.143  12.240   2.356
50080W        W16863   5.993  24.282  12.381
50081W        W16864  39.500  19.291  12.378
50082W        W16865   8.172  22.743  11.753
50083W        W16866  15.115   9.869   3.190
50084W        W16867  40.941  15.048  12.073
50085W        W16868   8.039  40.175   2.662
50086W        W16869   5.649  31.059   3.557
50087W        W16870  22.223  24.623   0.349
50088W        W16871  22.775  33.253  11.013
50089W        W16872  27.192   4.896  10.760
50090W        W16873   0.789  19.847   5.088
50091W        W16874  39.611  17.253  12.651
50092W        W16875  18.887  33.867   2.819
50093W        W16876  22.808  25.199  12.579
50094W        W16877   1.142   3.726   3.240
50095W        W16878  43.729  12.159  14.746
50096W        W16879   8.770  36.987   3.661
50097W        W16880  41.124   3.927   4.546
50098W        W16881   9.311   0.672  11.731
50099W        W16882  15.850  32.549   0.804
50100W        W16883  23.500   2.060   1.029
50101W        W16884  18.039  20.096  12.864
50102W        W16885  41.328  24.048  11.041
50103W        W16886  11.788  37.248   0.799
50104W        W16887   9.506  18.109  13.328
50105W        W16888  13.009  38.027   0.131
50106W        W16889  36.418  12.367  10.663
50107W        W16890  24.143  44.819   0.028
50108W        W16891  17.896  35.435   9.644
50109W        W16892  28.084  38.782  12.944
50110W        W16893  41.746  17.096  10.912
50111W        W16894  18.725  40.745  10.989
50112W        W16895  27.951  21.327  13.299
50113W        W16896  33.939  27.041  12.028
50114W        W16897  44.490  28.610  12.921
50115W        W16898  17.248   4.780  12.442
50116W        W16899  27.630  15.098  11.056
50117W        W16900  39.771   3.785  11.965
50118W        W16901   9.703  16.728   4.559
50119W        W16902  35.075  40.286  12.937
50120W        W16903  34.124  12.695  12.873
50121W        W16904  27.005  26.550   4.875
50122W        W16905  18.288  10.188  12.582
50123W        W16906  26.458  23.220   1.242
50124W        W16907  23.075   6.891  11.334
50125W        W16908  14.308  30.454  14.391
50126W        W16909  12.337  30.646  14.286
50127W        W16910  25.593  36.496   1.398
50128W        W16911  37.106  21.635   3.336
50129W        W16912  39.868  29.401  12.783
50130W        W16913  33.704  30.659   3.804
50131W        W16914   5.726  30.038   3.126
50132W        W16915  27.300  29.802   0.011
50133W        W16916  17.321  41.303  13.396
50134W        W16917   9.677  13.799  14.942
50135W        W16918  32.274   3.328  14.385
50136W        W16919  20.097   1.188  13.632
50137W        W16920  16.826  23.585  10.709
50138W        W16921  14.450  12.308  11.886
50139W        W16922  42.859   6.092   9.759
50140W        W16923  33.955   7.106   2.386
50141W        W16924  33.350  41.489  14.274
50142W        W16925  26.991   2.619  14.392
50143W        W16926  20.040   7.248  10.590
50144W        W16927  28.981  34.332  11.150
50145W        W16928  35.064  28.739  12.084
50146W        W16929  18.182  24.167  14.555
50147W        W16930   3.788  28.979  13.092
50148W        W16931  33.048  32.753  13.926
50149W        W16932  12.414  14.053   2.578
50150W        W16933   0.760  13.873  11.389
50151W        W16934  15.737  32.441   4.467
50152W        W16935  13.800   3.800   3.874
50153W        W16936  31.374  22.167   3.257
50154W        W16937  24.625  10.539   1.311
50155W        W16938  17.828  41.349  11.668
50156W        W16939  41.519   4.845  14.942
50157W        W16940  13.459  34.100   4.748
50158W        W16941  28.586  42.049  12.368
50159W        W16942  44.559  41.030   4.694
50160W        W16943  44.722  28.688  14.356
50161W        W16944  37.095  13.404  12.001
50162W        W16945  40.020  35.621  14.967
50163W        W16946   1.381   2.521   0.761
50164W        W16947  14.861   9.782   9.476
50165W        W16948   7.924  33.985  13.461
50166W        W16949  11.231   8.281  10.378
50167W        W16950  10.322  22.608   2.770
50168W        W16951  39.799  42.290  14.801
50169W        W16952  27.184   1.236  11.675
50170W        W16953   1.146  42.918  11.333
50171W        W16954  11.545  15.276  10.556
50172W        W16955  17.335  29.511  14.992
50173W        W16956  11.566  39.850   1.915
50174W        W16957   2.194  35.455   3.678
50175W        W16958  23.890  39.871   9.794
50176W        W16959  17.118   7.820  10.638
50177W        W16960  33.326  37.582   1.430
50178W        W16961  37.894  25.499  11.140
50179W        W16962  39.866  29.382  14.303
50180W        W16963  34.984  10.072  12.942
50181W        W16964  28.334   9.716  11.346
50182W        W16965   7.812   5.559   0.852
50183W        W16966  21.735  31.432   3.416
50184W        W16967  32.598   6.389  14.450
50185W        W16968  43.952  44.249   3.363
50186W        W16969  25.729  10.805   0.492
50187W        W16970  22.705  39.905  14.728
50188W        W16971  24.020  38.448   1.743
50189W        W16972  40.236  12.747  14.769
50190W        W16973  34.491   5.105   4.546
50191W        W16974  32.669  26.665  12.838
50192W        W16975  14.145  30.665   0.757
50193W        W16976   5.289  21.527   0.239
50194W        W16977  30.163  40.490   1.365
50195W        W16978  16.708  41.946  11.476
50196W        W16979  17.608  32.060   2.405
50197W        W16980   4.002  11.162   1.888
50198W        W16981  41.433  33.913   3.409
50199W        W16982  34.873  38.373  13.791
50200W        W16983  10.965  32.698   3.293
50201W        W16984  33.349   8.898  13.491
50202W        W16985  36.360  12.268  14.797
50203W        W16986  10.141  13.784   3.042
50204W        W16987  23.695  36.314  14.890
50205W        W16988   9.816   2.765   4.412
50206W        W16989  13.746  15.265  11.646
50207W        W16990  12.799  32.078  12.912
50208W        W16991   2.536   8.467   0.260
50209W        W16992   7.719  28.048   4.094
50210W        W16993   9.604  21.156   4.982
50211W        W16994  10.061  33.889   3.400
50212W        W16995  31.658   3.554  11.658
50213W        W16996  42.924  13.802  12.610
50214W        W16997  18.187  17.691   4.723
50215W        W16998  12.649  39.319  11.743
50216W        W16999  15.647  13.556  13.379
50217W        W17000  17.756  43.534  14.398
50218W        W17001  17.973  13.032  10.170
50219W        W17002   7.709   7.981  11.823
50220W        W17003  29.063  16.216   4.111
50221W        W17004   0.290  38.846  13.095
50222W        W17005  11.305  35.870   4.910
50223W        W17006  20.362   2.190   5.028
50224W        W17007   5.317  19.332  13.129
50225W        W17008  20.509  25.265  13.273
50226W        W17009  41.697  29.710   4.631
50227W        W17010   8.472   9.438   0.527
50228W        W17011  16.786  28.109   0.378
50229W        W17012  12.471  17.795   4.143
50230W        W17013  35.409  30.834   3.274
50231W        W17014   4.916   3.706   1.717
50232W        W17015  17.945  28.021   3.648
50233W        W17016   0.031  41.581   4.956
50234W        W17017  16.501  35.426  13.601
50235W        W17018  41.966   2.760   3.165
50236W        W17019  24.646  26.606  11.025
50237W        W17020  29.379   4.967   1.876
50238W        W17021  36.421   1.334  10.276
50239W        W17022  30.462  31.009   1.278
50240W        W17023   3.492   9.823   1.794
50241W        W17024  22.519  13.333  11.277
50242W        W17025  21.486  36.318  14.403
50243W        W17026  20.164  38.947   3.348
50244W        W17027  20.060  34.699  10.423
50245W        W17028  39.827  25.246  12.960
50246W        W17029   7.170   5.601  13.677
50247W        W17030  32.005  32.982  11.900
50248W        W17031  36.204  40.123  12.047
50249W        W17032  10.809  12.273  14.010
50250W        W17033  11.571  20.256   1.839
50251W        W17034   8.379  32.065  13.074
50252W        W17035  12.547   3.151   3.984
50253W        W17036  22.179   1.685  10.664
50254W        W17037   1.179  29.004  14.800
50255W        W17038  16.828  11.408   2.735
50256W        W17039  26.242  13.245   2.421
50257W        W17040  41.548  21.049  14.468
50258W        W17041  14.716  19.563   2.895
50259W        W17042  13.351  16.875  11.089
50260W        W17043  35.177  30.663   5.026
50261W        W17044  20.001  42.358  11.988
50262W        W17045   7.995   8.900   4.245
50263W        W17046  33.173  35.853  12.096
50264W        W17047   4.786  20.263  12.837
50265W        W17048   1.317  38.451   2.221
50266W        W17049   8.805   9.817  10.658
50267W        W17050  39.302  30.658  12.684
50268W        W17051  21.976  43.384  10.637
50269W        W17052  33.278  34.913   2.754
50270W        W17053  17.669  43.646  12.454
50271W        W17054  13.896  12.805   0.836
50272W        W17055  32.099   7.926  14.307
50273W        W17056  36.851   0.834  13.738
50274W        W17057   7.171   3.311   4.151
50275W        W17058   6.740   2.177   2.790
50276W        W17059  15.529   8.089  12.453
50277W        W17060  40.033  40.672   1.837
50278W        W17061  26.187  44.294   4.151
50279W        W17062  44.517   4.804  13.799
50280W        W17063  11.242  33.236  14.122
50281W        W17064  26.155  43.727  10.669
50282W        W17065   0.888  43.730  11.066
50283W        W17066  14.277  43.464   1.006
50284W        W17067  13.729   8.726   2.320
50285W        W17068   5.519  18.281  11.518
50286W        W17069  14.217  11.234   2.277
50287W        W17070   5.298  23.050  13.432
50288W        W17071   4.715  42.882  10.216
50289W        W17072  37.136  23.688   0.686
50290W        W17073  15.388  39.121  10.709
50291W        W17074  23.681  29.930  10.646
50292W        W17075   7.216  15.504  12.310
50293W        W17076  16.792  17.983  11.680
50294W        W17077  39.535  25.457  14.828
50295W        W17078  29.662  36.944   0.991
50296W        W17079  29.630  16.132  12.607
50297W        W17080  37.343  26.682   2.838
50298W        W17081  38.623  32.825  13.898
50299W        W17082  37.184  34.425  14.462
50300W        W17083  33.070  27.926  14.454
50301W        W17084  37.403  17.258   3.675
50302W        W17085  20.777   3.175   2.687
50303W        W17086  16.281  11.936  10.781
50304W        W17087   2.768   5.858   2.959
50305W        W17088   9.591  37.210   3.278
50306W        W17089   4.135  40.483  12.389
50307W        W17090   3.312   7.327   0.297
50308W        W17091  10.835  23.040  11.595
50309W        W17092  43.630  16.714   2.373
50310W        W17093  16.200   8.786   3.929
50311W        W17094  19.558  12.411   1.192
50312W        W17095  44.300   8.544   2.329
50313W        W17096  33.574  10.447  13.324
50314W        W17097   0.968   6.423  12.634
50315W        W17098  31.516  44.315  14.489
50316W        W17099  17.152  44.751   4.364
50317W        W17100  26.504  30.054  14.650
50318W        W17101   3.668  16.129  14.448
50319W        W17102  43.016  17.593  12.491
50320W        W17103  11.632   8.758   3.323
50321W        W17104  41.878   2.496  13.038
50322W        W17105  29.981  35.570   0.706
50323W        W17106  37.775   5.961   9.765
50324W        W17107  13.499   1.758  10.710
50325W        W17108   4.946  24.167  13.532
50326W        W17109  30.964  31.176  14.527
50327W        W17110  29.504  38.771  11.942
50328W        W17111  40.365  36.598  11.094
50329W        W17112  34.710   3.809  11.517
50330W        W17113   0.839  23.439   2.344
50331W        W17114  40.346   5.916   1.230
50332W        W17115  38.732  36.937   1.283
50333W        W17116  19.832  27.402  12.113
50334W        W17117  31.219  21.565   4.469
50335W        W17118  20.813  14.148  13.881
50336W        W17119  39.836  10.414  11.799
50337W        W17120   2.885   5.765  11.432
50338W        W17121  33.931   9.440   3.638
50339W        W17122  35.840   6.204   4.948
50340W        W17123  33.375  15.601   2.297
50341W        W17124   6.505   1.657  13.305
50342W        W17125  38.435  23.423  10.484
50343W        W17126  30.956  40.055  12.008
50344W        W17127  35.497  27.281  10.557
50345W        W17128  40.105  14.576   1.253
50346W        W17129  12.996   3.339   1.058
50347W        W17130  21.487  32.078  12.622
50348W        W17131  30.670  32.975  10.831
50349W        W17132  16.866  12.712  13.472
50350W        W17133   5.853  28.421  14.577
50351W        W17134   2.194  37.631   1.271
50352W        W17135  20.740  30.652  10.398
50353W        W17136   9.888  39.946  10.526
50354W        W17137  23.521   3.517   0.442
50355W        W17138  18.293   9.797   1.259
50356W        W17139  21.245  35.044  14.032
50357W        W17140   1.767  42.371   2.448
50358W        W17141  38.240  24.171   1.291
50359W        W17142  11.615  21.049   4.173
50360W        W17143   5.648  23.796   3.383
50361W        W17144  14.989  27.687  14.362
50362W        W17145  22.016  23.598  13.011
50363W        W17146  15.008  10.653  12.956
50364W        W17147  10.583  37.092  13.012
50365W        W17148  34.421  39.492   1.927
50366W        W17149   9.949   9.158   1.473
50367W        W17150  22.017  21.589  13.867
50368W        W17151  19.589   3.921   2.975
50369W        W17152  25.823   7.032   4.061
50370W        W17153  33.779  29.757  10.444
50371W        W17154  24.479   1.239  14.549
50372W        W17155   3.564  38.498   4.175
50373W        W17156  23.641  32.601   1.183
50374W        W17157  20.155  42.346   1.228
50375W        W17158  16.472  21.162   4.927
50376W        W17159  29.130  28.602   0.299
50377W        W17160  25.678  33.087  11.626
50378W        W17161  39.334   6.136   2.774
50379W        W17162  42.799  14.751  14.747
50380W        W17163  24.079  23.676   1.636
50381W        W17164  31.245  26.429  13.866
50382W        W17165  19.612  42.837   2.674
50383W        W17166  17.632  37.424  10.064
50384W        W17167   0.845  18.229   4.217
50385W        W17168   9.496   8.815   0.749
50386W        W17169  19.719  17.238  14.051
50387W        W17170   8.032  20.185  13.352
50388W        W17171   9.631  31.986  12.614
50389W        W17172  30.558   7.653  11.584
50390W        W17173  13.474   6.739   3.615
50391W        W17174  30.597  28.695   3.298
50392W        W17175  34.090  30.987  13.079
50393W        W17176  28.015  17.335   0.286
50394W        W17177   9.733  43.813   0.389
50395W        W17178   1.852  11.145   4.634
50396W        W17179  10.536  20.492  14.863
50397W        W17180   5.392  35.496   1.506
50398W        W17181   1.285  42.378   2.237
50399W        W17182  17.611  29.739   2.484
50400W        W17183   4.886  39.490   3.780
50401W        W17184  37.931   2.228  12.273
50402W        W17185  30.993  29.174   0.252
50403W        W17186   2.784  24.670   1.355
50404W        W17187  30.869  21.422  11.137
50405W        W17188  35.941  38.461  13.810
50406W        W17189  26.701  33.413  13.859
50407W        W17190  33.981   0.787   0.640
50408W        W17191  14.093  31.100   2.118
50409W        W17192  36.331   5.432   3.965
50410W        W17193  23.648  10.049   0.206
50411W        W17194  34.322  42.305   0.757
50412W        W17195  21.769  35.592   2.313
50413W        W17196  17.007  43.395   0.804
50414W        W17197  29.390  10.201   2.802
50415W        W17198  28.635  34.912  10.579
50416W        W17199  22.450   5.256   3.251
50417W        W17200  42.785  25.116  13.982
50418W        W17201  32.065  32.357  13.434
50419W        W17202  12.302  27.634  11.598
50420W        W17203  14.154  39.411   2.045
50421W        W17204  28.942  10.814  11.579
50422W        W17205  16.290  43.190  11.635
50423W        W17206  33.765  37.561   1.690
50424W        W17207  27.911  10.265  13.999
50425W        W17208  24.141  19.856  14.623
50426W        W17209   3.876  20.487  10.926
50427W        W17210  20.171  14.350   3.616
50428W        W17211  16.895  14.752  14.969
50429W        W17212  34.621  11.729   0.039
50430W        W17213   2.121  29.438   3.625
50431W        W17214  39.722  16.030   2.720
50432W        W17215  19.608  16.223   3.048
50433W        W17216  29.189  41.135  13.357
50434W        W17217   9.322  26.972   1.888
50435W        W17218  34.837  28.561  14.805
50436W        W17219  43.853   4.183  13.067
50437W        W17220   8.739  34.244  11.177
50438W        W17221   1.908  21.613   2.346
50439W        W17222  40.094  36.037  11.099
50440W        W17223  28.102   2.554  12.417
50441W        W17224   0.796  27.555  12.904
50442W        W17225  39.093  19.682   2.192
50443W        W17226  32.090  15.191   4.290
50444W        W17227  12.714  14.376   1.337
50445W        W17228   6.541  24.739  14.928
50446W        W17229  16.223  34.064   2.049
50447W        W17230  19.079  32.982  11.535
50448W        W17231   2.826  35.852  12.634
50449W        W17232   7.170  21.482   0.297
50450W        W17233  42.288  29.284   3.146
50451W        W17234  23.573  33.804   2.894
50452W        W17235  31.846  20.528   0.794
50453W        W17236  39.343  31.175   1.517
50454W        W17237  23.457  21.945  11.193
50455W        W17238  18.566   6.002   2.829
50456W        W17239  39.786  11.404   0.431
50457W        W17240  42.247  17.137  11.011
50458W        W17241   8.877  31.614   3.975
50459W        W17242  25.640  31.449  12.517
50460W        W17243   4.400  19.346   0.254
50461W        W17244  41.310  31.110   0.872
50462W        W17245  22.701  26.716   0.736
50463W        W17246   8.212  21.488   2.379
50464W        W17247  39.974  13.662  11.913
50465W        W17248   0.921   0.068  13.586
50466W        W17249   9.671  32.025  12.088
50467W        W17250   9.849  30.034  11.995
50468W        W17251   0.507   3.073  10.079
50469W        W17252   2.664   1.736  11.625
50470W        W17253  34.999  19.131  11.094
50471W        W17254   6.903  22.748   4.757
50472W        W17255  40.366  31.146  13.844
50473W        W17256  20.104   6.694  13.495
50474W        W17257  37.044  27.523  10.679
50475W        W17258  20.340  17.804  14.125
50476W        W17259  44.610  20.698   3.670
50477W        W17260  29.949  38.687  13.044
50478W        W17261  14.412  23.115  13.298
50479W        W17262  26.721  33.664  14.796
50480W        W17263  20.992   8.342  14.318
50481W        W17264  24.638  16.824   4.086
50482W        W17265  25.823   0.318  13.857
50483W        W17266  22.490  38.554  10.900
50484W        W17267  17.452   5.835   1.248
50485W        W17268  27.683  41.277   2.194
50486W        W17269  35.167  17.506  13.386
50487W        W17270  15.160  18.158  14.679
50488W        W17271  21.557   6.779   4.626
50489W        W17272  33.065  13.734   4.872
50490W        W17273   1.531  26.979  12.952
50491W        W17274   1.397  11.351   3.820
50492W        W17275   4.422  10.447   2.975
50493W        W17276  23.444  39.903   0.486
50494W        W17277   0.844  43.305   4.616
50495W        W17278   3.604  27.456  11.577
50496W        W17279  12.914  15.788   2.435
50497W        W17280  29.639  39.704   1.026
50498W        W17281  31.247   6.885   3.686
50499W        W17282  40.928  38.016  13.852
50500W        W17283  23.215  43.985  14.327
50501W        W17284  12.031  18.715  11.277
50502W        W17285  31.003   7.309   1.253
50503W        W17286   8.419  25.494  11.911
50504W        W17287  31.458   2.235   3.366
50505W        W17288  27.960  25.387   2.600
50506W        W17289   8.268  18.977  14.940
50507W        W17290   4.954  19.992   3.194
50508W        W17291  11.911  17.514   0.389
50509W        W17292   4.866   7.324  10.760
50510W        W17293  20.026  44.002   0.813
50511W        W17294  32.073   5.948  11.964
50512W        W17295  25.041  36.311   3.041
50513W        W17296  26.242  18.159  14.330
50514W        W17297   9.315  16.868   3.824
50515W        W17298  32.983  42.162   2.852
50516W        W17299  41.584  28.974   3.667
50517W        W17300  31.072  11.820   2.143
50518W        W17301  19.196  33.401   1.040
50519W        W17302  42.943  20.152   3.814
50520W        W17303  33.065   6.629   1.009
50521W        W17304  28.959  27.180   0.340
50522W        W17305  39.642  23.755   0.447
50523W        W17306  22.979   5.318   1.924
50524W        W17307   9.410  24.233  14.854
50525W        W17308   4.797  44.319   2.263
50526W        W17309  28.050  38.530  11.067
50527W        W17310  32.591  19.138   0.806
50528W        W17311  31.059  28.025  14.373
50529W        W17312  29.419  28.893  11.474
50530W        W17313  26.159  27.453  14.362
50531W        W17314  39.569  28.046  13.364
50532W        W17315  18.637  26.142  10.777
50533W        W17316  31.640  25.129   4.884
50534W        W17317  32.158  23.143   1.916
50535W        W17318  42.036  10.064  13.739
50536W        W17319  24.897  43.341   0.318
50537W        W17320   0.688  32.084  12.156
50538W        W17321  32.476  35.436  13.331
50539W        W17322   1.575  11.079   2.215
50540W        W17323   0.084   6.845  10.422
50541W        W17324   1.230  27.068   1.168
50542W        W17325  26.997  20.015   0.735
50543W        W17326  12.279  26.212  12.983
50544W        W17327   9.584  44.899  13.933
50545W        W17328   2.682  14.587  10.726
50546W        W17329  25.059  19.429  13.776
50547W        W17330  30.297  18.583   5.070
50548W        W17331   0.431  14.147  14.306
50549W        W17332  40.037  27.826   5.168
50550W        W17333  29.517   6.284  13.045
50551W        W17334  24.788   3.948  10.754
50552W        W17335  39.127   4.057   2.819
50553W        W17336  22.297   3.872   1.709
50554W        W17337  21.667   6.296   3.681
50555W        W17338   3.973  44.692  12.462
50556W        W17339   7.578  11.628  13.091
50557W        W17340   3.407   4.887  13.817
50558W        W17341  43.755  39.574  12.019
50559W        W17342  43.569  27.513  11.629
50560W        W17343  29.135  22.250  12.067
50561W        W17344  13.781  39.715   3.973
50562W        W17345   9.608  13.385   3.743
50563W        W17346  40.907   3.445   4.593
50564W        W17347  40.980  20.014  11.042
50565W        W17348  21.374  40.792   5.006
50566W        W17349   9.170  11.383  10.998
50567W        W17350  23.976  36.588   4.249
50568W        W17351  15.593  19.950   0.285
50569W        W17352  43.470  27.844   1.800
50570W        W17353   7.961  27.712   3.766
50571W        W17354  33.132  13.129  11.097
50572W        W17355  17.097  22.139  13.958
50573W        W17356  28.074  44.298  13.567
50574W        W17357  37.329   3.400  12.079
50575W        W17358  20.501   6.714  11.682
50576W        W17359  15.776   0.907  10.712
50577W        W17360  25.006   6.233   1.870
50578W        W17361  36.961  22.339   1.701
50579W        W17362  20.546   6.419  13.281
50580W        W17363  36.318  26.061   1.034
50581W        W17364   9.655   8.000   0.005
50582W        W17365  29.613  22.522  14.524
50583W        W17366  40.780   0.576  13.207
50584W        W17367  44.719  30.925  14.846
50585W        W17368  21.028  38.958  12.018
50586W        W17369  42.536  30.063   0.327
50587W        W17370  11.227  29.490  14.265
50588W        W17371   1.468   6.216   3.879
50589W        W17372  38.272   5.800  14.439
50590W        W17373  21.044  27.921   2.746
50591W        W17374  36.997   5.889   2.303
50592W        W17375  19.360  17.238  12.078
50593W        W17376  40.786   8.181  13.307
50594W        W17377  21.095   5.703   0.331
50595W        W17378  36.150  26.538   0.401
50596W        W17379  39.027  18.834  11.965
50597W        W17380   7.576  43.319   2.644
50598W        W17381  24.355  27.716  10.392
50599W        W17382  37.325  19.673  13.233
50600W        W17383   4.891  19.609  13.993
50601W        W17384  42.979   7.994   3.876
50602W        W17385  33.505  24.156  14.335
50603W        W17386  41.604  44.346   4.571
50604W        W17387  38.651  15.337   3.228
50605W        W17388  32.067  22.870  13.494
50606W        W17389  19.221  28.441   2.356
50607W        W17390  43.898  12.879  13.113
50608W        W17391  33.665  23.920   0.079
50609W        W17392  27.245  27.977   4.178
50610W        W17393  22.016   3.982  13.008
50611W        W17394  15.791   9.823   1.917
50612W        W17395  40.209   2.304   2.800
50613W        W17396  40.309  31.536   3.600
50614W        W17397   8.660  31.593   2.168
50615W        W17398   0.361  30.166   2.190
50616W        W17399   2.978  44.851  10.699
50617W        W17400  39.560  30.976   0.536
50618W        W17401  37.870  31.117  11.020
50619W        W17402  15.949  27.138   0.239
50620W        W17403   2.167   0.442  11.166
50621W        W17404  20.212   4.735   4.697
50622W        W17405  17.297  18.964   0.871
50623W        W17406  15.395  35.330   1.885
50624W        W17407   9.219  17.413  13.026
50625W        W17408  18.106  23.628   2.589
50626W        W17409  35.336  30.755  10.731
50627W        W17410  24.398  19.511  14.957
50628W        W17411   0.486   3.707   0.836
50629W        W17412  28.624  25.106   2.789
50630W        W17413   2.259  27.206   3.289
50631W        W17414   7.991  40.115  12.317
50632W        W17415  27.489  27.416   0.587
50633W        W17416   9.117  35.428  11.148
50634W        W17417   8.767   7.482  14.899
50635W        W17418  34.882  34.427   1.332
50636W        W17419  33.076  37.549   3.741
50637W        W17420   8.565   4.285   1.046
50638W        W17421  12.825  19.526  11.007
50639W        W17422  27.795  22.101  14.945
50640W        W17423   6.368   7.440  10.675
50641W        W17424  14.390  13.321  14.123
50642W        W17425   0.875  31.607  13.624
50643W        W17426  12.648  26.629  12.287
50644W        W17427  20.524  36.983   4.547
50645W        W17428  42.775  29.642  12.444
50646W        W17429  24.471  22.659  10.806
50647W        W17430  44.048  39.929  11.793
50648W        W17431  31.906  29.489   2.663
50649W        W17432   4.967  29.491   3.284
50650W        W17433  16.700  26.659   2.233
50651W        W17434  18.617  20.672  12.875
50652W        W17435  23.454  44.352  10.365
50653W        W17436  22.420  35.633  12.894
50654W        W17437  12.875  15.286   3.114
50655W        W17438  26.037  24.991   3.126
50656W        W17439  33.069  13.651   4.365
50657W        W17440  43.476  44.355   1.444
50658W        W17441  19.590  37.306   0.416
50659W        W17442  19.659  30.143  13.922
50660W        W17443  18.143  39.645  10.364
50661W        W17444  36.875   3.291  13.016
50662W        W17445  20.695  14.822   9.844
50663W        W17446   1.170  12.513  12.605
50664W        W17447  32.666  17.349   1.747
50665W        W17448  37.828   4.252   1.829
50666W        W17449  22.112  30.970   0.853
50667W        W17450  44.507  19.282  12.490
50668W        W17451  29.958  11.414   0.453
50669W        W17452   4.373  43.926  10.582
50670W        W17453  39.881  32.200   2.898
50671W        W17454   5.139  43.332   2.308
50672W        W17455   2.723  44.293   4.564
50673W        W17456  15.946  12.673   5.093
50674W        W17457  37.319  24.209   4.897
50675W        W17458  14.694  39.790   0.322
50676W        W17459  29.623   5.254   2.809
50677W        W17460  43.527   1.193   1.704
50678W        W17461  25.267  27.542  12.020
50679W        W17462   7.497  21.477  14.900
50680W        W17463  24.190  38.558  13.741
50681W        W17464  23.327  27.546  13.510
50682W        W17465  28.637  13.089  13.622
50683W        W17466  44.967   1.031  14.980
50684W        W17467  22.915  10.129   4.971
50685W        W17468  14.345  15.604  11.615
50686W        W17469   8.636  40.466   2.783
50687W        W17470   1.832  33.729  11.505
50688W        W17471  24.555   9.402  11.603
50689W        W17472  31.533  16.579  12.066
50690W        W17473   5.443  40.538  12.019
50691W        W17474  41.056  25.999  14.915
50692W        W17475   2.873  30.491  13.796
50693W        W17476   4.163  15.804  14.915
50694W        W17477  43.392  36.906   2.661
50695W        W17478  36.025  33.833  12.802
50696W        W17479  24.502  19.079   2.666
50697W        W17480  32.057  17.838   1.053
50698W        W17481  38.153  16.477   3.168
50699W        W17482  35.515  17.983  11.477
50700W        W17483  35.919  44.236  14.448
50701W        W17484  30.894  20.230   9.793
50702W        W17485  32.036   2.077   2.612
50703W        W17486  12.247  14.256   1.087
50704W        W17487  41.830  26.902  14.849
50705W        W17488  13.109  11.823   1.175
50706W        W17489  23.491   4.439   0.964
50707W        W17490  40.077  42.244  12.601
50708W        W17491   7.922   0.949  14.495
50709W        W17492  11.206   4.423  10.573
50710W        W17493   8.642  29.875  12.561
50711W        W17494   1.032  35.976   0.829
50712W        W17495  42.829   1.429   4.138
50713W        W17496  29.636  34.480   2.042
50714W        W17497  22.201   9.415   4.149
50715W        W17498   7.837  38.301  13.331
50716W        W17499  14.773  42.269   4.763
50717W        W17500  36.995   4.986   4.091
50718W        W17501  29.513  36.525  11.494
50719W        W17502  16.292  44.383  11.196
50720W        W17503   4.759  38.850  11.536
50721W        W17504   4.211  20.259  11.238
50722W        W17505  21.148  44.474  12.501
50723W        W17506  22.490  27.690   0.874
50724W        W17507  18.356  37.089  14.896
50725W        W17508   9.744  27.145  14.258
50726W        W17509  43.632  24.637   0.994
50727W        W17510  29.179  22.024  11.608
50728W        W17511  31.884  25.561   1.486
50729W        W17512  17.489   1.753  12.969
50730W        W17513  23.015   0.059   3.717
50731W        W17514  30.638  21.793   0.690
50732W        W17515  17.644  35.562  14.249
50733W        W17516   5.285  16.162  13.740
50734W        W17517   4.461  31.575   0.463
50735W        W17518  38.622  36.479   0.917
50736W        W17519  19.526   5.010   2.671
50737W        W17520  36.201  32.027  13.042
50738W        W17521  26.372  44.355  11.853
50739W        W17522  17.654   3.414  14.962
50740W        W17523  12.770   4.505   3.269
50741W        W17524  39.253   3.433  13.782
50742W        W17525  37.500   5.002  13.841
50743W        W17526  19.088  12.181   4.727
50744W        W17527   2.885  17.857   2.459
50745W        W17528  38.614  30.052   0.997
50746W        W17529  19.992   7.486  13.108
50747W        W17530  28.426  39.665  12.293
50748W        W17531  27.577   9.781   4.769
50749W        W17532  25.962  36.981  14.669
50750W        W17533  11.194  35.530  14.883
50751W        W17534  37.543  16.400  10.591
50752W        W17535  26.324  40.564   0.995
50753W        W17536  17.641  27.146  11.888
50754W        W17537  16.509  11.611  13.183
50755W        W17538  26.073  31.968  11.957
50756W        W17539  39.512   4.790  12.056
50757W        W17540  17.794  19.559  12.691
50758W        W17541  16.641   5.766   0.076
50759W        W17542  13.104  36.333   2.431
50760W        W17543   0.368  38.141   0.226
50761W        W17544  41.840   4.173  10.864
50762W        W17545  14.794  33.613  11.418
50763W        W17546  22.568  28.309   4.161
50764W        W17547  30.889  37.773  11.231
50765W        W17548  14.880  15.165   4.069
50766W        W17549  16.119  18.870  13.463
50767W        W17550  22.449  32.372  13.897
50768W        W17551  33.819  27.148   0.296
50769W        W17552  32.665  37.554  12.208
50770W        W17553  20.760  33.309   4.152
50771W        W17554  22.868  12.414  11.615
50772W        W17555   9.984  17.668   0.937
50773W        W17556  30.495   2.942  13.918
50774W        W17557   5.567  13.105   4.713
50775W        W17558  22.491  30.440  10.198
50776W        W17559  16.602  23.705   4.058
50777W        W17560   6.742   4.724  12.795
50778W        W17561  17.859  23.163  11.969
50779W        W17562  37.980  26.627  13.742
50780W        W17563  35.057  28.473  11.643
50781W        W17564  37.309  25.554   3.665
50782W        W17565  12.367  28.501  13.470
50783W        W17566  24.741  15.182  12.976
50784W        W17567   1.440  27.279  10.979
50785W        W17568  12.125  13.581  13.780
50786W        W17569  34.609  36.833   2.848
50787W        W17570   8.216  36.032   0.491
50788W        W17571  20.731  22.965   4.260
50789W        W17572   0.469   1.241   0.758
50790W        W17573  25.146  35.777  14.356
50791W        W17574  31.116  18.228   1.216
50792W        W17575   0.531  37.565   1.769
50793W        W17576  39.505   3.713  11.180
50794W        W17577   5.628  10.728  12.615
50795W        W17578  23.563  28.439   1.413
50796W        W17579  18.042  35.934   4.682
50797W        W17580  22.856   3.277  12.937
50798W        W17581  15.381  16.138   3.469
50799W        W17582  11.191  41.868  13.945
50800W        W17583  28.267  16.491   0.617
50801W        W17584  30.174  39.122  14.984
50802W        W17585  43.860   3.109   3.813
50803W        W17586  28.994  27.769   4.687
50804W        W17587  15.286  30.971   3.347
50805W        W17588   1.929  39.528  12.253
50806W        W17589  27.715  12.295   0.890
50807W        W17590  21.331  30.703   3.973
50808W        W17591   4.843   8.886   0.064
50809W        W17592  16.523  20.856   0.466
50810W        W17593   1.857  17.298   1.738
50811W        W17594  25.918  27.691  11.056
50812W        W17595  26.178  38.277   2.848
50813W        W17596  23.713   9.246   4.233
50814W        W17597  31.687  41.911  14.321
50815W        W17598   7.310  13.097   0.153
50816W        W17599  19.699  14.258  11.462
50817W        W17600  21.143  44.995  12.551
50818W        W17601  21.632  11.160  13.572
50819W        W17602  24.958  43.878  11.093
50820W        W17603  25.208  32.874   4.499
50821W        W17604  41.901  44.068  10.734
50822W        W17605  22.467  35.137  12.149
50823W        W17606  26.232   2.236   0.764
50824W        W17607   2.874   3.446  14.978
50825W        W17608   8.233  42.294   0.250
50826W        W17609  19.104   8.361  14.184
50827W        W17610  28.835  42.927  11.444
50828W        W17611  39.983  16.367   2.427
50829W        W17612  21.064  15.503  13.394
50830W        W17613  40.999  26.120   3.287
50831W        W17614  33.072  33.139   2.854
50832W        W17615  36.998  35.870  14.544
50833W        W17616  30.065   9.614  14.918
50834W        W17617  38.515  28.891   1.664
50835W        W17618  37.568  24.713  10.500
50836W        W17619  15.491   4.196  12.283
50837W        W17620   6.760  36.409   4.629
50838W        W17621  39.071  22.433   4.891
50839W        W17622   7.235  43.392   4.893
50840W        W17623   3.484  41.023   0.438
50841W        W17624  15.337  31.984  14.003
50842W        W17625  33.575   3.759   4.174
50843W        W17626   6.394  31.138  11.680
50844W        W17627  39.992  20.720  11.298
50845W        W17628   0.449  10.250   3.197
50846W        W17629  24.680  38.929   0.780
50847W        W17630  20.034  17.652   2.864
50848W        W17631  33.917  35.082  14.338
50849W        W17632  19.569  44.796   2.379
50850W        W17633  16.767  44.011  11.814
50851W        W17634  24.207  39.011  10.891
50852W        W17635  37.495  14.846  10.623
50853W        W17636  27.517  34.661  14.444
50854W        W17637  23.629   4.109   4.584
50855W        W17638  34.647  23.533  13.104
50856W        W17639   0.963   8.360  11.511
50857W        W17640  26.502  34.472   1.211
50858W        W17641  24.051  21.009   0.427
50859W        W17642  44.401  44.859   0.725
50860W        W17643  41.847  25.543  10.990
50861W        W17644  22.769  13.752   1.356
50862W        W17645   8.396  25.075  11.606
50863W        W17646  37.760  43.032  12.686
50864W        W17647  44.794  29.434  14.907
50865W        W17648  18.783  43.421   3.813
50866W        W17649  37.558   6.850  10.338
50867W        W17650  19.065  42.236   0.160
50868W        W17651  31.066  31.852   1.372
50869W        W17652  22.656  12.633   0.646
50870W        W17653  21.158   4.277   0.853
50871W        W17654  17.221  42.851   2.889
50872W        W17655   4.699  20.136  11.143
50873W        W17656  21.132  24.596  11.476
50874W        W17657  19.109   4.810   4.512
50875W        W17658  33.980  41.527   4.565
50876W        W17659  31.958  44.973  12.523
50877W        W17660  35.319  17.203   3.796
50878W        W17661  37.623   5.264  11.360
50879W        W17662  15.299   9.560  11.604
50880W        W17663  12.839  44.254   3.807
50881W        W17664  15.059  35.869  11.715
50882W        W17665  12.004  32.682   4.378
50883W        W17666  28.045  18.353  13.492
50884W        W17667  13.176  26.206   1.192
50885W        W17668  31.068   7.450  14.343
50886W        W17669  13.227  10.919  14.390
50887W        W17670  15.161  35.716   0.907
50888W        W17671   4.435  11.308   3.400
50889W        W17672  30.859   9.488   1.316
50890W        W17673   7.054   7.607  11.150
50891W        W17674  35.090  15.158   3.155
50892W        W17675  18.101   6.499   1.786
50893W        W17676  24.609  19.230   0.352
50894W        W17677  10.220  14.778   3.500
50895W        W17678  23.973  15.725  14.846
50896W        W17679  35.852  29.651   0.912
50897W        W17680  42.995  24.724  11.089
50898W        W17681  16.213  21.104   4.025
50899W        W17682  30.557  30.386  14.343
50900W        W17683  18.901  36.084  11.123
50901W        W17684   5.251  37.793  13.054
50902W        W17685  16.889  23.464   3.166
50903W        W17686  41.781  32.990  12.084
50904W        W17687  25.630  12.828   1.346
50905W        W17688   8.932  10.201   4.494
50906W        W17689  27.655  37.645   1.165
50907W        W17690  29.555  25.630  11.575
50908W        W17691  44.027  25.529   4.465
50909W        W17692  11.758  32.467   1.243
50910W        W17693  32.493  40.290  14.709
50911W        W17694  36.841  41.620  12.512
50912W        W17695  11.281  34.831   3.228
50913W        W17696  24.594  44.992  14.898
50914W        W17697   4.509  28.398   4.145
50915W        W17698  11.609  15.588   1.920
50916W        W17699  25.206  17.731  13.831
50917W        W17700  33.631   3.327  12.107
50918W        W17701  32.133  33.388   4.523
50919W        W17702  32.584  40.038   2.255
50920W        W17703  32.459  17.566   5.556
50921W        W17704  22.427  39.475  14.855
50922W        W17705  27.113  22.077   3.943
50923W        W17706   1.922  21.209   1.591
50924W        W17707  20.605  15.025   1.534
50925W        W17708  41.469  32.627   1.533
50926W        W17709  30.082   6.890   1.318
50927W        W17710  36.813  26.760  12.934
50928W        W17711  32.933  22.285   2.426
50929W        W17712  28.725  30.124  11.870
50930W        W17713  36.821  35.899   0.504
50931W        W17714   8.194  34.817  12.477
50932W        W17715   3.881  17.887  13.578
50933W        W17716  39.799  12.213   0.345
50934W        W17717  15.329  14.367  11.138
50935W        W17718   0.748  29.882  13.758
50936W        W17719   3.313  22.917   4.082
50937W        W17720  38.956   0.871  13.139
50938W        W17721  43.730  15.382   1.753
50939W        W17722  42.868  13.899  14.489
50940W        W17723  12.076  43.429   0.443
50941W        W17724  24.048  18.661   0.961
50942W        W17725  38.454  28.601   0.223
50943W        W17726  30.535   8.939   3.265
50944W        W17727  35.376   1.203   4.570
50945W        W17728  24.619  33.335   2.339
50946W        W17729  34.314  28.941   1.419
50947W        W17730  34.967   7.240   3.329
50948W        W17731   9.228  30.443  14.286
50949W        W17732  10.776  26.258   4.554
50950W        W17733  40.620  38.007  12.504
50951W        W17734   4.400  39.616  11.383
50952W        W17735   4.356   8.912   0.305
50953W        W17736  11.366  36.676  14.304
50954W        W17737  41.488   7.440  11.938
50955W        W17738   1.467  19.163  12.600
50956W        W17739  25.236  23.357  13.523
50957W        W17740  35.000  25.767  11.138
50958W        W17741  21.693  30.575   2.371
50959W        W17742  21.683  29.081   3.025
50960W        W17743  19.140   3.206   1.913
50961W        W17744  12.389  14.379   0.373
50962W        W17745  37.678  21.227  11.536
50963W        W17746  14.085  41.836  14.495
50964W        W17747   3.049  11.806  10.660
50965W        W17748  23.654  35.079  11.845
50966W        W17749  32.424  37.664   1.670
50967W        W17750  31.631  14.645   3.177
50968W        W17751  19.677   4.649   1.865
50969W        W17752  38.830  30.079  11.462
50970W        W17753  20.625   3.260  13.392
50971W        W17754  19.286   2.228   3.506
50972W        W17755  39.883   5.255   0.855
50973W        W17756   4.584  19.262  12.059
50974W        W17757  40.587  13.195  10.714
50975W        W17758  38.777  33.393  14.810
50976W        W17759  32.236   1.227   4.429
50977W        W17760  42.498  35.023   0.305
50978W        W17761  43.219   9.635   2.583
50979W        W17762  43.506  30.593  10.670
50980W        W17763  33.856   8.275   2.212
50981W        W17764  39.556  31.482  10.880
50982W        W17765  21.478  18.786  14.801
50983W        W17766  25.084  25.090  12.077
50984W        W17767  11.514  33.251   1.616
50985W        W17768  35.424  38.992   2.679
50986W        W17769  28.735  19.252  12.813
50987W        W17770   4.865  20.035  12.375
50988W        W17771  11.778  21.872  13.568
50989W        W17772  24.591  16.125  12.332
50990W        W17773  23.573   2.299  12.663
50991W        W17774  21.647  16.596  12.398
50992W        W17775  26.418  40.303   2.659
50993W        W17776  18.512  32.660   1.517
50994W        W17777  29.036  34.834  11.181
50995W        W17778  25.534  21.602  12.445
50996W        W17779   1.942   6.999  13.185
50997W        W17780  15.940  42.406  13.836
50998W        W17781   1.440   6.603  12.410
50999W        W17782  14.595  22.029   0.450
51000W        W17783  33.160   4.349  14.423
51001W        W17784  17.298  26.078   4.386
51002W        W17785   8.656  40.371  13.917
51003W        W17786  36.014  25.103  11.633
51004W        W17787  40.706  40.787   3.613
51005W        W17788  18.714  30.759  11.104
51006W        W17789  43.954  35.806  10.712
51007W        W17790  40.968  14.250  14.066
51008W        W17791  37.818   2.871  14.920
51009W        W17792  24.739   0.085  10.361
51010W        W17793  23.492  22.193   2.765
51011W        W17794  13.619   3.372   4.725
51012W        W17795  39.968  30.338  13.176
51013W        W17796  12.179   5.812   3.866
51014W        W17797  37.777  34.415  14.722
51015W        W17798   1.390  41.919   0.833
51016W        W17799   4.875  32.822   3.418
51017W        W17800  29.110  37.515  12.031
51018W        W17801  33.974  32.571   4.616
51019W        W17802  23.337  28.750  14.188
51020W        W17803  11.962   6.354  13.875
51021W        W17804   2.564  15.804  10.138
51022W        W17805  28.128  36.677  12.449
51023W        W17806  18.248  27.096  14.415
51024W        W17807  28.233  10.115  14.407
51025W        W17808  22.311  22.886  11.497
51026W        W17809  22.080  29.460  14.906
51027W        W17810  13.726  27.239   2.949
51028W        W17811  15.819   7.592   4.513
51029W        W17812  26.978  13.218   1.255
51030W        W17813  25.989  29.809   0.297
51031W        W17814  42.443  43.647   2.817
51032W        W17815  37.956   6.929  12.585
51033W        W17816  39.735  21.177   2.649
51034W        W17817  28.113  27.445   4.162
51035W        W17818  11.942  16.275  14.376
51036W        W17819  15.202  43.851  11.745
51037W        W17820  29.462   1.422   0.633
51038W        W17821  18.222  25.405   2.150
51039W        W17822  38.177   6.144  10.027
51040W        W17823  10.281  25.605   2.204
51041W        W17824   6.399   4.868  10.588
51042W        W17825  44.958  15.451  12.640
51043W        W17826   5.943  36.735  12.512
51044W        W17827  29.086  25.502  10.683
51045W        W17828  32.380   0.304   4.376
51046W        W17829  31.441  25.520   1.236
51047W        W17830  43.394  22.078   0.340
51048W        W17831   6.133  42.761  11.758
51049W        W17832   4.371  33.976   0.638
51050W        W17833  19.696  14.624   1.428
51051W        W17834  28.152  42.972   0.440
51052W        W17835  34.640  43.467   4.204
51053W        W17836  39.045  36.883   4.619
51054W        W17837  18.938  26.471   2.829
51055W        W17838  41.676  14.901  11.555
51056W        W17839   2.371  31.087   2.562
51057W        W17840  13.651   2.312   1.974
51058W        W17841  26.327  37.861   4.171
51059W        W17842   3.527  19.186  13.332
51060W        W17843  36.478  27.217  10.703
51061W        W17844  43.356  25.609   0.272
51062W        W17845  16.352  19.791   1.959
51063W        W17846  25.997  40.181  12.959
51064W        W17847  12.242  24.054  11.910
51065W        W17848   9.858  33.586  13.365
51066W        W17849  44.951  17.219   1.732
51067W        W17850  23.730  44.100  11.688
51068W        W17851  37.556   6.881  14.278
51069W        W17852  29.055  40.048  10.513
51070W        W17853  17.749   0.833   2.863
51071W        W17854  16.344  15.340   1.274
51072W        W17855  40.212  33.486  13.303
51073W        W17856   5.337  40.026  13.132
51074W        W17857  38.819   9.159  10.596
51075W        W17858  26.619   7.855  10.641
51076W        W17859  13.877  20.836  14.506
51077W        W17860  40.472  17.384   3.739
51078W        W17861  20.180  33.354  10.344
51079W        W17862  26.680  19.462  13.521
51080W        W17863  39.434  40.860   4.680
51081W        W17864   8.992  23.649  14.903
51082W        W17865  33.815  37.837  13.586
51083W        W17866  20.625   2.620  10.248
51084W        W17867  13.950  19.470   4.035
51085W        W17868  33.507  36.122  12.421
51086W        W17869  34.465   4.907  12.593
51087W        W17870  14.199  41.735  10.744
51088W        W17871  15.656  25.531  13.658
51089W        W17872  37.822  33.603  11.604
51090W        W17873  35.173  30.579  14.990
51091W        W17874   0.921   4.730   4.067
51092W        W17875  42.810  25.655  13.120
51093W        W17876  14.567  44.922  14.764
51094W        W17877  22.248  22.625  11.070
51095W        W17878  15.823  23.049  14.505
51096W        W17879  40.091   3.480   9.962
51097W        W17880  28.140  10.430  10.989
51098W        W17881   8.666   7.721  12.034
51099W        W17882  16.155  44.759   2.390
51100W        W17883  37.051  15.715   2.490
51101W        W17884  25.013  34.272   3.488
51102W        W17885  41.508   5.210   1.413
51103W        W17886   5.194  32.021  13.751
51104W        W17887  18.338  29.525   1.483
51105W        W17888  39.263  19.680   1.693
51106W        W17889   2.022  30.462   2.622
51107W        W17890  13.630  34.432  14.969
51108W        W17891  38.888  31.657   3.248
51109W        W17892  35.941  34.162  14.842
51110W        W17893  32.173  42.953  12.879
51111W        W17894  32.575  31.187  12.382
51112W        W17895   9.460  18.070   1.533
51113W        W17896   6.640  23.965  13.442
51114W        W17897  43.839  14.182   0.881
51115W        W17898  15.577  23.755   4.199
51116W        W17899   7.441  25.150   1.419
51117W        W17900  41.556  35.470  13.023
51118W        W17901   1.202  26.670   3.511
51119W        W17902  23.129  18.546  13.339
51120W        W17903  34.502  34.380  10.560
51121W        W17904  40.287   3.555  14.960
51122W        W17905  37.889  27.149  12.015
51123W        W17906   8.565   0.944   3.101
51124W        W17907   8.800  44.760  13.461
51125W        W17908  39.351   8.114  14.629
51126W        W17909  17.550   2.848  13.035
51127W        W17910  41.874  40.979   0.920
51128W        W17911  43.459  12.743   1.182
51129W        W17912  24.168  28.493   3.257
51130W        W17913  39.434  25.433   0.906
51131W        W17914  10.242  42.371   0.911
51132W        W17915   4.646  41.078  14.794
51133W        W17916  27.019  25.742   2.193
51134W        W17917  12.047  25.844  13.252
51135W        W17918   9.537  20.292  13.489
51136W        W17919  10.885  22.700  14.871
51137W        W17920   6.848  21.250   4.325
51138W        W17921  35.389   5.437   1.628
51139W        W17922  38.812  34.591   3.213
51140W        W17923  24.283  23.300   0.692
51141W        W17924   1.257  18.236  14.451
51142W        W17925   7.344   4.608  13.927
51143W        W17926   8.004   5.421  14.888
51144W        W17927  40.840  21.110   0.452
51145W        W17928   9.044  24.824  11.294
51146W        W17929  44.990  40.671   4.659
51147W        W17930  10.009  13.186   0.070
51148W        W17931   7.572  38.647   1.895
51149W        W17932  39.533  14.162  11.303
51150W        W17933  14.528   3.387   3.342
51151W        W17934   4.325  32.937  10.725
51152W        W17935  15.270  28.201   2.629
51153W        W17936  31.532  37.326   0.342
51154W        W17937  41.420   6.391  12.667
51155W        W17938  42.006  29.084   1.212
51156W        W17939   3.831  15.184  11.548
51157W        W17940  35.004  10.329   3.359
51158W        W17941  41.523  32.649   3.339
51159W        W17942   9.218   6.120   1.311
51160W        W17943  34.596  42.038   3.624
51161W        W17944   1.621  14.241  14.842
51162W        W17945  20.560  20.617   1.609
51163W        W17946   7.698  34.136  13.952
51164W        W17947  44.673  44.751  14.855
51165W        W17948   7.286  34.293  12.452
51166W        W17949  36.594  27.986   1.075
51167W        W17950   4.898  32.436  10.779
51168W        W17951   4.621  32.929  11.145
51169W        W17952  28.496  14.710  12.669
51170W        W17953  40.743  13.500  11.475
51171W        W17954  30.512  40.622   1.749
51172W        W17955  21.542  13.280  11.537
51173W        W17956  14.794   9.735  10.457
51174W        W17957   3.962  21.672  13.233
51175W        W17958   8.336  18.769   2.790
51176W        W17959   3.214  35.088  14.369
51177W        W17960   7.497  14.906  13.756
51178W        W17961  11.678  19.773  12.959
51179W        W17962  27.725  27.227  11.391
51180W        W17963  31.999  21.038  14.399
51181W        W17964  39.898  22.769  12.744
51182W        W17965  11.080   5.726  12.509
51183W        W17966  17.294   8.641   4.546
51184W        W17967  23.763  25.480   0.872
51185W        W17968  15.797  38.787  10.633
51186W        W17969   9.848  30.942   3.116
51187W        W17970  18.176  32.961  13.953
51188W        W17971  25.176  13.192  14.787
51189W        W17972  30.078  39.892  10.439
51190W        W17973  34.634  20.437  14.604
51191W        W17974   7.496  29.946   4.427
51192W        W17975  13.135  13.198   4.519
51193W        W17976  36.675  19.715   4.487
51194W        W17977  24.174  22.639  13.986
51195W        W17978  28.998  26.368   3.116
51196W        W17979   4.344  32.187  11.557
51197W        W17980  43.543  35.116   3.356
51198W        W17981  17.106   3.792  12.912
51199W        W17982  38.553  42.975   2.858
51200W        W17983  28.074  32.014  10.735
51201W        W17984  32.076  25.359  11.885
51202W        W17985   8.909  34.904   2.912
51203W        W17986  17.149  15.257   3.592
51204W        W17987  37.485  12.736  10.718
51205W        W17988  13.480  30.186  13.856
51206W        W17989   6.482  15.199  12.960
51207W        W17990  28.125  22.554  12.045
51208W        W17991  15.934  24.489   3.355
51209W        W17992  36.767  16.298   0.371
51210W        W17993  36.128  38.570  11.989
51211W        W17994   2.754  39.891  14.495
51212W        W17995  12.621  30.683   0.708
51213W        W17996  20.118   1.227   0.028
51214W        W17997  13.828  41.548  12.023
51215W        W17998  18.202  18.907  11.955
51216W        W17999   3.652   2.425   2.387
51217W        W18000  20.671  28.522   3.613
51218W        W18001  40.326  11.692  13.007
51219W        W18002  10.292   6.799   4.204
51220W        W18003  15.681  44.413   0.242
51221W        W18004   8.789  33.611   4.832
51222W        W18005  13.639  27.848  12.817
51223W        W18006  27.981   2.580   0.844
51224W        W18007  43.335  23.471  14.513
51225W        W18008  10.232  17.113   1.772
51226W        W18009  25.916  19.019  12.913
51227W        W18010  15.742   6.968   1.659
51228W        W18011  27.424  31.440   1.869
51229W        W18012  43.669   6.204   4.667
51230W        W18013   6.708  37.392  14.817
51231W        W18014  10.765  14.157   3.869
51232W        W18015  26.579   1.831  11.991
51233W        W18016  39.003  22.576   2.974
51234W        W18017  34.633  15.033  12.400
51235W        W18018   4.716  14.074   4.145
51236W        W18019  29.391  19.750  14.422
51237W        W18020  26.680  26.526  12.253
51238W        W18021  21.701  24.670   1.917
51239W        W18022  22.050   1.241   3.610
51240W        W18023  27.923   9.585  13.167
51241W        W18024  42.933  35.885   1.272
51242W        W18025  40.044  13.291  11.553
51243W        W18026  42.783  12.886  14.496
51244W        W18027  31.634   3.787  13.888
51245W        W18028  18.572  10.314   2.769
51246W        W18029  10.823   4.167  13.869
51247W        W18030  42.305  23.527   2.669
51248W        W18031  37.609   4.430   2.278
51249W        W18032  17.018  44.482  13.443
51250W        W18033  26.158  37.985  11.315
51251W        W18034  33.522  21.831   4.707
51252W        W18035  18.864   1.706   4.263
51253W        W18036  40.849  23.530   4.334
51254W        W18037   5.299  29.037  13.426
51255W        W18038  22.587  44.369  14.274
51256W        W18039   1.940  25.810   0.528
51257W        W18040  17.756  35.490   1.521
51258W        W18041  34.589  14.523  11.596
51259W        W18042  10.260  36.278  12.920
51260W        W18043  35.987  12.880   1.298
51261W        W18044  25.669  19.535   0.380
51262W        W18045  43.417   8.403   1.630
51263W        W18046   4.847  24.796  14.283
51264W        W18047  25.683   0.210  10.241
51265W        W18048  11.530  16.789   4.933
51266W        W18049  42.595  22.075  11.046
51267W        W18050   4.617  39.328  12.642
51268W        W18051   4.508  27.289   4.513
51269W        W18052  28.739  19.677  12.153
51270W        W18053  27.953  19.666  10.209
51271W        W18054  27.711  26.575   3.286
51272W        W18055  34.561  43.721  10.700
51273W        W18056  22.111  28.225  14.226
51274W        W18057  27.697  37.242   0.340
51275W        W18058  40.269  30.009   3.274
51276W        W18059  27.212   9.800   3.720
51277W        W18060  26.423  24.714   5.503
51278W        W18061  21.718   0.254   0.913
51279W        W18062  34.089  28.760  14.415
51280W        W18063  30.100  28.048  14.485
51281W        W18064   5.707  31.938   4.131
51282W        W18065  36.573   6.664  12.900
51283W        W18066  29.208  17.580  11.680
51284W        W18067   2.564  18.626   2.359
51285W        W18068  14.076   0.778  11.988
51286W        W18069  42.774   0.685   4.541
51287W        W18070  14.858  32.694  14.392
51288W        W18071  13.811  44.302  14.557
51289W        W18072  19.505   7.258  13.134
51290W        W18073  29.151  37.316   0.297
51291W        W18074  32.341  18.952   4.562
51292W        W18075   6.663  40.851   3.593
51293W        W18076  10.385  31.431  12.423
51294W        W18077  44.489  19.689  10.792
51295W        W18078  14.655  26.015  14.909
51296W        W18079  17.350  31.116  13.467
51297W        W18080  33.414  29.436  12.113
51298W        W18081  11.442  10.396  11.142
51299W        W18082  27.083   2.918   2.636
51300W        W18083  32.333  32.897  13.655
51301W        W18084   8.756   8.222   2.140
51302W        W18085  11.644  40.830  14.910
51303W        W18086  15.018   9.360   3.125
51304W        W18087  35.203  13.769   1.437
51305W        W18088  32.334  39.956   1.820
51306W        W18089  10.351  31.966  10.693
51307W        W18090  11.728  26.195  12.403
51308W        W18091  23.035  23.713   1.306
51309W        W18092   2.514  30.423  11.188
51310W        W18093   1.524  24.775   0.594
51311W        W18094  33.962   8.513  14.496
51312W        W18095  30.185  29.334   3.663
51313W        W18096   7.901  32.466   0.876
51314W        W18097  13.920  11.849   0.831
51315W        W18098  41.435   8.837  11.336
51316W        W18099  35.726  17.582   1.297
51317W        W18100   5.742  35.791  14.440
51318W        W18101  15.609  38.369  12.870
51319W        W18102   0.642   8.174  11.873
51320W        W18103  14.323  20.620   3.168
51321W        W18104  44.766  40.860  14.965
51322W        W18105  32.170  31.559   4.117
51323W        W18106  43.330  37.796  11.083
51324W        W18107  28.648  28.966  11.949
51325W        W18108  10.334  25.158   0.059
51326W        W18109  31.443   4.417   2.946
51327W        W18110   9.446  24.102  11.630
51328W        W18111  35.183  24.960   2.118
51329W        W18112  22.100  36.998   0.040
51330W        W18113  20.066  21.065  12.988
51331W        W18114  15.969  14.069  14.321
51332W        W18115  27.136  31.983   4.365
51333W        W18116   6.285   3.088   4.960
51334W        W18117  38.348  21.600   1.987
51335W        W18118  37.446  43.293  10.550
51336W        W18119   6.071  22.441   3.759
51337W        W18120  21.153   3.923  12.907
51338W        W18121  41.383  19.644  12.552
51339W        W18122  16.732  21.768  10.893
51340W        W18123  20.170  15.181  11.230
51341W        W18124  26.992  39.094   0.275
51342W        W18125   4.359  31.653  14.449
51343W        W18126  20.543   9.709   4.038
51344W        W18127  34.058   1.319   3.631
51345W        W18128   7.733   4.462  12.092
51346W        W18129   1.868  29.843  11.716
51347W        W18130  24.925   9.944  10.771
51348W        W18131  39.275  16.847  11.975
51349W        W18132  39.992  30.213  13.788
51350W        W18133  28.550   7.146   0.551
51351W        W18134  28.060  22.781   1.292
51352W        W18135   3.868  44.970  14.963
51353W        W18136  23.293  18.545   2.253
51354W        W18137   4.328   4.726  11.176
51355W        W18138  14.764  21.639  11.596
51356W        W18139  26.486  11.084  12.448
51357W        W18140  36.453  29.621  14.413
51358W        W18141  43.647  36.492  13.925
51359W        W18142  28.941  26.202   3.591
51360W        W18143  35.811  29.552   1.718
51361W        W18144  38.561  27.111  13.452
51362W        W18145  14.743  25.285   4.933
51363W        W18146   1.463  13.360   1.862
51364W        W18147  10.756  12.304  11.993
51365W        W18148   2.982   3.171   2.666
51366W        W18149   1.171  38.273  14.476
51367W        W18150  32.623  22.933   4.958
51368W        W18151   3.321  19.514  14.933
51369W        W18152   2.850  42.052  11.878
51370W        W18153  28.794  41.786   0.888
51371W        W18154   2.270  34.931  14.295
51372W        W18155  19.695  11.711   4.158
51373W        W18156   6.618  20.501  10.857
51374W        W18157  29.222  32.414   4.547
51375W        W18158  40.469  26.107   3.246
51376W        W18159  27.590  40.764  13.781
51377W        W18160   3.009   3.253  11.143
51378W        W18161  31.849   6.804   1.872
51379W        W18162   0.235  25.730  11.059
51380W        W18163  14.741  43.178   0.269
51381W        W18164  40.825  24.947   4.227
51382W        W18165   9.181  34.681  12.648
51383W        W18166  11.058   9.518  11.962
51384W        W18167  24.957   7.724  13.297
51385W        W18168  16.240  40.611   0.884
51386W        W18169  24.463   4.329   0.705
51387W        W18170   0.466  23.942  11.581
51388W        W18171  23.536  18.393   4.101
51389W        W18172  17.870  21.169  12.364
51390W        W18173  24.236  36.466  11.606
51391W        W18174  26.568  40.508   0.529
51392W        W18175  42.286  31.747   0.877
51393W        W18176   9.150  32.377  11.991
51394W        W18177  35.432  14.081   3.283
51395W        W18178  17.218  38.345   2.285
51396W        W18179  18.436  27.231   0.318
51397W        W18180  27.265  18.625   1.313
51398W        W18181  43.237  25.077  12.444
51399W        W18182  29.138   1.907   2.469
51400W        W18183   4.403  25.641   0.720
51401W        W18184   7.360  37.947   4.726
51402W        W18185  33.348  31.561  12.902
51403W        W18186  38.132  35.919   2.992
51404W        W18187  29.034  39.315   0.345
51405W        W18188  29.571  41.347   4.175
51406W        W18189  11.849   7.173  11.355
51407W        W18190  27.153  17.596  11.545
51408W        W18191  30.098  14.325  12.467
51409W        W18192  15.740  24.261  11.597
51410W        W18193   3.382   8.715  12.070
51411W        W18194  44.883  10.332  11.995
51412W        W18195  25.853  35.912   2.881
51413W        W18196  23.477  16.718   0.532
51414W        W18197   9.276   3.380  11.204
51415W        W18198   9.246  39.931  12.439
51416W        W18199  31.962  31.977  14.834
51417W        W18200   0.695   3.737   2.699
51418W        W18201  43.045  26.403  11.502
51419W        W18202   7.118  35.316   4.835
51420W        W18203   4.809  34.045  12.289
51421W        W18204  37.856  30.532   0.922
51422W        W18205  30.444  25.520   2.712
51423W        W18206  37.892  39.919   4.544
51424W        W18207  26.651  36.383  11.914
51425W        W18208  22.580   5.073  14.883
51426W        W18209   0.753  40.644   5.335
51427W        W18210  11.766  21.517   4.551
51428W        W18211  20.110  12.184   3.716
51429W        W18212  26.433  17.604  14.590
51430W        W18213  43.134  28.069   3.782
51431W        W18214  27.978  18.308  10.777
51432W        W18215  42.374  14.732  14.447
51433W        W18216  43.355  26.147   4.512
51434W        W18217  35.525  38.998  14.584
51435W        W18218  44.690  14.444   4.960
51436W        W18219  10.427  39.859  11.587
51437W        W18220  27.229  22.979   0.797
51438W        W18221  39.383  28.641   1.812
51439W        W18222  41.527  15.090   0.015
51440W        W18223  42.459  44.744  12.002
51441W        W18224  22.484   3.247  14.980
51442W        W18225  32.741  44.994   1.871
51443W        W18226  18.527   7.258   0.263
51444W        W18227  18.809  38.568   4.123
51445W        W18228  31.381  41.429  11.032
51446W        W18229  41.959  17.594   0.296
51447W        W18230  21.592  33.849   4.147
51448W        W18231  17.282   2.436   2.230
51449W        W18232  32.242  31.650  11.196
51450W        W18233   7.655  40.946   2.141
51451W        W18234  19.284   4.289  11.104
51452W        W18235  35.208  40.166   1.952
51453W        W18236   1.028   7.581  10.078
51454W        W18237  31.652  35.281  12.833
51455W        W18238  13.757  41.458  14.313
51456W        W18239  21.541  39.116  13.249
51457W        W18240  19.851  21.512   0.413
51458W        W18241  31.572  32.095  11.234
51459W        W18242  39.617  40.922   0.900
51460W        W18243  19.971   9.241  10.598
51461W        W18244  44.312  14.514   0.088
51462W        W18245  19.298  41.993   1.870
51463W        W18246   7.176  37.120  14.081
51464W        W18247  15.295  28.524   3.341
51465W        W18248   0.379  18.220  14.776
51466W        W18249  35.119  41.861   4.375
51467W        W18250  31.902   4.834  11.563
51468W        W18251  10.149  29.735  10.600
51469W        W18252   8.692  22.042   1.204
51470W        W18253  20.290  22.416  14.435
51471W        W18254  12.912  18.589   0.424
51472W        W18255  15.375  29.846   2.120
51473W        W18256  28.025  33.933   3.381
51474W        W18257  36.787  38.363   1.891
51475W        W18258   1.795  41.741  11.454
51476W        W18259  31.890   0.070  14.316
51477W        W18260  25.187  29.067  10.019
51478W        W18261  32.596  38.989   2.217
51479W        W18262   2.262  16.820   2.786
51480W        W18263  10.762  24.786   3.282
51481W        W18264   5.442   8.227   2.813
51482W        W18265  12.400  25.107   3.229
51483W        W18266  36.990  33.980  13.806
51484W        W18267   3.898   8.449  13.454
51485W        W18268   6.507  35.579  13.984
51486W        W18269  15.957  31.614   2.722
51487W        W18270  34.572  18.167  14.612
51488W        W18271  40.487  14.503   3.042
51489W        W18272  15.641  35.289   4.591
51490W        W18273  28.591  16.136   0.397
51491W        W18274  43.287  25.460  13.110
51492W        W18275  16.819   3.104   1.854
51493W        W18276  35.426  14.234   2.371
51494W        W18277  30.684  43.918   3.646
51495W        W18278  22.405  29.971  14.445
51496W        W18279  33.849  26.274  11.177
51497W        W18280  43.948  42.095  12.082
51498W        W18281  38.224  10.558  11.473
51499W        W18282   0.860   0.521   0.178
51500W        W18283  22.510  37.419  11.539
51501W        W18284  20.715  11.630  14.351
51502W        W18285  28.472   3.867  13.042
51503W        W18286  42.353   8.921   1.078
51504W        W18287  36.107  35.035  13.794
51505W        W18288  42.055   9.821   0.394
51506W        W18289  27.163   9.218   4.974
51507W        W18290  27.107  18.702   4.132
51508W        W18291  34.710  10.283   0.907
51509W        W18292  15.842  32.608  12.487
51510W        W18293  42.198  43.694   3.702
51511W        W18294   9.837  19.087  14.728
51512W        W18295  15.742  23.700   3.725
51513W        W18296   4.812  36.004   2.293
51514W        W18297  44.564  44.304  11.726
51515W        W18298   1.812  30.085  10.889
51516W        W18299  43.892   3.367   2.270
51517W        W18300  19.039   6.615   0.569
51518W        W18301  11.692  39.230  14.848
51519W        W18302  32.300  42.272  13.792
51520W        W18303  38.792  13.568   0.720
51521W        W18304  35.486   1.723   2.853
51522W        W18305   6.170  30.680  13.568
51523W        W18306   5.181  11.716   3.955
51524W        W18307  24.773  10.173  12.737
51525W        W18308   4.249  35.070  12.382
51526W        W18309  42.783  33.169   4.230
51527W        W18310   2.826  27.166   2.243
51528W        W18311  41.963   9.792  11.939
51529W        W18312  24.265  15.271   2.790
51530W        W18313  10.245  33.175  11.126
51531W        W18314  36.234  17.820   4.634
51532W        W18315   0.187   8.951   1.922
51533W        W18316  28.482  13.368   2.830
51534W        W18317  25.300  22.267  12.987
51535W        W18318   3.827  29.062  12.545
51536W        W18319  20.604   4.394  11.418
51537W        W18320  40.458  19.619   3.194
51538W        W18321  27.081  24.587   0.711
51539W        W18322   2.951  21.480  10.943
51540W        W18323  24.246   6.305  11.157
51541W        W18324  17.826  33.319   1.729
51542W        W18325   9.579  25.057   3.622
51543W        W18326  38.592  16.790   0.806
51544W        W18327  11.779  40.306   1.758
51545W        W18328  36.892  36.760  11.586
51546W        W18329  22.088  22.105  13.948
51547W        W18330   3.746  29.097  14.139
51548W        W18331  34.923   8.861   4.511
51549W        W18332  40.849  26.254   4.582
51550W        W18333  29.905  29.520  11.911
51551W        W18334  23.675  44.726   1.795
51552W        W18335  25.483  21.303   0.712
51553W        W18336   4.453  19.070  12.535
51554W        W18337  30.366  19.690   2.578
51555W        W18338  22.498  35.823  11.143
51556W        W18339  23.581  42.801   4.036
51557W        W18340  14.154   4.223   3.361
51558W        W18341  33.488   4.196   1.447
51559W        W18342  42.587   1.734  14.285
51560W        W18343  31.394  26.260   0.957
51561W        W18344  13.162   5.680   0.604
51562W        W18345   9.885   3.947   2.805
51563W        W18346  26.728  14.157  13.062
51564W        W18347   8.612  43.824   1.351
51565W        W18348   5.674   9.378  13.842
51566W        W18349  40.094  28.161  11.579
51567W        W18350  21.948  28.592  13.913
51568W        W18351  16.744  38.562  13.642
51569W        W18352  34.082  22.648  11.590
51570W        W18353  16.871  32.853  13.585
51571W        W18354  41.309   2.880   4.392
51572W        W18355  22.832   4.948   0.320
51573W        W18356  10.281  15.557   0.305
51574W        W18357  44.699   3.511   2.239
51575W        W18358  13.763   3.124  12.071
51576W        W18359  36.360  31.591   4.876
51577W        W18360  20.025  10.020  12.913
51578W        W18361  17.347  43.845   1.408
51579W        W18362  31.528  13.842  13.833
51580W        W18363  18.212  35.975  12.933
51581W        W18364  37.035   5.201   1.936
51582W        W18365  19.227  23.026   0.951
51583W        W18366  15.028   2.839   2.901
51584W        W18367  25.048   0.192   0.748
51585W        W18368  40.664   2.274   3.551
51586W        W18369   3.387  10.341  10.570
51587W        W18370  13.661  15.704   1.893
51588W        W18371   5.306  18.754  12.449
51589W        W18372  23.539  18.346  13.600
51590W        W18373  32.089  44.041  10.356
51591W        W18374  38.007  14.044   4.836
51592W        W18375  31.363  41.321  12.515
51593W        W18376  34.141  44.581   4.454
51594W        W18377  22.027  19.620   1.354
51595W        W18378   8.793  42.595  14.597
51596W        W18379  29.576  11.394   0.799
51597W        W18380  31.987   5.928  14.511
51598W        W18381  40.544   0.527  11.962
51599W        W18382  42.577  20.531   1.355
51600W        W18383  37.327  17.638   1.448
51601W        W18384  16.560  12.555   2.101
51602W        W18385  14.805  36.163  10.728
51603W        W18386  19.594  24.634   4.641
51604W        W18387  17.780  19.158   0.729
51605W        W18388   4.208  29.555  11.715
51606W        W18389   1.453  27.885  12.405
51607W        W18390  12.696   9.986  11.582
51608W        W18391  24.496   6.309   4.841
51609W        W18392  19.642  39.654  13.763
51610W        W18393  34.034  18.960  13.411
51611W        W18394   1.731  39.417   4.594
51612W        W18395  42.370  27.375   4.927
51613W        W18396   6.412  17.299   4.862
51614W        W18397  33.318  40.232   0.430
51615W        W18398  20.794   3.274   1.357
51616W        W18399   6.418  10.860  13.999
51617W        W18400  43.831  33.017  13.460
51618W        W18401  42.010  37.416  14.992
51619W        W18402   3.855   6.620   2.352
51620W        W18403   7.038  44.837   1.462
51621W        W18404   8.283  39.009  11.511
51622W        W18405  12.603  22.902  14.880
51623W        W18406   5.134   0.935   2.684
51624W        W18407  10.797  22.350  13.814
51625W        W18408  29.442  15.110  12.406
51626W        W18409  27.194  34.561   4.206
51627W        W18410  14.175   5.257   0.870
51628W        W18411  15.209   9.067  13.859
51629W        W18412  27.170   5.266   4.776
51630W        W18413  38.551  38.996  10.085
51631W        W18414  33.091   6.338  14.277
51632W        W18415   8.815  38.079   4.162
51633W        W18416  12.249  19.487   1.056
51634W        W18417  21.952  23.956  10.684
51635W        W18418   5.304  40.959   0.423
51636W        W18419  36.144  22.951  10.976
51637W        W18420  27.605  14.731  12.167
51638W        W18421  32.930  23.579  10.913
51639W        W18422  27.180  15.516   1.122
51640W        W18423  18.996  42.975  10.760
51641W        W18424  43.626  16.186   2.367
51642W        W18425  32.105   6.359  12.777
51643W        W18426  13.553   0.281  10.447
51644W        W18427  13.845   2.919   4.928
51645W        W18428  22.655   7.579  12.337
51646W        W18429  16.731  13.555  13.060
51647W        W18430   0.256   8.458  12.117
51648W        W18431  32.875  24.568   4.602
51649W        W18432  29.796  15.904  11.127
51650W        W18433  35.115  21.290   1.000
51651W        W18434  40.905  26.553  11.646
51652W        W18435  19.787   5.356  14.683
51653W        W18436   0.747  16.686  10.996
51654W        W18437  24.051  30.497   1.185
51655W        W18438   6.651  27.140   2.290
51656W        W18439  38.312  24.716   2.193
51657W        W18440  24.080  35.562   0.773
51658W        W18441  21.064  13.085  11.514
51659W        W18442  41.710  12.451  13.521
51660W        W18443  29.230  23.582   1.284
51661W        W18444   2.308  13.811   3.262
51662W        W18445  21.475  24.357  10.697
51663W        W18446  43.772  23.949   0.168
51664W        W18447   9.332  11.614  10.556
51665W        W18448   6.844   2.677   2.820
51666W        W18449   3.039  19.186  13.170
51667W        W18450  27.283  18.244  12.430
51668W        W18451  17.269   3.932  13.521
51669W        W18452   9.193  42.455   2.865
51670W        W18453  37.671  17.015   4.089
51671W        W18454   2.506  41.090   0.460
51672W        W18455  13.641  17.180  13.992
51673W        W18456  25.448  40.257  14.073
51674W        W18457  20.988   1.393   2.066
51675W        W18458  43.955   6.408   0.682
51676W        W18459  39.995  16.898  12.820
51677W        W18460  28.544  21.811  10.809
51678W        W18461  40.880   8.433   3.145
51679W        W18462  38.591  15.418  12.158
51680W        W18463  18.056  24.901   0.657
51681W        W18464  13.722  18.006   0.732
51682W        W18465  40.689   1.279   3.670
51683W        W18466  27.180  30.054  14.105
51684W        W18467  38.990  30.046  14.248
51685W        W18468  25.318  19.510   2.695
51686W        W18469  23.021  33.808   0.885
51687W        W18470  20.353  31.572  11.170
51688W        W18471   8.298   6.270   3.720
51689W        W18472  32.862  22.346   0.970
51690W        W18473  25.996  21.549   1.435
51691W        W18474   3.816   6.651   2.867
51692W        W18475   3.956  14.318   0.439
51693W        W18476  22.719  34.724  12.004
51694W        W18477   9.648  34.584   4.648
51695W        W18478  43.051  22.562   1.866
51696W        W18479   0.435  43.870  12.963
51697W        W18480   9.630  23.124   0.568
51698W        W18481   2.983  30.066  14.811
51699W        W18482  19.178   4.474   2.168
51700W        W18483  15.745  32.062  11.768
51701W        W18484  21.532   8.686   1.850
51702W        W18485  34.449  44.786  12.126
51703W        W18486   2.682  38.379  12.791
51704W        W18487  13.363  34.597   4.662
51705W        W18488  28.369   6.997   3.382
51706W        W18489  37.599  11.545  14.767
51707W        W18490  42.725   8.781  11.625
51708W        W18491  35.597  11.074   4.624
51709W        W18492  37.384  30.183  11.115
51710W        W18493  19.067  11.869  14.118
51711W        W18494  12.141  34.122   1.324
51712W        W18495   7.184  44.958  10.906
51713W        W18496  19.071  10.756  14.934
51714W        W18497   5.046  28.223   1.722
51715W        W18498  13.994  28.398   5.021
51716W        W18499  32.829  23.726   0.355
51717W        W18500  10.386  19.031  12.014
51718W        W18501  37.520  12.101   1.132
51719W        W18502  44.945  38.987  12.531
51720W        W18503  43.730  26.734   2.796
51721W        W18504  44.172  42.144   1.427
51722W        W18505   3.945  43.873  13.574
51723W        W18506   9.957   5.730  13.814
51724W        W18507  13.280  35.884   2.610
51725W        W18508   6.751  29.405  11.576
51726W        W18509  23.996  37.864   2.798
51727W        W18510  10.994   4.109  11.421
51728W        W18511  26.893   7.137   1.513
51729W        W18512  15.339   8.723   4.415
51730W        W18513   9.749  15.629  13.581
51731W        W18514  35.616  21.328   1.845
51732W        W18515  44.227   7.370  12.157
51733W        W18516  31.636  36.071  13.300
51734W        W18517  29.403   5.388   4.355
51735W        W18518   7.712  17.941   3.755
51736W        W18519   4.468  11.710  12.573
51737W        W18520  43.840  31.512   3.984
51738W        W18521  31.936  41.478  14.505
51739W        W18522  37.819  37.488  14.928
51740W        W18523   6.411  20.804   0.346
51741W        W18524  14.241  19.202   1.380
51742W        W18525  10.942  17.788  12.561
51743W        W18526   8.324  19.751   0.816
51744W        W18527   4.451  37.941  12.534
51745W        W18528   7.533   6.805  11.223
51746W        W18529  18.305   6.922   3.702
51747W        W18530   1.049  23.700   0.837
51748W        W18531  36.990   7.230   1.605
51749W        W18532  36.070  43.444  11.496
51750W        W18533  17.314   5.180  11.115
51751W        W18534  44.057  10.411   4.580
51752W        W18535  21.675  15.671   0.894
51753W        W18536  43.834  20.663  10.697
51754W        W18537  40.772  10.415  11.197
51755W        W18538   7.288  29.060  13.388
51756W        W18539   9.333   9.769   4.825
51757W        W18540   0.332  13.022   4.508
51758W        W18541   1.285  23.977   1.846
51759W        W18542  28.380  17.630   1.756
51760W        W18543   5.184  34.460  13.695
51761W        W18544  12.663  37.644   0.653
51762W        W18545  42.956  26.076   4.854
51763W        W18546  29.675  18.309   0.983
51764W        W18547  38.105   8.781   3.259
51765W        W18548  21.451  29.675  13.658
51766W        W18549  21.672   2.438  11.984
51767W        W18550  22.924  33.225   2.864
51768W        W18551   2.865  44.438   5.124
51769W        W18552  32.385   2.722  13.518
51770W        W18553  32.537  39.258   1.409
51771W        W18554  16.833  30.239  12.102
51772W        W18555  38.041  30.079   4.142
51773W        W18556  24.496  18.983   2.150
51774W        W18557  14.143  36.669  13.802
51775W        W18558  16.489  14.127   3.592
51776W        W18559  30.938  31.713  13.250
51777W        W18560  13.376  39.311  14.943
51778W        W18561  29.983  28.812  14.030
51779W        W18562  41.950  36.967   2.389
51780W        W18563   4.216   4.756  12.114
51781W        W18564   0.356  38.103   2.670
51782W        W18565  35.463  13.851  14.771
51783W        W18566   9.111   1.303  14.589
51784W        W18567  10.100   5.449  14.283
51785W        W18568  22.617  39.869   4.659
51786W        W18569  18.363  39.743  14.347
51787W        W18570  31.956  30.532   0.026
51788W        W18571  43.256  40.338   4.465
51789W        W18572   0.787  35.773  14.405
51790W        W18573  18.801  44.849   1.888
51791W        W18574  18.647  27.393   1.179
51792W        W18575  22.302  36.926   0.504
51793W        W18576  36.181  19.389   5.250
51794W        W18577  11.136  43.845   2.340
51795W        W18578  23.140  40.404  10.711
51796W        W18579  41.329  24.944   2.200
51797W        W18580  28.872  20.043   2.472
51798W        W18581  32.378   4.568   4.090
51799W        W18582   5.890  43.026  10.379
51800W        W18583  42.514  29.642   4.392
51801W        W18584  19.125  24.123   1.458
51802W        W18585  25.121  26.497  12.815
51803W        W18586  41.956  38.437   4.422
51804W        W18587  39.447  44.086  11.943
51805W        W18588  44.122  40.123  12.869
51806W        W18589  29.903  31.884  11.681
51807W        W18590  36.153  16.391  13.390
51808W        W18591  41.500  11.759  11.057
51809W        W18592  27.606  28.735  11.349
51810W        W18593   2.238  10.177   0.751
51811W        W18594  32.519  33.558  10.050
51812W        W18595  33.594  32.493  11.817
51813W        W18596  37.109  37.552  13.290
51814W        W18597  19.203   6.231  12.107
51815W        W18598  42.760  15.634  12.053
51816W        W18599  30.104   0.603   1.796
51817W        W18600  15.221  40.099   0.109
51818W        W18601  44.795  29.614  13.312
51819W        W18602  36.909  44.523   3.427
51820W        W18603  35.123  26.765  12.029
51821W        W18604  27.154   7.824  10.641
51822W        W18605  18.090  38.814   0.476
51823W        W18606   9.254   7.442  13.980
51824W        W18607   5.106  22.620  11.505
51825W        W18608  27.605   8.701   4.021
51826W        W18609   7.518  24.729   0.173
51827W        W18610  25.453   6.400  14.348
51828W        W18611   8.052  18.524   2.367
51829W        W18612  27.013  44.827  10.742
51830W        W18613  11.775  32.844   0.857
51831W        W18614  33.342   1.382  12.033
51832W        W18615  33.146  40.717   0.405
51833W        W18616  40.434   1.935   0.457
51834W        W18617  44.871  27.929  11.441
51835W        W18618  31.174  19.654   0.777
51836W        W18619   0.931  34.858  14.854
51837W        W18620   2.897  36.749  14.741
51838W        W18621  16.377  42.314   1.309
51839W        W18622  44.939  35.579   0.924
51840W        W18623   7.963  23.648   4.176
51841W        W18624  37.314  22.684  11.930
51842W        W18625  11.919  39.842  10.296
51843W        W18626  38.271   3.367   3.764
51844W        W18627   0.424   0.083   1.844
51845W        W18628  28.391  32.171  13.927
51846W        W18629  17.866   5.404  11.932
51847W        W18630   7.378  37.979   0.145
51848W        W18631  11.336  11.775  12.604
51849W        W18632  12.574   9.295  12.171
51850W        W18633  42.941   4.151  14.871
51851W        W18634  34.130  22.985   4.182
51852W        W18635  26.619   1.576   2.904
51853W        W18636  21.236  21.236   3.266
51854W        W18637  32.072   9.633  10.421
51855W        W18638  25.432  11.635   1.003
51856W        W18639  34.380  11.303  11.042
51857W        W18640  25.543   5.197  11.504
51858W        W18641  32.201  18.682   3.893
51859W        W18642   2.499  24.481  14.052
51860W        W18643  10.862  21.843  13.696
51861W        W18644  37.908  39.078   3.235
51862W        W18645  12.227  40.500   4.130
51863W        W18646   2.762  15.630   3.145
51864W        W18647   8.604  31.115  12.983
51865W        W18648  44.332   6.855  12.185
51866W        W18649  18.196  34.976  14.478
51867W        W18650   8.893  34.137  13.303
51868W        W18651  42.987  21.084  14.947
51869W        W18652  19.677  28.182   2.334
51870W        W18653  17.836  42.508  13.307
51871W        W18654   0.945   8.381  12.834
51872W        W18655  37.405  31.979  10.730
51873W        W18656  19.825   1.808  14.495
51874W        W18657  11.315  21.256   1.718
51875W        W18658  16.656   6.243   0.303
51876W        W18659  31.024   3.887  12.446
51877W        W18660  28.432  20.014  11.009
51878W        W18661  10.384  42.343  12.083
51879W        W18662  34.004  38.933  10.479
51880W        W18663  25.064  38.774   1.195
51881W        W18664  37.526  14.633  14.558
51882W        W18665  21.751  41.305  14.837
51883W        W18666   9.144  44.255   2.726
51884W        W18667  42.487  28.002   0.830
51885W        W18668  14.519   2.444  11.456
51886W        W18669  24.663  26.695  12.536
51887W        W18670  44.570  17.154   1.366
51888W        W18671  37.863  35.525  11.899
51889W        W18672  23.576  28.589  12.400
51890W        W18673  16.658  10.682   1.348
51891W        W18674  19.534  15.239   0.077
51892W        W18675  14.331  19.579  10.577
51893W        W18676  42.918  19.802   0.965
51894W        W18677  21.133  26.512   1.707
51895W        W18678  10.305  37.890  13.524
51896W        W18679  12.114   9.506   1.689
51897W        W18680  30.423  42.475   1.147
51898W        W18681  13.380  25.158  11.989
51899W        W18682  12.349  11.882  10.058
51900W        W18683   9.598  16.316   2.245
51901W        W18684  36.952  10.355   3.589
51902W        W18685   4.983   5.357   3.020
51903W        W18686   8.116  17.020   1.712
51904W        W18687   4.295  18.238  13.535
51905W        W18688  31.324   4.103   0.867
51906W        W18689  12.698  32.603   1.862
51907W        W18690   7.485  26.029  14.406
51908W        W18691   1.657  10.848  10.581
51909W        W18692  26.130  29.736   3.259
51910W        W18693  30.898  30.106  13.737
51911W        W18694   0.497  10.922   1.217
51912W        W18695  20.750   2.289   3.275
51913W        W18696   9.616  41.921   4.373
51914W        W18697   1.519  35.308   0.178
51915W        W18698  39.389  10.204   3.970
51916W        W18699  21.578  21.147   0.692
51917W        W18700  36.962  44.153  11.567
51918W        W18701   9.434  15.248   4.363
51919W        W18702   2.650  42.506  13.738
51920W        W18703   8.706  41.803  10.824
51921W        W18704  10.315  10.901  10.812
51922W        W18705  40.473  32.665  13.995
51923W        W18706   7.549  36.361  12.960
51924W        W18707  35.384  10.497  11.460
51925W        W18708  18.709  24.033   4.634
51926W        W18709  39.863  17.346   4.611
51927W        W18710  11.211   3.375  13.558
51928W        W18711  21.536  22.069   0.731
51929W        W18712  21.534   1.285   0.961
51930W        W18713  39.410  20.483  12.034
51931W        W18714   1.822  30.721  10.766
51932W        W18715  30.070  11.311  12.188
51933W        W18716   4.450   2.282   0.961
51934W        W18717  34.688  18.008  11.345
51935W        W18718  25.724   6.493  13.450
51936W        W18719  24.091  43.837  13.001
51937W        W18720  19.652  42.283  14.259
51938W        W18721  38.977  13.806   3.585
51939W        W18722  34.144  14.162  12.545
51940W        W18723   9.125  20.032   3.864
51941W        W18724  23.546  12.832   1.822
51942W        W18725  21.185  28.710   2.347
51943W        W18726  22.865  37.665  14.832
51944W        W18727  35.850   2.770   0.957
51945W        W18728  34.105   1.561  13.375
51946W        W18729  33.116  31.930   0.344
51947W        W18730  41.212  38.796  13.310
51948W        W18731   1.003  21.312  11.252
51949W        W18732  15.274  41.563   1.925
51950W        W18733  14.205  28.076   0.591
51951W        W18734  14.162  44.483   3.199
51952W        W18735  29.070  11.092  14.853
51953W        W18736  31.658  31.623  12.056
51954W        W18737  42.264   6.384  10.369
51955W        W18738  19.979  21.575   2.886
51956W        W18739  11.690  36.431   3.212
51957W        W18740  22.220  37.918  12.019
51958W        W18741  18.055  19.080   0.256
51959W        W18742  12.201  31.181  12.152
51960W        W18743   0.498  29.958   1.749
51961W        W18744  31.675  39.670   2.815
51962W        W18745  14.535  30.984   1.908
51963W        W18746   7.261  38.007   2.670
51964W        W18747   2.937  16.342   2.379
51965W        W18748   4.820  35.578   4.490
51966W        W18749  41.974  34.966   0.282
51967W        W18750   3.017  20.172  14.148
51968W        W18751   3.962  32.350  13.327
51969W        W18752  10.300   0.874  11.587
51970W        W18753  29.170  36.986  12.086
51971W        W18754   5.306   2.394  12.661
51972W        W18755   2.219  41.495   4.209
51973W        W18756  26.688  23.158  10.274
51974W        W18757  16.112   9.866  14.782
51975W        W18758  22.749   4.550   1.719
51976W        W18759  42.471   8.589   3.065
51977W        W18760  30.657   3.851  13.797
51978W        W18761  44.286   3.664  14.397
51979W        W18762  36.991  22.560  10.595
51980W        W18763  44.393  34.966   3.670
51981W        W18764  39.538  37.845  12.648
51982W        W18765  41.579   0.326  13.280
51983W        W18766  40.894  33.929   2.702
51984W        W18767  19.375  13.657  10.691
51985W        W18768  11.802  34.070  12.987
51986W        W18769  41.637  30.934  11.493
51987W        W18770   8.633  41.467   1.435
51988W        W18771  42.930  43.808  13.841
51989W        W18772  14.712  38.203   3.726
51990W        W18773  33.233  21.931  14.539
51991W        W18774  13.400  31.070   0.464
51992W        W18775  14.614  18.027  11.355
51993W        W18776   9.328   5.618   1.389
51994W        W18777  41.296  43.239   0.856
51995W        W18778  22.706   9.996  14.246
51996W        W18779  27.772  24.119   0.038
51997W        W18780  15.505   0.724  12.569
51998W        W18781  34.162  18.147  13.877
51999W        W18782   2.691   5.212   3.754
52000W        W18783  34.234  23.120  11.942
52001W        W18784   7.320   6.931  12.964
52002W        W18785  30.985  20.577   5.348
52003W        W18786   8.287  44.709  14.933
52004W        W18787  36.006  22.985   3.814
52005W        W18788  24.733  31.230   4.596
52006W        W18789  22.080  22.026   0.547
52007W        W18790  33.931  24.446  12.402
52008W        W18791  33.403   3.734   2.203
52009W        W18792   4.955  42.334   4.213
52010W        W18793   2.169  43.842   3.785
52011W        W18794   1.356   0.978  13.891
52012W        W18795  33.072  32.951   0.327
52013W        W18796  33.289  31.028   0.831
52014W        W18797  20.174  11.923   4.324
52015W        W18798  39.288  26.933  14.041
52016W        W18799  30.852  23.674  13.319
52017W        W18800  24.132  12.141  14.333
52018W        W18801  38.146  33.489  12.009
52019W        W18802  26.549  35.422   2.687
52020W        W18803  14.616  31.360  12.938
52021W        W18804  22.043  16.435  13.012
52022W        W18805  30.424  16.670   3.536
52023W        W18806   7.222  39.760   2.283
52024W        W18807  20.086   1.953  12.968
52025W        W18808  21.486  33.976   0.924
52026W        W18809  11.265  19.768  12.270
52027W        W18810   9.788   3.345  13.895
52028W        W18811  34.152  10.830  11.109
52029W        W18812   2.017  23.095  10.905
52030W        W18813  15.809  39.169   3.577
52031W        W18814  25.787  13.419  10.742
52032W        W18815  32.000   1.777  14.506
52033W        W18816  27.456  40.318  12.969
52034W        W18817   3.453  25.100  14.816
52035W        W18818   9.652  38.912   0.254
52036W        W18819  43.835  18.639   1.413
52037W        W18820  25.814   0.740  11.605
52038W        W18821   5.802  19.987  12.873
52039W        W18822  40.107  10.409   5.033
52040W        W18823   4.901  25.206   5.019
52041W        W18824  37.439  10.298  11.424
52042W        W18825  30.111  23.590  10.619
52043W        W18826   6.913  33.459  14.465
52044W        W18827  35.648  42.595  11.019
52045W        W18828  21.838  36.750  11.601
52046W        W18829  15.561  37.517  11.560
52047W        W18830  38.054  24.632   4.314
52048W        W18831  13.034   1.913   0.205
52049W        W18832  37.591   5.171   2.347
52050W        W18833   9.720   5.983  10.451
52051W        W18834  30.204   0.718  13.990
52052W        W18835  33.686  38.558  11.201
52053W        W18836  30.484  31.172  14.772
52054W        W18837  18.389  32.010   1.903
52055W        W18838   5.843  44.106   0.865
52056W        W18839   2.579  33.926  12.009
52057W        W18840  31.349   8.243   3.634
52058W        W18841  14.552  43.271   1.835
52059W        W18842  10.759  41.874   2.259
52060W        W18843  27.021   7.699   3.226
52061W        W18844  32.105  18.466  10.733
52062W        W18845  11.718  36.894  12.372
52063W        W18846  17.208  23.523   1.300
52064W        W18847   0.552   6.323  13.804
52065W        W18848   7.292  26.171   1.239
52066W        W18849   5.602  42.806   4.204
52067W        W18850  26.385  31.860  14.936
52068W        W18851  27.616  12.763   3.683
52069W        W18852  26.925  17.668   2.152
52070W        W18853  18.805   8.412   0.836
52071W        W18854  16.307   1.970  11.505
52072W        W18855  36.566  11.842   2.204
52073W        W18856  22.857  15.022   2.787
52074W        W18857  30.995  29.349   2.782
52075W        W18858  11.388  39.636  12.028
52076W        W18859   9.389   2.768   3.577
52077W        W18860  15.663  32.092  14.535
52078W        W18861  22.187  39.550   4.660
52079W        W18862   5.884  24.195   4.636
52080W        W18863  34.091  23.460   4.515
52081W        W18864  42.630  44.326   4.743
52082W        W18865  30.965  16.163  12.185
52083W        W18866   4.349  19.523  11.670
52084W        W18867  36.397  27.034   4.110
52085W        W18868   6.339   1.284  12.930
52086W        W18869  32.208  12.589   4.163
52087W        W18870  39.906  22.041  10.570
52088W        W18871  33.937  36.642   2.662
52089W        W18872  26.286   7.034  11.159
52090W        W18873   7.236  19.189   1.446
52091W        W18874  40.231  40.088   0.390
52092W        W18875  27.517  25.894   0.351
52093W        W18876  19.449  18.322   0.251
52094W        W18877  13.601   5.695  13.028
52095W        W18878  36.513  21.798   5.056
52096W        W18879  11.868  36.985   9.827
52097W        W18880   3.830  10.275  10.820
52098W        W18881  25.411  42.324   4.535
52099W        W18882  33.659   1.520   1.824
52100W        W18883   6.854  40.281   0.305
52101W        W18884  41.900   1.284  11.599
52102W        W18885  13.273  26.969   2.787
52103W        W18886   9.321  39.126   3.306
52104W        W18887  10.796  37.706   0.397
52105W        W18888  17.948  40.519   4.503
52106W        W18889  20.598   5.912  14.334
52107W        W18890  28.380  25.989   2.253
52108W        W18891   9.574  23.537  13.454
52109W        W18892  29.840  42.305  13.824
52110W        W18893   1.289  33.386   4.929
52111W        W18894  38.306   2.541   3.348
52112W        W18895  33.006  11.612  11.118
52113W        W18896  43.748  22.083   3.215
52114W        W18897  28.247   6.348   2.849
52115W        W18898  40.558   5.123   2.291
52116W        W18899  21.771  37.903   1.389
52117W        W18900   8.263  26.176  11.013
52118W        W18901  44.347  10.166   3.807
52119W        W18902  16.828   6.876  13.035
52120W        W18903  29.843  24.390   0.308
52121W        W18904  10.368  14.607   1.626
52122W        W18905  26.076  42.303   0.748
52123W        W18906   7.427  37.474   0.358
52124W        W18907   8.697   7.766  12.923
52125W        W18908  17.172  12.815  14.460
52126W        W18909  40.409  38.610  13.924
52127W        W18910  13.585  18.759   1.338
52128W        W18911  23.584   8.442   4.389
52129W        W18912   2.893  31.179  11.868
52130W        W18913  43.014  17.192  11.470
52131W        W18914  42.343  34.009   3.843
52132W        W18915   2.758  13.193   2.419
52133W        W18916  22.529  37.447  12.550
52134W        W18917  19.132  16.833   0.778
52135W        W18918  12.569  22.061  12.897
52136W        W18919  10.882  43.934  12.508
52137W        W18920  11.225  15.728  14.048
52138W        W18921  19.856  42.707   3.129
52139W        W18922  20.755  17.087  12.893
52140W        W18923  28.068   5.341   2.611
52141W        W18924  16.356  35.116  13.983
52142W        W18925  35.854  19.482  14.433
52143W        W18926  34.927   3.663  12.514
52144W        W18927  40.083   7.760   0.246
52145W        W18928  37.773   2.759  14.412
52146W        W18929  33.119  29.618   0.814
52147W        W18930  44.975  13.818  13.514
52148W        W18931  21.541   0.764  13.468
52149W        W18932  33.964   7.317  13.771
52150W        W18933  44.465  41.975  11.888
52151W        W18934  15.930  39.082   3.089
52152W        W18935  24.195  30.121  12.227
52153W        W18936   9.803  44.297  10.354
52154W        W18937  11.901  34.554  10.395
52155W        W18938  37.935  14.114   3.170
52156W        W18939  42.841  19.561   3.238
52157W        W18940  41.543   4.803   0.962
52158W        W18941  42.005  33.059  13.003
52159W        W18942  25.990  39.673  13.054
52160W        W18943  23.190  13.825  14.809
52161W        W18944  21.272   0.942  14.381
52162W        W18945  20.132  10.247   2.206
52163W        W18946  44.876  24.326  12.964
52164W        W18947   6.128  26.456  12.230
52165W        W18948  44.769  35.027  11.538
52166W        W18949  39.964  22.805  11.014
52167W        W18950  44.574  38.753   2.376
52168W        W18951   8.668  38.742  10.595
52169W        W18952  43.537  37.994  13.576
52170W        W18953   6.122  31.732   1.402
52171W        W18954   3.830  18.652   4.434
52172W        W18955  44.105  37.359  13.912
52173W        W18956  38.621  29.235  12.422
52174W        W18957   8.779   5.597   3.147
52175W        W18958   0.748  29.862   0.473
52176W        W18959  18.389  32.621  13.076
52177W        W18960  35.794  28.116  13.939
52178W        W18961  42.326  34.984  13.404
52179W        W18962  18.134  40.009   3.687
52180W        W18963  16.461   7.271  13.293
52181W        W18964  29.872  21.137   3.672
52182W        W18965  12.665  18.834  12.883
52183W        W18966  11.727   0.381   3.683
52184W        W18967  16.105  19.614   0.996
52185W        W18968  25.684  36.391   2.415
52186W        W18969  37.237  18.217   1.714
52187W        W18970  34.973  24.210  12.120
52188W        W18971  38.612  10.187   2.129
52189W        W18972  21.476  18.829  12.111
52190W        W18973  12.041  25.530  11.188
52191W        W18974  24.874  39.425   5.196
52192W        W18975  21.378  24.282   1.924
52193W        W18976  13.264  28.135  11.522
52194W        W18977  14.222  11.844   0.032
52195W        W18978   7.491  19.644   3.678
52196W        W18979  14.380  41.417  13.796
52197W        W18980  21.957  18.629  12.005
52198W        W18981  27.058  33.926   0.393
52199W        W18982  14.150   1.698  11.838
52200W        W18983  21.741  17.158  14.788
52201W        W18984   7.925  15.882  12.061
52202W        W18985   3.143  34.005  11.166
52203W        W18986  20.724  21.004   4.610
52204W        W18987   6.336  23.543   2.202
52205W        W18988  10.050   2.665  11.973
52206W        W18989   5.707  29.969   2.597
52207W        W18990  32.666   9.266   4.026
52208W        W18991  32.168  38.404  10.841
52209W        W18992  17.525  32.612   3.417
52210W        W18993  38.141  13.263   4.240
52211W        W18994  30.267  22.990   4.457
52212W        W18995  31.072  30.502  12.466
52213W        W18996  18.145  44.369  13.940
52214W        W18997  17.592  37.404   3.673
52215W        W18998  19.179   9.259   2.133
52216W        W18999  43.300  19.145  12.558
52217W        W19000  34.570  27.275   2.197
52218W        W19001  23.510  37.833   4.246
52219W        W19002  17.618  33.671  11.715
52220W        W19003  26.098   1.663  13.995
52221W        W19004   2.113   2.320   0.221
52222W        W19005   0.497  15.688  10.234
52223W        W19006  18.797  20.541   0.745
52224W        W19007  32.382  19.197  14.494
52225W        W19008   9.319   1.872   3.793
52226W        W19009  22.033  28.396  10.085
52227W        W19010  16.808  37.144   1.753
52228W        W19011  11.715  27.023  14.500
52229W        W19012  10.725   8.629   1.123
52230W        W19013   6.358  38.501  13.514
52231W        W19014   3.557   4.745   4.608
52232W        W19015   6.970   0.937  14.008
52233W        W19016  38.669   2.606   0.260
52234W        W19017  39.522   3.377  14.804
52235W        W19018   4.208  28.393   1.252
52236W        W19019  15.586  16.694   2.335
52237W        W19020  29.982  30.382  13.982
52238W        W19021  43.056  26.795  12.777
52239W        W19022  34.435  16.112  11.615
52240W        W19023  14.914  32.068   4.991
52241W        W19024  24.161  39.085   3.272
52242W        W19025  37.504  29.808  13.105
52243W        W19026  43.798  41.589  12.157
52244W        W19027  16.072  19.310  12.508
52245W        W19028   0.882   2.068   2.311
52246W        W19029  24.978   2.896   3.588
52247W        W19030  20.671  29.203  11.645
52248W        W19031   1.917  13.625  14.773
52249W        W19032   8.791  16.163  14.324
52250W        W19033  38.800  42.818   4.147
52251W        W19034  20.209  13.232  11.030
52252W        W19035   7.365   1.932  14.377
52253W        W19036   9.638  20.096   2.601
52254W        W19037  18.993   2.285   3.070
52255W        W19038  18.253   2.429  13.229
52256W        W19039  40.836  39.074  14.745
52257W        W19040  15.110  41.491  11.021
52258W        W19041  22.520  28.692   2.691
52259W        W19042  29.695  20.886  13.295
52260W        W19043  21.255  40.814   1.284
52261W        W19044  17.493  23.990  12.923
52262W        W19045  40.403  32.428   3.476
52263W        W19046  31.588   9.262   1.931
52264W        W19047  20.619  21.137   4.105
52265W        W19048  41.543   6.462   3.204
52266W        W19049  26.651  17.749  12.009
52267W        W19050   6.263  11.102  10.380
52268W        W19051  37.911   0.927   4.705
52269W        W19052  32.859   9.179  11.648
52270W        W19053  41.046  12.463  12.955
52271W        W19054   7.770  31.834  14.542
52272W        W19055   1.207  23.721   1.389
52273W        W19056  12.619  30.114   3.819
52274W        W19057  34.008  43.942   4.647
52275W        W19058   6.659  39.068  12.363
52276W        W19059   2.957  32.577   1.261
52277W        W19060  44.696  28.629   0.838
52278W        W19061  43.653  20.172  10.588
52279W        W19062  25.395   0.890  14.449
52280W        W19063  14.293   5.830  11.349
52281W        W19064  43.613   7.950   1.508
52282W        W19065   8.024  25.608  13.875
52283W        W19066  19.713  23.667  13.453
52284W        W19067  22.765  31.476   4.028
52285W        W19068  26.812   0.046   3.758
52286W        W19069  40.515  40.560   4.065
52287W        W19070  12.518  13.999   0.711
52288W        W19071  34.031  36.332   4.544
52289W        W19072  41.843  33.839   1.736
52290W        W19073  21.771  22.831  10.967
52291W        W19074  24.041  43.145  13.741
52292W        W19075  32.409  42.186   2.150
52293W        W19076  12.661  10.814   2.364
52294W        W19077   3.831  24.539   3.901
52295W        W19078  28.649  31.409  13.450
52296W        W19079  20.791  24.817   0.903
52297W        W19080  28.621  33.827   2.425
52298W        W19081  21.925  38.579  13.009
52299W        W19082  26.621  11.580  13.933
52300W        W19083  30.098  27.399  11.120
52301W        W19084  28.815   1.355   4.953
52302W        W19085  42.284  27.901   4.185
52303W        W19086  13.645   4.479  10.813
52304W        W19087  38.133  35.568   0.237
52305W        W19088   6.594  27.800  11.120
52306W        W19089  13.307  34.026  14.827
52307W        W19090  33.895  15.777  13.803
52308W        W19091  32.106  18.719   1.899
52309W        W19092  22.566   6.849   0.612
52310W        W19093  31.704  27.011  11.357
52311W        W19094  25.659  19.686  11.129
52312W        W19095  33.618  10.751   3.994
52313W        W19096  38.604  13.364   1.854
52314W        W19097  35.829  21.183  11.170
52315W        W19098  13.097  40.309  13.492
52316W        W19099  33.597  43.806   4.080
52317W        W19100  13.731  17.499   0.731
52318W        W19101  12.060  44.834  14.288
52319W        W19102  11.307  12.836  12.537
52320W        W19103   9.702  44.852   3.698
52321W        W19104   5.216  33.650   3.383
52322W        W19105  16.570  23.490   0.729
52323W        W19106  31.526  13.319   4.880
52324W        W19107  14.293  43.283   3.810
52325W        W19108  42.698  11.116  13.342
52326W        W19109  29.666  29.271   3.752
52327W        W19110  44.515  25.116   0.809
52328W        W19111  22.147  12.564   4.364
52329W        W19112  35.332  36.998   0.234
52330W        W19113  19.721  23.649   4.619
52331W        W19114   1.472  29.585  14.052
52332W        W19115  12.811  23.849   3.877
52333W        W19116  44.498  25.970  12.994
52334W        W19117   5.430  21.876   4.180
52335W        W19118   8.280  17.302   3.670
52336W        W19119  20.995  26.339   4.299
52337W        W19120  20.023   9.445  11.077
52338W        W19121  41.312  29.920  13.855
52339W        W19122  39.744  34.851  11.565
52340W        W19123   8.430  31.109   4.609
52341W        W19124  43.867  38.379   4.872
52342W        W19125   3.912  19.219   0.411
52343W        W19126   2.491  24.198  13.100
52344W        W19127  40.259  36.215   0.689
52345W        W19128  12.709  36.576   2.184
52346W        W19129  14.755  13.548   2.449
52347W        W19130  37.702   8.162   2.303
52348W        W19131  12.282  25.515  14.539
52349W        W19132  39.496  23.768  13.642
52350W        W19133  44.531  21.597  14.336
52351W        W19134  12.414  29.091  10.748
52352W        W19135  31.199   6.798   4.581
52353W        W19136  22.480  30.607  12.451
52354W        W19137   0.075  16.568   2.374
52355W        W19138  34.665  23.596   2.792
52356W        W19139   3.192  36.501   4.296
52357W        W19140  27.671  19.254   0.862
52358W        W19141  32.817  40.425  12.518
52359W        W19142  34.177  34.844  11.183
52360W        W19143   6.355  25.149   5.093
52361W        W19144  36.177  13.659   3.215
52362W        W19145  24.444  18.305   1.672
52363W        W19146  25.902  27.902   4.625
52364W        W19147  34.515  44.457   4.130
52365W        W19148  40.336  41.535   4.218
52366W        W19149  13.347   5.748  13.619
52367W        W19150   8.405   9.377  13.136
52368W        W19151  36.389  10.217  13.629
52369W        W19152  42.473  16.369  13.009
52370W        W19153  44.682  16.391  13.011
52371W        W19154  12.232  16.683  14.468
52372W        W19155  12.283  28.614   1.706
52373W        W19156  33.417  33.880  13.353
52374W        W19157  11.718  40.900  13.985
52375W        W19158  34.124   5.127   3.281
52376W        W19159   6.911  12.531   3.138
52377W        W19160  36.878   3.959   0.369
52378W        W19161  16.166  24.016   3.724
52379W        W19162   6.797  11.655   1.720
52380W        W19163   9.260  14.735   3.266
52381W        W19164   7.819  37.796  10.577
52382W        W19165  20.735  43.648  11.886
52383W        W19166  25.003   2.203   0.199
52384W        W19167  35.550  30.348  13.458
52385W        W19168  44.126  10.740  10.975
52386W        W19169  31.161  20.938   3.282
52387W        W19170  35.637  10.154  11.156
52388W        W19171  17.151  41.388   2.871
52389W        W19172  35.564  12.596  13.311
52390W        W19173  41.120  25.937   4.272
52391W        W19174  33.985   9.163   2.272
52392W        W19175  25.236  21.615  12.887
52393W        W19176  15.805  28.172  12.905
52394W        W19177   4.230   0.503  11.065
52395W        W19178  25.231  13.128   0.777
52396W        W19179  44.393  39.998   3.251
52397W        W19180  16.865  22.983   0.738
52398W        W19181  27.955  42.752   1.986
52399W        W19182  13.491  17.290   3.203
52400W        W19183  39.563  31.061  11.833
52401W        W19184  24.144   2.005   3.148
52402W        W19185   2.296  11.453  11.618
52403W        W19186   4.483  13.040  14.188
52404W        W19187  19.054  19.277   0.458
52405W        W19188  16.302   4.011  13.096
52406W        W19189   3.888  19.949   3.638
52407W        W19190  41.016  37.097  11.632
52408W        W19191  13.582  35.899   0.204
52409W        W19192  32.715   7.844   1.368
52410W        W19193  40.520  39.465  11.978
52411W        W19194  25.181   7.700  12.025
52412W        W19195  18.061  16.999  10.774
52413W        W19196  27.739  30.643   4.575
52414W        W19197   7.250  28.877   1.420
52415W        W19198   5.831  30.480   4.349
52416W        W19199  39.975  21.627   2.687
52417W        W19200  29.449  29.646  12.072
52418W        W19201  41.510  31.860   0.392
52419W        W19202  35.187  18.415   1.003
52420W        W19203  29.494  44.970  11.312
52421W        W19204  29.920  12.216   2.023
52422W        W19205  16.260  39.416   3.377
52423W        W19206  36.152  11.857   1.205
52424W        W19207  19.536  12.861   4.182
52425W        W19208  24.889  17.034  12.310
52426W        W19209  20.239  33.395   4.355
52427W        W19210  37.080  40.164   0.014
52428W        W19211   0.647  37.882  11.188
52429W        W19212  27.743  12.779  14.493
52430W        W19213  26.566   7.112  10.263
52431W        W19214  39.033  16.214  10.828
52432W        W19215   3.375  40.379  12.921
52433W        W19216  28.957   7.116  12.885
52434W        W19217   3.373  20.428  13.891
52435W        W19218  13.609   8.697   5.432
52436W        W19219  20.352  13.338  13.984
52437W        W19220  22.493  12.711  11.894
52438W        W19221  28.222   9.231   4.155
52439W        W19222  28.404  39.237   1.937
52440W        W19223  26.519  14.647   3.085
52441W        W19224  25.904  39.289  14.019
52442W        W19225  14.174  17.851  11.115
52443W        W19226  42.119  31.124  13.358
52444W        W19227   4.422  22.217  10.643
52445W        W19228  23.096  41.909   4.088
52446W        W19229  36.349  32.994   1.808
52447W        W19230  30.041  35.132   1.477
52448W        W19231   6.463  38.868  14.936
52449W        W19232  16.754  17.187   4.060
52450W        W19233  19.259  17.598   9.751
52451W        W19234   0.854  12.306  13.629
52452W        W19235  33.917   5.252  14.903
52453W        W19236  38.388  25.200  12.799
52454W        W19237  14.126  22.239   4.639
52455W        W19238  13.852  17.768  13.367
52456W        W19239  23.021   6.794   2.939
52457W        W19240  11.359  16.376   0.969
52458W        W19241  32.954  27.157  10.721
52459W        W19242  44.299   2.885   4.533
52460W        W19243  16.418  23.777  10.966
52461W        W19244  14.776   8.310  11.829
52462W        W19245  42.304  38.383  11.495
52463W        W19246   3.254  16.737  13.877
52464W        W19247   0.754  15.212   4.030
52465W        W19248   9.185  29.648  14.806
52466W        W19249  11.585   1.901  11.689
52467W        W19250  43.757  16.091  12.508
52468W        W19251  16.003  22.186   3.401
52469W        W19252  18.067   4.354  13.466
52470W        W19253   5.118  10.726  12.689
52471W        W19254   6.251  22.327  14.034
52472W        W19255  34.383  19.497  11.380
52473W        W19256  42.453  33.006  10.822
52474W        W19257  25.717  34.147   0.933
52475W        W19258  37.615   4.794   3.272
52476W        W19259   5.960  35.661  14.001
52477W        W19260  23.403  18.746  10.699
52478W        W19261  10.756  14.360  12.181
52479W        W19262  21.277  11.639   3.702
52480W        W19263   7.815  11.791  14.550
52481W        W19264  23.545  21.829   2.393
52482W        W19265  17.262  28.892   1.616
52483W        W19266  17.744  14.249   3.196
52484W        W19267   6.727  40.930   0.924
52485W        W19268  33.509  16.741   2.819
52486W        W19269   3.481  37.793  12.868
52487W        W19270  18.478  32.516   4.099
52488W        W19271   8.726  13.876   0.402
52489W        W19272  23.621  39.351   2.943
52490W        W19273  30.530  25.636  14.333
52491W        W19274  39.630  27.244   4.791
52492W        W19275   4.863   5.669  13.988
52493W        W19276  15.132  44.006   1.380
52494W        W19277  38.227  10.357   4.514
52495W        W19278   0.737  42.938  11.622
52496W        W19279  20.647  32.860   1.276
52497W        W19280   8.626  15.815   0.777
52498W        W19281  36.709  16.329  11.943
52499W        W19282  29.183  34.771  14.820
52500W        W19283  11.123   8.994  12.140
52501W        W19284   2.836  27.737  11.958
52502W        W19285   7.708  32.334   1.359
52503W        W19286  11.155  44.271  11.357
52504W        W19287   0.720   4.753   0.514
52505W        W19288  22.727  14.204  13.326
52506W        W19289  34.175  33.796   0.768
52507W        W19290  26.122  34.616  10.503
52508W        W19291   4.805   1.948   1.279
52509W        W19292  16.628  40.602   2.239
52510W        W19293  16.359  31.882   3.637
52511W        W19294   1.978  12.282  14.496
52512W        W19295  16.845  38.171  13.322
52513W        W19296  11.110  17.221  11.752
52514W        W19297  37.120   2.226   0.773
52515W        W19298  43.250  16.363   0.614
52516W        W19299   7.201  28.417   0.391
52517W        W19300  42.228  26.480   4.957
52518W        W19301  24.419   8.413   4.559
52519W        W19302  20.843  20.555   1.170
52520W        W19303  44.703  23.719  10.553
52521W        W19304   2.860  10.170  12.618
52522W        W19305  21.252  18.065  11.607
52523W        W19306   1.438  30.450  11.030
52524W        W19307  26.038   2.684  11.015
52525W        W19308  18.822   3.980  12.743
52526W        W19309  22.082  43.773   2.624
52527W        W19310  32.578  14.097   0.475
52528W        W19311  13.410  15.669   4.624
52529W        W19312  25.125   8.389  10.637
52530W        W19313  12.346  26.927  11.000
52531W        W19314  22.958  24.100   0.975
52532W        W19315  37.406  27.363   0.048
52533W        W19316  42.394   0.014   4.146
52534W        W19317  22.321   2.826  13.834
52535W        W19318  19.653   4.543  10.334
52536W        W19319  31.132   9.617   4.131
52537W        W19320  27.125   6.457  13.676
52538W        W19321  35.892  34.959   0.397
52539W        W19322  17.791   3.811  12.695
52540W        W19323   2.025   3.903  14.783
52541W        W19324  30.993   9.636   0.820
52542W        W19325  23.513  22.931  13.880
52543W        W19326  37.836  31.437   0.910
52544W        W19327   6.644  44.735  14.922
52545W        W19328  44.012   0.980   2.150
52546W        W19329   6.275  15.294   1.782
52547W        W19330  22.583  18.626   0.847
52548W        W19331  33.487  41.135  11.646
52549W        W19332   1.978   8.346   4.968
52550W        W19333  15.732  23.969  14.133
52551W        W19334  20.146  40.809   0.207
52552W        W19335  41.962  38.120   0.275
52553W        W19336  40.012  20.544   1.224
52554W        W19337   2.968   8.914   3.354
52555W        W19338   3.490   3.192  14.002
52556W        W19339   9.284  44.444  12.830
52557W        W19340  40.908  10.756   3.709
52558W        W19341  31.289   3.628   0.689
52559W        W19342  40.881  15.678   1.703
52560W        W19343  19.744  24.743   2.553
52561W        W19344  37.881  28.027   4.954
52562W        W19345  31.661  35.144  13.782
52563W        W19346  41.068  33.548   0.477
52564W        W19347  33.844  30.339  11.922
52565W        W19348   2.465  18.676   4.668
52566W        W19349  27.081   1.914   4.669
52567W        W19350   4.635  37.376  14.216
52568W        W19351  17.764  39.025  12.097
52569W        W19352  23.608   8.881  13.484
52570W        W19353  34.189  16.671  12.454
52571W        W19354  17.574   6.332   1.381
52572W        W19355  36.943   4.389   3.240
52573W        W19356   3.579  12.333   4.601
52574W        W19357   9.296  28.555  11.395
52575W        W19358  12.080  11.657  13.799
52576W        W19359  10.554   5.772  10.671
52577W        W19360  18.611   5.934   0.016
52578W        W19361  22.244  14.888  10.607
52579W        W19362  33.399  11.935   2.875
52580W        W19363  23.299  16.095   0.997
52581W        W19364  38.371   0.461  14.282
52582W        W19365  14.216   4.391  12.080
52583W        W19366  44.924  10.857   4.111
52584W        W19367  35.481  32.326  11.907
52585W        W19368   9.998  32.590  10.083
52586W        W19369   6.616  28.410  14.732
52587W        W19370  19.795  42.008   1.916
52588W        W19371  22.259   5.818   1.686
52589W        W19372  39.733   6.244   0.812
52590W        W19373  28.235  33.413   1.155
52591W        W19374  25.906  43.616  14.411
52592W        W19375  31.388   1.579  14.622
52593W        W19376  34.460  26.736  14.561
52594W        W19377  15.151  34.377   1.170
52595W        W19378  37.227  37.349  14.126
52596W        W19379  21.651  14.619   0.885
52597W        W19380   7.359  41.369  14.283
52598W        W19381  41.157  16.568   1.806
52599W        W19382  15.971  35.080   0.103
52600W        W19383  14.240  35.612   4.650
52601W        W19384  23.154  23.494   3.194
52602W        W19385  30.103  16.754  12.015
52603W        W19386   7.829  37.813   0.379
52604W        W19387  23.233  15.658  12.370
52605W        W19388  17.794  43.967  12.889
52606W        W19389  37.324  31.467   0.937
52607W        W19390  28.123  18.299   0.412
52608W        W19391  13.575  31.157   3.817
52609W        W19392  44.506  27.198  14.448
52610W        W19393  27.163  38.364   1.905
52611W        W19394  15.559  14.330  10.238
52612W        W19395  30.579  39.077   3.649
52613W        W19396  36.848  37.465   4.148
52614W        W19397  44.760  27.101   4.674
52615W        W19398  27.934  17.825  11.693
52616W        W19399  14.300  11.898  13.046
52617W        W19400  32.341  38.642   0.938
52618W        W19401  41.721  41.393  12.474
52619W        W19402  37.254  35.477   2.425
52620W        W19403  37.095  10.825  12.085
52621W        W19404  31.516  12.906   1.363
52622W        W19405  29.197  21.281   1.431
52623W        W19406  20.069  24.638  10.650
52624W        W19407  35.580   8.982   3.082
52625W        W19408  18.995  40.434  14.380
52626W        W19409  35.216  35.931   3.198
52627W        W19410  28.737  21.591   1.891
52628W        W19411  37.823  30.483  12.413
52629W        W19412  31.310  36.914  11.601
52630W        W19413  10.728  14.919   1.375
52631W        W19414  23.027   0.812  13.939
52632W        W19415   3.725  39.794   1.155
52633W        W19416  11.182   7.648  12.496
52634W        W19417  31.117   4.346  12.971
52635W        W19418   1.692  34.428   0.354
52636W        W19419  29.701  22.592  11.148
52637W        W19420   2.496  10.745  10.813
52638W        W19421   2.918  22.366   2.804
52639W        W19422  32.801  44.187   0.211
52640W        W19423  27.943  38.964  12.039
52641W        W19424  27.997   3.305   0.246
52642W        W19425   3.900  33.240  14.639
52643W        W19426  23.106   6.246   3.619
52644W        W19427  33.541  10.392  11.460
52645W        W19428  39.490   1.877  13.534
52646W        W19429  25.009  27.723  11.485
52647W        W19430   6.340  42.515  10.508
52648W        W19431  19.102  39.025   4.287
52649W        W19432   4.243  43.407  12.429
52650W        W19433  35.628  35.515   4.186
52651W        W19434  32.556  13.351   3.250
52652W        W19435  41.449  41.058   0.186
52653W        W19436   9.823  12.827  13.834
52654W        W19437  42.317  16.274   0.823
52655W        W19438  12.103  39.967  13.911
52656W        W19439  18.050  15.733   2.629
52657W        W19440   5.192  27.656   1.416
52658W        W19441  33.149   8.662   2.618
52659W        W19442  14.821  20.865  12.147
52660W        W19443  39.860   3.299  11.109
52661W        W19444  38.841  26.163  14.492
52662W        W19445  17.284  25.339  12.993
52663W        W19446  28.538  24.022  11.943
52664W        W19447  29.119  39.846   0.273
52665W        W19448  19.778  34.541   1.685
52666W        W19449  35.851  20.154  10.729
52667W        W19450  27.347  35.870   0.758
52668W        W19451   3.563  19.655   0.447
52669W        W19452  20.758  12.299  13.142
52670W        W19453  37.794  27.705  14.826
52671W        W19454  21.840   0.495  10.110
52672W        W19455   4.331  18.887   1.114
52673W        W19456   5.779   0.404  12.959
52674W        W19457   0.005  16.523   0.390
52675W        W19458  20.935   3.307  14.736
52676W        W19459  20.756  41.750  12.681
52677W        W19460  28.221  17.526  11.374
52678W        W19461  27.951  40.084  14.826
52679W        W19462   9.289  22.163  13.402
52680W        W19463  37.524   9.970  11.850
52681W        W19464  29.580  28.924   0.306
52682W        W19465  39.569  39.998   1.079
52683W        W19466   1.398  34.508  13.017
52684W        W19467  30.966  10.400  13.964
52685W        W19468   8.759   5.221  14.585
52686W        W19469  38.770  24.130   1.363
52687W        W19470  29.950  43.731   1.191
52688W        W19471   0.014  10.418   4.427
52689W        W19472   0.433   0.157   4.749
52690W        W19473  21.693  25.660   4.203
52691W        W19474  24.119  37.555  13.485
52692W        W19475  21.480  40.069   4.237
52693W        W19476  17.407  26.230  11.524
52694W        W19477  31.948  35.547  12.399
52695W        W19478  21.702  38.868   4.336
52696W        W19479   8.388  34.521   3.774
52697W        W19480  40.303  41.768  14.320
52698W        W19481  37.403  35.418   4.771
52699W        W19482  14.059  28.351   2.774
52700W        W19483  42.958   8.858  12.075
52701W        W19484   4.682  19.975   4.070
52702W        W19485   4.041  11.567  13.502
52703W        W19486  36.540   1.706  14.358
52704W        W19487  19.989  29.515  10.191
52705W        W19488  20.758  29.732  11.495
52706W        W19489   3.010  34.501   3.622
52707W        W19490  31.117  43.344   4.585
52708W        W19491  10.595   9.642  14.430
52709W        W19492  26.222  38.856  10.705
52710W        W19493  26.765  20.748  12.965
52711W        W19494   5.787  12.366   0.979
52712W        W19495   0.882  23.100  12.511
52713W        W19496  23.442   1.874   2.685
52714W        W19497  43.905   2.258  12.327
52715W        W19498  44.028   7.626  12.591
52716W        W19499  42.075  18.594  11.900
52717W        W19500  40.446  28.138  10.253
52718W        W19501  34.020  32.873   4.193
52719W        W19502   2.856  42.048  13.434
52720W        W19503  10.583  30.878  14.339
52721W        W19504   2.852  34.954   0.709
52722W        W19505  36.850  38.263  11.131
52723W        W19506  35.645  41.237  11.224
52724W        W19507   7.816   8.721  13.629
52725W        W19508   5.622   2.220  14.492
52726W        W19509  17.828  24.437   1.835
52727W        W19510  13.573  44.434   0.952
52728W        W19511  39.296  25.112  10.558
52729W        W19512  40.344  37.119   0.793
52730W        W19513  31.220  42.920  12.059
52731W        W19514  26.290  13.603   2.805
52732W        W19515  11.745  21.607   4.024
52733W        W19516   8.445  44.542   3.311
52734W        W19517  17.092  27.275   0.704
52735W        W19518  33.922  41.492   3.619
52736W        W19519   1.890   6.321  12.453
52737W        W19520  34.337  42.725  12.099
52738W        W19521   1.670  32.092   2.219
52739W        W19522  26.490  13.651   1.053
52740W        W19523  23.216   8.926   1.334
52741W        W19524  26.227  44.226  10.689
52742W        W19525  13.793   8.077   2.720
52743W        W19526  43.937   5.901  11.886
52744W        W19527  10.404  11.634   3.724
52745W        W19528  13.620  31.449   0.822
52746W        W19529  18.553   4.913  14.173
52747W        W19530   9.820  17.793   3.624
52748W        W19531  42.827  22.163  13.795
52749W        W19532   6.148  22.493  10.198
52750W        W19533   2.392   3.513   5.104
52751W        W19534  22.567  19.667   4.716
52752W        W19535  31.444  24.726  12.139
52753W        W19536  15.635  16.186   2.208
52754W        W19537  17.946  19.556   0.428
52755W        W19538  14.033  42.235  13.727
52756W        W19539  24.403  43.352  14.424
52757W        W19540  29.650  23.804  13.986
52758W        W19541  41.130  35.501   1.293
52759W        W19542   8.119  32.424   0.243
52760W        W19543  21.970  13.671   4.180
52761W        W19544  36.513  19.645  13.887
52762W        W19545   4.636   0.183  11.774
52763W        W19546   0.050  27.599  13.434
52764W        W19547  21.364  16.939  12.077
52765W        W19548  43.893  12.830   0.549
52766W        W19549  31.655  26.695  10.700
52767W        W19550  11.661  17.659  11.105
52768W        W19551  42.110  15.787  10.329
52769W        W19552  23.778  16.152   0.737
52770W        W19553  20.220   0.024  11.997
52771W        W19554  44.383  30.244   4.246
52772W        W19555  40.350   8.678  14.346
52773W        W19556   1.443  43.273  11.601
52774W        W19557  27.946  37.324   0.848
52775W        W19558   4.763  10.253   3.280
52776W        W19559  14.606   5.893  12.630
52777W        W19560   3.300  22.810  13.483
52778W        W19561  39.769  10.605  12.689
52779W        W19562  39.119  15.010   4.042
52780W        W19563  40.889   5.548   4.066
52781W        W19564  35.935  42.414  11.932
52782W        W19565  18.100   8.396   3.653
52783W        W19566  28.963  33.494  13.031
52784W        W19567  30.109  13.242   3.799
52785W        W19568  26.525   9.620   1.320
52786W        W19569  18.775  12.178   2.344
52787W        W19570  32.148  11.614   3.186
52788W        W19571  15.141  33.832  14.244
52789W        W19572  44.892  23.656  13.505
52790W        W19573  43.426  19.994   2.667
52791W        W19574   0.294  44.981   2.362
52792W        W19575  41.602  37.525   4.970
52793W        W19576  29.604  33.694   4.727
52794W        W19577  44.607  25.912   2.226
52795W        W19578  38.342  18.204  14.840
52796W        W19579  13.849  12.645   3.589
52797W        W19580  38.034   1.307  10.431
52798W        W19581   9.848  14.834   0.517
52799W        W19582  20.115  19.190   0.497
52800W        W19583  42.945   3.361   0.389
52801W        W19584   8.741  44.746  11.595
52802W        W19585  16.270  11.380  13.571
52803W        W19586  22.026  17.978   2.921
52804W        W19587   3.223  23.504   0.314
52805W        W19588  26.595  37.392   3.851
52806W        W19589   0.719  15.124   1.660
52807W        W19590  35.073   8.229   0.374
52808W        W19591  26.489  41.032   4.563
52809W        W19592  20.388  39.351   1.279
52810W        W19593  40.414  32.836  12.913
52811W        W19594  22.529  32.711   4.675
52812W        W19595  41.364   4.926   0.461
52813W        W19596   5.151  44.352   1.328
52814W        W19597  14.051  25.627  13.811
52815W        W19598  24.466  27.156  11.021
52816W        W19599  44.141  34.552   4.026
52817W        W19600  41.972  30.305  13.323
52818W        W19601  25.021  26.072  13.149
52819W        W19602   9.209   6.287  14.662
52820W        W19603  20.779   9.008  11.225
52821W        W19604  22.100  37.681   1.729
52822W        W19605   8.791  34.391  10.691
52823W        W19606  27.977  19.439  14.382
52824W        W19607  38.304  14.973   3.139
52825W        W19608  42.064  43.436   0.382
52826W        W19609  25.993  12.633  13.322
52827W        W19610  36.477  13.085   1.319
52828W        W19611  40.596  30.794   4.279
52829W        W19612  43.024  32.988  13.063
52830W        W19613  42.278   9.373  13.423
52831W        W19614   3.318  19.175  10.796
52832W        W19615  43.494  27.245  14.454
52833W        W19616  38.262  12.208   3.603
52834W        W19617  21.132   0.819   2.759
52835W        W19618  26.792  44.515   2.903
52836W        W19619  29.537  32.113   1.029
52837W        W19620   1.808  43.635  11.178
52838W        W19621  34.541  28.511   4.479
52839W        W19622  44.843  16.372  12.500
52840W        W19623  10.571  19.586   3.523
52841W        W19624  13.876  34.508   4.614
52842W        W19625  38.456  19.748  10.742
52843W        W19626   0.514  10.258   1.830
52844W        W19627  18.549   4.018   4.514
52845W        W19628   5.715  30.941  12.834
52846W        W19629  26.366  43.358  14.276
52847W        W19630  17.914  16.241  14.359
52848W        W19631  23.638   8.412   2.963
52849W        W19632  41.498  36.989  11.571
52850W        W19633  27.697   0.287   1.450
52851W        W19634  10.812   5.879  11.100
52852W        W19635  30.201  26.298  13.300
52853W        W19636  16.393  29.347  13.479
52854W        W19637  42.387  30.414   4.964
52855W        W19638  16.345  43.885   1.344
52856W        W19639  31.123   0.141  11.184
52857W        W19640  19.133  25.707   2.313
52858W        W19641   9.039   8.692   5.243
52859W        W19642   4.892  16.761  10.600
52860W        W19643  16.513   1.515   1.070
52861W        W19644  27.427  17.368  10.576
52862W        W19645   1.944  43.390  12.159
52863W        W19646   9.950   4.946   2.596
52864W        W19647  43.947  32.064   1.606
52865W        W19648   8.019  26.020   4.627
52866W        W19649  30.619  24.376   3.267
52867W        W19650  44.879  19.269  14.783
52868W        W19651  23.933  42.939   0.266
52869W        W19652   8.718  39.282  11.614
52870W        W19653  36.374  37.008  12.579
52871W        W19654   4.594  13.226   5.101
52872W        W19655  27.705  43.347  14.820
52873W        W19656  34.561  36.536  11.447
52874W        W19657  39.978  20.351  10.578
52875W        W19658  22.069  16.116  10.951
52876W        W19659  19.811   5.465   3.562
52877W        W19660  22.770  24.406   2.629
52878W        W19661  16.624  35.376   3.928
52879W        W19662  24.081  39.391  14.504
52880W        W19663  10.378  14.372   2.158
52881W        W19664   5.903  25.752   1.880
52882W        W19665   9.209  16.785   1.665
52883W        W19666   4.806  24.458   3.676
52884W        W19667   3.320  10.972  14.378
52885W        W19668   6.950   7.452  13.388
52886W        W19669   4.332  43.813  11.517
52887W        W19670   7.745  43.761  10.707
52888W        W19671  15.520  39.562   3.690
52889W        W19672   1.479  40.459   3.877
52890W        W19673  34.603   4.302   2.914
52891W        W19674  22.120  13.784  13.894
52892W        W19675  36.252  20.229  11.602
52893W        W19676   0.363  29.186   3.285
52894W        W19677  20.546  27.834   1.691
52895W        W19678  31.450  11.177  13.908
52896W        W19679   6.812  43.743  10.618
52897W        W19680  16.692  28.630  13.018
52898W        W19681  17.298  11.452  14.390
52899W        W19682  21.037  27.883  11.671
52900W        W19683  36.025  30.117   2.792
52901W        W19684  35.091  13.827   2.393
52902W        W19685  24.630  19.997   1.837
52903W        W19686  43.238   9.428  14.326
52904W        W19687  29.168   1.382   3.120
52905W        W19688  14.894  35.268   2.802
52906W        W19689  31.909  22.717   2.825
52907W        W19690  26.478  34.340  13.838
52908W        W19691   3.421  40.252  13.424
52909W        W19692  20.542  17.392  14.931
52910W        W19693  43.474   3.820   4.181
52911W        W19694  34.874   0.512  10.780
52912W        W19695  23.042  14.967   4.156
52913W        W19696  42.692  25.201  12.382
52914W        W19697   4.673  42.994   4.693
52915W        W19698  24.609   7.277   1.787
52916W        W19699  14.419  34.851   9.807
52917W        W19700  36.348  19.298   3.673
52918W        W19701  20.039  10.251   1.296
52919W        W19702   7.678  32.610  12.880
52920W        W19703   7.382  18.237   1.269
52921W        W19704  36.132  27.964   3.297
52922W        W19705  39.253  25.662  12.520
52923W        W19706   5.700   6.892  14.265
52924W        W19707  23.900   7.260   1.277
52925W        W19708   2.514  44.879  10.477
52926W        W19709  18.084  18.965   2.929
52927W        W19710  39.016  14.339   2.347
52928W        W19711   5.219  25.956   3.819
52929W        W19712  31.472  38.645  11.055
52930W        W19713  33.359   7.130  14.847
52931W        W19714  17.809  22.109   0.992
52932W        W19715  38.617  26.902   4.118
52933W        W19716  30.815  37.707   2.608
52934W        W19717  28.718  43.449  13.920
52935W        W19718  17.507   0.857  13.944
52936W        W19719  22.141  34.594  14.293
52937W        W19720  10.797  25.225  11.165
52938W        W19721  38.023  14.775  12.381
52939W        W19722  22.974  26.351   3.673
52940W        W19723   6.748   6.259   2.291
52941W        W19724   4.423  18.006   4.112
52942W        W19725  33.024  29.936   1.815
52943W        W19726   2.412  32.572   3.838
52944W        W19727  18.857  41.898   4.279
52945W        W19728  31.663  13.503  14.268
52946W        W19729  25.780   3.130  11.433
52947W        W19730  34.808  38.041  13.340
52948W        W19731  38.054  25.094   0.118
52949W        W19732   2.775  27.230  13.806
52950W        W19733   1.169   8.639   2.324
52951W        W19734  41.814  27.401  12.125
52952W        W19735  17.722   1.117  10.464
52953W        W19736   1.163  38.977   3.083
52954W        W19737  43.939  36.482  12.860
52955W        W19738  32.085   1.895   0.582
52956W        W19739  37.223  31.811  14.929
52957W        W19740  35.318  32.972   3.258
52958W        W19741  33.011  22.648  10.499
52959W        W19742   4.185  32.830   1.787
52960W        W19743  38.932  12.102   1.860
52961W        W19744   9.922  26.930   1.505
52962W        W19745  30.009   9.144  10.629
52963W        W19746   9.549  22.566  11.654
52964W        W19747  44.328   8.817   1.897
52965W        W19748  29.879   6.239   2.633
52966W        W19749   6.511  28.970   9.741
52967W        W19750  10.093  24.100   0.468
52968W        W19751  40.252  36.976  13.374
52969W        W19752  37.840  13.092   4.655
52970W        W19753  30.431  26.466   4.489
52971W        W19754  26.780  44.351  12.768
52972W        W19755  16.720  29.681  13.721
52973W        W19756   4.852   1.198   4.823
52974W        W19757  22.160  25.040  13.130
52975W        W19758  37.709  10.306   2.154
52976W        W19759  30.488  16.832   1.257
52977W        W19760  25.967   4.033  14.282
52978W        W19761  32.600  11.039  14.488
52979W        W19762   8.834   7.291   9.896
52980W        W19763  27.797  24.485   4.506
52981W        W19764  33.936  11.302   1.264
52982W        W19765  30.226  34.928  12.527
52983W        W19766  14.019  42.327  14.644
52984W        W19767  27.499  25.671   1.408
52985W        W19768  37.372  36.063  12.476
52986W        W19769  25.742  39.325   0.435
52987W        W19770  32.981  26.275   4.009
52988W        W19771  20.626  20.659   0.163
52989W        W19772  38.261  39.739   4.870
52990W        W19773  21.131  38.122  14.938
52991W        W19774  33.304  14.257  10.329
52992W        W19775  16.677  41.358   4.620
52993W        W19776  17.568  34.602  13.847
52994W        W19777  10.120  12.088  14.540
52995W        W19778  24.422  30.094   3.211
52996W        W19779  33.912  28.401  14.050
52997W        W19780  41.275  24.701   4.097
52998W        W19781  15.000  12.155   4.444
52999W        W19782  33.661  44.286   4.954
53000W        W19783  37.482  44.555  12.544
53001W        W19784  35.433  39.037  13.049
53002W        W19785   2.774  27.750  13.800
53003W        W19786  15.151  41.406  13.509
53004W        W19787  17.287  29.479  11.092
53005W        W19788  43.256  33.415  13.965
53006W        W19789  34.004  31.288   3.262
53007W        W19790  25.904   4.747   4.740
53008W        W19791  29.133  40.088  14.382
53009W        W19792  42.827  15.555   3.130
53010W        W19793  25.572   8.770   3.145
53011W        W19794   6.651  28.950  14.743
53012W        W19795  21.968   5.428  12.946
53013W        W19796  13.619  26.581   0.883
53014W        W19797  33.974  36.948  13.948
53015W        W19798  33.421   2.710   2.237
53016W        W19799  19.197  30.425  12.176
53017W        W19800  41.436  44.310   1.351
53018W        W19801   5.417  36.010   2.581
53019W        W19802  35.157  35.055   1.450
53020W        W19803   9.715  34.216  12.339
53021W        W19804   3.006  36.056   2.126
53022W        W19805  31.263  17.186   4.949
53023W        W19806  33.926  13.155   1.797
53024W        W19807  31.819  29.057  13.977
53025W        W19808  18.429  24.874   3.625
53026W        W19809   8.416  24.463  13.318
53027W        W19810  38.146  42.760   2.626
53028W        W19811  11.180  36.166   1.148
53029W        W19812  21.450  32.872   1.892
53030W        W19813  31.622  22.240   3.717
53031W        W19814  23.658   2.218  14.955
53032W        W19815   5.658  23.643  12.874
53033W        W19816  25.005  38.514   3.272
53034W        W19817  22.785  41.837  13.053
53035W        W19818   5.934   1.377   2.758
53036W        W19819  20.050   0.885   3.101
53037W        W19820  37.066  22.567  14.234
53038W        W19821  39.419  43.752  10.496
53039W        W19822  10.601  14.404  12.999
53040W        W19823  17.037  26.405   4.690
53041W        W19824  25.486  32.420   3.813
53042W        W19825  44.736   5.389   1.849
53043W        W19826  36.372  15.994  10.523
53044W        W19827  13.249  13.332  12.987
53045W        W19828  10.715  19.311   0.476
53046W        W19829  27.174  20.177   3.699
53047W        W19830  26.418  26.416  13.709
53048W        W19831  30.958  34.575  10.749
53049W        W19832  10.901   2.370   3.269
53050W        W19833  29.060  29.282  12.068
53051W        W19834   5.540  32.347  14.387
53052W        W19835  44.722  15.772  11.126
53053W        W19836  40.250  32.905   3.322
53054W        W19837  39.605  15.194  11.992
53055W        W19838  26.046   9.799   2.189
53056W        W19839  14.632   6.361   2.946
53057W        W19840  37.156  21.506   4.637
53058W        W19841  38.535  17.703   0.732
53059W        W19842  30.180  30.455  11.219
53060W        W19843  41.056  37.387  14.612
53061W        W19844   2.685  36.002   3.037
53062W        W19845  15.306  33.814   2.893
53063W        W19846  33.090  35.413  14.236
53064W        W19847   8.213  25.769  14.931
53065W        W19848   9.587  40.978  11.191
53066W        W19849  35.034  26.477  12.474
53067W        W19850   9.922   4.944  10.750
53068W        W19851   8.318  12.345   2.069
53069W        W19852  37.978  29.427  14.347
53070W        W19853  36.047  12.785  10.597
53071W        W19854  36.287  41.704   0.225
53072W        W19855   6.851  29.178   3.678
53073W        W19856   0.508  36.367  12.638
53074W        W19857  27.144  34.929  13.058
53075W        W19858  16.231  39.042   0.773
53076W        W19859  18.345  40.249   3.282
53077W        W19860   4.216  29.080   4.883
53078W        W19861  12.710  41.246  13.152
53079W        W19862  34.171  22.448  12.561
53080W        W19863  25.553   8.127  10.448
53081W        W19864  32.538  26.625   1.922
53082W        W19865  24.969   4.888   1.351
53083W        W19866  16.071  25.552   0.905
53084W        W19867  26.752   9.312   0.898
53085W        W19868  19.139  42.998  13.466
53086W        W19869   4.710  38.293  13.881
53087W        W19870   3.937  16.316   1.537
53088W        W19871  22.253  39.602  12.676
53089W        W19872  10.446  13.466  12.483
53090W        W19873  15.228  29.373  10.721
53091W        W19874  36.851  11.336  12.429
53092W        W19875   9.267  33.383  10.426
53093W        W19876  40.941  44.354  11.196
53094W        W19877   3.919   9.151   0.437
53095W        W19878   8.154  15.590  12.400
53096W        W19879  43.486  15.110  14.292
53097W        W19880  40.528  30.893  12.846
53098W        W19881  36.327  25.604   1.714
53099W        W19882  25.408  18.588  12.413
53100W        W19883   8.202  39.600  13.909
53101W        W19884  14.316  43.328  14.962
53102W        W19885  44.904   8.177   1.263
53103W        W19886   4.230  40.072   4.537
53104W        W19887  40.011  38.291  14.047
53105W        W19888  14.564  40.141  12.978
53106W        W19889  20.745  14.280  13.004
53107W        W19890  20.821   7.334   0.745
53108W        W19891  21.825  26.500   3.106
53109W        W19892  10.585  23.744   3.288
53110W        W19893  21.763  44.038   1.368
53111W        W19894  16.572  21.705   3.661
53112W        W19895  26.501  26.958  13.385
53113W        W19896  37.982  43.579   2.190
53114W        W19897  29.915  24.425  13.630
53115W        W19898  31.992   7.005   4.229
53116W        W19899  31.457  39.994   2.457
53117W        W19900  28.519  41.513  12.397
53118W        W19901  41.909   6.664  13.324
53119W        W19902  17.318  34.922   3.690
53120W        W19903  30.908  41.453   3.634
53121W        W19904  36.560  27.146   1.433
53122W        W19905  30.251  26.572  14.761
53123W        W19906  28.852  44.552  12.221
53124W        W19907  24.970  38.360  11.606
53125W        W19908  27.286  33.949  10.588
53126W        W19909  34.878   2.736   4.165
53127W        W19910   0.399   8.824   2.367
53128W        W19911  29.657  37.053  13.428
53129W        W19912  11.241  10.634  10.715
53130W        W19913  33.486  39.388   0.994
53131W        W19914  39.268   0.026   1.515
53132W        W19915  28.872  24.584   2.745
53133W        W19916  22.838  37.614  12.919
53134W        W19917  39.484  19.492  12.872
53135W        W19918  28.112  25.794   4.098
53136W        W19919  36.987  17.563   3.686
53137W        W19920  13.860  35.957  13.903
53138W        W19921   6.936   8.633  11.134
53139W        W19922  23.181   1.244  11.446
53140W        W19923  13.817  25.389  13.404
53141W        W19924   1.533  42.767   2.831
53142W        W19925  12.667  18.856   2.303
53143W        W19926   5.254  42.832   2.189
53144W        W19927  20.068  38.940   1.387
53145W        W19928  18.493  17.682  11.963
53146W        W19929  16.406  31.817   0.975
53147W        W19930  10.187   0.804   3.175
53148W        W19931  37.154  36.625   1.428
53149W        W19932  17.326  14.625  13.985
53150W        W19933  13.572  31.504  12.084
53151W        W19934  23.680  23.974  13.029
53152W        W19935  17.588   0.472  11.274
53153W        W19936   6.335  21.078   2.176
53154W        W19937  43.447  21.285  14.924
53155W        W19938  11.598  36.379   1.338
53156W        W19939  24.066  29.987  11.376
53157W        W19940   3.761  11.234  14.425
53158W        W19941  40.966   7.300  13.194
53159W        W19942  44.251   4.694   0.843
53160W        W19943  40.855  39.615  10.611
53161W        W19944  34.627  14.276   0.833
53162W        W19945   6.776  15.184  14.471
53163W        W19946  19.192  27.640   0.021
53164W        W19947   7.356   0.749   1.473
53165W        W19948  14.668  11.984   0.220
53166W        W19949  20.874  35.361   3.062
53167W        W19950  40.998   4.138  14.997
53168W        W19951  12.225  32.216  14.910
53169W        W19952  33.896  15.807   4.683
53170W        W19953  37.769  44.332  12.915
53171W        W19954  36.321  14.881  13.635
53172W        W19955  15.548  17.621   2.614
53173W        W19956  29.620   4.339  14.420
53174W        W19957  34.356  31.033   4.331
53175W        W19958  29.404  22.885   0.480
53176W        W19959  34.895  26.442   2.594
53177W        W19960  20.658   8.139  13.575
53178W        W19961  17.243  37.040  14.535
53179W        W19962   4.228  22.138  13.439
53180W        W19963  16.400  36.966   3.570
53181W        W19964  16.741   3.966   3.638
53182W        W19965   3.663  42.910  14.923
53183W        W19966  14.971  27.063  13.310
53184W        W19967   1.325  44.771   4.484
53185W        W19968  21.142  21.057  14.764
53186W        W19969   5.157   9.440   3.789
53187W        W19970   5.112  21.193   1.365
53188W        W19971  12.225  21.006  11.073
53189W        W19972  16.178  41.393   2.398
53190W        W19973  26.330  37.896  14.457
53191W        W19974  34.026  18.061   5.019
53192W        W19975  28.317   1.643   4.118
53193W        W19976   4.939  38.510  11.188
53194W        W19977  43.774  43.451  12.930
53195W        W19978  36.391  33.022   4.486
53196W        W19979  16.749   5.301   0.445
53197W        W19980  41.402  11.109  13.283
53198W        W19981  15.694   1.845   0.287
53199W        W19982  25.948  38.999  13.584
53200W        W19983  42.330   5.671  14.424
53201W        W19984  31.170  44.232   4.998
53202W        W19985   8.149  33.462  11.674
53203W        W19986  34.336   5.358  12.362
53204W        W19987   5.834  29.453   2.307
53205W        W19988  22.529  18.820   2.671
53206W        W19989  35.404  11.402  12.779
53207W        W19990  44.524  18.764   3.324
53208W        W19991  35.674   0.957  14.415
53209W        W19992  13.786  39.977   0.918
53210W        W19993   1.795  19.634   2.817
53211W        W19994  25.181  42.403  14.803
53212W        W19995  26.077  14.332   2.313
53213W        W19996   4.143   8.338   1.612
53214W        W19997  42.792  14.312  12.830
53215W        W19998  42.994  11.856   5.046
53216W        W19999  11.225  22.980   2.724
53217W        W20000  18.055  37.398  10.645
53218W        W20001   3.819  38.183  12.931
53219W        W20002   5.289   5.277   0.776
53220W        W20003  40.430  12.229  10.431
53221W        W20004  26.992  44.012   1.729
53222W        W20005  36.446  25.108   0.263
53223W        W20006  13.199  30.188   3.290
53224W        W20007   3.471   6.698   4.658
53225W        W20008  16.912   4.334   0.016
53226W        W20009   9.302  30.672  14.847
53227W        W20010  42.295  35.482   4.771
53228W        W20011  33.537  18.169  10.232
53229W        W20012  44.956  30.977   4.618
53230W        W20013  17.918  41.283  14.726
53231W        W20014  22.021  26.486   1.835
53232W        W20015  41.846  10.456   2.862
53233W        W20016  31.845  38.496  14.490
53234W        W20017  33.938  14.125   4.060
53235W        W20018   0.930  19.141  13.958
53236W        W20019  21.503  31.119   1.701
53237W        W20020  20.624  12.864   0.210
53238W        W20021  38.312  33.580  12.924
53239W        W20022  13.626  34.035   9.723
53240W        W20023  32.741  29.584   0.378
53241W        W20024   6.702   9.815  11.523
53242W        W20025   1.734  17.309  13.893
53243W        W20026   0.910  32.596  13.857
53244W        W20027  20.044   1.759  12.379
53245W        W20028  26.012  32.980   1.339
53246W        W20029  23.017  25.419  11.988
53247W        W20030   9.702   7.509  14.879
53248W        W20031  25.185  38.839  10.694
53249W        W20032   8.454   7.886  13.416
53250W        W20033  18.547   0.972   2.351
53251W        W20034  42.068  30.914   3.652
53252W        W20035  10.960  29.597  13.806
53253W        W20036  37.455   4.641  14.375
53254W        W20037  26.109  40.274   3.062
53255W        W20038  15.620  42.706   4.158
53256W        W20039  36.449  21.700  10.632
53257W        W20040  41.762  41.822   2.834
53258W        W20041  39.149   6.938   4.797
53259W        W20042  22.568  10.904   2.825
53260W        W20043   1.286  20.954  11.452
53261W        W20044   3.986  31.990   1.712
53262W        W20045  15.516  17.071  13.938
53263W        W20046  30.627  19.225   2.417
53264W        W20047   2.209  40.966   2.691
53265W        W20048  13.854  32.332   4.136
53266W        W20049  10.788  30.316   3.565
53267W        W20050  29.065  22.155   0.229
53268W        W20051   8.797   0.016   2.849
53269W        W20052  34.463  38.237  12.032
53270W        W20053  28.394  10.764  13.851
53271W        W20054  33.508  18.563  10.584
53272W        W20055   5.257  36.400   3.380
53273W        W20056  30.079   3.620   1.251
53274W        W20057   6.974   3.381  14.710
53275W        W20058  28.077  44.832  11.897
53276W        W20059  15.260  35.483   0.465
53277W        W20060  36.898  24.174   3.607
53278W        W20061   1.423   8.673   4.312
53279W        W20062  19.187  41.410   3.322
53280W        W20063   9.130  43.548  13.467
53281W        W20064  25.112  27.084   3.635
53282W        W20065  10.801  19.161  13.947
53283W        W20066   2.471  19.791  12.889
53284W        W20067  40.410  44.194  14.863
53285W        W20068  24.123  24.258   1.818
53286W        W20069  23.231  26.194   2.388
53287W        W20070   1.848  11.145   4.124
53288W        W20071  44.324   1.955   3.855
53289W        W20072   4.246  22.532   0.310
53290W        W20073  20.740   4.343   0.557
53291W        W20074  30.003  23.984   0.960
53292W        W20075   3.017  28.561  14.700
53293W        W20076  16.398  20.122  14.854
53294W        W20077  42.799  25.745   2.467
53295W        W20078  30.095   5.175  14.557
53296W        W20079  31.030  27.514  14.181
53297W        W20080  24.463  39.392   0.881
53298W        W20081  10.844  21.708   2.350
53299W        W20082   0.208  44.269   3.750
53300W        W20083  23.582  22.500  11.094
53301W        W20084  16.648   2.849   4.511
53302W        W20085   5.155  39.558  13.377
53303W        W20086  20.647  44.454  11.394
53304W        W20087  40.488   0.167  14.688
53305W        W20088  13.955  12.196  14.737
53306W        W20089  32.415  10.741   3.405
53307W        W20090  21.339   1.294  13.922
53308W        W20091  41.320  24.074  11.548
53309W        W20092  35.867  41.903   3.828
53310W        W20093  38.907  30.595   1.671
53311W        W20094  41.353  11.269  11.868
53312W        W20095  28.746  20.192  11.383
53313W        W20096  26.708  22.950  12.074
53314W        W20097   7.794  12.846  10.659
53315W        W20098  41.470  14.057  14.806
53316W        W20099  41.623  35.362   3.594
53317W        W20100  19.103  13.069  14.398
53318W        W20101  16.036  28.903   1.645
53319W        W20102   4.262  21.127  11.210
53320W        W20103  12.689  34.885   2.818
53321W        W20104  36.392  12.288   1.966
53322W        W20105  15.421  26.725  12.472
53323W        W20106  43.939  17.627   1.791
53324W        W20107  41.659  13.091   2.352
53325W        W20108  43.735  37.199  11.244
53326W        W20109   9.408   8.846  11.108
53327W        W20110  44.160   5.682  11.099
53328W        W20111   5.174  40.853   0.949
53329W        W20112   1.983  32.890  10.406
53330W        W20113  25.604  35.372   3.756
53331W        W20114   8.152  37.391   0.897
53332W        W20115  44.768   0.024  10.553
53333W        W20116  28.968  38.792   0.408
53334W        W20117  24.943  38.593   2.317
53335W        W20118  30.958  41.124  11.015
53336W        W20119   5.732  36.392  14.494
53337W        W20120   7.210  26.194  14.824
53338W        W20121  23.519  34.899   4.198
53339W        W20122  41.846  25.224  10.583
53340W        W20123  41.443  35.837   0.413
53341W        W20124  21.121  17.252  13.914
53342W        W20125  10.660  33.718  11.612
53343W        W20126  23.994  33.008  13.097
53344W        W20127  37.715  22.113  10.574
53345W        W20128  43.286  44.399  11.246
53346W        W20129  19.342  31.174  12.444
53347W        W20130  11.173  10.785   2.152
53348W        W20131  10.170   2.976  13.948
53349W        W20132  36.157  36.497   0.430
53350W        W20133  11.939  27.421  13.061
53351W        W20134   7.211  33.530  13.477
53352W        W20135  25.462  28.040   4.321
53353W        W20136  24.287  26.206  14.467
53354W        W20137  42.292  17.219   2.850
53355W        W20138  15.756   6.755   3.260
53356W        W20139  15.089   3.784   0.579
53357W        W20140  18.940  19.699   5.198
53358W        W20141  33.122  25.568   0.804
53359W        W20142  36.248  33.288  11.202
53360W        W20143   2.817   4.336   0.922
53361W        W20144  16.652  21.409  11.825
53362W        W20145   2.892  36.926   4.578
53363W        W20146   7.667  24.108   4.174
53364W        W20147   5.272   5.117  10.509
53365W        W20148  35.479  26.296  11.478
53366W        W20149  18.333  37.731   4.138
53367W        W20150  13.037  22.234   3.745
53368W        W20151   0.258  29.697  13.033
53369W        W20152  39.279  29.208  11.118
53370W        W20153  12.063  41.543  13.632
53371W        W20154  16.830  20.966   2.642
53372W        W20155  15.847  31.426   4.961
53373W        W20156   0.922   4.391  11.879
53374W        W20157  13.656  21.691   4.327
53375W        W20158  12.693  40.780   0.809
53376W        W20159  36.869   0.237   0.344
53377W        W20160   4.711  34.501   3.422
53378W        W20161   5.238  25.851   1.906
53379W        W20162  33.635  29.900  12.078
53380W        W20163  44.995  16.260  13.418
53381W        W20164   5.869  32.572  13.567
53382W        W20165  25.980  40.522  11.146
53383W        W20166  41.114   1.959  10.866
53384W        W20167   5.754  36.948  12.947
53385W        W20168  31.434  13.849   0.212
53386W        W20169  43.352  40.239  14.011
53387W        W20170  33.753  31.584  11.947
53388W        W20171  11.312  17.369   3.122
53389W        W20172  13.817  40.772   2.772
53390W        W20173  13.617  41.124   4.159
53391W        W20174   2.949  23.659   4.759
53392W        W20175  38.539  33.568  14.366
53393W        W20176   1.207  29.067   2.765
53394W        W20177  34.814   8.242  12.389
53395W        W20178  29.212  11.329   4.206
53396W        W20179  13.579  14.854  13.862
53397W        W20180  31.436   3.834  12.052
53398W        W20181  37.179  17.342   5.000
53399W        W20182   6.481  23.130   2.643
53400W        W20183  41.309   6.945  11.942
53401W        W20184   0.893  32.844  10.429
53402W        W20185  27.398  42.931   0.759
53403W        W20186  25.413  15.251   3.892
53404W        W20187  34.606  43.798   3.237
53405W        W20188  26.097   3.489   2.385
53406W        W20189  15.245   0.280   4.208
53407W        W20190  42.524  36.955   0.365
53408W        W20191  21.597   4.841  11.663
53409W        W20192  39.639  12.338   3.344
53410W        W20193   1.827   5.592   1.349
53411W        W20194  35.168  18.152   4.993
53412W        W20195  26.514  33.329   4.115
53413W        W20196  38.276  28.470  14.745
53414W        W20197  42.241  24.587   3.838
53415W        W20198  41.408  12.339   2.725
53416W        W20199   7.480  39.114  12.058
53417W        W20200  17.631  33.472  11.258
53418W        W20201  27.584   6.823   4.481
53419W        W20202  35.352  33.442   2.489
53420W        W20203  26.160  10.548  10.758
53421W        W20204  41.377  21.602   3.089
53422W        W20205  30.401   7.258  13.127
53423W        W20206  19.272  43.816   1.280
53424W        W20207   4.752  39.447  11.713
53425W        W20208  28.865   9.827   2.200
53426W        W20209  17.201   7.672  12.672
53427W        W20210  42.109   3.227   4.097
53428W        W20211  34.003   3.387   3.332
53429W        W20212  21.835  31.065   1.293
53430W        W20213  29.535  13.699  12.191
53431W        W20214  16.016  24.600  12.204
53432W        W20215   6.009  11.127  13.802
53433W        W20216  36.385  18.001  14.155
53434W        W20217   9.018   3.074  12.018
53435W        W20218   3.434  20.662  10.725
53436W        W20219  23.951  18.558  14.806
53437W        W20220  38.938   6.348  14.776
53438W        W20221  23.318  34.911  13.558
53439W        W20222   8.445  36.627  12.059
53440W        W20223  18.810  30.958   0.911
53441W        W20224   7.271  25.544  14.497
53442W        W20225   7.809  15.002   1.244
53443W        W20226  29.339  24.961   3.203
53444W        W20227   0.275  30.623  12.371
53445W        W20228  17.420  26.722   1.348
53446W        W20229  21.226  18.008  13.414
53447W        W20230   9.417   6.249   0.153
53448W        W20231  21.748  42.319  14.839
53449W        W20232  25.740  24.792   1.171
53450W        W20233  33.750  22.716  13.468
53451W        W20234  18.059  13.217   3.659
53452W        W20235  23.256  29.005  10.672
53453W        W20236   3.269  14.311  10.614
53454W        W20237   3.118  33.892  13.795
53455W        W20238  39.044  29.067  10.696
53456W        W20239  44.852  34.432  11.983
53457W        W20240  11.292  40.334  13.877
53458W        W20241   0.833  43.921  13.939
53459W        W20242  21.066  22.319   0.777
53460W        W20243  17.130   3.351  14.938
53461W        W20244  11.861  17.210  14.864
53462W        W20245  43.561  17.327   3.245
53463W        W20246  34.867  23.146   0.204
53464W        W20247  27.665  22.181   2.719
53465W        W20248   5.978  38.416  11.136
53466W        W20249  30.202  40.993   4.245
53467W        W20250   6.829  32.357   4.180
53468W        W20251  19.025  39.006  13.409
53469W        W20252  13.790   9.801   2.371
53470W        W20253  31.867   7.709   2.766
53471W        W20254  24.488   9.417  14.012
53472W        W20255  37.595  13.306  13.440
53473W        W20256  30.630  20.162  11.854
53474W        W20257  25.086   7.446   3.306
53475W        W20258  39.452  23.085   4.460
53476W        W20259  24.956  15.578   1.918
53477W        W20260  27.740  12.181  13.892
53478W        W20261  43.716  21.576   1.130
53479W        W20262  39.654  31.321   2.613
53480W        W20263  14.751   7.528  12.951
53481W        W20264  36.349   4.993   3.623
53482W        W20265   5.223  31.552  12.283
53483W        W20266  33.464  32.536  14.547
53484W        W20267  44.328  25.113   3.208
53485W        W20268  42.224  15.559   3.907
53486W        W20269  12.716  42.402  11.162
53487W        W20270   7.058  38.200  12.035
53488W        W20271  19.387  12.406   4.377
53489W        W20272  34.516  36.585   4.655
53490W        W20273  14.237  29.690  13.790
53491W        W20274  43.992  31.088  12.950
53492W        W20275  10.734   3.069   4.068
53493W        W20276  18.050  13.336   0.889
53494W        W20277  37.056  36.627  13.478
53495W        W20278  26.507  40.955   0.251
53496W        W20279   7.379  30.308  12.033
53497W        W20280  35.965  39.163   3.253
53498W        W20281   8.855  43.054   2.271
53499W        W20282   0.385  41.595  14.958
53500W        W20283   3.817  41.708   1.901
53501W        W20284   3.698  39.069   2.492
53502W        W20285  25.982  44.827   0.416
53503W        W20286  31.518   6.081   0.232
53504W        W20287  19.939  37.317  12.123
53505W        W20288  34.112  27.706   3.277
53506W        W20289  11.740  21.768   2.269
53507W        W20290  15.273  25.483   2.233
53508W        W20291   1.889  23.511  12.110
53509W        W20292  17.276   2.958  12.551
53510W        W20293  31.589  16.867  11.113
53511W        W20294   4.393   0.073   3.524
53512W        W20295  17.697   3.327  14.049
53513W        W20296  19.689  28.161   1.360
53514W        W20297  22.743   0.526   0.256
53515W        W20298  15.132  22.986   3.770
53516W        W20299   6.693  32.605   1.222
53517W        W20300   5.321  17.658   1.624
53518W        W20301  11.147  25.079   4.362
53519W        W20302  15.870  43.317   1.985
53520W        W20303  12.751   0.483   2.170
53521W        W20304  33.922  40.259   1.213
53522W        W20305  34.704   1.810  12.071
53523W        W20306  36.887  14.116  11.580
53524W        W20307   4.359   2.867   4.640
53525W        W20308  13.717  27.770  13.790
53526W        W20309   2.619  11.409   4.860
53527W        W20310  11.491  24.585  13.034
53528W        W20311  11.106  44.279   0.767
53529W        W20312   4.839  22.475  12.862
53530W        W20313  41.518  16.239  13.802
53531W        W20314  27.074  42.933   5.036
53532W        W20315  42.978  36.141  12.890
53533W        W20316  10.277  23.491   1.244
53534W        W20317  43.772  42.043   4.238
53535W        W20318  26.085  31.351  12.788
53536W        W20319  21.285   9.143   4.282
53537W        W20320  31.103  13.364   2.721
53538W        W20321  15.088   5.794   2.757
53539W        W20322  39.302   9.542   3.208
53540W        W20323   2.737  32.648  10.528
53541W        W20324   6.176  36.433  11.519
53542W        W20325  14.891  27.669  10.198
53543W        W20326  18.173  24.063   3.415
53544W        W20327  33.793  34.518  12.368
53545W        W20328   8.358   2.751  13.362
53546W        W20329  39.870   3.231   1.639
53547W        W20330  34.940  10.218  10.590
53548W        W20331  21.272  32.447  10.899
53549W        W20332  24.732  27.416  10.593
53550W        W20333  18.206  23.930   4.466
53551W        W20334  39.463   3.176   0.325
53552W        W20335  18.196  11.105   0.701
53553W        W20336  37.306   4.219  13.078
53554W        W20337  40.123  29.993  14.718
53555W        W20338  11.862  15.719   1.457
53556W        W20339  31.033  16.256  10.685
53557W        W20340  28.452  11.308   1.470
53558W        W20341  14.167  22.704  14.677
53559W        W20342  33.059  43.924   3.279
53560W        W20343  11.887  23.398  12.598
53561W        W20344  16.338   8.555   1.639
53562W        W20345  23.176  40.702   2.911
53563W        W20346   1.706  39.387   4.058
53564W        W20347  38.431  16.752  14.761
53565W        W20348  27.720  35.494  12.908
53566W        W20349  22.833  24.704   1.744
53567W        W20350  25.047   6.154   2.921
53568W        W20351   7.638  17.674   4.609
53569W        W20352  29.539  29.693  11.137
53570W        W20353   2.583  30.586   4.767
53571W        W20354  20.227  11.657  11.488
53572W        W20355   1.975   9.117   3.196
53573W        W20356  28.475  37.385  12.484
53574W        W20357   9.846  32.816  10.715
53575W        W20358   5.130  40.377  13.866
53576W        W20359  13.137   9.367  14.308
53577W        W20360  38.299  29.566  14.890
53578W        W20361  32.645  10.299   2.717
53579W        W20362  20.251  41.526  12.491
53580W        W20363  20.510  21.095   1.834
53581W        W20364  37.208   6.851   1.329
53582W        W20365  19.172  24.804  10.760
53583W        W20366  30.591   6.646   1.325
53584W        W20367  22.172  32.248  13.448
53585W        W20368  32.546   3.914   0.359
53586W        W20369   8.279  12.306   4.937
53587W        W20370  14.627  38.499   1.963
53588W        W20371  22.715  41.563  11.029
53589W        W20372  21.020  15.191  12.451
53590W        W20373  13.949  43.014  10.761
53591W        W20374  35.645  26.031   1.500
53592W        W20375  28.676   7.907  12.903
53593W        W20376  37.748  26.106  11.890
53594W        W20377  39.985  27.017   1.201
53595W        W20378  19.352  19.513   4.825
53596W        W20379  28.324   5.320   4.163
53597W        W20380  15.105  27.464   2.212
53598W        W20381  18.640  26.650   0.690
53599W        W20382  43.345  21.451  13.544
53600W        W20383  41.506  44.278  11.022
53601W        W20384  27.423  35.306   1.660
53602W        W20385  32.883  20.948   1.943
53603W        W20386  13.511  10.573   0.784
53604W        W20387  34.962  23.542  11.784
53605W        W20388  42.710   1.833  12.082
53606W        W20389  22.200  13.617   3.719
53607W        W20390  24.418  15.803   2.237
53608W        W20391  20.938   1.666  12.672
53609W        W20392  22.054   3.744   9.885
53610W        W20393   7.674  12.560  12.951
53611W        W20394  38.657  27.934  11.000
53612W        W20395  30.447  40.438  10.013
53613W        W20396  27.848  10.742   1.318
53614W        W20397  23.608  15.693   3.247
53615W        W20398  40.275  26.606   1.270
53616W        W20399  41.810   9.006   5.137
53617W        W20400  29.718  33.490   1.354
53618W        W20401   3.277  39.091   3.235
53619W        W20402  11.302  37.887   4.003
53620W        W20403   9.620   9.717   3.996
53621W        W20404  34.633  24.592   0.877
53622W        W20405  40.851  29.433  14.986
53623W        W20406   0.979  36.690   4.173
53624W        W20407  21.995  28.506  14.801
53625W        W20408  33.938   3.161   2.864
53626W        W20409  33.375   4.820   0.725
53627W        W20410   0.171  14.683  14.987
53628W        W20411   2.449  17.184  13.836
53629W        W20412  36.311  37.464   0.991
53630W        W20413   4.147  20.672  13.486
53631W        W20414  28.590   2.457   2.186
53632W        W20415  42.056  13.853  12.605
53633W        W20416  23.944   5.049   5.404
53634W        W20417  16.271   3.386  11.230
53635W        W20418  30.014  41.301   0.380
53636W        W20419  17.362  17.169   0.526
53637W        W20420  17.418  37.319   4.174
53638W        W20421  22.513  22.486   1.192
53639W        W20422   1.520  10.196   1.735
53640W        W20423  25.119  40.748   2.196
53641W        W20424  14.031  38.920  12.116
53642W        W20425   8.143  27.737  11.207
53643W        W20426   3.934  38.421   0.680
53644W        W20427  24.037  40.086  10.248
53645W        W20428  40.906  38.507  13.941
53646W        W20429   9.684   9.971   0.006
53647W        W20430  10.332  23.757  13.385
53648W        W20431  21.170  33.392   1.148
53649W        W20432  39.997  34.398  11.529
53650W        W20433  10.741   7.524   3.772
53651W        W20434  41.932  28.682  12.448
53652W        W20435  27.563  26.652   5.493
53653W        W20436  40.237  16.157  14.695
53654W        W20437  37.090  32.602   1.962
53655W        W20438  31.912   2.511  13.539
53656W        W20439   4.900  21.288  13.839
53657W        W20440   1.714  32.033   1.270
53658W        W20441  23.638  20.096   4.033
53659W        W20442  30.923   7.855  13.821
53660W        W20443   1.692  15.246  12.954
53661W        W20444  29.614  12.366   3.724
53662W        W20445  41.541  22.970   1.419
53663W        W20446  41.807   3.788  14.479
53664W        W20447  44.317   7.235   0.322
53665W        W20448  23.822  38.679  12.927
53666W        W20449   7.388  25.694  10.779
53667W        W20450  28.911  33.714   4.125
53668W        W20451   6.476  26.197   3.207
53669W        W20452  11.908  18.151  11.365
53670W        W20453  31.494  44.439   3.461
53671W        W20454  20.436   8.191   2.428
53672W        W20455  11.607   9.338   2.596
53673W        W20456  18.283   7.090  10.720
53674W        W20457  14.039   3.291  13.346
53675W        W20458  34.408   0.842   4.624
53676W        W20459  36.618  41.073   3.826
53677W        W20460  33.547   1.927  12.744
53678W        W20461   1.789  14.262   2.434
53679W        W20462  26.004   8.233  14.299
53680W        W20463  14.317   5.667  13.407
53681W        W20464  38.123  22.650  13.398
53682W        W20465  18.952   1.345  12.924
53683W        W20466  34.408  26.404  13.570
53684W        W20467  15.409  41.379  13.955
53685W        W20468  18.510  43.991   2.875
53686W        W20469   3.938  28.561   2.251
53687W        W20470  20.470  18.033   0.836
53688W        W20471  17.033  21.326   1.679
53689W        W20472  27.099   3.187   2.200
53690W        W20473  32.311  15.190  12.549
53691W        W20474  28.725  29.053   1.416
53692W        W20475  22.020  27.233   3.640
53693W        W20476  12.525  28.107  11.451
53694W        W20477   4.118   8.010  11.984
53695W        W20478  43.866  30.388   1.482
53696W        W20479  44.953   4.354   0.273
53697W        W20480  44.004   1.763   2.488
53698W        W20481  36.568  36.772  11.157
53699W        W20482  44.845  31.610   2.660
53700W        W20483  13.705  22.277  11.471
53701W        W20484  14.189  44.995   3.220
53702W        W20485   3.295  14.922   0.325
53703W        W20486  31.382   7.930   1.860
53704W        W20487  22.754   7.644  11.822
53705W        W20488  12.295  33.926  12.034
53706W        W20489  18.619  33.505   3.114
53707W        W20490  30.870  20.989  14.987
53708W        W20491  16.257  14.052   5.492
53709W        W20492  13.597  43.563   1.774
53710W        W20493  23.650  21.043   5.204
53711W        W20494  40.453  15.711  14.560
53712W        W20495  36.445  24.974  12.429
53713W        W20496  24.997  44.370   3.519
53714W        W20497  10.838  17.934   3.741
53715W        W20498  22.671   0.047  13.137
53716W        W20499  29.104  18.304   4.127
53717W        W20500  26.603  15.905  11.477
53718W        W20501  22.044   1.016   3.147
53719W        W20502  27.362  21.483  11.693
53720W        W20503   5.004  27.926   3.496
53721W        W20504   4.758  41.582   3.203
53722W        W20505   9.665  11.912   0.378
53723W        W20506  40.218  12.727  11.919
53724W        W20507  22.697  15.326   0.514
53725W        W20508  23.462  28.029   3.622
53726W        W20509  23.817  41.164   0.412
53727W        W20510   0.189   4.788   0.469
53728W        W20511  40.892  35.140   4.540
53729W        W20512  24.799  20.703  13.121
53730W        W20513   6.882  26.062  11.503
53731W        W20514  21.073  44.586  11.617
53732W        W20515  38.046  44.371   3.869
53733W        W20516   4.987  42.345  14.431
53734W        W20517  12.845   8.420  12.482
53735W        W20518  16.033  13.380   3.729
53736W        W20519  26.126   2.063   2.173
53737W        W20520  24.167  19.817   3.183
53738W        W20521   6.325  18.299   3.097
53739W        W20522  35.578  28.810  13.512
53740W        W20523  30.435  20.251  12.340
53741W        W20524  26.787  42.420   5.480
53742W        W20525   2.719  16.505   3.667
53743W        W20526  34.996  36.288  14.487
53744W        W20527   7.377   1.501   4.826
53745W        W20528  18.611  43.384  14.782
53746W        W20529  42.487   1.920   0.340
53747W        W20530  21.109  30.280  12.445
53748W        W20531  19.298   1.829   3.189
53749W        W20532  20.092   2.909  11.094
53750W        W20533  32.093  27.917  11.478
53751W        W20534  19.611  40.313  10.996
53752W        W20535  35.087   4.853  14.328
53753W        W20536  19.628  13.588   2.408
53754W        W20537   9.583  44.966  11.092
53755W        W20538   8.897  42.044   2.196
53756W        W20539  14.729  10.279   1.117
53757W        W20540  37.668  30.471  13.873
53758W        W20541  35.000  28.940   3.293
53759W        W20542   2.487   6.755  14.391
53760W        W20543  22.737   3.862  10.311
53761W        W20544  16.227  38.932   3.704
53762W        W20545  36.087  33.085  11.653
53763W        W20546  12.716  25.966  12.980
53764W        W20547  19.300  27.471  12.100
53765W        W20548  27.527  12.957  11.563
53766W        W20549  24.093   1.396   3.362
53767W        W20550   7.408  39.007   0.362
53768W        W20551  29.523  31.969   1.524
53769W        W20552  31.111  41.837   2.255
53770W        W20553  22.623   7.701  14.138
53771W        W20554  28.446  13.004   0.872
53772W        W20555   2.331  42.020  12.896
53773W        W20556  29.864  23.927  13.453
53774W        W20557  27.150  28.561  10.474
53775W        W20558  31.128  11.048  11.217
53776W        W20559  31.002  13.690   2.336
53777W        W20560  43.668  38.885   0.812
53778W        W20561   8.180  16.054  12.983
53779W        W20562  25.222  16.082  14.379
53780W        W20563  28.115  32.996   2.898
53781W        W20564   2.916  20.654  13.878
53782W        W20565   9.801  42.882  13.348
53783W        W20566   7.039  38.672  11.109
53784W        W20567   4.460  18.208   2.760
53785W        W20568  38.471  25.974   3.717
53786W        W20569  10.422   3.553  11.942
53787W        W20570  41.863  15.931  14.808
53788W        W20571  40.713   9.084   0.412
53789W        W20572  30.602  30.016   1.253
53790W        W20573   0.093   4.749   3.871
53791W        W20574  14.847   6.400   0.676
53792W        W20575   4.559   0.636   0.358
53793W        W20576   6.615  18.154   0.743
53794W        W20577  40.434  10.400   1.413
53795W        W20578  24.161  32.621   2.941
53796W        W20579  14.703  12.734  12.056
53797W        W20580   5.947  26.254   3.239
53798W        W20581  29.443   2.411   1.850
53799W        W20582  40.926  41.316  13.110
53800W        W20583  14.637  12.937   3.225
53801W        W20584  36.290  38.017   2.212
53802W        W20585   7.245  29.128   3.145
53803W        W20586  13.422   1.845  14.896
53804W        W20587   6.343  31.578   2.693
53805W        W20588   3.565  40.405  11.104
53806W        W20589  11.405   9.219   2.137
53807W        W20590   8.886  36.314   1.859
53808W        W20591  10.445  12.698   1.398
53809W        W20592  34.860   6.000  12.992
53810W        W20593  27.628  32.849   2.720
53811W        W20594  18.598  25.476  12.799
53812W        W20595  33.563  28.431  11.146
53813W        W20596  14.641  10.635   3.172
53814W        W20597  23.728  43.584  11.636
53815W        W20598  28.959  19.249   4.140
53816W        W20599  16.143  40.875   2.224
53817W        W20600  19.129   7.303  11.051
53818W        W20601   2.757  16.021   2.781
53819W        W20602  36.009  34.731  13.378
53820W        W20603  29.642  16.203  11.562
53821W        W20604   4.971  29.950   3.602
53822W        W20605   5.108  12.211  11.930
53823W        W20606  43.029  35.405   0.984
53824W        W20607  29.001  41.371  10.719
53825W        W20608  20.687  27.771   2.394
53826W        W20609   7.811  25.510   1.273
53827W        W20610  32.685   0.904   0.727
53828W        W20611   2.639  43.543   4.606
53829W        W20612  22.489  32.733  11.821
53830W        W20613  34.582  44.564  13.939
53831W        W20614   1.344  30.546  13.739
53832W        W20615  13.201   4.170   2.824
53833W        W20616   5.793  14.779  13.246
53834W        W20617   8.713   6.687  13.798
53835W        W20618  25.352  35.913   2.951
53836W        W20619   3.902  39.374   0.815
53837W        W20620  36.594   7.288  14.457
53838W        W20621   6.401  35.921   2.804
53839W        W20622  26.229   5.241  14.234
53840W        W20623  11.980   0.525  14.887
53841W        W20624  21.024  26.217  13.814
53842W        W20625  21.017  26.636   4.770
53843W        W20626  27.349  36.876   1.813
53844W        W20627  19.835   7.907   3.334
53845W        W20628  14.067   7.598  12.360
53846W        W20629  37.794   9.757   3.699
53847W        W20630  13.318  25.176  14.389
53848W        W20631   2.000  24.591  10.783
53849W        W20632   3.462  31.619  14.425
53850W        W20633  32.469   8.255   3.614
53851W        W20634   7.736   2.483   2.273
53852W        W20635   9.874  34.133   2.944
53853W        W20636   0.969  23.748  10.270
53854W        W20637  23.709  23.307  14.830
53855W        W20638  28.063  19.348  10.657
53856W        W20639  22.249  44.026  14.446
53857W        W20640  27.979  41.626   5.147
53858W        W20641   6.621  11.591   0.433
53859W        W20642  28.427   8.705  13.355
53860W        W20643  13.046  29.948  14.555
53861W        W20644   1.596   5.112  11.083
53862W        W20645  34.361  18.951  11.698
53863W        W20646  32.555   3.278  10.677
53864W        W20647  20.000  36.522  13.324
53865W        W20648  11.833  44.270  12.695
53866W        W20649  24.507   8.205  13.438
53867W        W20650  18.114  14.812  13.019
53868W        W20651   1.967   1.002  10.620
53869W        W20652   2.063  28.703   0.990
53870W        W20653  36.879  40.049  14.330
53871W        W20654  32.119   2.237   4.159
53872W        W20655  19.946  24.994  14.891
53873W        W20656  39.741  28.241   3.627
53874W        W20657  19.188  32.099   3.138
53875W        W20658   1.896  11.148   1.797
53876W        W20659  36.889  23.711  13.915
53877W        W20660   2.385  25.653  12.378
53878W        W20661   5.963  41.532   4.459
53879W        W20662  40.843  31.588   3.252
53880W        W20663  39.378  10.685   0.785
53881W        W20664   2.548   9.888  13.429
53882W        W20665  13.300  34.779  11.100
53883W        W20666  12.755  41.530  14.503
53884W        W20667  15.428  39.756   2.255
53885W        W20668  36.935  34.605  12.273
53886W        W20669  16.755  13.111   3.269
53887W        W20670   4.267  18.055  12.641
53888W        W20671  11.879  22.637  13.141
53889W        W20672  42.883  24.269   4.612
53890W        W20673  20.404  32.522   4.815
53891W        W20674  17.230   5.983   4.398
53892W        W20675   6.341   7.214   4.176
53893W        W20676   8.847  42.951   1.742
53894W        W20677  12.578  28.617  14.045
53895W        W20678  12.907  35.472   0.424
53896W        W20679   0.051  33.410   0.105
53897W        W20680  14.678  22.975  12.060
53898W        W20681  13.646  33.705   3.548
53899W        W20682  20.700  31.029   2.159
53900W        W20683   1.153   8.201  11.959
53901W        W20684  25.683  42.934   1.361
53902W        W20685   7.709  40.087   3.103
53903W        W20686  14.654  18.696   4.819
53904W        W20687  10.033   6.799   2.856
53905W        W20688   4.629   0.465   3.281
53906W        W20689  26.933  37.561  10.837
53907W        W20690  15.677  14.595   4.962
53908W        W20691  35.605  23.859   5.023
53909W        W20692  40.644   7.356  10.217
53910W        W20693  20.154  14.769   2.435
53911W        W20694  21.481  25.520  14.305
53912W        W20695  35.346  37.004   3.038
53913W        W20696   7.116  33.533   1.901
53914W        W20697  20.347  28.208  12.955
53915W        W20698   1.050  40.148  11.078
53916W        W20699  25.447   4.002   4.546
53917W        W20700  26.181  26.005   1.298
53918W        W20701  37.551   3.746  13.778
53919W        W20702  43.004  13.752   1.289
53920W        W20703  14.208  27.467   3.747
53921W        W20704  13.675  42.743   1.386
53922W        W20705  42.888  40.836   0.388
53923W        W20706  31.014  25.067  12.047
53924W        W20707  12.056   4.446  10.228
53925W        W20708  39.442   4.573  11.192
53926W        W20709  35.365  14.418   4.129
53927W        W20710  17.800  14.783  13.954
53928W        W20711  15.172  35.481   4.610
53929W        W20712  13.174  25.669   4.035
53930W        W20713   9.822  29.849  11.121
53931W        W20714  20.589  39.894   1.701
53932W        W20715  41.974  15.139   3.720
53933W        W20716  33.616  14.541  14.294
53934W        W20717  25.417  25.539   2.612
53935W        W20718  29.458  17.547  14.040
53936W        W20719   5.202  35.986   0.249
53937W        W20720   0.881   1.031   4.586
53938W        W20721  19.739   1.294   4.362
53939W        W20722  43.388   3.665  14.461
53940W        W20723  15.432  16.908   0.331
53941W        W20724  36.062  31.585   1.764
53942W        W20725  22.873  14.215  14.876
53943W        W20726  33.934   0.443   2.197
53944W        W20727   4.064  28.161  12.813
53945W        W20728  44.191   0.121  14.757
53946W        W20729  28.966  37.682   3.129
53947W        W20730  40.887   4.915  13.857
53948W        W20731   5.410  10.149   4.259
53949W        W20732  16.036  28.882   0.309
53950W        W20733  31.854  44.304   3.132
53951W        W20734  13.702  42.296   4.622
53952W        W20735  30.479  41.459   0.095
53953W        W20736   0.666  37.015  13.114
53954W        W20737  29.403  23.166   2.319
53955W        W20738  23.149  41.254   4.579
53956W        W20739   4.449  23.477  11.932
53957W        W20740  34.597  38.956   2.311
53958W        W20741  35.154  34.585  13.556
53959W        W20742  17.347  38.777   1.291
53960W        W20743  36.581   1.820   0.293
53961W        W20744  13.593  12.098  12.516
53962W        W20745  39.582  11.426  14.015
53963W        W20746  10.777  35.531  13.979
53964W        W20747  32.664  26.555  14.062
53965W        W20748  31.161  21.991  14.931
53966W        W20749  18.593  44.775  10.703
53967W        W20750  34.628   1.040   4.162
53968W        W20751  22.065  27.096  12.922
53969W        W20752  30.722  29.601  11.118
53970W        W20753  28.223  33.301   4.747
53971W        W20754  15.782   1.997  11.456
53972W        W20755  38.533  43.395  14.289
53973W        W20756  37.497  33.459  13.515
53974W        W20757  43.036   3.967  12.687
53975W        W20758  39.959  43.793  11.208
53976W        W20759  20.424  14.854   1.988
53977W        W20760  24.046  30.148   5.002
53978W        W20761  14.282  23.738  12.839
53979W        W20762  16.949  14.033  11.220
53980W        W20763  29.652  42.550   2.843
53981W        W20764   5.919  39.995  10.944
53982W        W20765  10.397   2.406   1.707
53983W        W20766  13.408   5.825   2.326
53984W        W20767  10.780  17.578  11.099
53985W        W20768  10.740   1.959   1.078
53986W        W20769   5.160  22.719   2.357
53987W        W20770   5.968  44.309  14.350
53988W        W20771  27.098  20.282   3.192
53989W        W20772  43.972  19.732  10.761
53990W        W20773  39.339   6.733  12.060
53991W        W20774  24.172  31.577   0.430
53992W        W20775  38.415  25.049   4.022
53993W        W20776  13.318  19.246   0.825
53994W        W20777  41.684   2.127   4.234
53995W        W20778  41.647   1.580   0.072
53996W        W20779  26.918  12.275  14.336
53997W        W20780  27.034  44.274   4.693
53998W        W20781  16.780   8.316   2.403
53999W        W20782  37.757  10.151   3.004
54000W        W20783  33.428   9.546   2.221
54001W        W20784  26.236  42.010   4.430
54002W        W20785  42.808  42.876   5.073
54003W        W20786   3.432   3.035  11.515
54004W        W20787   3.407  33.478   9.915
54005W        W20788  10.961  24.506  13.011
54006W        W20789  12.553  18.246   3.181
54007W        W20790  11.356  27.423   1.945
54008W        W20791  11.610  15.169  14.799
54009W        W20792  28.020  21.061  13.766
54010W        W20793  19.585  29.220   0.495
54011W        W20794  35.746  11.228   1.929
54012W        W20795   0.037   0.746   2.464
54013W        W20796  23.105  43.279  13.499
54014W        W20797  14.167   8.462   9.951
54015W        W20798  28.351   1.880   1.416
54016W        W20799   0.403   2.711  14.043
54017W        W20800  39.779  25.156  12.064
54018W        W20801   7.356  25.582   0.481
54019W        W20802  17.445   6.761   2.718
54020W        W20803  23.128   3.700   4.104
54021W        W20804  19.058  26.924  13.907
54022W        W20805  44.400  10.287   1.183
54023W        W20806  14.570  32.818   4.193
54024W        W20807  25.304  39.520  14.340
54025W        W20808  21.071  21.200   0.570
54026W        W20809  24.464  10.888   2.645
54027W        W20810  34.568  12.649  12.554
54028W        W20811  15.887  36.637   1.915
54029W        W20812  42.626  29.981   4.790
54030W        W20813  34.289  40.538   0.531
54031W        W20814   2.285  14.688  12.463
54032W        W20815  29.303   7.396   0.872
54033W        W20816  42.692  11.080   0.013
54034W        W20817  20.053  44.212   2.208
54035W        W20818  44.951  28.560   4.146
54036W        W20819  25.564  10.638   4.114
54037W        W20820  20.142  18.699   3.829
54038W        W20821  35.831  40.091   4.127
54039W        W20822  19.466  25.525   0.447
54040W        W20823   1.488  28.512  14.767
54041W        W20824  30.166   2.938   3.369
54042W        W20825   5.501  27.121  14.735
54043W        W20826  22.514  16.399  10.943
54044W        W20827  38.923  38.974   3.346
54045W        W20828  35.783  43.712   1.958
54046W        W20829  36.053  44.379   4.417
54047W        W20830  35.050  33.879   0.793
54048W        W20831  29.617   8.629  10.300
54049W        W20832  33.562  33.110   0.198
54050W        W20833  15.286  32.674   4.545
54051W        W20834  33.685  23.325  12.583
54052W        W20835  26.037   5.104  11.391
54053W        W20836   1.801  43.377   2.817
54054W        W20837   7.851  25.102   4.159
54055W        W20838  41.336   8.232   2.251
54056W        W20839  31.733   1.859   0.952
54057W        W20840   8.140  19.047   4.824
54058W        W20841  38.415  14.464   3.066
54059W        W20842  29.602  18.063   4.032
54060W        W20843  22.178  43.437  11.931
54061W        W20844  38.944   8.299  14.365
54062W        W20845  24.315   8.730  11.113
54063W        W20846  26.961  39.460  11.598
54064W        W20847  35.830  22.169   0.907
54065W        W20848  43.085   4.187   3.438
54066W        W20849  24.334   6.493  10.146
54067W        W20850  34.099  12.178  13.583
54068W        W20851  37.519   7.202   1.538
54069W        W20852  27.721  10.388  10.092
54070W        W20853  14.204  12.883   0.379
54071W        W20854  15.583  18.627  12.039
54072W        W20855  37.375  39.385  13.895
54073W        W20856  32.980   2.459  14.319
54074W        W20857  39.977  10.822   2.242
54075W        W20858  23.942  10.866   1.725
54076W        W20859  21.133  23.272   4.272
54077W        W20860  36.020  11.130   1.380
54078W        W20861   8.285   4.400   1.458
54079W        W20862  19.188   0.199  12.710
54080W        W20863  27.275   7.127   1.904
54081W        W20864  23.533  16.271   0.301
54082W        W20865  17.867  31.889  12.914
54083W        W20866  11.619  42.166   0.802
54084W        W20867   6.965  43.130  14.446
54085W        W20868  38.175  15.957  12.891
54086W        W20869  38.349  43.739  13.449
54087W        W20870  10.118  21.107  12.791
54088W        W20871  12.389  18.055   2.730
54089W        W20872  31.708  41.093   0.407
54090W        W20873   6.611  18.347  12.118
54091W        W20874   7.644  18.697   1.331
54092W        W20875  12.544  34.430   3.561
54093W        W20876   0.967  38.325  12.982
54094W        W20877  16.681  36.304  10.536
54095W        W20878   3.590  16.655  10.961
54096W        W20879  21.954  31.522  14.915
54097W        W20880  24.452  37.477  10.700
54098W        W20881   2.350   8.951  12.331
54099W        W20882  15.697  21.508   3.287
54100W        W20883  21.222  23.578  12.169
54101W        W20884  33.430  27.291   3.534
54102W        W20885   6.078  23.195   1.299
54103W        W20886  25.256  24.444   0.320
54104W        W20887   4.179  22.105   3.672
54105W        W20888  20.599  31.878  12.080
54106W        W20889  36.963  28.619  14.824
54107W        W20890  23.257  21.484   0.739
54108W        W20891   0.957   1.807   1.860
54109W        W20892  15.578   6.364   0.267
54110W        W20893  44.738  13.162   1.987
54111W        W20894   8.853  40.040  12.843
54112W        W20895   6.246  18.261   3.805
54113W        W20896  28.530  39.446   4.641
54114W        W20897   6.316  36.960  13.992
54115W        W20898  20.907   3.300  13.830
54116W        W20899  44.908   5.454  10.580
54117W        W20900  43.846  35.383   4.528
54118W        W20901  17.617  38.058  11.135
54119W        W20902  35.560  13.405   1.343
54120W        W20903  40.276   4.831   2.844
54121W        W20904  44.785  42.907   2.113
54122W        W20905  33.719  44.815   3.425
54123W        W20906   9.185  14.367   4.523
54124W        W20907  40.106  26.565   2.433
54125W        W20908  27.047   6.840   3.177
54126W        W20909   0.862   2.434  12.496
54127W        W20910   6.933  11.565  14.060
54128W        W20911  34.966  20.022   0.900
54129W        W20912  20.024  43.439   2.705
54130W        W20913  37.580  16.331  13.873
54131W        W20914  13.140   2.249   1.837
54132W        W20915   2.164  15.207   0.413
54133W        W20916  42.393  29.628   1.909
54134W        W20917  43.707  17.306  14.254
54135W        W20918   7.337  35.077  13.761
54136W        W20919  24.031  13.417  11.142
54137W        W20920  18.641  19.178  14.719
54138W        W20921  10.720  31.614   3.192
54139W        W20922   1.777  20.599  12.036
54140W        W20923  22.723  23.645  12.453
54141W        W20924  14.695  12.846   1.655
54142W        W20925   8.431  36.120  12.035
54143W        W20926  40.102  17.318  14.452
54144W        W20927  23.060  13.130   4.749
54145W        W20928  18.160  36.188   4.226
54146W        W20929  44.030   3.781   1.720
54147W        W20930  31.431  43.332  13.462
54148W        W20931  13.748  37.951  10.388
54149W        W20932  28.118   7.179  12.907
54150W        W20933  28.228   7.691  12.926
54151W        W20934  19.823  24.579  12.502
54152W        W20935  26.929  43.284   3.754
54153W        W20936  15.059  31.118   4.776
54154W        W20937  36.300  32.960   3.987
54155W        W20938  33.024  37.831   2.328
54156W        W20939   8.278  36.392   3.117
54157W        W20940  12.372  25.935   1.752
54158W        W20941  27.499  11.774   2.789
54159W        W20942   0.804  27.149   3.789
54160W        W20943  28.644  23.355   0.842
54161W        W20944  15.174   0.174  12.987
54162W        W20945   2.907  18.099  12.216
54163W        W20946  37.059  35.381  10.783
54164W        W20947  26.958   3.278  10.516
54165W        W20948  11.281  27.418  13.588
54166W        W20949  29.487  11.518   5.024
54167W        W20950  27.833   2.004  14.033
54168W        W20951  36.029  22.458   4.713
54169W        W20952  12.432  16.729   2.386
54170W        W20953  43.862  22.563  12.889
54171W        W20954  30.634  18.596   1.812
54172W        W20955  11.908  11.405   4.043
54173W        W20956  18.710  43.890   0.064
54174W        W20957  26.072  17.185  10.412
54175W        W20958  24.654  19.267  11.074
54176W        W20959  30.726  43.758   0.271
54177W        W20960   8.156   7.701   0.773
54178W        W20961  32.520  41.494   4.791
54179W        W20962  25.602  39.909  12.786
54180W        W20963  17.168  33.630  10.611
54181W        W20964  34.330  17.623   5.011
54182W        W20965  11.255  25.439   0.419
54183W        W20966   9.190   1.527   5.062
54184W        W20967  35.919  40.592  11.984
54185W        W20968  24.403  34.607  14.858
54186W        W20969   5.927  34.580  11.086
54187W        W20970  25.788  17.293   2.628
54188W        W20971  24.293  35.406   0.323
54189W        W20972   4.125   0.769   1.809
54190W        W20973  28.472   4.989  10.633
54191W        W20974  10.817  37.386   3.170
54192W        W20975  12.547  18.296   4.111
54193W        W20976   1.823   5.382  10.707
54194W        W20977  30.454  10.436  11.003
54195W        W20978  15.548  28.328   0.957
54196W        W20979  37.652  44.046   3.942
54197W        W20980  42.826  36.506  11.526
54198W        W20981  40.919  21.758   1.516
54199W        W20982  31.661   0.726  11.086
54200W        W20983   8.671  12.582  12.640
54201W        W20984  26.871  34.618  13.999
54202W        W20985  11.841  29.948   3.296
54203W        W20986   8.189   9.647  11.318
54204W        W20987  43.985  18.983  12.043
54205W        W20988  22.796  16.172  11.344
54206W        W20989  11.921  24.489  14.000
54207W        W20990   4.488  16.131   3.876
54208W        W20991  26.114   7.879  12.545
54209W        W20992  37.050  35.054  12.025
54210W        W20993  42.061  40.419  10.793
54211W        W20994  20.282  34.752   4.171
54212W        W20995  11.426  16.745  12.484
54213W        W20996  20.469  18.098   2.365
54214W        W20997  39.802  22.061  13.799
54215W        W20998   6.694   8.169  14.641
54216W        W20999   7.661  26.890   4.786
54217W        W21000  43.059  31.123  11.188
54218W        W21001  17.177   0.262   0.734
54219W        W21002   7.823  33.580   1.340
54220W        W21003  23.011  18.203  12.874
54221W        W21004  10.795  16.165   0.755
54222W        W21005  26.218   1.655  14.876
54223W        W21006  36.301  15.578   0.715
54224W        W21007   8.692   8.581   4.686
54225W        W21008  16.666  11.889   2.703
54226W        W21009  31.784  26.883   0.254
54227W        W21010   3.963  29.526  12.277
54228W        W21011  41.869  32.881   4.298
54229W        W21012  32.476  23.995   1.865
54230W        W21013   6.782  33.868  11.943
54231W        W21014  38.870  30.904  14.011
54232W        W21015  43.480  29.182   1.960
54233W        W21016  24.101  37.747  14.103
54234W        W21017  16.163   1.236  13.745
54235W        W21018  26.854  19.892  13.762
54236W        W21019  20.192   0.400  10.268
54237W        W21020  34.575   6.149   0.552
54238W        W21021  31.903  35.535  10.994
54239W        W21022   1.478   1.484   3.357
54240W        W21023  39.261  44.518   3.235
54241W        W21024  31.798  20.744  13.948
54242W        W21025  26.222  31.543  10.853
54243W        W21026  26.667  28.363   2.326
54244W        W21027   1.974   3.212  11.093
54245W        W21028  23.045  39.574  11.567
54246W        W21029  12.971  35.818   2.194
54247W        W21030  29.094  17.577   2.898
54248W        W21031  31.534  24.399   1.820
54249W        W21032   4.974  13.157  12.472
54250W        W21033   2.759  37.817  11.359
54251W        W21034  18.352   4.380  11.148
54252W        W21035  11.825  27.222  12.444
54253W        W21036  18.017  35.070  11.381
54254W        W21037  13.838  13.291  13.917
54255W        W21038  32.084  11.567  10.661
54256W        W21039  41.878  20.165  12.383
54257W        W21040   9.158   8.920  14.420
54258W        W21041  34.756  17.586   1.212
54259W        W21042  31.720  27.936   3.705
54260W        W21043  39.719  19.089   1.106
54261W        W21044  34.711  26.040  12.324
54262W        W21045   1.372  24.161  10.971
54263W        W21046  42.351  14.789   4.571
54264W        W21047  26.206  20.131  14.430
54265W        W21048  26.909  44.062  12.362
54266W        W21049  32.206  15.131   2.376
54267W        W21050  38.488   6.808  10.480
54268W        W21051  42.858  16.269  14.059
54269W        W21052  21.285   3.077   2.356
54270W        W21053  25.496  15.304  12.249
54271W        W21054   4.867  19.760  12.973
54272W        W21055  37.316   1.442  10.741
54273W        W21056  10.731  27.340  12.714
54274W        W21057   6.858  18.238   1.238
54275W        W21058  18.135   0.753  13.251
54276W        W21059  13.856  32.722   0.260
54277W        W21060   8.820  24.003  13.677
54278W        W21061  43.451  41.862   0.796
54279W        W21062   0.269   3.887  11.150
54280W        W21063  27.830  32.191   0.028
54281W        W21064  14.381   8.286   0.828
54282W        W21065  22.583   3.653   3.406
54283W        W21066  35.795  37.449   1.908
54284W        W21067  33.288  44.735  14.696
54285W        W21068  14.757  38.842  13.561
54286W        W21069  32.138   1.541   0.996
54287W        W21070  40.470  19.241   0.427
54288W        W21071  39.365   8.738   2.723
54289W        W21072  32.385  33.928   0.896
54290W        W21073  12.720  11.606   2.763
54291W        W21074   8.699  36.055  13.365
54292W        W21075   0.419   6.603   2.515
54293W        W21076  35.984  43.732  14.416
54294W        W21077  23.724  31.830  13.001
54295W        W21078   0.662  25.685  11.343
54296W        W21079  38.076  24.681  10.708
54297W        W21080  29.646  20.660   3.631
54298W        W21081   1.024  30.682   2.866
54299W        W21082   7.398   6.417   0.750
54300W        W21083  17.275   4.813   4.093
54301W        W21084  30.310  21.209  10.978
54302W        W21085   0.290  41.995  12.495
54303W        W21086   1.396   5.864   2.093
54304W        W21087  29.143  38.883  14.034
54305W        W21088  42.463  38.262   0.853
54306W        W21089  43.876   8.413   1.352
54307W        W21090  39.081  19.090  11.095
54308W        W21091  22.516  38.506  13.002
54309W        W21092  30.839  23.261   1.726
54310W        W21093  17.188  15.784  11.982
54311W        W21094  26.264  15.384  12.542
54312W        W21095  42.032  31.014  11.847
54313W        W21096  25.131  29.697  10.403
54314W        W21097  14.343  32.688   1.041
54315W        W21098  26.251  39.511  11.074
54316W        W21099  27.664  26.111   4.235
54317W        W21100  14.697  42.503   4.318
54318W        W21101  32.581   1.196  12.540
54319W        W21102  40.216  30.934   1.798
54320W        W21103  12.669  26.651   1.734
54321W        W21104  27.729  22.541   3.092
54322W        W21105  19.755  28.085   3.163
54323W        W21106  37.988  34.395  13.266
54324W        W21107   2.500  14.877   1.875
54325W        W21108   5.003  17.688  10.927
54326W        W21109  33.645   9.791   1.248
54327W        W21110   5.769  17.554  13.947
54328W        W21111  14.637   2.242   2.275
54329W        W21112  30.892  40.866   2.015
54330W        W21113  39.294  37.548  13.963
54331W        W21114  29.979  34.670  10.665
54332W        W21115  32.565  22.554   1.368
54333W        W21116  19.731  40.432   4.480
54334W        W21117  34.849  28.889  10.316
54335W        W21118   5.408  42.270   2.032
54336W        W21119   8.612   8.796   3.304
54337W        W21120  12.208  10.345   1.839
54338W        W21121   5.147  14.130  13.376
54339W        W21122   9.902  35.968   1.174
54340W        W21123  32.607  28.062   1.721
54341W        W21124   2.334   6.215   3.840
54342W        W21125  44.315   7.290   2.681
54343W        W21126  39.561  37.605   1.245
54344W        W21127  14.174  27.436  13.278
54345W        W21128   0.902  18.409   1.915
54346W        W21129  38.017  28.112  10.243
54347W        W21130  22.568   2.890  13.395
54348W        W21131  28.459  15.606  12.316
54349W        W21132   1.926  32.565   0.250
54350W        W21133  16.020   3.391   3.208
54351W        W21134  31.512  15.315  14.831
54352W        W21135  10.794   0.543   1.333
54353W        W21136  13.184  41.987  11.828
54354W        W21137   9.775  18.147   2.804
54355W        W21138  17.340  19.776  12.494
54356W        W21139  29.345  24.480  12.832
54357W        W21140  38.888  32.198  12.009
54358W        W21141  17.218  31.600  13.609
54359W        W21142  13.232  25.924   1.608
54360W        W21143   2.343   7.890   0.956
54361W        W21144   8.720  20.775  13.757
54362W        W21145  22.382   1.093   5.027
54363W        W21146  31.793   3.020  10.796
54364W        W21147  37.004   6.940  13.068
54365W        W21148   0.722  41.254   4.527
54366W        W21149  23.500  29.399  13.042
54367W        W21150  34.805   5.710  10.648
54368W        W21151   8.784   3.260  11.314
54369W        W21152   5.682  14.766   0.358
54370W        W21153  13.212   0.031  11.096
54371W        W21154  10.274  44.505   1.829
54372W        W21155  30.816   1.634  11.120
54373W        W21156   3.075  13.190  14.715
54374W        W21157  36.166  14.181   3.877
54375W        W21158  37.734  32.327  11.325
54376W        W21159  13.015  38.580   3.249
54377W        W21160  28.904  10.657  13.042
54378W        W21161  42.719   3.793   3.649
54379W        W21162  34.046  36.967  12.936
54380W        W21163  35.915  44.188  12.323
54381W        W21164   2.892  41.018  13.347
54382W        W21165   9.635  15.881   3.286
54383W        W21166  32.700  13.236   0.507
54384W        W21167  28.562  29.221   4.838
54385W        W21168   3.907  40.816  10.916
54386W        W21169  28.467  33.244   3.853
54387W        W21170  31.340  37.751   2.823
54388W        W21171  20.535  37.468  13.555
54389W        W21172  16.847  44.475   4.061
54390W        W21173  32.065   2.401  12.753
54391W        W21174  31.298  33.768   0.055
54392W        W21175  38.713  10.726   2.903
54393W        W21176  12.587  30.441  13.864
54394W        W21177  26.022   6.950   2.772
54395W        W21178  19.481   2.340  10.612
54396W        W21179  10.453  21.008  10.050
54397W        W21180  29.159  44.962  10.669
54398W        W21181  29.430  29.457  14.279
54399W        W21182  17.677  16.981   2.355
54400W        W21183   3.569  22.613  10.364
54401W        W21184  19.495  43.943  14.864
54402W        W21185  16.510   5.493   3.719
54403W        W21186   5.822  40.272   1.190
54404W        W21187   7.973  18.289  12.372
54405W        W21188  18.787  21.730   2.009
54406W        W21189  32.085   6.819   3.390
54407W        W21190  25.744  29.013   5.245
54408W        W21191  35.950  44.990  12.877
54409W        W21192  25.103  34.373   4.342
54410W        W21193  34.374  11.684   2.773
54411W        W21194  37.763  23.828  13.975
54412W        W21195  18.169  37.467   1.695
54413W        W21196  21.158  14.780   4.603
54414W        W21197  11.629  18.657  14.285
54415W        W21198   1.375   6.824   2.138
54416W        W21199  14.356  24.665  13.911
54417W        W21200   1.912   8.950  12.565
54418W        W21201  43.109   2.699  14.813
54419W        W21202  39.990   5.373  12.891
54420W        W21203   0.353  42.952   0.179
54421W        W21204  38.533  17.723  14.873
54422W        W21205   8.494  17.303  13.959
54423W        W21206   9.766   3.986  14.456
54424W        W21207  21.352  12.535  13.584
54425W        W21208  12.497  33.690  13.811
54426W        W21209  18.630  27.457  13.141
54427W        W21210  30.542  37.400   3.385
54428W        W21211  30.449  40.327  12.585
54429W        W21212  25.423  39.402   3.147
54430W        W21213  10.229  29.428   0.437
54431W        W21214  19.363  26.186   2.372
54432W        W21215  16.987  30.158   1.336
54433W        W21216  16.333   6.384   0.742
54434W        W21217  39.197   2.170   1.005
54435W        W21218   2.201  31.193  14.374
54436W        W21219  39.999   7.399  14.562
54437W        W21220  37.948  10.752  12.458
54438W        W21221  34.617  28.813   0.219
54439W        W21222   1.720  43.225  14.489
54440W        W21223  27.489  41.527   4.909
54441W        W21224  39.276  28.647  10.498
54442W        W21225  36.543  33.400   4.129
54443W        W21226  10.662  12.002   3.362
54444W        W21227  30.352  39.904   1.148
54445W        W21228  14.236   9.367   0.290
54446W        W21229  22.048   7.201   1.285
54447W        W21230  25.549  29.105  14.964
54448W        W21231  17.726  42.730  11.091
54449W        W21232  13.606  34.698  12.776
54450W        W21233  21.449   7.151   1.819
54451W        W21234   7.655  37.400   4.325
54452W        W21235   8.041   2.407  12.940
54453W        W21236  41.226   1.343  14.735
54454W        W21237  27.345  20.412   4.163
54455W        W21238  35.312  27.476   1.270
54456W        W21239  39.393  32.554  13.659
54457W        W21240  25.680  36.956   2.688
54458W        W21241  26.535  16.007  13.351
54459W        W21242   7.387  41.507  10.931
54460W        W21243  31.178   1.499  13.410
54461W        W21244  22.440   1.915  13.352
54462W        W21245   6.374  22.287   0.869
54463W        W21246  21.742  34.002   3.660
54464W        W21247  25.610   8.392   4.525
54465W        W21248  38.358   0.676   2.215
54466W        W21249   0.253  22.429  13.010
54467W        W21250  30.640  43.889  11.668
54468W        W21251  35.666  16.926   2.860
54469W        W21252  43.346  30.732   4.132
54470W        W21253  34.082  38.530   1.815
54471W        W21254   3.701  15.607   4.652
54472W        W21255  42.094  39.015  11.562
54473W        W21256  19.166  14.081   2.904
54474W        W21257  19.046   9.831  14.840
54475W        W21258  18.174  33.407  13.640
54476W        W21259  37.868   5.684  10.746
54477W        W21260  33.485  25.531  13.029
54478W        W21261  28.217   7.222   1.749
54479W        W21262   8.286  14.242   1.384
54480W        W21263  34.617  28.146   3.631
54481W        W21264   1.781   9.767   4.734
54482W        W21265  34.103  24.138   2.302
54483W        W21266  22.121  25.223   1.220
54484W        W21267  43.233   6.693   1.930
54485W        W21268  32.692   2.846   3.843
54486W        W21269  41.468   3.014  13.865
54487W        W21270  39.234  43.360  14.026
54488W        W21271  40.166   3.290  11.565
54489W        W21272   9.385   3.442  12.115
54490W        W21273  12.232   8.888   1.394
54491W        W21274  18.224  30.590  11.195
54492W        W21275  22.585  27.986   1.707
54493W        W21276  13.512   7.277   3.322
54494W        W21277  28.917  13.241   3.054
54495W        W21278  37.076  20.623  11.504
54496W        W21279   0.785  34.548   3.607
54497W        W21280  38.535   3.752  13.124
54498W        W21281  43.801  24.580   4.281
54499W        W21282  24.663  10.591  11.093
54500W        W21283   8.754  17.088   0.229
54501W        W21284   5.904  36.895  10.899
54502W        W21285  32.506  18.319  10.107
54503W        W21286  21.061  30.700  11.516
54504W        W21287  16.147   4.861  10.467
54505W        W21288  21.547  22.845  10.108
54506W        W21289  28.629   2.507  11.786
54507W        W21290  41.593  36.867  14.542
54508W        W21291  13.701  10.027   0.498
54509W        W21292  13.071   5.989   2.695
54510W        W21293   0.383   2.626   1.706
54511W        W21294  11.916  30.564   4.775
54512W        W21295  10.803  13.729  14.498
54513W        W21296   4.452   7.428  13.810
54514W        W21297   8.769  39.588  13.076
54515W        W21298  17.814   4.606   4.022
54516W        W21299  28.918  41.172   3.391
54517W        W21300  39.421  10.109  11.682
54518W        W21301  25.191  23.717   1.992
54519W        W21302  34.946  12.641  13.999
54520W        W21303  18.363  34.376  13.492
54521W        W21304  22.236  16.976   2.835
54522W        W21305  37.803  40.028  13.297
54523W        W21306  24.049  38.639  11.204
54524W        W21307  30.679   3.327  11.542
54525W        W21308  16.185  30.095  12.967
54526W        W21309  38.511  16.283   0.975
54527W        W21310  31.294  25.517   3.383
54528W        W21311  33.594   1.971  11.178
54529W        W21312  29.089  40.171   4.013
54530W        W21313   6.397  14.812   1.935
54531W        W21314   2.154  12.640   3.734
54532W        W21315   3.396  34.325   4.307
54533W        W21316   8.417  12.682   3.082
54534W        W21317  16.265  33.253   2.701
54535W        W21318  18.681  34.192   4.695
54536W        W21319  16.544  14.873   0.367
54537W        W21320   9.458  21.672  12.466
54538W        W21321  22.063  16.625  11.019
54539W        W21322  44.525  26.771  13.492
54540W        W21323  36.546   9.579   1.039
54541W        W21324   1.304  31.576  14.490
54542W        W21325   8.436  34.061  12.988
54543W        W21326  42.560   3.005   0.442
54544W        W21327  36.846  17.042  13.703
54545W        W21328  33.826  28.899  11.235
54546W        W21329  41.282  33.227  14.292
54547W        W21330  20.445  28.597   2.628
54548W        W21331  14.931  13.361   4.551
54549W        W21332   3.752  33.443  10.748
54550W        W21333  39.366  32.500   1.009
54551W        W21334  31.027  22.693   2.572
54552W        W21335  12.326  34.262  12.955
54553W        W21336  21.225  10.144  10.460
54554W        W21337  39.939  37.956  11.750
54555W        W21338  33.871  13.286   3.656
54556W        W21339   6.212  13.667  13.398
54557W        W21340  21.191  27.444  12.399
54558W        W21341  14.821   2.016   1.787
54559W        W21342  38.331   5.481  13.496
54560W        W21343  35.040  24.649   4.123
54561W        W21344  19.641   8.424  10.807
54562W        W21345  24.897  42.290   1.362
54563W        W21346  37.359  11.589   3.780
54564W        W21347   9.102  43.437   1.784
54565W        W21348   9.313  11.815   2.319
54566W        W21349   1.275  12.600  14.235
54567W        W21350  30.062  34.545   1.642
54568W        W21351  28.472   5.254   2.253
54569W        W21352  41.307  42.299   1.338
54570W        W21353   9.417  41.149  11.715
54571W        W21354   2.941  35.853   4.694
54572W        W21355  14.203   6.746   4.205
54573W        W21356  16.550  16.237   1.320
54574W        W21357  23.324  20.374   2.325
54575W        W21358   9.364  13.803  13.421
54576W        W21359   3.410  30.157  12.465
54577W        W21360   8.966   9.244   1.268
54578W        W21361  26.346  34.013  13.486
54579W        W21362  44.438  34.999   1.311
54580W        W21363  13.178  41.632   3.591
54581W        W21364  37.558   1.226   1.396
54582W        W21365  22.233  41.550  14.688
54583W        W21366   5.888   4.616  11.906
54584W        W21367   8.498  11.454   4.520
54585W        W21368  28.028  21.799   2.696
54586W        W21369   8.803  21.661   4.064
54587W        W21370   2.875  33.135   4.842
54588W        W21371  28.995  36.183  12.657
54589W        W21372  39.833  39.724  10.642
54590W        W21373   6.035  11.587  14.067
54591W        W21374  25.233   8.072  12.962
54592W        W21375  38.967  42.839   1.127
54593W        W21376   2.887  17.084  14.746
54594W        W21377  25.968   8.352  12.664
54595W        W21378  16.755  26.049  12.424
54596W        W21379  24.180  11.670  13.431
54597W        W21380  27.706  38.327   4.404
54598W        W21381  15.810  27.108   1.921
54599W        W21382  15.886  15.425  13.349
54600W        W21383   8.260  11.822  13.775
54601W        W21384  21.143  16.203  14.962
54602W        W21385  35.357  31.925  11.483
54603W        W21386  15.488  16.162   4.739
54604W        W21387   5.444  21.660   2.174
54605W        W21388  16.658  39.497  13.233
54606W        W21389   6.367  23.815  12.068
54607W        W21390  41.896  37.197  13.173
54608W        W21391  40.894  36.048   3.083
54609W        W21392  40.649  15.292   1.400
54610W        W21393  12.553   3.162   1.966
54611W        W21394   2.736  11.853   2.150
54612W        W21395  22.869  29.501   1.436
54613W        W21396  10.106  18.651  13.027
54614W        W21397  22.577   4.727   2.587
54615W        W21398  36.801  21.174   1.027
54616W        W21399  43.248  23.038   1.794
54617W        W21400   4.613  25.544  11.224
54618W        W21401  30.896  43.445   3.618
54619W        W21402   4.503  29.043   1.835
54620W        W21403  35.033  31.682  14.296
54621W        W21404  10.877   9.964   1.725
54622W        W21405  22.597   5.882  13.938
54623W        W21406   7.810  15.630  10.711
54624W        W21407   0.028  23.162   4.248
54625W        W21408  32.241  26.097  13.461
54626W        W21409   6.560   5.879   0.303
54627W        W21410  40.416   7.719   0.653
54628W        W21411  40.568  41.637   3.420
54629W        W21412  39.456  22.122   4.933
54630W        W21413  41.539  42.482   3.303
54631W        W21414  18.831  37.347   4.162
54632W        W21415   9.616  32.612   4.558
54633W        W21416  34.114   0.982   4.229
54634W        W21417   0.477  19.191   0.782
54635W        W21418  24.380  14.247  14.823
54636W        W21419  40.975   2.223  14.379
54637W        W21420   5.370  35.982   0.750
54638W        W21421  37.415  15.440   3.249
54639W        W21422   5.936  15.215  12.997
54640W        W21423  19.576  24.925   1.235
54641W        W21424  43.169   6.396  13.483
54642W        W21425  31.381  36.559  12.627
54643W        W21426   9.594  27.653   3.855
54644W        W21427  19.655  16.574   0.814
54645W        W21428  44.354  39.587   2.248
54646W        W21429  26.508  36.069   3.632
54647W        W21430  25.945  12.113  10.501
54648W        W21431  42.310  39.989   3.600
54649W        W21432  22.985   2.888  14.429
54650W        W21433  31.147   3.666  13.810
54651W        W21434  24.235   9.656   4.527
54652W        W21435  31.322  17.723  13.477
54653W        W21436  20.109  14.992   1.389
54654W        W21437   0.163  22.101   1.301
54655W        W21438  37.067  41.555  13.395
54656W        W21439  20.679   7.988   0.216
54657W        W21440  14.324  44.775   3.778
54658W        W21441  22.199   0.050   3.186
54659W        W21442   0.212   1.340   4.143
54660W        W21443  24.305  11.378  12.622
54661W        W21444  15.756  17.033   1.975
54662W        W21445  11.132  29.041   2.396
54663W        W21446   6.821   5.751   2.254
54664W        W21447  40.938  17.009   4.993
54665W        W21448  35.483  42.320   1.279
54666W        W21449  13.140  41.371   4.454
54667W        W21450  24.938  17.545  12.377
54668W        W21451  26.107   5.731  12.762
54669W        W21452  10.472  19.080   4.184
54670W        W21453  37.159  39.219   1.492
54671W        W21454  34.084  14.188   2.768
54672W        W21455  42.922  21.641  11.113
54673W        W21456  21.761  17.806   3.319
54674W        W21457   4.881   1.439   0.501
54675W        W21458  20.764  19.190   1.701
54676W        W21459  14.717  41.997  13.546
54677W        W21460   8.841   0.552   2.891
54678W        W21461  26.966  29.993  12.390
54679W        W21462  26.001  39.034   3.671
54680W        W21463  31.466  14.306  14.053
54681W        W21464  33.436  28.078   2.413
54682W        W21465  18.049  20.194   0.914
54683W        W21466  18.601  10.166  10.904
54684W        W21467   3.588   9.373  11.003
54685W        W21468   5.019  31.123  11.958
54686W        W21469  41.899  40.177  12.971
54687W        W21470  21.193  13.029   3.849
54688W        W21471  37.331  12.661   4.095
54689W        W21472  21.061  32.650  13.940
54690W        W21473  23.018  44.740   4.170
54691W        W21474  16.823  42.455   4.814
54692W        W21475   8.994  39.136   4.551
54693W        W21476   4.777  14.629   4.857
54694W        W21477  21.480   4.332   1.948
54695W        W21478  27.689  38.194  11.244
54696W        W21479   2.797  39.014  14.304
54697W        W21480  28.715  37.849  10.312
54698W        W21481  25.654  40.587   3.686
54699W        W21482   1.775  20.272  13.405
54700W        W21483  37.863  14.185  10.681
54701W        W21484  38.892   0.821   0.938
54702W        W21485  17.017   7.362  11.459
54703W        W21486   5.709  31.568   2.330
54704W        W21487   0.418  25.624   4.919
54705W        W21488  21.785  26.094  12.047
54706W        W21489  13.224   7.045   4.712
54707W        W21490   0.985  39.581  12.506
54708W        W21491  30.325   0.840   3.286
54709W        W21492  29.411  20.703   2.197
54710W        W21493  27.627   9.102  14.898
54711W        W21494  43.311   7.114  13.831
54712W        W21495   1.934   6.534   3.704
54713W        W21496  37.349  44.347  10.536
54714W        W21497   5.340  40.941   4.078
54715W        W21498  26.757  36.657  13.846
54716W        W21499  13.837  33.719   0.462
54717W        W21500   6.392  37.610   0.344
54718W        W21501  23.750  35.665  13.456
54719W        W21502   5.130  28.559  13.035
54720W        W21503  38.423  16.300  13.626
54721W        W21504   4.874   7.185   5.104
54722W        W21505  27.093  16.052   2.051
54723W        W21506  29.968  32.465  13.940
54724W        W21507  42.764  30.425   2.171
54725W        W21508   1.668   4.279  12.938
54726W        W21509  36.907  31.837  13.805
54727W        W21510   0.373  42.263   4.141
54728W        W21511  11.871  19.191  12.069
54729W        W21512  19.020  39.434  11.045
54730W        W21513  28.709  34.013   0.813
54731W        W21514  31.456   8.787   2.086
54732W        W21515   3.023  38.657  11.562
54733W        W21516  41.348   2.415  12.992
54734W        W21517   1.789  19.141   2.203
54735W        W21518  29.890   6.727   2.829
54736W        W21519   9.978  21.543  13.314
54737W        W21520  15.637  23.791   0.908
54738W        W21521   2.481  31.651   0.484
54739W        W21522  33.677   6.145   2.257
54740W        W21523   7.628  23.718   2.353
54741W        W21524  32.854  30.135   2.865
54742W        W21525  43.993  15.627  13.071
54743W        W21526  32.116  26.437   1.414
54744W        W21527  33.227   2.942   1.757
54745W        W21528   2.775  21.060   2.097
54746W        W21529  27.894  20.874   1.367
54747W        W21530  35.337  24.083   1.571
54748W        W21531  11.247  21.264  12.645
54749W        W21532  12.094  41.404   0.862
54750W        W21533  28.700   3.405   2.326
54751W        W21534  26.111   8.453   1.774
54752W        W21535   6.270  17.351   3.222
54753W        W21536  32.857  28.759   4.031
54754W        W21537  32.639  33.032   3.104
54755W        W21538  44.790  44.507  10.530
54756W        W21539   1.255  19.176   0.264
54757W        W21540  25.375  33.324  12.499
54758W        W21541  37.160  41.052  13.650
54759W        W21542  39.052  13.483   3.970
54760W        W21543  20.684  23.492   4.817
54761W        W21544  38.873  38.502   3.584
54762W        W21545  42.282   4.683   4.609
54763W        W21546  43.086  34.392  13.469
54764W        W21547  21.857  32.023  14.754
54765W        W21548  24.494  21.075  14.847
54766W        W21549   8.129  43.408   4.173
54767W        W21550  17.663  25.874   4.075
54768W        W21551  14.721  10.338   0.562
54769W        W21552  12.464  19.473   1.601
54770W        W21553   5.206  11.132   4.270
54771W        W21554  18.598  15.674  13.307
54772W        W21555  27.241  31.443  10.727
54773W        W21556   3.666  37.663  12.081
54774W        W21557  39.056  25.959   3.236
54775W        W21558   2.177  42.960  12.916
54776W        W21559  42.573  30.728  11.970
54777W        W21560  17.873  35.832  11.061
54778W        W21561   6.144  10.235   3.830
54779W        W21562  34.725  38.770  12.992
54780W        W21563  33.088   2.036  11.796
54781W        W21564  12.383  30.377  11.949
54782W        W21565  20.233  13.593  14.976
54783W        W21566   8.597  21.894  12.125
54784W        W21567  15.636  23.102   3.603
54785W        W21568  17.198  16.935   4.111
54786W        W21569  32.530   2.214   2.515
54787W        W21570  40.822  16.684  13.317
54788W        W21571  38.829  16.301  12.038
54789W        W21572  24.510  27.198  13.255
54790W        W21573  33.645  27.582   0.559
54791W        W21574  16.459   5.918   0.955
54792W        W21575  21.909   3.431   1.304
54793W        W21576   4.929  18.160  10.685
54794W        W21577   7.790  22.174  12.169
54795W        W21578  40.013   2.891   3.913
54796W        W21579   6.235  26.447   3.623
54797W        W21580  10.295   4.243  14.772
54798W        W21581  40.849  14.512   0.453
54799W        W21582  12.230  43.978   0.240
54800W        W21583  17.780  14.207   2.465
54801W        W21584  29.874  10.628  14.073
54802W        W21585  41.137   6.808  12.993
54803W        W21586  43.592  35.367  14.946
54804W        W21587  31.849  32.028  10.813
54805W        W21588  13.826   8.342   9.576
54806W        W21589   6.638  26.206   0.493
54807W        W21590  41.373  38.115   2.898
54808W        W21591   3.127  40.440  12.470
54809W        W21592  32.880  22.355  11.983
54810W        W21593  39.913  32.489   3.330
54811W        W21594  39.265  23.135   1.445
54812W        W21595  40.312  43.550   4.232
54813W        W21596   1.913  22.494   4.771
54814W        W21597  16.861  27.030   1.919
54815W        W21598  34.551  43.406  11.513
54816W        W21599  18.713   2.703  14.368
54817W        W21600   2.413  19.585   0.834
54818W        W21601  44.916   9.930   0.772
54819W        W21602  30.372   2.981  12.063
54820W        W21603  36.859   0.370  12.887
54821W        W21604   8.878  38.345  14.116
54822W        W21605  43.015  42.001  12.477
54823W        W21606  20.144  30.928  13.833
54824W        W21607  38.518  22.732   1.288
54825W        W21608   2.799  26.399  13.400
54826W        W21609   9.208   2.651   1.352
54827W        W21610  31.207  13.327   0.476
54828W        W21611  25.213  10.232   0.947
54829W        W21612   5.892  35.212  12.687
54830W        W21613  11.682  13.390  10.729
54831W        W21614  36.632  34.872   1.475
54832W        W21615   3.795  37.859  14.938
54833W        W21616  35.053  18.496  13.056
54834W        W21617  33.328  14.621  12.546
54835W        W21618  15.717  15.912  13.253
54836W        W21619  17.155  23.288   1.934
54837W        W21620  31.547  17.871   2.867
54838W        W21621  11.538   3.765   3.216
54839W        W21622  26.840  18.114  11.679
54840W        W21623  11.203  11.378  13.653
54841W        W21624  23.941  20.734   1.808
54842W        W21625  40.268  33.468  11.518
54843W        W21626  38.469   0.031   4.250
54844W        W21627  10.860   3.788  13.393
54845W        W21628  12.870  41.721  13.289
54846W        W21629  15.210  30.340  12.367
54847W        W21630  29.588   0.584   1.269
54848W        W21631   7.513   2.841   3.294
54849W        W21632  14.778  28.638   1.450
54850W        W21633  15.599  28.156   4.551
54851W        W21634   9.524  40.824  12.125
54852W        W21635  22.632  39.349  13.912
54853W        W21636  19.198  40.496   2.784
54854W        W21637  16.057   0.260  13.201
54855W        W21638  10.481  22.717  10.801
54856W        W21639  33.039   5.187   4.716
54857W        W21640  36.526  23.498  13.631
54858W        W21641  26.122  26.102  14.528
54859W        W21642   5.301  35.858  12.623
54860W        W21643  41.559  10.699   3.248
54861W        W21644   5.142  25.697  11.259
54862W        W21645  42.282  37.700  11.953
54863W        W21646   7.774  31.597   3.717
54864W        W21647  33.452  11.891   0.343
54865W        W21648   6.483   2.732  14.934
54866W        W21649  14.264  29.196  13.807
54867W        W21650  22.692   5.052   1.598
54868W        W21651   5.806  17.031  13.455
54869W        W21652  24.810  17.251   0.456
54870W        W21653   1.762   3.447  12.095
54871W        W21654  12.593  23.879  12.350
54872W        W21655  16.613  36.428   3.078
54873W        W21656  14.815   2.692   1.319
54874W        W21657  35.848  21.260  10.676
54875W        W21658  44.932  40.642   1.705
54876W        W21659  37.310  19.339   3.778
54877W        W21660  36.082   8.025   2.244
54878W        W21661  28.948  15.519   2.442
54879W        W21662  35.062   8.450   1.246
54880W        W21663  24.988  22.791  12.327
54881W        W21664  35.475   7.699  14.719
54882W        W21665  37.156  37.941  11.464
54883W        W21666   8.371   1.005   3.841
54884W        W21667  30.644  29.946  14.613
54885W        W21668  32.616  11.856  14.941
54886W        W21669   1.089  26.630   0.834
54887W        W21670  24.197   7.803   0.435
54888W        W21671  42.421  28.114  11.742
54889W        W21672  25.283  42.202   4.034
54890W        W21673  40.245  44.905   1.383
54891W        W21674   8.758   4.388   3.669
54892W        W21675  28.931  27.035  13.081
54893W        W21676  14.220  40.059   1.197
54894W        W21677  12.214  19.595  10.779
54895W        W21678  23.098  16.580   3.165
54896W        W21679  29.249  28.092   0.018
54897W        W21680  33.894  27.670  10.633
54898W        W21681  10.382  29.304   2.931
54899W        W21682  37.579  19.662  14.235
54900W        W21683  35.576  25.593   3.206
54901W        W21684  26.846  34.463  11.510
54902W        W21685  44.272  22.706   2.799
54903W        W21686  16.650  35.140   2.261
54904W        W21687   4.828  33.294  12.002
54905W        W21688   1.955  19.092  14.214
54906W        W21689  41.387  39.210   5.032
54907W        W21690  26.078  31.165  12.177
54908W        W21691   5.521  29.093   3.645
54909W        W21692  37.309  30.574   3.260
54910W        W21693  15.154  15.194   4.511
54911W        W21694  21.178  37.671   2.801
54912W        W21695  35.048  23.429  12.316
54913W        W21696  27.937  42.574  11.549
54914W        W21697  14.392  42.800   4.034
54915W        W21698  14.754  32.885  12.079
54916W        W21699  27.933  26.801   5.147
54917W        W21700  18.628  43.343   2.948
54918W        W21701   5.193  25.719  12.033
54919W        W21702  25.715  25.730  13.518
54920W        W21703  43.294  38.107   1.543
54921W        W21704  34.086   6.661  12.889
54922W        W21705  22.395   2.176   3.359
54923W        W21706  24.153  19.183  10.579
54924W        W21707  20.131  19.999  12.432
54925W        W21708  25.840  15.290   0.462
54926W        W21709  30.976  40.389  11.488
54927W        W21710  26.766  26.655  10.819
54928W        W21711   3.866  22.184  14.079
54929W        W21712  43.854  21.589   3.235
54930W        W21713  39.494   7.230   3.877
54931W        W21714  32.910  41.690  14.468
54932W        W21715  18.705  16.853   0.330
54933W        W21716  34.157  39.133   3.315
54934W        W21717   2.060  20.121  13.941
54935W        W21718  21.165  25.848  11.189
54936W        W21719  31.276  27.021   2.108
54937W        W21720  13.287   2.962  12.098
54938W        W21721  22.092  35.305   4.116
54939W        W21722  34.915  32.846  13.938
54940W        W21723  18.045  27.091   3.662
54941W        W21724  16.331   5.827  13.443
54942W        W21725  30.633  11.522  13.445
54943W        W21726   0.421  42.251   2.238
54944W        W21727  16.485  28.503  13.481
54945W        W21728   8.280  15.704  10.407
54946W        W21729  30.079   8.119   3.267
54947W        W21730  12.346  29.856  12.157
54948W        W21731  11.848   9.914   4.494
54949W        W21732  34.899   6.207   1.802
54950W        W21733   6.473  37.651   9.940
54951W        W21734  26.730  38.002  14.110
54952W        W21735   7.804  12.113   0.840
54953W        W21736  13.842  33.308   3.203
54954W        W21737  35.469  43.876  12.450
54955W        W21738  28.612  43.869  12.845
54956W        W21739  15.650  11.307   3.829
54957W        W21740  11.956  42.209  12.480
54958W        W21741  27.508  12.238  13.422
54959W        W21742  39.978   1.937   2.530
54960W        W21743  18.475  40.476   4.548
54961W        W21744  20.257  23.676  11.190
54962W        W21745  40.409   4.412  12.220
54963W        W21746  43.075  27.073   0.401
54964W        W21747  14.492  25.179   4.104
54965W        W21748  14.503  42.927  14.065
54966W        W21749   9.570   6.320  14.303
54967W        W21750  22.276  29.709   4.044
54968W        W21751  17.626   8.800   2.814
54969W        W21752   6.617  33.212   2.484
54970W        W21753  27.618  16.089   4.294
54971W        W21754   0.923  18.312   0.981
54972W        W21755  42.017   4.616   5.031
54973W        W21756  19.521  27.025  11.975
54974W        W21757   3.844  25.482   3.406
54975W        W21758  11.639  41.881  12.219
54976W        W21759  36.963   6.775   0.494
54977W        W21760  22.386  22.984  12.593
54978W        W21761   6.111  30.161  13.499
54979W        W21762  19.225   6.572  13.112
54980W        W21763   5.052   4.719  10.784
54981W        W21764  16.036  16.012   2.996
54982W        W21765  27.241   2.752  14.826
54983W        W21766   1.202  36.844   1.712
54984W        W21767  19.378  42.803  11.671
54985W        W21768  32.480   3.531   4.127
54986W        W21769  41.296   4.770   4.539
54987W        W21770   7.193  37.574  14.844
54988W        W21771  34.178  23.500  13.272
54989W        W21772  11.854  43.751  14.657
54990W        W21773  28.562  38.889   4.731
54991W        W21774  13.046  35.454   3.774
54992W        W21775   9.308  38.365  13.083
54993W        W21776  33.195  10.650   2.670
54994W        W21777  10.936  37.218   3.653
54995W        W21778  10.732  23.779  14.175
54996W        W21779   2.521  42.561  12.905
54997W        W21780  21.049  40.426   3.320
54998W        W21781  25.528   9.312  13.100
54999W        W21782  26.389  15.552   1.162
55000W        W21783   0.252  16.960  12.823
55001W        W21784   4.611  27.628  14.049
55002W        W21785   2.422  32.556   2.016
55003W        W21786  41.811  41.264   4.603
55004W        W21787   4.872  11.685   1.898
55005W        W21788  25.976   0.899   0.298
55006W        W21789  15.048  37.896  12.009
55007W        W21790  41.093  27.623  14.966
55008W        W21791  29.687  40.846   0.474
55009W        W21792  38.352  14.392  14.873
55010W        W21793   7.745   8.160  12.943
55011W        W21794  12.216   5.898  14.029
55012W        W21795  39.060  33.569   4.598
55013W        W21796  26.268  19.140  13.359
55014W        W21797  24.119  32.526   1.404
55015W        W21798  32.968   4.762   1.945
55016W        W21799  11.958  25.146   3.682
55017W        W21800  34.862  42.848  10.421
55018W        W21801   6.449  26.679   0.393
55019W        W21802  44.323   1.320   2.412
55020W        W21803   8.608  40.039   1.174
55021W        W21804  11.079  15.682   1.894
55022W        W21805  23.937  17.719  14.250
55023W        W21806  33.040  42.429   0.008
55024W        W21807  24.538   9.623  10.738
55025W        W21808  21.990  18.310   3.360
55026W        W21809  36.556  33.544   1.840
55027W        W21810  41.291  43.299  14.919
55028W        W21811  35.524  13.653   4.604
55029W        W21812  26.577  22.726   1.018
55030W        W21813  35.840  17.051  11.877
55031W        W21814  22.875   8.945   3.244
55032W        W21815   1.416  39.496   2.222
55033W        W21816  23.810  40.185   0.736
55034W        W21817  10.324  38.031   1.428
55035W        W21818  16.150  36.393  12.422
55036W        W21819   7.007  33.672   3.961
55037W        W21820   3.603   6.801   0.917
55038W        W21821  38.769  38.737  12.136
55039W        W21822  26.488  40.767   4.108
55040W        W21823  23.622  33.993   4.717
55041W        W21824   8.772  19.989   0.718
55042W        W21825  11.336   8.089  11.215
55043W        W21826  42.389   7.580   3.247
55044W        W21827   7.531  39.982  12.502
55045W        W21828   1.395  22.752  14.931
55046W        W21829  19.610  21.279  12.812
55047W        W21830  24.938  29.445   0.276
55048W        W21831  19.123  37.806  13.014
55049W        W21832  39.422  33.110  12.969
55050W        W21833  16.244  20.072   1.237
55051W        W21834  40.772  44.912  12.516
55052W        W21835  36.269  18.972   1.330
55053W        W21836  19.134   3.471   1.442
55054W        W21837  19.920  25.088   4.546
55055W        W21838   9.414  18.220  10.608
55056W        W21839  29.528  31.731   0.663
55057W        W21840  13.164  16.096   1.660
55058W        W21841  13.994  34.738   0.290
55059W        W21842  44.164   3.708  12.514
55060W        W21843   9.727  30.371   2.223
55061W        W21844  28.063  22.467  12.939
55062W        W21845  41.826   0.740   2.499
55063W        W21846  41.968  14.134  14.965
55064W        W21847  30.473  22.588  10.656
55065W        W21848  16.095  12.906   2.114
55066W        W21849   2.793  23.047   2.218
55067W        W21850  14.525  13.303   2.858
55068W        W21851   8.858   3.119   3.348
55069W        W21852  36.964  35.026   0.738
55070W        W21853  17.759  24.242  13.294
55071W        W21854  40.978  43.297  10.764
55072W        W21855   6.853  26.972  12.244
55073W        W21856   4.971  22.141  10.087
55074W        W21857  24.897   0.987  13.597
55075W        W21858   2.853   5.244  11.657
55076W        W21859  16.757  10.789  10.367
55077W        W21860  12.122   5.874   2.966
55078W        W21861   4.518   4.653  14.615
55079W        W21862  24.256  36.929   2.888
55080W        W21863   6.598   2.078  12.940
55081W        W21864  25.168  41.603  12.830
55082W        W21865  10.755  25.105  13.580
55083W        W21866  28.136  44.996   4.109
55084W        W21867  10.615  41.881   1.725
55085W        W21868  42.880  16.510  14.875
55086W        W21869  26.514  12.628   0.482
55087W        W21870  33.041  41.480  14.927
55088W        W21871  15.247  35.582   3.283
55089W        W21872  42.148   3.787  11.617
55090W        W21873  32.172  40.899   2.782
55091W        W21874  27.892  14.920  10.270
55092W        W21875  21.851  44.904   1.778
55093W        W21876  42.273  18.526  10.652
55094W        W21877  28.621   8.050   2.409
55095W        W21878  19.774  34.109  12.012
55096W        W21879  18.322  22.733   3.339
55097W        W21880  12.120  32.199  12.389
55098W        W21881   4.954  14.773   0.805
55099W        W21882   3.597  18.957  11.595
55100W        W21883  25.635  16.739   0.697
55101W        W21884   2.245  21.585  14.908
55102W        W21885  40.552   1.879   1.313
55103W        W21886  20.293  39.490  12.428
55104W        W21887  22.239  20.261   3.173
55105W        W21888  17.242  20.834  14.541
55106W        W21889  19.111  31.474  13.102
55107W        W21890   1.850  31.034   0.922
55108W        W21891   1.487   1.773  13.892
55109W        W21892   2.283   9.535  11.970
55110W        W21893  27.096  34.020   2.225
55111W        W21894  39.470  42.894  11.063
55112W        W21895  37.173  27.482  12.477
55113W        W21896  23.436  16.707  11.125
55114W        W21897  15.160   9.891  12.531
55115W        W21898  20.766  34.689  13.437
55116W        W21899  21.514  12.695  14.920
55117W        W21900   2.245  28.994  11.172
55118W        W21901  43.018  11.712   1.743
55119W        W21902  31.082   6.242   1.954
55120W        W21903  26.257  11.329  12.892
55121W        W21904  25.959  18.080   2.686
55122W        W21905  18.807  20.617  14.409
55123W        W21906  43.347   4.937   1.377
55124W        W21907  22.107  30.434  13.449
55125W        W21908  43.086   1.697  12.395
55126W        W21909  10.729  22.986   1.983
55127W        W21910   1.342  40.613   1.548
55128W        W21911  29.437  28.127   1.508
55129W        W21912  21.570  27.133   4.178
55130W        W21913  11.718   1.435   0.552
55131W        W21914  14.824  40.350  13.821
55132W        W21915  39.534  41.411   0.855
55133W        W21916   2.846  36.073   4.201
55134W        W21917   9.048  22.627  11.754
55135W        W21918  39.026  43.689  10.944
55136W        W21919   8.718  11.129  11.045
55137W        W21920  34.194  36.282  11.169
55138W        W21921  28.956  20.967  12.416
55139W        W21922  16.839  22.632  14.809
55140W        W21923  22.199  40.774  14.521
55141W        W21924  20.543  38.470  12.740
55142W        W21925  32.274  16.046   2.784
55143W        W21926  26.064  42.549  11.241
55144W        W21927  10.453  14.088   1.636
55145W        W21928  27.716  36.834   3.647
55146W        W21929  34.901  32.581   2.920
55147W        W21930   2.876   6.733  11.111
55148W        W21931  43.961   9.664   1.918
55149W        W21932  15.781  18.240   1.521
55150W        W21933  42.587  18.103  13.556
55151W        W21934   3.780  26.980  13.915
55152W        W21935  32.018   7.975   3.644
55153W        W21936  40.213  13.401   1.116
55154W        W21937  24.655  23.234  11.563
55155W        W21938  10.965   1.665  13.518
55156W        W21939  36.784  16.741  14.159
55157W        W21940  40.284  33.995  11.687
55158W        W21941  14.764   0.732  13.471
55159W        W21942   2.539  11.779  10.712
55160W        W21943  27.128  42.032   0.502
55161W        W21944  15.440  17.195   2.351
55162W        W21945  41.860  43.016  14.276
55163W        W21946  31.586  22.234  12.495
55164W        W21947  12.840  41.697  14.989
55165W        W21948   0.948  22.774   4.192
55166W        W21949   4.317  28.172   2.351
55167W        W21950   9.277  36.409  12.245
55168W        W21951  10.392  21.217  12.372
55169W        W21952  31.857  12.469   2.220
55170W        W21953  30.337  11.767   0.423
55171W        W21954  35.924  12.048  11.474
55172W        W21955   8.990  12.128  14.730
55173W        W21956  33.679  12.266   3.180
55174W        W21957  22.224   5.059  14.494
55175W        W21958  44.963   6.692  14.556
55176W        W21959   6.846  42.941   0.354
55177W        W21960  39.057  25.439  13.005
55178W        W21961  15.311   7.365  12.460
55179W        W21962   3.875  37.906   1.468
55180W        W21963  15.805  38.287   1.870
55181W        W21964  43.962  33.867   2.225
55182W        W21965   2.555  33.828   0.890
55183W        W21966  44.859  43.591   0.621
55184W        W21967  17.461  17.303   3.216
55185W        W21968  21.724  23.423  13.939
55186W        W21969  15.109  27.092  11.382
55187W        W21970  44.728  15.428   0.705
55188W        W21971  10.055  35.623   0.761
55189W        W21972  14.453  25.501   0.643
55190W        W21973  25.523  31.881  13.316
55191W        W21974  30.867   3.408   4.633
55192W        W21975  39.001  23.981  12.084
55193W        W21976  22.440  26.815  12.002
55194W        W21977  15.093  38.782  14.364
55195W        W21978  15.285  20.962   2.695
55196W        W21979  21.708  19.222   1.632
55197W        W21980  29.170  16.520  10.798
55198W        W21981  29.209  36.245  14.491
55199W        W21982  40.405  21.500  12.839
55200W        W21983  24.666  10.636   3.203
55201W        W21984  33.056  22.540  12.434
55202W        W21985  34.552  33.132   2.188
55203W        W21986  34.366  38.983   1.829
55204W        W21987   1.338  21.340  12.614
55205W        W21988  26.249  33.106  13.479
55206W        W21989  19.987  35.414   3.385
55207W        W21990  34.872  15.509  11.210
55208W        W21991  16.205   5.489   2.228
55209W        W21992  12.072  37.564   2.348
55210W        W21993   0.333   9.393  12.243
55211W        W21994  26.218  29.501  12.535
55212W        W21995   6.453   3.659   2.726
55213W        W21996  27.993  41.962   1.337
55214W        W21997  18.779  28.698   2.372
55215W        W21998   9.538  32.177   0.456
55216W        W21999   9.054   8.960   4.804
55217W        W22000   6.003   9.080  11.510
55218W        W22001   4.268  24.734  10.621
55219W        W22002   6.233  12.086   2.864
55220W        W22003  11.822   5.493  14.077
55221W        W22004  31.926  37.424   3.346
55222W        W22005   3.508   1.934   4.157
55223W        W22006  17.484  12.331   3.713
55224W        W22007  23.119  40.352   1.944
55225W        W22008  28.225  13.603   1.607
55226W        W22009  37.203  27.667   2.713
55227W        W22010  38.868  28.060   4.779
55228W        W22011  32.513  29.228   3.174
55229W        W22012   8.368  36.373   1.798
55230W        W22013  18.244   3.004  12.021
55231W        W22014  33.905  33.481  11.123
55232W        W22015  22.037  19.722  13.542
55233W        W22016  23.752  30.996  10.616
55234W        W22017  26.612  20.458   0.009
55235W        W22018   0.478  26.454   1.704
55236W        W22019   8.575  14.613   1.806
55237W        W22020  21.346  28.026   0.467
55238W        W22021   0.819   8.773   2.708
55239W        W22022  42.756  39.858   2.715
55240W        W22023  25.006  44.841  11.958
55241W        W22024  39.931   6.249   4.592
55242W        W22025  33.309  16.607  14.985
55243W        W22026   0.304   2.446   2.903
55244W        W22027  10.521   5.376  10.168
55245W        W22028  24.655   6.698  12.879
55246W        W22029  20.660  41.884   3.709
55247W        W22030  13.618  19.073   3.162
55248W        W22031  42.060  12.785   0.233
55249W        W22032   9.757  39.965   2.235
55250W        W22033  41.147  19.524  10.965
55251W        W22034  40.574  43.004  11.114
55252W        W22035  44.341  25.944  10.687
55253W        W22036  11.336  20.214  14.761
55254W        W22037  31.373  26.919   4.233
55255W        W22038  38.716  14.579  11.658
55256W        W22039  16.228  37.844   0.181
55257W        W22040   0.364  33.456   2.409
55258W        W22041  35.272   2.797  10.726
55259W        W22042  26.466   4.940   0.013
55260W        W22043  40.293   6.845  14.760
55261W        W22044  11.280  14.173   1.871
55262W        W22045  33.571  12.074   1.203
55263W        W22046  16.878   3.282   2.348
55264W        W22047  22.820   4.113   5.112
55265W        W22048   3.426  19.908  13.904
55266W        W22049   8.712  20.763   1.863
55267W        W22050  16.160  26.489  11.979
55268W        W22051  34.655  30.134  12.045
55269W        W22052  38.525  30.492   4.843
55270W        W22053   2.736   5.424  14.260
55271W        W22054  44.460   3.492  14.864
55272W        W22055  22.996  15.608   1.296
55273W        W22056  26.088  22.605   2.244
55274W        W22057  36.043  28.470  12.078
55275W        W22058   6.474  17.817   2.890
55276W        W22059  24.184   7.133   0.836
55277W        W22060  23.050  39.875   5.020
55278W        W22061  28.110  40.189   2.354
55279W        W22062  24.468  26.346   1.377
55280W        W22063  10.109   7.679  13.560
55281W        W22064  22.051   8.619   1.843
55282W        W22065  15.370  22.512  12.392
55283W        W22066   3.015   3.400  13.995
55284W        W22067  10.645  31.396   3.651
55285W        W22068   0.777  34.039  13.320
55286W        W22069  33.982   4.924  13.174
55287W        W22070  33.543  26.174   2.412
55288W        W22071  12.890   9.192  10.278
55289W        W22072  11.917  43.974   2.772
55290W        W22073  34.198  35.177  10.480
55291W        W22074   8.369  35.612  12.060
55292W        W22075  38.737  13.876   1.154
55293W        W22076  26.451   1.380  14.270
55294W        W22077  39.604   8.342  12.406
55295W        W22078   0.497  36.842   4.262
55296W        W22079  30.739  33.845  10.858
55297W        W22080  12.682  19.676  10.520
55298W        W22081  35.213  40.571   1.616
55299W        W22082  10.092  25.560  13.866
55300W        W22083  10.153   9.163  10.644
55301W        W22084  34.572  29.611   0.878
55302W        W22085  12.099  29.482   3.282
55303W        W22086  43.003  18.888   2.484
55304W        W22087  21.091  22.719  12.119
55305W        W22088  21.557  10.359  11.252
55306W        W22089  34.913  38.426  11.472
55307W        W22090   4.283  18.467  14.365
55308W        W22091   9.970  14.303   2.899
55309W        W22092  43.297  41.880  10.640
55310W        W22093   6.265  35.312   1.252
55311W        W22094  20.264  31.161   4.135
55312W        W22095  32.771  33.736   2.392
55313W        W22096  39.294  21.246  10.714
55314W        W22097  29.581  38.752   2.684
55315W        W22098  19.219  43.964  10.692
55316W        W22099   0.167  18.655   1.899
55317W        W22100  37.188  24.064  11.872
55318W        W22101  39.386  18.803  12.316
55319W        W22102  42.467  14.875  11.142
55320W        W22103   0.547  27.491  13.333
55321W        W22104  30.020  12.125  14.035
55322W        W22105   1.213  30.556   4.366
55323W        W22106  41.540  37.816   0.281
55324W        W22107  12.598  16.854   4.106
55325W        W22108  18.772  44.029  10.442
55326W        W22109   3.718  15.208  12.500
55327W        W22110  31.474  11.682   1.347
55328W        W22111   1.986  35.283   0.410
55329W        W22112  36.568  27.710  13.999
55330W        W22113  14.299  20.212   4.596
55331W        W22114  30.624   2.122  11.967
55332W        W22115   0.715  16.182  12.930
55333W        W22116  25.630  12.917  10.742
55334W        W22117  15.612  20.636  14.483
55335W        W22118  31.970  29.997   2.123
55336W        W22119  13.646   1.148  14.483
55337W        W22120  27.444  18.111   1.384
55338W        W22121  12.796  19.471   0.656
55339W        W22122  11.194  39.977  14.673
55340W        W22123  39.983  24.669   3.786
55341W        W22124  11.837  35.802  14.745
55342W        W22125  30.969  38.195   0.865
55343W        W22126   3.395  20.940  13.855
55344W        W22127  38.516   7.702   1.270
55345W        W22128  31.381  27.921   4.093
55346W        W22129  23.157  12.832   4.158
55347W        W22130   3.279  39.743   4.300
55348W        W22131  20.563   0.527  12.141
55349W        W22132  35.341  33.059  13.728
55350W        W22133  27.896  30.365   1.202
55351W        W22134  44.816   5.200  13.961
55352W        W22135   2.407   9.176   4.578
55353W        W22136  26.226   0.614   4.553
55354W        W22137   7.742   5.662   3.137
55355W        W22138  38.874  27.744   2.327
55356W        W22139  41.912  41.110   0.415
55357W        W22140  40.305  34.400   3.272
55358W        W22141  18.543  36.778   0.684
55359W        W22142  43.416  11.231   4.140
55360W        W22143  21.073  16.742  13.076
55361W        W22144  28.185  27.755   1.047
55362W        W22145  31.314   4.726   0.844
55363W        W22146  26.580  40.057  14.023
55364W        W22147  44.744  21.172  12.737
55365W        W22148   3.025  37.723  14.985
55366W        W22149   5.432  13.107  10.427
55367W        W22150  34.921   1.731   0.929
55368W        W22151  16.564  27.154   2.378
55369W        W22152   1.129  17.185  10.587
55370W        W22153  13.762   9.961  13.029
55371W        W22154  22.462  41.118  13.671
55372W        W22155  29.377  13.957   3.077
55373W        W22156   0.747  15.130   0.816
55374W        W22157  14.150   8.420   4.629
55375W        W22158   1.880  15.797   3.657
55376W        W22159  31.075  23.247  12.039
55377W        W22160  13.812  17.578  11.357
55378W        W22161  24.330  40.389   1.805
55379W        W22162   7.301   3.914  11.916
55380W        W22163  10.115  31.938  12.463
55381W        W22164   6.397  42.528  12.425
55382W        W22165  24.919   1.224  14.274
55383W        W22166  25.645  36.623  13.359
55384W        W22167  40.901  22.260   1.449
55385W        W22168   8.712   4.491  10.482
55386W        W22169  12.721  15.804   4.312
55387W        W22170   4.800  32.940   0.572
55388W        W22171  32.087  29.044   2.913
55389W        W22172  41.402   7.210   2.126
55390W        W22173  23.280   5.726   1.840
55391W        W22174  37.644  14.054  13.999
55392W        W22175  37.360  27.557  14.572
55393W        W22176  25.437  41.375  14.457
55394W        W22177  39.591   3.177   4.145
55395W        W22178   0.277  44.326  10.607
55396W        W22179   9.237  10.393  12.480
55397W        W22180  28.423  16.091  12.536
55398W        W22181   5.780   7.870  10.682
55399W        W22182  27.208   6.275   0.852
55400W        W22183  17.268  40.595   3.786
55401W        W22184   0.989  35.767   4.318
55402W        W22185   9.158   5.355  13.294
55403W        W22186  19.783   1.324   4.888
55404W        W22187  26.730  26.877  10.325
55405W        W22188  28.087  27.591   4.659
55406W        W22189  42.251  23.976   2.975
55407W        W22190  16.179   3.419  13.787
55408W        W22191   5.128   0.330  14.618
55409W        W22192  16.137  35.039   1.472
55410W        W22193   3.980   9.397   0.903
55411W        W22194  28.420  22.974  14.282
55412W        W22195  33.566   3.268   1.295
55413W        W22196  11.165   5.680  13.019
55414W        W22197  20.976   2.889  13.504
55415W        W22198  21.327  29.572   1.856
55416W        W22199  10.630  27.251  10.530
55417W        W22200  40.081  28.442  14.255
55418W        W22201  19.959   2.406   1.318
55419W        W22202   9.656  27.981   0.882
55420W        W22203  35.869  24.237   3.184
55421W        W22204   6.371  22.644  13.126
55422W        W22205  14.200  43.199   4.316
55423W        W22206  25.437  10.012  14.919
55424W        W22207  32.658  33.599  13.018
55425W        W22208   4.718  28.056  10.691
55426W        W22209   6.753  40.461  12.859
55427W        W22210  29.538  41.908  12.490
55428W        W22211  44.539   1.074  13.403
55429W        W22212  18.558  31.499   1.807
55430W        W22213  30.687  12.627   1.948
55431W        W22214  27.868  24.564   2.886
55432W        W22215  43.978  18.168  12.115
55433W        W22216   7.630  39.833   1.332
55434W        W22217  44.265  23.647  14.944
55435W        W22218  28.525   3.221   2.777
55436W        W22219  41.757  15.408  13.021
55437W        W22220  42.929  13.997   0.796
55438W        W22221  14.640  31.989   4.557
55439W        W22222   2.426  39.664  12.081
55440W        W22223  13.230  37.134  14.005
55441W        W22224  14.858  32.023  12.277
55442W        W22225  26.226  11.408   0.538
55443W        W22226  14.137  25.043  10.650
55444W        W22227  31.376   0.400  10.793
55445W        W22228  39.141   4.262   1.848
55446W        W22229  16.846   1.245  12.928
55447W        W22230  38.932   7.991  13.947
55448W        W22231   7.715  14.300  12.954
55449W        W22232  39.879  31.873   4.607
55450W        W22233  34.366  28.409   1.380
55451W        W22234  11.667  14.097   4.124
55452W        W22235  22.605  25.101   0.543
55453W        W22236  17.374  41.460   0.809
55454W        W22237   9.887  40.181   1.773
55455W        W22238  11.088  29.720   0.717
55456W        W22239  28.068  16.266   2.558
55457W        W22240  43.779  40.332   1.214
55458W        W22241  11.159   7.303   2.432
55459W        W22242  25.571   4.419   3.235
55460W        W22243   3.400   3.943   2.224
55461W        W22244  40.965  35.878   3.570
55462W        W22245  21.123   2.072  13.656
55463W        W22246   9.316  20.242  14.909
55464W        W22247   3.821  36.026   3.619
55465W        W22248  34.895  10.051  14.584
55466W        W22249   0.938  42.286   4.613
55467W        W22250   3.631  10.118   2.232
55468W        W22251  23.775   8.127  13.823
55469W        W22252  40.307   2.847  13.267
55470W        W22253  34.114  40.485  10.724
55471W        W22254  19.250  27.968  11.561
55472W        W22255   5.813  17.587   1.789
55473W        W22256  16.527  21.856  11.603
55474W        W22257   6.281  15.610   4.999
55475W        W22258  44.713  22.989   1.586
55476W        W22259   7.196   0.442  10.758
55477W        W22260   3.908  36.904  14.034
55478W        W22261  32.758  35.147   1.765
55479W        W22262  15.768   0.672   2.727
55480W        W22263  42.064  33.001   2.756
55481W        W22264  20.806   4.384  10.948
55482W        W22265  18.047  28.609  12.225
55483W        W22266  30.162  24.550  14.254
55484W        W22267  17.314  36.170   4.177
55485W        W22268  31.164  38.043   0.367
55486W        W22269  42.505  36.175   1.475
55487W        W22270  24.465  29.764   1.804
55488W        W22271  42.087   0.276   0.816
55489W        W22272  17.413  31.297  11.630
55490W        W22273   9.315  37.512  11.586
55491W        W22274   6.606  19.198  13.161
55492W        W22275  41.252   1.139   0.957
55493W        W22276  43.842  21.161   2.059
55494W        W22277  22.468  12.592  14.264
55495W        W22278   5.187   3.948   2.790
55496W        W22279  11.418  20.759   1.812
55497W        W22280  38.882  40.400   4.549
55498W        W22281   1.817  25.235  11.609
55499W        W22282  10.372  41.588   0.353
55500W        W22283  36.239  13.940   1.310
55501W        W22284  34.194  28.504   0.432
55502W        W22285  14.825  12.705   3.673
55503W        W22286  34.883  41.690  13.824
55504W        W22287   7.239  17.080   0.862
55505W        W22288  22.164  26.691   2.754
55506W        W22289  16.368  14.886  12.902
55507W        W22290  22.225   5.657  10.774
55508W        W22291  44.054  42.958   0.784
55509W        W22292  20.625   0.854   0.012
55510W        W22293  44.530  23.828  12.999
55511W        W22294  38.184  16.126   2.287
55512W        W22295  22.498   4.588  14.812
55513W        W22296  16.874  15.598   0.819
55514W        W22297  33.926   2.663   2.783
55515W        W22298  12.044   3.438  10.237
55516W        W22299  12.227  38.350   1.382
55517W        W22300  22.719  30.632   4.059
55518W        W22301  18.566  32.947   0.555
55519W        W22302  36.811  34.303   4.517
55520W        W22303  27.129  29.304   0.032
55521W        W22304  13.607  34.299  12.456
55522W        W22305   3.362  14.182  11.974
55523W        W22306   0.241  43.027   3.697
55524W        W22307  38.527  21.620  10.488
55525W        W22308  42.485  24.066  10.429
55526W        W22309  21.302   3.362   1.252
55527W        W22310   2.769   3.709  13.660
55528W        W22311  41.805  41.478   3.197
55529W        W22312   1.265   8.093   3.109
55530W        W22313   6.382  16.847   3.047
55531W        W22314  19.942  34.480  14.991
55532W        W22315   5.665  31.807   1.188
55533W        W22316  31.423  15.111   2.980
55534W        W22317  39.362  18.713   2.840
55535W        W22318  10.737  14.064   4.904
55536W        W22319  22.125  23.037  13.062
55537W        W22320  17.083  30.959  12.689
55538W        W22321  15.911  25.643  10.665
55539W        W22322   5.760  20.844   2.697
55540W        W22323  22.627  30.552   0.826
55541W        W22324  33.385  18.142   3.744
55542W        W22325  41.686  32.471  11.890
55543W        W22326  37.415  38.656   3.598
55544W        W22327  18.053  43.573  11.094
55545W        W22328  17.685  26.137   2.560
55546W        W22329   8.856  34.442   0.878
55547W        W22330  11.137  36.190  14.402
55548W        W22331  38.043  29.588   3.349
55549W        W22332  38.040   4.193   3.654
55550W        W22333  17.552  41.532   4.122
55551W        W22334  20.243  16.082   5.086
55552W        W22335   2.844  29.405   2.441
55553W        W22336  38.895  28.665   1.980
55554W        W22337  17.632  41.841   3.646
55555W        W22338  39.130   5.190   1.942
55556W        W22339   2.036  26.972  14.873
55557W        W22340  18.739   1.268  10.599
55558W        W22341  30.919  25.530  12.492
55559W        W22342   9.301  18.492   4.555
55560W        W22343  41.279  40.063   2.700
55561W        W22344  17.641  13.663  10.145
55562W        W22345  14.815   2.923  11.627
55563W        W22346  41.631  44.956  11.705
55564W        W22347   5.165  12.597  12.559
55565W        W22348   0.450  31.970   4.196
55566W        W22349  12.672  16.355   4.255
55567W        W22350  11.158  27.161  10.454
55568W        W22351  28.408  32.384   1.181
55569W        W22352  15.133  16.219   0.027
55570W        W22353  42.462  43.294  12.443
55571W        W22354  18.571  34.974   4.560
55572W        W22355  27.205  31.139  12.838
55573W        W22356   0.732   3.382  13.922
55574W        W22357  27.238   0.961   0.652
55575W        W22358  14.607  24.644   3.309
55576W        W22359  33.829  35.014  13.563
55577W        W22360   6.337  12.325   0.216
55578W        W22361  14.264   8.296  10.441
55579W        W22362  17.683   5.047   0.865
55580W        W22363  24.526  38.551  12.502
55581W        W22364  43.571  33.028   3.054
55582W        W22365  39.952  44.791  12.044
55583W        W22366   3.612  38.559  13.212
55584W        W22367  38.570  27.028  12.327
55585W        W22368   7.249  33.164   3.268
55586W        W22369   3.408  11.558   0.956
55587W        W22370   9.680  42.502   0.026
55588W        W22371  29.321  40.308  14.873
55589W        W22372  36.759  37.130   3.245
55590W        W22373  16.647  10.878  13.799
55591W        W22374   0.068   6.268   1.488
55592W        W22375  42.979  25.405  11.594
55593W        W22376   7.792  15.624   2.195
55594W        W22377  14.658  35.676  10.742
55595W        W22378  24.663  16.524   0.269
55596W        W22379   9.854   3.724   4.119
55597W        W22380  29.443   2.183  14.604
55598W        W22381  25.689  33.796  13.965
55599W        W22382  23.555  27.985   3.116
55600W        W22383  39.535  38.537  12.392
55601W        W22384  43.841  38.426  12.864
55602W        W22385  33.240  35.473  14.722
55603W        W22386  13.905  32.518   2.077
55604W        W22387  27.618  30.156  11.030
55605W        W22388  22.103   1.881   0.132
55606W        W22389  42.442   9.432  12.604
55607W        W22390   5.275  25.946   4.418
55608W        W22391  20.138  20.553   1.948
55609W        W22392  34.550  35.113   0.827
55610W        W22393  18.780  43.008  11.986
55611W        W22394   9.171   4.472   4.126
55612W        W22395   0.370  22.468  10.575
55613W        W22396  24.941  42.749  13.538
55614W        W22397  27.540  37.312   3.569
55615W        W22398  30.393   5.470  13.996
55616W        W22399   9.359  13.026   1.738
55617W        W22400   5.666  26.413  12.539
55618W        W22401  28.465  28.587  13.427
55619W        W22402   4.334  24.302  13.935
55620W        W22403   0.567  38.982  11.658
55621W        W22404  25.063  16.591  13.037
55622W        W22405  12.071  40.445  13.509
55623W        W22406  44.205   8.441   3.173
55624W        W22407  36.278  14.374  13.743
55625W        W22408   2.754  23.916   0.262
55626W        W22409  23.590  32.214   3.395
55627W        W22410  12.254  15.191  12.447
55628W        W22411   9.081  10.397   3.636
55629W        W22412  17.018  13.861  10.722
55630W        W22413  15.070  20.175  12.990
55631W        W22414  18.336  41.378   1.173
55632W        W22415   9.708   4.311   1.204
55633W        W22416   5.563  41.408   1.294
55634W        W22417  25.701  39.733   1.791
55635W        W22418  15.008  16.173   9.747
55636W        W22419  33.931  21.591   2.720
55637W        W22420   1.992  17.536   2.194
55638W        W22421  11.978  17.852   1.874
55639W        W22422  17.678  23.242  12.459
55640W        W22423  32.772  23.108  11.669
55641W        W22424  13.702  31.095  13.143
55642W        W22425   4.668  39.436   1.317
55643W        W22426  25.272  33.249   2.628
55644W        W22427  42.727  34.619   2.969
55645W        W22428  44.501   3.255   1.385
55646W        W22429  17.029  36.756  11.765
55647W        W22430   6.598  16.119   1.850
55648W        W22431   4.728   1.056  14.982
55649W        W22432  24.557  41.016  11.322
55650W        W22433   1.752  21.216  10.752
55651W        W22434  25.379  24.092   3.208
55652W        W22435  18.187  42.096   2.810
55653W        W22436  28.430  42.758   0.851
55654W        W22437  21.371  15.934   0.344
55655W        W22438  26.238  38.989   0.812
55656W        W22439   3.964  41.852   2.372
55657W        W22440  36.962  38.943  12.393
55658W        W22441  20.815  18.674  14.556
55659W        W22442  36.860  43.427  12.133
55660W        W22443  26.664  44.459  13.710
55661W        W22444   4.426  39.266  14.938
55662W        W22445   6.277  15.125  10.826
55663W        W22446  12.124  39.907   1.781
55664W        W22447   8.762  29.922  14.855
55665W        W22448  36.087  26.807  14.237
55666W        W22449  24.189  24.076  13.046
55667W        W22450  12.193  28.898  11.176
55668W        W22451  15.145  28.075  13.441
55669W        W22452  30.978   3.936  14.214
55670W        W22453  17.636  10.308   0.973
55671W        W22454  21.696   9.600  13.952
55672W        W22455  42.030   8.153  11.628
55673W        W22456  11.403  18.665  12.611
55674W        W22457  38.130  41.045   2.491
55675W        W22458  26.170  24.671  11.424
55676W        W22459  19.224  12.423  14.821
55677W        W22460  19.731  32.122   2.011
55678W        W22461  26.044   1.529  11.448
55679W        W22462  15.882   3.951  14.907
55680W        W22463  31.675  31.380  13.338
55681W        W22464   6.959  13.115  11.395
55682W        W22465  39.585  28.666   2.670
55683W        W22466   8.908   6.210  13.588
55684W        W22467  38.082  11.400  13.394
55685W        W22468  29.849  11.934   0.463
55686W        W22469  15.137   0.575   3.780
55687W        W22470   1.485  23.023   3.173
55688W        W22471  13.249  12.328   0.478
55689W        W22472  14.568  10.836   2.222
55690W        W22473  14.265  38.480   3.674
55691W        W22474  10.731  28.045  14.250
55692W        W22475  43.702  36.799   0.736
55693W        W22476   7.658   5.047   1.210
55694W        W22477  20.537  24.208  13.359
55695W        W22478   2.411  31.618   2.423
55696W        W22479  15.819   1.068  11.624
55697W        W22480   2.898   1.200   3.596
55698W        W22481   2.312  19.090  13.441
55699W        W22482  16.698   8.670   3.750
55700W        W22483   7.260  29.645   3.077
55701W        W22484  41.088  44.404   1.786
55702W        W22485  38.771  39.402   3.073
55703W        W22486  33.329   6.994   1.260
55704W        W22487  20.504  29.267  13.820
55705W        W22488  13.412   7.119   4.243
55706W        W22489  22.177  28.099  13.730
55707W        W22490  20.325  24.220   0.983
55708W        W22491  13.344  29.502   3.811
55709W        W22492  14.709  36.618   2.376
55710W        W22493  34.428  44.524   1.594
55711W        W22494   4.657  31.370   5.014
55712W        W22495  34.138   3.143  14.442
55713W        W22496  43.266  10.207  11.108
55714W        W22497  41.260   2.918  14.328
55715W        W22498   0.190  18.517  11.514
55716W        W22499  32.003  32.032   2.396
55717W        W22500  14.417  20.486  10.669
55718W        W22501  11.606   7.374   3.306
55719W        W22502  32.126  42.050   0.811
55720W        W22503  40.341  35.662   0.834
55721W        W22504   9.155  28.392  13.299
55722W        W22505  22.713  17.660  11.442
55723W        W22506  39.010  15.025   0.769
55724W        W22507  23.523  41.286  12.587
55725W        W22508  39.359  30.834  14.600
55726W        W22509  30.660   2.719   0.803
55727W        W22510  11.227  30.720  12.365
55728W        W22511  23.180  37.743   3.710
55729W        W22512  17.029  26.997   3.908
55730W        W22513  29.743  18.438   2.011
55731W        W22514  26.128  35.999  11.772
55732W        W22515  19.944  28.643   2.703
55733W        W22516   0.386  25.107  14.289
55734W        W22517  30.916  32.305  11.718
55735W        W22518  11.276  42.732  10.697
55736W        W22519  37.846  13.038  13.971
55737W        W22520   6.393  38.640   5.000
55738W        W22521   9.721  10.927  11.561
55739W        W22522  11.465  34.841   1.472
55740W        W22523  20.534  33.148  13.945
55741W        W22524   1.033  22.472  11.520
55742W        W22525  22.978  15.786  13.200
55743W        W22526  10.204   8.175  13.700
55744W        W22527  37.623  20.094   2.687
55745W        W22528  36.100   1.417   3.326
55746W        W22529  13.761   6.559   2.819
55747W        W22530  10.665  44.845  13.727
55748W        W22531  33.066  43.695  11.626
55749W        W22532  15.619   1.500   2.332
55750W        W22533   9.105   6.947   3.164
55751W        W22534  19.296  37.525  11.532
55752W        W22535   3.434  33.585  11.124
55753W        W22536  42.812  29.979   2.896
55754W        W22537  21.716  43.342   3.223
55755W        W22538  14.148  14.843  13.003
55756W        W22539  39.989  42.966  11.060
55757W        W22540   1.684  33.506   2.428
55758W        W22541  18.346  10.320   1.963
55759W        W22542  13.270   0.910  13.722
55760W        W22543  41.868  44.794   4.672
55761W        W22544  29.910  38.799  14.419
55762W        W22545   9.649  26.721   3.942
55763W        W22546  35.181  14.641  13.593
55764W        W22547   2.725  14.449   2.740
55765W        W22548  24.627  32.726  14.815
55766W        W22549  11.039   2.205   0.738
55767W        W22550  36.902  36.956  14.870
55768W        W22551  43.979  16.869   0.544
55769W        W22552   8.982  41.792   0.736
55770W        W22553   8.495   5.570  14.863
55771W        W22554  14.985  42.336  11.377
55772W        W22555  12.715  38.500  11.078
55773W        W22556  26.315   9.259  13.913
55774W        W22557   1.366  28.849   2.315
55775W        W22558  35.078  14.144   1.068
55776W        W22559  18.815  31.249  10.949
55777W        W22560  20.200   4.951  11.332
55778W        W22561  21.027   2.624  12.428
55779W        W22562  17.585  29.860   3.899
55780W        W22563  44.683  32.422  10.543
55781W        W22564  36.928   5.732   0.781
55782W        W22565  44.336   2.469  10.658
55783W        W22566  24.211  36.376  14.010
55784W        W22567  11.709   6.251  14.338
55785W        W22568   1.091  39.302   1.788
55786W        W22569  34.117   7.041  14.254
55787W        W22570  11.392  42.835   4.494
55788W        W22571  34.553  19.137  13.394
55789W        W22572  40.918  31.155  14.070
55790W        W22573  12.648   5.659   0.387
55791W        W22574  13.202   5.849  14.127
55792W        W22575  18.323   9.275   0.509
55793W        W22576  26.394  41.323   1.705
55794W        W22577  28.065  19.848  13.456
55795W        W22578  39.840  41.615  13.997
55796W        W22579   2.805  39.958   4.331
55797W        W22580  13.591  10.370   4.123
55798W        W22581   7.978  35.886   4.523
55799W        W22582   2.568  34.311   4.236
55800W        W22583  29.001  26.085   1.267
55801W        W22584  20.767  31.465  14.484
55802W        W22585   7.956  29.067  12.551
55803W        W22586  33.833  11.386   2.320
55804W        W22587  29.483  31.177  13.912
55805W        W22588  25.609   9.794   1.874
55806W        W22589   0.848  11.927  11.987
55807W        W22590  32.896  31.455   2.472
55808W        W22591  36.036  37.910   1.784
55809W        W22592  17.752  34.841  12.069
55810W        W22593  13.263  28.959  13.544
55811W        W22594  39.746  11.214   4.042
55812W        W22595  42.173  11.716  13.850
55813W        W22596   1.454  17.534  11.212
55814W        W22597   1.686  34.334  10.693
55815W        W22598  35.527  23.601   3.439
55816W        W22599  19.518  37.549  13.511
55817W        W22600  36.790  13.914   1.347
55818W        W22601  13.077   7.723   9.767
55819W        W22602   7.727  43.399   4.584
55820W        W22603  16.765   3.623  10.570
55821W        W22604  40.696   6.752   1.690
55822W        W22605  43.817  26.608  10.733
55823W        W22606  21.589   6.935  12.261
55824W        W22607   0.262   2.475  11.585
55825W        W22608   4.899  26.744   1.422
55826W        W22609  43.531  17.833   3.287
55827W        W22610  28.908  42.215   3.648
55828W        W22611  43.748  39.009  10.304
55829W        W22612   5.948   4.297  13.787
55830W        W22613   6.405   7.310  12.008
55831W        W22614   3.952  33.499   0.640
55832W        W22615  13.627   7.423  14.461
55833W        W22616  22.123  21.910  14.449
55834W        W22617   0.657  20.663   4.651
55835W        W22618  42.527  23.069  12.382
55836W        W22619  43.284  33.616  11.646
55837W        W22620   8.748   2.486   2.776
55838W        W22621  28.009   3.300  14.379
55839W        W22622  43.193  21.157  11.908
55840W        W22623   9.723  13.380   1.848
55841W        W22624   8.746   3.864   3.707
55842W        W22625  22.933  37.766  12.415
55843W        W22626   4.529  18.693  13.423
55844W        W22627  32.620  37.850  10.707
55845W        W22628  26.949   3.957  11.141
55846W        W22629  33.996  31.456   2.015
55847W        W22630  20.581  26.011   4.203
55848W        W22631  13.675  10.419   2.065
55849W        W22632  30.461   4.274   3.263
55850W        W22633  15.987  40.743  13.037
55851W        W22634  27.977  10.716   4.271
55852W        W22635  39.324  11.809   1.204
55853W        W22636  41.055   1.973  12.823
55854W        W22637  14.113  35.641  12.528
55855W        W22638   6.832  27.782   3.303
55856W        W22639  20.082  27.003  11.086
55857W        W22640  28.093  31.646   2.133
55858W        W22641  26.193  43.714   4.828
55859W        W22642   5.221  37.895   0.336
55860W        W22643  22.655   6.234   0.815
55861W        W22644   8.392  27.232   1.294
55862W        W22645   3.846   5.947  13.589
55863W        W22646  23.451   1.410   0.906
55864W        W22647  29.432   9.618   0.300
55865W        W22648  32.017  34.207   1.140
55866W        W22649  26.419  37.137  11.180
55867W        W22650  28.710  38.803  14.947
55868W        W22651  33.558  23.010   4.098
55869W        W22652  38.717  20.765  13.580
55870W        W22653  16.310   5.466  14.261
55871W        W22654  20.036  11.771  11.021
55872W        W22655  15.876   3.234  13.044
55873W        W22656  22.487  28.766   0.750
55874W        W22657  27.135   4.418  10.970
55875W        W22658  19.251  38.079   0.248
55876W        W22659   0.751  43.502  12.467
55877W        W22660  17.720  16.852   4.093
55878W        W22661   3.288  37.553  12.429
55879W        W22662  11.744  12.697  12.776
55880W        W22663  31.703  21.733  10.503
55881W        W22664   1.433   6.690  12.923
55882W        W22665  13.075  31.599  13.860
55883W        W22666  29.478  19.330   2.115
55884W        W22667  29.626  19.569  14.879
55885W        W22668  21.284  13.829   1.309
55886W        W22669   5.406  43.191   4.631
55887W        W22670  26.056  26.745   4.791
55888W        W22671   7.645  16.693   4.340
55889W        W22672   4.331   3.053   3.734
55890W        W22673  19.669  26.461   0.783
55891W        W22674  15.231  20.128   0.698
55892W        W22675  34.020  13.859   4.492
55893W        W22676  36.063  33.885  13.330
55894W        W22677  28.209  26.483   2.230
55895W        W22678  29.635  10.273   3.853
55896W        W22679  10.421   6.445   0.340
55897W        W22680  31.240  35.312   2.680
55898W        W22681  28.583  17.129   3.320
55899W        W22682  44.033  19.752  14.250
55900W        W22683  44.614   0.980   2.782
55901W        W22684  44.192   3.665   1.233
55902W        W22685  23.099   6.304  11.987
55903W        W22686  12.615  22.473   3.883
55904W        W22687  33.673  24.739  11.702
55905W        W22688  39.532  13.532  10.622
55906W        W22689   0.727  44.846  14.851
55907W        W22690   4.854  22.570  13.373
55908W        W22691  17.220  10.214   4.465
55909W        W22692  10.388   6.958   0.246
55910W        W22693  30.730  26.822  10.781
55911W        W22694   0.750  39.937  10.720
55912W        W22695  33.425  13.707   2.361
55913W        W22696  34.366  31.629  12.898
55914W        W22697  31.078  24.033  11.115
55915W        W22698  33.645  19.192   0.080
55916W        W22699  43.582  14.597   3.290
55917W        W22700  26.132   2.009  12.218
55918W        W22701  11.871   0.341   2.122
55919W        W22702  42.739   7.300  12.331
55920W        W22703  29.973  22.453   3.062
55921W        W22704  37.551   3.870   2.818
55922W        W22705  44.464   1.778  11.833
55923W        W22706  11.203  10.790  12.812
55924W        W22707  26.456  30.053   0.152
55925W        W22708  11.807   1.844  12.936
55926W        W22709  21.653  15.715   2.805
55927W        W22710  34.397  33.385   2.644
55928W        W22711  36.174  33.882  11.293
55929W        W22712  22.986  18.149   3.296
55930W        W22713  16.641  17.555  10.854
55931W        W22714  42.290  26.761  14.405
55932W        W22715  21.113  37.886  11.582
55933W        W22716  33.684   9.925  12.482
55934W        W22717  32.176   1.030   0.846
55935W        W22718  10.846   9.106   0.363
55936W        W22719  44.847   6.918  11.320
55937W        W22720  16.638   9.081   4.065
55938W        W22721   1.764  10.597   2.355
55939W        W22722  23.763  41.082  14.919
55940W        W22723  13.017  22.184  14.418
55941W        W22724   9.095  27.519  13.959
55942W        W22725  26.922   5.241   4.229
55943W        W22726  43.351  41.921   1.849
55944W        W22727  42.429  29.703   1.249
55945W        W22728  12.705  40.099   1.733
55946W        W22729   9.829  26.060   4.665
55947W        W22730   1.377  10.321   3.209
55948W        W22731  24.549   0.070  12.085
55949W        W22732  11.579  19.034  11.201
55950W        W22733  32.150  12.230  14.132
55951W        W22734  21.708   0.697  14.516
55952W        W22735  31.584  24.145   3.660
55953W        W22736   4.871   4.932   1.552
55954W        W22737   4.458   3.342  12.945
55955W        W22738  21.254   8.228   4.302
55956W        W22739  34.579  18.190  10.523
55957W        W22740   0.440   1.176   1.622
55958W        W22741  30.196   0.139   0.773
55959W        W22742  14.186  10.230  10.046
55960W        W22743  10.121  35.110   0.923
55961W        W22744  32.363  44.211   2.280
55962W        W22745  26.645  26.021  13.988
55963W        W22746   3.868  41.476   0.477
55964W        W22747   9.380  31.999  10.670
55965W        W22748  13.260  15.882   3.154
55966W        W22749   6.976  26.949  13.560
55967W        W22750  16.717  22.205  10.579
55968W        W22751  13.224  40.559   3.359
55969W        W22752  27.729  36.220   1.678
55970W        W22753  21.189  42.445  13.544
55971W        W22754  43.974   3.296  11.393
55972W        W22755  18.022  11.377   1.450
55973W        W22756   0.244  29.709  13.573
55974W        W22757  16.279  42.413  11.021
55975W        W22758  16.120  35.867   2.880
55976W        W22759  12.181  25.334  14.070
55977W        W22760  20.541   9.941  12.848
55978W        W22761  44.936  36.641  11.102
55979W        W22762  22.062  24.657   4.744
55980W        W22763  13.177  31.070  11.288
55981W        W22764   7.282  11.158   4.159
55982W        W22765  37.023  44.907   3.108
55983W        W22766  26.261   0.632  14.829
55984W        W22767  11.453  14.565  11.109
55985W        W22768   0.107  42.152   1.052
55986W        W22769  40.555  21.090  13.408
55987W        W22770  38.055  11.722   2.276
55988W        W22771  23.143   4.743  13.454
55989W        W22772  43.544   5.596  13.829
55990W        W22773  41.211   6.930   4.080
55991W        W22774  36.919  18.696   0.035
55992W        W22775  19.295  20.072   1.203
55993W        W22776   4.644  17.158  12.890
55994W        W22777  25.302  28.005   2.415
55995W        W22778  16.628  25.047  10.610
55996W        W22779  35.821  14.726  11.111
55997W        W22780  28.757   7.459  10.747
55998W        W22781  33.572   3.410   0.330
55999W        W22782  15.147  38.835   4.158
56000W        W22783  23.517   0.712   4.681
56001W        W22784   7.816  40.385  14.258
56002W        W22785  41.735  41.300  11.171
56003W        W22786  28.565  15.224  13.606
56004W        W22787  30.872   8.228  11.081
56005W        W22788   3.801  34.904   1.352
56006W        W22789   8.926   3.028   4.792
56007W        W22790  36.099  18.482   1.257
56008W        W22791  43.153  12.240   4.727
56009W        W22792  12.291   7.959   3.036
56010W        W22793  30.433  42.831  14.812
56011W        W22794  18.299  36.364   0.876
56012W        W22795   5.134   6.341  11.296
56013W        W22796  20.044  41.463  10.707
56014W        W22797  32.920  34.988   3.479
56015W        W22798  16.342  18.649   4.260
56016W        W22799   9.370  15.595   0.325
56017W        W22800  28.594  11.155  13.576
56018W        W22801  42.488  26.608  10.535
56019W        W22802  41.176  36.392   1.197
56020W        W22803  31.954  37.458  10.826
56021W        W22804  17.195   6.324   1.849
56022W        W22805  14.120  27.924  13.477
56023W        W22806   5.289  35.561   2.797
56024W        W22807  16.745   7.754  14.068
56025W        W22808   2.427  36.730  14.975
56026W        W22809  29.237  42.336   2.607
56027W        W22810  32.992   3.536  13.842
56028W        W22811  24.682  34.303  10.697
56029W        W22812  40.007  17.930   0.268
56030W        W22813  40.775  36.636   2.154
56031W        W22814  23.594   4.341   1.455
56032W        W22815  31.346   9.379   3.687
56033W        W22816  43.842  12.579   1.498
56034W        W22817  31.340  30.436  11.103
56035W        W22818  24.307  26.439  14.935
56036W        W22819  29.405  15.509  13.686
56037W        W22820   8.916  17.735  10.917
56038W        W22821  44.145  25.591  11.058
56039W        W22822  33.879  13.384  11.749
56040W        W22823  28.182  28.926   4.141
56041W        W22824  31.106  37.269  13.622
56042W        W22825   9.605  12.120  14.521
56043W        W22826  33.038  25.542  14.941
56044W        W22827  40.878  41.186   4.901
56045W        W22828  25.488  39.086   3.821
56046W        W22829  37.441  44.777  14.952
56047W        W22830  11.798  36.358   0.867
56048W        W22831  28.475  44.527   2.249
56049W        W22832  33.147  44.461   0.508
56050W        W22833   8.178  20.164  13.851
56051W        W22834  25.746  44.331  12.781
56052W        W22835  44.590  32.872  14.000
56053W        W22836   4.675   3.659  12.611
56054W        W22837  36.620  37.465  12.555
56055W        W22838  32.294  25.439   0.497
56056W        W22839  38.411  10.815  13.823
56057W        W22840  40.349  38.780   3.782
56058W        W22841  24.477  40.920   2.617
56059W        W22842  15.117   6.528   4.158
56060W        W22843  42.704  26.551   4.803
56061W        W22844   3.514  24.553  12.932
56062W        W22845  27.713  15.086  13.915
56063W        W22846   5.546   4.886  10.905
56064W        W22847  37.122  11.737  14.791
56065W        W22848  37.799  38.042   3.191
56066W        W22849   0.677  20.572  14.966
56067W        W22850  27.763  24.263  11.487
56068W        W22851  11.655  15.094  13.005
56069W        W22852  19.677  17.364  14.552
56070W        W22853  20.050  43.826  11.750
56071W        W22854  40.621   1.019  12.842
56072W        W22855  34.112  31.490  13.343
56073W        W22856  28.862  29.449   4.141
56074W        W22857  26.585  26.611   4.525
56075W        W22858  12.727  26.429  12.754
56076W        W22859  19.312   0.502   1.116
56077W        W22860  22.287  20.917  14.859
56078W        W22861  31.962   8.244   1.401
56079W        W22862   5.141   1.752   3.683
56080W        W22863  40.273  28.985   2.576
56081W        W22864  23.491  29.924  12.996
56082W        W22865   6.310  17.581  13.927
56083W        W22866  22.532  27.704  14.415
56084W        W22867  21.808  12.028  13.970
56085W        W22868  34.934   0.008   3.719
56086W        W22869  38.797  25.772   0.216
56087W        W22870  44.985  30.145   1.803
56088W        W22871  10.824  26.258   0.702
56089W        W22872  25.661  28.372  13.009
56090W        W22873  41.507  22.445  14.740
56091W        W22874  19.918  11.078  12.001
56092W        W22875  44.091  37.960  13.483
56093W        W22876  11.223   8.149  12.980
56094W        W22877  15.048  15.987  10.555
56095W        W22878  15.487  25.333  10.623
56096W        W22879  39.022  37.955  12.850
56097W        W22880   7.612   3.761   0.955
56098W        W22881  39.537   4.766  13.543
56099W        W22882  33.346  44.403   2.305
56100W        W22883   9.986   4.363  11.441
56101W        W22884  19.600   4.174   2.173
56102W        W22885  33.859  36.699  11.621
56103W        W22886   5.612  27.677  11.011
56104W        W22887  30.560  38.910  11.007
56105W        W22888  19.371  13.304   3.250
56106W        W22889   2.385  36.305  12.030
56107W        W22890  20.179  24.746   3.374
56108W        W22891  26.172  27.605  13.474
56109W        W22892  19.263  23.556   3.153
56110W        W22893  12.070  28.132  11.682
56111W        W22894  16.782  32.659   4.775
56112W        W22895  12.738  15.325   2.611
56113W        W22896  10.397  23.954   5.107
56114W        W22897  28.590  40.582   0.453
56115W        W22898  36.510  34.956  12.863
56116W        W22899   2.873  34.148  13.292
56117W        W22900  32.849  16.831   4.094
56118W        W22901  19.141  41.713  10.501
56119W        W22902  12.064  24.750   3.364
56120W        W22903  13.152  11.722  11.507
56121W        W22904  18.987  17.116  14.953
56122W        W22905  40.879  16.714  12.329
56123W        W22906   0.241  32.329  14.344
56124W        W22907  31.259   8.931   2.875
56125W        W22908  41.314   9.711   4.869
56126W        W22909  16.185  18.365   2.246
56127W        W22910  28.779  11.695   3.698
56128W        W22911   1.297  32.098  13.035
56129W        W22912  38.176  25.151   1.741
56130W        W22913  31.793   4.643  14.149
56131W        W22914   8.835  37.580  10.287
56132W        W22915   2.869  31.254   4.063
56133W        W22916  32.647   4.316  14.417
56134W        W22917  21.216   7.027   0.775
56135W        W22918  44.039   9.742   3.706
56136W        W22919  35.409  16.654  14.142
56137W        W22920  17.848  33.409  12.114
56138W        W22921  20.610  22.586   0.749
56139W        W22922  22.002  13.851   1.819
56140W        W22923  31.892  36.458   1.264
56141W        W22924   5.180  27.255   2.247
56142W        W22925  10.308  32.699   3.762
56143W        W22926  27.109  22.599   3.682
56144W        W22927  33.559  30.471  13.831
56145W        W22928  16.007  12.260   4.640
56146W        W22929  30.628   5.562  12.667
56147W        W22930  19.010  13.220   2.731
56148W        W22931  11.187  40.840  13.915
56149W        W22932  35.796  10.849  13.443
56150W        W22933   9.181   9.932   3.808
56151W        W22934  18.163  26.896   0.661
56152W        W22935  19.094   3.440   3.760
56153W        W22936  30.020   9.304   1.008
56154W        W22937   7.872  34.996   0.785
56155W        W22938  35.265  12.832   4.153
56156W        W22939  33.956  41.301  12.859
56157W        W22940   1.895   8.416  10.657
56158W        W22941  16.154  44.565  12.528
56159W        W22942  21.002  35.967  12.780
56160W        W22943  26.473  36.343  14.320
56161W        W22944  33.838  42.976   3.703
56162W        W22945  17.088  27.736  14.209
56163W        W22946  22.132  19.548  10.451
56164W        W22947  44.451  20.324  11.120
56165W        W22948  43.822  37.151  14.947
56166W        W22949  41.226   9.188  13.040
56167W        W22950   7.132  10.643  14.497
56168W        W22951  31.216  18.996  13.064
56169W        W22952  43.470  13.405   2.701
56170W        W22953  13.198  41.778   1.952
56171W        W22954   8.379  34.203  10.417
56172W        W22955   4.054  22.614   1.428
56173W        W22956   6.251  19.574  10.343
56174W        W22957   7.228  25.427  11.185
56175W        W22958  27.209  37.862   0.951
56176W        W22959  23.622  41.474   1.136
56177W        W22960  28.715   9.723   0.752
56178W        W22961  16.742   9.138  14.776
56179W        W22962  17.185  19.658  14.690
56180W        W22963  41.414  38.921  11.977
56181W        W22964  31.183   1.262  14.961
56182W        W22965   9.337  20.531  12.501
56183W        W22966   5.411   5.172  14.888
56184W        W22967  35.061  32.810  12.463
56185W        W22968   5.176  30.006  13.064
56186W        W22969  11.854   4.904   4.672
56187W        W22970  27.199  38.408   0.951
56188W        W22971  38.659  34.117   2.391
56189W        W22972  21.805   4.175   2.857
56190W        W22973  35.639  23.374  10.174
56191W        W22974  24.892  10.930   3.600
56192W        W22975  11.671  12.873  13.297
56193W        W22976   5.685  40.869   0.783
56194W        W22977  44.691  12.070   2.374
56195W        W22978  35.990   0.828   2.112
56196W        W22979  25.640  34.448   2.743
56197W        W22980  38.077  13.141  13.513
56198W        W22981  42.264  31.838   3.279
56199W        W22982  22.082  17.647  13.743
56200W        W22983  44.985  32.555  12.163
56201W        W22984  19.707  18.092   3.782
56202W        W22985   6.964  23.203  13.230
56203W        W22986  25.628   3.267  14.119
56204W        W22987  35.642  11.908  11.872
56205W        W22988  14.955  24.029  10.555
56206W        W22989  40.453   0.847   1.265
56207W        W22990  25.000  21.683   4.057
56208W        W22991  39.027  42.071  13.944
56209W        W22992  32.440  25.273  13.382
56210W        W22993  10.150  12.203   4.581
56211W        W22994  32.441  30.674  12.413
56212W        W22995  30.509  36.943   3.175
56213W        W22996  43.356  32.148  14.351
56214W        W22997  37.630   2.495   0.654
56215W        W22998  29.559  42.180  11.591
56216W        W22999  31.572  13.953  12.855
56217W        W23000  19.087  32.047  12.322
56218W        W23001  44.564  33.624   3.791
56219W        W23002  13.380   4.978   3.641
56220W        W23003  44.764  12.694   0.502
56221W        W23004  34.715  40.510   4.590
56222W        W23005  33.629  14.145  12.565
56223W        W23006  37.879   6.945   1.064
56224W        W23007  16.168  42.762  13.038
56225W        W23008   0.925  35.484  14.985
56226W        W23009  25.237  32.065  10.286
56227W        W23010  28.855  30.578  12.735
56228W        W23011  26.119  22.561   0.839
56229W        W23012   1.966  23.270   3.253
56230W        W23013  13.123   9.146  13.843
56231W        W23014   7.863  22.230   2.708
56232W        W23015  38.158   1.662   3.203
56233W        W23016  37.964   4.571  11.875
56234W        W23017  29.153   9.411  14.289
56235W        W23018   3.407  14.665   4.452
56236W        W23019  22.971  24.476  13.435
56237W        W23020  17.131  21.186   3.539
56238W        W23021  29.625  22.701  12.536
56239W        W23022  22.140  24.698  10.959
56240W        W23023  41.848  10.403   4.450
56241W        W23024  29.056  32.693  14.419
56242W        W23025  40.955   6.863  13.467
56243W        W23026   2.395   7.117   2.278
56244W        W23027   5.446  15.556  12.020
56245W        W23028   5.516  36.812   4.629
56246W        W23029  28.105  11.628  11.557
56247W        W23030  16.784  43.888  12.324
56248W        W23031  31.882  30.266  14.549
56249W        W23032  14.695   2.325  13.400
56250W        W23033  19.108   1.311   3.727
56251W        W23034  31.157  32.282  12.463
56252W        W23035   6.326  30.610   0.335
56253W        W23036  22.556  25.135   0.016
56254W        W23037  41.459  19.535   4.378
56255W        W23038  38.905   9.871   3.347
56256W        W23039  26.084  11.107   1.402
56257W        W23040  44.303  13.204   2.743
56258W        W23041   3.945   7.514  11.987
56259W        W23042  13.669  21.270  13.668
56260W        W23043  16.784  43.888  14.665
56261W        W23044  27.182  17.210   3.649
56262W        W23045  32.364  35.005   3.071
56263W        W23046  22.141  33.905  13.531
56264W        W23047  19.197  15.338  11.930
56265W        W23048  41.992  39.830   5.019
56266W        W23049   0.292   6.418  14.239
56267W        W23050   5.200  13.788   1.914
56268W        W23051  28.719  35.858   0.780
56269W        W23052  20.690  27.044   4.082
56270W        W23053  16.537  37.515  14.069
56271W        W23054   9.578  28.303   2.713
56272W        W23055  21.106  27.837   0.901
56273W        W23056  34.300  19.635   1.967
56274W        W23057  31.593  22.176   2.737
56275W        W23058  31.115   0.975   1.241
56276W        W23059  22.528   1.542   5.266
56277W        W23060  33.175  10.543   0.710
56278W        W23061  44.506  15.388  12.363
56279W        W23062  43.149  39.620   2.996
56280W        W23063   2.536  15.605   3.853
56281W        W23064   8.890   3.596  12.135
56282W        W23065  24.584  26.135  14.000
56283W        W23066   9.346  39.468   4.319
56284W        W23067  43.050   0.294   4.740
56285W        W23068   6.408  25.051  14.504
56286W        W23069  34.090   9.866   1.015
56287W        W23070  41.489  13.430   1.719
56288W        W23071  27.631  44.823   3.410
56289W        W23072  37.550   1.977   1.926
56290W        W23073   9.141  34.637   4.520
56291W        W23074  17.977  17.501  13.017
56292W        W23075  20.496  35.343  10.843
56293W        W23076  36.009   4.084   4.659
56294W        W23077   4.680  11.845   3.210
56295W        W23078  15.184  17.530  13.565
56296W        W23079  32.050  41.274  14.004
56297W        W23080   5.022  22.743   3.278
56298W        W23081  35.437  38.538   2.406
56299W        W23082  28.669  11.599  11.110
56300W        W23083  39.815  31.785  12.336
56301W        W23084  24.598  25.678   3.613
56302W        W23085  12.285   6.848   4.007
56303W        W23086  19.978  42.998  10.654
56304W        W23087  39.749   5.683   2.704
56305W        W23088   2.996  14.673   3.140
56306W        W23089  43.029  36.482   1.969
56307W        W23090   5.654  31.121   3.046
56308W        W23091  44.750  35.937   1.355
56309W        W23092  37.889  22.079   0.199
56310W        W23093  21.702  44.270   4.079
56311W        W23094  29.618  22.418  13.507
56312W        W23095  26.673   7.807   0.469
56313W        W23096  44.969  19.711   3.249
56314W        W23097  32.129  31.263  14.475
56315W        W23098  16.260  42.477   3.960
56316W        W23099   1.338  18.203  13.502
56317W        W23100  35.520  16.691   4.346
56318W        W23101  17.905  25.700   3.649
56319W        W23102  29.674   5.299  12.400
56320W        W23103  23.192  13.028  14.525
56321W        W23104  18.105  24.953  10.597
56322W        W23105  37.039   9.442   2.765
56323W        W23106  41.749  20.525  11.034
56324W        W23107  23.037  10.104   0.895
56325W        W23108  27.376  22.609  12.043
56326W        W23109  37.257  30.816   2.729
56327W        W23110  10.108  41.898  13.872
56328W        W23111  44.487  21.103  10.307
56329W        W23112   9.362  33.306   2.341
56330W        W23113  40.528  35.472   2.396
56331W        W23114  39.928  23.580  14.852
56332W        W23115  20.644  12.823   0.733
56333W        W23116  41.262  36.313  10.777
56334W        W23117  19.543  34.089   1.777
56335W        W23118  23.921  31.053  12.320
56336W        W23119  42.006   8.860   0.365
56337W        W23120  16.608  40.306   2.752
56338W        W23121  13.154  36.362   1.916
56339W        W23122  20.083  17.156   2.721
56340W        W23123  41.351  12.374  10.933
56341W        W23124  42.347  33.516   2.213
56342W        W23125  12.489   1.058   4.221
56343W        W23126   8.295   3.630   1.396
56344W        W23127  35.934  27.007   0.404
56345W        W23128  12.479  31.510  14.759
56346W        W23129   1.763   6.066  14.276
56347W        W23130  22.027   6.442   2.688
56348W        W23131   4.188  18.158   1.385
56349W        W23132   4.892  25.268  11.580
56350W        W23133  17.294  35.889  14.030
56351W        W23134  35.089  10.294   2.275
56352W        W23135  10.196  24.977  12.870
56353W        W23136  42.744  23.015   1.816
56354W        W23137  14.888   3.178   2.400
56355W        W23138   3.890  15.416   1.271
56356W        W23139  20.766  15.917  10.654
56357W        W23140  32.834  23.139  11.172
56358W        W23141  25.098  43.493   3.792
56359W        W23142  41.289   1.247  10.804
56360W        W23143  12.318  42.516   2.613
56361W        W23144  33.576  38.022  12.829
56362W        W23145   2.896  12.846   0.977
56363W        W23146   7.331  25.419   0.961
56364W        W23147  43.768  23.666   4.562
56365W        W23148  39.541  43.347  12.172
56366W        W23149  44.918  34.039  13.408
56367W        W23150  33.134  10.747   4.248
56368W        W23151  28.568  10.452   4.970
56369W        W23152  23.135  43.989  12.002
56370W        W23153  17.896  37.798   3.702
56371W        W23154  18.071  10.282   1.331
56372W        W23155  18.130  34.619  11.201
56373W        W23156   5.191   1.888   3.197
56374W        W23157   8.113  41.894   3.230
56375W        W23158  17.272  24.139  10.237
56376W        W23159  20.022   7.336   1.317
56377W        W23160   7.372  28.408  11.186
56378W        W23161  10.244  23.981  12.061
56379W        W23162  14.680  10.088  11.235
56380W        W23163   5.956  40.009   2.814
56381W        W23164  38.789  20.680  14.328
56382W        W23165  43.552  34.470  14.820
56383W        W23166   3.609  21.212  14.331
56384W        W23167  29.123  43.965   4.444
56385W        W23168  18.636  16.191  11.483
56386W        W23169  42.999  30.472   2.645
56387W        W23170  39.325   1.286  12.151
56388W        W23171  41.978   9.627  12.832
56389W        W23172   8.321  31.561  12.909
56390W        W23173   8.377  41.019   0.200
56391W        W23174   7.785  29.562   1.280
56392W        W23175  23.146  17.162   4.401
56393W        W23176  11.372  40.344  10.895
56394W        W23177  15.276  12.871  12.688
56395W        W23178   3.268  18.695  14.322
56396W        W23179  16.577  31.994   2.338
56397W        W23180  18.247  37.767   1.287
56398W        W23181  14.743  37.340   2.896
56399W        W23182  44.127   5.897   1.337
56400W        W23183  21.751   6.879  14.921
56401W        W23184  19.603  21.436  12.296
56402W        W23185  32.524   2.772   2.431
56403W        W23186  21.054   9.696   1.378
56404W        W23187  39.808  18.972  11.522
56405W        W23188   5.130   3.394   0.535
56406W        W23189  12.874  42.345  12.583
56407W        W23190  39.540  38.609   1.348
56408W        W23191   1.713  36.244   4.141
56409W        W23192  32.830   0.781  12.319
56410W        W23193  36.427  11.085  12.560
56411W        W23194  30.363  43.461   3.568
56412W        W23195  28.706  40.380  14.398
56413W        W23196  12.680  40.342  12.607
56414W        W23197  43.501  38.387  14.241
56415W        W23198   0.754  42.792   4.572
56416W        W23199   7.738  26.212   1.947
56417W        W23200  38.881  24.269  12.495
56418W        W23201  21.123   2.591   2.299
56419W        W23202  44.228  30.682  12.605
56420W        W23203  17.660  43.910   0.959
56421W        W23204  21.702  31.990  13.446
56422W        W23205  39.532  10.279   3.473
56423W        W23206   2.611   0.530   1.699
56424W        W23207  31.826  31.643   0.232
56425W        W23208  17.557  31.224   3.658
56426W        W23209  31.961   3.763  14.330
56427W        W23210  12.660  37.399   2.756
56428W        W23211  11.817  28.172   1.802
56429W        W23212   6.241  36.893  14.939
56430W        W23213  39.833  42.962   0.217
56431W        W23214  33.834  34.932   1.680
56432W        W23215   2.768   4.330  12.105
56433W        W23216   4.725   4.693  14.139
56434W        W23217   5.973  32.938  12.370
56435W        W23218  37.626  26.095   3.668
56436W        W23219  39.766  38.550  14.455
56437W        W23220  40.197  41.484  11.234
56438W        W23221   0.780  18.080   2.290
56439W        W23222  38.512   5.811  14.909
56440W        W23223   4.674  36.626   2.299
56441W        W23224  33.887  10.100   0.375
56442W        W23225  25.435   9.175   1.880
56443W        W23226  17.051  27.423   3.148
56444W        W23227  27.210   7.402  13.769
56445W        W23228   8.863  10.744   2.424
56446W        W23229  34.366   1.773   3.691
56447W        W23230  19.783  41.319   0.214
56448W        W23231   6.672  11.075  13.462
56449W        W23232  18.674  27.454  10.855
56450W        W23233   1.270  41.980   4.913
56451W        W23234  21.726  36.415  13.043
56452W        W23235  38.470  29.311  14.467
56453W        W23236  17.136  21.484  12.050
56454W        W23237  43.035  38.803   0.899
56455W        W23238  15.890  38.152  12.434
56456W        W23239  11.453  39.478  11.181
56457W        W23240  13.117   0.504  12.777
56458W        W23241  14.858  12.653   2.797
56459W        W23242  38.332   0.703  13.239
56460W        W23243  44.282  26.117  11.592
56461W        W23244  10.276  43.447   3.627
56462W        W23245   0.842  17.840  10.979
56463W        W23246  28.748  22.806  12.494
56464W        W23247   7.292  31.832  11.912
56465W        W23248  29.071  38.990  12.684
56466W        W23249  22.288  30.628   3.749
56467W        W23250   9.353  44.838   0.310
56468W        W23251  17.534  17.543  13.883
56469W        W23252  41.754  27.875   1.203
56470W        W23253  14.162  42.951   5.021
56471W        W23254   9.683   4.311  14.861
56472W        W23255  32.206  16.548   4.175
56473W        W23256  15.258  37.420   3.072
56474W        W23257  25.038  32.588   0.510
56475W        W23258  23.363  41.730  11.471
56476W        W23259   2.520  27.075  14.672
56477W        W23260   1.022  20.506  11.518
56478W        W23261  36.782  35.080  12.465
56479W        W23262  35.378  25.117  14.044
56480W        W23263   6.464  35.108   3.131
56481W        W23264  16.346  36.134  10.194
56482W        W23265  39.434  28.502   0.537
56483W        W23266   0.284  26.441  11.498
56484W        W23267  22.473  35.618   4.977
56485W        W23268   8.673  27.656   1.280
56486W        W23269  34.107   9.341  14.729
56487W        W23270   7.677  33.449  12.509
56488W        W23271  40.358  24.768  13.854
56489W        W23272  35.487  23.568  10.648
56490W        W23273  40.044  21.127  14.152
56491W        W23274  20.208  34.777  14.263
56492W        W23275  14.041  12.334   2.827
56493W        W23276  23.672  34.893   1.492
56494W        W23277  26.319  25.366   4.000
56495W        W23278  18.335  13.338  11.870
56496W        W23279   2.117  17.370  10.973
56497W        W23280  29.889  44.849   1.062
56498W        W23281  42.451  10.239   3.288
56499W        W23282   8.659   7.096   2.932
56500W        W23283   2.226  26.699  11.594
56501W        W23284  36.375  19.982  14.794
56502W        W23285  24.644  40.174  14.247
56503W        W23286  23.108   9.816   1.850
56504W        W23287  17.778  27.941  13.114
56505W        W23288  22.689  38.128  12.686
56506W        W23289  13.080  39.548  14.334
56507W        W23290  35.557  33.307  14.420
56508W        W23291  41.495  29.481  11.664
56509W        W23292  15.624  30.459  11.584
56510W        W23293  24.461  42.985  11.745
56511W        W23294  20.066   7.337  14.009
56512W        W23295  11.656   7.222   2.027
56513W        W23296  19.334  20.112  10.370
56514W        W23297  15.657  23.802   1.790
56515W        W23298  44.689  40.385   4.326
56516W        W23299  30.103  11.720   1.390
56517W        W23300  36.379  30.078   0.192
56518W        W23301  38.478   3.869   3.651
56519W        W23302  32.592  24.681   5.009
56520W        W23303   1.742  29.219  12.460
56521W        W23304  33.950   8.659   2.995
56522W        W23305  16.649  21.442   2.728
56523W        W23306  43.047  29.559   2.654
56524W        W23307  23.598  22.050   1.913
56525W        W23308  13.401  30.625  12.007
56526W        W23309  34.328  36.781   3.287
56527W        W23310  20.976  35.663   1.906
56528W        W23311  37.832  29.985   4.629
56529W        W23312  17.284  14.352  13.549
56530W        W23313  25.145  20.258   1.305
56531W        W23314  43.541  32.971  13.921
56532W        W23315  12.091   3.616  12.495
56533W        W23316   0.591   4.680  11.020
56534W        W23317  40.112  38.324   3.836
56535W        W23318  43.862   3.333   3.345
56536W        W23319   3.389  15.216  13.999
56537W        W23320  23.287  33.666  14.447
56538W        W23321  24.092  39.056  13.887
56539W        W23322  22.929  18.730  12.902
56540W        W23323  35.376  26.372  12.857
56541W        W23324   7.920  25.503   2.500
56542W        W23325   2.828  34.610  13.056
56543W        W23326  41.261  14.613  12.798
56544W        W23327   8.836  43.683  14.188
56545W        W23328  10.789  23.016   0.285
56546W        W23329  34.352   4.620   2.104
56547W        W23330  33.513   3.348   3.101
56548W        W23331  36.897  12.194   1.874
56549W        W23332   4.827  29.295  10.515
56550W        W23333   4.210   7.224   4.538
56551W        W23334  39.596  44.837   2.455
56552W        W23335  23.557  14.148   1.371
56553W        W23336  34.436  27.002  12.924
56554W        W23337  29.108  11.241  11.894
56555W        W23338  20.512   6.476   0.464
56556W        W23339  33.506  22.012   3.137
56557W        W23340  41.921   0.268  14.988
56558W        W23341  39.826  33.137  12.001
56559W        W23342  37.036  16.534  11.586
56560W        W23343   0.557  11.221   0.783
56561W        W23344  11.604  37.558   1.260
56562W        W23345  14.250  43.432  12.576
56563W        W23346   3.357   6.369  12.487
56564W        W23347  24.080  18.439   0.321
56565W        W23348   9.151   9.762  13.404
56566W        W23349  38.799  31.543   2.083
56567W        W23350  35.043  35.557   1.429
56568W        W23351  21.222  25.067  14.282
56569W        W23352  33.243  10.896   3.104
56570W        W23353  21.867  37.949   3.783
56571W        W23354  36.892   7.508   0.642
56572W        W23355  41.491  19.296   0.312
56573W        W23356  18.675   4.516   4.627
56574W        W23357  39.308  36.083  13.777
56575W        W23358  26.740   6.724  12.924
56576W        W23359  13.200  37.090   0.930
56577W        W23360   5.919  23.626   1.908
56578W        W23361  35.681  36.139   3.314
56579W        W23362  24.269  10.140  12.399
56580W        W23363  14.217  44.739  12.938
56581W        W23364   6.952  30.020   2.423
56582W        W23365  16.748  31.984  11.565
56583W        W23366   9.145  33.402   3.213
56584W        W23367  36.475  13.262   2.270
56585W        W23368  23.119  41.322  11.249
56586W        W23369   6.606  41.900   0.957
56587W        W23370  18.692  25.563   3.263
56588W        W23371  38.578  44.349   1.688
56589W        W23372  30.579  10.673  13.743
56590W        W23373  41.271  39.187   0.039
56591W        W23374  30.105  33.150  10.580
56592W        W23375  43.735  30.868  12.548
56593W        W23376  15.364  30.247  13.744
56594W        W23377  43.421  40.518  13.339
56595W        W23378  25.252   3.011  11.508
56596W        W23379  33.410  21.638   2.101
56597W        W23380  19.621  17.073   0.884
56598W        W23381  37.743   9.621  11.523
56599W        W23382  39.788   9.580  11.145
56600W        W23383  41.648   2.430   5.031
56601W        W23384  18.042   0.880   0.178
56602W        W23385  11.874   2.219  11.088
56603W        W23386  40.438   3.226  12.437
56604W        W23387  27.121  21.102   0.795
56605W        W23388   6.406  31.914  14.849
56606W        W23389   9.930  27.952  13.932
56607W        W23390  13.831  35.442   0.162
56608W        W23391  19.302  11.765   4.934
56609W        W23392  12.955  31.101  12.640
56610W        W23393   4.958   8.917  13.866
56611W        W23394  19.744   3.705   1.945
56612W        W23395  29.176  30.881   0.908
56613W        W23396  41.775   6.954   3.699
56614W        W23397  31.533  32.427  13.389
56615W        W23398  15.072  39.312   2.000
56616W        W23399  25.624  32.449   2.709
56617W        W23400   5.940  20.607  11.230
56618W        W23401  38.883  34.092  11.722
56619W        W23402  32.650   2.314  10.680
56620W        W23403   5.514  32.410   1.819
56621W        W23404  39.256  16.358  11.728
56622W        W23405  33.694  13.419  14.021
56623W        W23406  17.308  34.820  11.437
56624W        W23407   9.699  16.551   1.218
56625W        W23408  14.657  33.613  12.940
56626W        W23409  30.534   0.709  12.873
56627W        W23410   2.772  18.149  11.704
56628W        W23411   7.339  39.325   3.244
56629W        W23412  12.845  28.484  14.461
56630W        W23413  40.878  22.601   4.861
56631W        W23414  25.937   0.939  14.367
56632W        W23415  23.371   0.877  12.673
56633W        W23416  20.333   9.388  12.021
56634W        W23417   0.454  17.707   3.532
56635W        W23418  19.913  35.871   2.727
56636W        W23419  37.299   2.683   2.101
56637W        W23420  37.986  38.407  14.620
56638W        W23421  33.463   1.066   4.688
56639W        W23422  29.132  22.495  13.771
56640W        W23423  28.344  41.574  12.887
56641W        W23424  11.301   4.789   0.923
56642W        W23425  18.606   5.262   1.459
56643W        W23426  31.785  12.308   0.455
56644W        W23427  22.634  44.023   0.856
56645W        W23428  19.810  32.901   2.225
56646W        W23429  41.262   5.365  14.049
56647W        W23430  18.428  22.649   0.457
56648W        W23431  12.606  32.719  13.586
56649W        W23432  39.383  31.669  12.592
56650W        W23433  25.705  12.411  12.943
56651W        W23434  24.621  32.639  11.584
56652W        W23435   4.840  29.215  14.380
56653W        W23436  26.945  34.841  12.204
56654W        W23437   7.146  21.399   3.030
56655W        W23438  25.721   0.437   0.225
56656W        W23439  31.464  19.252  14.419
56657W        W23440  13.125  27.196   2.345
56658W        W23441  34.113  24.689  10.651
56659W        W23442  39.222   2.915  14.350
56660W        W23443  29.717  36.152   2.851
56661W        W23444  29.003   8.120   1.661
56662W        W23445  29.146  26.266  13.538
56663W        W23446  23.213  30.884   3.341
56664W        W23447  20.835  18.546  14.064
56665W        W23448  37.465  44.321   2.600
56666W        W23449  44.367  36.406   4.199
56667W        W23450  24.907  30.453   4.241
56668W        W23451  20.255  20.607  11.543
56669W        W23452   8.185  40.081  10.713
56670W        W23453  28.376  12.058  14.491
56671W        W23454  28.075  14.467  13.986
56672W        W23455  10.130  22.269  11.632
56673W        W23456  29.390  39.319   3.670
56674W        W23457  40.590  32.292   4.838
56675W        W23458  33.547  35.127   3.127
56676W        W23459   8.850  30.987  13.421
56677W        W23460  41.952  26.885  14.020
56678W        W23461  15.489  12.599  13.057
56679W        W23462  11.909   1.875   1.226
56680W        W23463  12.121  38.898   1.354
56681W        W23464  37.114   6.405  13.037
56682W        W23465   9.863  27.874   2.678
56683W        W23466  16.289   4.295   3.689
56684W        W23467  28.421  17.780   0.369
56685W        W23468  12.138   6.230  11.273
56686W        W23469  29.003   7.858   3.621
56687W        W23470  20.867  17.482   4.157
56688W        W23471  12.779  27.403  11.601
56689W        W23472  29.446  16.801  12.958
56690W        W23473  37.948  26.964  10.671
56691W        W23474  38.677  23.145   5.129
56692W        W23475  34.549  36.588  10.937
56693W        W23476  21.067  31.360  12.499
56694W        W23477   8.172  18.301   1.778
56695W        W23478   4.524  16.269   5.193
56696W        W23479  14.954  10.613  14.718
56697W        W23480  27.053  22.135   0.416
56698W        W23481  40.508   9.789  14.331
56699W        W23482   4.959  36.462   3.822
56700W        W23483  15.529  25.997   1.783
56701W        W23484  27.511  24.262  12.062
56702W        W23485  41.925  27.482   3.109
56703W        W23486  38.742  21.287   2.680
56704W        W23487  35.706  13.912   1.467
56705W        W23488  26.922  40.932   3.209
56706W        W23489  29.065  29.276   3.664
56707W        W23490  15.786  35.836   5.391
56708W        W23491   9.335  20.597  11.594
56709W        W23492  27.798   6.032   2.261
56710W        W23493  38.361   6.053  12.128
56711W        W23494  19.300  19.643   1.752
56712W        W23495  34.164  41.109  14.321
56713W        W23496  22.206   5.937   0.823
56714W        W23497  27.296  35.590   1.231
56715W        W23498   1.393  39.994   3.632
56716W        W23499   4.153   6.241  11.256
56717W        W23500  28.205   2.991  13.464
56718W        W23501  30.478  42.520  13.018
56719W        W23502   2.214  25.026   3.304
56720W        W23503  31.639  30.437   3.374
56721W        W23504  10.332  38.858   0.522
56722W        W23505   3.556  20.515   0.537
56723W        W23506  13.883  30.615   1.210
56724W        W23507   0.387  14.478  12.431
56725W        W23508  31.953  20.240  13.905
56726W        W23509  33.853  12.373  14.938
56727W        W23510  44.826  44.002  10.470
56728W        W23511   5.763   7.437  13.389
56729W        W23512  23.423  31.587   0.897
56730W        W23513  23.567  31.834   4.346
56731W        W23514  18.758  29.109  13.400
56732W        W23515   1.442   2.746  10.535
56733W        W23516  38.739   8.944  11.062
56734W        W23517  21.441  41.763  10.772
56735W        W23518   3.889  28.137  12.315
56736W        W23519  37.822  29.503   1.879
56737W        W23520   0.647  22.031  11.640
56738W        W23521  43.717  34.357   2.086
56739W        W23522  27.713  44.872  11.037
56740W        W23523  21.256  38.573  14.038
56741W        W23524  12.203  25.980   3.703
56742W        W23525  38.553  42.416   0.322
56743W        W23526   5.696  28.638   0.577
56744W        W23527   2.010  28.593  14.867
56745W        W23528   0.858   4.853   0.014
56746W        W23529  28.175  30.562   0.802
56747W        W23530  27.497  29.643  14.135
56748W        W23531  41.779   6.124  12.376
56749W        W23532  27.069  42.457   4.871
56750W        W23533  31.407   7.701  13.402
56751W        W23534  19.763  22.154   1.019
56752W        W23535  36.841  21.001  10.670
56753W        W23536  14.617  10.661  14.323
56754W        W23537   5.932  20.494   1.690
56755W        W23538  10.496  38.919  10.847
56756W        W23539  14.763  31.138  13.755
56757W        W23540  32.683   2.977  11.972
56758W        W23541  19.485   9.976   3.208
56759W        W23542   4.153   4.513  13.337
56760W        W23543  41.255  10.132  12.892
56761W        W23544   5.515   6.330   3.655
56762W        W23545  35.545  43.252   1.784
56763W        W23546  29.619  27.432  13.029
56764W        W23547   2.352  29.794   3.954
56765W        W23548  21.785  29.667  11.574
56766W        W23549   0.893  18.972  13.444
56767W        W23550   3.507  10.187  13.325
56768W        W23551  12.340  39.888  14.898
56769W        W23552  38.002   7.106  13.074
56770W        W23553   7.765  22.467  10.554
56771W        W23554  13.102  11.674  10.623
56772W        W23555  17.868  19.440   3.185
56773W        W23556  19.941  11.683  14.910
56774W        W23557  22.289  20.618   2.803
56775W        W23558  16.319  33.988   0.222
56776W        W23559  39.889  23.646   1.785
56777W        W23560  27.230  37.531  12.125
56778W        W23561  32.328  23.725   2.291
56779W        W23562   3.068  19.278   1.889
56780W        W23563  17.086  28.406   4.525
56781W        W23564  13.786  13.093   1.290
56782W        W23565  34.260  19.519   1.086
56783W        W23566  25.428   5.889  14.333
56784W        W23567  14.124  36.693  13.270
56785W        W23568  24.365   1.493   4.267
56786W        W23569  26.217  31.571   1.334
56787W        W23570  30.673  15.152   2.584
56788W        W23571  18.681   9.215   2.730
56789W        W23572  19.243  32.475  12.592
56790W        W23573   4.369  20.240   0.975
56791W        W23574   2.761  13.785  14.404
56792W        W23575   6.152  42.507   9.949
56793W        W23576   7.121   3.864  12.381
56794W        W23577  16.990  21.780   1.939
56795W        W23578  12.076  16.682   4.957
56796W        W23579  27.139  13.196  13.420
56797W        W23580   6.391  14.647   0.962
56798W        W23581   5.966  25.505   0.921
56799W        W23582  22.284  14.663   1.232
56800W        W23583  12.241   3.430   0.484
56801W        W23584  26.391  14.146  14.757
56802W        W23585  21.680  21.354   4.543
56803W        W23586  29.420  10.314   1.866
56804W        W23587   4.367  38.016  13.597
56805W        W23588  10.607  25.513   1.779
56806W        W23589  26.156  40.543  12.096
56807W        W23590   8.240   0.196  10.968
56808W        W23591  43.361  25.632   0.766
56809W        W23592  25.598  19.260  14.424
56810W        W23593   2.252  42.818   4.462
56811W        W23594   1.936  25.110   3.731
56812W        W23595  27.885  16.789  14.676
56813W        W23596  34.008   0.108   2.669
56814W        W23597  18.043  44.011   2.601
56815W        W23598  26.742  39.425   3.707
56816W        W23599   8.826  19.008   2.407
56817W        W23600  41.540   1.367   4.028
56818W        W23601  20.787  23.103   3.758
56819W        W23602   1.270  35.615   4.933
56820W        W23603  20.355   8.021   3.431
56821W        W23604  20.217  44.399   2.672
56822W        W23605   8.388  38.942   1.730
56823W        W23606  11.607  42.915   2.345
56824W        W23607  42.839  44.760   2.831
56825W        W23608   7.259  23.665   3.634
56826W        W23609  11.784  22.631  14.615
56827W        W23610  15.464  28.963  10.993
56828W        W23611  21.757  30.881  12.920
56829W        W23612  37.384   5.641   1.634
56830W        W23613  16.499  37.403   2.863
56831W        W23614   2.947  11.744   3.667
56832W        W23615  28.543  19.151  13.289
56833W        W23616  37.925  24.761  12.125
56834W        W23617   3.331   3.444   2.371
56835W        W23618   3.454  26.333   3.388
56836W        W23619  20.122   0.917   4.868
56837W        W23620   2.455  42.787   4.982
56838W        W23621   1.948  17.592  11.403
56839W        W23622  22.982   6.368  12.485
56840W        W23623  39.035  43.345  13.510
56841W        W23624  39.090  35.741   3.819
56842W        W23625  20.272  29.669   2.709
56843W        W23626   5.928  44.401  13.046
56844W        W23627   3.736  11.904  13.821
56845W        W23628  14.208  40.323  14.753
56846W        W23629  26.668  19.648   2.878
56847W        W23630  35.839  43.422   0.813
56848W        W23631   7.981  31.868  12.657
56849W        W23632   4.452  24.983  12.888
56850W        W23633  10.038  11.228   2.757
56851W        W23634  23.745  14.328  14.618
56852W        W23635  29.678  37.910   3.346
56853W        W23636  42.484  15.144   3.728
56854W        W23637  12.676  36.315   4.156
56855W        W23638   7.314  32.088   2.236
56856W        W23639  28.264  40.553  13.474
56857W        W23640  29.540  36.074   3.337
56858W        W23641  18.029  32.701   3.744
56859W        W23642  20.212  18.706  13.253
56860W        W23643   5.885  13.194  14.926
56861W        W23644  36.836  20.793  14.751
56862W        W23645   0.232   5.368   1.661
56863W        W23646  13.417  35.307   4.998
56864W        W23647  19.895  33.399   3.531
56865W        W23648  36.160  39.718  13.364
56866W        W23649  15.586  31.937  10.767
56867W        W23650   6.506  40.896  14.677
56868W        W23651  11.328  38.618  10.719
56869W        W23652   3.850   0.548  12.009
56870W        W23653  33.057   1.736  12.596
56871W        W23654  35.974  20.982   3.751
56872W        W23655  32.283  24.140  11.814
56873W        W23656  22.568  34.900  14.292
56874W        W23657  35.893  12.901  13.563
56875W        W23658  34.876  16.779   2.156
56876W        W23659  33.148  12.618   1.890
56877W        W23660  17.667  10.698   4.957
56878W        W23661  27.398  15.237   3.826
56879W        W23662   9.399  29.621  13.527
56880W        W23663  42.568  29.329  14.385
56881W        W23664   1.445  14.115  11.143
56882W        W23665   5.128  34.424   4.604
56883W        W23666  38.919   4.474  12.702
56884W        W23667   0.431  39.936  13.981
56885W        W23668  14.133  30.611   3.326
56886W        W23669  12.864  38.429  13.938
56887W        W23670  25.594  27.862   5.033
56888W        W23671  30.350  23.208  12.564
56889W        W23672   0.178  34.294   2.334
56890W        W23673  37.926  38.797  14.285
56891W        W23674  30.617  20.694   2.823
56892W        W23675  37.975  15.193   1.471
56893W        W23676   3.726  26.527   3.783
56894W        W23677  17.031  34.013  11.502
56895W        W23678  39.886   0.003   2.857
56896W        W23679   3.815  11.906  12.002
56897W        W23680  12.472   2.723  14.908
56898W        W23681  10.554  32.416  10.861
56899W        W23682  31.031  37.953  13.107
56900W        W23683   2.477  13.562   3.667
56901W        W23684   8.371  22.773   4.115
56902W        W23685  29.808   1.251   2.385
56903W        W23686  19.540  27.499  11.669
56904W        W23687   7.783  22.914  14.770
56905W        W23688  43.859  33.053   0.349
56906W        W23689  18.327   5.420   4.549
56907W        W23690  17.089  17.210   1.687
56908W        W23691   9.430   9.070   1.438
56909W        W23692  33.033  28.927  14.377
56910W        W23693  34.966   4.193   2.112
56911W        W23694  13.215  24.668  14.373
56912W        W23695  43.494   1.552  11.091
56913W        W23696  17.062  11.731  13.974
56914W        W23697  36.522  20.032   5.677
56915W        W23698  38.815   1.344  14.587
56916W        W23699   6.463  13.646  12.038
56917W        W23700  26.731  37.586   3.363
56918W        W23701  39.468  35.001  11.976
56919W        W23702  16.712  24.753  11.999
56920W        W23703  23.791   0.781   1.384
56921W        W23704   6.953  29.523  12.126
56922W        W23705  31.031  33.301  13.515
56923W        W23706  14.359   6.250   3.574
56924W        W23707  13.620  27.612   2.238
56925W        W23708  33.094  37.961  13.004
56926W        W23709  41.337   3.449  12.107
56927W        W23710  17.371  24.714   1.844
56928W        W23711   2.474  20.663  10.876
56929W        W23712  35.845  31.497  11.631
56930W        W23713   0.356   2.900   1.277
56931W        W23714  38.261   8.951  10.857
56932W        W23715   9.760  22.568   3.832
56933W        W23716   3.485   1.008  12.868
56934W        W23717  28.924   5.838   3.298
56935W        W23718  33.236  42.253   3.315
56936W        W23719  41.804  23.311  11.679
56937W        W23720  15.016   2.195  13.928
56938W        W23721  21.566  32.825  13.990
56939W        W23722  11.047  39.582   0.447
56940W        W23723  41.762  36.488   2.271
56941W        W23724  16.131  27.022   1.534
56942W        W23725  36.846  16.556   2.178
56943W        W23726   1.721  38.859   4.136
56944W        W23727  44.855  11.300  13.119
56945W        W23728  34.440   8.949   2.396
56946W        W23729   1.910  17.441   1.243
56947W        W23730   2.739   1.207  14.028
56948W        W23731   2.841  35.360   1.516
56949W        W23732   9.148  22.924  10.909
56950W        W23733  27.485  11.194   4.725
56951W        W23734  14.923  32.075   4.121
56952W        W23735  42.969  26.255   1.260
56953W        W23736  22.592  44.318   2.615
56954W        W23737  24.595  35.451   2.838
56955W        W23738  18.594   3.207   0.182
56956W        W23739  18.294  29.359  14.881
56957W        W23740  19.833  13.293   4.102
56958W        W23741   0.245  17.208   3.578
56959W        W23742  17.803  35.069   3.570
56960W        W23743   8.774   8.584  11.640
56961W        W23744   4.340  22.105  12.331
56962W        W23745  18.324  18.058  12.335
56963W        W23746  32.108   7.485  10.775
56964W        W23747   8.431  23.136  12.058
56965W        W23748  37.685  40.278  14.082
56966W        W23749  33.569  15.830  12.004
56967W        W23750   9.534  14.713  14.903
56968W        W23751  28.078  21.228  14.795
56969W        W23752   6.890  22.719   3.503
56970W        W23753  43.326  19.566   1.765
56971W        W23754   6.795   7.453   0.166
56972W        W23755  30.423  32.200  13.887
56973W        W23756  22.221  12.714  14.854
56974W        W23757  15.102  33.102  11.738
56975W        W23758  23.790   5.012  11.186
56976W        W23759  38.514  39.987  13.935
56977W        W23760  17.094  42.283  14.469
56978W        W23761   2.890  34.520  12.503
56979W        W23762  30.598  14.632   3.206
56980W        W23763  20.563  15.975  14.914
56981W        W23764  41.815  32.054  10.382
56982W        W23765  42.639  36.588  14.983
56983W        W23766  33.946  28.690  12.882
56984W        W23767  18.899   4.079  13.297
56985W        W23768  14.709   9.248  13.967
56986W        W23769   7.270  15.828   4.282
56987W        W23770  10.329  11.863  12.302
56988W        W23771  22.027   4.656  12.372
56989W        W23772  20.706  35.101   4.200
56990W        W23773  26.184  10.944   3.211
56991W        W23774  40.042  13.901   0.482
56992W        W23775  10.841  15.231  11.037
56993W        W23776  25.163  32.720   2.692
56994W        W23777  15.582   7.336  11.192
56995W        W23778  14.740  33.178  14.329
56996W        W23779  36.650  16.833   0.436
56997W        W23780  13.334  43.425   3.593
56998W        W23781  22.505  23.062   1.016
56999W        W23782  26.031   9.204  10.661
57000W        W23783  34.584   8.397  11.958
57001W        W23784  42.318  43.998  14.902
57002W        W23785   7.636   9.631  13.323
57003W        W23786  34.879  18.094  12.652
57004W        W23787  15.741  41.231   2.657
57005W        W23788  34.940  37.542  11.572
57006W        W23789   7.262  25.610  13.114
57007W        W23790  12.867  22.416   1.167
57008W        W23791  24.852  20.863  10.981
57009W        W23792  21.323  16.572   4.326
57010W        W23793   1.012  19.156   2.699
57011W        W23794  21.208  42.240   2.676
57012W        W23795   1.147  15.578   1.685
57013W        W23796  39.055  17.837  13.841
57014W        W23797  17.591  29.522   0.946
57015W        W23798  36.493  25.902  14.349
57016W        W23799  41.061  22.662   2.732
57017W        W23800  21.636   2.698  12.956
57018W        W23801   7.939  29.870   2.327
57019W        W23802   2.432  31.203  11.620
57020W        W23803   6.593  16.240   2.368
57021W        W23804  36.747  28.008   1.783
57022W        W23805  24.662  20.985   0.992
57023W        W23806   7.498  40.895   2.626
57024W        W23807   4.423  25.660  12.476
57025W        W23808  22.676  38.368   4.195
57026W        W23809  13.883  27.182   1.986
57027W        W23810  29.069  42.037  14.227
57028W        W23811   8.887  44.979  14.272
57029W        W23812  42.093  30.494  10.163
57030W        W23813  20.677  10.466  11.073
57031W        W23814   5.770  39.062  14.031
57032W        W23815  10.360  44.989  11.624
57033W        W23816  20.350   2.319  11.582
57034W        W23817   6.647   7.662  14.720
57035W        W23818  25.539  11.839  10.728
57036W        W23819  40.585  29.736  11.640
57037W        W23820  24.686  11.361   4.562
57038W        W23821  32.048   8.676   2.735
57039W        W23822   4.154   2.263  14.551
57040W        W23823   2.960  10.248   3.260
57041W        W23824  32.208  18.332  11.628
57042W        W23825  36.958  26.132   0.936
57043W        W23826  25.785  13.704   1.855
57044W        W23827  16.018  11.087   2.675
57045W        W23828   3.147  20.105   2.962
57046W        W23829  14.899   0.024  11.409
57047W        W23830  21.345  23.006  13.438
57048W        W23831  11.802  43.261  14.802
57049W        W23832  37.565  31.514  12.127
57050W        W23833   6.699  33.450  13.400
57051W        W23834  19.306  22.218   4.757
57052W        W23835  31.110  16.681  10.980
57053W        W23836  21.973  21.955  12.974
57054W        W23837  36.430   3.442  10.276
57055W        W23838   7.442  16.882   1.341
57056W        W23839  35.866  26.896  12.864
57057W        W23840  22.762  31.126  13.648
57058W        W23841  15.104  18.716  11.899
57059W        W23842  18.779  41.421   0.246
57060W        W23843  21.768  21.110  10.980
57061W        W23844   5.853  17.080  14.955
57062W        W23845  17.236  33.035   3.302
57063W        W23846   8.686  24.459  11.473
57064W        W23847  32.120  24.216  12.884
57065W        W23848  21.108  27.705   3.591
57066W        W23849  44.531  21.032   3.206
57067W        W23850  34.561  12.019  11.924
57068W        W23851  35.439  33.969  14.849
57069W        W23852  27.852   5.102   4.197
57070W        W23853  44.371   4.953  14.813
57071W        W23854   6.227   0.893  11.527
57072W        W23855  15.253   2.807   3.362
57073W        W23856  32.631  25.760  13.433
57074W        W23857   1.285   6.215  13.017
57075W        W23858  14.139  30.051   1.882
57076W        W23859  19.533  23.607  14.348
57077W        W23860  14.674  16.578  11.703
57078W        W23861  17.840  37.453   0.393
57079W        W23862  31.166  22.023   1.791
57080W        W23863  23.172   2.231   4.033
57081W        W23864  21.583  44.055  12.311
57082W        W23865  41.584  13.762   0.338
57083W        W23866  17.566  24.703   0.548
57084W        W23867  22.864   3.947   3.721
57085W        W23868   6.388  20.102   2.473
57086W        W23869  38.969  37.564  11.262
57087W        W23870  34.102  26.425  14.773
57088W        W23871   5.424  36.921   0.690
57089W        W23872  13.223   0.043   1.406
57090W        W23873  10.421  11.079   1.502
57091W        W23874   8.335  16.842  13.452
57092W        W23875  38.393  13.053  12.977
57093W        W23876  29.751   4.640  12.952
57094W        W23877  20.045  22.107  13.953
57095W        W23878  10.148  26.289  13.526
57096W        W23879  10.756  38.550   0.616
57097W        W23880  42.375  36.391  13.067
57098W        W23881  15.570  19.049  14.417
57099W        W23882   4.451  17.625  12.924
57100W        W23883  21.141  43.323   1.278
57101W        W23884  31.104  25.154   1.824
57102W        W23885  36.449   8.374  13.878
57103W        W23886  30.702  35.923  14.890
57104W        W23887  37.523   3.850  12.795
57105W        W23888  29.363   7.905   0.891
57106W        W23889  32.565  19.681   9.712
57107W        W23890  40.200   2.739  12.771
57108W        W23891  11.605   2.284   1.141
57109W        W23892  27.709   1.057  12.464
57110W        W23893   3.222  42.583  11.164
57111W        W23894  39.604  25.986  13.804
57112W        W23895  26.782  18.751  12.004
57113W        W23896  33.128  27.555  14.808
57114W        W23897  11.554   1.857   0.259
57115W        W23898  20.887  28.096  13.536
57116W        W23899  15.123  35.461  14.957
57117W        W23900  27.515  18.051   4.652
57118W        W23901   5.181  32.349  12.913
57119W        W23902  12.840  33.879  11.176
57120W        W23903  18.177  43.793   0.771
57121W        W23904  28.101  14.479   3.807
57122W        W23905   8.772  41.001   3.918
57123W        W23906   6.308  16.650  14.232
57124W        W23907   1.017  25.772   0.027
57125W        W23908   4.042  16.694  11.196
57126W        W23909  22.421  14.798   3.217
57127W        W23910  34.787  12.404   0.976
57128W        W23911  13.341  42.938   0.382
57129W        W23912  23.438   8.158   0.180
57130W        W23913  39.108  39.742   3.229
57131W        W23914   6.663  28.044   0.150
57132W        W23915  25.630  20.199  12.941
57133W        W23916  25.605  22.550  11.080
57134W        W23917  30.989   2.994   3.183
57135W        W23918  34.901   1.938  12.937
57136W        W23919   8.286  11.409  13.450
57137W        W23920  20.877  38.149   1.671
57138W        W23921  41.314  33.390   5.046
57139W        W23922  35.872  34.555  11.662
57140W        W23923  12.243  32.344   2.789
57141W        W23924  44.204  19.298  14.533
57142W        W23925  29.930  14.221  13.878
57143W        W23926  32.051  15.653  13.315
57144W        W23927  34.918  30.499  10.901
57145W        W23928  19.210  20.020   4.907
57146W        W23929  41.531  40.554  12.955
57147W        W23930   4.002  43.121   0.279
57148W        W23931  11.180  38.968   1.828
57149W        W23932  14.887  20.859  13.382
57150W        W23933  42.945  40.035   0.806
57151W        W23934  30.757  27.046   2.264
57152W        W23935   5.976   4.233  12.794
57153W        W23936  26.683   5.013  14.114
57154W        W23937  16.011   3.918  14.028
57155W        W23938  44.131  11.148   0.857
57156W        W23939  16.023  20.176  11.656
57157W        W23940  13.248   5.180   4.870
57158W        W23941  30.647  34.504   0.973
57159W        W23942  37.543  21.746  11.585
57160W        W23943  37.117   8.676   1.845
57161W        W23944  10.425  40.198  11.175
57162W        W23945  44.631  18.351  10.355
57163W        W23946  35.882  33.284   0.255
57164W        W23947  13.204  30.596  12.486
57165W        W23948  35.551  15.624  10.359
57166W        W23949  13.747   3.361   0.905
57167W        W23950  37.568  31.170  14.488
57168W        W23951  17.849  20.999   0.304
57169W        W23952  38.533  23.267  12.113
57170W        W23953  14.711  22.661  14.689
57171W        W23954  25.465  36.774  11.122
57172W        W23955  24.302   1.935   4.517
57173W        W23956  28.473  10.290   4.448
57174W        W23957  12.029  36.645   1.297
57175W        W23958  14.698  17.570  14.843
57176W        W23959  32.445  42.261   2.963
57177W        W23960  10.177  20.644   4.637
57178W        W23961  34.348  30.456   1.282
57179W        W23962  27.994  14.143   2.400
57180W        W23963  41.923  11.268   3.942
57181W        W23964  14.742   3.287   2.883
57182W        W23965  36.816   6.271  14.638
57183W        W23966  11.208  39.457  10.678
57184W        W23967  42.916  43.385  12.193
57185W        W23968  21.057  13.276  12.954
57186W        W23969  23.894  22.382   5.105
57187W        W23970   7.206  18.968  12.514
57188W        W23971   1.860  24.537   4.503
57189W        W23972  18.549  19.070   3.163
57190W        W23973  30.141   6.937  11.744
57191W        W23974  19.328  30.346  14.769
57192W        W23975  27.451  12.558   4.602
57193W        W23976  38.942  39.122  12.440
57194W        W23977  18.109  25.660  12.596
57195W        W23978  14.033  32.137  11.178
57196W        W23979  21.540   2.488   1.383
57197W        W23980  35.156   0.708  13.448
57198W        W23981  14.779  21.607   4.872
57199W        W23982  35.941  28.491  11.140
57200W        W23983   2.925  20.388  12.501
57201W        W23984  41.798  20.258   3.582
57202W        W23985  32.616   3.401   0.248
57203W        W23986  24.034  27.478  13.078
57204W        W23987  44.500  26.939   0.360
57205W        W23988  14.733  12.408   3.260
57206W        W23989   3.312  12.224  12.390
57207W        W23990  22.703  10.127   2.393
57208W        W23991  29.113  20.981   0.828
57209W        W23992   0.392  43.523  13.342
57210W        W23993   4.895  44.976  11.002
57211W        W23994  16.117   0.346   0.827
57212W        W23995  28.189   4.722   4.873
57213W        W23996   0.500  11.916  10.641
57214W        W23997   5.266  23.529  12.588
57215W        W23998   5.347  32.086   3.360
57216W        W23999   0.558  13.117   3.288
57217W        W24000  25.137  28.634  10.337
57218W        W24001  22.520  10.674   0.729
57219W        W24002  15.911  23.446   3.313
57220W        W24003  30.835  13.194   2.251
57221W        W24004  30.696  13.458  11.215
57222W        W24005  43.436  28.140  14.586
57223W        W24006  30.041  10.108  11.073
57224W        W24007  31.412  36.583  13.202
57225W        W24008  19.213  26.717  13.128
57226W        W24009  31.202   8.399  13.458
57227W        W24010   9.693  23.772   2.291
57228W        W24011  10.773  10.756  12.494
57229W        W24012  33.959  27.467   1.951
57230W        W24013   0.455   4.139  12.512
57231W        W24014  26.276  42.062  11.207
57232W        W24015   2.663  17.556   0.715
57233W        W24016  12.735  33.878  13.381
57234W        W24017  16.617  32.539   1.156
57235W        W24018  35.675  37.296  12.083
57236W        W24019   0.354  11.616  13.740
57237W        W24020   1.847  28.929  12.947
57238W        W24021  29.579   8.381   0.906
57239W        W24022  37.392   1.270   3.693
57240W        W24023  30.504  11.835  13.821
57241W        W24024   0.382  34.536  10.634
57242W        W24025  42.255  16.522   0.355
57243W        W24026   5.672  32.543  12.896
57244W        W24027  32.046  17.615  14.553
57245W        W24028  31.586  13.440  12.954
57246W        W24029   1.838  42.384   1.452
57247W        W24030   1.157  12.555  13.274
57248W        W24031  29.020  12.554  12.052
57249W        W24032  43.447  14.825   0.910
57250W        W24033   1.345  29.797   3.266
57251W        W24034  32.343  19.290  13.463
57252W        W24035  40.607  34.122   1.573
57253W        W24036  28.103  40.018  12.530
57254W        W24037  28.200   3.397  11.202
57255W        W24038  37.954  13.925   1.832
57256W        W24039   5.144  26.988   3.392
57257W        W24040  24.065  25.190  13.841
57258W        W24041   6.126  43.303  14.315
57259W        W24042  29.946  29.957  12.191
57260W        W24043  13.094   3.484  13.471
57261W        W24044  30.374  11.044  12.957
57262W        W24045   9.814  25.650   4.979
57263W        W24046  22.723  11.621  11.217
57264W        W24047   0.437  34.040  14.501
57265W        W24048  42.872  37.540  11.623
57266W        W24049   7.850  37.297   2.621
57267W        W24050   4.879   8.905   3.211
57268W        W24051  11.795  23.633  13.050
57269W        W24052  33.272  23.891  11.748
57270W        W24053  30.059  26.524   3.060
57271W        W24054  20.255  40.567   4.520
57272W        W24055  21.226  30.999   2.229
57273W        W24056  44.928  34.122   0.730
57274W        W24057  26.935  23.547   0.227
57275W        W24058   9.633  33.142   0.788
57276W        W24059  20.013  17.116  11.451
57277W        W24060  31.053  34.633  13.039
57278W        W24061   5.268  35.061   1.232
57279W        W24062   6.875  38.231   2.408
57280W        W24063  18.447  12.082  12.122
57281W        W24064  37.936  36.014   0.032
57282W        W24065   2.599  28.855   1.643
57283W        W24066   4.308   8.619   0.744
57284W        W24067  36.010  31.458  11.103
57285W        W24068  16.623  26.619  13.807
57286W        W24069   3.887  31.126  12.918
57287W        W24070  40.778  26.116   0.854
57288W        W24071  38.762  11.545  10.685
57289W        W24072  13.234  27.565   0.924
57290W        W24073  22.149  37.530   3.592
57291W        W24074  29.709   4.951  12.020
57292W        W24075  23.525  30.518   1.187
57293W        W24076  21.558  36.115   4.198
57294W        W24077   0.680  22.662  13.964
57295W        W24078  26.562  28.228   1.824
57296W        W24079  30.388   5.812  13.607
57297W        W24080  28.396  32.413  14.852
57298W        W24081  32.231   6.986   4.688
57299W        W24082  22.004  31.077   0.272
57300W        W24083  36.850  34.498   0.874
57301W        W24084  29.894   4.241   1.681
57302W        W24085  12.843  38.844  14.833
57303W        W24086  43.379  44.907  10.451
57304W        W24087   4.481  43.845  12.536
57305W        W24088  37.444  31.527  10.424
57306W        W24089  24.782  31.013  14.906
57307W        W24090  34.425   6.889  12.011
57308W        W24091  31.393   7.230  12.950
57309W        W24092  27.695  22.285   1.276
57310W        W24093  28.254  12.307  12.564
57311W        W24094  21.408  44.277   0.992
57312W        W24095  33.515  35.890   5.120
57313W        W24096  37.105   5.758  13.868
57314W        W24097  19.755  20.529  13.568
57315W        W24098  27.608  15.832  12.792
57316W        W24099  17.828  17.566   1.863
57317W        W24100  34.601  22.628   0.831
57318W        W24101   0.209   0.658   2.953
57319W        W24102   8.632  44.815   2.397
57320W        W24103  39.288  14.612  14.228
57321W        W24104   7.706  41.423  12.969
57322W        W24105  21.529  40.871  10.677
57323W        W24106  27.296  19.121   3.901
57324W        W24107  33.971  27.124  11.151
57325W        W24108   5.957  40.046  14.473
57326W        W24109  38.003  15.506  14.699
57327W        W24110  35.289  44.230  10.680
57328W        W24111  30.182  43.330  14.861
57329W        W24112  43.095   5.683  14.967
57330W        W24113  24.794   3.009  14.680
57331W        W24114  14.086  16.137   3.379
57332W        W24115  34.567  27.180  14.311
57333W        W24116  27.073  20.715  11.060
57334W        W24117  28.885  20.072   1.950
57335W        W24118  32.194  10.025  12.648
57336W        W24119  40.007  22.955   4.300
57337W        W24120  14.407   5.389  14.379
57338W        W24121  38.499  31.187  14.737
57339W        W24122  38.075  32.161  13.335
57340W        W24123  20.746  22.654   1.730
57341W        W24124  14.816  30.416   0.272
57342W        W24125  36.499   1.740   1.444
57343W        W24126  21.248  13.320  11.080
57344W        W24127  24.803   1.968  12.913
57345W        W24128  25.992   6.380  11.482
57346W        W24129  34.996  19.319   4.520
57347W        W24130   3.680  15.139  14.442
57348W        W24131  24.532   3.874   2.604
57349W        W24132  12.275  26.032   0.721
57350W        W24133  36.053  41.517  10.475
57351W        W24134  40.504  14.315  13.367
57352W        W24135  37.912  41.176   4.019
57353W        W24136   4.816  12.451  11.591
57354W        W24137  14.948  28.098   1.404
57355W        W24138  14.931  43.049  10.533
57356W        W24139  41.203  19.949  13.044
57357W        W24140  24.669  43.429  14.860
57358W        W24141  44.484  37.545   3.611
57359W        W24142  44.022  44.796  11.472
57360W        W24143  43.000  41.545   1.729
57361W        W24144  28.351   8.156   0.521
57362W        W24145   0.333  13.118   3.991
57363W        W24146  16.435  13.326  12.031
57364W        W24147   0.988  42.940   2.183
57365W        W24148   9.353  29.962  11.825
57366W        W24149  28.033   9.477  12.077
57367W        W24150   3.118  17.230   3.858
57368W        W24151  17.753  29.074   4.577
57369W        W24152  42.477  15.528   1.951
57370W        W24153  32.338  30.208   2.895
57371W        W24154   4.933  39.417   0.842
57372W        W24155   9.483  30.982  14.051
57373W        W24156  12.333   7.365  11.461
57374W        W24157  38.804  11.196   4.140
57375W        W24158   1.850  31.606  13.594
57376W        W24159  30.637  29.543   3.418
57377W        W24160  30.005  31.092   0.398
57378W        W24161  44.305  39.362   0.851
57379W        W24162  35.320   8.652   2.123
57380W        W24163  14.307  39.787  14.779
57381W        W24164   5.324  41.600  10.727
57382W        W24165  37.301  43.507  14.063
57383W        W24166   1.000  33.791   2.272
57384W        W24167  37.026  44.990  13.587
57385W        W24168   3.778   3.534   4.323
57386W        W24169  25.092  20.014  13.050
57387W        W24170  40.799  30.233  11.172
57388W        W24171   1.673  25.509  14.417
57389W        W24172  28.039  10.476   0.882
57390W        W24173  28.559  18.771   0.643
57391W        W24174  19.731  37.379   1.922
57392W        W24175   9.358  16.122   0.360
57393W        W24176   3.439  13.131  14.349
57394W        W24177   4.132  24.037  12.019
57395W        W24178  32.143  41.588   0.528
57396W        W24179  18.857   5.897  10.603
57397W        W24180  26.493  13.655  13.980
57398W        W24181  44.853  36.447   1.369
57399W        W24182  11.693  10.809  10.947
57400W        W24183  13.676   3.499   0.414
57401W        W24184  44.789  37.814  14.592
57402W        W24185  21.962  28.100   4.913
57403W        W24186  35.845  15.706  12.572
57404W        W24187   9.745   5.223  13.970
57405W        W24188  33.621   4.224  14.911
57406W        W24189  30.870   3.934   0.646
57407W        W24190  41.535  33.230  11.597
57408W        W24191  31.472  11.838  12.215
57409W        W24192  26.889  38.430   4.579
57410W        W24193  43.891  30.537  11.398
57411W        W24194  44.741  27.544   0.089
57412W        W24195  34.118  31.902  12.106
57413W        W24196   7.542  23.412  14.801
57414W        W24197  26.487  20.612   1.378
57415W        W24198  27.176  29.508  11.733
57416W        W24199  38.607  29.124   0.736
57417W        W24200  25.932  24.180   2.269
57418W        W24201  18.907  37.872   3.769
57419W        W24202  38.585  42.764  13.022
57420W        W24203   7.051  26.757   4.966
57421W        W24204  19.575  36.471  14.273
57422W        W24205  31.375  42.587   0.829
57423W        W24206  42.973   6.294  12.505
57424W        W24207   9.274  40.536   4.517
57425W        W24208  19.781  21.116   3.663
57426W        W24209  18.600  28.394   4.850
57427W        W24210  31.731  22.085  14.826
57428W        W24211  14.454  37.862   0.572
57429W        W24212  22.793   7.469   1.879
57430W        W24213  24.811  25.661   0.822
57431W        W24214   2.720   8.108  11.172
57432W        W24215  39.931  24.182  12.365
57433W        W24216  33.184  14.019   3.620
57434W        W24217  26.966  43.476   1.329
57435W        W24218  32.604  35.948  13.459
57436W        W24219  19.061  19.009  14.975
57437W        W24220  17.481  14.332   3.651
57438W        W24221  11.391   9.449   3.781
57439W        W24222  13.317   8.419  10.278
57440W        W24223   8.631  15.239   2.264
57441W        W24224  34.368  24.050  13.872
57442W        W24225  16.165  30.705   3.833
57443W        W24226   0.250  33.115   1.356
57444W        W24227  31.492  21.627  14.770
57445W        W24228   3.992   3.936  10.561
57446W        W24229  13.604  31.643  13.868
57447W        W24230   6.286  44.541   3.727
57448W        W24231   1.295  10.161   3.687
57449W        W24232  41.010  28.567   0.496
57450W        W24233   5.151  23.031   0.558
57451W        W24234   7.820  10.890   2.874
57452W        W24235  27.158  28.822   0.233
57453W        W24236  22.461  26.014   0.776
57454W        W24237  12.553  24.635   0.830
57455W        W24238  36.889  40.793  11.154
57456W        W24239  37.310   8.485   4.092
57457W        W24240  42.302  34.391  11.863
57458W        W24241  38.532  14.886  14.918
57459W        W24242  26.070  10.335  13.828
57460W        W24243  26.236  33.366   2.706
57461W        W24244  36.175  41.700   2.284
57462W        W24245  11.949  44.330   3.913
57463W        W24246   7.700   0.827   1.923
57464W        W24247  35.569  37.887   0.479
57465W        W24248   0.408  39.098   2.449
57466W        W24249   4.277  14.401   2.652
57467W        W24250  38.012  24.018  12.844
57468W        W24251  19.551  33.436  11.172
57469W        W24252   4.825  32.940  14.553
57470W        W24253  41.975  36.625   5.040
57471W        W24254   6.369   4.929   3.230
57472W        W24255  22.707  34.229  12.106
57473W        W24256  30.804  25.410   3.196
57474W        W24257  22.613  20.660  10.287
57475W        W24258  27.575  15.595   4.157
57476W        W24259  19.076  18.287   5.162
57477W        W24260  22.945  30.302   1.224
57478W        W24261   9.901  12.390  14.873
57479W        W24262  23.165  25.765   5.258
57480W        W24263  21.653   0.650   4.048
57481W        W24264   1.441  33.404  11.365
57482W        W24265  13.167  19.417  12.400
57483W        W24266  35.036   3.014   3.771
57484W        W24267  14.767  30.124   1.411
57485W        W24268  44.106  15.895  14.402
57486W        W24269  12.741  27.487   3.249
57487W        W24270  38.551  32.581  11.113
57488W        W24271   5.627  43.163  14.433
57489W        W24272   8.288  37.556  14.453
57490W        W24273  16.751  17.985   1.669
57491W        W24274  44.258   4.267  13.860
57492W        W24275  33.999  33.137   3.736
57493W        W24276  42.755   0.987   0.547
57494W        W24277   1.136  27.192  13.232
57495W        W24278  26.595  30.579   1.906
57496W        W24279   2.286  13.197   5.256
57497W        W24280  18.664  19.165  11.189
57498W        W24281   1.492  42.414   4.748
57499W        W24282  34.087  11.579   4.738
57500W        W24283  21.969  30.580   1.402
57501W        W24284  28.507  44.744   3.841
57502W        W24285  43.143   0.024  13.209
57503W        W24286  11.331  37.614   0.410
57504W        W24287  42.215  39.924  10.643
57505W        W24288  24.414   3.187   1.515
57506W        W24289  42.693   7.004   4.619
57507W        W24290   8.497  20.732  12.039
57508W        W24291  20.747  34.993  11.123
57509W        W24292  39.215  42.071  10.694
57510W        W24293   1.309  33.321  10.857
57511W        W24294  18.522   9.790   2.758
57512W        W24295  10.627  44.399   2.857
57513W        W24296  40.540  41.369  11.630
57514W        W24297  42.527  29.175   1.283
57515W        W24298   7.947   3.777  14.991
57516W        W24299  18.808   8.234  12.862
57517W        W24300   2.935  26.444  11.091
57518W        W24301  12.092  18.652   1.491
57519W        W24302  24.578  30.562  11.884
57520W        W24303  35.576  27.059   0.758
57521W        W24304   8.185  25.588   0.535
57522W        W24305  19.200  17.041   2.701
57523W        W24306  42.552   9.765   1.314
57524W        W24307  33.033   9.655  14.312
57525W        W24308  41.152  39.034   1.959
57526W        W24309   7.320   9.377   3.152
57527W        W24310  32.956  23.022  12.509
57528W        W24311  15.359  15.657   4.621
57529W        W24312  29.219  15.282  14.936
57530W        W24313  38.788  43.341   2.471
57531W        W24314   1.074  27.181   4.592
57532W        W24315  25.505  14.096   0.877
57533W        W24316  17.003  13.685   2.246
57534W        W24317  38.950  31.667  12.933
57535W        W24318  41.262  33.628  11.385
57536W        W24319  17.629  11.713  10.760
57537W        W24320  25.704   8.437   3.525
57538W        W24321  25.174  41.500  13.413
57539W        W24322  27.740  30.568  14.457
57540W        W24323  21.317  42.375  12.930
57541W        W24324  37.549  42.883   4.327
57542W        W24325  13.674  43.794  11.430
57543W        W24326  20.432   4.329  14.791
57544W        W24327  20.996  27.136  10.980
57545W        W24328  20.358  13.282   4.009
57546W        W24329   0.945  16.839  11.459
57547W        W24330  35.908  26.755   2.797
57548W        W24331  20.123  28.564  14.451
57549W        W24332  23.265  16.857   2.731
57550W        W24333  23.324  31.080  12.076
57551W        W24334  16.180   6.324   4.969
57552W        W24335   3.810  10.881   2.874
57553W        W24336   9.163   5.028  12.891
57554W        W24337  24.011  19.483   1.363
57555W        W24338  19.141   7.679  10.499
57556W        W24339  27.097  34.792   3.741
57557W        W24340   6.365  14.577   1.472
57558W        W24341  18.148  30.108  11.326
57559W        W24342  44.363  41.488  12.956
57560W        W24343  33.354  30.452   5.233
57561W        W24344   6.833  13.351   0.356
57562W        W24345  39.445   5.372  12.910
57563W        W24346  30.391  10.600  11.502
57564W        W24347  20.289  27.105  14.361
57565W        W24348  36.844  22.914   4.345
57566W        W24349   0.530  14.138   5.128
57567W        W24350  21.274   2.240  11.114
57568W        W24351   3.854  18.236   1.867
57569W        W24352  42.448  38.290   4.306
57570W        W24353  18.840  41.450   1.265
57571W        W24354  12.892  39.785   2.106
57572W        W24355  44.566  15.695  14.411
57573W        W24356  19.111  19.793  11.677
57574W        W24357  11.272  10.595   4.750
57575W        W24358  31.868  31.143   0.970
57576W        W24359   9.194   4.809  12.419
57577W        W24360  43.819  30.083   2.711
57578W        W24361  31.177   2.748   0.697
57579W        W24362   9.597  43.060   2.148
57580W        W24363  20.635  25.531  14.781
57581W        W24364   3.799  11.275  10.698
57582W        W24365  40.892  12.236  10.695
57583W        W24366  17.139  21.552  10.638
57584W        W24367  28.455  26.959   3.633
57585W        W24368  29.825  16.296   1.629
57586W        W24369   2.839  25.053  12.168
57587W        W24370  22.746  13.099   0.423
57588W        W24371   5.809  34.992   2.398
57589W        W24372  15.138   8.350   0.356
57590W        W24373  33.407  14.223  14.907
57591W        W24374  42.241   1.486   2.758
57592W        W24375   1.322  30.293   3.104
57593W        W24376  20.649  30.425   0.385
57594W        W24377  26.437  25.095  12.849
57595W        W24378  13.156  43.726  11.597
57596W        W24379  31.246  43.881  14.409
57597W        W24380   5.841   4.560  11.192
57598W        W24381  16.127   5.705  10.745
57599W        W24382  36.944  39.458  12.374
57600W        W24383  41.523  25.397  14.727
57601W        W24384   6.863  17.246   2.338
57602W        W24385  17.530  32.143   0.477
57603W        W24386  36.451   3.197  14.283
57604W        W24387  14.534  38.625   3.267
57605W        W24388  38.434  34.552   2.590
57606W        W24389  43.235   7.669  14.971
57607W        W24390   6.723  10.145  12.724
57608W        W24391  41.908  24.701  10.711
57609W        W24392   6.938  22.600  14.699
57610W        W24393  27.075  21.162   3.973
57611W        W24394   8.273  18.996   2.344
57612W        W24395  44.984  15.139  14.071
57613W        W24396   7.116  35.638  14.391
57614W        W24397   1.457  14.699   3.720
57615W        W24398   2.785  43.433  13.528
57616W        W24399  22.795   0.739   2.609
57617W        W24400  16.768  44.208   9.772
57618W        W24401  40.807  36.109  14.846
57619W        W24402   6.199  42.421   0.188
57620W        W24403  37.425  16.040  12.412
57621W        W24404  26.000  32.667   0.829
57622W        W24405  40.757  25.763   0.373
57623W        W24406  42.810   2.696  10.631
57624W        W24407  36.666  21.765  10.176
57625W        W24408  30.942  37.576  11.763
57626W        W24409  19.570  39.075  14.979
57627W        W24410  14.124  35.121  12.511
57628W        W24411  23.464  29.356  11.173
57629W        W24412  15.902   1.505   4.398
57630W        W24413  33.841   8.173   0.858
57631W        W24414  32.932   3.140  12.377
57632W        W24415  23.222  10.960  14.887
57633W        W24416  43.910  43.503  10.474
57634W        W24417  25.726  31.038  13.936
57635W        W24418  17.637   7.854  10.564
57636W        W24419  27.707  21.097  11.663
57637W        W24420  33.589   9.902   2.915
57638W        W24421  20.235  25.164   2.299
57639W        W24422  23.219  40.486  10.204
57640W        W24423  33.818  12.195  11.447
57641W        W24424   7.856   3.588   1.660
57642W        W24425  22.031  25.093   5.421
57643W        W24426   9.347  43.524  13.970
57644W        W24427  24.267   3.854  14.933
57645W        W24428  23.943   7.317   0.379
57646W        W24429   5.692   9.994  11.896
57647W        W24430  13.125  22.326  12.036
57648W        W24431   3.479  29.550  14.151
57649W        W24432  20.290  20.951  12.535
57650W        W24433  34.060  34.340   0.864
57651W        W24434  43.958  19.258  11.598
57652W        W24435   0.743   1.785  13.599
57653W        W24436  20.185  12.885  12.553
57654W        W24437  42.498  40.950  12.581
57655W        W24438  27.119   1.462  13.423
57656W        W24439  38.109  34.406  14.316
57657W        W24440   9.757  16.068   3.751
57658W        W24441   6.116  40.563   1.505
57659W        W24442  42.867  28.871  11.951
57660W        W24443  18.563   4.424   0.612
57661W        W24444   1.225  20.081   1.182
57662W        W24445   8.380   9.912  10.948
57663W        W24446  39.641   3.390  11.566
57664W        W24447  29.759  36.023  13.069
57665W        W24448  32.218  15.668  12.847
57666W        W24449  37.432  42.223   2.435
57667W        W24450  17.339  19.066   2.860
57668W        W24451  30.914  26.402   2.928
57669W        W24452  13.778  17.617  10.360
57670W        W24453  11.619  44.983   0.430
57671W        W24454  21.661  13.755  11.718
57672W        W24455   0.362  34.405   2.784
57673W        W24456   1.812  17.292  12.234
57674W        W24457   7.562  37.497   4.918
57675W        W24458   8.186  21.561   3.382
57676W        W24459  22.287  31.113  11.155
57677W        W24460   4.404  32.508   4.119
57678W        W24461  25.591  10.538  14.005
57679W        W24462  20.079   7.755   4.665
57680W        W24463   4.210  18.607  12.575
57681W        W24464   2.668   7.212  11.069
57682W        W24465  31.296   7.125   1.677
57683W        W24466  17.034  28.183  11.013
57684W        W24467  36.556  14.621  14.929
57685W        W24468  32.914  17.977  12.104
57686W        W24469  18.086  32.556  12.142
57687W        W24470   8.716  40.050  12.347
57688W        W24471  25.469  21.651   1.400
57689W        W24472  42.062  38.947  14.879
57690W        W24473  36.650  10.647  13.814
57691W        W24474  12.352  39.952  13.438
57692W        W24475  38.867   9.220  11.475
57693W        W24476  22.604   8.628   2.292
57694W        W24477   0.450  19.904  10.629
57695W        W24478  36.659  16.617  12.354
57696W        W24479  22.080  23.889   0.920
57697W        W24480   9.747  41.484  11.930
57698W        W24481  12.822   9.381  13.475
57699W        W24482   1.983   9.287   0.425
57700W        W24483  12.319  26.523   1.343
57701W        W24484  20.220  18.321   4.611
57702W        W24485  41.146  22.950  12.373
57703W        W24486  37.296  11.254   4.216
57704W        W24487  20.126  27.904   2.182
57705W        W24488  33.992   0.801   1.169
57706W        W24489  37.412  21.839   3.690
57707W        W24490   3.887  12.332  13.140
57708W        W24491  26.463  30.237  10.725
57709W        W24492  39.441  21.462   0.441
57710W        W24493  43.346  15.648   1.411
57711W        W24494  33.990  38.068  12.058
57712W        W24495  40.449  41.903   2.131
57713W        W24496  11.240  20.728   0.461
57714W        W24497  20.073  39.343  11.833
57715W        W24498  29.510  35.599   0.905
57716W        W24499  31.405  16.099  11.956
57717W        W24500  30.394   7.356  11.991
57718W        W24501   3.275  13.822  14.459
57719W        W24502  16.104  33.283  13.042
57720W        W24503  18.991  21.584  11.555
57721W        W24504   5.299   2.476   1.236
57722W        W24505  24.627  15.685  14.086
57723W        W24506  30.827  21.188  13.964
57724W        W24507  24.940  42.989  14.927
57725W        W24508   2.954  13.622   3.813
57726W        W24509  40.366  26.978   4.074
57727W        W24510   4.789  30.233  13.413
57728W        W24511  11.234  40.264  12.435
57729W        W24512  32.092  31.929  12.110
57730W        W24513  34.549  14.746  10.772
57731W        W24514  24.617  25.894  12.136
57732W        W24515  12.842  31.523   4.603
57733W        W24516   6.771  17.284   0.864
57734W        W24517  16.278  36.590   2.254
57735W        W24518  20.849  29.402   1.757
57736W        W24519  14.726  26.901  10.930
57737W        W24520   9.139  43.430  11.483
57738W        W24521  27.637   0.428  12.948
57739W        W24522   9.282  18.520   3.544
57740W        W24523  26.233  24.926   1.213
57741W        W24524   1.926   3.881   1.816
57742W        W24525  25.715  23.786  12.359
57743W        W24526  24.530  43.825  10.665
57744W        W24527   1.187  29.609  13.073
57745W        W24528   9.238  44.535  11.877
57746W        W24529   5.356  25.215  13.167
57747W        W24530  24.719   6.242   0.948
57748W        W24531  18.197  29.529  12.171
57749W        W24532  21.652   8.288  13.929
57750W        W24533  35.797  44.845  13.839
57751W        W24534  29.999  38.269  11.213
57752W        W24535  40.942  41.250   3.545
57753W        W24536  39.862  31.907  14.050
57754W        W24537  17.235   9.108   0.846
57755W        W24538  40.300  35.080   3.676
57756W        W24539   1.852  13.564   3.089
57757W        W24540  17.344  13.696   1.791
57758W        W24541  16.191   9.823  11.929
57759W        W24542  10.004  27.406  11.064
57760W        W24543  12.620  23.131  10.887
57761W        W24544  30.938  16.550  14.998
57762W        W24545  36.273  29.265   2.856
57763W        W24546  26.962  30.577   2.261
57764W        W24547  14.901  39.959   4.046
57765W        W24548  14.596  38.787   0.562
57766W        W24549   1.776  30.696  11.973
57767W        W24550  33.074  15.339   0.682
57768W        W24551  43.005  11.924  13.036
57769W        W24552  24.125  27.895   0.923
57770W        W24553  38.106  28.118   4.504
57771W        W24554  39.436  37.063   2.940
57772W        W24555   9.591  34.516   2.658
57773W        W24556  33.861  44.057  11.575
57774W        W24557   5.450  30.371  14.614
57775W        W24558  28.456  35.122  13.366
57776W        W24559  24.876  41.951  11.084
57777W        W24560  40.946  37.775   1.168
57778W        W24561  18.087  44.898  10.865
57779W        W24562   0.647  15.278  13.354
57780W        W24563   1.184   1.432  11.530
57781W        W24564  28.658  15.663  10.072
57782W        W24565  20.209  33.673   1.141
57783W        W24566  13.612  27.186   3.599
57784W        W24567  13.379   0.749  14.828
57785W        W24568  15.306  15.049   2.785
57786W        W24569  25.429  14.214  12.576
57787W        W24570  16.258  30.351   3.409
57788W        W24571  30.790   4.339  13.892
57789W        W24572  10.649  26.349   1.188
57790W        W24573   6.966  20.543  12.068
57791W        W24574  11.708  23.218  11.967
57792W        W24575   5.267  23.074   3.624
57793W        W24576   1.460  43.431  14.894
57794W        W24577   1.399   5.793   3.141
57795W        W24578   5.876  38.324   2.598
57796W        W24579   7.115  42.990   3.280
57797W        W24580  35.006  42.069  11.281
57798W        W24581  43.757  10.232  10.249
57799W        W24582  33.024  41.217  10.627
57800W        W24583  18.179  23.613  11.174
57801W        W24584  13.732  18.043   3.616
57802W        W24585   9.098  18.599  14.815
57803W        W24586   4.381  15.842   1.937
57804W        W24587  32.996  33.452   0.218
57805W        W24588  10.068  11.204   9.957
57806W        W24589  25.425  29.681   1.184
57807W        W24590  13.752   8.738  14.068
57808W        W24591  40.519  21.654   2.350
57809W        W24592  44.710  32.531  13.508
57810W        W24593  36.416  31.097   4.690
57811W        W24594  19.226  30.419  13.890
57812W        W24595  10.200  38.904  10.426
57813W        W24596  26.653  16.576   1.919
57814W        W24597  10.383  11.709   4.606
57815W        W24598  36.546  15.364   4.104
57816W        W24599  12.147   9.273  13.987
57817W        W24600  21.658  37.161  12.509
57818W        W24601  13.122  38.743  12.729
57819W        W24602   9.040  29.311   4.069
57820W        W24603   1.927  18.549   4.035
57821W        W24604   0.940  35.105  11.138
57822W        W24605   1.420  31.142  13.091
57823W        W24606  44.578  25.066   2.733
57824W        W24607  20.006  13.959  11.150
57825W        W24608   5.478  36.400   1.357
57826W        W24609  42.810  12.811   2.638
57827W        W24610  34.883   7.284  12.571
57828W        W24611  38.057  19.138  12.069
57829W        W24612  26.884  17.955  13.852
57830W        W24613  18.582  17.103   1.820
57831W        W24614  22.253  30.591  10.636
57832W        W24615   2.915  12.282  10.535
57833W        W24616   0.389  40.413   2.408
57834W        W24617  27.622  20.960  14.094
57835W        W24618   4.120  29.488   3.633
57836W        W24619  33.890  19.100  11.563
57837W        W24620  25.644  20.165   3.177
57838W        W24621  37.749   7.376  14.101
57839W        W24622  35.137  16.299   2.271
57840W        W24623  19.653  44.870  14.859
57841W        W24624  23.810   8.627  11.044
57842W        W24625  33.979   8.746   1.490
57843W        W24626  23.557  37.378   3.755
57844W        W24627  17.243  10.626   0.928
57845W        W24628  43.728  40.635  11.970
57846W        W24629   7.982  20.577   3.176
57847W        W24630  24.587  20.120   4.703
57848W        W24631  39.690   7.572   4.204
57849W        W24632  22.415  19.847  12.333
57850W        W24633  11.117  24.558   0.946
57851W        W24634  10.264   5.850  11.091
57852W        W24635  44.745  37.032   3.280
57853W        W24636  34.372  23.195   0.376
57854W        W24637  31.595  13.217  11.008
57855W        W24638  27.998  11.544   4.011
57856W        W24639   6.379  11.367  12.662
57857W        W24640  34.967  42.340   1.360
57858W        W24641  11.182  32.060   3.677
57859W        W24642   7.908  16.381   2.624
57860W        W24643  21.274  41.089  13.548
57861W        W24644  41.489  41.343   0.916
57862W        W24645  40.526  42.207  12.872
57863W        W24646  19.248   1.916  14.477
57864W        W24647  34.972  41.035   1.625
57865W        W24648  14.930   3.361  13.432
57866W        W24649  19.729  11.643  11.430
57867W        W24650  26.137  12.327   3.377
57868W        W24651  20.031  21.553  13.871
57869W        W24652  34.943  33.910   3.636
57870W        W24653  33.648  42.912   2.820
57871W        W24654  30.625  42.809  11.104
57872W        W24655  44.465  37.601  12.963
57873W        W24656  36.776  17.650  14.271
57874W        W24657   6.642  41.698   1.872
57875W        W24658  42.035  31.963  13.327
57876W        W24659  30.688  36.683   3.594
57877W        W24660  39.772  29.046  11.142
57878W        W24661  23.115  18.529   0.724
57879W        W24662   9.517  14.568  12.552
57880W        W24663  29.627  16.953  11.982
57881W        W24664  10.722   5.672   3.328
57882W        W24665  43.887  26.258  14.403
57883W        W24666  22.652   1.975   0.391
57884W        W24667  11.912  43.536   4.153
57885W        W24668  35.513   8.520   0.381
57886W        W24669   8.666  29.673  13.866
57887W        W24670   9.145  40.200  11.570
57888W        W24671  15.688  15.759   0.737
57889W        W24672  19.209  18.003  14.907
57890W        W24673   1.237  29.851   1.394
57891W        W24674  12.767   0.524   1.655
57892W        W24675  33.963  44.253  14.427
57893W        W24676  23.361  29.998   1.182
57894W        W24677  38.604  24.223  13.812
57895W        W24678  22.812  21.718   0.546
57896W        W24679  44.763  18.684  10.732
57897W        W24680  35.499  17.591   3.530
57898W        W24681  41.986  38.374   0.728
57899W        W24682   2.424  28.631  14.064
57900W        W24683   8.782   3.513   4.643
57901W        W24684  15.719   0.941   1.423
57902W        W24685  16.969  42.886   5.048
57903W        W24686  33.892  30.691   1.196
57904W        W24687   3.851  24.858   5.018
57905W        W24688  22.292  15.574   3.033
57906W        W24689  11.534  25.462  14.069
57907W        W24690   9.410   0.005   3.276
57908W        W24691  23.022  13.183  12.450
57909W        W24692  34.891   0.002  10.905
57910W        W24693  23.673  17.200  12.870
57911W        W24694  30.367  30.844   3.404
57912W        W24695  43.814  29.841  11.089
57913W        W24696   4.869  36.866   1.877
57914W        W24697  36.767   3.143   2.769
57915W        W24698  28.990  12.028  13.228
57916W        W24699  21.662  41.806   1.031
57917W        W24700  26.077  43.983   3.301
57918W        W24701   5.228  43.613   4.304
57919W        W24702  15.856  11.618  12.528
57920W        W24703   8.639  17.057  14.387
57921W        W24704  26.165  15.305  11.206
57922W        W24705  24.379   3.186  14.398
57923W        W24706  14.243  37.065   3.640
57924W        W24707   2.826  24.747  13.365
57925W        W24708  15.277   9.688   0.019
57926W        W24709  29.469  44.722   2.560
57927W        W24710  10.741  20.816  12.250
57928W        W24711   2.712   4.474  12.989
57929W        W24712  35.024  35.106   2.650
57930W        W24713  15.109  25.117   4.224
57931W        W24714  15.566  24.555  11.981
57932W        W24715   3.722  36.395  14.522
57933W        W24716  33.573  17.314  13.372
57934W        W24717  37.061  30.144  10.653
57935W        W24718  33.616  30.566   2.304
57936W        W24719   7.301  30.000  13.845
57937W        W24720  22.605  16.584   1.456
57938W        W24721  30.332  38.555   4.546
57939W        W24722   2.409  34.816  13.327
57940W        W24723   6.815  15.879  13.068
57941W        W24724  15.579  44.222   4.151
57942W        W24725   6.932   0.893   3.241
57943W        W24726   8.160  41.704   1.349
57944W        W24727   7.835  27.391   3.388
57945W        W24728  25.583  15.242   2.887
57946W        W24729  20.273  43.025   1.035
57947W        W24730   5.438  12.804  12.187
57948W        W24731   2.178  24.044   4.626
57949W        W24732  35.129  27.033   4.733
57950W        W24733  15.161  32.121   1.898
57951W        W24734  15.814   2.936  10.552
57952W        W24735  34.843  23.871  14.050
57953W        W24736  31.629  34.999   2.364
57954W        W24737  35.207  40.795   3.758
57955W        W24738   5.953  14.679  14.934
57956W        W24739   8.835  21.722  10.758
57957W        W24740  40.436  24.686   2.106
57958W        W24741  15.496   1.639   4.115
57959W        W24742   4.239  26.680   3.720
57960W        W24743   8.197  13.236   4.544
57961W        W24744   9.257  27.409   3.146
57962W        W24745  41.841  44.337  12.123
57963W        W24746  39.205  20.289   2.333
57964W        W24747  42.802  12.668  11.929
57965W        W24748   2.692  26.140   2.176
57966W        W24749  35.544  10.790   5.856
57967W        W24750  36.863  27.465  11.145
57968W        W24751   9.635  22.225   0.652
57969W        W24752  16.842  10.947   0.775
57970W        W24753  16.702  25.000   4.972
57971W        W24754  34.655   8.417   4.526
57972W        W24755  36.461  20.657   4.957
57973W        W24756  22.507  18.181  13.078
57974W        W24757  15.706  19.773  14.816
57975W        W24758  31.167  27.648   0.216
57976W        W24759  20.893  32.598   4.584
57977W        W24760   9.190  11.829  11.882
57978W        W24761  19.695  12.220   2.531
57979W        W24762  10.259  11.666   0.403
57980W        W24763  27.253  19.570   4.181
57981W        W24764  36.817  42.570   1.937
57982W        W24765  26.289  23.610  11.096
57983W        W24766   1.498  22.223   4.421
57984W        W24767  25.966  10.292   2.422
57985W        W24768   4.345   0.313   1.722
57986W        W24769  10.257   4.727   0.477
57987W        W24770  33.915  24.248   9.746
57988W        W24771  41.476  42.243  14.474
57989W        W24772  39.882  34.512   4.035
57990W        W24773  36.438  19.476   1.284
57991W        W24774  20.952  12.229   3.122
57992W        W24775   0.587  20.449   3.617
57993W        W24776  11.225  15.224   4.525
57994W        W24777  42.623  21.728   2.249
57995W        W24778  39.606  11.287   3.207
57996W        W24779  11.612  14.349   3.650
57997W        W24780  37.098  20.583   1.678
57998W        W24781  21.612  23.301   4.094
57999W        W24782  26.588   1.941  14.022
58000W        W24783   7.147  34.592   2.177
58001W        W24784  20.902  40.552  10.763
58002W        W24785  42.477  22.756   3.615
58003W        W24786  37.866  38.912   3.732
58004W        W24787  25.710  28.392  12.010
58005W        W24788  28.021  36.158  12.531
58006W        W24789  38.170   6.729   4.123
58007W        W24790   7.576   2.842  12.936
58008W        W24791  43.913   1.938   1.919
58009W        W24792  36.457   5.742   2.083
58010W        W24793  39.344  34.442   0.808
58011W        W24794  38.020  40.007  13.784
58012W        W24795  22.568  22.712   0.316
58013W        W24796  42.922   7.212   1.131
58014W        W24797  36.269   8.158  13.086
58015W        W24798   8.101  26.879  10.568
58016W        W24799   7.501  15.254   3.344
58017W        W24800  38.211  32.060  14.913
58018W        W24801  20.116  26.786  12.831
58019W        W24802  21.220   9.151  14.764
58020W        W24803  26.483  17.508  10.648
58021W        W24804  10.706   3.439  14.679
58022W        W24805  43.697  19.558   2.649
58023W        W24806  12.701  26.085   0.412
58024W        W24807  41.283   5.820  14.349
58025W        W24808   5.688  15.340  14.367
58026W        W24809  20.218   0.416   4.159
58027W        W24810  26.919  34.098  10.921
58028W        W24811  30.557  39.276  11.983
58029W        W24812  11.288  13.773   4.289
58030W        W24813  28.135  25.022   2.922
58031W        W24814   0.275  28.426   3.693
58032W        W24815   9.835   9.836   3.555
58033W        W24816  19.755   4.220   0.468
58034W        W24817  19.681  34.063  14.411
58035W        W24818  27.582   7.164  11.217
58036W        W24819  43.861  44.030  10.563
58037W        W24820  20.523  40.977   2.715
58038W        W24821  38.520  34.784  13.899
58039W        W24822  20.476  16.077  12.543
58040W        W24823   5.185  15.636   3.209
58041W        W24824  34.386  10.675  11.544
58042W        W24825   8.659  40.476  13.020
58043W        W24826  30.047  43.346  12.273
58044W        W24827   6.658  12.605   1.268
58045W        W24828   2.195  16.451  11.979
58046W        W24829  27.019  15.808  10.972
58047W        W24830  25.878  15.703   5.224
58048W        W24831  27.927   5.881  14.959
58049W        W24832   4.393  22.117   3.124
58050W        W24833   4.510  15.894   4.343
58051W        W24834  38.409  28.965  11.015
58052W        W24835   8.175  31.317  10.823
58053W        W24836  25.058  42.537  12.993
58054W        W24837  32.078  43.597  10.668
58055W        W24838  44.264  31.969  11.966
58056W        W24839  27.883  42.558   3.746
58057W        W24840  37.536  10.869  13.115
58058W        W24841  13.527  11.024  11.248
58059W        W24842  11.780  17.166   0.824
58060W        W24843  13.708  21.584   2.543
58061W        W24844   0.622   2.750   3.735
58062W        W24845  25.006   6.977  14.753
58063W        W24846   6.446  16.362  14.967
58064W        W24847   0.519  17.117  11.503
58065W        W24848  35.080  32.017  11.991
58066W        W24849  42.919  14.837  13.453
58067W        W24850   6.682  15.893  11.447
58068W        W24851  11.211   2.844   4.433
58069W        W24852  23.251  12.767  13.405
58070W        W24853  38.129   7.190  14.378
58071W        W24854   9.313  26.642  12.443
58072W        W24855  44.179  18.801   1.768
58073W        W24856  27.871  22.813  10.803
58074W        W24857  38.398   3.274   4.698
58075W        W24858   5.421  25.071   3.901
58076W        W24859  38.278  23.204   1.225
58077W        W24860  25.006  20.412  10.794
58078W        W24861   3.379  37.043  12.473
58079W        W24862   9.625  23.060   0.044
58080W        W24863  11.183  31.510   0.308
58081W        W24864   4.405  25.025  11.921
58082W        W24865   4.365   8.933  11.956
58083W        W24866  30.443  35.415  12.532
58084W        W24867  15.791   8.276  10.662
58085W        W24868  38.073  31.196  14.349
58086W        W24869  16.235  23.661   1.587
58087W        W24870  25.738  26.937   0.511
58088W        W24871  18.223  37.792  14.333
58089W        W24872  34.884  43.928  11.497
58090W        W24873  34.361   4.378   5.286
58091W        W24874   0.482   2.849   2.154
58092W        W24875  15.828  19.454   1.882
58093W        W24876   6.913  43.716   3.717
58094W        W24877  31.194  11.022  12.128
58095W        W24878   6.760  37.399  10.666
58096W        W24879  10.078   4.865  11.231
58097W        W24880  30.975   5.865  11.077
58098W        W24881  39.805  19.236  14.794
58099W        W24882   3.361   8.510   2.818
58100W        W24883  20.033  43.936  12.551
58101W        W24884  28.747   7.717  11.487
58102W        W24885  19.632  34.947  12.490
58103W        W24886  37.834   3.477  11.198
58104W        W24887   7.305  11.976   3.769
58105W        W24888  25.835   0.759   2.850
58106W        W24889  33.146   4.317   4.591
58107W        W24890   5.067  35.190  12.073
58108W        W24891  14.359   2.934   0.777
58109W        W24892  22.132   7.850  13.099
58110W        W24893  16.760  11.388  14.433
58111W        W24894   1.649  33.539   0.465
58112W        W24895   4.262  42.542  12.962
58113W        W24896  28.698  30.410  11.395
58114W        W24897  11.012  30.140  11.069
58115W        W24898  17.059  10.671  14.038
58116W        W24899  14.700  21.735   3.363
58117W        W24900  24.485  16.153  10.653
58118W        W24901  31.421   2.161  10.623
58119W        W24902  15.890  37.987  14.401
58120W        W24903  44.432  17.224   0.395
58121W        W24904  15.876  34.526   4.669
58122W        W24905   4.482  24.199  12.406
58123W        W24906  37.793   9.578  14.121
58124W        W24907   9.135   2.397  13.231
58125W        W24908  17.306  33.832  11.087
58126W        W24909   0.782  44.273  14.409
58127W        W24910   3.834   0.992   2.236
58128W        W24911  33.720  30.933  14.074
58129W        W24912   7.854  28.500   1.780
58130W        W24913  39.793  11.599  14.685
58131W        W24914  32.894  37.311  14.422
58132W        W24915  19.591  23.038   3.738
58133W        W24916  39.744   4.165  11.121
58134W        W24917  14.732   1.647   1.207
58135W        W24918   6.335  10.791   1.900
58136W        W24919  36.813   5.330   0.453
58137W        W24920   2.191  32.937  12.030
58138W        W24921  42.565  37.846   2.277
58139W        W24922   9.361  26.212   4.778
58140W        W24923   0.804   2.899  10.476
58141W        W24924  29.761  13.338  13.581
58142W        W24925  15.727  20.430   1.850
58143W        W24926  24.160  43.809   3.295
58144W        W24927  17.279   3.366   1.946
58145W        W24928  40.423  39.321  12.911
58146W        W24929  40.143   7.875  11.070
58147W        W24930  26.797  30.380  14.908
58148W        W24931   6.371  25.180  12.706
58149W        W24932  28.928  17.577  13.961
58150W        W24933   2.071  31.370   1.725
58151W        W24934  14.678  39.575  14.387
58152W        W24935  44.450  34.835  11.940
58153W        W24936  18.247  31.644  12.663
58154W        W24937  37.973  34.923  10.709
58155W        W24938  29.970  27.610  13.397
58156W        W24939  10.144  29.416  11.007
58157W        W24940  31.377  24.898   4.099
58158W        W24941  44.516  32.054  12.400
58159W        W24942   9.231  22.985  11.404
58160W        W24943   6.333   4.284   0.868
58161W        W24944   8.480  17.716  11.178
58162W        W24945  19.693  17.017   3.889
58163W        W24946   8.398   4.741   0.247
58164W        W24947  41.351  13.648   0.806
58165W        W24948  31.182  13.186  12.758
58166W        W24949   1.169  28.015   1.033
58167W        W24950  32.872  40.311  11.620
58168W        W24951  40.217   9.181   0.325
58169W        W24952  30.661   5.719  11.589
58170W        W24953  42.557  39.874   1.899
58171W        W24954  44.116   0.886   2.665
58172W        W24955   9.368  33.816  13.549
58173W        W24956  31.187  43.237  13.948
58174W        W24957  12.037  19.819   4.662
58175W        W24958   2.833  13.845  11.331
58176W        W24959  19.735  37.005   0.021
58177W        W24960  15.331  32.616   0.782
58178W        W24961  16.463   9.535   0.586
58179W        W24962   5.511  17.763  10.932
58180W        W24963  10.169   3.800   0.449
58181W        W24964  20.042  35.102   2.650
58182W        W24965  22.133  18.577  14.265
58183W        W24966  28.200  10.178  10.037
58184W        W24967  27.949  26.525  12.323
58185W        W24968  27.084   4.165   2.374
58186W        W24969  33.483  19.213   2.361
58187W        W24970  40.253  40.696  12.773
58188W        W24971   8.176  41.400   4.927
58189W        W24972  36.463   6.711  14.552
58190W        W24973  22.652  34.391   1.403
58191W        W24974  40.402  38.743   2.770
58192W        W24975  38.653  22.463  14.337
58193W        W24976  23.621  37.427   2.344
58194W        W24977  40.731  34.479  12.864
58195W        W24978   5.672  28.045  10.549
58196W        W24979  36.548  23.735   2.672
58197W        W24980  13.220  42.472   0.185
58198W        W24981  29.884  13.590  11.151
58199W        W24982  25.184   7.696   4.504
58200W        W24983  27.244  37.679   3.297
58201W        W24984   8.776  35.049  14.913
58202W        W24985  16.217  32.194  10.183
58203W        W24986  37.107  25.655  11.603
58204W        W24987  27.999  40.207   3.171
58205W        W24988  34.534  37.116   3.624
58206W        W24989  23.077  32.363  12.562
58207W        W24990   2.861  32.917   2.751
58208W        W24991   2.327  26.794   1.283
58209W        W24992  43.207  15.130   2.291
58210W        W24993  19.845  32.079   4.272
58211W        W24994  22.214  37.014   3.469
58212W        W24995  26.705  33.590   1.443
58213W        W24996  29.199  35.196  12.880
58214W        W24997  30.210  23.915   4.079
58215W        W24998  28.422   6.920  13.391
58216W        W24999  21.424  29.694  14.194
58217W        W25000  31.517  22.102   0.318
58218W        W25001  29.905   7.867  14.046
58219W        W25002   8.809  12.188  11.165
58220W        W25003  24.764  42.412   1.880
58221W        W25004  31.410  34.607   1.690
58222W        W25005   1.863   1.802   0.761
58223W        W25006   0.612  19.812  11.111
58224W        W25007  30.423  23.683   2.986
58225W        W25008  40.816  34.009  13.477
58226W        W25009  23.953  23.943  10.729
58227W        W25010   9.817  40.230  14.535
58228W        W25011  41.404   3.644  13.459
58229W        W25012  39.117   3.373  11.539
58230W        W25013  43.280  32.576   0.761
58231W        W25014   6.108  35.062   4.018
58232W        W25015  34.675  32.396   0.305
58233W        W25016  34.085  42.796   4.135
58234W        W25017   1.380  37.975  10.420
58235W        W25018  44.254  11.777   2.389
58236W        W25019  36.266  13.397  11.587
58237W        W25020  37.068  16.646   3.948
58238W        W25021   6.113  42.866   2.026
58239W        W25022  42.745   8.179  11.230
58240W        W25023  14.663  25.117   2.199
58241W        W25024  33.066  33.899   4.202
58242W        W25025  23.297   0.249   5.051
58243W        W25026  39.426   0.349  11.677
58244W        W25027  37.967   5.492   0.813
58245W        W25028   6.463  43.452  12.851
58246W        W25029  18.773  15.116  12.180
58247W        W25030  40.252  21.018   1.291
58248W        W25031  35.900   7.393  11.630
58249W        W25032  34.650  34.955  11.353
58250W        W25033  18.758  20.089  14.562
58251W        W25034  19.699  21.754  13.213
58252W        W25035  42.903   0.074   0.393
58253W        W25036   9.182  41.300   3.693
58254W        W25037  25.237   1.821  13.488
58255W        W25038  10.743  20.018  12.611
58256W        W25039   0.940  36.387   3.110
58257W        W25040  29.676  15.080  11.089
58258W        W25041  37.965  24.011   2.603
58259W        W25042  11.098   5.275   1.798
58260W        W25043  41.238  25.657   3.348
58261W        W25044  38.306  40.842  13.311
58262W        W25045  29.493   7.676   2.299
58263W        W25046   0.895  20.999   0.881
58264W        W25047  16.340  12.382   4.244
58265W        W25048   7.305   8.772  10.798
58266W        W25049  28.011  22.482   3.512
58267W        W25050  13.690  29.728  13.557
58268W        W25051  12.238  43.985  13.297
58269W        W25052  21.862  37.308   4.858
58270W        W25053   0.014   6.127  13.047
58271W        W25054  32.134  13.331   3.590
58272W        W25055  43.437   7.176   0.710
58273W        W25056  30.147  31.182  10.609
58274W        W25057  11.856  23.280  13.425
58275W        W25058  14.785  24.491  10.730
58276W        W25059  18.109   9.788  12.854
58277W        W25060  23.516  29.270   2.676
58278W        W25061  21.119  29.734   3.277
58279W        W25062  20.701   5.147  14.930
58280W        W25063   3.458  10.267   3.140
58281W        W25064  35.668  34.560   1.973
58282W        W25065  27.576  37.540   4.018
58283W        W25066   6.176  23.923  13.930
58284W        W25067  14.907  38.916  10.699
58285W        W25068  19.299   7.598   4.184
58286W        W25069  23.160  24.947  12.311
58287W        W25070  13.832  32.229   0.439
58288W        W25071   0.980  32.193   1.763
58289W        W25072  32.675  15.251   1.036
58290W        W25073  34.606  27.450  10.771
58291W        W25074   6.427  34.074   4.653
58292W        W25075  43.799  37.529  12.397
58293W        W25076  28.427  32.174  11.989
58294W        W25077  41.885  31.566  13.616
58295W        W25078  33.102   1.867  11.307
58296W        W25079  28.543  41.095  12.777
58297W        W25080  40.701  19.711   0.311
58298W        W25081  14.569  17.622   2.424
58299W        W25082  29.122  27.494  13.951
58300W        W25083  10.872  43.078   2.751
58301W        W25084  41.267  20.229   0.847
58302W        W25085  28.540   7.658  14.268
58303W        W25086  13.772  18.170  13.678
58304W        W25087   9.156   7.689   2.200
58305W        W25088  21.412  18.536   1.780
58306W        W25089   3.398  17.127  10.991
58307W        W25090  34.464   4.508   1.188
58308W        W25091   5.664  12.328  10.689
58309W        W25092  35.800   1.100   0.901
58310W        W25093  29.533  30.902   0.257
58311W        W25094  34.168   4.154   4.453
58312W        W25095   4.760   6.020  12.597
58313W        W25096  24.565  41.514  11.604
58314W        W25097  17.949  13.045  13.066
58315W        W25098  11.914  43.830  14.153
58316W        W25099  32.738  24.157  14.815
58317W        W25100  14.421  33.660   2.003
58318W        W25101  40.932  31.164   4.122
58319W        W25102   8.891  11.416   2.254
58320W        W25103  25.891  10.124  11.121
58321W        W25104  32.927   1.275   1.374
58322W        W25105  42.328  22.157   0.382
58323W        W25106  25.601  12.624   3.843
58324W        W25107  18.654  34.891  12.532
58325W        W25108  26.717  21.904   2.073
58326W        W25109  19.580  41.796   3.285
58327W        W25110   0.581   2.367   3.388
58328W        W25111   5.179   2.831  10.842
58329W        W25112  35.923   0.896  11.443
58330W        W25113  17.112  43.540  12.557
58331W        W25114  41.090  16.510   0.564
58332W        W25115  18.763  27.227   4.318
58333W        W25116  41.292  17.339  10.702
58334W        W25117  13.194  19.876  11.095
58335W        W25118   1.723  42.869   1.183
58336W        W25119  42.656  25.629  11.276
58337W        W25120   0.941  12.569   1.945
58338W        W25121  18.097  31.063  11.071
58339W        W25122  26.378  38.367   1.229
58340W        W25123  25.026  32.471  11.871
58341W        W25124  33.302  21.197   1.818
58342W        W25125  13.647  28.630  14.033
58343W        W25126  19.297  16.696   4.156
58344W        W25127   9.066  27.040   2.380
58345W        W25128  10.118  40.542   2.735
58346W        W25129  23.713  28.541   4.312
58347W        W25130  24.567  20.424  11.137
58348W        W25131  28.626   8.349   1.374
58349W        W25132  12.814   7.314   4.544
58350W        W25133  26.664   8.470  12.394
58351W        W25134  39.328  40.581  12.573
58352W        W25135  40.281   9.143   5.424
58353W        W25136   7.532  36.938  11.290
58354W        W25137  42.364   5.321  14.814
58355W        W25138  39.515   9.845  10.352
58356W        W25139  34.090  36.924   4.546
58357W        W25140  27.258   9.273   0.968
58358W        W25141  26.991   2.313  13.958
58359W        W25142  16.213  29.710   2.624
58360W        W25143   0.842  26.206   2.633
58361W        W25144  11.303   7.893  10.741
58362W        W25145  16.734  40.789  12.348
58363W        W25146  11.822  44.472   2.177
58364W        W25147  18.750   2.452  13.927
58365W        W25148  25.208  31.126  13.914
58366W        W25149  34.613   1.466  13.409
58367W        W25150  22.623  20.708   0.855
58368W        W25151  29.028  19.614   4.914
58369W        W25152  34.017  36.151  12.532
58370W        W25153  34.061  28.704   4.371
58371W        W25154  35.563  27.917   0.222
58372W        W25155   0.025  37.492  14.263
58373W        W25156  39.756  23.421   2.231
58374W        W25157   9.549  10.681   1.885
58375W        W25158  18.961  32.397  13.553
58376W        W25159   5.826  15.760  14.101
58377W        W25160  22.923  16.696  14.402
58378W        W25161   3.304  30.596   3.682
58379W        W25162  40.330  24.584   1.585
58380W        W25163  44.596   7.154   2.255
58381W        W25164  18.241  43.908   4.159
58382W        W25165  37.825  13.222   0.469
58383W        W25166   8.397  25.114   0.499
58384W        W25167  36.658  17.280   4.073
58385W        W25168  28.568   7.871  11.017
58386W        W25169   4.231  37.622   4.383
58387W        W25170  27.754  19.000   1.835
58388W        W25171  27.911  34.047  11.927
58389W        W25172  19.572  11.555   0.792
58390W        W25173  41.790   8.680  13.499
58391W        W25174  32.069  26.883   0.662
58392W        W25175   9.421  42.963   3.581
58393W        W25176   1.099  33.840  12.019
58394W        W25177  13.481  42.772  10.776
58395W        W25178  35.888   8.270  13.403
58396W        W25179  31.430   1.395   3.844
58397W        W25180   4.741   7.689  14.980
58398W        W25181  19.283  44.021  12.055
58399W        W25182  22.263  11.620  10.970
58400W        W25183  18.300   3.993   3.402
58401W        W25184   9.739   4.736   0.322
58402W        W25185  34.429  10.298  10.556
58403W        W25186   6.027   6.272   3.601
58404W        W25187  39.374   2.843   0.777
58405W        W25188  31.568  14.018  12.332
58406W        W25189  16.591  34.620  11.968
58407W        W25190  40.863   5.918  12.014
58408W        W25191  27.530   0.593  10.418
58409W        W25192  35.117  22.163   1.456
58410W        W25193  23.515   2.204  14.042
58411W        W25194  31.413  22.717   3.400
58412W        W25195  22.705  36.886  14.554
58413W        W25196  22.094  25.078  10.595
58414W        W25197  43.687   6.688   4.480
58415W        W25198  18.180  18.806   0.672
58416W        W25199  10.126   2.380  12.395
58417W        W25200   5.020  11.302  13.793
58418W        W25201  41.992  13.818  11.666
58419W        W25202  38.897  31.827   0.375
58420W        W25203   8.884  28.343  12.050
58421W        W25204   1.725  22.724  12.538
58422W        W25205  35.475   5.938   2.342
58423W        W25206   7.733  23.291   5.092
58424W        W25207  28.104  35.825   3.218
58425W        W25208  40.941  40.497   0.551
58426W        W25209   3.987  16.532  14.403
58427W        W25210   2.324   9.446   1.353
58428W        W25211   3.210   6.819  10.724
58429W        W25212   2.465  39.031   1.297
58430W        W25213  30.218  32.457   3.241
58431W        W25214  38.101  22.721   0.980
58432W        W25215  17.381  42.890   2.325
58433W        W25216  17.755  29.587  13.432
58434W        W25217   2.789  27.861  11.019
58435W        W25218  26.818  15.603   1.939
58436W        W25219   2.366  44.218   1.167
58437W        W25220  26.761   6.148   4.184
58438W        W25221  16.272  31.558   2.293
58439W        W25222  19.330  35.645   3.819
58440W        W25223  27.724   5.442  11.779
58441W        W25224  19.023  33.011   3.775
58442W        W25225  13.362  24.193   3.165
58443W        W25226  18.024  31.072  14.277
58444W        W25227  38.141   5.615   9.928
58445W        W25228  39.876  30.627   2.626
58446W        W25229   4.880  28.764  11.212
58447W        W25230  26.965  43.993  11.179
58448W        W25231  23.726  30.263   2.898
58449W        W25232  33.991  28.205   2.578
58450W        W25233  13.544  10.727   2.449
58451W        W25234  44.794  35.909  14.119
58452W        W25235  41.323  22.155  12.173
58453W        W25236   0.752  11.864  14.422
58454W        W25237   9.372  32.724  11.029
58455W        W25238  27.450  18.503  14.901
58456W        W25239  34.997  30.419   3.682
58457W        W25240  11.738   0.587   3.209
58458W        W25241  15.640  22.090  13.529
58459W        W25242  28.469   7.226  14.569
58460W        W25243   1.367  17.578  12.122
58461W        W25244  26.934   5.210  13.381
58462W        W25245  21.935  31.922   4.063
58463W        W25246  37.752   5.917  10.291
58464W        W25247  12.721   6.013  14.184
58465W        W25248  42.955  37.433  14.512
58466W        W25249  20.298  10.780  14.086
58467W        W25250   6.117  30.380   3.316
58468W        W25251  17.429  22.776  13.305
58469W        W25252  15.187  39.416  10.314
58470W        W25253  15.614  44.667   4.484
58471W        W25254  28.047  29.243   3.150
58472W        W25255  17.627  20.707  10.679
58473W        W25256  17.036  38.766   4.096
58474W        W25257  16.635   9.033  12.051
58475W        W25258  25.207  37.311   1.575
58476W        W25259  32.526  33.495   1.486
58477W        W25260  17.579  25.420   1.790
58478W        W25261  13.422  11.313  10.433
58479W        W25262  22.247  37.459   0.760
58480W        W25263  28.943  31.041  10.963
58481W        W25264  44.844  43.966   1.948
58482W        W25265  18.629  37.319  11.910
58483W        W25266  40.573  27.878  11.579
58484W        W25267   4.940  40.090   2.515
58485W        W25268  29.332   5.398   4.899
58486W        W25269  28.742  28.949  11.033
58487W        W25270   4.942  23.120  12.548
58488W        W25271  40.839   8.308   4.173
58489W        W25272  13.602  34.496   9.993
58490W        W25273  35.838  13.718   1.027
58491W        W25274  42.006  20.972  13.294
58492W        W25275  25.629   1.840  14.206
58493W        W25276  22.068  11.623   3.383
58494W        W25277   7.768  22.187   4.500
58495W        W25278  28.011  36.095  10.743
58496W        W25279  42.403  19.816  11.852
58497W        W25280   4.291  10.827   2.665
58498W        W25281  37.321   8.237  13.027
58499W        W25282  24.882   4.305  13.946
58500W        W25283  33.179  25.416   1.290
58501W        W25284  26.110  24.169   3.703
58502W        W25285   7.660  10.245   1.664
58503W        W25286  30.997  30.880   2.883
58504W        W25287  42.854  18.807  12.646
58505W        W25288  15.117  21.390  14.764
58506W        W25289  13.616  24.723  11.101
58507W        W25290  13.201  26.583  12.889
58508W        W25291  15.103   2.414   1.651
58509W        W25292   2.582  13.331  14.634
58510W        W25293  33.483  12.400   0.295
58511W        W25294  37.596  39.993   1.186
58512W        W25295  28.938  37.589  10.695
58513W        W25296  42.919  30.457   4.091
58514W        W25297  17.108   2.214   1.762
58515W        W25298  15.315  12.365  10.764
58516W        W25299  33.035  26.684  10.526
58517W        W25300   2.261  39.090  13.098
58518W        W25301  13.333   7.704  11.540
58519W        W25302  40.543  12.873   0.956
58520W        W25303  15.355   8.703  11.276
58521W        W25304  28.722  19.040  14.826
58522W        W25305  35.666   7.682   2.255
58523W        W25306   7.182  19.194   4.373
58524W        W25307  44.368  19.288   0.457
58525W        W25308  10.298   0.228  14.054
58526W        W25309   9.818  17.672  10.418
58527W        W25310  31.465  44.282   0.905
58528W        W25311   7.466  15.730  11.913
58529W        W25312  16.198  29.158   2.545
58530W        W25313  29.605   0.430  12.887
58531W        W25314  15.758  12.579  11.134
58532W        W25315  36.972  10.639  11.010
58533W        W25316  21.164   1.865   0.823
58534W        W25317  14.199  23.790  11.076
58535W        W25318  38.804   2.907  11.526
58536W        W25319  19.692  20.088  11.642
58537W        W25320  24.224   6.411   3.259
58538W        W25321   6.906   4.872  10.693
58539W        W25322  38.962  15.250   0.298
58540W        W25323  27.471   8.680  11.803
58541W        W25324  30.093  38.621  14.896
58542W        W25325  39.882   6.756  11.898
58543W        W25326  26.194  41.486  14.067
58544W        W25327  16.132   9.888   4.551
58545W        W25328  44.729  31.739   4.109
58546W        W25329  13.673  44.324  12.530
58547W        W25330   5.129  39.505  12.498
58548W        W25331  30.989  17.259   3.162
58549W        W25332  24.679   0.357   4.550
58550W        W25333  27.380  25.410   0.356
58551W        W25334  31.614  28.169   2.803
58552W        W25335  36.413  17.883  13.427
58553W        W25336  31.529  43.918   3.283
58554W        W25337  17.253  30.366  11.159
58555W        W25338  39.033  32.586  10.931
58556W        W25339   5.761   0.456   0.187
58557W        W25340  10.209  34.046   2.267
58558W        W25341  10.753  15.308   1.018
58559W        W25342  10.223   9.356  12.111
58560W        W25343  26.681  38.611  14.919
58561W        W25344  24.513  12.084   1.247
58562W        W25345  37.952  22.259   0.735
58563W        W25346  25.748   8.297  13.855
58564W        W25347   1.069   6.725  10.689
58565W        W25348   0.467  16.341   2.084
58566W        W25349  33.713  28.698   0.375
58567W        W25350  22.730  35.138  11.693
58568W        W25351  11.918  42.266   3.989
58569W        W25352  40.491  17.278   5.094
58570W        W25353  20.016  31.900   0.748
58571W        W25354  36.112  19.382  12.444
58572W        W25355  28.400   0.912  13.052
58573W        W25356  23.601   8.671  10.571
58574W        W25357  10.340   2.857  11.542
58575W        W25358   3.368  27.234   4.213
58576W        W25359  24.589  37.555   3.589
58577W        W25360  26.698  26.015  12.478
58578W        W25361  24.140  27.126   4.674
58579W        W25362  34.467  27.593  11.514
58580W        W25363   5.897   7.225   0.276
58581W        W25364  36.442  39.462  14.940
58582W        W25365  22.253  34.002  12.072
58583W        W25366   7.689   9.327   4.051
58584W        W25367  44.334  20.282  14.086
58585W        W25368  29.208  18.442  11.983
58586W        W25369  42.015  34.553  14.959
58587W        W25370  14.383   8.837  12.845
58588W        W25371  13.693  21.911   0.099
58589W        W25372  44.468  28.748  10.897
58590W        W25373  30.910  30.938   3.398
58591W        W25374  40.477  41.035   1.160
58592W        W25375  41.161  23.494  14.365
58593W        W25376  12.978   8.724  10.060
58594W        W25377   3.362  27.024   2.241
58595W        W25378   8.599   5.912   3.521
58596W        W25379  44.228  30.989  11.969
58597W        W25380  18.304  17.982   2.640
58598W        W25381  21.211  17.115  10.530
58599W        W25382  21.424  10.794   1.798
58600W        W25383  32.352  16.292   3.677
58601W        W25384   2.921  20.261  11.533
58602W        W25385   3.765  31.667   2.871
58603W        W25386  26.087  28.033   1.731
58604W        W25387   4.253   8.842  14.777
58605W        W25388  11.811   7.953   3.193
58606W        W25389  26.075  12.480  12.549
58607W        W25390  37.022   0.299   3.563
58608W        W25391  39.925  39.491   3.641
58609W        W25392  36.102  11.575   2.208
58610W        W25393  24.992  10.285   4.609
58611W        W25394  20.172  42.020  13.475
58612W        W25395  31.885  10.854   1.311
58613W        W25396   4.779  34.102   2.240
58614W        W25397  15.061  23.154   2.762
58615W        W25398   8.937  42.593  12.530
58616W        W25399  40.023  37.922   0.253
58617W        W25400  31.546  41.962   1.603
58618W        W25401   6.823  27.745  11.620
58619W        W25402  12.525  38.685   1.627
58620W        W25403   1.911   2.237   1.709
58621W        W25404   1.533  22.171  14.813
58622W        W25405   5.977  24.955   0.910
58623W        W25406  22.483  29.273   4.391
58624W        W25407  33.572   3.988   0.975
58625W        W25408  12.949  40.959   2.140
58626W        W25409  27.595  31.806   3.657
58627W        W25410  12.228  28.583  10.766
58628W        W25411  32.325  15.786   3.288
58629W        W25412  15.243  25.165   0.882
58630W        W25413   7.839  36.071  13.885
58631W        W25414  24.018   5.346   0.658
58632W        W25415  16.746  42.238   3.237
58633W        W25416  26.388  30.213   4.843
58634W        W25417  15.752  31.492   1.689
58635W        W25418  13.622  27.659  11.127
58636W        W25419  43.095  37.451   1.709
58637W        W25420  13.799   7.488  12.764
58638W        W25421  13.890   3.021   1.932
58639W        W25422  13.573  44.684  14.298
58640W        W25423  23.279  14.167   1.908
58641W        W25424   1.790   8.906  10.799
58642W        W25425  15.989   8.743  13.705
58643W        W25426   8.216  40.364  14.906
58644W        W25427   4.772  32.587  13.177
58645W        W25428  40.113   0.543   5.163
58646W        W25429  24.499  32.257   1.162
58647W        W25430  16.620   4.894  11.748
58648W        W25431  27.383   3.279   0.795
58649W        W25432  19.377  21.029  11.182
58650W        W25433  13.611   8.709  12.397
58651W        W25434  32.047  13.559   0.735
58652W        W25435   8.853  20.062  13.080
58653W        W25436  24.560   9.912  14.868
58654W        W25437  44.284  32.102  14.312
58655W        W25438  38.479  14.210   2.629
58656W        W25439   2.897   7.359  14.921
58657W        W25440  10.814  10.782   0.471
58658W        W25441  32.116  21.411   1.872
58659W        W25442  23.103  14.323   3.333
58660W        W25443  31.179  26.404   3.364
58661W        W25444  24.293  19.604  11.498
58662W        W25445  26.826  41.502   5.555
58663W        W25446  41.506  25.331  14.219
58664W        W25447   0.878  21.410   3.925
58665W        W25448   9.724   3.414  14.922
58666W        W25449  17.493  41.754  12.542
58667W        W25450  17.228  38.809   2.750
58668W        W25451  43.151  36.117   3.171
58669W        W25452  23.144  33.661   4.893
58670W        W25453  15.814  34.764  13.035
58671W        W25454  17.166  24.720  13.849
58672W        W25455  31.717  24.519  13.024
58673W        W25456  34.216  17.311  14.078
58674W        W25457   0.922  16.104  13.867
58675W        W25458  29.079  44.721  11.126
58676W        W25459  24.305  18.351  11.563
58677W        W25460  32.615  37.093  12.960
58678W        W25461  43.220  29.060  11.167
58679W        W25462   7.458  13.158   1.632
58680W        W25463  15.231  31.875   1.429
58681W        W25464  14.381  24.251  11.183
58682W        W25465  17.283   6.223  12.951
58683W        W25466  17.754  40.423  10.744
58684W        W25467  19.986  28.145  12.246
58685W        W25468  31.115  13.865  11.541
58686W        W25469  20.253   0.336   1.300
58687W        W25470  11.571  11.682  13.926
58688W        W25471  13.107  39.065  11.732
58689W        W25472  29.419  44.836   4.362
58690W        W25473   8.636  39.198   2.129
58691W        W25474  11.862  15.302   2.728
58692W        W25475  33.284  43.400  12.017
58693W        W25476  43.991  12.770   5.009
58694W        W25477  41.067  12.047   4.045
58695W        W25478  32.103  22.589  14.413
58696W        W25479  18.674  16.112   1.252
58697W        W25480   3.366   2.185  10.734
58698W        W25481  38.078  28.915  11.533
58699W        W25482  42.343  40.113  11.094
58700W        W25483  38.621  37.912  10.932
58701W        W25484   5.704  36.120   0.380
58702W        W25485  35.588  34.178   1.273
58703W        W25486   4.786  24.021  14.045
58704W        W25487   1.373   1.204   4.649
58705W        W25488  11.699  23.534   1.959
58706W        W25489  11.113   2.283  11.516
58707W        W25490  20.991  33.658  13.924
58708W        W25491  23.659  33.032   4.925
58709W        W25492  10.133  42.210   4.715
58710W        W25493  39.800  40.745  12.581
58711W        W25494  25.223  10.817   0.575
58712W        W25495  12.537  41.054  10.813
58713W        W25496  24.701  35.063  11.167
58714W        W25497   8.301   2.201  11.149
58715W        W25498  24.049  39.371   2.270
58716W        W25499   8.151  32.596  13.147
58717W        W25500  24.102  36.215  11.186
58718W        W25501   1.269  15.175  11.914
58719W        W25502  41.974   3.528   9.928
58720W        W25503   2.472   3.980   0.029
58721W        W25504  20.106  38.294   0.027
58722W        W25505   2.492   3.183   0.338
58723W        W25506  15.309   6.794   1.938
58724W        W25507  12.038   7.223  12.366
58725W        W25508  21.068  13.661   3.225
58726W        W25509  31.935  38.834  11.028
58727W        W25510  36.358  26.767  10.329
58728W        W25511  42.010  38.513  12.437
58729W        W25512   0.939  28.968  12.940
58730W        W25513   6.244  15.150  13.511
58731W        W25514  16.478  22.009   4.627
58732W        W25515  27.547  27.758  11.588
58733W        W25516   0.453  34.866   1.297
58734W        W25517   8.647  24.934   0.927
58735W        W25518  24.592  31.024   3.783
58736W        W25519  39.449  19.714  13.877
58737W        W25520   5.678  10.951  11.584
58738W        W25521  27.648  20.520   4.640
58739W        W25522  13.463  41.014  14.373
58740W        W25523   7.126  20.004  11.550
58741W        W25524  18.007  24.960   4.557
58742W        W25525   2.101  19.793  12.553
58743W        W25526  13.715   6.039  13.394
58744W        W25527  34.483  13.327  11.760
58745W        W25528  44.384  37.298   1.258
58746W        W25529  16.869  18.083  13.442
58747W        W25530  12.357  19.040  11.990
58748W        W25531   1.044  18.720  11.458
58749W        W25532  11.714  16.010   0.333
58750W        W25533  16.867  34.957  14.410
58751W        W25534   5.395  21.092   3.939
58752W        W25535  29.106  31.143  13.552
58753W        W25536  14.687   4.984  11.538
58754W        W25537  21.064  38.767   3.709
58755W        W25538  17.690  33.348  13.781
58756W        W25539  31.144  24.174  12.491
58757W        W25540  35.932  20.619   4.761
58758W        W25541   6.628  41.909  13.555
58759W        W25542  13.338  32.853   0.879
58760W        W25543  16.000   1.320  14.657
58761W        W25544  10.987  19.261   2.274
58762W        W25545   5.424  37.580  11.007
58763W        W25546   2.700   3.046  12.058
58764W        W25547  42.197  13.149   2.222
58765W        W25548   7.590  44.718   4.863
58766W        W25549  17.436  28.724   3.210
58767W        W25550   2.791   3.977   1.397
58768W        W25551  25.339  43.864   0.823
58769W        W25552  37.350  23.205   0.738
58770W        W25553  40.829  23.636   1.764
58771W        W25554  13.805  26.937  14.865
58772W        W25555  26.880   8.610   1.419
58773W        W25556  28.927  36.174   2.195
58774W        W25557  15.848  43.031   0.423
58775W        W25558  28.105  37.849  13.967
58776W        W25559  24.128  35.924   1.981
58777W        W25560  15.052   2.490  11.533
58778W        W25561  36.134  36.346   3.792
58779W        W25562  22.246  21.703  13.375
58780W        W25563  31.521  15.048  14.377
58781W        W25564  10.859  29.643   2.199
58782W        W25565  44.939  36.579   2.342
58783W        W25566  14.434  44.996  11.590
58784W        W25567  39.505   4.214   4.536
58785W        W25568  35.378  39.517  10.671
58786W        W25569  10.475  41.065   0.289
58787W        W25570   0.228  30.118  14.472
58788W        W25571  10.160  25.327   5.179
58789W        W25572  11.768  42.601  10.967
58790W        W25573  37.002  24.112   2.345
58791W        W25574   1.312  23.112   2.692
58792W        W25575   1.325   5.633  14.846
58793W        W25576  31.991  35.257   4.629
58794W        W25577   9.195  29.589   3.161
58795W        W25578  20.131   6.268   0.145
58796W        W25579  35.990  10.586  13.039
58797W        W25580  30.592   9.209   4.557
58798W        W25581  19.031   8.791  14.922
58799W        W25582  31.957  17.270  12.375
58800W        W25583  30.976  23.133  13.863
58801W        W25584  26.146  26.423   3.391
58802W        W25585  24.400  32.758  11.137
58803W        W25586  23.555  35.436   2.832
58804W        W25587  32.144  42.941  14.914
58805W        W25588  25.518  11.907  14.414
58806W        W25589   5.689   0.823  11.562
58807W        W25590  19.547   5.491   0.657
58808W        W25591  30.563  28.249  14.583
58809W        W25592  37.996  14.039  13.602
58810W        W25593   0.755  11.670  14.902
58811W        W25594  22.739  12.247  13.876
58812W        W25595  13.846  20.793   0.818
58813W        W25596  12.900  20.688  14.197
58814W        W25597  17.784  35.884   4.080
58815W        W25598  18.241  35.482  11.119
58816W        W25599  37.319   0.851  11.393
58817W        W25600  20.255  25.110   0.476
58818W        W25601  13.351  18.725   4.458
58819W        W25602  26.938  19.703   1.170
58820W        W25603  38.863  23.495   2.174
58821W        W25604  16.801   1.930  11.704
58822W        W25605  20.143   1.316   4.057
58823W        W25606   4.334  31.562   3.651
58824W        W25607  29.864   2.271  14.005
58825W        W25608  29.879  16.178  13.353
58826W        W25609  37.551   1.479   0.395
58827W        W25610  22.383  41.869   0.540
58828W        W25611  27.403  11.774  11.012
58829W        W25612  14.260   7.513   2.193
58830W        W25613  39.604  32.350  14.530
58831W        W25614  27.111  20.228  13.337
58832W        W25615  18.770  22.562  10.714
58833W        W25616  22.414   3.549   1.316
58834W        W25617  39.448  17.524   2.964
58835W        W25618  11.956  42.284   3.074
58836W        W25619  43.959   1.997  11.885
58837W        W25620   3.659   3.103   1.867
58838W        W25621   6.224  25.538   4.705
58839W        W25622  14.324   6.246  14.323
58840W        W25623  22.139  29.444  13.297
58841W        W25624   3.036  13.332   1.103
58842W        W25625  25.738  42.485   1.576
58843W        W25626  32.985   0.701   1.229
58844W        W25627  38.102  36.273  12.964
58845W        W25628  33.504  10.709  13.774
58846W        W25629  26.650  25.219   1.226
58847W        W25630  10.381  40.975   2.587
58848W        W25631  15.117  20.024  10.626
58849W        W25632  16.067  36.640   0.740
58850W        W25633  25.236   5.669  13.904
58851W        W25634  27.162  19.460   2.210
58852W        W25635  44.357   7.185   3.585
58853W        W25636  30.118  31.197  14.337
58854W        W25637  30.271   2.164   1.268
58855W        W25638  14.602  36.104  14.347
58856W        W25639   2.214  17.740  10.617
58857W        W25640  22.573  11.749  12.139
58858W        W25641  42.695  44.032   4.325
58859W        W25642  39.059  39.413  13.428
58860W        W25643   9.343  17.655   4.425
58861W        W25644  15.593  39.273   2.728
58862W        W25645  39.772   9.692   3.330
58863W        W25646  34.894  16.179  12.833
58864W        W25647  25.574  44.771  13.461
58865W        W25648  34.853   3.244   0.971
58866W        W25649  36.345  33.491  12.526
58867W        W25650   1.238  24.919   3.188
58868W        W25651  35.057   8.231  10.595
58869W        W25652  10.385  21.846  13.413
58870W        W25653  34.090   4.380  11.233
58871W        W25654  40.924  11.597  12.926
58872W        W25655  14.089  35.139  13.426
58873W        W25656  22.657  33.977   3.713
58874W        W25657   5.422  16.857  10.783
58875W        W25658  15.274  17.006  12.352
58876W        W25659   4.377  40.923  11.140
58877W        W25660  18.976  24.763  12.085
58878W        W25661   2.970  31.189   3.131
58879W        W25662  31.575  15.367  13.946
58880W        W25663  25.112   5.928   0.026
58881W        W25664  41.932  10.347   3.390
58882W        W25665  31.056   1.687   0.360
58883W        W25666  36.517  40.820   1.424
58884W        W25667   5.710   9.501  12.573
58885W        W25668   2.227  35.442  14.283
58886W        W25669  42.284  26.123  12.398
58887W        W25670  16.622  24.215  12.707
58888W        W25671   8.472  17.854  10.686
58889W        W25672  24.544  34.401   3.650
58890W        W25673  30.115  31.718  14.345
58891W        W25674  37.345  43.281   3.540
58892W        W25675  16.094  34.777  14.268
58893W        W25676  11.594  29.006  13.436
58894W        W25677  42.704   5.348   2.826
58895W        W25678  44.122  20.490  12.859
58896W        W25679  26.745  34.934   0.432
58897W        W25680  19.024  20.516   4.656
58898W        W25681  10.246  44.265   3.195
58899W        W25682  38.941  27.600   3.772
58900W        W25683  36.367  25.206  11.992
58901W        W25684  29.654  40.332  13.592
58902W        W25685  32.619  31.902  12.073
58903W        W25686  23.588  14.547   1.685
58904W        W25687   5.496   5.102   4.168
58905W        W25688  19.210  35.393   2.918
58906W        W25689  19.145  14.655  14.069
58907W        W25690  18.389  37.836  10.755
58908W        W25691  10.722  17.813   4.476
58909W        W25692   0.576  34.818  13.371
58910W        W25693  41.246  13.368   2.191
58911W        W25694  17.294  42.349  11.118
58912W        W25695  34.621  36.586   0.570
58913W        W25696  27.976  17.135  11.164
58914W        W25697  11.554  26.449   4.087
58915W        W25698  28.734   1.413   2.674
58916W        W25699  22.722  40.335  12.631
58917W        W25700  24.289  28.433   0.703
58918W        W25701   2.815  11.411  10.431
58919W        W25702  13.652  14.151  13.479
58920W        W25703  10.649  43.931  10.377
58921W        W25704  22.954   0.237   4.203
58922W        W25705  12.986  14.042   0.906
58923W        W25706  23.644  21.073  12.309
58924W        W25707  38.792  41.102   5.035
58925W        W25708  32.616  26.736   1.424
58926W        W25709   5.720  26.332   3.743
58927W        W25710  11.355   9.919   3.624
58928W        W25711  18.599  42.828   2.633
58929W        W25712   5.969  22.234   4.632
58930W        W25713  41.145  14.873  11.538
58931W        W25714   6.497  20.517  12.837
58932W        W25715  12.273   9.363  13.478
58933W        W25716   3.994   3.496   1.724
58934W        W25717  18.737  33.654   1.800
58935W        W25718   4.742   9.158   3.648
58936W        W25719  40.868  20.213   1.457
58937W        W25720  17.739  43.524  11.505
58938W        W25721  23.939  29.177   2.357
58939W        W25722  16.545  28.690  11.216
58940W        W25723  36.979  25.624   2.080
58941W        W25724   6.803  15.791   2.221
58942W        W25725  43.117  44.701  11.646
58943W        W25726   2.536  15.349   0.768
58944W        W25727  14.955  42.406   1.343
58945W        W25728  44.302  14.264   0.607
58946W        W25729  18.243  31.050   3.216
58947W        W25730   1.778  24.106  11.669
58948W        W25731  23.254  36.778  11.799
58949W        W25732   8.596  15.571   1.752
58950W        W25733  41.026   5.817   4.500
58951W        W25734  44.944   7.830  13.814
58952W        W25735  11.761   3.200  12.455
58953W        W25736  35.044  20.672   1.284
58954W        W25737  24.450  12.007  12.502
58955W        W25738  19.294  30.908   1.916
58956W        W25739  16.127   3.646  11.662
58957W        W25740  10.459   5.860   1.921
58958W        W25741   1.293  13.197  11.058
58959W        W25742  37.092  42.490  14.351
58960W        W25743  20.081  40.486  10.815
58961W        W25744  13.406  22.602  12.863
58962W        W25745   9.238  13.617   4.505
58963W        W25746  26.016  10.872  13.078
58964W        W25747   7.631   0.468   0.661
58965W        W25748  40.225  41.625  11.940
58966W        W25749   2.467  14.715   4.281
58967W        W25750   5.348   5.404  11.464
58968W        W25751  20.569  42.085   4.186
58969W        W25752  42.054  16.309   1.751
58970W        W25753  30.143  30.691  14.340
58971W        W25754  21.505  18.053  14.678
58972W        W25755   0.812  29.873   3.378
58973W        W25756  38.445   9.310  14.835
58974W        W25757  39.995   6.006  13.834
58975W        W25758  14.094  43.014  12.097
58976W        W25759  40.034  23.849   4.232
58977W        W25760  42.071  14.096  12.107
58978W        W25761  19.239  16.525   2.828
58979W        W25762   0.949  26.354   4.870
58980W        W25763  19.292   7.411  12.534
58981W        W25764  27.130  17.178  14.838
58982W        W25765  24.488  25.871   4.076
58983W        W25766  14.336  25.506  11.932
58984W        W25767  44.451  11.705  13.879
58985W        W25768  13.844  24.048   1.775
58986W        W25769   2.376  29.200   2.234
58987W        W25770  30.958  25.533   2.703
58988W        W25771  26.640   6.257   1.608
58989W        W25772  17.716  14.759   3.216
58990W        W25773  19.191   1.923  10.731
58991W        W25774   9.179  30.536   1.623
58992W        W25775   9.826  15.094   1.441
58993W        W25776   0.929  26.460   0.363
58994W        W25777  12.115  32.198  11.248
58995W        W25778  40.850  14.641  14.407
58996W        W25779  30.952  22.471   4.713
58997W        W25780  31.666  17.562   2.461
58998W        W25781  16.777  28.683   0.469
58999W        W25782   0.007  17.792   0.002
59000W        W25783  30.345  27.591  12.390
59001W        W25784  41.956   5.173  14.517
59002W        W25785  19.198   6.798  10.923
59003W        W25786  14.061  26.276   0.926
59004W        W25787  27.551   2.075   1.869
59005W        W25788  19.285   4.960  14.342
59006W        W25789  22.388   6.910   3.711
59007W        W25790   0.049   0.016  12.041
59008W        W25791  40.560  27.501  13.411
59009W        W25792  13.096  24.736  11.080
59010W        W25793  22.188   2.387   1.415
59011W        W25794  40.555  44.484  12.140
59012W        W25795  31.400   2.491  13.452
59013W        W25796  21.014   6.420  13.508
59014W        W25797  44.382   6.797  14.506
59015W        W25798  26.949   9.427  13.436
59016W        W25799  23.969   1.460   0.936
59017W        W25800  15.697   0.097   3.111
59018W        W25801  33.379  22.278   4.966
59019W        W25802  10.850  11.446  11.550
59020W        W25803  23.639  10.687   4.240
59021W        W25804  18.222  24.651   2.741
59022W        W25805  16.518  25.622  14.966
59023W        W25806  33.884  13.674  12.771
59024W        W25807  27.732   7.282   0.852
59025W        W25808  20.140  32.549   0.528
59026W        W25809  44.955  38.552  10.978
59027W        W25810  12.344  22.515  10.940
59028W        W25811   1.900   4.887   1.945
59029W        W25812  14.264  34.457  11.069
59030W        W25813   7.134  14.181  10.521
59031W        W25814  11.239  36.626  11.498
59032W        W25815   1.116  20.497   3.719
59033W        W25816   0.418  32.501  12.984
59034W        W25817  10.262  34.483  13.456
59035W        W25818  30.685  34.436   3.461
59036W        W25819  15.464  31.937   2.407
59037W        W25820  37.443  11.197   2.228
59038W        W25821  28.605  28.146   4.483
59039W        W25822   0.912  20.826  10.029
59040W        W25823  19.408  43.225  13.896
59041W        W25824  11.364   7.107  13.545
59042W        W25825  24.106  29.280  13.673
59043W        W25826  12.069  37.477  14.042
59044W        W25827   7.777   3.302  12.859
59045W        W25828   5.831   2.009  14.920
59046W        W25829  16.326  21.021   2.701
59047W        W25830  12.507   6.564   4.974
59048W        W25831  42.722  36.359  12.026
59049W        W25832  13.261  41.304   1.274
59050W        W25833  43.131  38.262  11.153
59051W        W25834  33.197  13.924   2.806
59052W        W25835  20.602  38.809   0.395
59053W        W25836   7.222  32.485   0.417
59054W        W25837  20.174   0.318  11.529
59055W        W25838   1.919  33.323   1.427
59056W        W25839  35.295  26.016   3.316
59057W        W25840   5.628  11.161   1.232
59058W        W25841  31.952  24.673   1.900
59059W        W25842  41.246  44.700  12.744
59060W        W25843  12.127  37.511  14.580
59061W        W25844  21.140   6.288   1.183
59062W        W25845  17.644  32.917  12.103
59063W        W25846  43.819  15.793  10.835
59064W        W25847  16.314  13.748  14.081
59065W        W25848  10.196  44.279   1.374
59066W        W25849  43.430  22.449   2.731
59067W        W25850  27.285  13.960   5.023
59068W        W25851  40.779  24.012   4.598
59069W        W25852  39.886  44.535   1.471
59070W        W25853  29.644  31.422   3.339
59071W        W25854  39.818   3.636   1.347
59072W        W25855   7.647  20.080   1.629
59073W        W25856  18.006  39.841   4.175
59074W        W25857  20.925  39.466   3.319
59075W        W25858  14.551   7.851  14.441
59076W        W25859   7.060  29.784  11.387
59077W        W25860  12.465   4.151  11.979
59078W        W25861  15.168  26.033  14.955
59079W        W25862  40.070   2.785  12.274
59080W        W25863  41.684  22.799  12.397
59081W        W25864  21.360  22.416   3.972
59082W        W25865  41.450  15.726  11.688
59083W        W25866  25.237   9.221   4.506
59084W        W25867  35.572  29.991  11.110
59085W        W25868  42.211  26.636  12.423
59086W        W25869  39.983  15.362   3.897
59087W        W25870  31.495   2.325   0.860
59088W        W25871  16.834  18.353   1.319
59089W        W25872  10.664  22.523   1.170
59090W        W25873  32.023  26.746  11.057
59091W        W25874  30.376  25.025   0.476
59092W        W25875  20.269  23.753   4.587
59093W        W25876  38.422  36.309   3.193
59094W        W25877  20.456  21.590  10.864
59095W        W25878  19.968  40.409   2.367
59096W        W25879   2.765  43.424   3.300
59097W        W25880  18.094   2.446   1.373
59098W        W25881  19.202  27.983  12.062
59099W        W25882   1.423   3.339   2.176
59100W        W25883  17.779  43.537   3.667
59101W        W25884   4.511  24.255   1.822
59102W        W25885   3.914  35.451  10.793
59103W        W25886  12.591  14.886   1.450
59104W        W25887  25.002  14.623  13.310
59105W        W25888  32.004  34.392  11.646
59106W        W25889   6.731   4.577  11.084
59107W        W25890  15.132  37.563   0.281
59108W        W25891  23.564  13.159   1.405
59109W        W25892  43.542  17.672  14.832
59110W        W25893  11.672  29.952   1.368
59111W        W25894  29.363  37.362  10.526
59112W        W25895  32.622  10.288  12.920
59113W        W25896  20.491  35.183   3.342
59114W        W25897  16.779  18.408   4.158
59115W        W25898   5.964  29.350   1.794
59116W        W25899  41.570  18.171  12.525
59117W        W25900  39.954  27.189   4.343
59118W        W25901  38.594  28.121   0.415
59119W        W25902  12.668  35.381  12.483
59120W        W25903   7.693  14.332   2.709
59121W        W25904  13.785  34.772  14.611
59122W        W25905  38.782   9.804  13.961
59123W        W25906  35.252  15.829  14.956
59124W        W25907  18.341  38.279   4.116
59125W        W25908  44.121  21.871   0.877
59126W        W25909   7.903   8.587  12.618
59127W        W25910  17.431  37.789   2.365
59128W        W25911  23.036   2.750   1.783
59129W        W25912  35.002   2.709  14.683
59130W        W25913  24.292  12.837   1.387
59131W        W25914   3.707   0.988   0.867
59132W        W25915   7.672  33.884  11.539
59133W        W25916  10.806  42.807   0.015
59134W        W25917  36.210  27.674  14.383
59135W        W25918  10.857   4.377   4.201
59136W        W25919   6.409   0.335   2.798
59137W        W25920  22.622  16.265  14.453
59138W        W25921  13.140  12.838   1.049
59139W        W25922  42.016   4.658  10.934
59140W        W25923  41.744  20.201   2.137
59141W        W25924  32.942   6.217   4.048
59142W        W25925  20.226   0.899   4.379
59143W        W25926  36.769  30.607  11.663
59144W        W25927  19.439  14.068   2.304
59145W        W25928   9.903  15.718   2.280
59146W        W25929  18.525  35.270   4.093
59147W        W25930   7.877  25.514  10.676
59148W        W25931  10.697  26.864   1.277
59149W        W25932  21.803  40.416   0.526
59150W        W25933   0.858  44.026   0.110
59151W        W25934   1.467  27.105   3.657
59152W        W25935  24.033   6.631   2.806
59153W        W25936  37.822  20.605  12.079
59154W        W25937  17.063  35.877  14.964
59155W        W25938  37.940  33.204  13.325
59156W        W25939  27.080  32.139  14.245
59157W        W25940  22.156  28.828   4.267
59158W        W25941  28.911  14.532   2.170
59159W        W25942   8.262  37.536  10.641
59160W        W25943  25.166  19.522   1.906
59161W        W25944  19.805  34.553  14.494
59162W        W25945   5.424  37.382   0.392
59163W        W25946   5.786  18.564  14.952
59164W        W25947  33.193  30.853  13.398
59165W        W25948  24.388  12.224   2.853
59166W        W25949  17.354  36.415  11.537
59167W        W25950  17.052  18.089   0.915
59168W        W25951  21.130  22.509  14.114
59169W        W25952  43.912   9.746  13.387
59170W        W25953  39.219  42.836  11.515
59171W        W25954   5.976  32.203  13.206
59172W        W25955  18.537  41.443   4.094
59173W        W25956   6.362  37.029   3.695
59174W        W25957  25.859  16.118  12.087
59175W        W25958   0.516  32.488   2.380
59176W        W25959  15.994  13.665   4.869
59177W        W25960   7.763  20.245  14.767
59178W        W25961  42.807  29.869   0.869
59179W        W25962   1.671  20.980  12.404
59180W        W25963   3.617  24.064  12.151
59181W        W25964   6.532   1.822   3.118
59182W        W25965  37.460  14.062   3.741
59183W        W25966  17.172   2.381  10.567
59184W        W25967   4.753  23.048  13.602
59185W        W25968  12.065  41.908   0.800
59186W        W25969  12.609  18.694   0.003
59187W        W25970  20.764   2.354   3.785
59188W        W25971   7.516  26.504   0.720
59189W        W25972  20.193   8.695  12.411
59190W        W25973  13.321  40.002   2.297
59191W        W25974  32.092   4.150   4.212
59192W        W25975   6.811   5.188  14.844
59193W        W25976  11.486  42.464   1.608
59194W        W25977   8.265   8.845  13.370
59195W        W25978   1.923  25.597  10.748
59196W        W25979  25.982  18.625   4.277
59197W        W25980   0.361  15.311  12.022
59198W        W25981  12.849  29.647   3.717
59199W        W25982  42.341  39.208   2.842
59200W        W25983  37.443  32.663  11.582
59201W        W25984  23.487   0.307  10.489
59202W        W25985  28.703  12.917  14.491
59203W        W25986  36.112  28.109   4.571
59204W        W25987  28.879  26.715  13.497
59205W        W25988   0.432  39.415  14.944
59206W        W25989  35.376  40.069  11.653
59207W        W25990  40.400  20.149   3.312
59208W        W25991  31.690  27.192  10.860
59209W        W25992  34.166   0.973  12.070
59210W        W25993  25.286  21.035   2.919
59211W        W25994  22.192  39.397   2.407
59212W        W25995  19.235  12.747  12.036
59213W        W25996  16.221  35.816   1.868
59214W        W25997  20.796  17.059   3.087
59215W        W25998  43.836  25.584   2.610
59216W        W25999  32.702  30.050  11.958
59217W        W26000  40.789  44.527  13.959
59218W        W26001  36.000  37.828   2.750
59219W        W26002  36.793   2.519  13.472
59220W        W26003   2.681   2.528   4.178
59221W        W26004  40.271  17.233   1.385
59222W        W26005  14.049  42.413   0.173
59223W        W26006  38.246  39.258   0.401
59224W        W26007  31.455  41.277   0.004
59225W        W26008   3.720  20.074   1.713
59226W        W26009  31.106  28.912  14.761
59227W        W26010   8.635  42.874  13.732
59228W        W26011   9.010  35.051   4.182
59229W        W26012   2.787  41.755  12.984
59230W        W26013   6.731   6.951   0.258
59231W        W26014  19.605  32.977   3.732
59232W        W26015  22.735  21.733  14.997
59233W        W26016  16.497   3.690   1.294
59234W        W26017  25.150   4.198   2.340
59235W        W26018   6.781  19.623  10.950
59236W        W26019  37.030   7.232  13.492
59237W        W26020   6.696  25.030   2.741
59238W        W26021  42.324   9.860  14.966
59239W        W26022  42.996  28.949   2.127
59240W        W26023  19.711  26.287  14.343
59241W        W26024  19.549   3.751   2.474
59242W        W26025   0.055  11.118  11.593
59243W        W26026  41.962  28.703  13.851
59244W        W26027  21.185   3.153   0.175
59245W        W26028  24.350  20.887  11.136
59246W        W26029   4.672  37.927   2.772
59247W        W26030   6.323   9.748   1.728
59248W        W26031  37.872  17.259  12.637
59249W        W26032  39.945   7.891   0.774
59250W        W26033  28.169  32.438  13.458
59251W        W26034  34.907  11.699  10.552
59252W        W26035  28.934  29.488   3.200
59253W        W26036  33.153  32.024  13.006
59254W        W26037  14.158  28.697  11.388
59255W        W26038  41.897  39.051   3.151
59256W        W26039  41.720  12.175  11.238
59257W        W26040   9.805  21.157  10.097
59258W        W26041  14.204  40.401   2.294
59259W        W26042  26.194  43.380  11.518
59260W        W26043  15.084  29.445  13.571
59261W        W26044   5.629  26.223   2.816
59262W        W26045  32.294  21.710  12.935
59263W        W26046  42.949  36.129  10.610
59264W        W26047  24.187  32.389   3.888
59265W        W26048  37.641  44.855   1.827
59266W        W26049  15.128   7.360   0.225
59267W        W26050  32.112  15.549   5.081
59268W        W26051   7.291  31.126   0.647
59269W        W26052  13.572  44.331  11.543
59270W        W26053  37.396  27.319  12.007
59271W        W26054  28.857  26.090  13.157
59272W        W26055  26.708  44.327   9.969
59273W        W26056  21.703  10.098   0.889
59274W        W26057   5.877  37.621   0.262
59275W        W26058  20.999  25.125   1.801
59276W        W26059  10.112  10.123  12.632
59277W        W26060  25.501  23.125  13.077
59278W        W26061  33.837  43.181  14.960
59279W        W26062  21.699  25.797  12.918
59280W        W26063  44.702   8.420   3.277
59281W        W26064  38.711   6.340   3.178
59282W        W26065  41.415  25.775   4.964
59283W        W26066  41.062  12.825  12.569
59284W        W26067  36.434  23.763  12.003
59285W        W26068   3.039   3.419   3.127
59286W        W26069  37.000  13.793  13.681
59287W        W26070  38.180  30.648   5.173
59288W        W26071  28.956  28.880   4.817
59289W        W26072  31.821  18.094  11.058
59290W        W26073   7.490  28.124   0.013
59291W        W26074  31.609  13.421   2.621
59292W        W26075  17.535  26.253   3.132
59293W        W26076   5.336   8.863  14.876
59294W        W26077  14.181  32.544   3.772
59295W        W26078  33.605  16.128  10.972
59296W        W26079  17.295   6.249   2.776
59297W        W26080   2.786  39.925   3.294
59298W        W26081  12.399  37.864   1.414
59299W        W26082   0.959   1.866  10.591
59300W        W26083  30.544  23.161  11.188
59301W        W26084  18.989  24.211  11.585
59302W        W26085   0.840   7.497   3.821
59303W        W26086  24.610  13.224   3.419
59304W        W26087  23.406  36.037   3.127
59305W        W26088  31.154  27.271   2.549
59306W        W26089  36.629  24.102  14.976
59307W        W26090  17.905   6.033  13.282
59308W        W26091  28.794  17.112   2.846
59309W        W26092  15.830   8.752   0.637
59310W        W26093  32.636  31.557  13.626
59311W        W26094  40.195   7.029  10.196
59312W        W26095  13.502  37.244  14.414
59313W        W26096  11.396  19.431  12.661
59314W        W26097  36.993  36.457  14.928
59315W        W26098  29.664  25.212  13.861
59316W        W26099  36.573  24.874  13.357
59317W        W26100  12.711  42.288   0.838
59318W        W26101   6.430  14.163  11.215
59319W        W26102  33.556   8.346   3.667
59320W        W26103  28.840   3.336  13.297
59321W        W26104  31.142  13.229  11.255
59322W        W26105   7.197   2.912   4.579
59323W        W26106  24.055   6.843  10.431
59324W        W26107   3.025  13.220  13.325
59325W        W26108  22.197  28.688   3.771
59326W        W26109   2.899   4.430   3.355
59327W        W26110  24.950  39.514   0.959
59328W        W26111  16.811  34.997   3.643
59329W        W26112  34.909  18.035   2.861
59330W        W26113  24.648  24.243   2.511
59331W        W26114  35.004   8.816  13.004
59332W        W26115  28.183  19.265   1.715
59333W        W26116  19.782  16.346   1.246
59334W        W26117  30.112  17.663   2.648
59335W        W26118  17.837  13.168  11.668
59336W        W26119   5.228   3.875  12.086
59337W        W26120  27.499  37.280   4.589
59338W        W26121   9.680  28.064  14.394
59339W        W26122   2.354  20.269   0.383
59340W        W26123  36.923  34.135   0.168
59341W        W26124   5.403  43.105  12.988
59342W        W26125   9.265   3.434   3.325
59343W        W26126   3.737   4.989   3.186
59344W        W26127  33.044  41.834   3.913
59345W        W26128  37.796  18.424   4.175
59346W        W26129   5.361  31.442  14.488
59347W        W26130  44.536   7.807   1.612
59348W        W26131  39.732  25.946  14.334
59349W        W26132  21.622  16.777  12.880
59350W        W26133  23.762  42.210   3.591
59351W        W26134  21.332   0.779   3.649
59352W        W26135  36.975  21.979  12.290
59353W        W26136  17.099   1.945   2.313
59354W        W26137  23.037  33.970  13.515
59355W        W26138   4.891  41.421  14.450
59356W        W26139  43.309  38.039   1.031
59357W        W26140  20.490  39.297   3.060
59358W        W26141  15.160   8.394  12.616
59359W        W26142  39.246  28.994   2.215
59360W        W26143   7.274   4.734   4.537
59361W        W26144  33.843   9.473  11.717
59362W        W26145  37.409  41.454   3.029
59363W        W26146  30.379  33.491  12.030
59364W        W26147  17.877  39.589   1.340
59365W        W26148  24.947   5.354   0.740
59366W        W26149  34.682  15.463  10.020
59367W        W26150  17.621  16.813   3.186
59368W        W26151  21.070   1.062  13.479
59369W        W26152  13.367  36.442  12.917
59370W        W26153  36.861  37.933   1.254
59371W        W26154  38.996   2.254  13.033
59372W        W26155  26.841   4.717   4.244
59373W        W26156  32.689   5.014   3.993
59374W        W26157  44.883   0.345   1.695
59375W        W26158  14.082  40.897   1.390
59376W        W26159  40.880  12.068  13.869
59377W        W26160  16.275   2.688   1.293
59378W        W26161  43.938  22.590   0.856
59379W        W26162  35.517  18.094   0.295
59380W        W26163  16.827  21.144  13.454
59381W        W26164  23.970  28.084  14.392
59382W        W26165   6.121  32.869   3.310
59383W        W26166  43.759   8.768  14.148
59384W        W26167   6.295  43.855  14.101
59385W        W26168  41.948  36.766  13.995
59386W        W26169  16.155   1.711  11.048
59387W        W26170  28.529  24.057  11.006
59388W        W26171  34.435  25.435   2.407
59389W        W26172  44.210  25.452  14.191
59390W        W26173  35.174  32.051  12.820
59391W        W26174  28.406  43.432  13.050
59392W        W26175  20.644   7.076  12.556
59393W        W26176  18.226  21.522  14.415
59394W        W26177  20.700  25.210  11.544
59395W        W26178   0.735   5.993   4.571
59396W        W26179   3.776  35.887   1.227
59397W        W26180  24.678  20.476   0.916
59398W        W26181  12.724  13.150   3.778
59399W        W26182   6.115   1.326  11.858
59400W        W26183  35.586  21.563  14.764
59401W        W26184  43.394  15.949   1.929
59402W        W26185   2.821  16.995   2.974
59403W        W26186   4.376   0.017  10.796
59404W        W26187  24.396   5.764  14.315
59405W        W26188  43.248   1.840  14.918
59406W        W26189  30.227  19.992  11.032
59407W        W26190   2.011  21.095  12.025
59408W        W26191  40.766   0.438  12.699
59409W        W26192   9.209   4.466   3.228
59410W        W26193  24.288  28.917  11.124
59411W        W26194  15.734  23.457  12.831
59412W        W26195  44.750   7.654  14.325
59413W        W26196  37.261  12.574  11.208
59414W        W26197  23.640  19.968   0.889
59415W        W26198  17.472  34.448  14.681
59416W        W26199  12.468  15.321   4.212
59417W        W26200   8.847  25.728  14.317
59418W        W26201  14.147  35.516   0.972
59419W        W26202   1.052  29.435   0.474
59420W        W26203  26.088   8.171   1.266
59421W        W26204  27.684  25.021   0.956
59422W        W26205   9.996  14.225   1.843
59423W        W26206  39.492  18.540  13.228
59424W        W26207   4.488  26.497   4.177
59425W        W26208  19.795  26.143   3.320
59426W        W26209   7.873  41.247  13.439
59427W        W26210  20.647  12.645   2.279
59428W        W26211   5.629   1.201  13.118
59429W        W26212  37.508  16.425   1.849
59430W        W26213  26.738  23.935   4.097
59431W        W26214   8.525   2.804   3.607
59432W        W26215  19.460   0.063   2.969
59433W        W26216  41.495  40.885  12.380
59434W        W26217  16.808  37.576  12.710
59435W        W26218  30.979  25.771   1.868
59436W        W26219   1.449  16.263  10.744
59437W        W26220  37.584  40.932   4.642
59438W        W26221  41.453  14.277   2.685
59439W        W26222  16.089   3.927   1.521
59440W        W26223  16.380  42.862   4.620
59441W        W26224  44.542  15.316   2.767
59442W        W26225  16.599  16.995   1.768
59443W        W26226  18.550  34.161   1.024
59444W        W26227  24.142  21.722  12.485
59445W        W26228  40.009  33.750  11.167
59446W        W26229  17.813  19.737  12.218
59447W        W26230   0.376  10.332   2.707
59448W        W26231  10.482  29.673  14.795
59449W        W26232  43.196  28.597  14.504
59450W        W26233  14.464  35.827   4.201
59451W        W26234  14.220  13.422  11.061
59452W        W26235  35.465   8.715   4.624
59453W        W26236  40.975  24.646  14.450
59454W        W26237  11.315  12.598  13.025
59455W        W26238  42.195  20.671   2.629
59456W        W26239  44.536  32.423   1.372
59457W        W26240  34.432  17.129  13.313
59458W        W26241  43.788  11.284   2.698
59459W        W26242  44.806  11.805  13.054
59460W        W26243  35.519   2.209   4.590
59461W        W26244  16.828  44.558  12.970
59462W        W26245  19.591  20.067   1.623
59463W        W26246  29.670  28.685  11.958
59464W        W26247  37.016  20.676  13.866
59465W        W26248   6.764  44.250  10.699
59466W        W26249  21.827   0.761   3.559
59467W        W26250   8.399  13.271  12.707
59468W        W26251   3.358  44.701  11.914
59469W        W26252  42.310   0.236  12.158
59470W        W26253  31.567  29.449  14.284
59471W        W26254   4.700  17.152   4.588
59472W        W26255  35.956  19.015  12.119
59473W        W26256  16.884  35.846   4.036
59474W        W26257  42.274   4.325   0.707
59475W        W26258  27.165  22.142  10.976
59476W        W26259  41.348  33.985   1.407
59477W        W26260  22.986  25.688  11.530
59478W        W26261  29.881  43.213   2.347
59479W        W26262  17.321  32.997   2.795
59480W        W26263  34.550  40.612   2.699
59481W        W26264  26.119  20.980   0.042
59482W        W26265  20.690   1.731   3.224
59483W        W26266  34.489  43.475  13.375
59484W        W26267  16.173  29.906   4.340
59485W        W26268  18.559  15.136  14.593
59486W        W26269  28.622  11.347  10.651
59487W        W26270  22.946  19.198  14.487
59488W        W26271  34.967  22.729  10.671
59489W        W26272   5.602  36.526  11.077
59490W        W26273   5.339  43.369   0.813
59491W        W26274  25.986  20.090   3.863
59492W        W26275  37.425  43.051   1.380
59493W        W26276  38.971  10.830  12.638
59494W        W26277  40.038  18.333   3.476
59495W        W26278  13.056  23.990   2.272
59496W        W26279   0.361   3.306   3.265
59497W        W26280  10.421  10.219  11.112
59498W        W26281   2.291  31.516   0.952
59499W        W26282  27.524  22.783   1.306
59500W        W26283  35.866  10.936   4.210
59501W        W26284   3.929  33.937   0.941
59502W        W26285  37.744   6.423  10.074
59503W        W26286  33.593  36.018   4.574
59504W        W26287  15.125  11.316   0.191
59505W        W26288  35.525  31.845   3.176
59506W        W26289  41.758  15.573  12.080
59507W        W26290   0.464  13.434  10.577
59508W        W26291  44.357  12.442   2.356
59509W        W26292   7.910  18.659  14.030
59510W        W26293  37.960  14.947  11.361
59511W        W26294   6.713  44.936   2.922
59512W        W26295  42.209   9.158  12.967
59513W        W26296  19.163  15.767  14.974
59514W        W26297   1.072  29.445  10.403
59515W        W26298  16.470  32.891  13.903
59516W        W26299  14.127  16.693  12.354
59517W        W26300  43.864  37.865   4.816
59518W        W26301  41.758   9.343  14.319
59519W        W26302  30.213  21.088   2.854
59520W        W26303   7.922  27.040  13.618
59521W        W26304  16.797  30.647   1.417
59522W        W26305   9.146  40.887   0.749
59523W        W26306  41.817  17.465  11.895
59524W        W26307  11.117   8.894   0.881
59525W        W26308  25.477  11.227  13.371
59526W        W26309  17.495  26.372  10.664
59527W        W26310  34.165  14.764   3.265
59528W        W26311  44.424   6.029  12.010
59529W        W26312  12.547   4.433  14.936
59530W        W26313  39.551  34.908  14.337
59531W        W26314   3.209  44.789  14.259
59532W        W26315   0.882  14.346   1.317
59533W        W26316  36.809   4.781   2.269
59534W        W26317   8.665  15.883  11.079
59535W        W26318  17.148  21.666  10.087
59536W        W26319  27.566  14.534  13.916
59537W        W26320  26.375   7.631  11.129
59538W        W26321  15.499  35.083  14.846
59539W        W26322  37.430  30.350   1.870
59540W        W26323   1.349   1.259  12.584
59541W        W26324  37.006  44.052   3.225
59542W        W26325  37.590   9.281   3.614
59543W        W26326  23.044   0.565  14.394
59544W        W26327  16.222  11.374  14.485
59545W        W26328  28.301  34.410   1.232
59546W        W26329  29.111  12.336   4.126
59547W        W26330   9.792   0.950   0.593
59548W        W26331  31.993  19.613   0.373
59549W        W26332  11.304  21.728   1.505
59550W        W26333  37.587  16.787   2.764
59551W        W26334   1.938  10.507   0.999
59552W        W26335  37.021  19.553   4.139
59553W        W26336   3.948  41.769   0.035
59554W        W26337  10.158  10.338   3.674
59555W        W26338   8.700  23.318  12.476
59556W        W26339   2.969  14.747   4.160
59557W        W26340  30.389  31.288  11.336
59558W        W26341  18.368  23.071   4.192
59559W        W26342  10.577  28.079   4.658
59560W        W26343  14.634  37.164  10.751
59561W        W26344  35.427  25.479  11.047
59562W        W26345  35.670  44.531  11.005
59563W        W26346   5.182   2.922   4.135
59564W        W26347  30.062  44.929  11.801
59565W        W26348  36.280  13.269  13.609
59566W        W26349  18.119  12.397  12.455
59567W        W26350  44.469  29.460   2.248
59568W        W26351  13.903  14.601   0.321
59569W        W26352  36.430  10.381   0.443
59570W        W26353  37.282  25.919  12.006
59571W        W26354  38.758  19.050  12.953
59572W        W26355  26.240   4.270  13.844
59573W        W26356  13.995  14.837   2.753
59574W        W26357   7.680  42.675   4.143
59575W        W26358  28.443  21.527   2.859
59576W        W26359  13.818  41.041   1.803
59577W        W26360  18.570  23.252   2.850
59578W        W26361   0.532  24.979   0.846
59579W        W26362  32.854  27.651  10.688
59580W        W26363   8.855  15.731   2.221
59581W        W26364  44.464  40.975  13.333
59582W        W26365  16.053  34.515  10.668
59583W        W26366  37.442  38.291   0.403
59584W        W26367  30.392  15.209   1.415
59585W        W26368   8.219  23.144   1.391
59586W        W26369  18.246  20.998  13.070
59587W        W26370  30.885  19.723  13.338
59588W        W26371   6.310  40.718   3.227
59589W        W26372  41.588  21.549  12.834
59590W        W26373  30.843  10.943   2.190
59591W        W26374  10.666  15.811   1.176
59592W        W26375   6.656  37.935  12.942
59593W        W26376   9.734  29.977  13.304
59594W        W26377  34.247  26.010  12.579
59595W        W26378  12.881   3.734   3.701
59596W        W26379   2.414  18.043  13.933
59597W        W26380  44.466  25.612   4.904
59598W        W26381   6.421   0.778  12.968
59599W        W26382  38.857   9.790   4.922
59600W        W26383   2.857  42.838  14.133
59601W        W26384  23.579  21.285  10.549
59602W        W26385  12.906  43.776  10.957
59603W        W26386  28.519  36.596   1.696
59604W        W26387  40.092  34.092   3.821
59605W        W26388  42.347  32.503  14.961
59606W        W26389  30.887  25.129   0.364
59607W        W26390  22.150  43.395   2.279
59608W        W26391  25.990   8.435  13.416
59609W        W26392  28.197  39.933  13.905
59610W        W26393  13.858  18.653   4.304
59611W        W26394  41.357   5.670   3.576
59612W        W26395  10.201   1.577   1.781
59613W        W26396  17.677  44.494  14.579
59614W        W26397   6.914  13.860   0.351
59615W        W26398   7.113  31.329  12.777
59616W        W26399  12.051  17.830  14.037
59617W        W26400  41.386  44.523  14.982
59618W        W26401  16.951   7.306  13.381
59619W        W26402   1.220  37.504  10.518
59620W        W26403  22.279  16.634  10.551
59621W        W26404  41.965  33.858   4.150
59622W        W26405   0.987  34.614  11.302
59623W        W26406  18.800  22.609   1.661
59624W        W26407  18.844  24.158  12.886
59625W        W26408  31.038  32.855   2.172
59626W        W26409   1.906  34.818   1.352
59627W        W26410  14.881  15.601  13.323
59628W        W26411   8.172   4.862  12.563
59629W        W26412  28.586  22.264  12.564
59630W        W26413   1.806  38.875  14.428
59631W        W26414  13.151  17.295   3.692
59632W        W26415  42.327  39.265   0.852
59633W        W26416   2.940  40.412   2.619
59634W        W26417  10.157   2.925  14.482
59635W        W26418  28.907   8.246  12.149
59636W        W26419  25.726   3.741  13.936
59637W        W26420  20.276  35.445   2.951
59638W        W26421  30.610  39.013   4.560
59639W        W26422  19.908   7.112  14.886
59640W        W26423   5.705  30.613  14.198
59641W        W26424   9.197  40.007   3.196
59642W        W26425  23.321  44.453  12.157
59643W        W26426  12.240  13.358  10.941
59644W        W26427   5.816  18.150  11.118
59645W        W26428  15.610   6.612  14.424
59646W        W26429  28.816   6.342  11.008
59647W        W26430  27.726  14.553   4.192
59648W        W26431  24.427  23.410   2.769
59649W        W26432  20.827  30.131  13.259
59650W        W26433  36.869  15.330   1.384
59651W        W26434  11.669  43.892   3.785
59652W        W26435  12.810   2.072  13.359
59653W        W26436  34.942  37.348   0.774
59654W        W26437   3.264  28.038  10.775
59655W        W26438  42.017  32.074  11.898
59656W        W26439  12.957   6.719  12.272
59657W        W26440   0.310  42.261  12.046
59658W        W26441  37.408  13.555   3.718
59659W        W26442   6.840  21.103  11.227
59660W        W26443  11.396  40.650   1.850
59661W        W26444   6.692  28.237   3.647
59662W        W26445   4.432  40.785  13.399
59663W        W26446   5.942  34.981   1.904
59664W        W26447  14.333   4.289   1.273
59665W        W26448  42.529  39.403   0.390
59666W        W26449  24.145  12.323   1.517
59667W        W26450   1.374  41.763  10.652
59668W        W26451  30.645  26.051  13.479
59669W        W26452  43.777  43.322  11.499
59670W        W26453  16.604   2.933   2.642
59671W        W26454  21.158  39.870  11.177
59672W        W26455  25.156   2.062  10.213
59673W        W26456   3.531  21.138   3.708
59674W        W26457  40.621  28.019  13.374
59675W        W26458   1.336  24.769   1.208
59676W        W26459  17.485   6.302   2.289
59677W        W26460  39.301  40.316   2.277
59678W        W26461  31.857  39.977  14.198
59679W        W26462  23.680  13.160  11.491
59680W        W26463  18.175  21.344  14.927
59681W        W26464   0.504  14.210   0.326
59682W        W26465  41.426   0.786   4.678
59683W        W26466   2.962  24.082   3.611
59684W        W26467  21.059   1.260   1.214
59685W        W26468  42.331  40.586  11.960
59686W        W26469  13.608  23.159   2.374
59687W        W26470  28.034  32.083   2.418
59688W        W26471  35.803   8.375  11.638
59689W        W26472  30.962  41.965  10.660
59690W        W26473  15.569  16.241  14.230
59691W        W26474  44.299  44.015   2.731
59692W        W26475   8.814  44.349   1.245
59693W        W26476  35.841  35.918   3.896
59694W        W26477  20.821  33.548   3.717
59695W        W26478  14.439   7.237   4.277
59696W        W26479  23.283  23.546  11.161
59697W        W26480  26.089  16.638  12.002
59698W        W26481  23.310   0.797   3.800
59699W        W26482  32.087   4.984   2.027
59700W        W26483  12.840  27.990   4.245
59701W        W26484  11.196  37.121   2.351
59702W        W26485  41.340   2.823  11.466
59703W        W26486  43.689   0.861  14.493
59704W        W26487  18.577   5.221   3.182
59705W        W26488  33.472   7.084   2.187
59706W        W26489  35.223   2.764   0.158
59707W        W26490  10.741  18.042  10.834
59708W        W26491  19.170   9.821   0.748
59709W        W26492  24.470  32.348   2.219
59710W        W26493  44.263   1.407   1.221
59711W        W26494  28.208  44.666  13.967
59712W        W26495  25.301  32.027   5.026
59713W        W26496  24.708  16.633  10.649
59714W        W26497  11.907   6.678  11.206
59715W        W26498  18.307  44.273   0.698
59716W        W26499  20.806  24.673  14.936
59717W        W26500  38.213  13.812   1.263
59718W        W26501  40.158  12.211  14.946
59719W        W26502  26.349  34.941   1.942
59720W        W26503   1.258  13.342   3.999
59721W        W26504  44.769  11.650   3.283
59722W        W26505  29.123  37.984  14.246
59723W        W26506  36.326   5.307   0.691
59724W        W26507  42.428  32.028   1.876
59725W        W26508  26.416  19.141  13.869
59726W        W26509  25.586  26.950   3.440
59727W        W26510  28.923  27.449  14.786
59728W        W26511   3.392  44.029   4.089
59729W        W26512  22.362   8.253   2.930
59730W        W26513  31.017  11.539  12.115
59731W        W26514   8.710  43.248  13.351
59732W        W26515   7.461  39.440   4.797
59733W        W26516  39.141  34.810  12.366
59734W        W26517   3.462   9.846  10.729
59735W        W26518  43.889  14.413  14.801
59736W        W26519  31.959  16.987   3.442
59737W        W26520  31.894  41.050  14.880
59738W        W26521  16.180  18.810  12.542
59739W        W26522  19.039  37.124  12.187
59740W        W26523   0.517  13.091  14.460
59741W        W26524   9.661  40.819   0.808
59742W        W26525   1.559  17.883   2.200
59743W        W26526  28.386  41.820  11.966
59744W        W26527   6.853  24.332  14.762
59745W        W26528   3.860  10.929  12.052
59746W        W26529  35.334  19.061  10.621
59747W        W26530  11.844  27.020  11.147
59748W        W26531  35.295  19.159  11.514
59749W        W26532  30.927  17.515   4.739
59750W        W26533  24.805  13.592   4.241
59751W        W26534  16.515  18.666   3.614
59752W        W26535   6.379  35.439  10.779
59753W        W26536  15.328  22.505   3.821
59754W        W26537  24.088  12.711  10.839
59755W        W26538  11.495  39.108  14.354
59756W        W26539  28.549   4.915   1.794
59757W        W26540  29.738   5.731  11.794
59758W        W26541   0.750  27.957  10.305
59759W        W26542  43.978  25.036  12.135
59760W        W26543  35.567  10.913   0.177
59761W        W26544  25.134  32.097  14.150
59762W        W26545   4.304  25.944  12.901
59763W        W26546  36.622   0.783   1.455
59764W        W26547   9.739  20.757   3.898
59765W        W26548  44.967   2.176   3.192
59766W        W26549  34.364   8.745   0.527
59767W        W26550  30.170  41.439   1.901
59768W        W26551  42.924  25.903   0.837
59769W        W26552   9.740  31.087   1.719
59770W        W26553  36.279   4.397  12.960
59771W        W26554   7.048  39.265   2.398
59772W        W26555   2.192  12.885  11.279
59773W        W26556  37.503  14.572   2.845
59774W        W26557  27.616  44.311  14.724
59775W        W26558  44.913  23.316  12.207
59776W        W26559   1.031  44.864  10.720
59777W        W26560   4.713  27.102  13.986
59778W        W26561  41.772  38.450   1.469
59779W        W26562  43.925  11.461   0.411
59780W        W26563  38.080  31.146  12.868
59781W        W26564  10.424  23.137  12.441
59782W        W26565  33.401  34.990  11.661
59783W        W26566  26.486  10.698   2.699
59784W        W26567  35.671   5.072   3.301
59785W        W26568   0.426  20.749   3.197
59786W        W26569  40.992  29.715   4.088
59787W        W26570   9.185  25.890   1.895
59788W        W26571  42.953  31.408  11.638
59789W        W26572  13.557  10.758  14.782
59790W        W26573  35.094  27.903   1.052
59791W        W26574  37.103  34.596   0.401
59792W        W26575  44.008   8.938   1.273
59793W        W26576   4.566  20.554  11.486
59794W        W26577  24.777  33.296  13.102
59795W        W26578   1.741  43.746   1.790
59796W        W26579  27.632  36.266   4.866
59797W        W26580   8.715  28.188  10.678
59798W        W26581  15.532   5.705   3.921
59799W        W26582  33.424   8.359  14.417
59800W        W26583  28.489  24.470  14.332
59801W        W26584   2.187   4.902   4.157
59802W        W26585  25.947  38.633  11.358
59803W        W26586  38.451  20.215   4.573
59804W        W26587  29.400  43.792  14.733
59805W        W26588  22.802  43.713  12.568
59806W        W26589  11.246  18.098  13.503
59807W        W26590  38.457   7.921  11.139
59808W        W26591  18.817  24.485   1.771
59809W        W26592  41.763  39.142   0.307
59810W        W26593  26.223  15.667   3.872
59811W        W26594  34.880   1.706   2.348
59812W        W26595  37.902   3.909  12.457
59813W        W26596   8.302  12.925  10.889
59814W        W26597  31.634   4.734  11.094
59815W        W26598  26.722  38.383   3.619
59816W        W26599  32.965  27.395  13.794
59817W        W26600  12.273  26.988  12.330
59818W        W26601   5.712  25.084  12.386
59819W        W26602  31.523  37.098  11.157
59820W        W26603   4.705  42.818   4.209
59821W        W26604  33.132  35.515   1.844
59822W        W26605  29.211  39.568  11.050
59823W        W26606   8.523  44.359   4.989
59824W        W26607  27.142  30.376  11.153
59825W        W26608  19.773   1.007   2.687
59826W        W26609   1.869  18.853  12.553
59827W        W26610  21.360  23.298  14.885
59828W        W26611  37.872  36.375   1.993
59829W        W26612  19.717  15.166  14.575
59830W        W26613  42.490   4.492  10.691
59831W        W26614  32.589  15.290  12.102
59832W        W26615   8.757  34.580   4.855
59833W        W26616  28.253  12.215  13.998
59834W        W26617  31.395   8.857   1.581
59835W        W26618  32.369  35.055  10.662
59836W        W26619  31.215  33.666  10.825
59837W        W26620  11.206  21.707  12.373
59838W        W26621  39.313  40.446  14.658
59839W        W26622  31.395  31.869  13.413
59840W        W26623   1.317  13.527   0.513
59841W        W26624  38.022  39.490   2.296
59842W        W26625  10.677  18.316   0.259
59843W        W26626   8.865  11.346  10.581
59844W        W26627  31.483  35.468   3.125
59845W        W26628  18.594  17.667   5.010
59846W        W26629   3.136  17.890  14.462
59847W        W26630  30.368  34.119  14.729
59848W        W26631   4.713  40.310   2.919
59849W        W26632  33.734  23.461   4.904
59850W        W26633  35.086  20.030  12.040
59851W        W26634  32.651  42.141  14.523
59852W        W26635   9.444   9.110   2.329
59853W        W26636   6.517  33.488   3.816
59854W        W26637   9.228  17.123   0.472
59855W        W26638  37.360   2.571   3.128
59856W        W26639  34.786  43.033  13.377
59857W        W26640   0.849  30.260   0.813
59858W        W26641   0.821  15.647  14.029
59859W        W26642   9.645   1.634  11.620
59860W        W26643   2.997  29.496  13.972
59861W        W26644  20.803  32.895   0.264
59862W        W26645  34.969  11.884   4.323
59863W        W26646   4.278   6.679  12.230
59864W        W26647  30.719  15.736  14.676
59865W        W26648  35.090  36.547   0.303
59866W        W26649  39.896  19.500  11.545
59867W        W26650  23.697  44.917   0.845
59868W        W26651  22.050  35.407  13.630
59869W        W26652  33.834   0.530   3.062
59870W        W26653  10.344   3.760   4.995
59871W        W26654  29.992  24.274  12.123
59872W        W26655   5.270  38.003   2.855
59873W        W26656  26.471  16.320   0.222
59874W        W26657   8.911   5.336   0.077
59875W        W26658  35.520  15.046   0.806
59876W        W26659   9.216  16.817  13.374
59877W        W26660  15.178  15.882  12.918
59878W        W26661  38.445   3.258   1.386
59879W        W26662  33.186  24.485  10.530
59880W        W26663   6.263  30.659   3.740
59881W        W26664   2.402  42.186  12.109
59882W        W26665  36.397   8.436   4.880
59883W        W26666  17.100   1.660  13.945
59884W        W26667  11.441  39.618  12.547
59885W        W26668  39.745  37.341  10.630
59886W        W26669  17.796   9.221   0.590
59887W        W26670   2.544  25.513   1.714
59888W        W26671   5.046   1.257   1.461
59889W        W26672   0.814  14.947   9.958
59890W        W26673  21.822  29.004   1.383
59891W        W26674  32.508  43.565  11.633
59892W        W26675  19.747  20.085   2.553
59893W        W26676  33.903  41.852  11.157
59894W        W26677  33.141  32.494  13.502
59895W        W26678  11.364  44.765  10.712
59896W        W26679  14.241  39.655   9.847
59897W        W26680  43.530  16.038   2.862
59898W        W26681  43.968  14.719   1.223
59899W        W26682  20.017  26.453   0.389
59900W        W26683  20.988  23.787  12.570
59901W        W26684  44.458  11.279   4.564
59902W        W26685  30.122  10.219   3.282
59903W        W26686  14.835  26.965   0.833
59904W        W26687  41.407  39.021  12.882
59905W        W26688  25.713  24.295   1.048
59906W        W26689  41.320  43.282  13.450
59907W        W26690  14.958  38.532   5.021
59908W        W26691  39.292  43.821  14.303
59909W        W26692  36.092  28.022   0.978
59910W        W26693  35.522  18.454  10.662
59911W        W26694   2.374   8.798  12.838
59912W        W26695  22.727  19.152   1.730
59913W        W26696  30.101  27.040   3.140
59914W        W26697  42.361  16.015   0.355
59915W        W26698  15.134  43.447  14.456
59916W        W26699  14.084  25.852   4.737
59917W        W26700  43.110   8.260  14.472
59918W        W26701  18.256  21.597   3.224
59919W        W26702  14.672  18.178   2.360
59920W        W26703  24.728   0.851   3.685
59921W        W26704  38.015  25.005  13.120
59922W        W26705  14.899   5.200   1.426
59923W        W26706  33.970  21.788   3.260
59924W        W26707  39.912   6.129   1.494
59925W        W26708   0.283  16.703   3.681
59926W        W26709  40.477   1.835   2.665
59927W        W26710  44.024  40.578   0.014
59928W        W26711  23.695  10.252   4.900
59929W        W26712  34.348  30.157  11.640
59930W        W26713   4.004   2.389   3.279
59931W        W26714   7.944  15.308   4.310
59932W        W26715  33.041   1.511  11.651
59933W        W26716  23.251  33.007   1.903
59934W        W26717  22.943  38.426  10.523
59935W        W26718  10.817  31.217   4.607
59936W        W26719  42.214  11.302  13.341
59937W        W26720  20.983  33.683  14.797
59938W        W26721  25.856   5.877   0.821
59939W        W26722  25.519   2.581  13.125
59940W        W26723  34.757  17.235   2.390
59941W        W26724   1.352  29.287   1.402
59942W        W26725   1.557  35.534  13.927
59943W        W26726  30.356  31.728   1.712
59944W        W26727  38.497  20.342   2.686
59945W        W26728  44.460  12.215  11.900
59946W        W26729  13.883   1.057   4.074
59947W        W26730  36.258   2.201   2.373
59948W        W26731  36.548   7.020  13.587
59949W        W26732   1.166   6.719   4.180
59950W        W26733  35.610  27.956   3.292
59951W        W26734  36.045  17.156   1.237
59952W        W26735  42.434  38.955   3.282
59953W        W26736  40.237  15.605   1.343
59954W        W26737  37.880  40.526   1.229
59955W        W26738   4.921  39.837   4.341
59956W        W26739  29.587  11.395  11.983
59957W        W26740  23.734  19.368  12.566
59958W        W26741  19.156  35.766  12.889
59959W        W26742  35.128  43.691   4.211
59960W        W26743  33.486  19.084   0.551
59961W        W26744  17.044  12.132   4.678
59962W        W26745  40.026  32.605  10.723
59963W        W26746   7.430   4.560  12.922
59964W        W26747   9.975   4.021   0.867
59965W        W26748  32.567  18.042  13.986
59966W        W26749  34.853   9.905  10.185
59967W        W26750  21.181  29.121  11.715
59968W        W26751   3.088  38.467   1.709
59969W        W26752  29.188   3.900  14.005
59970W        W26753  44.594  20.829   0.340
59971W        W26754  27.142   9.629  13.897
59972W        W26755   3.327  31.061   3.891
59973W        W26756  40.389  27.883   4.022
59974W        W26757  34.598  18.596  14.330
59975W        W26758  12.344  29.394  11.167
59976W        W26759   3.750  36.514   0.926
59977W        W26760  33.929  24.373   0.153
59978W        W26761   7.172   4.727  12.509
59979W        W26762  21.179  28.922  14.036
59980W        W26763  39.982  42.438  11.661
59981W        W26764  21.100  18.826   0.836
59982W        W26765  31.902   0.418  10.741
59983W        W26766  20.486  37.705   4.598
59984W        W26767  40.077  25.027   0.711
59985W        W26768  18.092  40.562  13.456
59986W        W26769  14.235  15.090  11.654
59987W        W26770  44.400  18.207   3.612
59988W        W26771  36.624  38.376   1.387
59989W        W26772  10.719   8.631   0.105
59990W        W26773  16.589  22.526  11.564
59991W        W26774  39.072   5.763  14.079
59992W        W26775   8.274  34.325  14.910
59993W        W26776  15.040   6.236   1.128
59994W        W26777  24.568  41.942   1.094
59995W        W26778  10.932  40.816  12.978
59996W        W26779   4.363  43.178   3.958
59997W        W26780   8.180  35.884   3.356
59998W        W26781  10.251  21.820   1.755
59999W        W26782  20.591   9.402   1.335
60000W        W26783  13.273  23.821  14.270
60001W        W26784  15.317  27.527   1.356
60002W        W26785  34.034  24.953  14.268
60003W        W26786  21.288   5.909  14.884
60004W        W26787  32.431  24.283   1.362
60005W        W26788  21.022  33.970   2.812
60006W        W26789   3.242  14.259   1.648
60007W        W26790  35.472  35.644   4.665
60008W        W26791  41.234   4.512  13.724
60009W        W26792  41.779  25.257  13.792
60010W        W26793   5.390  40.780  11.118
60011W        W26794  13.488  44.835   1.812
60012W        W26795  16.075   2.770   2.802
60013W        W26796  36.361  13.388   0.400
60014W        W26797  16.638  31.364   0.850
60015W        W26798  18.189  10.769   0.313
60016W        W26799  36.276  41.555  13.818
60017W        W26800   7.930  21.991  10.674
60018W        W26801  11.326  16.109  13.609
60019W        W26802  35.591   1.221  12.433
60020W        W26803  20.256  37.353   1.843
60021W        W26804  33.373  41.764  12.397
60022W        W26805  39.956  42.745   2.455
60023W        W26806  41.912  29.677  10.716
60024W        W26807  22.684   6.757   2.539
60025W        W26808  17.109  39.259   2.534
60026W        W26809  35.515  24.580   2.316
60027W        W26810  37.809  15.726  10.790
60028W        W26811  30.894  19.248   4.970
60029W        W26812  26.285  32.394   3.095
60030W        W26813   8.137  36.934  12.401
60031W        W26814   4.643  26.324  10.244
60032W        W26815   2.639  41.794   2.676
60033W        W26816   6.670   5.838   4.217
60034W        W26817  20.404  13.598  12.054
60035W        W26818  14.077  15.370  12.054
60036W        W26819  22.715  26.955   1.208
60037W        W26820  28.286  10.825   2.162
60038W        W26821  36.099   0.816  13.478
60039W        W26822  42.097  30.519  12.021
60040W        W26823  28.168   1.418   1.722
60041W        W26824  34.547  17.253   1.847
60042W        W26825  43.507  34.312   0.737
60043W        W26826   9.216   7.209  13.499
60044W        W26827   7.316   6.136  10.783
60045W        W26828   0.741  32.633   1.929
60046W        W26829  31.084  42.927   2.330
60047W        W26830  24.039  29.440   1.033
60048W        W26831  44.271  13.761   2.743
60049W        W26832  32.052  15.392  10.318
60050W        W26833  15.064  22.284   0.462
60051W        W26834  44.975  39.134   0.316
60052W        W26835  23.657  18.101  14.504
60053W        W26836  10.237   4.227   1.299
60054W        W26837   8.447  42.421   1.921
60055W        W26838  21.456   4.765   1.381
60056W        W26839  36.918  10.235   2.558
60057W        W26840  23.960  28.327  13.351
60058W        W26841  33.097  20.376   4.466
60059W        W26842   3.343  42.044  13.867
60060W        W26843   2.380  38.749   0.021
60061W        W26844  39.904  15.804   4.153
60062W        W26845  17.272  25.299  11.258
60063W        W26846  28.430  22.132  13.053
60064W        W26847  14.568   8.857   1.081
60065W        W26848  35.974   6.573   1.716
60066W        W26849  41.466  38.317  14.483
60067W        W26850   4.955  13.854  14.722
60068W        W26851  24.120  25.090  12.828
60069W        W26852  38.908  28.630  12.957
60070W        W26853  20.098  36.763  14.726
60071W        W26854   0.923   9.188  10.723
60072W        W26855  32.162  28.895  13.589
60073W        W26856  41.303  44.502  14.043
60074W        W26857  32.985  39.880   0.730
60075W        W26858  22.017  25.036   9.751
60076W        W26859  11.258  30.657  12.868
60077W        W26860  22.301  15.832   3.752
60078W        W26861  35.760  29.118   2.829
60079W        W26862  40.939  37.241  14.087
60080W        W26863   6.205  34.102   2.278
60081W        W26864   1.398  22.742   2.320
60082W        W26865  40.300  10.227  11.336
60083W        W26866  37.887   8.780   4.671
60084W        W26867  41.944  23.619   3.235
60085W        W26868  16.253  38.937   2.706
60086W        W26869  21.262   6.392   3.042
60087W        W26870  11.720  36.374  12.392
60088W        W26871   5.936  40.937   2.871
60089W        W26872  37.620   7.827  13.883
60090W        W26873  23.583  30.043  14.807
60091W        W26874  34.110  22.342   2.338
60092W        W26875  43.274  31.052   1.812
60093W        W26876  39.582  13.680   4.572
60094W        W26877  35.181  21.781   3.780
60095W        W26878  14.445  25.499  10.688
60096W        W26879   0.518  15.082  14.926
60097W        W26880  37.341  29.034  13.015
60098W        W26881   1.447  31.973   3.189
60099W        W26882  18.291  34.287   3.590
60100W        W26883  23.171  42.254   0.789
60101W        W26884  27.654  29.937   3.650
60102W        W26885  33.967  38.973  13.350
60103W        W26886  42.872   8.314  12.090
60104W        W26887  34.524  17.020  13.800
60105W        W26888  31.941  26.178  14.428
60106W        W26889   6.430  10.726  14.973
60107W        W26890   8.228  38.457  12.314
60108W        W26891  18.651  21.294   9.957
60109W        W26892  24.171   9.930  13.225
60110W        W26893  28.069   6.621   4.141
60111W        W26894   0.293  22.333   1.808
60112W        W26895  33.540   7.290  11.657
60113W        W26896  41.933  41.836   4.739
60114W        W26897  17.021  27.864   4.484
60115W        W26898  22.670   4.694  13.124
60116W        W26899  43.037  19.069   3.793
60117W        W26900  30.017  13.930  11.528
60118W        W26901   3.874  33.972   0.416
60119W        W26902  18.789  10.039   3.144
60120W        W26903  20.840  23.996   4.593
60121W        W26904  35.136  14.173   2.810
60122W        W26905  27.957   3.896  13.993
60123W        W26906  40.095   6.448  13.564
60124W        W26907  26.925   0.279  10.499
60125W        W26908  25.413   4.436   0.771
60126W        W26909  21.536   4.650   0.874
60127W        W26910  41.211  42.955   1.669
60128W        W26911  41.395   1.350   1.963
60129W        W26912  28.937  23.813  13.569
60130W        W26913  32.767  26.197  13.698
60131W        W26914  18.815   2.786  10.432
60132W        W26915  25.165   0.231  14.361
60133W        W26916  15.580  25.531  12.658
60134W        W26917  41.463  10.967  11.474
60135W        W26918  29.998  30.936  14.767
60136W        W26919  19.162   3.216   0.975
60137W        W26920  35.458  35.235  13.846
60138W        W26921  24.538  27.187   3.752
60139W        W26922  31.281  29.592   0.216
60140W        W26923   5.425  16.751  14.847
60141W        W26924   8.482   3.963   4.147
60142W        W26925  18.820  25.544   2.726
60143W        W26926  23.306  32.499   0.773
60144W        W26927  13.243   2.808   3.146
60145W        W26928   5.210  27.413  11.173
60146W        W26929  22.499  38.893  12.029
60147W        W26930  17.380  15.656  13.975
60148W        W26931  11.324  39.129   0.301
60149W        W26932   6.674  37.440   0.756
60150W        W26933  25.026  43.687   1.192
60151W        W26934   7.396  32.933  11.661
60152W        W26935  25.664  12.312  14.711
60153W        W26936  38.826   9.425   3.077
60154W        W26937   6.828   1.428  12.325
60155W        W26938   7.988  20.902   1.299
60156W        W26939  43.490   9.516   5.366
60157W        W26940  28.937   7.316  14.781
60158W        W26941  25.052  21.706   3.551
60159W        W26942  13.266  38.885   2.884
60160W        W26943   3.429  26.658  10.839
60161W        W26944  15.053  40.606  11.568
60162W        W26945  35.614  39.965   1.647
60163W        W26946  44.043   4.679   2.042
60164W        W26947   8.593  18.021  13.411
60165W        W26948  15.218   1.197  12.948
60166W        W26949  34.228  28.020  11.410
60167W        W26950   5.762  37.764   1.214
60168W        W26951  37.640  26.544  14.566
60169W        W26952  18.590  28.717   1.057
60170W        W26953  28.156  25.520  11.849
60171W        W26954  30.109  39.901  12.379
60172W        W26955   9.856  20.108  11.822
60173W        W26956  30.000  21.743  13.118
60174W        W26957   2.449  10.320   3.285
60175W        W26958  41.774  18.154   4.675
60176W        W26959  32.664  11.925   1.828
60177W        W26960  21.519  19.575   1.307
60178W        W26961   1.396  25.584  11.598
60179W        W26962  25.270   2.177   3.679
60180W        W26963  44.468  13.259  11.608
60181W        W26964  16.504  38.981   1.614
60182W        W26965   0.369  13.555   9.793
60183W        W26966  22.008  37.506  12.383
60184W        W26967   9.365  11.772   1.343
60185W        W26968  12.787   3.322  10.761
60186W        W26969  39.990  36.588  11.668
60187W        W26970  14.198  39.233  11.686
60188W        W26971   2.242  15.279   1.196
60189W        W26972  38.341  25.588  11.450
60190W        W26973  19.870  39.459   1.295
60191W        W26974  37.438  41.400  12.434
60192W        W26975  33.509  26.652  12.445
60193W        W26976   9.444  19.063   0.292
60194W        W26977   8.297  33.572  14.339
60195W        W26978  27.179   2.031  11.009
60196W        W26979  13.724  11.364   1.682
60197W        W26980  13.292   1.423  13.821
60198W        W26981  33.962  17.064   0.851
60199W        W26982   5.865   4.783   1.749
60200W        W26983   7.675  27.160   1.938
60201W        W26984  21.156   3.601  11.818
60202W        W26985  40.666  23.694  14.325
60203W        W26986  16.596   2.377   0.310
60204W        W26987  43.643  20.573  13.003
60205W        W26988  18.259  43.996   0.267
60206W        W26989  36.859  42.784  11.403
60207W        W26990  10.179  15.880  10.576
60208W        W26991  17.638   3.093  14.511
60209W        W26992  10.341  17.714  10.832
60210W        W26993  20.009  33.368  13.959
60211W        W26994  35.593   5.886  13.268
60212W        W26995  34.011  19.846   3.726
60213W        W26996  30.501  31.385   2.162
60214W        W26997   0.716  29.908  12.899
60215W        W26998   2.346   0.392   4.216
60216W        W26999  10.337  24.980   4.780
60217W        W27000  24.129  29.424   1.951
60218W        W27001  31.436  28.642   2.925
60219W        W27002  34.347  15.233   3.389
60220W        W27003  27.348   6.250  11.993
60221W        W27004  39.000   6.439   0.285
60222W        W27005  14.483  30.650   2.826
60223W        W27006   9.782   4.132  13.164
60224W        W27007  20.990  36.071   3.286
60225W        W27008   5.122   7.059   1.285
60226W        W27009  20.765  42.739   0.891
60227W        W27010   8.166  26.253   2.697
60228W        W27011  12.945  26.124   4.129
60229W        W27012  14.613  14.435  14.850
60230W        W27013  35.716  43.733  13.430
60231W        W27014  25.243  36.122   1.243
60232W        W27015  28.413  17.441   2.921
60233W        W27016   5.220   0.841   4.974
60234W        W27017  18.610   4.392   3.572
60235W        W27018  28.568  13.691   4.793
60236W        W27019  37.648   1.539   3.299
60237W        W27020  21.720  13.119   3.134
60238W        W27021  13.225  39.018   0.367
60239W        W27022  25.428  14.716   1.626
60240W        W27023  31.126  25.119  13.950
60241W        W27024  30.179  27.142  13.494
60242W        W27025  18.160  42.594   3.726
60243W        W27026  42.825  42.369  11.346
60244W        W27027  36.197  43.539   1.171
60245W        W27028  34.641  23.943  11.857
60246W        W27029  19.612   4.519   0.877
60247W        W27030   8.812  41.287   3.154
60248W        W27031   4.376  42.895   0.912
60249W        W27032  18.519  23.021  10.606
60250W        W27033  18.544  27.974   4.525
60251W        W27034  29.889   4.379   3.218
60252W        W27035  21.191  11.269   3.147
60253W        W27036  22.624   5.301  11.497
60254W        W27037   1.322  44.283   0.246
60255W        W27038  35.852  44.949  11.962
60256W        W27039  42.063  21.137   3.218
60257W        W27040  35.617  14.341  11.545
60258W        W27041  13.295   0.326   0.974
60259W        W27042  18.668  40.754  11.509
60260W        W27043  42.798  14.214   1.281
60261W        W27044  33.629   3.726  12.831
60262W        W27045  40.956  43.745  14.980
60263W        W27046  34.577  14.300  14.260
60264W        W27047  12.863  33.085  13.973
60265W        W27048  39.879  21.784   4.982
60266W        W27049  35.078  27.981  10.888
60267W        W27050  34.018  26.504  14.274
60268W        W27051  25.946  19.623   4.483
60269W        W27052   5.288   8.759  13.447
60270W        W27053  20.700  43.553   2.323
60271W        W27054  25.529   6.040   2.754
60272W        W27055  36.685  30.532   2.298
60273W        W27056  19.478  42.576   4.279
60274W        W27057  19.403  33.621   4.200
60275W        W27058  37.826  43.380   0.882
60276W        W27059  18.022  11.703  11.566
60277W        W27060  36.565  43.567  11.534
60278W        W27061  15.372  31.777   4.253
60279W        W27062  30.367  21.136   3.616
60280W        W27063  11.437   7.396   2.836
60281W        W27064   4.958   1.944   0.281
60282W        W27065  20.804  22.284   0.076
60283W        W27066  40.455  42.001  13.369
60284W        W27067  17.839  37.060   2.823
60285W        W27068  11.193  29.621  12.909
60286W        W27069  39.861  19.128   4.655
60287W        W27070   5.319  32.675  11.597
60288W        W27071  23.838  29.668   5.061
60289W        W27072  31.737  29.557   3.174
60290W        W27073   3.861  44.279  14.354
60291W        W27074  44.953  43.382   4.311
60292W        W27075   0.823   2.965  12.366
60293W        W27076  18.732  36.013   1.745
60294W        W27077  23.909  18.718   4.219
60295W        W27078   2.910  34.872  11.999
60296W        W27079   0.087  24.666   3.553
60297W        W27080  38.004  16.035  14.733
60298W        W27081  16.099  33.591   4.220
60299W        W27082  11.907   1.094  13.324
60300W        W27083  44.867  34.372  10.649
60301W        W27084   4.973  39.281  12.992
60302W        W27085  28.557   3.971   3.279
60303W        W27086  42.997  22.712   2.843
60304W        W27087  30.862  34.005   2.757
60305W        W27088  17.303  20.118  13.734
60306W        W27089   5.280  15.476   4.160
60307W        W27090  28.796   1.439   3.949
60308W        W27091  32.385  15.334  13.539
60309W        W27092  41.880  41.468  14.465
60310W        W27093  16.232  25.184   4.832
60311W        W27094  44.865   7.634   5.292
60312W        W27095  42.075  21.972  11.150
60313W        W27096  21.756  18.715   0.270
60314W        W27097  11.779  31.827  10.488
60315W        W27098  10.040  16.604   2.038
60316W        W27099   8.841  32.425  11.039
60317W        W27100  10.219  15.764  13.410
60318W        W27101  24.735   7.403  11.994
60319W        W27102  42.543  38.707  11.839
60320W        W27103  15.895   5.974   5.190
60321W        W27104  26.740  26.990   0.273
60322W        W27105  31.959  24.108   1.186
60323W        W27106  42.306  20.728  14.906
60324W        W27107  40.878  16.332  11.459
60325W        W27108  42.789  41.819  10.618
60326W        W27109  30.067  25.114  14.989
60327W        W27110  36.323  15.711   5.020
60328W        W27111  16.361   3.176  12.891
60329W        W27112   8.263  10.060   0.672
60330W        W27113  10.381  42.599   0.229
60331W        W27114  13.693   5.425  14.759
60332W        W27115  12.663  36.793   3.932
60333W        W27116  38.415  31.563   4.041
60334W        W27117   8.225  34.436   3.299
60335W        W27118  35.559   9.035   0.296
60336W        W27119  16.353  25.485  13.059
60337W        W27120  10.953  14.729  11.118
60338W        W27121  29.975  10.673   3.089
60339W        W27122  24.961  37.424  13.014
60340W        W27123  33.623  12.662   4.960
60341W        W27124  15.580  29.709  10.926
60342W        W27125  35.409  11.790   2.662
60343W        W27126  34.309  35.391  12.689
60344W        W27127  18.520  17.743  10.164
60345W        W27128  33.760   1.712   3.674
60346W        W27129  34.178  14.269   0.551
60347W        W27130   6.787   3.208  14.244
60348W        W27131   3.883   6.506  14.691
60349W        W27132   5.898  33.882  14.012
60350W        W27133  14.731  31.233   0.152
60351W        W27134  11.874  18.373   4.800
60352W        W27135  28.935  34.497  12.601
60353W        W27136  39.932   1.724  13.077
60354W        W27137  15.864  31.997  14.045
60355W        W27138   8.882  16.423   1.842
60356W        W27139  40.315  24.951  11.149
60357W        W27140   0.023  19.356  12.562
60358W        W27141  42.553  12.252   1.812
60359W        W27142   8.260  13.312  11.662
60360W        W27143  30.008  43.409  11.238
60361W        W27144  23.514  20.604   4.119
60362W        W27145  44.265  34.527   1.215
60363W        W27146  21.453  21.102   0.204
60364W        W27147  32.681   0.959   2.562
60365W        W27148  10.243   5.225   4.578
60366W        W27149  40.111  36.991   2.598
60367W        W27150  28.035  21.648  14.401
60368W        W27151  37.993  19.825  11.002
60369W        W27152  24.787  18.204  11.533
60370W        W27153   8.111  11.050  10.161
60371W        W27154  18.965   4.673   0.398
60372W        W27155  33.553  25.751  13.486
60373W        W27156  34.362  16.899  11.098
60374W        W27157  16.263  15.200   9.883
60375W        W27158  23.253  24.733   0.339
60376W        W27159  43.625  13.190   0.961
60377W        W27160  33.497  24.803   5.921
60378W        W27161   4.695  19.769  11.978
60379W        W27162   9.023  18.668  11.130
60380W        W27163  18.756  25.075  12.471
60381W        W27164  11.646  43.861   1.352
60382W        W27165  28.084  17.076   3.129
60383W        W27166  26.132  42.261   1.782
60384W        W27167   6.473  27.171  11.065
60385W        W27168  23.118  34.393   2.206
60386W        W27169  10.364  16.701  13.897
60387W        W27170  15.153   7.378   4.762
60388W        W27171  30.251  23.430  12.119
60389W        W27172  26.253   9.166   0.899
60390W        W27173   3.820  27.240   0.217
60391W        W27174  11.154  25.549   4.174
60392W        W27175  16.672  40.260  14.248
60393W        W27176  17.510   9.314   4.646
60394W        W27177  37.875  37.917   1.485
60395W        W27178   7.399  34.400   0.767
60396W        W27179  16.330   5.523   4.271
60397W        W27180  33.433   0.369   3.374
60398W        W27181  36.776  19.060   1.337
60399W        W27182  26.523  44.262   2.072
60400W        W27183  33.659  34.666  13.978
60401W        W27184  29.684   3.679  14.056
60402W        W27185   0.377  21.523   2.717
60403W        W27186   4.817  18.109  13.538
60404W        W27187  29.308  38.603  11.473
60405W        W27188  43.229  27.916  12.896
60406W        W27189  19.548  17.484   3.749
60407W        W27190  39.934  10.038   9.646
60408W        W27191  18.570  36.875   2.112
60409W        W27192  36.806  29.254  11.929
60410W        W27193  41.588   7.333  11.146
60411W        W27194  22.158  19.864   2.383
60412W        W27195  26.659  31.977   3.073
60413W        W27196  19.620   1.327  13.787
60414W        W27197  39.436  27.552   3.969
60415W        W27198  15.372   6.842  11.162
60416W        W27199  32.079  43.157   2.235
60417W        W27200   7.591  35.825   1.318
60418W        W27201  17.289   2.742  14.273
60419W        W27202  26.490   7.817  13.949
60420W        W27203  40.513   7.620   2.463
60421W        W27204  44.873  15.890  12.964
60422W        W27205  42.380  37.402  13.187
60423W        W27206  43.403  18.322   0.232
60424W        W27207  41.976  34.118   4.627
60425W        W27208  14.355  16.327  11.021
60426W        W27209   3.774   0.013  12.864
60427W        W27210  31.532  41.774  13.442
60428W        W27211  14.078  13.157  10.651
60429W        W27212  41.537  28.555   2.336
60430W        W27213  31.693   2.818   0.645
60431W        W27214  38.483  18.642  12.775
60432W        W27215  24.028  20.567  10.429
60433W        W27216  20.698   7.903  12.051
60434W        W27217  43.935   9.373   2.354
60435W        W27218   4.834  26.198   0.817
60436W        W27219  26.467  19.660  14.018
60437W        W27220  16.876   2.776   0.117
60438W        W27221  23.130  12.163   1.231
60439W        W27222   2.348  14.472   3.808
60440W        W27223  37.398  30.582   4.697
60441W        W27224  41.981   2.219  11.813
60442W        W27225  14.099  36.227  12.640
60443W        W27226   2.443  15.370  10.415
60444W        W27227  19.607  19.057  14.377
60445W        W27228  24.861  38.225   0.613
60446W        W27229  18.761  17.219   5.179
60447W        W27230   2.495   5.828   0.038
60448W        W27231  31.842   4.229  10.935
60449W        W27232  27.818   0.284  10.702
60450W        W27233  14.560  16.614  14.393
60451W        W27234   6.838  21.595  13.829
60452W        W27235  19.211  38.040  11.488
60453W        W27236   0.504  18.504   2.279
60454W        W27237  26.698  32.814   4.559
60455W        W27238  24.589  32.817  13.101
60456W        W27239  11.452   8.309   3.160
60457W        W27240  22.784   8.342  14.666
60458W        W27241  15.274   8.261  10.688
60459W        W27242  12.243  37.594  13.144
60460W        W27243  25.913   6.917  13.954
60461W        W27244   8.085  36.371  14.776
60462W        W27245  22.704  24.698  12.512
60463W        W27246  25.390  14.169  11.133
60464W        W27247   2.386  44.879   4.698
60465W        W27248  22.304   4.849   0.258
60466W        W27249  43.850   1.647   3.260
60467W        W27250   7.634  37.460   3.807
60468W        W27251  28.841  37.530  13.389
60469W        W27252  23.971   9.659  14.984
60470W        W27253  36.615   3.489   0.489
60471W        W27254   2.397   2.370   0.639
60472W        W27255  19.248  35.679  11.229
60473W        W27256  16.975  38.122  11.885
60474W        W27257   3.058  25.566  11.544
60475W        W27258  30.876  18.714  13.354
60476W        W27259  40.071  16.811   2.682
60477W        W27260  11.572   5.666   9.822
60478W        W27261  25.736  28.874  12.936
60479W        W27262  31.314  13.085   0.912
60480W        W27263  14.686  31.915   2.640
60481W        W27264  39.106  16.568   2.824
60482W        W27265  26.530   4.761   0.480
60483W        W27266  25.143  17.747   0.708
60484W        W27267   9.784  41.490   1.378
60485W        W27268  17.762  36.075   3.607
60486W        W27269   6.906  44.000  14.493
60487W        W27270  19.303  39.760   1.221
60488W        W27271  20.847  10.753  12.040
60489W        W27272  23.557  25.217  12.123
60490W        W27273   1.499   0.043   0.852
60491W        W27274  23.724   2.771  13.945
60492W        W27275   4.442   2.021   0.270
60493W        W27276  29.865  39.872   4.060
60494W        W27277  22.942  14.769  13.291
60495W        W27278  18.005  26.662   4.710
60496W        W27279  26.912  42.779   0.863
60497W        W27280   5.000   2.233   0.890
60498W        W27281  29.075  26.256   4.462
60499W        W27282   0.181  18.935  11.219
60500W        W27283  44.548  43.981  14.712
60501W        W27284  19.046  11.233  11.570
60502W        W27285  38.091  40.486  11.229
60503W        W27286  27.958  21.846   4.765
60504W        W27287   3.178  12.738  10.642
60505W        W27288  17.277  22.737   0.066
60506W        W27289   2.969  19.990  11.082
60507W        W27290   8.760  29.084  13.861
60508W        W27291  19.770  25.564  12.537
60509W        W27292  21.485  17.151   2.162
60510W        W27293   7.682  33.189   0.433
60511W        W27294   6.254   1.301   4.075
60512W        W27295  35.786  41.869  12.441
60513W        W27296  16.901   0.502  11.869
60514W        W27297  12.376  35.570  10.752
60515W        W27298  11.271  31.346  11.547
60516W        W27299  13.326  15.762  13.346
60517W        W27300  17.362  39.764  12.511
60518W        W27301  24.971  35.347   1.755
60519W        W27302  34.915  11.657   0.493
60520W        W27303  17.581   3.335   3.636
60521W        W27304  37.436  27.601  13.001
60522W        W27305   0.203  26.673   1.257
60523W        W27306   4.657  42.489  14.871
60524W        W27307  18.603  27.982  13.182
60525W        W27308   5.868  40.922   3.365
60526W        W27309  30.186  33.717  14.423
60527W        W27310   0.930  22.561  12.590
60528W        W27311  12.164   3.477   1.822
60529W        W27312   7.644   3.312  11.419
60530W        W27313  21.162  22.024   0.355
60531W        W27314  14.604  27.694  13.936
60532W        W27315   7.358  35.399   1.562
60533W        W27316   5.386  23.246  14.843
60534W        W27317   7.805   0.946  10.356
60535W        W27318  37.894  14.755  14.218
60536W        W27319  22.027  41.417   3.611
60537W        W27320  11.628   0.671   4.170
60538W        W27321   4.372   8.323  10.744
60539W        W27322  34.524  16.372  14.541
60540W        W27323  15.888  31.660   3.578
60541W        W27324  44.740  22.746   2.450
60542W        W27325  27.686  29.620   0.885
60543W        W27326  11.409  32.188  13.954
60544W        W27327  44.918   9.412  14.889
60545W        W27328  22.366  44.933   9.861
60546W        W27329  33.338  23.935  13.862
60547W        W27330  17.230  37.218   0.958
60548W        W27331   5.569  33.537   3.020
60549W        W27332  37.611  32.446  10.824
60550W        W27333  21.904   8.133  14.371
60551W        W27334  36.353   7.853  12.161
60552W        W27335  37.506  28.948   2.342
60553W        W27336  33.344  37.274   1.903
60554W        W27337  24.927  21.811  14.759
60555W        W27338  24.044   1.515  12.781
60556W        W27339   4.332   5.699  10.674
60557W        W27340  41.247  23.540   4.648
60558W        W27341  33.787  12.792   3.117
60559W        W27342   4.865  42.974  14.879
60560W        W27343  33.563  17.821   2.413
60561W        W27344   4.547  42.914  11.441
60562W        W27345  37.589   7.661   2.343
60563W        W27346  17.580  34.508  10.613
60564W        W27347   5.888  28.903   1.518
60565W        W27348   3.678  18.646  13.925
60566W        W27349  17.981  31.179   4.492
60567W        W27350   3.455  24.174   1.874
60568W        W27351  30.221  42.745   4.633
60569W        W27352  17.792  25.690  13.403
60570W        W27353  36.436  18.776   3.844
60571W        W27354  17.365   6.733  12.896
60572W        W27355   0.900   1.423  12.293
60573W        W27356   9.854   3.739  10.799
60574W        W27357  15.128  16.560  11.466
60575W        W27358  27.126  15.308   3.392
60576W        W27359   7.279  21.000  11.916
60577W        W27360   7.108  18.572   0.468
60578W        W27361  39.721  37.620   3.177
60579W        W27362  27.236  15.621   1.622
60580W        W27363  34.687  40.862  12.935
60581W        W27364  29.067   7.388   2.226
60582W        W27365  24.705  36.419  13.824
60583W        W27366  12.389   0.887  13.386
60584W        W27367  41.829   1.475  12.986
60585W        W27368  25.539  18.090   1.630
60586W        W27369  35.910  41.355  12.473
60587W        W27370  17.130  27.708  10.772
60588W        W27371  44.991  37.678  10.997
60589W        W27372  41.504  30.654   2.320
60590W        W27373   5.322  34.019   3.730
60591W        W27374  38.020  42.481  13.310
60592W        W27375  43.462  34.286  12.594
60593W        W27376  34.458  38.620   4.060
60594W        W27377  30.481   9.214  14.061
60595W        W27378  20.302  39.966  11.515
60596W        W27379  19.136  39.890   3.235
60597W        W27380  14.884  26.597  12.564
60598W        W27381   0.677   5.275   2.852
60599W        W27382  27.760  14.684   5.045
60600W        W27383  20.351   2.439   4.573
60601W        W27384   3.864  43.303   4.105
60602W        W27385  19.287   6.762   2.387
60603W        W27386   4.480  16.857  13.574
60604W        W27387  19.875  30.389  11.627
60605W        W27388  36.847   5.339  14.935
60606W        W27389  31.772  40.726   3.607
60607W        W27390  12.263  34.546   2.179
60608W        W27391  29.933  15.602   0.763
60609W        W27392  24.959  31.952  11.112
60610W        W27393  39.154   2.307   3.664
60611W        W27394  30.483   2.519  11.122
60612W        W27395  14.826  11.718   3.715
60613W        W27396  42.846  34.301  10.618
60614W        W27397  26.986  32.516   0.931
60615W        W27398   4.354  20.115  14.464
60616W        W27399  18.981  21.799   4.613
60617W        W27400  26.763  37.244   5.164
60618W        W27401  33.225  15.291   2.676
60619W        W27402  39.814  30.219   0.081
60620W        W27403   9.126   6.411  14.042
60621W        W27404  15.365  40.316   0.937
60622W        W27405  29.405  29.059  14.828
60623W        W27406  34.308  11.301   2.135
60624W        W27407  18.336  11.219   1.844
60625W        W27408  21.444  27.610  11.301
60626W        W27409   7.532  38.262  12.848
60627W        W27410   8.153  31.629   2.314
60628W        W27411  25.699   6.364   0.643
60629W        W27412  21.159  20.684   0.362
60630W        W27413  30.979   4.001  10.772
60631W        W27414  13.329  25.653   1.152
60632W        W27415   6.152  29.981  10.786
60633W        W27416  15.108  27.649   4.095
60634W        W27417  44.960  15.250   4.715
60635W        W27418  12.675  18.612   2.806
60636W        W27419  26.545  11.871  10.534
60637W        W27420  17.716  30.381   4.025
60638W        W27421   1.743  33.052   0.282
60639W        W27422   6.637  10.081  11.087
60640W        W27423  30.754  15.390  12.991
60641W        W27424  22.256  25.650   3.053
60642W        W27425  44.025  17.244  10.640
60643W        W27426  32.094  32.910  10.965
60644W        W27427   5.750   8.830  10.667
60645W        W27428  31.752  11.066  12.121
60646W        W27429  11.906  33.774   2.738
60647W        W27430   6.372   1.515   1.849
60648W        W27431  11.204   1.487  12.561
60649W        W27432  12.102  14.559   3.256
60650W        W27433  12.309  32.074   1.195
60651W        W27434  18.794  16.615   1.665
60652W        W27435   7.933  35.603  10.730
60653W        W27436  40.518   4.316   1.407
60654W        W27437  22.994  12.087  11.211
60655W        W27438  41.130  12.300   3.162
60656W        W27439  43.861  37.424   1.206
60657W        W27440  28.904  21.466   3.238
60658W        W27441  10.195   7.799  14.975
60659W        W27442  34.862  23.128  14.692
60660W        W27443  40.305  44.746  13.785
60661W        W27444  44.297   9.396  12.461
60662W        W27445  43.940  31.448  10.962
60663W        W27446  39.242   7.265  13.585
60664W        W27447   5.828  28.436   0.103
60665W        W27448   9.260   4.845  11.921
60666W        W27449  11.634  22.044  12.897
60667W        W27450  31.095  28.127   2.170
60668W        W27451  20.707  41.295  12.447
60669W        W27452  37.598   4.814  12.100
60670W        W27453  42.939   4.632  12.945
60671W        W27454  18.678   5.221  12.326
60672W        W27455   3.640  25.689   4.391
60673W        W27456  34.740  39.948   4.075
60674W        W27457  29.534  31.393  12.522
60675W        W27458  21.504  27.083  11.019
60676W        W27459  14.239  39.787   0.698
60677W        W27460  18.279  10.757  11.563
60678W        W27461  43.051  10.750  14.869
60679W        W27462  13.694  19.875   2.221
60680W        W27463  29.716   1.560   3.259
60681W        W27464  13.652  31.265  11.220
60682W        W27465  36.339   4.038   2.717
60683W        W27466  28.243  29.459   2.693
60684W        W27467  25.827  41.247   3.778
60685W        W27468  31.032   1.659   4.094
60686W        W27469   9.876  40.461  11.993
60687W        W27470  44.258  18.280  12.554
60688W        W27471  22.117  22.082   3.167
60689W        W27472  37.330  17.285   1.867
60690W        W27473   3.868   8.975   3.874
60691W        W27474  15.684  13.831   3.613
60692W        W27475   9.391  13.084  14.000
60693W        W27476   0.328  17.854   3.039
60694W        W27477  10.538   3.658   3.367
60695W        W27478  11.462  21.819   4.864
60696W        W27479   7.905  16.137  14.885
60697W        W27480  19.019  34.541  14.893
60698W        W27481  24.574   2.301   0.486
60699W        W27482  33.999  43.040  10.672
60700W        W27483  41.212  28.117  13.843
60701W        W27484  17.790   0.976   3.747
60702W        W27485  27.434   0.013  10.425
60703W        W27486  44.937  43.526  12.030
60704W        W27487  44.415  40.550   3.288
60705W        W27488  37.779  15.273   1.932
60706W        W27489  27.719   5.599  11.267
60707W        W27490  33.535  31.643   0.302
60708W        W27491   9.683  43.905  12.094
60709W        W27492  22.463  31.911   4.067
60710W        W27493  40.000  25.178   4.693
60711W        W27494  39.499  22.006  11.477
60712W        W27495   1.054   9.708   3.768
60713W        W27496  36.444  41.018  13.938
60714W        W27497  27.663  19.647  11.069
60715W        W27498  41.245  27.037   0.697
60716W        W27499  17.608  24.156   3.628
60717W        W27500  17.724  27.601   4.580
60718W        W27501  22.232  22.594  13.323
60719W        W27502  42.416  17.368   0.233
60720W        W27503  43.486  35.948  12.873
60721W        W27504  39.555  39.232   3.884
60722W        W27505   7.467   7.274   1.233
60723W        W27506  25.385   3.678   4.159
60724W        W27507   4.814  23.425   1.156
60725W        W27508   9.542  31.600  11.847
60726W        W27509  36.749  26.677  11.579
60727W        W27510   5.589   6.675   1.138
60728W        W27511  12.937  25.922   2.357
60729W        W27512  29.311  20.669  13.596
60730W        W27513  37.188  15.419   1.797
60731W        W27514  13.985   0.284   4.385
60732W        W27515   3.205  29.949   0.299
60733W        W27516  36.358  43.533   2.715
60734W        W27517  11.885  14.762   2.831
60735W        W27518  32.152  38.042  14.426
60736W        W27519  29.560  17.166  12.441
60737W        W27520   5.026   2.744   0.812
60738W        W27521  27.723  18.099  12.629
60739W        W27522  20.784  42.231  12.498
60740W        W27523  27.816  26.588  10.579
60741W        W27524  41.685  16.076  10.371
60742W        W27525   2.362  19.354   4.038
60743W        W27526   2.195   8.977   2.716
60744W        W27527  15.039   0.488  12.557
60745W        W27528  36.488  43.217   1.483
60746W        W27529   3.345  43.378   1.201
60747W        W27530   7.129  18.330  13.277
60748W        W27531  28.897   6.411   4.115
60749W        W27532  24.115  18.709   1.911
60750W        W27533  25.711  26.201   1.300
60751W        W27534  25.123  41.548   0.442
60752W        W27535  23.659  22.720   3.328
60753W        W27536  10.252  23.168   2.834
60754W        W27537  12.907   9.333   3.567
60755W        W27538  41.948   5.640   0.636
60756W        W27539  27.476  19.132   4.393
60757W        W27540  32.923  32.850  12.103
60758W        W27541  12.297  20.049  14.698
60759W        W27542  37.630  40.835   3.698
60760W        W27543  38.249  21.129   4.163
60761W        W27544  30.507  35.941   3.874
60762W        W27545  13.707   7.125   1.476
60763W        W27546  20.273  32.666  12.141
60764W        W27547  23.985  13.686   3.340
60765W        W27548  14.208  10.911  14.508
60766W        W27549  12.715  24.336  12.572
60767W        W27550   3.839  23.544   4.247
60768W        W27551  26.950   2.098  14.416
60769W        W27552   7.684  41.654   4.148
60770W        W27553  36.840  23.295   0.836
60771W        W27554  13.076  32.144  11.224
60772W        W27555  39.062  23.495   0.233
60773W        W27556  12.805  27.489   1.232
60774W        W27557  30.806  11.606   3.583
60775W        W27558  18.153  10.094  11.225
60776W        W27559   4.374  10.086  13.322
60777W        W27560  24.652  25.465   1.814
60778W        W27561  20.652   5.824  10.044
60779W        W27562  16.770  12.795   0.862
60780W        W27563  35.421  44.336   0.599
60781W        W27564  24.947  23.445   3.703
60782W        W27565   1.562  26.110   3.729
60783W        W27566  39.956   8.758   0.031
60784W        W27567  26.295  42.334   5.290
60785W        W27568  11.384   5.232   4.903
60786W        W27569   8.189  37.877   2.168
60787W        W27570  27.729  25.882   1.837
60788W        W27571   4.952   9.999  10.214
60789W        W27572  25.268  11.705   1.725
60790W        W27573  25.178  38.617  13.185
60791W        W27574  36.846  10.652   2.283
60792W        W27575   2.379   6.708   1.815
60793W        W27576  21.019  18.729   0.020
60794W        W27577   3.117  39.480   1.703
60795W        W27578  24.572   4.747   1.007
60796W        W27579   3.416   4.346   3.340
60797W        W27580  10.161  24.799   4.327
60798W        W27581  11.095  23.164   3.703
60799W        W27582  14.319  12.649  14.487
60800W        W27583  27.075  39.902  13.846
60801W        W27584   8.642  36.947  12.408
60802W        W27585  13.995  12.346   4.002
60803W        W27586  38.039   1.333  11.880
60804W        W27587   3.020   4.960   1.236
60805W        W27588  18.225   3.254  11.554
60806W        W27589  39.328  36.810   3.764
60807W        W27590  33.635   6.969   0.388
60808W        W27591  22.330   7.834  11.536
60809W        W27592  27.101   8.428  13.462
60810W        W27593  31.600  36.817   3.828
60811W        W27594   3.029   7.731  12.917
60812W        W27595  18.670  18.742  12.034
60813W        W27596  32.357  40.410  10.815
60814W        W27597  14.642  29.201  12.986
60815W        W27598   8.903  16.403  14.746
60816W        W27599  44.284   3.190   4.081
60817W        W27600   2.257  43.444   3.164
60818W        W27601  41.825  12.844  12.550
60819W        W27602  39.423  14.574   4.909
60820W        W27603   1.580  12.802  13.897
60821W        W27604  38.459   2.358  12.304
60822W        W27605  39.373  44.532   1.389
60823W        W27606  18.973  18.130   4.261
60824W        W27607  17.606  11.782  11.269
60825W        W27608  29.444  23.101   1.397
60826W        W27609   4.367  17.666   2.068
60827W        W27610  33.875  16.525  14.981
60828W        W27611  38.527   2.312  14.314
60829W        W27612  29.662  31.924  13.424
60830W        W27613   5.965   0.705   1.406
60831W        W27614  38.557  11.189   4.673
60832W        W27615   5.936  15.289   4.670
60833W        W27616  31.894  40.590  11.072
60834W        W27617  32.676  36.070  11.218
60835W        W27618  41.766  10.103  12.911
60836W        W27619  15.661  34.287  13.183
60837W        W27620   2.008  40.908   1.239
60838W        W27621  13.291  23.223  13.318
60839W        W27622  37.126  35.523   0.308
60840W        W27623  35.169  12.748   0.876
60841W        W27624  43.294  42.591   1.196
60842W        W27625  20.972   7.135  10.854
60843W        W27626   6.397  37.532   1.873
60844W        W27627  38.675  12.427  11.913
60845W        W27628  22.574  25.696   3.988
60846W        W27629   8.590  32.003  11.885
60847W        W27630   0.261  25.906   0.810
60848W        W27631  37.107  16.683  10.597
60849W        W27632  11.858  15.535   0.429
60850W        W27633  44.847  37.466   0.621
60851W        W27634  23.684  42.117   0.861
60852W        W27635   8.800  34.099   4.656
60853W        W27636  17.176   8.126   2.680
60854W        W27637  13.830  41.019  12.013
60855W        W27638  19.697  25.150  10.110
60856W        W27639   8.246  34.309  12.516
60857W        W27640  34.351   2.186  12.092
60858W        W27641  17.149  16.187   2.774
60859W        W27642  23.870  19.622  11.175
60860W        W27643  23.013  14.568  12.031
60861W        W27644  30.177  34.697  13.446
60862W        W27645   8.483   5.796   1.717
60863W        W27646  34.080  10.292   4.659
60864W        W27647  29.134   1.878   3.836
60865W        W27648  30.918  39.857   3.266
60866W        W27649  36.415  43.079  11.548
60867W        W27650  18.082  21.767   4.463
60868W        W27651  44.295   4.873  10.547
60869W        W27652  13.874  24.267  11.121
60870W        W27653   7.242   4.384  14.707
60871W        W27654  39.489  19.752  14.782
60872W        W27655   1.280  32.083  11.211
60873W        W27656   1.536   0.016  10.827
60874W        W27657  43.428   2.722   0.375
60875W        W27658  44.114  33.285  10.997
60876W        W27659  26.052  11.097   4.549
60877W        W27660   8.683  37.231  10.649
60878W        W27661   5.022  44.438   4.499
60879W        W27662  39.128  25.946  12.974
60880W        W27663   5.650  35.138  11.179
60881W        W27664   9.262   7.146  11.223
60882W        W27665  40.067  38.354  14.908
60883W        W27666  40.681   5.343  11.274
60884W        W27667  40.874   8.363   4.752
60885W        W27668  17.006  34.327   2.240
60886W        W27669  11.344  35.062   1.003
60887W        W27670  32.954   3.820  13.394
60888W        W27671   5.286  44.325  14.820
60889W        W27672  19.509  43.826   2.727
60890W        W27673  30.138   1.961  12.060
60891W        W27674   3.697  25.126  10.223
60892W        W27675  31.596  20.392  12.944
60893W        W27676  31.654  19.546   1.568
60894W        W27677  20.215  22.957   3.671
60895W        W27678  39.549   6.031  12.475
60896W        W27679  10.838  41.251   0.992
60897W        W27680   9.428  29.477  12.650
60898W        W27681  41.582  24.081   0.802
60899W        W27682  23.144   5.618   1.019
60900W        W27683  31.825  17.404   3.137
60901W        W27684   2.043  38.875   0.878
60902W        W27685  30.419  26.719  11.608
60903W        W27686   7.805  37.307  10.752
60904W        W27687  33.452  20.466  11.445
60905W        W27688  23.510  25.389   1.340
60906W        W27689  31.121   2.925  14.278
60907W        W27690  30.167  27.163  12.616
60908W        W27691  19.132  12.560  14.339
60909W        W27692   1.200   2.288   4.437
60910W        W27693  44.443   8.412  11.601
60911W        W27694   1.264   4.270  13.865
60912W        W27695  18.554  40.997   4.371
60913W        W27696   3.931  33.939  10.756
60914W        W27697  15.749   2.389   4.595
60915W        W27698  24.729  10.905   0.488
60916W        W27699  31.906  34.014   1.609
60917W        W27700  13.970  26.133  11.144
60918W        W27701  13.530  33.018  11.080
60919W        W27702  28.869  31.405   2.884
60920W        W27703  21.741  37.445   3.933
60921W        W27704   6.174  20.745   3.264
60922W        W27705  11.249  26.543  10.413
60923W        W27706  25.207   9.990  13.142
60924W        W27707  44.892  35.843   3.752
60925W        W27708  14.295  34.063   2.891
60926W        W27709  10.799   0.803  11.911
60927W        W27710  11.174  44.710   0.466
60928W        W27711  39.760   0.946   4.899
60929W        W27712  41.488   6.639   1.378
60930W        W27713  20.522  37.469   0.041
60931W        W27714  31.629  13.677  11.588
60932W        W27715  17.526   7.441  11.458
60933W        W27716  30.860  34.226   5.252
60934W        W27717  26.348   2.769  12.001
60935W        W27718  35.058  41.448  14.787
60936W        W27719   7.942  10.178   2.095
60937W        W27720  34.595  20.354  12.900
60938W        W27721   7.212  16.859   4.080
60939W        W27722  18.705  23.990  13.827
60940W        W27723  18.683  17.231  14.439
60941W        W27724   6.905  34.095   2.655
60942W        W27725  21.312  13.827   4.678
60943W        W27726  24.685  33.395   0.435
60944W        W27727  38.109  33.910   1.529
60945W        W27728  31.118   8.366   1.780
60946W        W27729   6.080  25.823  11.081
60947W        W27730  39.940  11.360  13.251
60948W        W27731  41.696   8.960   2.473
60949W        W27732  23.586  40.793  12.324
60950W        W27733  31.445   0.009   2.323
60951W        W27734  22.798  31.518   0.330
60952W        W27735  15.033  26.225   4.522
60953W        W27736   4.139  41.279  14.953
60954W        W27737  27.691  15.705   0.394
60955W        W27738  41.374  15.251  11.854
60956W        W27739  28.650   9.394  11.581
60957W        W27740  20.591  12.363  11.371
60958W        W27741  22.661   7.719   0.250
60959W        W27742  38.798  29.572  12.025
60960W        W27743  26.716  20.995  14.558
60961W        W27744  41.794  22.266   4.064
60962W        W27745  20.252  36.065  11.470
60963W        W27746  10.139   3.328   2.182
60964W        W27747  43.771  22.911   4.629
60965W        W27748  44.933   7.886  14.777
60966W        W27749   5.054   0.454  11.895
60967W        W27750  32.860  17.764  13.067
60968W        W27751   8.603  38.010   2.758
60969W        W27752  34.348   6.456   0.908
60970W        W27753  13.701   2.367   1.402
60971W        W27754  23.415   6.173   0.225
60972W        W27755  21.566   4.958  12.716
60973W        W27756  27.874  44.343  11.178
60974W        W27757  41.019  23.696  11.715
60975W        W27758  21.400  37.488   4.675
60976W        W27759  25.931  43.916  10.240
60977W        W27760  23.132  31.043   3.856
60978W        W27761  28.606  33.137   2.939
60979W        W27762  16.268  44.399   2.779
60980W        W27763  30.150   6.265  13.651
60981W        W27764   9.732  34.349  10.617
60982W        W27765   1.033  44.833   0.766
60983W        W27766  41.459  19.985  10.851
60984W        W27767  10.211  40.255  12.326
60985W        W27768  35.658  30.113  11.946
60986W        W27769  24.177   6.934   3.242
60987W        W27770   8.888  10.861   3.781
60988W        W27771  16.540  40.516  14.687
60989W        W27772  32.500  31.201   3.728
60990W        W27773  21.802   0.416   1.930
60991W        W27774   2.956  24.203  13.390
60992W        W27775  23.296   3.986   1.183
60993W        W27776  17.471  32.252  10.771
60994W        W27777  28.675  17.555   2.176
60995W        W27778  13.098  30.562  13.841
60996W        W27779  44.062  14.593   3.097
60997W        W27780  26.612   0.973  11.937
60998W        W27781  30.606  40.565   2.839
60999W        W27782   9.360  11.770   4.621
61000W        W27783   3.434  16.169   1.349
61001W        W27784   1.039   3.604   2.364
61002W        W27785  14.743  12.801  10.638
61003W        W27786   4.617  17.247   0.574
61004W        W27787   7.795  34.062   0.797
61005W        W27788   2.990   4.864  10.600
61006W        W27789  38.369  34.023  11.023
61007W        W27790   7.928  35.457   1.408
61008W        W27791  33.724  31.647   2.856
61009W        W27792   2.616  19.140  11.257
61010W        W27793  42.069  41.891   5.302
61011W        W27794  16.626  43.628   0.081
61012W        W27795  34.868   1.089   4.621
61013W        W27796  35.373  21.051  13.828
61014W        W27797  20.709  10.822   2.517
61015W        W27798   4.913  42.159  13.036
61016W        W27799  31.374   9.809  12.916
61017W        W27800  27.632  20.471   3.686
61018W        W27801  31.576  21.303   3.211
61019W        W27802  18.123  15.377   3.615
61020W        W27803  40.401  27.468   4.324
61021W        W27804  30.445   7.589  14.892
61022W        W27805  11.141   6.000   1.160
61023W        W27806   9.094  22.954   2.594
61024W        W27807   1.715  44.002  14.087
61025W        W27808   7.405  37.994   0.653
61026W        W27809  18.669  19.074   4.658
61027W        W27810  11.513  11.140  13.998
61028W        W27811  31.469   0.056  12.898
61029W        W27812  23.097  20.272   4.078
61030W        W27813  23.231  22.665  14.517
61031W        W27814  44.906   7.474   1.814
61032W        W27815  25.086  39.249   1.370
61033W        W27816   1.487   9.290   0.205
61034W        W27817   3.727  35.651  11.224
61035W        W27818  40.252  32.965   4.252
61036W        W27819  33.537  21.497   3.044
61037W        W27820  30.835  33.983   3.676
61038W        W27821  32.704  44.248  13.940
61039W        W27822  21.729  10.598   5.022
61040W        W27823  36.409   2.950  13.771
61041W        W27824  42.486  20.715  12.515
61042W        W27825   2.907  34.199   2.287
61043W        W27826  29.005  18.629  12.433
61044W        W27827  32.873   8.435   0.939
61045W        W27828  20.104   4.967  13.932
61046W        W27829   1.710  18.978  13.033
61047W        W27830  35.496  30.891   2.775
61048W        W27831   6.462  29.221  11.138
61049W        W27832  13.578  29.096  14.541
61050W        W27833  28.606  42.241   1.770
61051W        W27834  15.221   7.655   2.361
61052W        W27835  28.690   0.933  12.619
61053W        W27836  31.082   2.837   4.311
61054W        W27837  27.949  12.252  12.130
61055W        W27838  28.125  24.524   3.818
61056W        W27839   5.051  18.189   0.922
61057W        W27840  33.592  13.725  11.513
61058W        W27841  34.318  39.452  14.933
61059W        W27842  24.209  29.415   4.172
61060W        W27843  41.609  16.139   3.616
61061W        W27844  15.259  31.370   0.251
61062W        W27845  28.620  10.583  11.105
61063W        W27846  20.076  12.613  11.668
61064W        W27847  17.183   1.860  11.292
61065W        W27848  41.495   7.895  11.193
61066W        W27849  25.148  11.680   2.832
61067W        W27850  18.228  27.967   3.065
61068W        W27851  13.087  25.927  13.854
61069W        W27852  35.053   0.457   1.143
61070W        W27853  24.568  43.466  11.963
61071W        W27854   2.807  21.222  11.546
61072W        W27855   2.798  17.131   1.068
61073W        W27856  36.565   0.655  13.287
61074W        W27857   8.313  29.140  10.740
61075W        W27858  23.499   5.553   4.121
61076W        W27859  26.190  19.723   0.379
61077W        W27860   7.308  20.993   2.149
61078W        W27861  24.048  27.971   1.774
61079W        W27862  41.953   9.392   3.563
61080W        W27863  24.822  20.738   2.300
61081W        W27864  29.207  44.275  14.861
61082W        W27865  20.298   0.748   0.952
61083W        W27866   2.441   5.802  11.119
61084W        W27867  30.241   9.709  11.645
61085W        W27868  16.854   3.020  12.230
61086W        W27869  16.096  25.215   1.290
61087W        W27870  28.122   6.401   5.101
61088W        W27871  34.519  38.179  12.533
61089W        W27872  26.346  43.800   1.848
61090W        W27873   9.293  13.271  10.677
61091W        W27874  38.308  15.336   1.896
61092W        W27875  14.246  41.969  14.971
61093W        W27876  41.595  18.328   3.768
61094W        W27877  31.331   4.293  11.105
61095W        W27878  22.591   3.398  13.425
61096W        W27879  11.096  38.444  13.414
61097W        W27880  16.369  14.739  14.864
61098W        W27881  21.668  37.473  11.522
61099W        W27882   3.952  40.463  10.036
61100W        W27883  15.186  17.404   0.476
61101W        W27884  26.710  34.670   2.173
61102W        W27885   4.626  40.293   4.272
61103W        W27886  25.655  17.378  10.686
61104W        W27887  10.952   1.557  10.431
61105W        W27888  44.438   1.860  14.360
61106W        W27889  12.032  28.589   3.621
61107W        W27890  17.171  11.192   4.374
61108W        W27891  34.622   9.597  12.417
61109W        W27892  22.322  26.040  13.538
61110W        W27893  13.245  27.755   1.901
61111W        W27894   8.196   7.755   2.596
61112W        W27895  15.816  17.238   0.470
61113W        W27896   8.697  20.993   3.347
61114W        W27897  38.138  32.595  12.541
61115W        W27898  31.230  33.672  13.836
61116W        W27899  44.458   7.635  13.884
61117W        W27900  33.929  26.234   4.955
61118W        W27901  16.331   8.311  10.678
61119W        W27902   0.911  10.565  11.579
61120W        W27903  31.834  20.439   3.219
61121W        W27904  14.251  24.735   4.207
61122W        W27905  33.630  35.700   4.179
61123W        W27906  11.665  38.842   1.087
61124W        W27907  22.945  44.026   2.861
61125W        W27908  11.978  21.564  13.983
61126W        W27909  26.107  28.685  13.769
61127W        W27910   0.398  28.389  11.312
61128W        W27911   3.949  33.608  12.174
61129W        W27912  20.287  37.062  14.325
61130W        W27913   5.817  31.483   0.412
61131W        W27914  42.724  24.056  11.601
61132W        W27915   9.939  18.101  12.463
61133W        W27916  39.997  37.356   4.643
61134W        W27917  14.086  43.522  11.619
61135W        W27918  12.531  15.563   0.787
61136W        W27919   4.729  38.101   1.319
61137W        W27920   4.191   8.102   4.564
61138W        W27921   9.064  33.225  14.252
61139W        W27922  40.383  40.586   0.445
61140W        W27923  13.200  30.190  11.259
61141W        W27924  37.104  15.234   2.297
61142W        W27925  36.886   1.412  14.647
61143W        W27926  13.147  37.408   1.356
61144W        W27927  18.092  15.347  14.448
61145W        W27928  39.599  32.072   3.313
61146W        W27929  10.940   8.797   3.992
61147W        W27930  42.812  15.856   4.422
61148W        W27931  21.300  30.066   2.315
61149W        W27932  27.918  23.775   4.959
61150W        W27933  12.411  23.257   2.139
61151W        W27934  31.361  13.957   1.412
61152W        W27935  22.430  11.613  12.640
61153W        W27936   6.873  32.133  14.484
61154W        W27937  39.358   6.661  14.926
61155W        W27938   9.566   6.093  13.835
61156W        W27939  15.035  36.307   1.616
61157W        W27940   6.990  32.045  11.116
61158W        W27941  42.464  33.076   1.888
61159W        W27942  26.072  41.985   2.190
61160W        W27943  12.641  42.878   2.330
61161W        W27944  36.456  19.311  13.488
61162W        W27945  29.707  24.614  11.376
61163W        W27946  26.674  13.658  12.900
61164W        W27947  17.584  38.190   3.673
61165W        W27948   8.219  30.666   4.409
61166W        W27949   0.585  42.024   1.258
61167W        W27950  35.776   5.343  14.831
61168W        W27951  17.180   9.628  10.780
61169W        W27952  32.780  24.515   0.985
61170W        W27953   1.772  32.341  14.781
61171W        W27954  11.088  15.584  14.934
61172W        W27955  33.672  11.894  12.879
61173W        W27956   6.190  32.105  10.603
61174W        W27957  10.669   3.739   0.508
61175W        W27958  42.753  42.323   1.305
61176W        W27959   2.320  41.702  11.991
61177W        W27960   4.313  37.187   4.095
61178W        W27961  19.100  21.050   3.301
61179W        W27962  41.749  11.582   1.374
61180W        W27963  32.857   1.679   2.667
61181W        W27964  29.704  17.648  11.512
61182W        W27965  31.073  19.529  11.378
61183W        W27966  42.303   4.884  12.003
61184W        W27967  32.190  21.993   3.266
61185W        W27968  20.904  28.765   4.499
61186W        W27969  33.972  31.605   3.653
61187W        W27970  28.179  17.078  13.900
61188W        W27971  40.766  13.017  10.266
61189W        W27972  14.616   5.801   3.601
61190W        W27973  15.229  28.025   3.130
61191W        W27974  27.920  20.380   0.318
61192W        W27975  35.023  42.507  13.475
61193W        W27976  28.627  43.489   3.059
61194W        W27977  22.649  33.781   5.012
61195W        W27978   3.636   1.560  11.989
61196W        W27979  31.125   7.309  12.520
61197W        W27980  30.575   0.683   2.714
61198W        W27981  38.914  31.422  12.482
61199W        W27982   3.180  17.665   2.835
61200W        W27983  42.384   7.660  12.402
61201W        W27984  27.671  13.179   3.362
61202W        W27985  43.685  38.994   3.658
61203W        W27986  18.582   8.714  10.780
61204W        W27987   1.783   5.779  12.410
61205W        W27988  21.123  35.038   1.940
61206W        W27989  23.270  43.393  13.990
61207W        W27990  11.183  16.319   2.463
61208W        W27991  30.028  27.742  11.566
61209W        W27992  38.718  10.667  11.532
61210W        W27993  13.193  42.369  13.554
61211W        W27994  41.486  33.486   3.095
61212W        W27995  44.510  24.677   4.872
61213W        W27996  14.478  14.188  12.944
61214W        W27997  19.411  20.934   1.216
61215W        W27998  18.748   5.638  11.030
61216W        W27999  23.687  16.632  14.961
61217W        W28000  29.590  33.658  12.955
61218W        W28001  20.641   3.454   0.888
61219W        W28002  32.646  12.338   3.305
61220W        W28003  40.003   1.603   4.901
61221W        W28004  32.330  31.798  14.516
61222W        W28005  33.537  42.371  13.282
61223W        W28006  37.342  23.707  12.210
61224W        W28007   3.297   2.738   1.776
61225W        W28008   0.659   4.167  10.918
61226W        W28009   3.926  18.155   4.167
61227W        W28010  12.752  18.074   1.625
61228W        W28011   8.757  35.165  13.969
61229W        W28012  37.634  12.800   0.206
61230W        W28013  40.706  34.484   9.770
61231W        W28014  27.072   8.769   4.674
61232W        W28015  44.491  23.666   4.633
61233W        W28016   9.975  11.024   5.904
61234W        W28017  44.210  32.801   3.510
61235W        W28018  10.587  11.622  10.847
61236W        W28019  11.614   8.433   2.685
61237W        W28020  33.564   7.457   1.242
61238W        W28021  39.867  16.467  12.495
61239W        W28022   0.823   9.658  11.418
61240W        W28023  41.891  22.013  11.993
61241W        W28024  17.675  15.581  11.959
61242W        W28025  18.134  35.535  12.582
61243W        W28026   6.292   8.862   4.087
61244W        W28027  25.535   7.404   4.810
61245W        W28028  38.831  37.642   3.409
61246W        W28029  18.071   3.758   0.974
61247W        W28030  19.560   7.174   0.312
61248W        W28031  24.189  35.935   4.874
61249W        W28032  33.557  36.093   1.277
61250W        W28033  43.850  12.607   2.366
61251W        W28034  26.667  32.815   2.760
61252W        W28035  43.542  38.426  12.442
61253W        W28036   6.942   2.732   1.847
61254W        W28037  36.951  20.265  12.975
61255W        W28038  40.889  38.886   0.219
61256W        W28039  21.140  33.366   4.610
61257W        W28040  35.617  39.326  11.997
61258W        W28041  36.473  28.118  12.218
61259W        W28042  42.805   3.779   2.208
61260W        W28043  23.847  41.961   2.356
61261W        W28044  38.005  29.090   4.118
61262W        W28045  38.381  33.460  13.426
61263W        W28046  39.850  23.757  10.695
61264W        W28047  27.005   3.154  14.344
61265W        W28048  23.956   1.006   4.601
61266W        W28049  40.369   5.265  11.663
61267W        W28050  39.791  30.716  14.870
61268W        W28051  27.088  23.621  11.441
61269W        W28052   8.755  18.206   0.931
61270W        W28053  26.910   6.874   2.654
61271W        W28054   1.799   0.965   2.279
61272W        W28055  16.582  19.453  11.180
61273W        W28056  12.651   7.725  14.776
61274W        W28057  43.010  24.029  13.534
61275W        W28058   8.746  18.224  14.877
61276W        W28059   3.605   1.534   2.084
61277W        W28060  24.086   9.709   0.472
61278W        W28061  33.977   5.308   1.343
61279W        W28062   1.404  38.402   1.705
61280W        W28063  25.259  31.543  11.100
61281W        W28064  18.721  15.934  13.755
61282W        W28065   1.699  42.224  12.360
61283W        W28066  25.037  15.798   2.402
61284W        W28067   4.899  22.224   4.812
61285W        W28068   2.186   2.652  14.360
61286W        W28069   7.865   1.929  13.059
61287W        W28070   4.750  25.521  13.762
61288W        W28071  38.620  24.486   2.624
61289W        W28072   4.796  22.614  11.912
61290W        W28073   0.734  44.561  13.492
61291W        W28074  27.099   9.241   0.465
61292W        W28075  25.779  12.019   0.934
61293W        W28076  36.111   3.657  11.186
61294W        W28077  30.586   1.920   2.162
61295W        W28078  26.663  13.334   5.362
61296W        W28079  41.276   1.040   2.943
61297W        W28080   5.361  44.364  10.727
61298W        W28081  33.412  27.528  12.421
61299W        W28082   9.447  14.731  11.735
61300W        W28083  41.799  22.594   3.208
61301W        W28084  29.143  31.959  14.950
61302W        W28085  34.770  21.406  10.263
61303W        W28086  38.873  14.161  13.376
61304W        W28087  33.883  18.338   3.691
61305W        W28088  36.550  36.084  14.249
61306W        W28089   4.662  35.263   3.053
61307W        W28090   9.667  25.285   0.760
61308W        W28091  26.888  13.700   4.834
61309W        W28092   7.242  13.383  14.636
61310W        W28093  43.891  18.650   4.985
61311W        W28094  33.596  35.383  10.527
61312W        W28095  38.378  30.421  12.068
61313W        W28096  44.314  23.580  13.396
61314W        W28097  15.817  34.052  10.658
61315W        W28098  14.751  20.281  13.998
61316W        W28099  18.763  19.218   1.404
61317W        W28100  20.125  16.574   0.331
61318W        W28101   8.811  11.380   3.688
61319W        W28102   4.473  28.634   2.201
61320W        W28103  42.369  10.185   2.776
61321W        W28104  44.902  33.772  12.964
61322W        W28105  14.677  12.709  13.565
61323W        W28106  39.510  43.888  12.864
61324W        W28107  41.488  34.066   2.412
61325W        W28108  13.348  40.386   1.240
61326W        W28109  40.332  14.574  14.348
61327W        W28110  12.875   7.278  14.555
61328W        W28111  16.795   0.480   4.434
61329W        W28112   6.857  23.644   0.918
61330W        W28113   7.133  22.049  12.124
61331W        W28114  31.282  31.351   4.065
61332W        W28115  14.201  11.823  14.466
61333W        W28116  21.185  29.571   2.357
61334W        W28117  15.230  22.856   0.528
61335W        W28118  38.816  30.656  11.947
61336W        W28119  40.289  34.182  14.021
61337W        W28120  42.021  11.772  11.156
61338W        W28121  21.414   2.965  12.581
61339W        W28122  11.945  26.207   1.555
61340W        W28123   7.193  35.497   3.504
61341W        W28124  25.760  39.395  12.695
61342W        W28125  37.239  16.297  11.996
61343W        W28126  37.957   6.616   0.010
61344W        W28127   5.292  28.117  13.817
61345W        W28128  29.393  14.945   0.311
61346W        W28129  17.668   8.902  10.825
61347W        W28130   0.519  27.215  14.811
61348W        W28131  31.833  13.720   3.418
61349W        W28132   0.381  25.984  12.827
61350W        W28133  28.946  23.544   1.728
61351W        W28134  41.325  39.230  12.401
61352W        W28135  11.598  14.350  13.291
61353W        W28136  36.870  22.001   2.629
61354W        W28137  41.380  38.930   3.201
61355W        W28138  13.809  43.748   1.328
61356W        W28139  27.728  38.778   3.312
61357W        W28140  22.297  33.436  11.099
61358W        W28141  11.211   1.690   2.844
61359W        W28142  14.918   0.532   2.645
61360W        W28143   1.403   1.930  14.384
61361W        W28144  23.718  34.454  13.000
61362W        W28145   6.287  34.693  13.996
61363W        W28146  10.691  29.985  10.679
61364W        W28147  29.802   6.083  14.472
61365W        W28148  16.295  31.521   3.261
61366W        W28149  26.423   1.274   0.946
61367W        W28150  22.698  15.644  12.379
61368W        W28151   4.234  21.338   4.251
61369W        W28152  36.481   0.387   0.668
61370W        W28153  38.256   3.145   4.217
61371W        W28154  35.362  24.574  14.678
61372W        W28155   3.331  36.760  11.165
61373W        W28156  39.485  20.285  10.707
61374W        W28157  28.792  34.462   1.052
61375W        W28158   6.886  23.397   2.902
61376W        W28159   6.712  32.609  12.827
61377W        W28160  26.980  18.589  11.530
61378W        W28161   7.899  17.602   4.122
61379W        W28162  41.931  36.687  13.314
61380W        W28163  17.265  42.836  10.826
61381W        W28164   4.953  23.295   3.986
61382W        W28165  29.687   1.435  13.949
61383W        W28166  23.513  35.325   1.225
61384W        W28167  31.202  44.241  11.152
61385W        W28168  34.902  24.471  12.542
61386W        W28169   3.734  28.635  13.498
61387W        W28170   0.871   2.915  14.178
61388W        W28171   5.923  14.276   4.467
61389W        W28172   4.896   6.689   0.505
61390W        W28173  26.949  20.784   0.426
61391W        W28174  27.079  22.492   2.370
61392W        W28175  29.062   6.325   0.268
61393W        W28176  35.808   9.299   0.683
61394W        W28177  12.281   4.884   4.312
61395W        W28178  13.051  30.282   1.402
61396W        W28179  44.856  12.587   3.121
61397W        W28180   4.509  34.112  11.699
61398W        W28181  12.174  34.086   2.394
61399W        W28182  31.831   4.429   4.545
61400W        W28183   3.942  19.237   4.639
61401W        W28184   6.828   0.215  14.772
61402W        W28185  21.521  30.521  12.609
61403W        W28186   2.929   4.922  12.198
61404W        W28187   3.243  22.802   5.056
61405W        W28188  40.568  44.409   4.539
61406W        W28189   5.951  23.572  10.771
61407W        W28190  39.804  11.771  12.966
61408W        W28191  43.970   3.857  10.701
61409W        W28192  44.742  42.931   4.557
61410W        W28193  20.348  10.808  12.089
61411W        W28194  34.802  14.328  13.748
61412W        W28195  32.165  33.199   3.631
61413W        W28196  18.657  29.741  12.922
61414W        W28197  29.621  21.553   3.773
61415W        W28198  23.691  41.596   0.642
61416W        W28199   2.908  19.001   2.304
61417W        W28200  13.750  39.319  12.492
61418W        W28201  43.285  16.776  12.846
61419W        W28202  27.150  27.594  11.882
61420W        W28203   7.922   1.300   1.738
61421W        W28204  10.549  44.228   0.988
61422W        W28205  20.866  12.895   4.590
61423W        W28206  42.841  16.538   2.756
61424W        W28207   2.946  43.917   3.164
61425W        W28208  31.651  29.073   1.333
61426W        W28209  44.733  41.523   2.782
61427W        W28210  40.474   8.307   2.606
61428W        W28211   9.571   8.787  10.118
61429W        W28212  15.110  41.343  14.977
61430W        W28213  20.306  28.691   1.786
61431W        W28214  15.307  35.214   0.907
61432W        W28215  14.401   5.683   1.300
61433W        W28216  31.414   5.715  12.922
61434W        W28217  22.869  16.363   2.707
61435W        W28218   3.218  10.802  12.851
61436W        W28219  44.891   3.799   4.224
61437W        W28220  23.155  32.938   1.005
61438W        W28221  36.895   4.600   2.774
61439W        W28222  32.548  40.303   3.645
61440W        W28223  26.722  44.961  11.140
61441W        W28224  13.578  13.251   0.813
61442W        W28225  26.717   7.369  13.481
61443W        W28226   6.608  30.969  13.477
61444W        W28227  39.071  30.519   2.147
61445W        W28228  11.936  16.304   2.683
61446W        W28229  30.882  11.776  14.547
61447W        W28230   1.968  43.369   3.874
61448W        W28231  10.197  36.206   4.295
61449W        W28232  16.988  13.918  13.465
61450W        W28233  26.280  26.253   3.851
61451W        W28234  15.056  20.441   1.310
61452W        W28235  12.155  21.113   2.798
61453W        W28236  26.530  26.662   5.041
61454W        W28237  37.394  35.641   1.838
61455W        W28238  16.493  14.481   9.893
61456W        W28239  32.020  11.019   0.828
61457W        W28240  31.104   5.637  12.509
61458W        W28241  29.504   4.059   3.348
61459W        W28242   9.869  31.057  11.572
61460W        W28243  22.299  44.377  11.882
61461W        W28244  38.543   4.810  12.473
61462W        W28245  22.838  24.186  14.295
61463W        W28246  33.641  31.037  13.586
61464W        W28247  42.323   0.977   4.593
61465W        W28248  14.901   4.789   3.644
61466W        W28249   4.385  17.083   2.238
61467W        W28250   7.428   4.549   2.730
61468W        W28251  10.109  44.414  11.050
61469W        W28252  16.135  25.098   3.856
61470W        W28253  34.100   1.802   3.245
61471W        W28254   2.224  23.264   1.287
61472W        W28255  19.502  10.353   1.392
61473W        W28256  31.040  21.667   3.699
61474W        W28257   8.450  10.744  14.781
61475W        W28258   3.262  25.445  12.920
61476W        W28259   4.884  39.013  10.598
61477W        W28260  31.161  14.608   4.963
61478W        W28261  15.349  22.240  13.960
61479W        W28262  24.571  31.098   0.375
61480W        W28263  24.547  34.867  10.703
61481W        W28264   8.144   4.805   4.736
61482W        W28265  12.383   2.450   3.290
61483W        W28266  34.879  29.391   3.691
61484W        W28267  23.979  23.590   2.585
61485W        W28268  20.568   0.905  13.640
61486W        W28269   9.734  43.825   3.298
61487W        W28270  10.619  16.666  12.911
61488W        W28271  29.941  40.306   1.883
61489W        W28272  43.338  19.067  14.458
61490W        W28273  43.546  39.890  14.941
61491W        W28274  36.322  17.521  14.898
61492W        W28275  17.566   0.967  11.408
61493W        W28276   1.331  33.394   2.074
61494W        W28277  43.865  20.490  13.855
61495W        W28278  30.541  34.999   0.233
61496W        W28279  35.868   5.808  12.840
61497W        W28280  29.022   4.832   3.860
61498W        W28281  38.116   2.324   3.822
61499W        W28282  10.785  10.340   4.009
61500W        W28283  42.339   5.701   2.589
61501W        W28284   1.959  25.922   1.416
61502W        W28285   5.176  38.938   0.975
61503W        W28286  41.456   4.999   1.881
61504W        W28287  26.963   1.765  10.619
61505W        W28288  36.178  12.766   0.820
61506W        W28289  39.798  42.963  12.390
61507W        W28290  32.318  18.863  14.890
61508W        W28291  44.412  42.643  14.934
61509W        W28292  30.057  12.255  11.875
61510W        W28293   2.302  29.797   3.210
61511W        W28294  33.144  16.166   2.277
61512W        W28295  37.510  15.819  13.940
61513W        W28296  28.085  24.034   4.549
61514W        W28297  27.353  10.582   2.397
61515W        W28298  44.340  17.716   1.410
61516W        W28299  43.860  44.792  14.967
61517W        W28300  42.251   4.717  14.464
61518W        W28301  23.526   6.820   2.802
61519W        W28302   3.406  40.683   1.872
61520W        W28303   4.755  13.311   1.237
61521W        W28304  11.550  40.884   1.384
61522W        W28305  43.721  38.853  14.456
61523W        W28306  39.529   5.393   1.190
61524W        W28307   0.684  13.746  12.352
61525W        W28308  13.147   4.966  12.806
61526W        W28309  21.010  24.411  13.371
61527W        W28310  14.675  14.484   0.960
61528W        W28311  13.747   5.003  13.436
61529W        W28312   5.851  18.074  10.601
61530W        W28313   1.368  16.640  12.365
61531W        W28314  15.420  14.156   2.485
61532W        W28315  24.166  24.201   2.342
61533W        W28316  26.739  42.401  12.073
61534W        W28317  39.883  39.886   2.256
61535W        W28318  17.647  40.262  12.245
61536W        W28319  24.831  24.080  14.879
61537W        W28320  19.658  20.106  12.177
61538W        W28321   1.686  10.156   0.712
61539W        W28322  35.454   7.702  11.581
61540W        W28323   5.974  10.329   3.356
61541W        W28324  28.190  13.131  12.378
61542W        W28325   6.166   0.204   0.428
61543W        W28326   2.537  12.735   2.380
61544W        W28327  31.899   8.299   4.940
61545W        W28328   1.047  14.586  10.257
61546W        W28329  30.680  41.064   0.373
61547W        W28330  25.863   2.661   2.951
61548W        W28331  33.111   8.808  11.368
61549W        W28332  29.020  31.191  11.448
61550W        W28333  41.462  13.070   3.709
61551W        W28334  38.324  15.140  14.507
61552W        W28335  43.456  35.857  11.973
61553W        W28336  33.436  11.354   2.898
61554W        W28337   8.706  29.021   0.287
61555W        W28338   6.587   5.191  12.989
61556W        W28339  23.590  14.775  12.859
61557W        W28340  24.147  18.723  11.873
61558W        W28341  39.711   2.644  12.646
61559W        W28342  34.045  11.082  12.489
61560W        W28343  18.086  41.631  14.381
61561W        W28344  21.822  36.378   4.614
61562W        W28345  15.591  12.656   1.337
61563W        W28346  44.950  37.197  11.142
61564W        W28347  26.709   5.401   0.989
61565W        W28348  25.211  17.690   1.671
61566W        W28349  42.723   6.799   1.919
61567W        W28350  29.733  27.220   4.118
61568W        W28351   7.395   1.053   3.123
61569W        W28352  41.354  29.811  10.761
61570W        W28353   2.697  25.550  11.924
61571W        W28354  11.868  33.159   2.019
61572W        W28355  40.344   0.340   2.195
61573W        W28356  32.162  33.118  11.423
61574W        W28357  25.093  18.186  13.536
61575W        W28358  31.820  29.640   4.043
61576W        W28359  42.993  18.995  11.232
61577W        W28360  22.152  23.995  10.222
61578W        W28361  23.058   8.191   4.046
61579W        W28362  20.677  42.785   2.767
61580W        W28363   1.288  31.787  13.917
61581W        W28364  19.232   9.469  13.895
61582W        W28365   4.254  31.691  11.556
61583W        W28366  29.527   8.935  10.711
61584W        W28367  22.528   3.781  12.040
61585W        W28368  32.608  41.939  14.053
61586W        W28369  13.323  34.319   1.830
61587W        W28370  38.335   2.810  13.051
61588W        W28371  25.578  22.187  11.742
61589W        W28372  11.310  25.717   2.779
61590W        W28373   4.035  26.530   1.932
61591W        W28374  38.531  32.280  12.396
61592W        W28375  14.923   5.905   2.263
61593W        W28376  26.163  37.979   3.698
61594W        W28377  16.731  39.969   4.623
61595W        W28378  31.044  10.068   1.635
61596W        W28379  35.561  28.994  14.374
61597W        W28380  19.671  37.564   3.840
61598W        W28381  38.018   3.535   1.298
61599W        W28382  20.092  15.784   0.799
61600W        W28383  26.224  42.609  14.320
61601W        W28384  19.561   7.640   4.644
61602W        W28385   9.072  15.035  14.924
61603W        W28386  43.245  39.917  10.762
61604W        W28387  40.778  40.919   2.707
61605W        W28388   7.827   1.031  13.053
61606W        W28389  16.173  42.072   0.909
61607W        W28390  37.057  19.667  13.940
61608W        W28391  24.758  18.354   5.028
61609W        W28392  27.093  25.443  14.513
61610W        W28393  22.247  29.828  10.399
61611W        W28394   4.892  34.033  11.378
61612W        W28395   4.171  23.079   2.758
61613W        W28396  13.169  13.305  10.967
61614W        W28397  27.208  18.397  11.943
61615W        W28398   9.781   3.985  12.682
61616W        W28399  14.331   7.932   4.588
61617W        W28400  20.417  38.549   3.155
61618W        W28401  12.097   0.377  11.255
61619W        W28402  11.622  13.836  11.886
61620W        W28403   8.330  12.687   4.570
61621W        W28404  41.894   8.299   0.293
61622W        W28405   3.182   8.892  11.599
61623W        W28406   8.499  19.141  14.485
61624W        W28407   7.894   9.299   3.496
61625W        W28408  15.176  27.200  10.880
61626W        W28409  22.221  32.982   2.195
61627W        W28410  13.637  13.298   3.922
61628W        W28411  22.674  18.814   0.326
61629W        W28412  22.029  18.425  12.998
61630W        W28413  34.421  37.467  11.516
61631W        W28414  38.100  36.808   1.845
61632W        W28415  41.327   6.875  12.495
61633W        W28416  19.556   2.982   3.217
61634W        W28417  35.486   6.424  14.447
61635W        W28418  44.392  30.349   2.379
61636W        W28419  27.093  31.621  12.478
61637W        W28420  29.351  26.070  12.400
61638W        W28421  40.512  42.958  12.988
61639W        W28422  21.648  43.356  14.041
61640W        W28423  35.420  24.431  11.001
61641W        W28424   8.306   4.110   3.680
61642W        W28425  34.098  24.478  10.177
61643W        W28426  19.783  42.095  11.570
61644W        W28427   1.843  29.854   1.653
61645W        W28428  16.369   5.984   2.365
61646W        W28429   7.244  19.587   4.971
61647W        W28430  29.973   3.419  10.743
61648W        W28431  29.640  12.788   2.622
61649W        W28432  33.308  15.897  10.081
61650W        W28433  19.024  17.607   1.358
61651W        W28434  32.177   6.674  13.835
61652W        W28435  13.727   8.618   4.151
61653W        W28436  25.276  32.512   4.848
61654W        W28437  36.441  39.036   0.874
61655W        W28438  14.242  16.219   2.355
61656W        W28439   1.192   1.419  13.635
61657W        W28440  42.434  43.407  11.492
61658W        W28441  15.186  21.574   2.299
61659W        W28442   3.496   4.119  12.359
61660W        W28443  37.969  27.073   2.763
61661W        W28444  29.856  20.929  13.807
61662W        W28445  36.543   3.904  11.040
61663W        W28446  13.793  16.726  13.853
61664W        W28447  23.511  14.792   0.414
61665W        W28448  42.295  44.499  14.881
61666W        W28449  31.879   8.174  13.046
61667W        W28450  37.947  17.776  12.806
61668W        W28451  13.303  11.227   2.437
61669W        W28452  18.829  23.719   1.322
61670W        W28453   2.584   4.252  11.624
61671W        W28454  29.191  37.867  12.847
61672W        W28455  30.647  15.186   1.880
61673W        W28456  13.676  29.897   0.769
61674W        W28457   8.834  41.564  14.871
61675W        W28458  40.399  24.978   2.540
61676W        W28459  26.227  17.435  12.279
61677W        W28460   0.884  12.246  10.854
61678W        W28461  31.210  10.840   0.223
61679W        W28462   2.770  42.582  12.071
61680W        W28463   5.321   9.225  12.114
61681W        W28464  20.864  39.736  11.608
61682W        W28465  41.171  14.353   3.108
61683W        W28466   4.987  34.953   5.093
61684W        W28467  40.923   7.486  14.204
61685W        W28468   7.256  11.231  12.892
61686W        W28469   1.671  29.888  13.026
61687W        W28470  28.072  36.505   2.460
61688W        W28471   8.453  42.288   3.281
61689W        W28472  38.579  16.535  11.657
61690W        W28473  39.870  17.499   2.627
61691W        W28474  17.363  42.406   2.074
61692W        W28475  21.757   4.623  11.207
61693W        W28476  21.459  10.157   2.759
61694W        W28477  20.826   8.680   2.307
61695W        W28478  42.741  42.923   2.613
61696W        W28479  22.068  37.398  10.590
61697W        W28480  20.151  18.289  11.188
61698W        W28481   1.425  44.627  14.387
61699W        W28482  33.874  42.512   0.625
61700W        W28483   6.505  17.723  14.399
61701W        W28484  19.753   9.175  13.021
61702W        W28485  43.918  22.207   0.519
61703W        W28486  40.015  34.681  13.316
61704W        W28487  30.645  14.862  13.227
61705W        W28488  39.966  19.701  14.610
61706W        W28489  31.473  32.106   2.474
61707W        W28490  14.794  19.805   3.445
61708W        W28491  10.825  19.570   0.903
61709W        W28492  34.013  15.021  12.921
61710W        W28493  28.127   8.355  13.586
61711W        W28494  39.947   0.343   3.296
61712W        W28495   1.702  23.738  12.553
61713W        W28496  16.107  43.096   0.893
61714W        W28497   2.457  32.477  13.982
61715W        W28498  16.081  43.902   2.502
61716W        W28499   1.822   4.269   3.354
61717W        W28500   8.869   4.658   1.903
61718W        W28501  36.351  23.570   4.020
61719W        W28502   5.103   2.540  10.397
61720W        W28503  19.156  40.508  11.120
61721W        W28504   6.194  14.766  12.882
61722W        W28505   9.345  31.888   3.278
61723W        W28506  32.516  21.780   2.156
61724W        W28507  24.694  22.497   0.957
61725W        W28508  15.937   6.055  11.207
61726W        W28509  35.123  25.536   3.481
61727W        W28510  10.367  13.637  12.971
61728W        W28511  27.001  17.590  13.421
61729W        W28512  11.684   2.518  13.993
61730W        W28513  31.548  26.043  14.046
61731W        W28514  18.270  29.214  11.503
61732W        W28515   2.668  20.715   3.715
61733W        W28516  39.810  13.077  11.944
61734W        W28517  35.485  10.275   3.138
61735W        W28518  39.741  21.018   1.233
61736W        W28519  38.478  39.262   2.678
61737W        W28520  16.872  13.160  13.790
61738W        W28521   6.216  40.329  12.606
61739W        W28522  30.718  38.492  12.574
61740W        W28523  31.112  26.005  12.545
61741W        W28524  24.901  39.778  14.011
61742W        W28525  40.022  27.818   0.994
61743W        W28526  29.631  13.026   4.532
61744W        W28527  32.527  38.551   3.034
61745W        W28528  14.012  32.818   3.336
61746W        W28529  22.572  25.157   5.323
61747W        W28530  28.735  14.816  13.972
61748W        W28531  14.234  26.550  13.824
61749W        W28532   4.705   2.880  12.931
61750W        W28533  22.127  17.022   4.705
61751W        W28534   8.744   4.121   0.175
61752W        W28535  39.541  36.056  11.980
61753W        W28536  43.362  28.947  12.639
61754W        W28537  23.648   3.646  14.851
61755W        W28538  30.113  33.446  11.402
61756W        W28539  13.879  25.001   3.270
61757W        W28540  17.764  17.616  11.627
61758W        W28541  33.731  17.670  11.065
61759W        W28542  19.756  25.106   0.358
61760W        W28543  28.150  12.044  14.962
61761W        W28544  30.502   6.993  14.061
61762W        W28545  32.882  17.503   1.039
61763W        W28546  17.976  43.120   0.328
61764W        W28547  30.210  36.879   3.602
61765W        W28548  31.151  24.532  11.366
61766W        W28549  44.369  37.094   1.729
61767W        W28550   5.673  28.368  11.563
61768W        W28551   1.291   6.519  11.110
61769W        W28552  18.720  33.406  11.542
61770W        W28553  14.970  28.907  10.867
61771W        W28554   1.962  26.911   2.391
61772W        W28555  30.830  33.108   1.765
61773W        W28556  38.019   7.110   5.005
61774W        W28557  22.244  39.001  11.084
61775W        W28558  20.732  41.002   2.236
61776W        W28559  41.408  34.381   4.649
61777W        W28560   8.732  25.063   4.625
61778W        W28561  18.700   6.406   0.196
61779W        W28562   9.910   9.960  14.155
61780W        W28563   0.032  25.054  11.113
61781W        W28564  25.076   4.143  10.290
61782W        W28565  24.653  29.459   4.580
61783W        W28566   9.381  40.519  14.400
61784W        W28567  34.023   2.158   3.652
61785W        W28568  13.516  36.905   0.456
61786W        W28569   5.766  31.992   0.252
61787W        W28570  27.591  33.333   1.784
61788W        W28571  31.064  31.454   4.528
61789W        W28572  22.730  36.457   2.737
61790W        W28573  18.590  15.137   1.905
61791W        W28574  15.907   0.291   0.352
61792W        W28575  34.529  44.651   0.190
61793W        W28576  13.150  44.631   4.012
61794W        W28577  16.297   8.308   4.658
61795W        W28578  33.982  17.578   2.812
61796W        W28579   7.303  16.148  14.541
61797W        W28580  40.529  34.848   3.218
61798W        W28581   7.227  16.260  14.008
61799W        W28582  32.846  19.116   4.435
61800W        W28583  39.069  24.505  12.085
61801W        W28584  10.087  44.761   4.057
61802W        W28585  40.786  26.699   0.364
61803W        W28586  21.054  35.006   2.742
61804W        W28587  17.303  11.137   0.899
61805W        W28588  26.609  37.447   1.996
61806W        W28589  24.920  12.219   4.565
61807W        W28590  10.667  20.796   2.182
61808W        W28591  11.096  34.839  14.505
61809W        W28592  26.308  43.358   3.174
61810W        W28593   1.351  27.619   3.096
61811W        W28594   5.941  31.879   0.748
61812W        W28595   8.959   3.154   4.275
61813W        W28596  22.171  22.139  11.169
61814W        W28597  20.535   0.531  11.226
61815W        W28598   3.936   9.777  13.342
61816W        W28599   3.437  12.582   4.180
61817W        W28600  28.552  25.556   3.067
61818W        W28601   8.187  32.639  12.221
61819W        W28602  40.965  11.320  12.491
61820W        W28603  10.432  20.369   1.922
61821W        W28604  16.921  28.670   3.292
61822W        W28605  44.904  40.391   1.233
61823W        W28606  25.202   0.524   2.305
61824W        W28607  44.284  40.984  14.803
61825W        W28608  39.389  10.205  13.574
61826W        W28609  28.579   8.784  13.879
61827W        W28610  17.785  34.834  14.866
61828W        W28611  38.520  11.923  12.044
61829W        W28612  30.097  25.982  11.553
61830W        W28613  40.295  41.050   2.786
61831W        W28614  26.331  18.054  11.547
61832W        W28615  35.941  35.388   2.207
61833W        W28616   3.700  27.510   2.239
61834W        W28617  25.261  21.218  13.871
61835W        W28618  36.884   7.220   0.191
61836W        W28619   8.454  36.815   4.589
61837W        W28620  10.572  29.471  10.698
61838W        W28621  35.034  42.877  14.301
61839W        W28622  24.244  14.299  11.583
61840W        W28623   8.261  25.030   3.868
61841W        W28624  16.568   2.704  13.084
61842W        W28625  15.525  33.884  11.938
61843W        W28626  44.549  11.441   0.791
61844W        W28627  35.052  30.459  12.434
61845W        W28628  42.516  40.737   0.031
61846W        W28629  13.329  28.666   3.472
61847W        W28630  24.096  21.156  13.693
61848W        W28631   6.156  41.976  11.963
61849W        W28632  26.410   3.871   4.128
61850W        W28633  10.904  30.914   1.476
61851W        W28634  10.415  35.305  10.480
61852W        W28635   5.185   6.710  13.404
61853W        W28636  23.208   4.904   2.145
61854W        W28637  34.875  21.247   0.500
61855W        W28638  28.115  14.631  10.635
61856W        W28639  18.117  14.302   2.833
61857W        W28640  24.926  39.499  12.993
61858W        W28641   1.078  22.483   1.716
61859W        W28642  12.584  37.360  14.764
61860W        W28643  27.913   6.098  11.574
61861W        W28644  20.707  16.523  12.387
61862W        W28645  37.948  21.623  11.206
61863W        W28646  44.641  41.874   1.393
61864W        W28647   9.195  21.664   2.856
61865W        W28648  39.346  22.120  10.470
61866W        W28649  43.476  25.982  14.202
61867W        W28650  21.298  17.862  12.588
61868W        W28651  26.014  28.534   1.930
61869W        W28652  40.315  38.356   0.365
61870W        W28653   2.750  35.606  13.462
61871W        W28654  28.463  38.453  14.218
61872W        W28655  23.957  28.950   0.479
61873W        W28656  16.834  36.078  13.779
61874W        W28657  35.294   7.803   1.796
61875W        W28658   5.032  30.041  11.626
61876W        W28659  18.859  19.523   3.299
61877W        W28660  33.646  43.421   2.830
61878W        W28661  14.580  33.141   2.763
61879W        W28662   0.299  14.883   0.907
61880W        W28663  13.707   7.210   3.799
61881W        W28664  24.572  36.214   3.620
61882W        W28665  20.253  29.650   3.718
61883W        W28666  23.518  41.986  10.657
61884W        W28667   6.508  16.197  12.588
61885W        W28668  43.579  35.030  14.511
61886W        W28669  17.407  13.265   1.523
61887W        W28670  32.808  30.685  13.105
61888W        W28671  28.602  14.566   3.447
61889W        W28672  28.044   9.164   0.692
61890W        W28673  17.461  22.005  12.855
61891W        W28674  26.287  29.919   4.111
61892W        W28675  26.213  35.058   2.439
61893W        W28676  31.670   3.664  12.996
61894W        W28677  30.545  21.189  12.219
61895W        W28678  22.167  28.004  12.444
61896W        W28679  32.243  11.702   1.677
61897W        W28680  40.344  13.541  12.964
61898W        W28681  24.291   6.275   0.628
61899W        W28682  28.498  25.282  12.452
61900W        W28683  33.897  40.011  10.817
61901W        W28684  17.760  21.691  12.453
61902W        W28685  28.765   8.353  14.836
61903W        W28686  32.105  23.336   1.446
61904W        W28687  38.958  43.309   2.967
61905W        W28688  21.816  38.089   2.382
61906W        W28689  40.118   3.610  12.505
61907W        W28690   9.132  19.333  11.036
61908W        W28691  32.473  26.473  11.586
61909W        W28692  13.121   9.436   4.016
61910W        W28693  14.284  30.947  14.595
61911W        W28694  15.220   2.267  13.034
61912W        W28695  22.594  29.969   1.431
61913W        W28696  22.654  27.708  11.844
61914W        W28697  20.513  19.539   0.470
61915W        W28698   7.249  29.566  12.607
61916W        W28699  10.751  42.112   2.732
61917W        W28700  39.378  28.644  14.511
61918W        W28701  27.139  19.231   4.796
61919W        W28702  24.789  39.929   4.442
61920W        W28703  15.553   3.329   0.404
61921W        W28704  21.269  35.879  13.579
61922W        W28705  28.049   4.249  14.402
61923W        W28706   8.821  27.136   1.886
61924W        W28707  32.414  11.573  11.857
61925W        W28708  32.677  25.588  10.980
61926W        W28709  16.681  13.616   3.611
61927W        W28710   2.298  25.868  11.931
61928W        W28711  38.282   0.009  11.967
61929W        W28712  21.564   4.624   2.792
61930W        W28713  40.240  10.898  12.453
61931W        W28714  20.122  26.643   2.282
61932W        W28715   9.855  22.681  14.764
61933W        W28716  28.706   8.390   4.199
61934W        W28717   0.042  12.402  13.859
61935W        W28718  13.248   1.481   4.625
61936W        W28719   9.197  10.013   2.839
61937W        W28720  12.865  30.173  11.891
61938W        W28721  10.641  20.979  14.978
61939W        W28722  44.166  25.076  10.266
61940W        W28723  22.438   8.311  13.338
61941W        W28724  28.704  16.786  12.029
61942W        W28725  10.844  12.395   1.242
61943W        W28726  40.438   0.094  12.855
61944W        W28727   4.877  31.066  13.812
61945W        W28728  24.003  28.799  13.518
61946W        W28729  31.247   2.842   1.677
61947W        W28730  10.597  42.755   4.101
61948W        W28731  41.211  30.887   1.741
61949W        W28732  42.361  23.110   4.437
61950W        W28733  15.803  44.418  14.734
61951W        W28734  24.206  41.523   0.466
61952W        W28735  39.441  10.450  14.034
61953W        W28736  17.509  38.081   1.905
61954W        W28737  35.893  34.073  10.473
61955W        W28738  15.227  36.532  12.862
61956W        W28739   7.173  32.691  13.073
61957W        W28740   9.607   4.141   2.088
61958W        W28741   8.777  30.307   2.835
61959W        W28742   7.838  42.486   1.953
61960W        W28743  37.036  32.047  14.492
61961W        W28744  19.291   3.267   2.821
61962W        W28745  38.805  33.101  10.227
61963W        W28746  21.699  39.889  14.787
61964W        W28747  42.149  44.933  11.636
61965W        W28748  23.604  12.114  14.558
61966W        W28749  44.741   3.819  12.183
61967W        W28750  44.464  43.320   4.781
61968W        W28751   1.014  30.152   3.849
61969W        W28752   3.827   9.135   1.337
61970W        W28753  26.269  16.857   1.710
61971W        W28754  19.707  29.493   0.045
61972W        W28755   5.093  10.126  14.542
61973W        W28756  22.820   3.861  13.532
61974W        W28757  17.174  41.565   1.919
61975W        W28758  39.151   0.792   1.398
61976W        W28759  20.405  16.079  13.053
61977W        W28760  29.008  37.768   2.610
61978W        W28761  11.250  12.239   2.296
61979W        W28762  44.518  38.753   1.059
61980W        W28763   7.158   6.470   3.583
61981W        W28764  35.158  30.091   4.190
61982W        W28765  38.080  31.488  15.000
61983W        W28766  43.276  39.784  12.055
61984W        W28767   2.526  40.257  14.811
61985W        W28768  23.042  17.102  11.274
61986W        W28769  31.743  23.705   1.426
61987W        W28770  13.316  19.191   3.716
61988W        W28771  39.795  40.323  14.831
61989W        W28772   3.374  34.135   3.736
61990W        W28773  17.859  43.702   1.405
61991W        W28774  13.774  19.516  10.697
61992W        W28775   1.384   6.934  11.986
61993W        W28776   7.217   6.301   4.585
61994W        W28777  40.028  41.182   1.793
61995W        W28778  16.819  27.430  11.648
61996W        W28779  19.094   3.184  12.401
61997W        W28780   4.295  17.379  11.974
61998W        W28781  44.525  36.248   3.739
61999W        W28782   2.022  18.046  12.158
62000W        W28783  42.081  23.941   0.773
62001W        W28784   8.689   0.606   1.591
62002W        W28785  17.354  36.685   4.230
62003W        W28786   2.813  29.689  12.022
62004W        W28787  24.041  32.902   4.052
62005W        W28788  21.503  12.782  13.164
62006W        W28789  21.709  10.437  14.341
62007W        W28790   7.476  25.592   2.738
62008W        W28791  32.236   2.263  13.222
62009W        W28792  17.952  22.077  11.569
62010W        W28793  33.054  39.516   3.226
62011W        W28794   7.736  21.519  13.349
62012W        W28795   3.328  44.203   1.121
62013W        W28796  44.848  11.235   0.368
62014W        W28797   4.918   7.179  13.898
62015W        W28798  27.435  42.819  11.028
62016W        W28799   0.785  35.235  13.074
62017W        W28800  39.794   9.771  13.991
62018W        W28801   0.475   7.864   0.723
62019W        W28802  18.050  39.247   0.778
62020W        W28803  20.236  36.327   2.807
62021W        W28804  36.512  39.397  10.969
62022W        W28805  18.298  13.059  13.463
62023W        W28806  23.565  23.119   1.165
62024W        W28807  44.783  13.630  14.409
62025W        W28808  39.746  20.083  12.110
62026W        W28809  15.791  42.761  10.182
62027W        W28810  23.317  35.955  13.291
62028W        W28811  21.626  12.014  14.458
62029W        W28812  21.529  17.641   0.516
62030W        W28813  25.513  19.716   4.059
62031W        W28814   3.922  19.667  13.017
62032W        W28815  27.552   5.946   3.393
62033W        W28816  19.574  12.798   0.284
62034W        W28817   2.014  22.087   2.496
62035W        W28818  16.291  12.613   3.796
62036W        W28819  13.225   9.414   0.424
62037W        W28820   2.675  41.735  14.977
62038W        W28821  41.085  42.214   3.262
62039W        W28822  14.155  38.317  14.298
62040W        W28823  34.362  29.034  12.933
62041W        W28824  12.505  42.074  14.879
62042W        W28825   0.203   8.306   2.286
62043W        W28826  39.593  34.925   3.325
62044W        W28827  39.475   1.243   4.101
62045W        W28828  43.884  34.379   3.618
62046W        W28829  22.772  38.832  13.852
62047W        W28830   8.243  42.056  10.686
62048W        W28831  10.773  39.897   3.292
62049W        W28832   6.612   1.294   0.979
62050W        W28833  17.639  15.351  12.434
62051W        W28834  22.031  36.577   1.270
62052W        W28835  20.550  16.269   3.990
62053W        W28836   7.172   1.713  12.558
62054W        W28837  30.584   9.505   4.139
62055W        W28838  26.966  41.924   2.281
62056W        W28839  34.973  35.913  14.125
62057W        W28840  17.134  20.484  10.678
62058W        W28841  34.563  31.105   2.593
62059W        W28842   3.703  23.915   0.462
62060W        W28843  27.800  42.930   4.276
62061W        W28844   5.319   9.100   2.921
62062W        W28845  32.610   3.971   3.219
62063W        W28846   1.697  12.593  12.538
62064W        W28847  37.979  27.911  12.454
62065W        W28848  23.052  19.702   3.310
62066W        W28849   3.573  37.401   9.777
62067W        W28850  29.234  14.660  10.883
62068W        W28851   6.423  37.332   1.357
62069W        W28852   4.254  29.440  11.217
62070W        W28853  24.656  24.205   4.030
62071W        W28854  28.649  39.692   5.513
62072W        W28855  26.684   8.555   5.024
62073W        W28856  42.770  27.617   1.414
62074W        W28857   4.061  24.120  11.187
62075W        W28858  39.410  35.009  14.821
62076W        W28859  37.626  11.138   0.720
62077W        W28860   2.323  36.978   4.200
62078W        W28861  43.665  34.519  13.939
62079W        W28862  12.380  29.634  11.625
62080W        W28863   3.137  28.319   4.211
62081W        W28864  27.122  14.838  12.414
62082W        W28865   5.952  40.597  11.932
62083W        W28866  41.279  12.357   5.114
62084W        W28867  11.258  35.355   1.415
62085W        W28868  32.950  36.359   0.756
62086W        W28869   6.336   2.303  10.613
62087W        W28870  18.565  24.743   1.383
62088W        W28871  23.084  14.671   3.729
62089W        W28872   6.847  22.049   0.876
62090W        W28873   3.926  32.651   2.696
62091W        W28874  25.968  34.386  13.940
62092W        W28875  16.269   2.676   2.328
62093W        W28876  33.053  17.818   4.754
62094W        W28877  21.124  32.373   2.219
62095W        W28878  21.686  35.039  13.709
62096W        W28879  33.994  35.322   0.845
62097W        W28880  14.786   4.486   2.260
62098W        W28881  32.451  44.272  13.475
62099W        W28882  32.752  42.906  14.177
62100W        W28883  41.258  41.443   2.233
62101W        W28884   3.599  35.883   1.703
62102W        W28885  16.312  17.223  10.598
62103W        W28886  17.044  16.358   1.363
62104W        W28887   2.750   7.753   1.266
62105W        W28888   9.284  35.906  12.068
62106W        W28889   9.161  17.851  13.618
62107W        W28890   8.637  24.277  12.857
62108W        W28891  26.330   6.345  12.066
62109W        W28892   5.593  27.215   3.595
62110W        W28893  29.265   1.380   2.546
62111W        W28894   6.339  32.332  13.561
62112W        W28895  41.310   4.401   0.716
62113W        W28896  39.152  28.315   5.127
62114W        W28897   5.351  43.862   0.986
62115W        W28898  30.175  20.829   9.797
62116W        W28899  14.575  16.444  12.208
62117W        W28900  38.201   1.842  10.685
62118W        W28901  29.606  38.405   3.127
62119W        W28902  19.786  14.035   4.502
62120W        W28903  28.144  29.266  14.378
62121W        W28904  40.917  37.117   2.340
62122W        W28905  27.311   8.653   2.315
62123W        W28906  34.927  30.729   2.660
62124W        W28907   0.107  33.825  12.147
62125W        W28908  14.215  21.768  12.013
62126W        W28909  27.323  16.365   4.631
62127W        W28910  34.821  17.168  13.002
62128W        W28911   8.267   9.360   0.054
62129W        W28912  33.156  32.665  10.700
62130W        W28913  38.642  30.446  14.032
62131W        W28914  44.399   0.856  11.961
62132W        W28915  35.053   8.349  14.870
62133W        W28916  23.180  36.968  14.374
62134W        W28917  32.392   8.232   4.399
62135W        W28918  17.995  38.416  11.522
62136W        W28919  33.331  11.568  10.348
62137W        W28920   9.808  36.536   0.994
62138W        W28921  34.592   0.711   2.417
62139W        W28922  44.305  10.117   2.394
62140W        W28923  18.998   0.867   1.278
62141W        W28924  22.987   4.902  13.939
62142W        W28925  40.307  37.004  14.892
62143W        W28926  33.970  34.329  14.831
62144W        W28927  44.702  31.715  11.943
62145W        W28928  38.475  28.970  11.961
62146W        W28929  11.870  12.310   4.181
62147W        W28930   4.777  44.159  10.816
62148W        W28931  12.499  30.904  11.794
62149W        W28932   3.792   6.101   0.036
62150W        W28933   3.099  36.033   9.941
62151W        W28934  29.136  30.165   1.411
62152W        W28935   5.769  17.082  10.468
62153W        W28936  18.088   4.703   1.770
62154W        W28937  33.827  25.053   2.780
62155W        W28938  13.851   4.762  11.926
62156W        W28939  10.388  16.591  14.418
62157W        W28940  40.826  28.169   1.793
62158W        W28941  18.528  22.613   4.576
62159W        W28942   9.425  36.539   0.483
62160W        W28943  15.294  38.815  14.843
62161W        W28944   2.428  30.631   1.363
62162W        W28945  12.750  12.598   0.520
62163W        W28946  28.180  38.048   3.216
62164W        W28947  15.119  30.278   1.959
62165W        W28948  44.933   1.516  12.227
62166W        W28949  22.147  31.698   1.864
62167W        W28950  39.040  11.017  11.967
62168W        W28951  31.357  26.512  10.318
62169W        W28952  27.572  13.618   4.778
62170W        W28953  32.162  44.320  13.892
62171W        W28954   4.623   1.567   0.080
62172W        W28955  38.620  19.854  13.491
62173W        W28956  34.885  23.203  14.191
62174W        W28957  22.058  21.200   4.915
62175W        W28958  19.281  38.052  13.447
62176W        W28959  29.506  38.286  12.806
62177W        W28960  22.641  20.279  11.573
62178W        W28961  34.719   2.623   0.136
62179W        W28962  42.151   9.430  10.732
62180W        W28963  40.383  39.558  13.836
62181W        W28964  29.472   6.662  11.558
62182W        W28965  21.815  22.821  11.532
62183W        W28966   6.188   9.479   1.298
62184W        W28967  15.340   6.170   0.712
62185W        W28968  37.400  21.990  14.004
62186W        W28969  41.685  19.957   2.610
62187W        W28970  20.145   4.334   3.566
62188W        W28971  12.229  43.950  11.971
62189W        W28972  34.895  34.068  14.861
62190W        W28973  10.424  15.814   2.250
62191W        W28974  30.984  30.515  10.735
62192W        W28975  14.201  33.627   4.678
62193W        W28976   1.396   5.631   0.713
62194W        W28977   5.577  42.738  13.304
62195W        W28978  35.080   0.856   3.128
62196W        W28979  41.376   6.242  11.315
62197W        W28980   1.164  11.601  11.053
62198W        W28981  40.917  44.551   3.680
62199W        W28982  36.917  33.524  12.908
62200W        W28983  29.117   9.387   2.305
62201W        W28984  17.949  16.810   5.076
62202W        W28985  27.642  22.186  10.742
62203W        W28986  13.863  25.494   2.417
62204W        W28987  19.955   1.863  10.217
62205W        W28988  37.235   1.742  11.789
62206W        W28989  32.502  18.073   4.091
62207W        W28990  39.499  33.086   1.914
62208W        W28991   5.466  17.563   3.719
62209W        W28992  40.090  29.176   2.137
62210W        W28993  30.442   5.957  15.000
62211W        W28994  32.105  42.277   2.562
62212W        W28995   1.814   7.947   4.037
62213W        W28996  36.633  27.229  13.108
62214W        W28997  39.097  22.424   3.454
62215W        W28998  19.966  30.064   3.604
62216W        W28999  20.634   2.065   0.890
62217W        W29000  27.537  20.638  11.223
62218W        W29001  16.183  21.969   3.819
62219W        W29002  42.790  39.979   3.821
62220W        W29003  34.929  38.809   2.714
62221W        W29004   3.720   6.359   4.323
62222W        W29005   0.263  21.920  12.993
62223W        W29006  16.307  13.254  12.963
62224W        W29007  10.367  23.261   1.726
62225W        W29008  28.697  42.306  11.088
62226W        W29009   0.734  31.039  11.527
62227W        W29010  39.232  19.993  12.045
62228W        W29011  30.952  11.181   4.361
62229W        W29012  35.990  35.293   5.095
62230W        W29013   1.820  13.676  12.026
62231W        W29014  17.096  44.899   3.843
62232W        W29015  42.916  29.084   4.539
62233W        W29016   9.803  15.743  12.530
62234W        W29017  15.580  27.194  11.206
62235W        W29018  44.062   6.233  13.801
62236W        W29019  15.844  38.823   0.502
62237W        W29020  30.320  17.861   1.295
62238W        W29021  38.280  23.276  14.333
62239W        W29022  30.860  28.031  11.957
62240W        W29023  17.223  14.536   3.252
62241W        W29024  25.653  17.352  13.443
62242W        W29025  31.634  33.933  10.700
62243W        W29026   6.233  34.215  13.827
62244W        W29027  31.978  15.364   3.198
62245W        W29028  44.517   4.929  10.065
62246W        W29029  43.065  29.961  12.137
62247W        W29030   5.818   1.767   1.947
62248W        W29031  12.200  34.606   4.319
62249W        W29032  40.516   0.796   3.612
62250W        W29033  34.628  27.726   3.219
62251W        W29034  29.188  34.641   3.206
62252W        W29035  19.319  31.530   1.220
62253W        W29036  44.496  29.118  14.075
62254W        W29037   0.249   2.087   0.208
62255W        W29038   8.666  24.151   3.212
62256W        W29039  23.779  17.899   2.384
62257W        W29040  26.693   4.232   3.306
62258W        W29041  33.501  12.890   1.609
62259W        W29042  39.107  11.125   0.894
62260W        W29043  25.529  16.373  14.782
62261W        W29044  26.010   3.953   4.607
62262W        W29045  39.613   4.415  14.879
62263W        W29046  29.583  31.160   0.705
62264W        W29047  24.590  14.522   1.860
62265W        W29048  44.520   1.805   4.303
62266W        W29049  23.290  43.054   2.765
62267W        W29050  12.608  31.563  10.621
62268W        W29051  26.066  16.361  12.492
62269W        W29052  13.213  15.523   2.799
62270W        W29053  34.954  42.793  14.805
62271W        W29054  24.033   9.835   2.042
62272W        W29055   3.353  21.636  14.448
62273W        W29056   0.998   5.705  14.017
62274W        W29057  32.158  35.463  11.433
62275W        W29058  21.325  39.414  10.422
62276W        W29059  40.572   4.855   1.337
62277W        W29060  14.734   7.646   3.816
62278W        W29061  25.941  16.762  14.906
62279W        W29062   3.897  22.464   1.932
62280W        W29063  13.458  24.361   4.109
62281W        W29064  27.393  28.486  10.931
62282W        W29065  15.594  39.302   2.012
62283W        W29066  24.628  13.754  14.976
62284W        W29067  10.618  38.058  11.323
62285W        W29068  24.452  26.867  11.848
62286W        W29069  30.959   5.904  13.452
62287W        W29070  40.823  36.364  11.179
62288W        W29071  36.124  37.806   3.652
62289W        W29072  11.698  37.261   0.285
62290W        W29073  41.529  33.934  12.988
62291W        W29074  19.009  41.418  14.772
62292W        W29075   4.809  28.102  14.025
62293W        W29076  39.236  19.758  11.595
62294W        W29077  42.768   9.468   4.139
62295W        W29078  45.000  44.558   4.274
62296W        W29079  12.678  13.261  12.733
62297W        W29080  13.967  20.418  13.115
62298W        W29081  40.323   0.387  13.352
62299W        W29082  15.177   4.310   3.598
62300W        W29083  18.547  37.494  14.614
62301W        W29084   2.524  18.184   3.175
62302W        W29085  37.489  30.079   3.226
62303W        W29086  42.490   5.336  10.708
62304W        W29087  42.378  21.596   3.184
62305W        W29088  15.662   1.505  11.225
62306W        W29089  19.732  41.352  11.114
62307W        W29090   5.211  37.477   4.060
62308W        W29091  10.333  17.526   4.702
62309W        W29092   3.539  20.712  14.316
62310W        W29093  34.034  29.122   2.328
62311W        W29094  42.395  36.873   3.187
62312W        W29095  18.445  44.943   2.747
62313W        W29096  39.776  29.491   4.230
62314W        W29097  21.230  11.174  14.920
62315W        W29098  25.711  24.827   3.866
62316W        W29099  21.481  42.018   3.285
62317W        W29100  31.011  44.248  14.707
62318W        W29101   3.203   6.955  14.874
62319W        W29102  22.302  14.197  13.639
62320W        W29103  33.010  11.362   2.217
62321W        W29104  25.519   2.963   2.694
62322W        W29105  42.817  26.041   1.698
62323W        W29106  38.791  34.546  13.026
62324W        W29107   9.111  25.802  12.636
62325W        W29108  41.434  42.878   2.165
62326W        W29109  24.013   9.487  13.484
62327W        W29110   7.251  26.674   1.124
62328W        W29111  11.596  43.204   1.898
62329W        W29112  37.510   4.298  12.138
62330W        W29113  33.441   6.658   0.018
62331W        W29114   0.405  30.640  12.842
62332W        W29115  29.887  35.296  12.638
62333W        W29116  32.489   6.367   0.353
62334W        W29117  17.312  28.674   0.303
62335W        W29118   9.306   1.780   0.463
62336W        W29119  18.758  12.135  10.647
62337W        W29120  25.424  17.547   2.266
62338W        W29121   5.399  22.770  14.045
62339W        W29122  18.038  10.024   0.881
62340W        W29123   6.805   5.247   0.811
62341W        W29124  24.142  23.258  11.482
62342W        W29125  28.886  14.363  13.690
62343W        W29126  27.125  28.523  11.369
62344W        W29127  20.733  16.802   1.304
62345W        W29128  40.942  20.672   1.687
62346W        W29129  14.682  25.038  14.074
62347W        W29130  44.921  10.199   1.236
62348W        W29131  44.958  42.378  13.361
62349W        W29132  13.863  31.556  13.403
62350W        W29133  17.679  21.218  10.593
62351W        W29134   4.319  17.764  11.615
62352W        W29135  25.191  32.535  10.872
62353W        W29136  19.047  12.175   1.352
62354W        W29137  23.197  21.755  14.677
62355W        W29138  10.341  18.882   2.891
62356W        W29139  19.729  34.978  11.987
62357W        W29140  43.774  24.430   2.420
62358W        W29141  42.259   2.729   4.136
62359W        W29142  39.682   5.891  10.783
62360W        W29143  29.137  23.488   3.590
62361W        W29144   2.285  10.900   4.240
62362W        W29145  39.315   8.317  13.749
62363W        W29146   1.722  13.249  13.136
62364W        W29147  24.601  40.364  12.559
62365W        W29148  39.363  14.707   0.224
62366W        W29149  14.865   4.241   1.345
62367W        W29150  41.468  37.297   1.186
62368W        W29151  12.608  15.231  14.477
62369W        W29152  43.838  34.607  12.977
62370W        W29153  13.106  16.061  10.752
62371W        W29154  18.721   6.763   0.971
62372W        W29155  43.790  18.296  14.260
62373W        W29156  32.485   2.300  11.541
62374W        W29157  14.740  16.346   4.120
62375W        W29158   1.633   0.417  11.204
62376W        W29159  10.418  16.065   0.353
62377W        W29160  44.782  26.688   3.642
62378W        W29161   7.685  21.162  10.245
62379W        W29162  17.078  21.309  11.091
62380W        W29163  10.082  17.388   1.366
62381W        W29164  19.244  24.466  13.470
62382W        W29165  25.381  40.542   2.642
62383W        W29166   6.350   8.952   3.047
62384W        W29167   4.963  14.147   4.639
62385W        W29168  31.411  44.427   0.412
62386W        W29169  37.152  15.122   1.010
62387W        W29170  13.612   6.300   3.326
62388W        W29171   8.371  26.096   3.653
62389W        W29172  12.385  14.536   2.817
62390W        W29173  31.046  13.155  13.717
62391W        W29174   5.548  23.407  10.480
62392W        W29175   0.389  22.705   1.166
62393W        W29176  37.194  23.024  13.266
62394W        W29177  26.732   4.409   3.810
62395W        W29178   6.635  31.685   1.486
62396W        W29179  15.131  29.850  12.266
62397W        W29180  20.289  10.174  12.472
62398W        W29181  16.097  33.821  14.406
62399W        W29182   9.440  28.647   4.667
62400W        W29183  43.853  24.280  12.871
62401W        W29184  42.442   3.673   3.191
62402W        W29185  28.684   5.414   0.758
62403W        W29186  28.741   5.461  11.529
62404W        W29187  33.605   6.773  11.659
62405W        W29188   6.912  42.545   2.099
62406W        W29189  36.361  35.363  12.071
62407W        W29190  23.385  33.454  11.974
62408W        W29191  19.815   3.838  14.276
62409W        W29192  40.324  25.082   4.131
62410W        W29193   7.749  14.562   2.253
62411W        W29194  27.633  27.655   2.347
62412W        W29195  10.090  14.667  12.154
62413W        W29196  17.692  36.927   0.629
62414W        W29197  12.287  25.564  12.254
62415W        W29198  17.993  38.058  12.657
62416W        W29199  31.533  12.487   2.690
62417W        W29200  19.113   9.127  11.057
62418W        W29201  24.169  21.217  12.685
62419W        W29202  36.907  21.369   0.220
62420W        W29203  22.639  25.281   3.614
62421W        W29204  37.268   3.102   2.885
62422W        W29205  16.418  26.538  12.429
62423W        W29206   5.527  23.673  11.202
62424W        W29207  28.089  30.593   3.596
62425W        W29208  42.972  31.581   1.352
62426W        W29209  43.869  42.053   4.753
62427W        W29210  16.816  16.585   0.022
62428W        W29211   1.850  30.371   1.757
62429W        W29212  26.841  17.648  14.884
62430W        W29213  37.927  15.796  14.271
62431W        W29214  29.534  26.624  11.669
62432W        W29215   4.415  40.563   4.694
62433W        W29216  36.877  30.544   3.805
62434W        W29217  37.554  43.853   0.941
62435W        W29218  23.073  10.479   4.622
62436W        W29219  10.048   8.205  11.907
62437W        W29220  35.822  35.381  12.108
62438W        W29221  33.142  36.849   3.097
62439W        W29222  39.940   3.357   4.594
62440W        W29223   0.448  32.213   1.710
62441W        W29224  33.041  15.624  14.823
62442W        W29225   9.157  14.713  12.174
62443W        W29226  12.748  22.623  10.650
62444W        W29227   8.005   7.242   5.117
62445W        W29228  32.634  38.585  11.040
62446W        W29229  21.567  33.054   0.973
62447W        W29230  27.491  36.996   2.659
62448W        W29231  30.112   9.298  12.953
62449W        W29232  25.118  19.739   3.169
62450W        W29233   3.272  21.966   2.346
62451W        W29234  38.524   5.577   4.567
62452W        W29235   2.470  40.603   0.260
62453W        W29236  32.837  29.970  14.401
62454W        W29237  43.806   1.641   1.491
62455W        W29238  31.392   8.907   5.349
62456W        W29239  27.157  13.336   2.296
62457W        W29240  34.145  25.635  13.839
62458W        W29241  12.302   1.383   1.807
62459W        W29242  36.565  37.014   0.807
62460W        W29243  18.662  20.791   4.362
62461W        W29244  30.616  12.586  13.381
62462W        W29245  24.952  29.879  12.583
62463W        W29246   1.891  22.409   0.425
62464W        W29247  21.945   1.021  10.145
62465W        W29248   6.792  28.905   1.194
62466W        W29249  18.125  29.047  11.974
62467W        W29250  20.191  20.731  14.596
62468W        W29251   6.646   0.084  13.936
62469W        W29252   8.190  44.448  13.150
62470W        W29253  35.845  16.462   0.746
62471W        W29254   4.281  28.207   0.782
62472W        W29255  30.167   6.173  10.703
62473W        W29256  42.140  12.706   3.145
62474W        W29257  20.624   0.188  11.754
62475W        W29258  43.085  39.999  11.578
62476W        W29259   2.840  31.061  13.790
62477W        W29260  42.722  20.271   4.650
62478W        W29261  24.903  14.111   1.909
62479W        W29262  44.961  35.475   1.434
62480W        W29263   4.257   7.793  10.617
62481W        W29264  35.502  28.402   1.671
62482W        W29265  26.059  16.637  12.914
62483W        W29266  44.628  33.438  10.268
62484W        W29267  31.980  18.922  10.490
62485W        W29268  16.269  17.765  10.530
62486W        W29269  11.347  14.699   0.511
62487W        W29270   4.998  15.633  14.514
62488W        W29271   9.139   3.474   9.823
62489W        W29272  15.093  41.371   3.363
62490W        W29273  35.372   4.795   3.646
62491W        W29274  34.858  12.163   0.151
62492W        W29275   0.971   2.481  13.906
62493W        W29276  31.013  29.615   3.779
62494W        W29277  27.025  38.849   2.685
62495W        W29278  25.658   7.320  12.645
62496W        W29279  14.734  10.244  10.735
62497W        W29280  32.952  35.706   0.089
62498W        W29281   0.813  32.539   2.828
62499W        W29282  23.048  38.020   1.927
62500W        W29283  15.342  13.391  12.724
62501W        W29284   9.663   5.352  10.570
62502W        W29285  35.271  16.534  14.708
62503W        W29286   3.629   5.123  14.613
62504W        W29287  34.022  26.709  13.333
62505W        W29288  14.527  22.142   2.286
62506W        W29289  40.544  18.289   3.661
62507W        W29290  44.094  12.436  13.826
62508W        W29291   2.288   3.742  12.316
62509W        W29292  40.515  20.666   0.399
62510W        W29293  16.918  39.811  14.479
62511W        W29294   9.534   1.287  14.300
62512W        W29295  18.708   4.728   4.164
62513W        W29296   1.808  39.432  11.290
62514W        W29297  27.710  41.446  13.524
62515W        W29298  30.442  41.130  11.650
62516W        W29299   9.677   8.824  12.611
62517W        W29300   8.354  30.210  14.747
62518W        W29301  10.340  28.491   4.444
62519W        W29302  43.171  17.725  13.045
62520W        W29303  14.750  40.906   1.957
62521W        W29304  25.011  10.758   1.045
62522W        W29305  40.585  35.987   4.853
62523W        W29306  11.670  36.481   2.689
62524W        W29307  42.876  16.461  10.180
62525W        W29308  27.013  36.576   1.231
62526W        W29309  24.179  26.755   5.088
62527W        W29310  12.362  21.756   1.392
62528W        W29311  31.380   9.106  11.020
62529W        W29312  20.687  13.750  12.463
62530W        W29313  18.580   3.647   2.678
62531W        W29314  37.827  20.496  13.216
62532W        W29315  15.419  38.446  14.075
62533W        W29316  17.658   4.569  14.464
62534W        W29317  30.255  33.213  14.613
62535W        W29318   9.368  13.087   0.291
62536W        W29319   3.925  32.469  11.558
62537W        W29320  34.914   3.669   2.154
62538W        W29321  30.990  15.406   2.926
62539W        W29322  37.866   4.526  13.518
62540W        W29323  15.657  11.893  12.001
62541W        W29324  28.787  28.911  12.970
62542W        W29325  28.458  23.944  13.386
62543W        W29326  26.550  10.300   0.952
62544W        W29327  29.524   3.660   2.427
62545W        W29328  36.308  39.085   4.471
62546W        W29329   1.318  15.962   0.897
62547W        W29330  11.163   8.972   5.010
62548W        W29331   4.310  23.423  12.817
62549W        W29332  41.058   5.099   4.198
62550W        W29333  25.593  36.389   2.914
62551W        W29334   9.392  42.830   0.318
62552W        W29335   6.692  30.898  12.977
62553W        W29336  22.115  37.189   1.826
62554W        W29337  13.708  25.228  14.038
62555W        W29338  17.794  44.008  11.017
62556W        W29339  23.023  44.039   2.327
62557W        W29340  16.290  10.929   4.771
62558W        W29341  21.684  24.197   0.751
62559W        W29342  13.565  43.316  11.611
62560W        W29343  23.589   5.278  10.781
62561W        W29344   9.438  28.976  11.702
62562W        W29345  10.753  35.308   1.205
62563W        W29346  31.003  39.297  13.176
62564W        W29347  44.037  31.861  12.574
62565W        W29348  24.540  10.881  14.997
62566W        W29349  12.244  18.573   2.463
62567W        W29350  30.897  35.119   1.580
62568W        W29351   4.445  26.095  14.387
62569W        W29352  18.179   4.492   2.910
62570W        W29353  10.250   4.413  11.912
62571W        W29354  34.872  43.985   2.832
62572W        W29355  20.359  32.177   2.780
62573W        W29356  33.082  17.890   3.211
62574W        W29357  22.777  41.510  13.793
62575W        W29358  37.867  42.335   2.681
62576W        W29359  19.100  29.118  10.871
62577W        W29360  16.860  26.576   0.016
62578W        W29361  39.532  21.945   1.320
62579W        W29362  22.843  42.428   2.142
62580W        W29363  29.877  24.886   0.419
62581W        W29364  11.285  29.957  13.342
62582W        W29365  17.616   4.968  14.132
62583W        W29366  43.485  17.885   4.626
62584W        W29367  43.037  41.622   0.013
62585W        W29368  14.578  25.294  11.532
62586W        W29369  30.506   7.698  13.433
62587W        W29370  34.095  30.800   3.334
62588W        W29371  33.896   8.307  14.056
62589W        W29372   6.179  31.456  14.909
62590W        W29373  36.881  37.091  13.332
62591W        W29374  13.390  25.561   0.279
62592W        W29375  38.156  25.941  10.982
62593W        W29376  19.999  16.551  14.450
62594W        W29377  32.851  11.591   0.851
62595W        W29378  44.229  32.705  13.513
62596W        W29379   9.379  13.547  14.418
62597W        W29380  33.515  25.076   0.421
62598W        W29381  24.492   7.304   4.630
62599W        W29382  18.834   5.520   2.846
62600W        W29383  41.376   6.439   0.533
62601W        W29384   5.186  35.703  12.157
62602W        W29385  14.833  23.157  13.931
62603W        W29386  33.033  38.658  12.275
62604W        W29387  33.640  30.482  14.769
62605W        W29388   7.183  26.476  13.571
62606W        W29389  12.197  38.841   0.400
62607W        W29390   7.158  17.716  10.742
62608W        W29391   7.284  31.474  14.475
62609W        W29392  10.855   2.407  11.061
62610W        W29393  32.887  15.737   2.392
62611W        W29394  21.236  39.464   1.881
62612W        W29395  17.841  18.147   0.461
62613W        W29396  15.748  21.247   4.193
62614W        W29397   9.284  28.511   3.687
62615W        W29398   2.863  31.478  11.292
62616W        W29399  41.696  43.124   1.777
62617W        W29400  17.440  28.123  12.761
62618W        W29401  26.781  35.033  10.830
62619W        W29402  38.076   1.547  12.876
62620W        W29403   8.405   0.311   1.966
62621W        W29404  10.457  21.506   2.091
62622W        W29405  18.037  35.485   3.830
62623W        W29406  18.718  42.739  14.257
62624W        W29407  27.801  36.470  11.069
62625W        W29408  19.380   6.977   0.764
62626W        W29409  36.539  36.023  11.590
62627W        W29410   7.178  30.828  12.751
62628W        W29411   5.794   2.759   0.371
62629W        W29412  15.325   0.132  11.147
62630W        W29413  12.538   2.783   2.344
62631W        W29414  36.574  14.849   3.290
62632W        W29415  32.829  36.392   3.386
62633W        W29416  34.984  42.679   4.094
62634W        W29417   0.369  41.224  12.135
62635W        W29418  14.150  15.879  12.057
62636W        W29419   4.773  17.492   3.223
62637W        W29420  14.232  12.664  10.652
62638W        W29421  36.919   2.916   3.245
62639W        W29422   3.242  28.415  11.654
62640W        W29423  14.729  33.432  10.953
62641W        W29424   2.997   3.946   4.602
62642W        W29425  17.799  23.154   2.265
62643W        W29426   0.582   3.877   4.115
62644W        W29427   0.372   9.894   1.452
62645W        W29428  43.264   7.205   0.231
62646W        W29429  34.890   9.388  10.253
62647W        W29430  30.135  34.036  10.798
62648W        W29431  15.568   2.606  14.738
62649W        W29432   7.761  26.231  11.149
62650W        W29433   4.723  14.165   1.839
62651W        W29434   2.753  28.139   0.460
62652W        W29435   0.962  43.073  13.827
62653W        W29436  38.882  35.369  12.213
62654W        W29437   5.018   7.661  11.103
62655W        W29438  30.859  34.882  14.835
62656W        W29439  23.049  29.906  10.728
62657W        W29440  25.529  38.753  11.089
62658W        W29441   9.798  26.571  12.564
62659W        W29442  34.953  38.033   0.337
62660W        W29443  16.240  23.425  13.073
62661W        W29444  28.221  23.657  11.076
62662W        W29445  13.832  17.711   1.706
62663W        W29446  30.987   4.483   2.194
62664W        W29447  14.896   6.646  13.957
62665W        W29448   2.061  25.980   3.603
62666W        W29449  18.978  16.716   5.210
62667W        W29450  28.996  40.844   3.771
62668W        W29451  34.935  36.411  12.194
62669W        W29452  12.651   3.682   1.753
62670W        W29453   1.649  34.973  12.538
62671W        W29454  14.644  41.967   2.182
62672W        W29455  35.954   5.248   1.537
62673W        W29456   7.411  39.172   2.033
62674W        W29457  16.360   8.140   2.162
62675W        W29458  15.229  39.637  14.305
62676W        W29459  21.755  35.714  12.387
62677W        W29460  35.027  12.827   3.324
62678W        W29461  43.361  43.878   2.702
62679W        W29462  34.329  22.437   4.145
62680W        W29463   3.206  18.615  11.555
62681W        W29464  38.278   6.475   3.679
62682W        W29465  26.206  36.478   3.682
62683W        W29466  19.160  42.083   2.686
62684W        W29467  28.578  14.310  11.897
62685W        W29468  40.692  29.632   1.455
62686W        W29469  22.759  17.787   2.451
62687W        W29470  12.389  42.035   3.238
62688W        W29471  15.902   8.650   4.570
62689W        W29472  34.624  27.433  12.297
62690W        W29473  19.298  39.000  11.118
62691W        W29474  39.016  18.851   1.222
62692W        W29475  10.901  35.499  12.118
62693W        W29476  37.475  21.666  10.665
62694W        W29477  10.432  12.657   2.383
62695W        W29478   6.933  44.002   0.313
62696W        W29479  17.796  17.670   3.002
62697W        W29480  24.207  15.859  10.995
62698W        W29481   0.209  15.809   2.804
62699W        W29482  39.299  14.789   2.927
62700W        W29483  34.840  24.723  12.973
62701W        W29484  28.358   9.871   2.311
62702W        W29485   4.124  32.522   2.241
62703W        W29486  21.059  37.436  13.681
62704W        W29487  24.544   5.338  11.517
62705W        W29488  34.963  31.287  12.546
62706W        W29489  34.422  35.080  14.458
62707W        W29490  11.345  29.115  13.007
62708W        W29491  28.895  20.474  10.990
62709W        W29492   2.821   0.491  12.105
62710W        W29493  23.773  17.068   1.790
62711W        W29494  27.210  30.018   3.958
62712W        W29495  27.014  27.540  12.961
62713W        W29496   8.561   9.834   3.165
62714W        W29497  43.214  15.863  11.945
62715W        W29498  30.891   3.403  10.350
62716W        W29499  42.899  40.476  13.215
62717W        W29500  36.556  42.408   4.625
62718W        W29501  41.863  30.157   3.318
62719W        W29502  15.167  38.975   2.797
62720W        W29503  33.067   5.495  13.172
62721W        W29504   4.171   8.690  12.804
62722W        W29505  22.290  25.526   5.570
62723W        W29506  26.767  11.293  12.865
62724W        W29507  14.617  27.336  13.569
62725W        W29508  31.566  41.576   2.452
62726W        W29509  29.185  29.558   2.214
62727W        W29510   6.401  12.584   4.559
62728W        W29511  15.575  22.080   2.175
62729W        W29512   6.762  31.586  14.610
62730W        W29513  27.507  43.259   4.886
62731W        W29514  44.025  19.208  10.667
62732W        W29515  38.911  36.920   0.804
62733W        W29516  13.158  27.972  14.943
62734W        W29517  20.189  28.437  13.463
62735W        W29518  42.787   6.944  14.829
62736W        W29519  13.678  40.966   0.957
62737W        W29520   7.048  33.026  14.720
62738W        W29521  16.579   6.860   4.596
62739W        W29522  43.319  16.538   1.090
62740W        W29523  10.333  35.139  11.862
62741W        W29524  41.013  10.100   1.705
62742W        W29525   4.784  40.770  11.651
62743W        W29526  26.805   4.550   0.092
62744W        W29527   3.900  31.627   4.413
62745W        W29528  28.500   4.859  14.990
62746W        W29529  14.373  22.009   2.769
62747W        W29530   4.568  14.700  11.161
62748W        W29531  38.454  12.212  12.491
62749W        W29532   9.580   9.768  13.101
62750W        W29533  40.244  35.721  14.020
62751W        W29534  10.238  28.072  13.486
62752W        W29535  40.808  38.935  11.168
62753W        W29536   0.277  37.829  14.845
62754W        W29537  21.497  29.560  11.997
62755W        W29538  40.122  20.010   4.631
62756W        W29539   7.093  12.288   1.338
62757W        W29540  24.748  19.610  10.676
62758W        W29541  38.105  25.673   1.318
62759W        W29542  39.650  23.746  12.481
62760W        W29543  16.231  31.769   4.489
62761W        W29544  25.633  32.948   2.825
62762W        W29545  27.834  17.120   4.188
62763W        W29546  36.003  17.472  13.369
62764W        W29547  20.633  19.057   0.692
62765W        W29548   5.987  18.762   1.455
62766W        W29549  30.946  11.177  10.762
62767W        W29550   4.047  16.615  12.576
62768W        W29551  16.834  36.987   1.254
62769W        W29552  37.538  16.911  10.423
62770W        W29553  12.299   0.943  10.670
62771W        W29554   7.711  33.515  13.329
62772W        W29555   5.740  41.950  14.011
62773W        W29556  43.933  18.379   3.732
62774W        W29557   4.019  14.799   1.708
62775W        W29558  38.939  40.889  10.939
62776W        W29559  21.077  29.257   3.676
62777W        W29560  32.023  43.056   4.090
62778W        W29561  31.171  43.220  14.827
62779W        W29562  28.585  13.858   4.290
62780W        W29563  11.892  38.100   1.766
62781W        W29564  24.750   3.318  14.039
62782W        W29565  11.651   7.888  13.034
62783W        W29566  35.068   3.942   0.836
62784W        W29567  19.484  27.185   2.170
62785W        W29568  28.423  27.129  13.992
62786W        W29569  12.328  40.878   3.746
62787W        W29570  27.352  35.066  14.767
62788W        W29571   3.135  34.507   0.567
62789W        W29572  38.375  36.128  10.556
62790W        W29573  28.113  39.755   5.413
62791W        W29574  38.343  29.581   0.838
62792W        W29575  21.007  16.666   2.036
62793W        W29576  24.066  42.116  13.966
62794W        W29577   1.971   1.334   3.428
62795W        W29578  24.948   9.123  10.875
62796W        W29579  13.883  43.745   0.803
62797W        W29580  10.780  38.016  13.345
62798W        W29581  29.942  31.706  12.593
62799W        W29582  41.547   3.126   0.236
62800W        W29583  33.504  28.120  14.257
62801W        W29584  13.590  28.210  11.937
62802W        W29585  28.543   0.867  10.734
62803W        W29586  43.664  13.898   1.847
62804W        W29587  26.685  38.934  12.950
62805W        W29588  43.506  11.698   3.772
62806W        W29589  33.204   3.998  11.522
62807W        W29590  28.939  21.024  10.709
62808W        W29591  23.655   1.190   3.189
62809W        W29592  20.030  44.269   3.908
62810W        W29593  10.656  24.098  11.155
62811W        W29594  25.799  21.697  11.039
62812W        W29595  22.194  32.374   4.108
62813W        W29596   9.779  16.624  10.910
62814W        W29597  26.595   0.426   4.893
62815W        W29598  41.027   4.930   2.239
62816W        W29599  26.818   8.498   4.250
62817W        W29600  17.311   3.219  12.069
62818W        W29601  22.063  36.823  13.078
62819W        W29602  19.626  10.800   0.264
62820W        W29603   9.094  39.604   3.513
62821W        W29604   2.874  22.047   0.496
62822W        W29605  35.525  20.617   3.166
62823W        W29606  16.502  24.926  13.309
62824W        W29607  19.815   0.799   4.105
62825W        W29608  19.603   5.136   3.968
62826W        W29609  39.919   9.639   1.506
62827W        W29610  42.380   2.976  11.607
62828W        W29611  30.498   4.166   4.581
62829W        W29612  34.678  36.661  10.433
62830W        W29613  31.045  24.100   4.444
62831W        W29614  19.663  23.766   1.882
62832W        W29615  31.785  11.638   1.852
62833W        W29616  44.224  43.828  11.378
62834W        W29617  24.496   4.325  13.088
62835W        W29618  26.070   6.905  13.453
62836W        W29619  31.618  19.750   2.043
62837W        W29620   5.121  22.916  12.973
62838W        W29621  27.025  18.565   2.303
62839W        W29622  40.263  38.275   1.846
62840W        W29623  36.400   3.940  11.536
62841W        W29624  16.708  15.238  14.449
62842W        W29625  21.263  42.575  11.557
62843W        W29626  20.951  18.001   1.029
62844W        W29627  27.504  24.603   4.100
62845W        W29628  42.994  28.052   0.921
62846W        W29629  39.480  43.144   3.127
62847W        W29630  17.512  39.317   4.485
62848W        W29631  33.526  12.373   1.624
62849W        W29632  28.716  10.213   2.497
62850W        W29633  16.207  13.829  11.085
62851W        W29634   0.666  30.508   1.284
62852W        W29635  17.746  34.134  12.637
62853W        W29636  39.269  17.845  11.119
62854W        W29637  24.627  14.499  11.359
62855W        W29638   7.127  13.804  14.894
62856W        W29639   2.335  37.467   3.337
62857W        W29640   0.489   8.319   3.618
62858W        W29641   8.277   8.892   4.679
62859W        W29642  33.801  25.752  11.846
62860W        W29643  13.899  22.606   0.341
62861W        W29644  37.526  41.252   0.216
62862W        W29645   2.260  13.191   2.252
62863W        W29646  16.636  39.522   4.209
62864W        W29647  30.015  27.921  11.089
62865W        W29648   8.471   3.112   4.559
62866W        W29649  31.388  22.961  12.940
62867W        W29650   1.075  18.697   4.098
62868W        W29651  14.354  42.195  10.583
62869W        W29652   5.289  29.830   2.902
62870W        W29653   0.221  31.023  13.501
62871W        W29654   5.673  29.224  11.610
62872W        W29655  44.404  36.261  11.696
62873W        W29656   4.272   0.293   0.001
62874W        W29657  25.793   6.947  11.168
62875W        W29658  21.233  40.778   4.102
62876W        W29659  43.970  18.012  11.211
62877W        W29660   4.122  34.796   3.790
62878W        W29661  41.757  23.148  11.171
62879W        W29662  43.215   4.432   1.293
62880W        W29663   1.575  31.497   1.824
62881W        W29664   2.179  16.120  12.541
62882W        W29665  37.235  18.212  13.972
62883W        W29666   5.708  32.436   3.910
62884W        W29667  17.748  37.045  13.734
62885W        W29668  40.477  31.199  10.754
62886W        W29669  35.031  22.161  14.878
62887W        W29670  44.905  18.148  11.217
62888W        W29671  24.754  42.044  14.765
62889W        W29672  36.133   5.693   2.758
62890W        W29673  11.273   5.321  14.750
62891W        W29674  36.293  14.337  14.288
62892W        W29675  36.405  30.532   0.457
62893W        W29676  27.674  24.073  10.287
62894W        W29677  13.549  22.542  12.290
62895W        W29678  19.526   9.853   3.731
62896W        W29679  43.864  12.948  10.231
62897W        W29680   0.404  25.082   1.683
62898W        W29681  11.819  27.633   1.877
62899W        W29682  33.975  35.839   3.764
62900W        W29683   9.110  25.199  14.731
62901W        W29684   3.373  37.295   2.383
62902W        W29685  10.574  14.034  12.623
62903W        W29686  12.196  27.733   2.214
62904W        W29687  40.258   1.898  11.205
62905W        W29688  35.067  13.300   1.220
62906W        W29689  25.118  29.701   4.617
62907W        W29690  34.189   2.035   1.413
62908W        W29691   5.204   8.782  11.833
62909W        W29692  39.762   1.726   1.687
62910W        W29693  13.612  23.132  12.932
62911W        W29694  27.671  18.087   1.853
62912W        W29695  24.493  26.203   3.640
62913W        W29696  26.425  33.927  14.453
62914W        W29697  38.916  10.297  13.360
62915W        W29698   3.042  37.544  13.097
62916W        W29699   8.310   8.838   3.764
62917W        W29700  15.153   0.807   4.254
62918W        W29701  32.890  31.575   1.977
62919W        W29702  40.860  12.765  14.500
62920W        W29703  44.021  36.757  11.112
62921W        W29704  44.949  36.588  12.813
62922W        W29705  36.964  24.559   1.339
62923W        W29706  25.492  31.560   2.402
62924W        W29707  22.982   0.312  14.843
62925W        W29708  40.974  15.167   1.808
62926W        W29709  27.425  25.736  12.013
62927W        W29710   5.427  44.419  12.843
62928W        W29711  19.174  38.656   1.887
62929W        W29712  19.690   7.968  12.104
62930W        W29713  27.506   6.847   3.449
62931W        W29714   7.296  14.721   2.447
62932W        W29715  21.434  15.241  10.130
62933W        W29716  26.455   6.362   2.085
62934W        W29717   0.480  16.313   0.280
62935W        W29718  20.955  34.180  13.007
62936W        W29719  35.338  26.702  11.150
62937W        W29720   3.144  42.499  13.912
62938W        W29721  17.828   5.414   2.778
62939W        W29722  32.027  16.589  11.017
62940W        W29723  31.362   5.344   3.790
62941W        W29724  40.743  24.997   1.214
62942W        W29725  28.579  27.982   3.979
62943W        W29726   2.694  26.907  13.406
62944W        W29727  29.714  36.030   4.299
62945W        W29728  37.039  24.759  14.580
62946W        W29729   3.732   7.849   0.725
62947W        W29730  25.701  41.805   3.791
62948W        W29731   6.533  35.123  12.045
62949W        W29732  37.305  14.761  12.045
62950W        W29733  24.982  21.665   1.682
62951W        W29734  34.437  31.593   0.767
62952W        W29735  22.713  40.657   2.726
62953W        W29736  11.745  13.811   4.582
62954W        W29737  21.339   8.493  11.174
62955W        W29738   2.269  28.795   4.250
62956W        W29739  19.973   7.854  14.122
62957W        W29740  26.074   0.234  10.656
62958W        W29741  43.624  14.648  11.316
62959W        W29742  15.563  39.088  13.434
62960W        W29743   9.897   4.731   4.225
62961W        W29744  34.915  19.103  12.459
62962W        W29745  34.428  25.211  14.511
62963W        W29746  10.713  35.847  14.414
62964W        W29747  37.066   7.949   3.374
62965W        W29748  14.739  10.810  10.687
62966W        W29749  40.376   5.200  14.054
62967W        W29750  15.859  14.757  12.031
62968W        W29751   9.893   4.216   4.312
62969W        W29752  44.053   3.359  10.377
62970W        W29753   7.957  19.071   3.104
62971W        W29754   2.294   6.956   1.333
62972W        W29755   9.930  39.379  13.948
62973W        W29756  19.755   7.337  11.580
62974W        W29757   4.485  11.295  13.810
62975W        W29758   4.615  38.597   3.376
62976W        W29759   7.657  21.344  12.787
62977W        W29760  36.602  42.023   3.376
62978W        W29761   0.697  35.014   5.019
62979W        W29762  30.091   3.848  12.049
62980W        W29763  38.475  26.088  10.588
62981W        W29764  15.745  25.701   2.158
62982W        W29765   1.470  37.863  12.464
62983W        W29766   0.665  32.575  11.477
62984W        W29767  29.927  39.406  11.498
62985W        W29768  34.834  11.390  14.695
62986W        W29769   3.840  13.739   2.146
62987W        W29770  21.971  10.402   2.386
62988W        W29771   0.600  41.465   4.993
62989W        W29772  39.772  21.567  11.553
62990W        W29773  17.133  43.923   2.399
62991W        W29774  25.213  23.333   2.391
62992W        W29775  14.772  42.304   3.213
62993W        W29776  16.234  10.604  13.997
62994W        W29777  39.966  29.466  11.968
62995W        W29778   3.961  24.827  12.846
62996W        W29779  28.534  33.346  14.848
62997W        W29780  43.871  36.923  11.677
62998W        W29781   2.950  36.915  10.827
62999W        W29782  14.900  30.032   3.339
63000W        W29783  41.681   8.272   3.577
63001W        W29784  11.140  44.270   1.650
63002W        W29785  27.709  28.236   4.202
63003W        W29786  20.791  36.419   4.535
63004W        W29787  23.472  20.945  14.696
63005W        W29788  31.198   8.624  11.161
63006W        W29789   4.375   7.421   4.090
63007W        W29790  12.111   3.226  13.112
63008W        W29791  35.966   4.374   2.898
63009W        W29792  29.887  22.734   9.829
63010W        W29793  16.557  15.616  11.944
63011W        W29794  22.973  10.323   1.401
63012W        W29795  18.504  25.158   0.721
63013W        W29796  17.557  27.612   0.558
63014W        W29797  11.446   1.380  11.623
63015W        W29798   9.373  33.372  13.289
63016W        W29799  33.657  24.207  12.034
63017W        W29800  34.982   9.993  12.411
63018W        W29801  11.905   4.259  14.394
63019W        W29802  31.052  31.525   2.265
63020W        W29803  20.546  20.261  11.131
63021W        W29804   7.432  10.688  12.037
63022W        W29805  34.339   9.838  10.237
63023W        W29806  29.414  10.768  14.315
63024W        W29807  19.749  31.121   4.158
63025W        W29808  11.834  44.672  11.588
63026W        W29809  34.448  16.102   0.528
63027W        W29810  18.762  33.501  10.732
63028W        W29811  40.497  37.311   4.516
63029W        W29812  15.247   6.295   4.609
63030W        W29813  28.598  41.674  10.618
63031W        W29814  33.055   0.436   3.701
63032W        W29815   1.829  19.131   1.319
63033W        W29816  26.024  41.958  13.960
63034W        W29817  38.768  33.084   2.305
63035W        W29818  38.309  14.068  12.459
63036W        W29819  13.834  19.566   3.121
63037W        W29820  15.165  20.713   0.308
63038W        W29821   3.716  36.374   1.454
63039W        W29822  30.529   2.689   3.118
63040W        W29823  12.985  23.797  10.193
63041W        W29824  39.178  12.667  10.244
63042W        W29825  35.665  20.331   1.737
63043W        W29826  41.455   7.340   0.749
63044W        W29827  30.109  29.880   1.251
63045W        W29828   6.222   2.102   3.412
63046W        W29829  35.140  43.995  11.945
63047W        W29830  39.366  19.227   2.749
63048W        W29831  30.541   9.894   0.726
63049W        W29832  27.440   8.347   2.730
63050W        W29833  28.248  26.712   0.926
63051W        W29834  11.649  12.739  14.066
63052W        W29835  22.244  30.212   1.778
63053W        W29836   1.540  32.040  13.514
63054W        W29837  28.150  25.704   0.779
63055W        W29838   5.315  27.560   4.563
63056W        W29839  26.689  30.986   1.577
63057W        W29840  32.957  17.550  13.552
63058W        W29841  12.995   6.697   3.793
63059W        W29842  10.709  27.814  13.397
63060W        W29843  15.239  42.070   2.039
63061W        W29844  43.500   1.819   5.170
63062W        W29845  35.858  11.817  14.413
63063W        W29846   8.339  43.867   1.813
63064W        W29847   1.495  33.370  14.978
63065W        W29848  11.148  26.063  10.629
63066W        W29849  42.847  36.254   3.746
63067W        W29850  18.335  33.400   4.038
63068W        W29851   6.442  30.913   2.093
63069W        W29852   9.875  32.625  14.233
63070W        W29853  22.778  12.141   0.172
63071W        W29854  34.199  20.668  12.816
63072W        W29855  20.029   5.424  11.507
63073W        W29856  27.084   3.424  13.370
63074W        W29857  17.656  19.254   3.652
63075W        W29858  23.942  22.619  11.913
63076W        W29859   1.702   4.790  12.847
63077W        W29860  25.947  16.270   3.698
63078W        W29861  35.122   9.156  11.837
63079W        W29862  10.606  44.252  13.083
63080W        W29863  28.606  12.578  14.095
63081W        W29864   0.091  36.353  14.995
63082W        W29865   7.435  17.781   2.991
63083W        W29866  21.720  12.613   3.149
63084W        W29867  16.110  18.863   2.397
63085W        W29868   6.726  25.826  13.049
63086W        W29869   7.125  11.326   1.345
63087W        W29870  18.363  33.699   0.933
63088W        W29871  38.858  23.107   1.783
63089W        W29872  10.600   5.353  11.895
63090W        W29873  40.286  12.953   1.377
63091W        W29874   4.903  10.947  12.042
63092W        W29875  37.604  17.875  13.996
63093W        W29876  28.511  24.132   1.419
63094W        W29877   6.999  22.571  12.071
63095W        W29878  28.061  12.212  10.714
63096W        W29879  41.839  34.138   3.160
63097W        W29880  16.633  16.353  10.746
63098W        W29881  22.960  17.739   0.968
63099W        W29882   4.319  14.764  10.716
63100W        W29883  38.887   1.049  11.600
63101W        W29884  39.846  13.559   4.143
63102W        W29885  42.417  15.790  10.744
63103W        W29886  16.058  18.591  13.030
63104W        W29887   1.482   2.910  13.284
63105W        W29888  13.696  17.006  13.037
63106W        W29889  33.397  34.810   2.260
63107W        W29890  12.692  39.793  11.949
63108W        W29891  13.224   5.686   4.659
63109W        W29892  34.441  32.833  11.107
63110W        W29893  20.128  41.609   1.908
63111W        W29894  35.865  10.623  11.604
63112W        W29895  30.095  23.977  14.946
63113W        W29896   1.496  42.494  11.964
63114W        W29897   1.207  26.966  13.895
63115W        W29898  39.850  44.354  13.845
63116W        W29899  26.790  17.470   0.992
63117W        W29900   0.007  24.024   4.769
63118W        W29901  24.299  23.614  11.152
63119W        W29902   4.734  21.054  11.440
63120W        W29903  11.239  44.823   3.349
63121W        W29904  20.348  37.579  14.420
63122W        W29905   8.676  38.770   3.314
63123W        W29906  19.518  19.596  10.347
63124W        W29907   8.319  10.640   1.255
63125W        W29908  20.585   4.236  13.818
63126W        W29909  33.706  11.656   3.261
63127W        W29910  26.228   7.753  14.415
63128W        W29911  17.281  10.352  13.087
63129W        W29912  40.732   8.434   5.267
63130W        W29913   8.722   4.585  11.007
63131W        W29914  10.609  10.380   1.859
63132W        W29915  18.346  39.324  12.906
63133W        W29916  43.449   5.251  12.986
63134W        W29917  24.750  10.157   2.215
63135W        W29918  21.683  22.758   4.157
63136W        W29919   4.825  21.348  11.873
63137W        W29920  41.965  28.480  10.599
63138W        W29921  28.455  29.020  11.457
63139W        W29922  37.305  14.306   0.272
63140W        W29923  44.462  30.248   3.305
63141W        W29924  24.640  18.823   4.650
63142W        W29925  39.555  29.106  10.674
63143W        W29926  35.093   4.172   3.006
63144W        W29927  38.588   8.704   2.360
63145W        W29928  29.131  20.248  11.890
63146W        W29929   6.402  33.816   2.916
63147W        W29930  42.002  27.481   0.958
63148W        W29931  39.614  27.876  12.494
63149W        W29932   9.430  18.055  12.402
63150W        W29933   2.950  23.005   0.254
63151W        W29934  20.335  26.114  11.553
63152W        W29935  22.741  24.441  12.966
63153W        W29936  37.318  32.898   0.994
63154W        W29937  23.031  15.330   1.727
63155W        W29938  29.721  39.977   9.870
63156W        W29939  14.580  22.754   1.744
63157W        W29940  17.353  19.398   3.270
63158W        W29941  40.776  35.108   1.292
63159W        W29942  14.155  11.581   3.254
63160W        W29943   2.939   5.188   2.865
63161W        W29944  39.670  13.848   1.889
63162W        W29945  43.216   4.087   2.211
63163W        W29946  24.691   5.335  14.450
63164W        W29947  20.528  41.320  14.517
63165W        W29948  39.939  40.745  11.289
63166W        W29949  10.858  13.136  12.481
63167W        W29950  41.794  19.994  14.967
63168W        W29951  41.807   0.580   9.823
63169W        W29952   5.897  33.885   4.636
63170W        W29953   7.935  17.686   1.001
63171W        W29954  10.663   3.154   2.183
63172W        W29955  21.557  24.799   9.787
63173W        W29956  30.880  44.037  12.457
63174W        W29957  39.931   7.016  10.650
63175W        W29958  43.793  12.938   1.959
63176W        W29959  29.761   4.068  10.348
63177W        W29960  15.025  39.381   1.268
63178W        W29961   8.314  29.709   4.719
63179W        W29962   3.973   1.045   0.424
63180W        W29963  20.965  41.943   3.297
63181W        W29964  35.522  28.674  10.900
63182W        W29965   9.911  10.371   1.381
63183W        W29966   9.717  29.506  13.111
63184W        W29967  11.541  26.459   1.326
63185W        W29968  10.610   6.759  14.802
63186W        W29969  23.891  38.964  11.844
63187W        W29970  26.564  27.701   3.677
63188W        W29971  25.967  35.578  12.879
63189W        W29972  30.393  20.351   9.788
63190W        W29973  32.126  28.442  11.526
63191W        W29974  40.887  21.114  11.167
63192W        W29975  18.245  41.351  10.918
63193W        W29976   7.557  42.124   1.762
63194W        W29977  22.218  10.242   3.953
63195W        W29978  28.899  43.403  12.917
63196W        W29979   8.263  33.231  10.769
63197W        W29980  13.231   7.172   0.416
63198W        W29981  24.161  40.033   3.280
63199W        W29982  10.552  37.030  14.366
63200W        W29983  24.705  15.490   0.328
63201W        W29984  37.890  29.079   4.638
63202W        W29985   0.251   3.932   0.312
63203W        W29986  39.902   9.111  12.676
63204W        W29987  21.601  15.184  14.253
63205W        W29988  20.984  13.780  10.189
63206W        W29989   2.186  29.138  14.018
63207W        W29990  38.716  40.456  13.996
63208W        W29991   5.154   7.376   3.734
63209W        W29992  21.190   4.363  10.591
63210W        W29993  20.962  12.111  14.525
63211W        W29994   5.687   8.492   4.187
63212W        W29995   6.399  32.978   3.735
63213W        W29996  16.494  44.466  12.027
63214W        W29997  39.345  28.189  10.257
63215W        W29998  40.315  11.150   9.467
63216W        W29999  44.458   0.205  14.298
63217W        W30000  40.881  41.899   0.187
63218W        W30001  21.812  26.505  13.638
63219W        W30002   9.379  13.579  12.952
63220W        W30003  33.219  40.491   3.197
63221W        W30004  33.016  19.225  12.880
63222W        W30005  41.000  35.895  10.904
63223W        W30006  33.066  22.311  13.842
63224W        W30007  24.004  34.996  12.791
63225W        W30008  34.836  14.877  13.895
63226W        W30009  38.429  17.766   4.850
63227W        W30010  19.977  38.020  12.486
63228W        W30011  22.584  29.566   2.370
63229W        W30012  35.495  12.312   2.716
63230W        W30013  26.546  28.458  13.558
63231W        W30014  37.566  11.100  13.999
63232W        W30015  34.897   4.211  10.746
63233W        W30016   2.400  14.340  12.851
63234W        W30017  31.110  38.030  11.609
63235W        W30018  22.606  43.116  12.064
63236W        W30019  39.921  17.321  10.326
63237W        W30020  32.214  41.351  11.243
63238W        W30021  34.500  42.624  13.319
63239W        W30022   7.605  11.702   0.626
63240W        W30023  32.339  24.642  12.006
63241W        W30024  27.032  21.257   1.722
63242W        W30025  20.759  13.438   2.764
63243W        W30026  36.100  30.943  10.946
63244W        W30027  31.940  28.527  13.900
63245W        W30028   9.750  14.586  14.443
63246W        W30029   7.697  11.998   4.115
63247W        W30030  32.694  43.689   0.263
63248W        W30031  35.498  16.487   3.472
63249W        W30032  17.297   9.463   3.525
63250W        W30033  19.109   8.874   0.880
63251W        W30034  44.772   4.639  12.821
63252W        W30035   4.913  40.001  12.395
63253W        W30036   5.673   0.515   2.317
63254W        W30037  15.584   5.293   4.702
63255W        W30038   8.977  22.967  12.175
63256W        W30039  37.008   5.935   3.273
63257W        W30040  15.298  31.515  11.132
63258W        W30041  17.238   2.722   0.812
63259W        W30042  30.056  17.039   4.600
63260W        W30043  20.809  20.039   3.413
63261W        W30044   6.829   3.368   3.237
63262W        W30045  25.655  13.025  14.031
63263W        W30046  15.750  38.602  13.345
63264W        W30047  30.277  18.230  13.091
63265W        W30048  41.754  34.549   1.013
63266W        W30049  29.167  13.330   1.869
63267W        W30050  26.570  22.056   4.701
63268W        W30051  34.156  23.538  10.225
63269W        W30052  33.092  44.836   1.442
63270W        W30053  16.617  39.668   0.395
63271W        W30054  16.126   2.212   1.444
63272W        W30055  18.574  34.958   3.173
63273W        W30056  17.310  33.121  13.490
63274W        W30057  16.293  12.726   4.643
63275W        W30058   5.787  37.390  10.688
63276W        W30059  10.705  23.458   0.034
63277W        W30060  44.912  40.575   3.124
63278W        W30061  38.347  35.011   2.231
63279W        W30062  34.617   7.995   3.138
63280W        W30063  20.985  31.045  14.251
63281W        W30064   1.451  16.362   2.359
63282W        W30065  15.963  30.167  10.738
63283W        W30066  20.551  19.729  11.217
63284W        W30067  30.409  31.691  13.904
63285W        W30068  41.724  44.265   0.878
63286W        W30069  35.091  13.308   3.105
63287W        W30070  31.114  27.082  14.474
63288W        W30071  15.847  26.016   0.878
63289W        W30072  44.223  40.278  11.487
63290W        W30073  25.504   1.864   0.822
63291W        W30074   1.260  17.068  11.085
63292W        W30075  12.581   4.718  12.055
63293W        W30076  35.108  19.855   4.453
63294W        W30077  25.085  34.634  10.678
63295W        W30078   9.366  11.690   3.681
63296W        W30079  10.205  33.232  14.966
63297W        W30080  41.357  36.012   2.411
63298W        W30081  25.736  14.943   1.255
63299W        W30082  17.633  13.529  13.090
63300W        W30083  10.854  17.731  13.467
63301W        W30084   6.138   2.410  13.481
63302W        W30085  16.639  27.051   1.425
63303W        W30086  10.225  31.135  11.958
63304W        W30087   6.933  25.198   1.669
63305W        W30088  10.724  13.649  11.627
63306W        W30089   5.917   5.314  12.680
63307W        W30090  35.663  22.103  11.535
63308W        W30091  36.178  22.192  10.740
63309W        W30092  24.656   3.836  13.986
63310W        W30093  39.370   2.241  12.603
63311W        W30094  26.976  30.918  14.323
63312W        W30095  11.568  15.636  11.455
63313W        W30096   5.858  41.841   1.339
63314W        W30097  22.645  19.730  11.570
63315W        W30098  29.632  27.434   2.175
63316W        W30099  29.053   7.243  12.385
63317W        W30100   5.241  24.716   1.028
63318W        W30101  12.334  39.346   0.495
63319W        W30102  40.702  44.621  12.967
63320W        W30103  15.350   4.880   4.522
63321W        W30104  19.244  30.368   1.190
63322W        W30105  13.393  18.264  14.813
63323W        W30106  18.692  42.300   2.515
63324W        W30107  32.129  27.148   3.944
63325W        W30108  39.865  31.558  10.428
63326W        W30109  23.756  21.474   0.870
63327W        W30110  12.757   0.978  14.184
63328W        W30111  33.357  19.027  10.745
63329W        W30112   2.911   7.516   4.085
63330W        W30113  43.541   3.049  12.111
63331W        W30114  33.580  22.467  13.895
63332W        W30115   7.338  23.779   0.159
63333W        W30116   8.877   9.845  13.862
63334W        W30117   4.629  25.968   0.389
63335W        W30118   7.180   5.305  10.721
63336W        W30119  43.485  30.249  11.980
63337W        W30120  30.037  11.708   3.305
63338W        W30121  43.711  34.387   2.749
63339W        W30122  32.085  41.071  13.477
63340W        W30123  28.936   0.478   2.255
63341W        W30124   1.730  17.253   0.787
63342W        W30125  41.987  27.615   2.620
63343W        W30126   6.632  20.523   4.169
63344W        W30127   9.410  20.293  12.020
63345W        W30128  38.812  14.823   3.143
63346W        W30129  44.646  32.526  12.596
63347W        W30130  12.666  39.641   2.564
63348W        W30131  29.201   9.744  13.889
63349W        W30132   7.032   4.748  14.326
63350W        W30133  33.585  31.547  13.409
63351W        W30134  24.847  33.663  14.872
63352W        W30135  14.156  21.451  13.278
63353W        W30136  38.923  25.872   1.924
63354W        W30137  31.460  43.783   0.781
63355W        W30138  19.254  33.053  14.437
63356W        W30139   2.646   0.676   5.074
63357W        W30140  38.499  40.993   4.216
63358W        W30141  23.021  13.325   3.381
63359W        W30142   7.072  25.052  12.007
63360W        W30143  12.849   0.511   1.158
63361W        W30144  38.086  14.977  12.925
63362W        W30145  44.232   3.752  13.474
63363W        W30146  16.334  42.842   1.284
63364W        W30147  25.600  35.043   1.433
63365W        W30148  23.630   5.435   0.972
63366W        W30149  35.216  35.995  13.548
63367W        W30150   3.382  18.202  12.590
63368W        W30151  24.446  35.175  14.418
63369W        W30152  23.561  41.176   3.632
63370W        W30153  14.782   2.849  13.469
63371W        W30154  43.559  40.389  10.697
63372W        W30155  30.691  18.450   2.747
63373W        W30156  12.281  24.650   4.769
63374W        W30157   9.086  26.934   3.885
63375W        W30158   7.853  27.476  11.857
63376W        W30159  25.649   8.787   0.803
63377W        W30160  41.380   9.260   2.752
63378W        W30161  34.156  38.305   3.743
63379W        W30162  32.511   0.955   4.025
63380W        W30163  20.611  30.236  13.719
63381W        W30164  43.209  24.014   3.244
63382W        W30165  18.285  11.326   3.264
63383W        W30166  21.506   1.427   1.960
63384W        W30167  14.254  21.668  14.287
63385W        W30168  35.778   0.050   1.308
63386W        W30169   9.949  39.019   3.689
63387W        W30170  19.418  37.857   4.583
63388W        W30171  12.181  32.512   1.935
63389W        W30172  27.719  32.936   4.582
63390W        W30173  19.849  14.257   3.189
63391W        W30174  29.375  30.461   1.822
63392W        W30175  18.759  17.317  13.920
63393W        W30176  10.552  19.076  11.160
63394W        W30177  20.548  17.092   4.554
63395W        W30178  11.906  25.407  11.950
63396W        W30179   0.234  37.931  13.202
63397W        W30180  22.207  12.645   0.377
63398W        W30181  29.565  41.866  13.907
63399W        W30182  27.375  11.056   2.158
63400W        W30183  34.631  41.910   2.605
63401W        W30184   1.250   5.947  14.412
63402W        W30185   4.827  23.117  12.056
63403W        W30186  12.794  22.732  11.156
63404W        W30187   4.610  14.155  13.426
63405W        W30188   1.275  44.140  14.315
63406W        W30189  12.138  31.841   2.670
63407W        W30190  34.417  25.066   0.919
63408W        W30191  36.937  21.524  10.566
63409W        W30192  17.844   8.339  11.201
63410W        W30193  16.834   4.337   2.806
63411W        W30194  35.848  15.154   2.282
63412W        W30195  10.027   2.049   1.790
63413W        W30196  42.455  31.170   4.096
63414W        W30197  17.750  26.141   0.815
63415W        W30198  41.570   2.230  13.403
63416W        W30199  16.198   5.430   0.820
63417W        W30200   1.142  34.302   2.328
63418W        W30201  34.473  14.701  14.866
63419W        W30202  19.497   5.083  12.633
63420W        W30203  28.116  41.735   4.286
63421W        W30204   5.705   1.933  10.829
63422W        W30205  12.061   5.893  12.531
63423W        W30206  25.673  27.775   2.839
63424W        W30207  35.217  25.928   0.382
63425W        W30208  16.501  11.267   1.903
63426W        W30209  36.570  18.567   1.512
63427W        W30210  16.662   3.979   4.742
63428W        W30211  19.493   3.804  11.123
63429W        W30212  33.407  37.965   3.667
63430W        W30213  21.758  32.371  10.684
63431W        W30214   4.105   5.180  13.268
63432W        W30215  30.328  34.110   3.664
63433W        W30216  27.491  17.118  11.035
63434W        W30217  34.617  21.413  14.627
63435W        W30218  44.297   1.714   1.653
63436W        W30219  38.485  43.999  13.945
63437W        W30220  35.478  19.687  13.435
63438W        W30221  32.225   4.882   3.712
63439W        W30222   8.696   7.239  10.875
63440W        W30223  20.762  10.088   0.075
63441W        W30224   7.334   1.463   0.423
63442W        W30225  18.968  17.968   9.976
63443W        W30226  38.954   7.512   2.220
63444W        W30227   7.270  23.516  13.875
63445W        W30228  28.076  15.416   4.249
63446W        W30229  20.055  34.551  12.138
63447W        W30230  37.106  31.109  12.502
63448W        W30231   8.034  34.549  13.994
63449W        W30232  31.254  20.204   5.056
63450W        W30233  27.479   0.931  11.976
63451W        W30234  36.118   7.382  12.098
63452W        W30235  20.664  39.992  12.841
63453W        W30236  43.723   4.549   1.333
63454W        W30237  10.281  37.832   0.461
63455W        W30238   1.675  10.700   4.879
63456W        W30239  21.960  36.476  14.420
63457W        W30240  34.181   1.300  11.637
63458W        W30241  14.228  28.005  12.464
63459W        W30242  41.441  40.967   1.742
63460W        W30243  41.096  37.819   4.166
63461W        W30244  11.354  15.859   2.320
63462W        W30245  40.945  17.837   1.748
63463W        W30246  37.182  28.835  10.258
63464W        W30247  28.845  39.983   0.707
63465W        W30248   3.450  28.856   0.399
63466W        W30249  26.963  25.998  14.697
63467W        W30250  33.453  37.079  11.622
63468W        W30251  30.690  25.607   2.265
63469W        W30252  30.023  19.848  10.312
63470W        W30253  23.916  36.838   2.492
63471W        W30254  14.371   0.291   0.181
63472W        W30255  32.608  32.087  11.258
63473W        W30256  11.185  42.928   1.131
63474W        W30257  44.541   6.644   1.330
63475W        W30258  37.416  14.199  12.366
63476W        W30259  35.632  13.081  13.137
63477W        W30260  30.217  33.464   1.248
63478W        W30261  14.503   0.278   4.507
63479W        W30262  27.645  16.051  14.056
63480W        W30263  37.074  37.487   0.478
63481W        W30264  26.115  35.681   0.896
63482W        W30265  34.332   6.294   2.721
63483W        W30266   7.903   7.920   0.219
63484W        W30267   6.639  18.987   4.268
63485W        W30268  37.339  11.735  14.319
63486W        W30269  32.808   1.182   4.379
63487W        W30270   2.808  13.991  10.699
63488W        W30271  16.595  41.116   2.241
63489W        W30272  26.979   2.266   2.258
63490W        W30273  42.461  13.824  11.879
63491W        W30274  16.625  14.760  11.571
63492W        W30275  12.738  39.133  14.366
63493W        W30276  23.685   5.490   3.660
63494W        W30277  29.959  21.975   4.978
63495W        W30278  12.149   2.820   3.885
63496W        W30279  37.318  26.690  13.096
63497W        W30280  29.958  43.080   4.050
63498W        W30281  14.485  14.335  12.016
63499W        W30282   6.592  41.407   1.429
63500W        W30283  18.240  31.122   2.695
63501W        W30284  21.804  19.694  14.880
63502W        W30285   7.258   9.120   0.749
63503W        W30286  16.617  19.341   0.361
63504W        W30287  25.239  25.065   3.767
63505W        W30288  43.841   3.382  14.455
63506W        W30289   2.713  25.390   0.240
63507W        W30290  19.816  17.726  14.200
63508W        W30291  21.385  23.875  10.615
63509W        W30292   5.203  42.624   1.705
63510W        W30293   9.909  42.640   4.913
63511W        W30294  26.002  26.988  10.845
63512W        W30295  10.820  32.006   4.105
63513W        W30296  41.978  40.758   4.685
63514W        W30297  10.452  14.435   4.173
63515W        W30298  36.057  34.364   2.278
63516W        W30299  21.593  17.753   1.534
63517W        W30300  30.031  16.556   1.217
63518W        W30301   6.973  14.556  12.571
63519W        W30302  12.272  24.651  11.559
63520W        W30303  19.313   1.505   4.154
63521W        W30304  30.453  34.974   3.727
63522W        W30305  22.122  27.239   0.432
63523W        W30306  41.314  44.425   4.096
63524W        W30307  35.961  21.155  12.920
63525W        W30308  18.628  29.388  14.441
63526W        W30309  36.405  26.983   2.640
63527W        W30310   6.846  28.573  11.729
63528W        W30311   8.803  27.453  12.687
63529W        W30312  35.498  35.119   4.675
63530W        W30313  19.262  35.009  14.448
63531W        W30314  10.609  27.176  14.476
63532W        W30315  32.810  28.476  10.729
63533W        W30316  31.571   7.797   2.330
63534W        W30317  13.837  26.555   4.131
63535W        W30318   2.491  32.453   4.712
63536W        W30319  25.674  32.440  11.071
63537W        W30320  22.030  32.712  11.533
63538W        W30321  25.431   8.979  12.002
63539W        W30322  32.999  33.621   3.763
63540W        W30323  12.141   9.298   3.234
63541W        W30324  41.499   6.508  12.161
63542W        W30325  18.128  25.882   2.337
63543W        W30326   7.779  40.785  10.728
63544W        W30327  13.830  40.525  12.814
63545W        W30328  23.408  38.996  12.045
63546W        W30329  41.220  10.730  12.658
63547W        W30330  37.093  27.104  14.719
63548W        W30331  44.690  32.905   2.260
63549W        W30332  23.068  20.584   1.102
63550W        W30333  21.101  16.897   0.687
63551W        W30334  23.722  42.121  11.626
63552W        W30335  21.512  30.548  14.087
63553W        W30336  17.351  33.969  14.990
63554W        W30337  27.737  31.171  14.913
63555W        W30338  39.068  33.021  12.515
63556W        W30339  29.357  39.561  12.294
63557W        W30340  19.864   3.480  13.882
63558W        W30341  42.446  28.228   3.179
63559W        W30342   0.928   2.911  11.876
63560W        W30343  24.838  39.576  14.576
63561W        W30344  20.870  36.556  13.529
63562W        W30345  13.512  24.182  12.430
63563W        W30346  28.621  28.987  13.741
63564W        W30347  37.809   7.639  14.861
63565W        W30348  44.552  40.317   2.846
63566W        W30349   2.000  38.348   1.741
63567W        W30350  18.166  15.901  14.661
63568W        W30351  13.770   1.413  10.452
63569W        W30352  33.983  44.586  13.518
63570W        W30353  19.009  44.216  13.841
63571W        W30354  17.773  25.291   0.425
63572W        W30355  20.657  43.918  13.310
63573W        W30356  35.273  35.499   0.544
63574W        W30357  21.125  32.031  12.173
63575W        W30358  37.549   9.567   0.764
63576W        W30359  32.085  19.581  12.927
63577W        W30360  34.090  38.969   4.284
63578W        W30361  21.237  37.782  14.501
63579W        W30362   9.918  44.343   2.173
63580W        W30363  37.710   3.374   2.724
63581W        W30364   3.305  35.441   1.755
63582W        W30365   3.454  19.064   4.693
63583W        W30366  26.837   4.416  12.983
63584W        W30367   6.351  37.452  13.794
63585W        W30368   0.916  25.274  14.934
63586W        W30369  30.146  42.346   2.899
63587W        W30370  28.857  32.624   1.343
63588W        W30371  29.362   2.355  14.130
63589W        W30372  43.964  12.575   4.088
63590W        W30373  21.767  32.496   0.030
63591W        W30374   5.808   3.472   0.677
63592W        W30375  37.925  25.273  12.075
63593W        W30376   2.901  41.081   3.148
63594W        W30377  40.711   6.269  11.674
63595W        W30378  13.988   9.821   0.127
63596W        W30379  43.321   6.737   3.580
63597W        W30380  42.763  27.346  10.684
63598W        W30381  28.397  25.929  13.301
63599W        W30382  27.475  14.252  12.061
63600W        W30383  10.126  25.418  10.962
63601W        W30384  21.095   7.617   2.812
63602W        W30385  20.806  33.929  14.368
63603W        W30386  33.201  22.099   0.039
63604W        W30387  14.396  32.420   2.250
63605W        W30388  31.562   3.191   1.432
63606W        W30389  38.475  41.336  12.516
63607W        W30390  38.379   1.781   2.643
63608W        W30391   2.436  44.711  12.410
63609W        W30392  10.896   9.673  14.004
63610W        W30393  23.529  23.031  11.920
63611W        W30394  25.190  11.228   4.465
63612W        W30395  10.157  30.440   2.489
63613W        W30396  18.858   4.893   2.196
63614W        W30397  12.205  33.486  13.395
63615W        W30398   6.856  15.901  14.441
63616W        W30399  41.495  34.104   0.915
63617W        W30400  30.805  13.880   1.411
63618W        W30401  30.426  37.313   0.748
63619W        W30402  13.432  16.709   0.410
63620W        W30403  19.408  25.044   0.729
63621W        W30404  16.663  24.471  13.953
63622W        W30405  28.674  21.315   1.395
63623W        W30406   0.330   2.029  13.420
63624W        W30407  44.556  24.046  13.453
63625W        W30408  30.027  38.168  12.985
63626W        W30409  40.093  17.213  13.536
63627W        W30410  43.856   7.988  11.605
63628W        W30411  18.819   6.306  14.672
63629W        W30412  44.944   3.318  10.877
63630W        W30413  11.457  38.779   3.645
63631W        W30414   3.323  29.680  14.877
63632W        W30415  36.994  27.440   3.129
63633W        W30416   4.977  16.921   4.193
63634W        W30417  14.592  17.042   2.139
63635W        W30418  40.380   7.689   3.763
63636W        W30419   0.673  33.536   0.247
63637W        W30420  14.097  24.627  12.932
63638W        W30421  18.243  31.505   4.182
63639W        W30422  14.025  26.890   3.745
63640W        W30423  39.737  42.256   1.091
63641W        W30424   7.206  21.072  12.898
63642W        W30425  28.375   1.945  13.335
63643W        W30426  34.492   8.114  12.775
63644W        W30427  21.805  20.075   0.263
63645W        W30428  33.400  19.448  10.027
63646W        W30429  28.026  19.626   0.777
63647W        W30430  28.495  21.216   3.826
63648W        W30431   4.199  28.626   1.747
63649W        W30432  20.035   1.393  10.874
63650W        W30433  20.908  33.462   2.816
63651W        W30434  33.466  36.191  13.974
63652W        W30435  44.047  18.780   0.948
63653W        W30436  18.074  15.314   2.306
63654W        W30437  23.936  44.506  10.558
63655W        W30438  36.813  10.261  12.132
63656W        W30439  31.409   2.865   0.203
63657W        W30440  13.542  26.271  13.142
63658W        W30441  26.788  39.216  13.414
63659W        W30442   1.633   2.538   0.280
63660W        W30443  42.182  13.187   4.382
63661W        W30444   0.601  39.939   1.173
63662W        W30445  29.143  16.766   2.018
63663W        W30446   1.078  24.575   0.393
63664W        W30447   0.469  38.466  12.338
63665W        W30448   4.798  16.217  11.017
63666W        W30449  16.745  19.523  13.492
63667W        W30450  35.579  20.645  14.973
63668W        W30451  35.033  20.260   0.023
63669W        W30452  40.413  25.455  13.453
63670W        W30453  26.018   2.861   3.376
63671W        W30454  32.609  26.186   0.524
63672W        W30455  17.149   7.156  13.818
63673W        W30456  25.296  10.178  12.676
63674W        W30457  16.781   2.713   1.494
63675W        W30458   6.316   8.841  13.423
63676W        W30459  38.944  44.763  14.083
63677W        W30460  19.474   3.528  12.523
63678W        W30461   2.572   0.774  13.241
63679W        W30462  26.093  17.579  13.299
63680W        W30463   7.831   9.801   3.858
63681W        W30464   1.180  41.298  10.727
63682W        W30465  11.901  15.892   4.601
63683W        W30466  22.070  22.691   1.348
63684W        W30467  14.575  30.628  14.864
63685W        W30468   4.873  33.433  11.500
63686W        W30469  28.070  34.555   3.779
63687W        W30470  41.578  26.585   0.811
63688W        W30471   2.389  35.227   0.736
63689W        W30472  29.035  17.673  12.152
63690W        W30473  31.242  10.221  13.565
63691W        W30474  44.744  17.995   3.910
63692W        W30475  39.429   9.550  14.296
63693W        W30476  43.024  15.384  14.108
63694W        W30477  23.815   0.724   3.750
63695W        W30478  24.695  16.311  12.802
63696W        W30479  33.134  31.674  14.892
63697W        W30480  39.595   9.263  14.692
63698W        W30481  10.374  21.570  10.736
63699W        W30482  39.562  33.584  12.041
63700W        W30483  17.055   9.180   3.166
63701W        W30484  32.637  43.009   1.166
63702W        W30485  26.193   7.269   0.735
63703W        W30486  12.142  12.156   0.451
63704W        W30487   8.287  43.771  14.420
63705W        W30488  27.035  15.586  12.978
63706W        W30489  43.796  24.607   4.797
63707W        W30490  26.464  44.937  12.897
63708W        W30491  39.091   5.136  11.119
63709W        W30492  11.590  24.035   3.617
63710W        W30493  37.936   5.363  10.323
63711W        W30494  14.739  23.446   4.339
63712W        W30495   5.045  27.218   0.010
63713W        W30496   0.014  26.004  12.432
63714W        W30497  20.729  15.509   0.731
63715W        W30498   7.219  16.630  14.371
63716W        W30499  27.767  31.690  14.915
63717W        W30500   5.878  34.032  13.399
63718W        W30501  21.958  15.192   4.840
63719W        W30502  33.735  27.935  12.314
63720W        W30503  34.807  13.714   0.964
63721W        W30504  39.992  23.163  13.615
63722W        W30505  43.289  33.842   1.329
63723W        W30506  15.443  42.766   3.662
63724W        W30507  32.058   1.195   3.941
63725W        W30508   2.390  27.734   4.162
63726W        W30509  24.493  25.726   2.226
63727W        W30510  25.920  34.924  12.417
63728W        W30511  21.581   9.448  14.507
63729W        W30512  25.716  17.205   0.943
63730W        W30513   3.745  21.846  10.697
63731W        W30514   6.400   1.386  11.389
63732W        W30515  11.661  35.853   1.225
63733W        W30516  36.311  11.088  13.879
63734W        W30517  39.748  42.455   2.087
63735W        W30518  22.061  43.299  13.330
63736W        W30519  20.307  22.222  12.132
63737W        W30520  34.068  25.135  13.784
63738W        W30521  24.561  41.950   4.170
63739W        W30522  23.147   6.235   1.020
63740W        W30523  34.637  41.922  14.446
63741W        W30524  31.475  28.652  11.600
63742W        W30525  20.571  34.520  11.156
63743W        W30526  22.990  44.182  12.456
63744W        W30527  23.598  39.547  14.349
63745W        W30528  39.900  15.895   2.240
63746W        W30529  17.452  40.727   1.745
63747W        W30530  16.704   7.015  12.420
63748W        W30531  32.447  28.641  13.955
63749W        W30532   1.276  25.036  10.940
63750W        W30533   8.666  33.892  10.735
63751W        W30534  39.496  23.060  12.894
63752W        W30535   3.572   3.084  14.501
63753W        W30536  34.513   5.025   1.293
63754W        W30537  35.154   7.328  13.052
63755W        W30538   9.250  14.886   4.676
63756W        W30539   8.174  17.030  12.872
63757W        W30540  21.239  11.733  14.282
63758W        W30541  26.375   4.740   4.540
63759W        W30542  18.759  36.530   1.737
63760W        W30543  15.138   1.409   2.573
63761W        W30544  34.547   6.835   1.758
63762W        W30545  33.586  30.700   3.303
63763W        W30546  31.599  28.341  12.405
63764W        W30547  19.328  34.441  10.428
63765W        W30548  15.619  30.683  13.930
63766W        W30549  30.746  14.479   3.693
63767W        W30550  42.816   9.980  11.252
63768W        W30551  21.432  35.767   1.483
63769W        W30552  18.139  16.347   4.719
63770W        W30553  10.022  22.577   2.355
63771W        W30554  26.524  26.672   3.631
63772W        W30555  10.268   3.422  10.293
63773W        W30556   3.253   4.511  12.143
63774W        W30557   6.411  20.564   2.269
63775W        W30558  27.460   3.372  10.621
63776W        W30559  26.764  14.874   0.370
63777W        W30560  25.333  19.533  13.347
63778W        W30561   7.203  24.666   3.174
63779W        W30562  39.769  25.584  12.414
63780W        W30563   0.219  24.654  14.504
63781W        W30564   3.804  30.509  11.697
63782W        W30565  16.352  35.928  13.113
63783W        W30566   6.670  13.817  10.834
63784W        W30567  38.951  11.170  13.090
63785W        W30568  23.239   4.201  11.857
63786W        W30569  42.922  25.910  11.603
63787W        W30570  11.922  20.611   1.750
63788W        W30571   6.673  13.503  11.228
63789W        W30572  41.735  27.144  14.416
63790W        W30573  35.045  35.198  11.132
63791W        W30574  25.673  18.800   4.652
63792W        W30575  11.619  40.341  11.531
63793W        W30576  20.037   5.298   1.579
63794W        W30577  26.227   0.651  13.808
63795W        W30578  38.804  22.974   2.704
63796W        W30579  26.722  12.286  13.000
63797W        W30580  13.800  22.163   0.979
63798W        W30581  21.990  20.052  12.130
63799W        W30582   1.928  22.050   1.954
63800W        W30583  44.462  26.437  11.206
63801W        W30584  19.882  29.934  12.365
63802W        W30585   7.765  19.068   2.226
63803W        W30586  24.860  14.436   5.091
63804W        W30587  41.841  18.202  13.130
63805W        W30588  10.660  28.931   3.753
63806W        W30589   7.774  20.262   0.260
63807W        W30590  14.645  34.175  11.898
63808W        W30591  25.128  20.137   3.878
63809W        W30592  32.358  40.890  11.952
63810W        W30593  20.260   5.890   0.478
63811W        W30594  42.376  44.874   1.017
63812W        W30595   6.354  38.932   2.089
63813W        W30596   7.393  32.845   2.796
63814W        W30597  26.485  36.111  12.654
63815W        W30598  19.493  23.951  11.803
63816W        W30599  40.503  22.304  12.468
63817W        W30600  18.116   5.613  13.063
63818W        W30601  16.253  17.714  12.118
63819W        W30602  24.065  10.310  10.422
63820W        W30603  36.006  25.734   2.972
63821W        W30604  18.649  30.224  12.100
63822W        W30605  15.567   7.143   4.557
63823W        W30606  13.110  17.254   1.414
63824W        W30607   6.300  30.000   1.622
63825W        W30608   5.188  25.613   3.265
63826W        W30609  19.162   1.231   0.977
63827W        W30610   5.395  31.088  12.405
63828W        W30611  19.595  44.321  10.706
63829W        W30612  15.824  20.746   0.920
63830W        W30613  14.850   6.935  13.514
63831W        W30614  39.086  34.946   0.898
63832W        W30615   9.309  20.686   2.641
63833W        W30616  15.105  28.466   3.833
63834W        W30617  32.082  31.912  10.376
63835W        W30618   2.944  25.156   1.638
63836W        W30619  42.919  39.928   3.330
63837W        W30620  35.558  34.624   3.952
63838W        W30621  30.996  33.440  14.810
63839W        W30622  41.967  33.536  14.717
63840W        W30623   4.419  11.758   2.237
63841W        W30624   7.800  37.988   4.980
63842W        W30625  21.707  25.445   2.345
63843W        W30626  18.727   8.982   2.256
63844W        W30627  25.603   5.817  12.117
63845W        W30628   7.186  37.342   0.788
63846W        W30629  11.308   9.470  14.226
63847W        W30630  40.638  32.249   1.615
63848W        W30631  12.332  10.131  11.098
63849W        W30632  17.624  19.226  10.473
63850W        W30633  29.607  43.439  10.444
63851W        W30634  43.881  14.790   0.176
63852W        W30635  44.801  11.981  12.575
63853W        W30636  24.006   1.020  14.404
63854W        W30637  10.324   4.510  12.422
63855W        W30638   1.325  25.066  12.399
63856W        W30639  31.051  25.062  10.696
63857W        W30640  28.167  29.936   1.361
63858W        W30641  43.950  41.058   0.899
63859W        W30642   9.484  27.616   1.724
63860W        W30643  17.028   7.411   4.275
63861W        W30644  40.549   2.065   3.121
63862W        W30645  16.322  14.548  13.948
63863W        W30646  12.562   8.994  13.229
63864W        W30647  43.053  34.096  12.363
63865W        W30648  38.814   8.479  13.855
63866W        W30649  19.595  22.641   4.626
63867W        W30650  23.630   1.550  11.472
63868W        W30651  40.938  40.056  12.848
63869W        W30652  14.703  39.924  10.525
63870W        W30653   0.464   1.978   3.090
63871W        W30654  34.347  39.674   2.957
63872W        W30655  14.892  36.848  13.483
63873W        W30656  37.933  40.591   0.226
63874W        W30657  11.609  28.369   4.214
63875W        W30658  24.193   4.662   1.567
63876W        W30659   8.634   6.851   2.258
63877W        W30660  16.222  13.134   0.820
63878W        W30661   5.687   0.516   3.244
63879W        W30662   2.237  26.138  12.535
63880W        W30663  14.525  41.270   4.136
63881W        W30664   8.197  37.736  14.988
63882W        W30665   2.424  31.948  10.784
63883W        W30666   0.902  39.234   2.256
63884W        W30667   7.638  39.949  14.933
63885W        W30668  21.352  15.677  10.719
63886W        W30669  19.595  31.009   2.769
63887W        W30670  44.191  25.561   3.979
63888W        W30671  17.282  29.904  11.382
63889W        W30672  26.661  18.223   4.639
63890W        W30673  25.832   3.708   3.246
63891W        W30674   7.796   3.005   2.384
63892W        W30675  42.667  12.142  10.330
63893W        W30676  42.099  16.764   0.776
63894W        W30677  10.694  25.927   1.495
63895W        W30678  20.689  11.353   1.787
63896W        W30679   4.931  28.505  12.111
63897W        W30680  12.461  11.665  10.904
63898W        W30681  20.644  25.433  10.950
63899W        W30682   1.452  10.172   2.307
63900W        W30683  35.167  11.726   3.095
63901W        W30684  13.343  10.340   1.267
63902W        W30685  40.382  32.006  14.891
63903W        W30686  14.056   3.883   1.443
63904W        W30687   6.492  28.580   3.209
63905W        W30688  20.605  10.881   0.686
63906W        W30689  39.613  26.721  10.549
63907W        W30690   2.339  17.144   1.935
63908W        W30691   0.887   5.328   1.712
63909W        W30692  16.722  27.089   2.881
63910W        W30693  29.157  31.374   3.815
63911W        W30694   3.745  12.659  14.478
63912W        W30695  19.262  37.742  14.728
63913W        W30696  11.322  24.003   3.153
63914W        W30697  20.954  29.140   2.198
63915W        W30698   5.264   7.699  10.628
63916W        W30699  16.042  14.877   3.537
63917W        W30700  42.771   4.922  10.592
63918W        W30701  19.282   0.951   2.789
63919W        W30702   2.839  31.822   0.873
63920W        W30703  40.304  11.846  10.790
63921W        W30704   1.288  39.054  13.029
63922W        W30705  34.542  11.284   0.667
63923W        W30706  18.256  29.128   2.319
63924W        W30707  22.058  13.352  10.569
63925W        W30708  37.316  27.829  11.987
63926W        W30709  40.579  36.819   1.707
63927W        W30710  14.594   8.922  13.300
63928W        W30711   1.012  20.801   1.377
63929W        W30712  21.573  42.038  11.180
63930W        W30713  36.834   4.585  13.490
63931W        W30714  38.380  23.676   2.303
63932W        W30715  41.574  17.029   0.015
63933W        W30716  39.464  22.673   3.192
63934W        W30717  26.186  10.056   4.502
63935W        W30718   3.922  14.930   3.748
63936W        W30719  14.784   9.826   4.187
63937W        W30720  20.114  28.418   2.212
63938W        W30721  44.863  13.639   0.393
63939W        W30722  37.859  20.726  11.198
63940W        W30723  16.297  29.224  10.570
63941W        W30724  23.254  39.576   1.838
63942W        W30725  25.933  32.100   0.004
63943W        W30726  38.026  24.631   0.474
63944W        W30727  19.075  30.517   0.739
63945W        W30728  39.624  34.549   1.762
63946W        W30729  27.665   0.553   4.736
63947W        W30730  16.614  21.609   0.948
63948W        W30731  31.421  38.354  14.205
63949W        W30732   3.962   6.320   0.988
63950W        W30733  20.936  36.150   0.097
63951W        W30734  37.841  16.086   0.235
63952W        W30735  40.596   2.346   4.036
63953W        W30736  24.505  13.353   3.900
63954W        W30737  19.271  31.663   2.196
63955W        W30738  35.572  38.454  13.426
63956W        W30739  44.830  27.990  12.418
63957W        W30740  42.334  43.913  11.604
63958W        W30741  13.824  41.511  12.912
63959W        W30742  28.466  36.524  12.995
63960W        W30743   4.823  30.405   3.867
63961W        W30744   8.334  38.836   0.790
63962W        W30745  33.575  44.786  12.518
63963W        W30746   5.725  16.371   1.339
63964W        W30747  39.944  27.034   2.255
63965W        W30748  28.069  10.010   1.860
63966W        W30749  22.655  29.808   3.688
63967W        W30750  14.042  20.943  13.239
63968W        W30751  32.125   3.921  13.867
63969W        W30752  37.635   2.347   2.266
63970W        W30753  11.821  27.342   3.215
63971W        W30754   9.136  38.085   4.610
63972W        W30755   8.178  25.914  12.282
63973W        W30756  38.422  28.447   2.313
63974W        W30757   5.261  25.052  14.546
63975W        W30758  15.606   1.949   3.161
63976W        W30759  42.450  28.639   1.267
63977W        W30760   8.056  22.493   4.836
63978W        W30761  40.786   1.968  11.277
63979W        W30762  24.641  16.596  13.789
63980W        W30763   7.171  28.092   3.600
63981W        W30764   9.865   7.179   9.772
63982W        W30765  37.078   3.330   1.383
63983W        W30766  13.262   9.815   1.270
63984W        W30767  28.691  15.356  14.960
63985W        W30768  35.088   3.518   0.562
63986W        W30769  43.459  36.005  14.448
63987W        W30770  27.659  23.633   4.232
63988W        W30771  32.102  38.816   2.350
63989W        W30772  30.295  15.441   2.340
63990W        W30773  41.455  20.229  12.676
63991W        W30774  21.339  36.993  10.684
63992W        W30775  24.410  31.315   0.817
63993W        W30776   8.702   5.757   4.017
63994W        W30777   3.151  36.385  13.839
63995W        W30778  24.667  15.584  13.549
63996W        W30779   1.319  27.060   0.662
63997W        W30780  30.430  30.393   3.706
63998W        W30781   0.941  10.606  14.904
63999W        W30782  22.034  38.762  14.367
64000W        W30783  23.453  15.762  12.838
64001W        W30784  33.981   6.640  12.040
64002W        W30785  40.287  11.809  14.639
64003W        W30786  32.706  17.573   2.229
64004W        W30787   2.714  38.383   2.828
64005W        W30788  35.066  19.025   4.102
64006W        W30789  22.925  28.407   2.787
64007W        W30790  44.570  29.617   2.730
64008W        W30791   4.248  43.586   0.297
64009W        W30792   2.020  37.017  13.992
64010W        W30793  24.178  35.835  11.524
64011W        W30794  37.364  29.868  14.879
64012W        W30795  20.571  44.160  11.828
64013W        W30796  16.787  29.983  12.807
64014W        W30797   0.765  39.838  11.385
64015W        W30798   9.198  37.581   3.281
64016W        W30799  39.595  26.745   3.232
64017W        W30800  41.346  27.103   4.093
64018W        W30801  10.578  34.092  12.465
64019W        W30802  20.669  27.945  10.977
64020W        W30803  29.619  37.092   0.231
64021W        W30804  26.448   2.224  14.455
64022W        W30805   0.227  26.090  13.778
64023W        W30806  40.561  28.187   2.718
64024W        W30807   8.411  15.630   4.998
64025W        W30808  13.618   5.352   4.522
64026W        W30809  24.156  19.024   3.858
64027W        W30810   4.758  34.193   2.792
64028W        W30811  32.068  18.229  13.953
64029W        W30812  21.168   1.864   3.708
64030W        W30813  25.533  11.095  11.222
64031W        W30814  13.404  18.712   0.409
64032W        W30815  28.875   0.778   3.276
64033W        W30816  36.914  28.698  12.943
64034W        W30817  18.767  19.582   0.845
64035W        W30818  19.372  15.410   1.243
64036W        W30819   8.588  43.418   1.792
64037W        W30820  38.927  17.917  10.500
64038W        W30821   3.755  23.624   0.028
64039W        W30822  22.908  29.851   3.191
64040W        W30823  39.039   7.703  11.814
64041W        W30824   0.446  23.941   3.771
64042W        W30825  44.401   3.689   4.112
64043W        W30826   3.149   4.892   2.475
64044W        W30827   3.159   4.310  14.917
64045W        W30828  44.877  20.627   1.904
64046W        W30829  13.062  31.499   3.673
64047W        W30830  21.460  34.630   3.249
64048W        W30831   5.329   6.745   3.123
64049W        W30832  44.182   6.188   4.539
64050W        W30833  13.254  25.154   2.109
64051W        W30834  26.744   7.177   3.933
64052W        W30835  26.740   1.479  13.831
64053W        W30836   7.460  13.643   2.586
64054W        W30837  21.198  24.773   4.174
64055W        W30838  27.385  17.654   1.898
64056W        W30839   9.114  37.326  14.910
64057W        W30840  42.032  34.434   3.781
64058W        W30841  36.037  30.120  13.406
64059W        W30842  32.979  36.114  10.774
64060W        W30843  27.633   5.549   4.786
64061W        W30844  40.210  40.825   3.699
64062W        W30845  30.536  31.292   3.582
64063W        W30846  25.264   0.500  13.927
64064W        W30847  33.638  38.602   2.039
64065W        W30848   8.142  43.719   2.278
64066W        W30849  34.512  25.353  13.595
64067W        W30850  28.780   5.978   1.589
64068W        W30851  39.590  37.984  14.016
64069W        W30852  15.048  14.888   2.353
64070W        W30853  17.038  20.351  14.465
64071W        W30854  26.877  22.486  10.736
64072W        W30855  38.118  27.591   1.891
64073W        W30856  26.755  36.945   1.898
64074W        W30857   3.258  24.503  11.484
64075W        W30858  38.741  15.179   3.735
64076W        W30859  19.007  33.258   2.014
64077W        W30860  13.949  10.362  14.876
64078W        W30861  25.156  22.745  10.961
64079W        W30862   7.746  14.754   0.264
64080W        W30863  24.026   9.961  13.713
64081W        W30864  43.870  36.799  14.591
64082W        W30865   9.668   5.716   2.224
64083W        W30866   2.145  36.946   2.772
64084W        W30867   6.369  13.203   0.665
64085W        W30868  44.220  35.861   0.426
64086W        W30869  23.753  11.628  11.193
64087W        W30870  17.229  36.770   3.292
64088W        W30871  22.545  14.900   4.521
64089W        W30872   9.637  14.913  12.188
64090W        W30873  32.997   9.774  13.411
64091W        W30874  27.646  12.044   4.599
64092W        W30875  33.430  13.157  14.870
64093W        W30876  28.141  34.487   1.711
64094W        W30877  32.059  23.978  13.387
64095W        W30878   4.344  23.551   1.283
64096W        W30879  22.238   9.171  11.908
64097W        W30880   6.460  27.639  11.990
64098W        W30881  24.477  21.483   1.811
64099W        W30882   7.764  35.154  11.577
64100W        W30883  40.346  10.260  12.969
64101W        W30884  35.069   4.476   0.816
64102W        W30885   4.472   6.953   3.277
64103W        W30886  42.832   9.841   4.729
64104W        W30887  11.815  22.071  14.051
64105W        W30888  14.302  35.873   5.502
64106W        W30889  11.758  21.446   2.681
64107W        W30890  16.141  26.639   0.258
64108W        W30891   1.737   2.325   2.770
64109W        W30892   1.283  31.602  12.904
64110W        W30893  39.388  44.271   4.101
64111W        W30894  17.752  23.140   4.580
64112W        W30895  22.066  23.658   2.407
64113W        W30896  16.805   0.911   4.078
64114W        W30897  43.370  21.529  14.461
64115W        W30898  33.249   7.442   3.550
64116W        W30899  22.036  35.912   3.195
64117W        W30900   8.731  39.849   4.290
64118W        W30901  43.386   9.882  10.053
64119W        W30902  43.843  20.151   4.023
64120W        W30903  32.266  22.064  12.561
64121W        W30904  11.648  42.439  10.497
64122W        W30905  28.282   8.252   3.317
64123W        W30906  43.697  33.186  11.734
64124W        W30907  31.590  30.888   0.259
64125W        W30908  32.909  33.115  10.795
64126W        W30909  33.554   4.423  10.714
64127W        W30910  19.215  37.825  10.602
64128W        W30911  36.894  40.996  11.601
64129W        W30912   2.531  19.554   3.354
64130W        W30913  31.926  18.726  12.617
64131W        W30914  23.634  12.565   4.119
64132W        W30915  37.330  33.079   4.040
64133W        W30916  36.216  40.508   5.012
64134W        W30917  38.273  17.610  11.035
64135W        W30918   2.741  37.579   1.737
64136W        W30919  43.300   5.298  14.641
64137W        W30920  35.049   4.363   3.710
64138W        W30921   5.173  39.880   0.927
64139W        W30922  18.106  22.264   1.591
64140W        W30923  19.991  12.521   3.304
64141W        W30924  43.025  34.961   0.350
64142W        W30925  40.785   0.531   0.466
64143W        W30926  14.086  30.163   1.021
64144W        W30927   3.943  39.464  11.213
64145W        W30928   7.911  31.592   2.791
64146W        W30929  13.221  34.379  12.828
64147W        W30930  10.723   1.237  13.323
64148W        W30931  10.295  22.468  11.194
64149W        W30932   0.289  29.519  14.956
64150W        W30933   8.889  39.538  13.568
64151W        W30934  14.707   2.259   0.312
64152W        W30935   1.474  18.325  13.996
64153W        W30936  10.293  15.433   1.216
64154W        W30937  10.622  15.422   1.983
64155W        W30938  13.728  20.831  12.841
64156W        W30939   4.690  41.095   2.238
64157W        W30940  27.135  43.637  11.521
64158W        W30941  37.198   1.997   1.511
64159W        W30942  40.948  31.920   4.799
64160W        W30943  37.572  39.860  14.765
64161W        W30944  17.080  10.399  13.569
64162W        W30945  38.183  19.679  12.930
64163W        W30946  35.025  18.612  10.643
64164W        W30947   4.343  43.481   1.164
64165W        W30948   0.414  22.685  14.805
64166W        W30949  37.954   5.079  11.758
64167W        W30950   2.111  30.386  13.083
64168W        W30951  15.863  20.739  10.131
64169W        W30952  42.429  23.434  10.982
64170W        W30953  13.532  26.472  10.570
64171W        W30954  25.478   9.669   4.129
64172W        W30955  34.627   4.192   0.761
64173W        W30956   1.045   3.798   1.879
64174W        W30957   4.887  43.060   0.875
64175W        W30958  28.255  22.747  12.533
64176W        W30959  10.295   9.551   1.464
64177W        W30960  42.941   6.912  13.473
64178W        W30961  13.485  20.082   4.538
64179W        W30962  19.579  43.641  11.922
64180W        W30963  12.618   5.842  10.697
64181W        W30964  37.985   7.856   1.981
64182W        W30965  18.079  22.691   1.889
64183W        W30966  31.008  22.921   3.035
64184W        W30967  34.141   0.452  12.124
64185W        W30968  27.617   5.161  14.355
64186W        W30969  27.562  23.131   4.370
64187W        W30970  38.049  37.905   2.757
64188W        W30971  31.432  20.287  13.435
64189W        W30972   2.827  29.670   4.129
64190W        W30973  23.558  31.703   3.351
64191W        W30974   1.855  24.258   3.201
64192W        W30975  11.977  41.087   2.241
64193W        W30976   4.099  10.677  12.451
64194W        W30977  16.002  34.566   2.778
64195W        W30978  29.419  15.853   5.205
64196W        W30979  36.333   5.236  11.141
64197W        W30980   2.975   1.505  13.687
64198W        W30981  38.321   5.351  10.704
64199W        W30982   3.005  20.512   3.263
64200W        W30983  43.466  16.918  11.417
64201W        W30984  37.172  35.718   1.345
64202W        W30985  25.602  32.511  12.127
64203W        W30986  16.752  12.096   2.194
64204W        W30987  41.325  26.999   5.109
64205W        W30988  32.442   0.175  12.551
64206W        W30989  21.637  38.232  14.982
64207W        W30990  42.662  13.509  13.257
64208W        W30991  20.550  39.792  10.552
64209W        W30992   8.853  23.479   4.370
64210W        W30993  10.790  37.531  13.549
64211W        W30994  28.560   2.464   4.279
64212W        W30995  43.858   0.890  13.997
64213W        W30996  10.397  37.939   3.651
64214W        W30997  32.202  26.504   4.259
64215W        W30998  37.025   7.462  14.728
64216W        W30999  15.310  21.658   4.834
64217W        W31000   0.796  15.231   5.037
64218W        W31001   3.332  38.743   2.333
64219W        W31002  43.803   2.372  10.614
64220W        W31003  19.872  33.953   1.400
64221W        W31004  21.041  29.135   1.348
64222W        W31005  12.078  28.577  13.919
64223W        W31006  15.837  12.324  13.872
64224W        W31007   9.642  18.996  12.410
64225W        W31008  24.827  28.212   4.532
64226W        W31009  41.264   5.983   1.782
64227W        W31010  32.943   8.259   2.335
64228W        W31011  40.804   7.875  11.970
64229W        W31012  36.585  10.292  11.448
64230W        W31013  15.814   6.972  14.103
64231W        W31014  28.958  14.478  12.778
64232W        W31015  27.947   4.873   0.977
64233W        W31016  43.223  23.082  11.142
64234W        W31017  11.363   4.356  13.872
64235W        W31018   4.473  17.634   4.845
64236W        W31019  22.527  43.375  14.393
64237W        W31020  10.209  21.156   1.254
64238W        W31021  20.594  37.933  11.753
64239W        W31022  20.333  42.491   3.018
64240W        W31023  31.662  15.528  10.673
64241W        W31024  16.870  19.409   4.031
64242W        W31025  32.582  21.841   0.725
64243W        W31026  12.015  18.606  12.122
64244W        W31027  42.994  25.340   5.189
64245W        W31028  44.951  25.328  14.995
64246W        W31029  42.696   8.857   3.739
64247W        W31030   8.974  22.113   1.692
64248W        W31031   7.163  23.233   0.806
64249W        W31032  39.310   8.389   4.546
64250W        W31033  21.533   3.649   3.670
64251W        W31034  14.578  10.879  11.991
64252W        W31035   3.887   2.308   0.940
64253W        W31036   2.244  16.282   2.877
64254W        W31037  14.742  34.097  12.756
64255W        W31038  35.829  33.735  14.536
64256W        W31039  29.995  32.953   0.516
64257W        W31040  27.521  30.083  14.492
64258W        W31041  20.569   8.908   1.401
64259W        W31042  33.419  29.411   1.202
64260W        W31043  42.496  32.206   4.210
64261W        W31044  42.389   8.500   0.473
64262W        W31045  27.516  10.718  12.680
64263W        W31046  44.066  24.084  14.692
64264W        W31047   7.405  17.762   0.917
64265W        W31048  24.639  11.633  11.313
64266W        W31049   4.907  38.371   2.702
64267W        W31050  13.382  18.748   9.735
64268W        W31051   3.034   6.668   0.285
64269W        W31052  33.490  30.069   0.044
64270W        W31053   3.631  10.458  12.164
64271W        W31054  13.295  11.311  14.742
64272W        W31055  44.358  25.973  13.706
64273W        W31056   0.878  36.166  11.171
64274W        W31057  15.860  30.223  13.942
64275W        W31058   7.157  18.772  13.539
64276W        W31059  20.069   3.719   3.119
64277W        W31060  21.548  36.491  10.722
64278W        W31061  18.558  10.754  14.758
64279W        W31062  34.046  32.741  12.390
64280W        W31063   5.903  28.156   3.005
64281W        W31064   7.533   7.177  12.549
64282W        W31065  38.907  41.336   3.201
64283W        W31066   3.045   9.554   1.754
64284W        W31067   9.238  19.630   4.178
64285W        W31068  36.351  35.037   4.425
64286W        W31069  26.676  24.271   1.834
64287W        W31070  33.554  18.968   5.160
64288W        W31071  37.896  42.062  12.468
64289W        W31072  26.693   4.287   1.261
64290W        W31073  32.321  43.787  13.393
64291W        W31074   3.336  30.834  11.696
64292W        W31075  42.835  43.688   4.700
64293W        W31076  28.957   5.345  12.879
64294W        W31077  28.503   5.180   1.312
64295W        W31078  18.183  26.374   2.456
64296W        W31079  11.063  31.941  14.262
64297W        W31080  25.473  32.701   2.244
64298W        W31081  34.907  29.654   4.169
64299W        W31082  11.629  31.064   0.830
64300W        W31083   1.401  24.280   4.465
64301W        W31084  17.324   6.351  10.684
64302W        W31085  43.930  33.102   1.790
64303W        W31086  22.927  11.394  11.632
64304W        W31087  23.321   1.388   0.353
64305W        W31088   6.360  36.561   0.889
64306W        W31089  40.508  19.591  13.892
64307W        W31090  26.786  42.043  11.077
64308W        W31091  30.138  32.228  14.361
64309W        W31092  39.999  17.230   3.598
64310W        W31093  20.054  14.033   4.965
64311W        W31094  34.488  34.642  12.401
64312W        W31095  39.469   9.878   1.454
64313W        W31096  37.394   1.668   4.827
64314W        W31097  13.097  43.826   0.070
64315W        W31098  26.970  31.880  13.806
64316W        W31099  31.849  20.767  14.830
64317W        W31100  38.750  41.467   1.527
64318W        W31101   3.961  13.084  14.266
64319W        W31102  31.591  34.458  12.209
64320W        W31103  16.093   6.490   0.308
64321W        W31104  25.709  14.106   3.197
64322W        W31105  26.877  25.171  12.508
64323W        W31106  11.825  39.267   0.371
64324W        W31107  37.567  29.642  11.224
64325W        W31108  14.789  23.012  12.939
64326W        W31109  18.663  37.578  14.093
64327W        W31110  19.210  28.966   2.259
64328W        W31111   7.378  23.291   0.331
64329W        W31112   0.190  18.444   0.224
64330W        W31113  18.662  19.673  11.933
64331W        W31114  18.122  22.755  13.768
64332W        W31115  41.410  37.426  11.863
64333W        W31116  41.003  18.026   2.942
64334W        W31117   1.688  14.845  11.599
64335W        W31118  41.455  37.491   0.709
64336W        W31119   9.385  19.118  13.246
64337W        W31120   8.285  33.376   2.561
64338W        W31121  36.533  38.119  10.597
64339W        W31122  36.972  44.784  14.434
64340W        W31123  22.795  17.854   4.337
64341W        W31124  42.505  30.413   4.449
64342W        W31125  36.624  25.107  13.832
64343W        W31126  34.082  29.968   2.855
64344W        W31127  12.557  27.087   1.469
64345W        W31128  20.236  14.761  11.585
64346W        W31129  31.952  41.888   4.322
64347W        W31130  13.666  40.087   4.864
64348W        W31131  44.963   4.308  12.495
64349W        W31132  22.185   4.489   2.999
64350W        W31133  22.757  19.669   2.845
64351W        W31134  25.172  43.370   0.758
64352W        W31135  21.042  39.015  13.458
64353W        W31136  44.232   8.035   2.195
64354W        W31137   7.685  13.178  14.805
64355W        W31138  18.590  18.829   2.717
64356W        W31139  42.293  41.476   1.277
64357W        W31140   2.447  39.555  13.943
64358W        W31141  26.027   2.717  13.965
64359W        W31142   8.361  24.299  11.095
64360W        W31143   7.508   0.149  13.006
64361W        W31144   6.312  16.754   2.549
64362W        W31145  16.459  13.595   4.592
64363W        W31146  27.621  40.401  14.432
64364W        W31147  19.192  41.517  10.967
64365W        W31148   9.629  10.296   3.721
64366W        W31149  35.489   2.473  11.721
64367W        W31150  11.849  30.578  14.481
64368W        W31151   4.379  17.948   0.644
64369W        W31152   1.960  31.640   2.154
64370W        W31153  38.006  12.741  10.656
64371W        W31154  18.588   5.439  13.282
64372W        W31155  13.132  37.311  13.128
64373W        W31156   0.294  18.936   1.439
64374W        W31157  28.259   3.465  13.945
64375W        W31158   0.820  14.211  12.521
64376W        W31159  39.853  26.069   0.670
64377W        W31160  18.913  25.620   1.358
64378W        W31161  34.997  20.075  14.535
64379W        W31162  13.844  40.293  13.935
64380W        W31163  11.147  33.812   4.140
64381W        W31164  10.260  42.364   2.366
64382W        W31165  29.168  31.582   1.379
64383W        W31166  31.448  29.379  13.747
64384W        W31167  36.808  13.674   4.313
64385W        W31168  21.683  28.478   3.715
64386W        W31169  24.325  14.959   1.925
64387W        W31170  40.294   0.291   2.721
64388W        W31171  44.013  28.834  11.130
64389W        W31172  28.640  20.109  11.859
64390W        W31173  33.219  30.186  11.993
64391W        W31174  17.762   5.559   0.954
64392W        W31175  40.891  12.336  12.470
64393W        W31176  12.169  10.420   3.803
64394W        W31177  35.739   2.220  12.103
64395W        W31178   6.129  44.286   4.834
64396W        W31179   8.741   9.268   3.070
64397W        W31180  37.297  44.919  14.025
64398W        W31181  29.944  31.355  11.625
64399W        W31182  38.370  38.523  14.253
64400W        W31183  27.127  21.703  10.715
64401W        W31184  29.485  43.481  13.483
64402W        W31185  13.093  36.097  12.590
64403W        W31186  37.671  24.877   5.100
64404W        W31187  21.019  30.430   0.823
64405W        W31188  34.329   0.001  14.845
64406W        W31189  34.420  32.793   0.545
64407W        W31190   9.933  31.589  11.531
64408W        W31191  21.546  15.687  13.346
64409W        W31192  43.695  20.241   2.217
64410W        W31193   3.636  43.256   4.569
64411W        W31194   2.831  22.163   4.073
64412W        W31195  35.421  24.683  12.382
64413W        W31196  21.151  43.475  14.419
64414W        W31197  44.685  17.781   0.858
64415W        W31198  18.286   9.706  13.785
64416W        W31199  21.235  42.836  13.193
64417W        W31200  30.070  21.268  10.085
64418W        W31201  27.997  44.164   1.013
64419W        W31202  11.216  26.251  13.746
64420W        W31203  39.309  42.653   3.199
64421W        W31204   7.248  36.453  10.681
64422W        W31205  11.905  13.625  11.470
64423W        W31206   6.882  36.830  10.657
64424W        W31207   2.037  25.631   2.498
64425W        W31208  43.941  12.168  13.139
64426W        W31209   4.840  26.438   0.354
64427W        W31210   7.677   3.819   4.479
64428W        W31211   3.298  22.695   4.562
64429W        W31212   0.930  37.695  10.137
64430W        W31213  11.144  13.259  10.820
64431W        W31214   6.026  41.398  12.879
64432W        W31215  33.125  11.646  11.996
64433W        W31216  13.351   8.346   2.762
64434W        W31217  38.724   1.425  13.522
64435W        W31218   9.809  11.678  12.071
64436W        W31219   6.015  18.520  12.984
64437W        W31220  26.550   2.325  12.184
64438W        W31221  25.889  10.819   3.623
64439W        W31222  24.527  20.259   0.452
64440W        W31223   2.864  12.673  12.076
64441W        W31224   4.912  43.787  13.555
64442W        W31225  29.117   3.111  11.614
64443W        W31226  43.541  40.419  14.885
64444W        W31227  19.918  16.032  14.500
64445W        W31228   5.816   5.930   4.373
64446W        W31229   6.646  11.441  10.764
64447W        W31230  23.111   7.205   0.937
64448W        W31231  44.009  16.233  14.006
64449W        W31232  24.064  37.152  10.699
64450W        W31233  17.167  28.719   0.810
64451W        W31234   7.750  20.822   2.357
64452W        W31235  22.663  17.380  10.516
64453W        W31236  36.933  28.604   2.741
64454W        W31237  21.250   3.445  12.774
64455W        W31238  14.277  15.259   2.839
64456W        W31239  12.833  32.946   0.916
64457W        W31240   3.864   7.317   1.778
64458W        W31241  31.653  40.228   0.069
64459W        W31242  29.056  18.261  11.130
64460W        W31243  14.739   2.295  14.375
64461W        W31244  44.258  34.434  12.729
64462W        W31245  27.568  23.813   3.722
64463W        W31246  20.329  33.252  12.951
64464W        W31247  31.624   1.201  10.899
64465W        W31248  43.037   4.962   0.782
64466W        W31249   2.864   1.403  14.869
64467W        W31250  29.630   3.396  14.573
64468W        W31251  38.878  31.527   4.817
64469W        W31252  22.342   4.052  13.420
64470W        W31253  27.419   4.924   0.834
64471W        W31254   6.776  17.939  10.453
64472W        W31255   7.262  24.535  14.203
64473W        W31256   6.464  26.073  12.219
64474W        W31257  18.133  14.667   2.155
64475W        W31258  18.561  13.027  11.507
64476W        W31259  24.962   2.702   0.375
64477W        W31260   4.392  22.339  14.834
64478W        W31261   1.421  26.041  11.893
64479W        W31262  29.549  39.463   3.171
64480W        W31263  26.487   7.013  12.530
64481W        W31264  42.561  42.013   2.469
64482W        W31265  33.603  31.932  13.947
64483W        W31266  38.472  21.535   4.958
64484W        W31267  27.398  43.316  12.301
64485W        W31268  23.732  41.473   2.143
64486W        W31269  31.377  15.573   0.815
64487W        W31270  19.224  39.556   4.557
64488W        W31271  11.965  17.953  12.559
64489W        W31272   1.781  12.276  12.122
64490W        W31273   5.908   7.404   0.837
64491W        W31274   3.940  42.310  11.410
64492W        W31275  23.955  11.737   4.176
64493W        W31276  19.801  44.434  13.910
64494W        W31277  34.268  31.099  11.531
64495W        W31278   4.339   5.980  11.651
64496W        W31279  28.614  29.540   3.645
64497W        W31280  35.626   9.312  13.818
64498W        W31281  32.872  29.250  14.915
64499W        W31282   1.111   0.836   2.674
64500W        W31283   7.789   2.635   1.763
64501W        W31284  23.571   7.481  12.364
64502W        W31285  40.725  37.443   3.252
64503W        W31286  31.335  15.767   9.890
64504W        W31287  13.632  32.585  10.527
64505W        W31288  35.508  42.815  11.477
64506W        W31289  11.974  11.582   2.729
64507W        W31290  14.577   3.187  10.763
64508W        W31291  15.280  42.737  13.112
64509W        W31292  18.559  18.744  11.474
64510W        W31293  24.573  36.602  14.295
64511W        W31294  41.832  11.652  10.694
64512W        W31295  42.296   2.578  14.450
64513W        W31296  20.674  17.399  11.184
64514W        W31297  35.352   1.871  14.759
64515W        W31298  22.171  25.548  13.626
64516W        W31299  33.099  31.411   0.489
64517W        W31300   6.096  19.713  12.064
64518W        W31301   8.008  40.024  14.562
64519W        W31302  25.080  10.604  11.458
64520W        W31303  17.837  36.635  11.559
64521W        W31304  29.626  43.928   4.534
64522W        W31305  16.617  16.059   0.846
64523W        W31306  26.668   4.015  13.950
64524W        W31307  23.112  28.673   1.382
64525W        W31308  39.380  17.271   1.785
64526W        W31309  41.993  28.996   2.300
64527W        W31310   9.845   5.778   3.038
64528W        W31311  28.948  29.671   0.403
64529W        W31312  14.048  26.713   1.817
64530W        W31313  16.597  34.384  12.443
64531W        W31314  28.014  11.274   2.997
64532W        W31315  36.335  15.008   1.626
64533W        W31316  14.223   3.775  13.353
64534W        W31317  14.758  39.016   5.054
64535W        W31318  43.960  13.974   2.287
64536W        W31319  36.884  32.790  11.075
64537W        W31320   8.408  40.418   2.310
64538W        W31321  17.763   2.707   4.608
64539W        W31322  26.896  11.584  10.275
64540W        W31323   4.248   0.828   0.805
64541W        W31324   5.557  34.069   3.246
64542W        W31325  15.751   8.916  12.015
64543W        W31326  30.565  38.457   4.089
64544W        W31327  32.975  44.180   2.816
64545W        W31328  11.743  19.589   2.839
64546W        W31329  40.127   7.407  13.170
64547W        W31330  28.421  15.216   0.380
64548W        W31331   3.011  15.655   4.055
64549W        W31332   3.289   9.217  13.287
64550W        W31333  18.634   3.046   0.698
64551W        W31334   9.651  26.237   3.768
64552W        W31335  35.026  20.532  14.283
64553W        W31336   1.006  23.643  13.014
64554W        W31337   0.503  41.443  11.228
64555W        W31338  35.930  15.145  14.863
64556W        W31339   4.989  20.768   0.496
64557W        W31340  30.178  37.567  13.796
64558W        W31341  25.843  19.578   2.637
64559W        W31342  14.772   9.078   2.731
64560W        W31343  29.935   2.320   3.793
64561W        W31344  11.748   4.700  14.650
64562W        W31345  14.780  35.173   2.259
64563W        W31346  21.176  13.780  13.988
64564W        W31347   5.370  34.719   2.230
64565W        W31348  19.681  26.874  14.944
64566W        W31349  24.280  16.779   1.780
64567W        W31350  20.037  30.993   3.710
64568W        W31351  31.624  23.882   1.911
64569W        W31352  31.089  24.221  13.918
64570W        W31353  28.966  17.594   1.232
64571W        W31354  30.615   7.211   0.480
64572W        W31355  33.558   1.390   3.297
64573W        W31356  43.451  40.345   3.966
64574W        W31357  22.612   1.712   2.360
64575W        W31358  24.175  19.131  14.005
64576W        W31359  32.725  11.582   4.539
64577W        W31360   7.182  14.369   4.353
64578W        W31361   1.982  39.735  14.115
64579W        W31362  34.696   2.936  11.565
64580W        W31363  25.827  22.032   1.329
64581W        W31364  18.241  29.664   2.354
64582W        W31365  17.508   3.719  11.949
64583W        W31366  43.655  39.266  12.855
64584W        W31367  10.651  40.142  13.506
64585W        W31368  40.754  30.126  13.158
64586W        W31369  15.304  28.526  10.708
64587W        W31370  29.697  20.176  11.670
64588W        W31371  33.652  18.462  14.435
64589W        W31372  26.710  39.169   0.711
64590W        W31373  30.750  44.418  11.768
64591W        W31374   8.101  13.866  14.729
64592W        W31375  13.119  32.010   3.724
64593W        W31376   9.164  35.994  14.386
64594W        W31377  29.645  16.459  12.011
64595W        W31378  33.318   5.503  12.698
64596W        W31379  25.606  35.615  13.506
64597W        W31380  33.035  31.177   4.707
64598W        W31381  26.928   1.032   4.224
64599W        W31382  26.032  22.926   1.263
64600W        W31383  30.578  15.156   3.112
64601W        W31384   3.485  30.419   2.797
64602W        W31385  25.782   2.800   2.230
64603W        W31386  16.672  22.285   1.301
64604W        W31387  18.172  44.273   2.179
64605W        W31388   1.389  37.890   0.839
64606W        W31389  42.801  38.379  14.017
64607W        W31390   7.253   7.646   4.882
64608W        W31391  15.543   0.996  11.193
64609W        W31392  14.188  30.853  10.505
64610W        W31393   2.672  24.745  14.654
64611W        W31394  39.882   2.427   4.690
64612W        W31395  19.039   9.316   1.132
64613W        W31396  20.491  26.970   2.133
64614W        W31397  35.810   4.438  11.401
64615W        W31398   4.432  18.028  10.780
64616W        W31399  26.966  44.385   5.213
64617W        W31400   4.816  18.557   2.433
64618W        W31401   7.373  26.527  14.394
64619W        W31402  32.097  11.209   1.798
64620W        W31403   0.724  31.590  11.066
64621W        W31404  18.604  24.218   1.360
64622W        W31405  20.225  41.158  10.318
64623W        W31406  39.337  15.350  11.583
64624W        W31407  17.002   7.527   0.421
64625W        W31408  36.380  29.554   4.582
64626W        W31409  11.392  28.023   0.911
64627W        W31410   0.046   9.330  11.791
64628W        W31411   9.829  40.268  12.825
64629W        W31412  11.400  14.687  12.777
64630W        W31413  43.377  33.165   4.356
64631W        W31414  32.415  11.044  11.539
64632W        W31415  35.171  37.149  14.414
64633W        W31416  21.126   7.328   4.402
64634W        W31417  13.590  37.553   1.612
64635W        W31418  37.988  31.416  10.590
64636W        W31419  18.519   0.732   0.296
64637W        W31420  38.608  41.799   0.041
64638W        W31421   5.366  30.219   4.141
64639W        W31422  12.223  26.508   3.581
64640W        W31423  20.500   5.760  10.534
64641W        W31424  38.814   8.162   4.187
64642W        W31425   0.404  14.096  12.802
64643W        W31426  22.588  16.910   2.410
64644W        W31427  25.914  28.195  11.547
64645W        W31428  12.776  29.048   2.220
64646W        W31429  12.166  22.615  12.292
64647W        W31430  33.878  27.931   2.156
64648W        W31431  25.215  21.178  11.236
64649W        W31432   0.303  26.148  14.457
64650W        W31433  13.194  42.921  14.319
64651W        W31434  35.792  15.306   1.178
64652W        W31435  15.267   1.150   0.656
64653W        W31436  30.124  24.662  10.667
64654W        W31437  12.733  30.335  14.392
64655W        W31438  16.520  25.859   1.854
64656W        W31439   8.920  36.042   4.825
64657W        W31440   3.213  14.155   3.164
64658W        W31441  26.602   6.844   4.726
64659W        W31442  36.938  32.332  14.037
64660W        W31443  20.150  11.523   3.405
64661W        W31444  26.601  25.733   1.246
64662W        W31445   7.884  32.874   1.381
64663W        W31446  32.269  17.097  11.975
64664W        W31447  40.853  24.972   0.045
64665W        W31448  27.108  44.920  12.189
64666W        W31449  42.480  33.855  13.903
64667W        W31450  22.651  10.990  11.945
64668W        W31451  17.532  13.374   0.997
64669W        W31452  41.905  13.624   3.121
64670W        W31453  44.120   4.394  10.632
64671W        W31454  14.345  23.564  12.344
64672W        W31455   1.906  30.142  12.653
64673W        W31456  42.529  24.078   0.990
64674W        W31457  18.661  21.664  14.125
64675W        W31458  32.575  18.426   0.308
64676W        W31459  22.751  36.864   3.282
64677W        W31460  10.799   8.826   2.119
64678W        W31461  33.973  25.474  13.382
64679W        W31462  20.265   9.914  11.152
64680W        W31463  26.482  11.715  11.031
64681W        W31464  36.537  30.684  13.028
64682W        W31465   1.827  39.703   1.954
64683W        W31466  20.873   3.882   5.050
64684W        W31467  21.074  39.177  12.943
64685W        W31468  30.568  35.515   4.405
64686W        W31469  20.045  38.363   1.530
64687W        W31470  29.470  20.061  13.847
64688W        W31471  42.499  35.916  12.925
64689W        W31472  30.016  14.325  10.655
64690W        W31473  11.850  24.950  10.289
64691W        W31474  25.479   8.598   1.266
64692W        W31475  18.751  16.236   3.597
64693W        W31476  28.933  25.554   1.245
64694W        W31477  42.842  40.324   0.375
64695W        W31478  13.818   2.821  11.211
64696W        W31479   2.733  25.707   3.392
64697W        W31480  17.336  41.557   2.410
64698W        W31481   7.468  13.101  12.693
64699W        W31482  38.129  18.844   4.213
64700W        W31483  25.180  17.354  14.206
64701W        W31484  27.538  26.186   1.336
64702W        W31485  30.923  21.034   0.845
64703W        W31486   8.257   4.616   3.736
64704W        W31487  29.684  36.494  14.802
64705W        W31488  37.120   7.778  11.475
64706W        W31489   2.316  21.598  12.496
64707W        W31490  20.523   3.638   0.023
64708W        W31491  37.546  25.188   3.206
64709W        W31492  26.133  16.606   4.102
64710W        W31493  29.875  41.009   2.265
64711W        W31494  33.906  34.805   2.181
64712W        W31495   8.959   5.964   1.724
64713W        W31496  17.877  10.411  11.622
64714W        W31497  37.384  39.826   0.264
64715W        W31498   8.954  18.216   1.436
64716W        W31499   9.764  36.870  10.648
64717W        W31500  43.899  27.205   4.624
64718W        W31501  28.150  23.416  13.083
64719W        W31502  18.700  16.040  14.810
64720W        W31503   6.773  16.553   4.187
64721W        W31504  39.131  19.786  14.288
64722W        W31505  30.799  11.364  12.985
64723W        W31506  31.816  33.939  14.978
64724W        W31507   2.310  22.259  10.709
64725W        W31508  21.589  14.913  11.057
64726W        W31509  13.968   1.372  11.487
64727W        W31510  18.801  24.744  14.869
64728W        W31511  26.080  41.628   4.090
64729W        W31512   2.208  44.615   2.162
64730W        W31513  19.571   0.668  14.352
64731W        W31514  28.983  29.585  10.801
64732W        W31515  27.898  43.804   1.382
64733W        W31516  13.890   9.746  12.149
64734W        W31517  40.391   7.287   1.506
64735W        W31518   3.613   0.807   1.740
64736W        W31519  11.336   1.780  13.869
64737W        W31520  23.003   1.408  13.532
64738W        W31521  28.514  15.290   2.282
64739W        W31522  37.645  34.527  10.625
64740W        W31523  35.342   9.943  11.502
64741W        W31524  25.694  42.450   2.086
64742W        W31525  19.111  32.922   4.626
64743W        W31526  14.353  31.124   2.620
64744W        W31527  14.640  36.626  14.025
64745W        W31528  34.432  27.674   1.724
64746W        W31529  38.054  10.763   4.104
64747W        W31530   5.927   7.121  12.999
64748W        W31531   7.234  17.642   0.434
64749W        W31532  28.130   8.674   0.364
64750W        W31533  26.077  44.500   2.296
64751W        W31534   1.709  32.459  10.507
64752W        W31535   0.517   3.544  14.405
64753W        W31536  40.847  29.944   4.621
64754W        W31537  15.357  11.083  11.679
64755W        W31538   6.244  41.422   0.403
64756W        W31539  27.197   6.152   3.873
64757W        W31540  30.413  16.212   3.829
64758W        W31541   6.897  13.600  13.877
64759W        W31542  22.021  14.541  11.894
64760W        W31543  41.716   9.381  12.085
64761W        W31544  38.264  33.931   3.743
64762W        W31545  20.238   4.726   3.229
64763W        W31546  13.658   6.075   2.824
64764W        W31547  35.026  13.220   0.701
64765W        W31548   7.164  25.020  12.958
64766W        W31549  39.126  38.923   1.347
64767W        W31550  31.517  29.120  12.981
64768W        W31551  11.752  27.539   4.143
64769W        W31552  18.778  18.585   3.137
64770W        W31553  18.650  37.039   3.349
64771W        W31554  30.087  10.119   0.752
64772W        W31555  10.213  28.085  10.806
64773W        W31556  27.310  28.047  10.684
64774W        W31557  14.627  42.836   2.094
64775W        W31558  36.060   0.170  12.413
64776W        W31559   1.721   9.621   2.076
64777W        W31560   4.429  23.837  13.721
64778W        W31561  41.185   9.852  12.379
64779W        W31562  28.511  19.173   0.285
64780W        W31563  12.440  33.569   0.388
64781W        W31564  34.383  23.834   4.229
64782W        W31565   2.331  18.378   1.313
64783W        W31566  22.599  42.845  11.615
64784W        W31567  37.826   0.953  11.593
64785W        W31568  33.001   5.085  13.557
64786W        W31569  27.640  41.844   4.506
64787W        W31570  43.911   7.374   3.867
64788W        W31571  24.175  38.585   3.286
64789W        W31572  41.954  38.862  12.027
64790W        W31573  23.587  13.749  12.956
64791W        W31574  25.512   0.709  12.971
64792W        W31575   0.399   1.244  12.981
64793W        W31576  40.427  21.917  11.155
64794W        W31577  32.173  36.754  12.962
64795W        W31578  38.857  25.017   1.366
64796W        W31579  11.182  38.129  10.599
64797W        W31580  22.084   1.940  14.139
64798W        W31581  28.994   2.652   1.874
64799W        W31582  36.790  10.772  10.512
64800W        W31583  18.045   0.279  14.525
64801W        W31584  40.868  17.146  13.914
64802W        W31585   0.443   7.340   4.163
64803W        W31586  21.625  31.923  12.002
64804W        W31587  35.469  27.676  12.878
64805W        W31588   4.837   3.437  10.285
64806W        W31589  33.789  23.041   4.565
64807W        W31590  25.555   8.102   1.379
64808W        W31591  13.317  44.809  10.611
64809W        W31592  26.929  42.487   2.387
64810W        W31593   2.553  19.067   2.709
64811W        W31594  26.501  35.496  13.046
64812W        W31595  29.991   9.512  13.416
64813W        W31596  42.874  15.104  11.354
64814W        W31597   4.430  39.732   1.746
64815W        W31598  26.876  24.095  11.625
64816W        W31599   6.840  10.553  14.043
64817W        W31600  26.716  16.277   1.278
64818W        W31601  41.578   8.802   0.016
64819W        W31602  17.099  41.478  14.763
64820W        W31603   4.845  32.661   2.890
64821W        W31604  39.924   0.256  10.397
64822W        W31605  24.578  35.116  14.961
64823W        W31606  10.971  17.234  14.531
64824W        W31607  19.513   8.494   2.169
64825W        W31608   2.807  29.651   0.466
64826W        W31609  26.585   6.767   1.755
64827W        W31610  32.184  35.280   2.623
64828W        W31611  16.856  27.174   4.365
64829W        W31612  10.179  11.205   0.208
64830W        W31613  19.205   7.957   1.370
64831W        W31614  34.434  18.132  12.360
64832W        W31615  22.517  21.755   4.342
64833W        W31616  20.758  15.693   4.767
64834W        W31617  43.414  27.610  13.756
64835W        W31618  39.328  20.031   0.231
64836W        W31619  21.586  43.837   3.346
64837W        W31620  25.663  36.862   2.190
64838W        W31621  13.780   7.705  14.038
64839W        W31622  37.855  23.477   3.517
64840W        W31623  31.196  19.590   2.295
64841W        W31624  37.664  38.928  13.060
64842W        W31625  41.628  32.097  13.608
64843W        W31626  17.768   2.585  14.520
64844W        W31627  12.608  40.994   4.603
64845W        W31628   1.873  40.251  14.209
64846W        W31629  24.741  14.798  13.962
64847W        W31630  27.496  33.315   3.672
64848W        W31631  12.983  16.871  13.353
64849W        W31632  20.135  30.367   1.049
64850W        W31633  34.350   0.474   3.273
64851W        W31634   4.225  40.772  14.947
64852W        W31635   5.845   0.222  10.724
64853W        W31636   7.789   8.666   2.883
64854W        W31637  35.964  17.085  12.367
64855W        W31638  29.909  30.944   4.109
64856W        W31639  17.431  21.287   1.268
64857W        W31640  35.478  15.091  13.605
64858W        W31641   8.280   2.499  13.823
64859W        W31642  20.122  31.956   2.350
64860W        W31643  15.236  25.458   3.198
64861W        W31644  26.502  25.899   2.311
64862W        W31645  33.150  22.796  14.001
64863W        W31646  15.540  27.485  11.968
64864W        W31647  14.316  14.716   3.671
64865W        W31648   2.979  16.741  11.724
64866W        W31649  40.529  39.925   0.834
64867W        W31650  27.587  11.306   3.713
64868W        W31651  13.084   6.837   0.048
64869W        W31652   0.384  34.634  11.910
64870W        W31653   1.636  16.159  13.044
64871W        W31654  14.744   7.270   2.957
64872W        W31655  32.583  35.085   1.284
64873W        W31656  18.121   8.905   3.698
64874W        W31657  34.837  44.483  10.764
64875W        W31658   4.482   6.906  13.941
64876W        W31659  44.632   6.376   1.752
64877W        W31660  23.618  22.462   4.308
64878W        W31661  40.549  43.503  13.651
64879W        W31662   4.373   7.973  11.537
64880W        W31663  19.207  22.416  12.372
64881W        W31664   2.629  22.247   0.927
64882W        W31665  27.139  38.452  12.009
64883W        W31666  22.560  27.257  13.074
64884W        W31667  34.893   6.314   3.401
64885W        W31668  19.282  24.015   0.937
64886W        W31669  10.345  23.284   0.390
64887W        W31670  34.541  35.951  14.427
64888W        W31671  26.002  42.261  11.655
64889W        W31672  16.175  31.142   2.881
64890W        W31673  27.217   0.748  14.570
64891W        W31674  20.565  41.334  10.669
64892W        W31675  25.054  22.487   0.392
64893W        W31676   9.227  17.190   1.998
64894W        W31677  32.979  40.453   1.588
64895W        W31678  40.237  34.334  12.814
64896W        W31679  43.484  12.090  11.641
64897W        W31680  25.479  25.204  12.407
64898W        W31681  28.216  18.254   2.790
64899W        W31682   1.372  30.457   0.181
64900W        W31683  17.630  44.105   2.310
64901W        W31684   6.831   1.722   1.872
64902W        W31685  18.554  10.197   0.471
64903W        W31686  43.320  25.042  11.560
64904W        W31687  12.654   3.459   4.383
64905W        W31688  28.988   9.669  10.583
64906W        W31689   8.172   9.313   3.914
64907W        W31690  35.131  32.495   1.235
64908W        W31691  28.093  11.935   0.805
64909W        W31692  26.116   3.280   4.641
64910W        W31693   8.723  44.967  14.797
64911W        W31694  31.508   4.961  10.453
64912W        W31695  13.343  42.445  12.036
64913W        W31696  23.781  17.593  13.209
64914W        W31697  17.890  11.271   0.028
64915W        W31698   8.626   8.118   2.649
64916W        W31699   2.293  10.615   2.394
64917W        W31700  18.202  32.623  14.387
64918W        W31701  17.272  44.455   2.240
64919W        W31702  32.204  31.724   3.183
64920W        W31703  40.320   6.382  10.981
64921W        W31704  25.187   3.539  11.624
64922W        W31705   2.958  29.212   2.909
64923W        W31706  25.469   7.383   0.437
64924W        W31707   8.885  32.477   0.812
64925W        W31708  34.823  39.783   1.733
64926W        W31709  16.814  17.313   3.559
64927W        W31710   7.169  37.279  11.157
64928W        W31711  35.612  16.256  13.861
64929W        W31712  17.376  21.231  11.516
64930W        W31713  37.827  22.394  10.158
64931W        W31714  31.628  38.022  12.369
64932W        W31715  10.277  12.777  13.351
64933W        W31716  17.557  33.883   3.271
64934W        W31717   2.655  28.457  12.385
64935W        W31718  22.615  30.201  14.847
64936W        W31719   6.877  43.962   1.351
64937W        W31720  20.356   2.401   2.611
64938W        W31721   7.371   9.265  14.824
64939W        W31722   1.499  33.062   3.276
64940W        W31723  26.832  18.438   2.805
64941W        W31724  44.272  13.084  12.830
64942W        W31725  28.391  20.561   4.151
64943W        W31726  43.991   1.554  14.437
64944W        W31727   6.958   2.921   1.174
64945W        W31728  20.249   3.818   0.896
64946W        W31729  44.736   9.967  14.847
64947W        W31730  14.224  22.205   1.390
64948W        W31731  11.655  30.582   0.975
64949W        W31732   8.906  29.685  11.745
64950W        W31733  20.638  25.748  12.408
64951W        W31734   4.143  38.121  14.684
64952W        W31735  22.610  35.487   3.356
64953W        W31736  29.686   7.059  10.504
64954W        W31737  33.754  14.244   0.274
64955W        W31738  12.054  11.089   4.428
64956W        W31739  23.275   3.354   9.736
64957W        W31740   8.987  20.592  11.968
64958W        W31741  27.360  24.497  10.146
64959W        W31742   1.643  42.641  11.048
64960W        W31743  18.519   6.228  12.385
64961W        W31744  10.098   6.272  11.995
64962W        W31745  25.522  15.708  11.522
64963W        W31746  11.165  14.551   1.497
64964W        W31747  21.764   7.263   3.114
64965W        W31748  25.936  19.616  14.916
64966W        W31749  26.890  12.748  13.188
64967W        W31750  29.085  35.363   0.130
64968W        W31751  39.702  31.438   0.336
64969W        W31752  29.962  40.507   2.359
64970W        W31753   9.668  19.571   1.361
64971W        W31754  43.084  33.498  11.197
64972W        W31755   6.176  32.528  12.653
64973W        W31756  22.803  14.537  14.420
64974W        W31757  43.393  36.154   1.305
64975W        W31758  22.203  16.390   0.764
64976W        W31759  13.564  37.939   0.800
64977W        W31760  29.593  30.406  10.679
64978W        W31761  23.945  12.586   4.672
64979W        W31762   0.034  13.193  14.298
64980W        W31763  36.851  14.282   0.540
64981W        W31764  21.493  43.855  13.927
64982W        W31765  11.503  30.914  13.258
64983W        W31766   8.636   7.448   4.508
64984W        W31767  30.984  39.569  10.752
64985W        W31768  25.190  33.758   3.518
64986W        W31769   6.373  10.603   3.555
64987W        W31770  11.335   8.857  13.492
64988W        W31771   6.774  14.754  14.771
64989W        W31772  24.413   0.787   4.528
64990W        W31773  10.147  29.917  12.388
64991W        W31774  40.625  31.848   0.304
64992W        W31775   6.723  36.456   0.502
64993W        W31776   0.274   6.483  11.967
64994W        W31777  13.274  27.240  11.291
64995W        W31778   3.655  39.332  13.453
64996W        W31779  27.555   1.937  11.713
64997W        W31780   2.364   0.390  10.687
64998W        W31781  22.019  10.262  10.998
64999W        W31782  38.753  38.941   3.842
65000W        W31783  20.718   5.861   2.730
65001W        W31784  19.993  10.399  13.869
65002W        W31785  28.673  42.988  13.132
65003W        W31786  23.139  28.587   3.209
65004W        W31787  14.212  15.112   3.363
65005W        W31788  23.096   0.774  11.136
65006W        W31789   4.457   6.234   2.778
65007W        W31790  22.772  43.017   2.816
65008W        W31791  34.516  38.776  12.047
65009W        W31792  44.277  26.656  12.526
65010W        W31793  24.396  34.373   4.932
65011W        W31794  27.506  34.132  14.363
65012W        W31795  16.295   8.919  14.894
65013W        W31796  18.625  17.441  12.600
65014W        W31797   0.744   2.470   1.365
65015W        W31798  20.770  39.488  13.316
65016W        W31799  22.542  27.297  12.134
65017W        W31800   9.358  13.820   4.040
65018W        W31801   1.371  15.831   4.223
65019W        W31802  29.137  36.577  10.557
65020W        W31803  28.180  27.241   5.024
65021W        W31804  18.021  26.716   1.445
65022W        W31805  33.356   3.307   4.077
65023W        W31806  43.229   5.217  13.596
65024W        W31807  19.792  12.222   4.130
65025W        W31808  25.338  44.724  13.003
65026W        W31809  36.999  44.873   4.285
65027W        W31810  28.368  10.819  14.394
65028W        W31811  12.157  21.739  12.754
65029W        W31812  30.963  10.621  14.814
65030W        W31813  17.518  34.850   3.185
65031W        W31814  27.584  34.446  13.960
65032W        W31815   4.322  20.342  13.990
65033W        W31816  43.159  34.876   4.980
65034W        W31817  15.505  36.576   1.558
65035W        W31818  17.310   9.626   3.051
65036W        W31819  19.306   5.483   2.671
65037W        W31820  26.650  24.270   2.832
65038W        W31821  16.518   4.170   2.261
65039W        W31822  12.069   2.681   4.737
65040W        W31823  33.136   8.876  13.016
65041W        W31824  11.447  34.808  12.691
65042W        W31825  43.857  20.235  14.316
65043W        W31826  16.584  27.715  12.066
65044W        W31827  16.062  37.610  14.758
65045W        W31828  24.134  27.326   3.161
65046W        W31829  23.003  15.728   0.789
65047W        W31830  13.218  22.836  10.543
65048W        W31831  27.608  22.541  13.988
65049W        W31832  31.164  37.403   4.649
65050W        W31833  39.306   1.775  12.315
65051W        W31834  35.652  18.656   0.233
65052W        W31835  39.360  17.136  13.090
65053W        W31836  31.005   1.713  13.845
65054W        W31837  13.306  10.571  11.137
65055W        W31838  42.973  40.533   4.053
65056W        W31839  10.151  28.460   0.007
65057W        W31840  21.415  44.277   3.618
65058W        W31841  40.481  13.749  12.075
65059W        W31842   0.710  20.255  14.238
65060W        W31843  24.079  14.203   3.502
65061W        W31844  40.332  14.806   2.648
65062W        W31845  37.091  34.920  11.013
65063W        W31846   6.375  44.126   2.422
65064W        W31847  42.255  23.947  14.973
65065W        W31848  44.469  24.933  12.940
65066W        W31849  33.948   9.045   0.723
65067W        W31850  22.265   6.427  14.056
65068W        W31851  29.720  24.069   1.742
65069W        W31852  25.588  28.189   1.157
65070W        W31853   0.892  28.963  10.192
65071W        W31854  25.700  17.579   1.822
65072W        W31855  39.972  26.748   3.722
65073W        W31856  34.667  34.866  10.738
65074W        W31857  43.377  35.829   1.713
65075W        W31858  36.799  40.232  12.053
65076W        W31859  12.288  22.464   0.336
65077W        W31860   8.880  18.635  12.617
65078W        W31861  43.887   7.215   0.982
65079W        W31862  11.399   9.818   9.858
65080W        W31863  26.221  26.689   4.147
65081W        W31864  36.818  10.495   4.492
65082W        W31865  22.703  38.278  11.273
65083W        W31866   4.924  34.865  13.346
65084W        W31867  38.892  29.247   2.472
65085W        W31868  22.204  41.087  12.552
65086W        W31869  13.282   7.287  13.781
65087W        W31870  39.211  17.538  10.718
65088W        W31871  14.871   4.412  13.076
65089W        W31872  33.397   8.959   4.290
65090W        W31873   7.715  14.622   4.582
65091W        W31874  10.936   9.209   3.663
65092W        W31875   7.259   2.489   0.308
65093W        W31876  19.561  22.035  11.008
65094W        W31877  39.301  42.404  14.817
65095W        W31878   6.674  26.482  13.469
65096W        W31879  25.600   4.947  13.208
65097W        W31880  12.419   5.930  13.543
65098W        W31881  20.639  42.216   1.412
65099W        W31882  29.001  17.633   4.699
65100W        W31883  42.287  40.920   3.714
65101W        W31884  33.909  14.462   2.348
65102W        W31885  34.458  42.393   4.768
65103W        W31886   0.099  31.926   3.796
65104W        W31887  20.444  26.795   0.504
65105W        W31888  17.937  40.735   1.636
65106W        W31889  32.433  38.097  11.126
65107W        W31890  29.405  41.011  13.819
65108W        W31891   8.126  13.882  10.397
65109W        W31892  39.606   8.096  12.888
65110W        W31893  43.327  44.490  10.757
65111W        W31894  43.405   8.905   1.581
65112W        W31895  22.754  19.994  12.687
65113W        W31896   0.487  28.835  13.145
65114W        W31897  12.563  30.981   2.111
65115W        W31898  10.925  37.058  13.391
65116W        W31899   3.802  21.405  12.521
65117W        W31900  38.330  18.135   2.791
65118W        W31901   2.471   4.973  14.844
65119W        W31902  34.841   3.845   4.815
65120W        W31903  29.011  36.414  11.425
65121W        W31904  23.955  15.036  11.953
65122W        W31905   2.837  17.361   2.605
65123W        W31906  21.183  27.588  13.858
65124W        W31907  38.945   6.399   1.195
65125W        W31908  36.819   9.862  12.478
65126W        W31909   1.051  26.687  13.007
65127W        W31910   1.781  14.285   1.782
65128W        W31911  30.882  18.487  12.573
65129W        W31912   1.498  25.758  13.456
65130W        W31913   7.672  43.630  11.724
65131W        W31914   3.516  21.802  11.928
65132W        W31915  10.559  18.167   4.111
65133W        W31916  44.448  32.608   0.162
65134W        W31917  14.275   2.544   0.416
65135W        W31918  42.029  28.655  11.075
65136W        W31919  24.566  34.094  11.159
65137W        W31920  31.902   7.954   1.863
65138W        W31921  32.577  13.631   0.831
65139W        W31922   5.375  13.695  13.564
65140W        W31923  20.704   3.816   3.829
65141W        W31924  23.518  40.085  10.098
65142W        W31925  32.521  15.545  14.828
65143W        W31926   4.313  24.801  13.748
65144W        W31927  25.603  22.176  14.485
65145W        W31928  26.008  28.232  14.023
65146W        W31929   1.749  19.253   3.167
65147W        W31930  25.608  44.314   4.517
65148W        W31931  37.564  21.965  11.090
65149W        W31932  30.243  42.431  11.158
65150W        W31933  29.771  32.284   1.867
65151W        W31934  11.305  33.649  13.804
65152W        W31935  23.468  31.000   4.289
65153W        W31936  34.434  21.929   4.157
65154W        W31937  21.138   3.991  14.359
65155W        W31938  31.829  25.643   3.204
65156W        W31939  15.408  33.994   4.633
65157W        W31940  29.589  26.189  14.995
65158W        W31941  43.305  42.741  12.921
65159W        W31942   9.403  33.768   5.019
65160W        W31943   6.451  36.844   4.167
65161W        W31944  28.611  12.831  12.204
65162W        W31945  34.498  44.918  13.510
65163W        W31946  42.067   4.056  13.023
65164W        W31947  33.458  41.460   3.370
65165W        W31948  44.855   5.996   2.040
65166W        W31949  38.975   7.972  11.307
65167W        W31950  38.647  38.422   4.236
65168W        W31951  26.148  36.720  12.614
65169W        W31952  36.982  21.529  14.241
65170W        W31953  13.538  20.703  11.430
65171W        W31954   7.408   1.268  10.513
65172W        W31955  28.251  15.109  12.199
65173W        W31956   8.123  32.508  11.731
65174W        W31957  11.182  21.273   1.204
65175W        W31958  44.775   2.831  10.969
65176W        W31959  34.521  44.767  14.417
65177W        W31960   5.971  22.597   0.848
65178W        W31961   8.447  30.581  10.462
65179W        W31962  35.980  43.171   2.853
65180W        W31963  33.938  31.831   2.393
65181W        W31964   1.362  26.927  10.581
65182W        W31965  42.468  20.024  13.066
65183W        W31966  16.252  43.584   1.797
65184W        W31967  44.231  44.702  11.009
65185W        W31968   1.200  28.132   4.629
65186W        W31969  43.976  12.554  12.380
65187W        W31970  30.931  43.876   4.178
65188W        W31971  40.629  11.177   3.121
65189W        W31972  25.080  27.858  13.735
65190W        W31973  37.266  31.998   4.666
65191W        W31974   0.374   7.810   2.154
65192W        W31975   9.859   4.788  14.814
65193W        W31976   0.389  13.522   4.390
65194W        W31977  40.824  12.831   4.755
65195W        W31978  10.313  11.103  12.716
65196W        W31979   0.375   0.222  14.876
65197W        W31980  13.061   2.157  11.544
65198W        W31981  44.177   5.025  11.938
65199W        W31982   1.341  10.291  11.442
65200W        W31983  35.391  43.241  12.897
65201W        W31984  24.937   2.390   2.323
65202W        W31985  22.560  17.930  12.024
65203W        W31986  39.823  10.771   2.742
65204W        W31987  25.939  17.322   4.481
65205W        W31988  31.498  19.217  13.498
65206W        W31989  23.597   0.421  14.103
65207W        W31990   9.436   2.753   1.805
65208W        W31991   6.004   2.468   0.822
65209W        W31992   5.494  10.400   4.705
65210W        W31993   4.414   8.336   2.156
65211W        W31994  35.874  28.273  11.627
65212W        W31995  19.669  39.540  14.823
65213W        W31996   8.727  27.095   3.445
65214W        W31997  42.939  39.691  11.190
65215W        W31998  32.069   0.919   0.340
65216W        W31999  32.925   0.918  10.492
65217W        W32000  44.962   4.265  14.387
65218W        W32001  16.968  40.498   4.600
65219W        W32002  11.328  41.354  13.992
65220W        W32003  15.363   8.535   3.183
65221W        W32004   8.846   7.521  13.338
65222W        W32005  38.417  13.833  11.144
65223W        W32006  36.121  23.137   9.722
65224W        W32007   2.547  30.261   4.091
65225W        W32008  38.497   4.438  10.642
65226W        W32009  16.978  23.101  10.854
65227W        W32010  12.170  22.298  14.391
65228W        W32011  17.794   5.690  12.370
65229W        W32012  30.853  19.767  12.835
65230W        W32013  33.890   2.186  14.509
65231W        W32014   3.693  28.110  10.488
65232W        W32015   7.335  24.432   4.542
65233W        W32016  25.716  15.800   3.746
65234W        W32017  44.922  36.222   2.824
65235W        W32018  25.125  20.304  12.606
65236W        W32019  17.150  39.955  12.079
65237W        W32020   4.792  22.452   0.823
65238W        W32021  43.357  36.038   2.684
65239W        W32022  44.398  32.523   2.548
65240W        W32023  17.555  44.988   4.572
65241W        W32024  29.856   9.881   3.611
65242W        W32025  23.700  19.679   4.567
65243W        W32026  20.644  35.482  12.423
65244W        W32027   6.887  15.486  14.047
65245W        W32028  26.128  41.757   0.368
65246W        W32029  40.858   3.721   4.141
65247W        W32030  21.967   5.964   2.091
65248W        W32031  33.071  32.146   3.772
65249W        W32032  26.676  26.218   0.428
65250W        W32033  23.370  31.922   4.929
65251W        W32034  22.694  32.000   0.081
65252W        W32035  32.990  31.212   1.212
65253W        W32036  43.513  38.630   2.836
65254W        W32037  29.695   3.301  12.998
65255W        W32038  14.727   0.462  11.621
65256W        W32039   3.377  38.043   0.184
65257W        W32040  21.990   8.142  13.537
65258W        W32041  35.663  11.172  14.480
65259W        W32042  10.856  10.184   4.487
65260W        W32043  25.526  42.779   3.506
65261W        W32044  25.046  39.091  14.519
65262W        W32045   0.877  19.784  14.043
65263W        W32046  16.697  26.420  11.037
65264W        W32047  21.983  11.754  11.410
65265W        W32048  11.723  12.467  12.326
65266W        W32049   2.950  21.583  14.824
65267W        W32050  35.876  36.071  10.991
65268W        W32051  41.552  35.564  12.515
65269W        W32052  24.054  19.201   0.919
65270W        W32053   6.291   8.341   1.433
65271W        W32054  44.942  19.132   4.840
65272W        W32055  34.465   5.514   3.180
65273W        W32056   2.683  33.992   4.883
65274W        W32057  39.425  16.639  14.453
65275W        W32058  30.430   3.276   4.355
65276W        W32059  34.121  37.892   0.872
65277W        W32060  17.394  29.175  14.311
65278W        W32061   4.918  33.557   1.658
65279W        W32062  18.886   1.235  13.480
65280W        W32063  43.787  39.052  12.065
65281W        W32064   8.497   7.284   3.796
65282W        W32065  15.300  43.017  13.527
65283W        W32066  37.355  23.348  14.468
65284W        W32067  28.536   1.514   0.268
65285W        W32068  21.810  34.309   4.074
65286W        W32069  42.801   2.915  12.840
65287W        W32070  24.365  23.421  14.455
65288W        W32071  25.569   4.252   0.307
65289W        W32072  35.553   9.651   4.278
65290W        W32073  11.687  26.131  13.959
65291W        W32074  16.668  20.954   1.798
65292W        W32075  12.685  40.222  11.681
65293W        W32076  15.116  24.435   1.485
65294W        W32077  29.546  36.326  13.936
65295W        W32078   7.737  10.666   1.991
65296W        W32079  31.227   9.843   1.218
65297W        W32080  21.115  24.262   5.001
65298W        W32081  38.104  39.887   3.493
65299W        W32082  23.509  30.590  13.550
65300W        W32083  17.561  38.295   0.846
65301W        W32084  35.113  26.256  12.031
65302W        W32085   1.362  39.742   2.686
65303W        W32086  40.191  24.651   3.290
65304W        W32087  11.169  18.491  13.045
65305W        W32088  12.367   2.260   4.590
65306W        W32089  40.120  14.386   2.467
65307W        W32090  42.967  31.062  12.995
65308W        W32091  11.329   4.227   4.361
65309W        W32092  10.067  14.166  14.395
65310W        W32093  38.382  16.090  12.446
65311W        W32094  43.868  40.465   3.688
65312W        W32095  15.462  25.073   5.051
65313W        W32096  41.912  38.324   3.897
65314W        W32097  17.074  12.987   1.238
65315W        W32098  25.220  14.688  11.134
65316W        W32099  22.329   7.814   3.786
65317W        W32100  18.767  23.046  12.088
65318W        W32101  28.604  29.428  11.172
65319W        W32102  42.657   5.601  13.081
65320W        W32103   8.420  12.207  12.914
65321W        W32104  34.373   5.693  13.643
65322W        W32105  30.724  34.994   4.196
65323W        W32106  32.990  33.167  14.799
65324W        W32107  14.659   6.322   2.411
65325W        W32108  36.844   1.174   3.665
65326W        W32109  27.102  41.445  11.860
65327W        W32110  11.092  18.391   3.786
65328W        W32111   2.702  37.440   0.295
65329W        W32112  22.691   9.843   1.334
65330W        W32113  14.795  38.322   1.515
65331W        W32114  30.637  29.040  12.888
65332W        W32115  37.492  10.318   1.688
65333W        W32116   2.379   8.573  11.961
65334W        W32117  38.804  10.411   5.137
65335W        W32118  40.289  43.813   3.773
65336W        W32119   0.808  33.964   1.428
65337W        W32120  21.055  29.307   5.093
65338W        W32121  29.845  29.709  10.710
65339W        W32122  28.533  23.651   0.409
65340W        W32123   2.971  17.574   4.384
65341W        W32124  19.611  17.909   2.754
65342W        W32125  12.394  12.074   0.925
65343W        W32126  28.143   3.674  10.765
65344W        W32127  26.513  26.129  14.920
65345W        W32128  33.314  19.780  14.494
65346W        W32129  33.559   5.232  11.220
65347W        W32130  17.270   7.354   9.984
65348W        W32131  11.257  37.868  13.501
65349W        W32132  15.716  40.760   3.059
65350W        W32133   4.220  28.649  10.455
65351W        W32134   0.337  30.134   2.695
65352W        W32135   6.199  28.626   0.457
65353W        W32136  19.310  12.341  13.905
65354W        W32137   2.752   6.318  14.359
65355W        W32138  43.800  17.242   0.922
65356W        W32139  29.768  42.385   3.318
65357W        W32140  30.495  36.163  11.586
65358W        W32141  35.555   0.302   3.105
65359W        W32142  14.151  43.954   2.337
65360W        W32143   8.680  34.190   3.344
65361W        W32144  24.153  21.086   2.759
65362W        W32145  26.548  37.590  14.996
65363W        W32146  11.232  18.447   0.493
65364W        W32147   6.356  22.243  10.846
65365W        W32148  14.776  28.719   0.057
65366W        W32149  13.825  11.631   4.559
65367W        W32150  44.366  16.003  13.122
65368W        W32151  14.090   7.646  14.446
65369W        W32152   0.988  31.796   1.027
65370W        W32153  16.677  38.056   4.611
65371W        W32154   0.090  30.208  12.181
65372W        W32155  30.295  21.275  13.839
65373W        W32156  40.771   9.908   3.573
65374W        W32157  21.172  11.739   2.249
65375W        W32158   0.010  21.949   2.639
65376W        W32159  39.996  39.726   4.155
65377W        W32160  29.378   7.236   4.764
65378W        W32161  35.449   8.568   5.164
65379W        W32162  35.038   2.184   3.254
65380W        W32163   4.124  40.914  13.974
65381W        W32164  13.808  16.856   1.259
65382W        W32165  27.715  43.896   2.220
65383W        W32166  24.821  38.942   2.687
65384W        W32167  37.896  44.207   0.246
65385W        W32168   3.335  23.746   3.713
65386W        W32169  12.199  43.880   3.889
65387W        W32170  36.405   1.357  10.788
65388W        W32171  17.544  18.157  11.100
65389W        W32172  17.782   4.788  13.670
65390W        W32173   7.689  23.619  14.282
65391W        W32174  25.886  23.498  11.908
65392W        W32175  34.923   1.072  11.620
65393W        W32176   5.283  40.045  11.646
65394W        W32177  24.129  39.416   1.761
65395W        W32178   3.025  40.295  14.653
65396W        W32179  39.078  30.488   2.654
65397W        W32180   0.296  11.099  10.242
65398W        W32181  33.515  39.351   1.527
65399W        W32182  10.012  39.957  11.923
65400W        W32183  44.159  14.897   4.577
65401W        W32184  17.745  36.096  14.256
65402W        W32185  26.911  44.929   1.237
65403W        W32186   6.888  22.190   4.580
65404W        W32187   7.790   5.600  13.002
65405W        W32188  19.646  22.768   2.446
65406W        W32189   7.225  26.741  14.851
65407W        W32190   7.842  44.235  11.049
65408W        W32191  39.915   8.832   0.532
65409W        W32192  40.057  44.495   3.620
65410W        W32193  21.177  20.914   1.428
65411W        W32194  37.419   3.970  10.610
65412W        W32195  41.028  16.628  11.049
65413W        W32196   6.155  17.662   0.389
65414W        W32197  38.862  22.734  14.950
65415W        W32198   7.218  30.349   3.741
65416W        W32199  41.966  30.555   4.655
65417W        W32200   5.151  12.739   0.247
65418W        W32201  20.244   2.774  14.388
65419W        W32202  13.627  42.552  13.715
65420W        W32203  12.316  39.506  10.288
65421W        W32204  17.054  30.427   0.883
65422W        W32205   2.929  16.349  13.417
65423W        W32206  34.079  17.588   1.812
65424W        W32207  27.785  17.583  12.862
65425W        W32208   3.833   1.537   4.619
65426W        W32209  23.606  32.977  11.860
65427W        W32210  34.954   7.492  10.337
65428W        W32211  39.830  34.028  12.642
65429W        W32212  24.183   6.907   2.328
65430W        W32213  39.530  19.746   4.003
65431W        W32214  18.184  25.614   4.803
65432W        W32215  29.509  27.955  10.927
65433W        W32216   8.272   3.241  14.969
65434W        W32217  19.608   9.320  13.539
65435W        W32218   6.252  19.065  10.419
65436W        W32219  16.778  43.524   2.531
65437W        W32220  14.748   7.667   2.135
65438W        W32221  23.074  10.555  13.253
65439W        W32222  34.354   2.849   4.051
65440W        W32223  32.344  30.746   2.814
65441W        W32224  35.896  25.112   4.477
65442W        W32225  35.088  44.469   4.724
65443W        W32226  44.219  23.082   1.584
65444W        W32227  26.052  37.486  11.171
65445W        W32228  16.566  12.121  12.092
65446W        W32229  12.339   7.286  13.321
65447W        W32230   3.769  25.719   5.132
65448W        W32231  21.572  39.932   2.854
65449W        W32232  35.400  15.206   4.852
65450W        W32233   0.320  41.321  13.977
65451W        W32234  42.982  35.073  11.492
65452W        W32235  26.766  21.607  11.137
65453W        W32236   4.644  29.639   1.146
65454W        W32237  12.594  23.715   0.363
65455W        W32238   8.838  35.964  12.332
65456W        W32239  30.411  19.562   1.215
65457W        W32240  16.284   3.831  12.600
65458W        W32241  43.297  35.846   0.883
65459W        W32242   1.338  13.266  13.841
65460W        W32243   1.276   4.409   2.087
65461W        W32244   4.091  44.264  13.894
65462W        W32245   0.209   9.367  10.274
65463W        W32246  11.253   6.087  13.360
65464W        W32247   6.421  30.437  13.157
65465W        W32248  18.000  16.834  10.295
65466W        W32249  22.735  37.775  11.177
65467W        W32250  27.888  41.587   3.834
65468W        W32251  41.212  19.104  14.914
65469W        W32252  28.535   2.602  11.256
65470W        W32253  13.429  25.875   3.267
65471W        W32254   7.000  13.151   1.857
65472W        W32255   2.913  39.178  12.446
65473W        W32256   6.739  28.201  11.411
65474W        W32257  21.499  31.031  14.271
65475W        W32258  31.378  16.131   1.741
65476W        W32259  36.496  30.398  13.504
65477W        W32260  42.349  44.674  11.149
65478W        W32261   0.264   1.993  11.407
65479W        W32262  38.024  35.582  12.391
65480W        W32263  25.941  20.314   0.216
65481W        W32264  20.011  41.108   1.864
65482W        W32265  37.452  17.384  14.686
65483W        W32266  38.974  38.130   1.902
65484W        W32267  17.342  33.332  11.954
65485W        W32268  22.677  35.314  12.587
65486W        W32269  18.805  28.236   0.958
65487W        W32270  29.309  22.849  13.440
65488W        W32271  17.084   8.253  11.339
65489W        W32272   6.061  40.953  11.088
65490W        W32273   6.202  35.904  10.961
65491W        W32274   5.903  28.355  13.594
65492W        W32275  29.169  32.634  13.463
65493W        W32276  16.933  23.484   0.300
65494W        W32277  38.470   6.042   4.333
65495W        W32278  23.374  28.368   4.640
65496W        W32279  41.348  34.047  11.661
65497W        W32280  37.069   7.889  12.740
65498W        W32281   9.735  27.180   3.238
65499W        W32282   0.978  33.345   3.067
65500W        W32283  38.406  31.471  12.015
65501W        W32284  21.540   8.893  12.887
65502W        W32285   8.776  15.436   3.683
65503W        W32286  29.722  39.689  13.139
65504W        W32287  26.233   0.688   3.191
65505W        W32288  35.638   7.411   1.775
65506W        W32289  24.079  23.565   3.103
65507W        W32290  28.233   4.510  12.507
65508W        W32291  31.712  41.929   1.121
65509W        W32292   8.672   9.240   4.006
65510W        W32293  37.952  25.617   1.815
65511W        W32294  44.623  42.740  14.442
65512W        W32295  43.819  15.371   0.100
65513W        W32296  20.433  10.579   1.485
65514W        W32297  20.912  24.170  10.732
65515W        W32298  20.992  19.993   2.711
65516W        W32299  17.877  17.199   0.477
65517W        W32300   8.136  11.853   1.913
65518W        W32301  26.305   9.202   3.466
65519W        W32302  40.641  35.475   3.783
65520W        W32303  28.850   5.989   2.417
65521W        W32304  20.770  10.056   2.058
65522W        W32305  16.633   3.617  12.960
65523W        W32306  12.255  35.339   1.741
65524W        W32307  12.812  18.631  11.076
65525W        W32308  22.088   5.931  12.788
65526W        W32309  37.039  26.112   4.984
65527W        W32310  18.550  12.659   4.144
65528W        W32311  21.731  10.280   0.392
65529W        W32312   0.513  30.150   3.706
65530W        W32313  12.325  19.107  14.857
65531W        W32314  37.594   1.456  12.108
65532W        W32315  35.151  37.520   0.313
65533W        W32316  40.089  10.950  13.537
65534W        W32317  25.049  14.917   4.140
65535W        W32318  34.058   5.688   4.319
65536W        W32319  38.301  15.276  13.447
65537W        W32320  40.211   0.804  11.572
65538W        W32321  41.216   9.654   1.894
65539W        W32322  37.125   4.332   2.397
65540W        W32323  18.271   5.628  11.686
65541W        W32324  43.726  24.828   3.834
65542W        W32325  18.623  34.540   1.373
65543W        W32326  26.812   7.676   3.734
65544W        W32327  43.435  36.523  14.464
65545W        W32328  16.723   9.143   0.813
65546W        W32329   7.357   3.316   3.249
65547W        W32330  44.253  34.493   0.337
65548W        W32331   1.429  18.851   3.112
65549W        W32332  15.373   3.270   2.183
65550W        W32333   3.327  36.337   1.800
65551W        W32334   2.067  25.436   1.502
65552W        W32335  17.039  22.249   1.723
65553W        W32336   6.230   0.951   1.029
65554W        W32337  20.415  39.355   9.885
65555W        W32338  43.773  38.016   3.378
65556W        W32339  36.335  21.455   0.931
65557W        W32340  11.113  26.592   1.064
65558W        W32341  29.697  44.505   2.968
65559W        W32342   2.725  27.016   3.063
65560W        W32343   4.688  18.152   4.535
65561W        W32344  28.007  22.188   4.363
65562W        W32345  17.804  27.312   4.133
65563W        W32346  20.242  13.866   0.798
65564W        W32347  10.938  14.817  14.004
65565W        W32348   0.482   4.678   0.996
65566W        W32349  25.356  27.032  12.106
65567W        W32350  15.852  32.404   1.694
65568W        W32351  35.111  29.688  14.214
65569W        W32352  23.924  31.493   0.878
65570W        W32353  28.168   9.762   4.070
65571W        W32354   1.923  36.945   4.573
65572W        W32355   3.218  26.953  12.580
65573W        W32356  43.508  27.888  10.655
65574W        W32357  32.085  29.166  13.160
65575W        W32358  16.850   9.676  12.620
65576W        W32359  36.278   2.970   0.679
65577W        W32360  18.051  21.757  13.430
65578W        W32361  22.915   2.863  11.692
65579W        W32362  44.114  14.572  13.927
65580W        W32363   9.237  31.366   3.302
65581W        W32364  42.529  23.715  13.935
65582W        W32365  34.523  44.712   3.688
65583W        W32366  33.229  36.120   4.187
65584W        W32367  15.866  22.084  13.009
65585W        W32368  33.180  21.479  13.451
65586W        W32369   2.431  30.676  11.636
65587W        W32370  31.690  34.312  11.171
65588W        W32371  20.762  36.428   0.490
65589W        W32372  21.318   7.333   4.955
65590W        W32373  21.658  43.009  13.476
65591W        W32374   2.893  31.885   2.645
65592W        W32375  19.082  22.945   3.770
65593W        W32376  25.584  42.468  12.937
65594W        W32377  25.718   0.387   3.768
65595W        W32378  19.961   0.521  11.092
65596W        W32379  18.858  37.507   5.010
65597W        W32380   7.206  42.283   2.690
65598W        W32381   0.737   7.585   2.460
65599W        W32382   3.646  34.022  12.942
65600W        W32383  33.567  22.882   1.312
65601W        W32384  29.984  41.511  14.895
65602W        W32385  41.495  19.577  14.851
65603W        W32386  24.699  24.897   5.054
65604W        W32387  16.108  16.355  11.378
65605W        W32388  11.021  26.925  12.535
65606W        W32389  31.110  12.716  13.477
65607W        W32390   9.724  29.562   3.248
65608W        W32391  11.521  25.093  10.664
65609W        W32392  11.769  30.010   2.405
65610W        W32393  40.828   8.613  11.515
65611W        W32394  25.255   0.536  12.389
65612W        W32395  38.409  23.712  13.001
65613W        W32396  36.985  34.993  13.942
65614W        W32397  20.134   7.002  12.925
65615W        W32398  32.340  41.311   1.637
65616W        W32399  17.364  43.180  13.183
65617W        W32400  27.410  13.202  14.360
65618W        W32401   2.298  31.988  14.819
65619W        W32402  13.870  31.993  13.102
65620W        W32403  23.101   8.624  12.089
65621W        W32404  26.526  40.483   3.647
65622W        W32405  13.840  22.538   3.709
65623W        W32406  32.298  28.054   0.261
65624W        W32407   1.962  36.279  14.389
65625W        W32408  23.526  12.759  12.054
65626W        W32409  32.853  11.901   0.426
65627W        W32410  22.108  27.046  14.941
65628W        W32411   9.740   8.144   2.470
65629W        W32412  22.960  28.035  14.407
65630W        W32413  14.585  11.392  12.132
65631W        W32414   6.125   9.304  13.574
65632W        W32415  36.830  32.979   4.067
65633W        W32416   1.010   5.217  13.471
65634W        W32417   8.711   1.759   4.420
65635W        W32418   7.287  40.798   3.632
65636W        W32419  11.678  31.006  12.172
65637W        W32420  40.547  10.360   3.688
65638W        W32421   5.487   4.250   4.635
65639W        W32422   2.653  14.519  13.995
65640W        W32423  37.295  10.754  10.606
65641W        W32424  23.217   4.098  11.297
65642W        W32425  33.054  22.753   9.994
65643W        W32426  33.446  19.928   4.481
65644W        W32427  31.806  27.438   3.648
65645W        W32428   7.102  36.184  11.090
65646W        W32429  13.052  43.428  14.452
65647W        W32430  29.717  13.243  12.006
65648W        W32431  35.187  18.345   1.949
65649W        W32432  11.109  41.591  12.481
65650W        W32433  38.881  16.652   1.734
65651W        W32434   3.615   6.209  10.225
65652W        W32435  17.158  43.823   4.406
65653W        W32436  29.398  44.589   3.373
65654W        W32437  11.254  39.012  11.280
65655W        W32438  39.863   1.258  14.945
65656W        W32439  19.284  35.248  11.831
65657W        W32440   8.781  35.167   1.353
65658W        W32441   2.674  39.976  11.174
65659W        W32442  29.754   6.591   0.375
65660W        W32443  28.016   2.998  13.950
65661W        W32444  15.564  32.176   0.578
65662W        W32445  24.546  19.011   3.184
65663W        W32446  39.017  22.095  12.574
65664W        W32447  24.847  27.533   4.976
65665W        W32448  35.694  42.916   0.364
65666W        W32449  30.411  27.923   4.599
65667W        W32450  26.784  18.539  13.792
65668W        W32451  11.293  21.420  10.708
65669W        W32452  30.174   6.925  11.209
65670W        W32453  35.082  43.181   4.165
65671W        W32454  23.009  32.580  11.607
65672W        W32455  35.508  43.414   0.427
65673W        W32456  31.054  15.232  12.111
65674W        W32457  29.088  39.456   2.657
65675W        W32458  28.548   3.231  12.890
65676W        W32459   1.830   6.781   1.469
65677W        W32460  30.881  18.184   2.242
65678W        W32461   1.019  20.052   0.692
65679W        W32462  41.352  26.951   2.606
65680W        W32463  42.393  43.554   4.170
65681W        W32464  34.476  40.457  14.372
65682W        W32465  17.728  35.831  12.832
65683W        W32466  13.548  11.473  11.989
65684W        W32467  39.954  26.965   1.730
65685W        W32468  15.309  12.108  12.955
65686W        W32469  41.378  25.670  13.847
65687W        W32470  40.450  18.415   5.047
65688W        W32471  11.526  18.199   3.971
65689W        W32472   9.319   8.206   3.296
65690W        W32473  39.084  16.122   3.480
65691W        W32474  27.413   9.411   3.129
65692W        W32475  13.009  40.265   3.746
65693W        W32476   0.736  20.191   1.330
65694W        W32477   1.966  11.342   1.265
65695W        W32478  27.474  21.716  12.155
65696W        W32479  29.435  43.364  14.373
65697W        W32480  36.476  18.287   3.640
65698W        W32481   7.292  15.704   2.303
65699W        W32482  14.611  25.995   0.816
65700W        W32483  37.828  19.633  10.177
65701W        W32484  25.028  36.958   3.249
65702W        W32485   4.732  36.521   0.528
65703W        W32486  13.082  38.531   0.214
65704W        W32487  33.456  10.869   0.988
65705W        W32488  14.668  37.040   3.319
65706W        W32489  21.201  41.514  12.804
65707W        W32490  28.017  32.456   3.767
65708W        W32491  32.327  19.362  10.705
65709W        W32492  17.635  42.635   3.199
65710W        W32493  13.413  10.495   5.340
65711W        W32494  23.054  23.643   2.190
65712W        W32495  27.898  35.459  13.390
65713W        W32496   7.929  38.086   0.814
65714W        W32497  31.349   2.220   2.853
65715W        W32498  32.334  26.444   9.791
65716W        W32499  35.293  18.518  14.886
65717W        W32500  11.122  44.239  13.081
65718W        W32501   1.008  38.811   0.769
65719W        W32502  16.159  27.535   0.828
65720W        W32503   4.974  28.629   2.328
65721W        W32504  24.080   9.024  13.762
65722W        W32505  25.215  15.694  12.608
65723W        W32506  13.742  43.920  10.402
65724W        W32507  38.313   2.068   0.225
65725W        W32508  38.403  37.838  13.519
65726W        W32509  33.938   6.115  12.118
65727W        W32510   4.891  14.279  13.829
65728W        W32511  20.991  19.028  12.009
65729W        W32512  25.624   3.808  12.756
65730W        W32513  40.007  42.767  14.770
65731W        W32514   1.573   4.313   2.909
65732W        W32515   7.884  26.658   0.380
65733W        W32516  29.055  25.479  11.547
65734W        W32517  21.070  11.588  11.521
65735W        W32518   5.507  25.547   3.662
65736W        W32519  29.497  14.265  10.666
65737W        W32520  30.499  23.565   1.032
65738W        W32521  13.634  15.197   0.625
65739W        W32522  14.870  15.106  14.120
65740W        W32523  10.674  17.686  12.992
65741W        W32524   2.362   3.472  14.929
65742W        W32525  20.860  20.966  11.754
65743W        W32526  36.247  44.248   4.860
65744W        W32527   9.363  27.070  13.861
65745W        W32528   8.041   0.210   3.689
65746W        W32529   9.005  41.558   2.328
65747W        W32530   8.145   1.725  11.093
65748W        W32531  12.058  37.661  10.529
65749W        W32532  42.492  35.021   3.258
65750W        W32533  28.964   4.339   0.216
65751W        W32534  36.862   8.728   4.270
65752W        W32535  19.711  33.696  11.578
65753W        W32536   3.774  29.379   2.892
65754W        W32537   5.835  11.562  13.591
65755W        W32538  38.383  26.076  12.514
65756W        W32539  26.758  42.702  13.409
65757W        W32540  21.513  11.672  12.530
65758W        W32541   5.924  25.227   1.779
65759W        W32542  35.356  34.530   0.999
65760W        W32543  40.326   9.363   4.959
65761W        W32544   3.999  35.596  13.032
65762W        W32545  14.250  30.528  13.335
65763W        W32546   4.340   8.685  13.308
65764W        W32547   8.768  14.870   3.182
65765W        W32548  19.396   3.273   4.183
65766W        W32549  10.988   5.738   2.038
65767W        W32550  38.423  14.097  14.454
65768W        W32551  15.130  26.529  12.097
65769W        W32552  34.060  41.042   1.364
65770W        W32553  25.146  33.246   3.616
65771W        W32554  42.407  11.072  12.900
65772W        W32555  14.436  18.685  10.703
65773W        W32556  26.201  30.956  11.131
65774W        W32557   8.754  23.061  11.212
65775W        W32558  17.290  18.483  13.877
65776W        W32559   0.298  27.800  12.978
65777W        W32560  43.294  38.872  13.461
65778W        W32561  31.968  10.181  12.157
65779W        W32562  33.662  16.798  12.124
65780W        W32563  28.177  10.919  11.140
65781W        W32564  37.561  10.822   3.928
65782W        W32565   6.096  25.972   2.816
65783W        W32566  43.508  42.351  13.903
65784W        W32567  10.631   3.757  14.148
65785W        W32568  30.829   7.374   4.427
65786W        W32569  44.380   0.801   1.810
65787W        W32570   3.236   5.328  13.501
65788W        W32571  35.351  19.056   3.677
65789W        W32572   1.378  11.553   1.310
65790W        W32573  44.833  21.638  12.965
65791W        W32574  21.491  14.416  11.949
65792W        W32575  13.756  18.215  13.148
65793W        W32576  12.293  27.697  10.697
65794W        W32577   7.694  15.778  14.527
65795W        W32578  33.303   0.065  13.901
65796W        W32579   0.706  10.229  12.610
65797W        W32580  39.593  38.753  12.926
65798W        W32581  31.892   2.032   3.751
65799W        W32582  41.526  27.629  10.439
65800W        W32583  41.114   5.030   3.193
65801W        W32584  15.119  38.501  12.957
65802W        W32585  27.279   3.428   1.700
65803W        W32586  12.581   0.781   3.793
65804W        W32587  15.368  36.132   2.218
65805W        W32588  38.329   2.121   3.033
65806W        W32589  13.102  42.872  12.899
65807W        W32590   6.214  25.972  13.103
65808W        W32591   9.806  22.292  12.043
65809W        W32592   5.699  43.294   2.154
65810W        W32593  20.268   5.185   4.459
65811W        W32594  24.676   8.914  11.689
65812W        W32595  42.102  12.152   4.984
65813W        W32596  39.626  15.729  11.887
65814W        W32597  25.352  26.084  12.643
65815W        W32598  42.329   9.970   4.742
65816W        W32599  16.277  44.366  10.693
65817W        W32600   1.987  13.738  10.754
65818W        W32601  34.250  38.942  12.926
65819W        W32602  25.064  33.817   4.772
65820W        W32603  33.495  24.148   0.530
65821W        W32604  27.744  13.912   0.880
65822W        W32605  11.526  22.282  10.944
65823W        W32606   1.265  41.129  12.976
65824W        W32607  27.490  35.922   2.608
65825W        W32608  25.225   9.752  11.425
65826W        W32609   4.306  33.935   2.778
65827W        W32610  12.555  30.416   1.215
65828W        W32611  24.517  22.751   3.991
65829W        W32612  26.199   8.761  10.906
65830W        W32613  10.812  23.142   3.277
65831W        W32614   2.938  34.031   3.339
65832W        W32615  11.818  10.317   1.469
65833W        W32616  16.105  26.519   1.697
65834W        W32617  40.605  20.296  14.389
65835W        W32618   8.429   9.259   1.357
65836W        W32619   5.626  13.710   0.946
65837W        W32620  26.112  22.294  14.384
65838W        W32621  26.020  26.507   0.475
65839W        W32622  24.508  30.215  11.492
65840W        W32623   2.717  36.779   3.680
65841W        W32624   7.611  37.834  11.559
65842W        W32625  32.419   1.345   0.519
65843W        W32626  31.683   1.317   3.174
65844W        W32627   2.773   1.936   2.299
65845W        W32628  40.799  36.842  12.023
65846W        W32629  28.977  13.593   2.296
65847W        W32630  33.381   6.139   0.048
65848W        W32631  15.470  42.575   1.284
65849W        W32632  12.636  12.165  12.701
65850W        W32633   3.256  10.692   4.397
65851W        W32634  32.913   7.124   0.948
65852W        W32635  24.074  28.880   0.989
65853W        W32636  27.424  29.858  12.557
65854W        W32637   7.927  15.327  12.923
65855W        W32638  40.342  36.926   2.150
65856W        W32639  26.188   0.078  11.546
65857W        W32640  22.260  38.069  11.149
65858W        W32641  31.729  23.943   4.919
65859W        W32642  21.541  37.710  14.961
65860W        W32643  17.742  37.047  14.758
65861W        W32644  30.770  34.529   0.458
65862W        W32645  30.174   1.812   0.847
65863W        W32646  31.129  14.782   0.381
65864W        W32647  28.357  25.115   2.338
65865W        W32648  24.543  22.513  12.542
65866W        W32649  10.706  31.468  12.975
65867W        W32650  15.166  36.860  14.484
65868W        W32651  30.045  32.007   0.946
65869W        W32652  35.158  25.083  13.476
65870W        W32653  10.134   0.391  11.423
65871W        W32654  26.103  27.638   0.755
65872W        W32655  15.259   0.988   1.169
65873W        W32656  22.694  24.930   2.623
65874W        W32657   3.694  10.124   4.064
65875W        W32658  42.817  38.247   1.683
65876W        W32659  36.892   2.188  10.448
65877W        W32660  24.029   4.146  14.260
65878W        W32661  25.346  41.730  11.962
65879W        W32662  10.156   0.814   2.270
65880W        W32663  13.786  31.897   3.323
65881W        W32664  14.573   4.971   2.281
65882W        W32665  37.313  34.833   1.225
65883W        W32666  31.245  15.281   0.404
65884W        W32667  20.003  42.694  11.067
65885W        W32668   8.879   6.086   3.129
65886W        W32669  35.474  14.617   3.660
65887W        W32670  44.770   0.760   3.235
65888W        W32671  33.160   6.777  11.963
65889W        W32672  36.410  27.644  14.877
65890W        W32673   1.097  10.662   3.684
65891W        W32674  33.894  25.401   2.389
65892W        W32675   3.865  29.794  11.203
65893W        W32676  42.515  10.248  12.479
65894W        W32677   6.535  28.927  11.554
65895W        W32678  15.848  41.685   0.950
65896W        W32679  24.116  30.792   3.779
65897W        W32680  23.477   1.231  12.291
65898W        W32681  33.554  37.108  12.880
65899W        W32682  15.679   5.638  10.490
65900W        W32683  18.594   8.181   3.479
65901W        W32684  41.559  20.529  12.206
65902W        W32685  13.263  25.350   0.737
65903W        W32686   5.279  19.008   2.415
65904W        W32687   2.868  43.780  10.730
65905W        W32688  14.193  18.566   5.045
65906W        W32689  19.200  17.807   3.037
65907W        W32690  30.358  17.083   0.280
65908W        W32691   7.758  43.990   0.143
65909W        W32692  24.532  31.722  11.335
65910W        W32693  12.985  38.588  10.637
65911W        W32694   8.488  25.831   2.668
65912W        W32695  20.749  34.925   1.369
65913W        W32696  27.740   2.959   0.559
65914W        W32697  38.720  20.549   3.114
65915W        W32698  29.445  25.460   3.100
65916W        W32699  27.869   4.464   2.452
65917W        W32700  12.401   5.805   3.406
65918W        W32701  26.442  39.525  14.879
65919W        W32702   7.819  16.372  12.108
65920W        W32703  35.614  35.188  10.489
65921W        W32704   6.136  10.754  11.657
65922W        W32705  27.504  18.537  11.550
65923W        W32706  25.650  10.720  11.553
65924W        W32707  35.600  20.409  13.155
65925W        W32708  19.672   9.993   2.228
65926W        W32709   1.286  35.371   3.887
65927W        W32710   8.410  38.334   0.873
65928W        W32711  20.660  29.974  11.919
65929W        W32712  31.958   8.715  11.599
65930W        W32713  37.096  24.495  12.666
65931W        W32714  17.105   8.320  11.850
65932W        W32715  10.918  27.161   1.779
65933W        W32716   0.675  43.292   3.778
65934W        W32717  11.996  25.179  12.417
65935W        W32718   9.780  38.765  14.288
65936W        W32719   7.820   8.295   2.020
65937W        W32720  35.689   7.674   3.605
65938W        W32721  34.028  33.019  11.324
65939W        W32722  23.577  28.408   2.344
65940W        W32723  29.024  12.407   0.321
65941W        W32724   9.138   7.492  10.299
65942W        W32725  28.516  31.433   2.451
65943W        W32726   1.258  31.060   1.930
65944W        W32727  43.500   3.085   1.337
65945W        W32728  17.618  15.196  11.548
65946W        W32729  18.991  37.334  10.569
65947W        W32730  36.815  17.799   0.646
65948W        W32731  19.209  21.650   1.721
65949W        W32732  33.985  31.665  10.738
65950W        W32733   7.900  38.346  13.859
65951W        W32734  44.487   2.866   0.703
65952W        W32735  38.004  28.403  11.517
65953W        W32736  22.589  24.579  12.026
65954W        W32737  36.649  28.430   4.625
65955W        W32738   8.784  11.766   0.538
65956W        W32739   7.471   3.936  10.859
65957W        W32740  17.752  30.396   0.298
65958W        W32741   5.338  30.838   2.751
65959W        W32742  30.650  36.252   2.163
65960W        W32743   5.726  23.377  13.476
65961W        W32744  31.438   0.522   2.349
65962W        W32745   9.323  30.595   4.649
65963W        W32746  34.861  16.005  11.341
65964W        W32747  16.564  38.359   0.050
65965W        W32748  34.346  25.924   1.926
65966W        W32749  22.082  31.869  10.480
65967W        W32750  14.127   8.165  14.495
65968W        W32751  37.995  42.647  11.188
65969W        W32752  40.123  26.986  11.192
65970W        W32753   1.394  11.140  10.956
65971W        W32754   9.264  19.674  10.172
65972W        W32755  37.544  25.036  13.326
65973W        W32756   1.189  39.619  11.564
65974W        W32757  16.532   9.220   3.140
65975W        W32758  44.462   4.008  10.540
65976W        W32759  26.488  41.810   2.410
65977W        W32760  33.362  42.884  11.869
65978W        W32761   3.271  27.753   4.184
65979W        W32762  37.116  19.636  10.566
65980W        W32763  30.054  11.404  11.219
65981W        W32764  18.595  44.263  11.505
65982W        W32765  13.622   5.876  10.765
65983W        W32766  36.845  25.964  10.608
65984W        W32767  40.321  43.017  13.490
65985W        W32768  23.629  12.623   0.408
65986W        W32769  20.447   1.939  14.073
65987W        W32770  35.754  18.269  14.860
65988W        W32771   3.429   2.259  13.791
65989W        W32772  16.438   8.005   2.664
65990W        W32773   6.314  27.891   3.741
65991W        W32774   9.655  26.687   3.437
65992W        W32775   6.873  23.234  12.725
65993W        W32776   5.263  33.916   1.394
65994W        W32777  35.142  13.305   4.620
65995W        W32778  31.202  12.287   1.424
65996W        W32779  33.596   0.915  12.069
65997W        W32780  43.225  41.010  13.406
65998W        W32781   6.740   1.331  14.289
65999W        W32782  39.030  11.082  10.693
66000W        W32783   7.000  12.904  11.966
66001W        W32784  12.727  13.639  14.532
66002W        W32785  42.171  20.178   1.393
66003W        W32786  20.089  27.960  10.003
66004W        W32787  44.842  27.264   0.899
66005W        W32788  44.799  16.412   1.962
66006W        W32789  34.950   1.462  13.875
66007W        W32790  41.751  11.457  13.527
66008W        W32791  20.117   7.672  13.626
66009W        W32792  27.591  42.769  14.204
66010W        W32793  39.527  18.145   1.334
66011W        W32794  42.037  41.962   2.420
66012W        W32795  26.393  42.695   0.852
66013W        W32796  42.948  31.898  11.831
66014W        W32797  16.213  19.284  10.809
66015W        W32798  11.468   8.952   4.543
66016W        W32799   8.382  25.444   2.306
66017W        W32800  20.069  31.151   2.835
66018W        W32801  22.152  40.962   3.906
66019W        W32802  21.789  40.796  12.428
66020W        W32803   9.483  43.648   4.111
66021W        W32804  40.311  10.162  11.850
66022W        W32805  16.136  40.298  14.397
66023W        W32806   8.131  28.906   0.258
66024W        W32807  16.776   3.382   2.856
66025W        W32808  36.618  19.340  10.279
66026W        W32809  17.212  26.519   2.273
66027W        W32810  30.653  42.069   1.909
66028W        W32811  29.209  15.758  14.524
66029W        W32812   9.022   9.922   2.339
66030W        W32813  17.494  38.844  12.493
66031W        W32814  18.061  12.794   4.101
66032W        W32815  34.985  40.799   2.504
66033W        W32816   1.481   6.142  14.872
66034W        W32817   3.200  31.930   1.267
66035W        W32818  11.385  43.398   2.334
66036W        W32819   0.957  12.904  12.900
66037W        W32820   2.993  12.800  13.046
66038W        W32821  30.516  14.595   4.544
66039W        W32822   0.393  35.340   4.431
66040W        W32823   5.493  42.771  14.125
66041W        W32824  31.111  10.619   3.095
66042W        W32825  36.952   2.622   1.723
66043W        W32826   2.339  36.151   1.273
66044W        W32827  24.059   9.787  11.986
66045W        W32828  43.524  41.102   3.379
66046W        W32829  28.036  22.490   0.837
66047W        W32830  40.229   1.961   1.716
66048W        W32831  23.680  16.103  11.577
66049W        W32832  15.538  43.474  11.742
66050W        W32833  43.041  18.554   2.063
66051W        W32834  40.444  21.469   1.451
66052W        W32835  39.830  44.849  14.012
66053W        W32836  29.092   4.027  12.663
66054W        W32837   1.735  42.357   1.948
66055W        W32838   3.256  29.644   0.726
66056W        W32839   3.474  43.035  11.171
66057W        W32840  32.532  41.760   3.743
66058W        W32841  29.786  13.129   2.989
66059W        W32842   0.977  14.353   0.415
66060W        W32843  21.102  29.678  13.295
66061W        W32844  34.682  31.136   0.748
66062W        W32845  11.655  29.872   4.189
66063W        W32846  43.445   7.139  13.034
66064W        W32847  25.260  13.714   1.914
66065W        W32848   7.040   2.746   4.120
66066W        W32849  31.344  28.035  14.913
66067W        W32850   6.937  20.061  10.665
66068W        W32851   8.953  40.522   2.340
66069W        W32852  13.847  29.685   1.225
66070W        W32853  43.553  10.285  12.978
66071W        W32854  11.575   7.421   4.264
66072W        W32855   1.931  42.322  10.744
66073W        W32856  35.501  30.653   0.395
66074W        W32857   9.045  26.430  12.838
66075W        W32858  43.035  34.128  14.432
66076W        W32859  28.641  30.859  14.333
66077W        W32860  12.409  10.713  13.837
66078W        W32861  15.223  37.761  14.789
66079W        W32862  13.497  41.744   1.493
66080W        W32863   7.215  33.067  14.218
66081W        W32864  28.940  44.299   0.317
66082W        W32865  38.994   9.905   2.314
66083W        W32866  40.953  10.381   3.355
66084W        W32867  11.445  28.522   0.896
66085W        W32868  21.964  13.886   3.306
66086W        W32869  30.728  28.024  13.610
66087W        W32870  31.422  32.513   2.113
66088W        W32871  41.675  21.291  12.383
66089W        W32872   8.070  14.847   1.976
66090W        W32873  36.255  27.768   1.949
66091W        W32874  30.240  44.205  14.858
66092W        W32875  29.220  38.029  13.336
66093W        W32876  17.221  20.208   2.123
66094W        W32877  42.577   4.179   3.325
66095W        W32878  14.328   3.768   4.271
66096W        W32879   5.816  40.582   2.179
66097W        W32880   5.714  41.882   0.052
66098W        W32881  35.444  19.774   2.678
66099W        W32882   4.326   3.873   3.397
66100W        W32883   6.383  21.261   3.144
66101W        W32884  24.553   6.003  12.321
66102W        W32885  26.994  34.951  13.549
66103W        W32886  25.167  27.221  14.440
66104W        W32887  31.637  23.620  11.523
66105W        W32888  42.898  44.218  10.612
66106W        W32889   4.194   8.387   3.731
66107W        W32890  43.908  13.664   1.046
66108W        W32891   8.670  33.672   3.295
66109W        W32892  28.518  20.469   0.087
66110W        W32893   7.844  42.840  11.751
66111W        W32894  16.332   7.867  14.697
66112W        W32895  32.634   7.825  14.387
66113W        W32896  32.559  22.696  10.248
66114W        W32897  31.666  34.827  11.184
66115W        W32898  38.194  39.268   1.346
66116W        W32899  31.434   6.661  13.450
66117W        W32900  14.197  38.875  10.269
66118W        W32901  12.457  43.740  12.375
66119W        W32902  38.415  27.133  10.486
66120W        W32903  25.635  11.853   2.914
66121W        W32904  33.994  14.943   3.716
66122W        W32905   1.895   0.645   4.166
66123W        W32906  22.633   4.336  12.503
66124W        W32907  23.675   9.917   0.710
66125W        W32908   5.226  33.381  12.828
66126W        W32909  22.205   2.961   2.149
66127W        W32910   9.714  25.254   2.673
66128W        W32911   1.003   3.369  12.098
66129W        W32912  24.695  32.304  12.973
66130W        W32913   6.707  31.688  12.786
66131W        W32914  42.791  29.519  13.026
66132W        W32915  10.972  36.343   0.316
66133W        W32916  31.047  21.905  12.485
66134W        W32917  10.663  24.215   2.236
66135W        W32918   6.726  36.321  10.745
66136W        W32919  32.557  42.517   1.263
66137W        W32920  20.005  17.707   3.690
66138W        W32921  19.387  36.122  13.761
66139W        W32922  43.510   8.599  14.600
66140W        W32923  36.956  34.417  11.744
66141W        W32924   0.680  15.974   9.828
66142W        W32925   2.313  43.287  13.341
66143W        W32926  33.849  11.695   2.755
66144W        W32927  16.321  10.697   2.802
66145W        W32928  30.649  16.304   4.888
66146W        W32929  26.919  13.831  11.489
66147W        W32930  36.316  28.273   1.926
66148W        W32931  24.638   2.180   3.186
66149W        W32932   8.033  24.545  10.803
66150W        W32933   3.149  28.738   1.766
66151W        W32934   6.846  17.846  12.847
66152W        W32935  27.559   0.687   3.737
66153W        W32936  36.465  17.388   9.769
66154W        W32937  36.586   0.355   1.181
66155W        W32938  23.317  41.566   3.290
66156W        W32939  36.029  26.239   2.892
66157W        W32940   5.942  38.603   2.169
66158W        W32941  34.875   2.183  12.376
66159W        W32942  39.898  22.985  11.573
66160W        W32943  30.193   0.788   0.048
66161W        W32944  36.342  25.235   3.593
66162W        W32945  33.546  30.670   2.798
66163W        W32946  34.858  14.321   3.225
66164W        W32947   5.377  43.665   1.929
66165W        W32948  42.321  37.787   4.680
66166W        W32949  30.981  37.076   3.387
66167W        W32950  10.762  34.937   3.894
66168W        W32951  13.056  43.295  10.784
66169W        W32952  20.756  33.318   3.274
66170W        W32953  13.355   9.358  13.429
66171W        W32954  40.090   0.244   4.737
66172W        W32955  11.168   6.198  12.318
66173W        W32956   2.274  21.236   0.325
66174W        W32957  31.152  38.550   1.361
66175W        W32958  37.816  23.474   1.328
66176W        W32959   4.497   7.616  11.042
66177W        W32960   1.978  35.567  13.012
66178W        W32961   9.083  10.761   3.291
66179W        W32962   5.272  24.312  13.930
66180W        W32963  31.527   2.775   4.609
66181W        W32964  25.063   6.921  10.623
66182W        W32965  25.447  13.283  11.118
66183W        W32966  38.046  18.502   1.240
66184W        W32967  21.220   3.465   2.703
66185W        W32968  22.147  40.252  11.043
66186W        W32969  29.638  15.747  10.309
66187W        W32970  15.751  31.945   4.668
66188W        W32971   9.188  41.879   4.668
66189W        W32972  18.261  30.525   3.280
66190W        W32973   4.403  19.761   0.811
66191W        W32974  35.860  42.627   1.463
66192W        W32975  16.093  19.829  14.478
66193W        W32976  36.570   0.726   4.694
66194W        W32977  24.636  38.457   0.194
66195W        W32978   3.868   4.257  14.314
66196W        W32979   8.441  28.564  14.482
66197W        W32980  37.739  37.323  11.671
66198W        W32981  44.524   1.304   1.922
66199W        W32982  28.610   3.594  10.979
66200W        W32983  26.601   8.018  12.638
66201W        W32984  18.625  18.901   1.820
66202W        W32985  14.046  22.073   3.732
66203W        W32986  39.546  22.639   4.771
66204W        W32987  29.021  40.296  12.959
66205W        W32988  33.560   8.602  12.098
66206W        W32989  15.090  37.363  14.351
66207W        W32990   0.952  11.595   0.820
66208W        W32991  22.214   5.393   0.833
66209W        W32992  25.676   5.702  10.260
66210W        W32993  44.566  35.525  13.883
66211W        W32994  19.225  32.623   0.359
66212W        W32995   1.843  39.245  14.035
66213W        W32996  21.099  44.435  14.321
66214W        W32997   6.351  21.775  11.041
66215W        W32998  19.639   0.956  12.504
66216W        W32999  22.124  20.547   4.154
66217W        W33000  27.695  26.604   2.351
66218W        W33001  25.520   3.702  14.407
66219W        W33002  21.687  33.135  12.737
66220W        W33003  33.985   7.873   3.012
66221W        W33004   5.478  42.443   3.843
66222W        W33005   1.959  22.646  10.637
66223W        W33006  13.690  18.285  14.378
66224W        W33007  33.421  21.072   2.734
66225W        W33008  27.194  38.085  14.351
66226W        W33009   5.350  19.656   3.182
66227W        W33010  32.967  22.484   4.130
66228W        W33011  10.849   4.289   1.480
66229W        W33012  36.005   2.766   2.423
66230W        W33013  37.491   5.869  13.519
66231W        W33014  28.211   0.319  12.025
66232W        W33015   2.550  15.716  12.936
66233W        W33016  18.547  15.331  12.589
66234W        W33017  36.252   8.667   2.184
66235W        W33018  14.519  28.622  11.747
66236W        W33019  44.843  11.424  14.010
66237W        W33020  34.599  19.634   4.540
66238W        W33021  44.488  13.924   2.314
66239W        W33022   3.656  44.004   3.648
66240W        W33023  24.047  43.514   3.704
66241W        W33024  12.666   3.293   3.490
66242W        W33025  15.794  17.752  12.833
66243W        W33026  42.227  42.294  12.615
66244W        W33027   2.922  18.683   3.808
66245W        W33028  12.618  35.479   3.045
66246W        W33029  31.076  33.228  14.333
66247W        W33030  26.607  18.912   2.858
66248W        W33031  42.957  32.118  14.017
66249W        W33032  21.571  42.442   0.369
66250W        W33033  36.071  30.708   3.877
66251W        W33034   7.856  12.908   0.574
66252W        W33035  28.619  42.478  13.122
66253W        W33036   1.363   4.226  12.512
66254W        W33037   7.724  43.287  10.435
66255W        W33038  26.063   8.296  11.161
66256W        W33039  21.152  44.476   3.185
66257W        W33040  19.653   9.815  11.715
66258W        W33041  44.766  37.396  11.607
66259W        W33042  41.102  24.658   4.596
66260W        W33043  16.193  38.470   4.485
66261W        W33044  37.178   9.177  12.009
66262W        W33045  12.344  31.817   0.198
66263W        W33046   4.878  20.715   1.394
66264W        W33047  26.696   0.250  11.556
66265W        W33048  17.122   6.473   0.430
66266W        W33049  11.794  44.787   1.370
66267W        W33050   9.169  32.010  14.451
66268W        W33051   3.920  22.962   1.821
66269W        W33052  17.356   7.756   1.345
66270W        W33053  41.496  25.261  12.700
66271W        W33054  14.196  17.243  14.547
66272W        W33055  33.591  23.131   2.357
66273W        W33056   3.506   3.748  10.643
66274W        W33057  24.668  24.240  14.390
66275W        W33058  11.415  41.932   4.672
66276W        W33059  11.742  12.353   2.248
66277W        W33060  36.946  38.383  11.612
66278W        W33061   3.061   9.259   0.376
66279W        W33062  33.184   2.944   3.774
66280W        W33063  10.598  39.009   4.638
66281W        W33064  29.693   2.096   3.169
66282W        W33065  29.878  38.849  10.451
66283W        W33066   9.277  42.355  14.509
66284W        W33067  15.785  23.232   2.677
66285W        W33068  32.703  33.017   1.352
66286W        W33069  22.291  26.530  14.904
66287W        W33070  23.114  34.059   4.544
66288W        W33071   6.702   0.703   1.874
66289W        W33072  34.513  10.287  10.041
66290W        W33073  36.443  27.765  10.770
66291W        W33074   4.765  44.645  10.645
66292W        W33075  26.346   4.650   4.042
66293W        W33076  29.742  40.250  11.202
66294W        W33077  23.436   3.578   3.112
66295W        W33078  44.356  11.701  10.718
66296W        W33079   6.460   1.993   2.136
66297W        W33080   5.268  19.285  10.657
66298W        W33081  18.603  36.457  10.981
66299W        W33082  19.528  25.773   1.595
66300W        W33083  26.165   0.835  11.205
66301W        W33084  40.760  14.056  11.690
66302W        W33085  23.041  39.338   4.959
66303W        W33086  17.000  40.168  10.301
66304W        W33087  11.757  10.197   9.843
66305W        W33088   4.762  23.293  13.014
66306W        W33089  33.123   3.763  12.890
66307W        W33090  40.746  43.516  11.165
66308W        W33091  36.494  28.681   5.058
66309W        W33092  40.893  26.534   1.795
66310W        W33093   5.885  19.783  11.591
66311W        W33094  38.319  31.844  10.642
66312W        W33095  40.862  24.603   1.552
66313W        W33096   1.944  14.070   1.344
66314W        W33097  26.239  36.529   4.671
66315W        W33098  19.488  11.814  13.007
66316W        W33099  19.375  44.871   4.302
66317W        W33100  20.079   8.319   3.767
66318W        W33101   6.669  25.021   0.346
66319W        W33102  27.856  43.948  12.344
66320W        W33103   6.362  16.721  11.303
66321W        W33104  39.094   3.428   0.633
66322W        W33105  28.899  24.996  11.561
66323W        W33106  24.078  25.657   3.608
66324W        W33107  43.870  37.315  14.426
66325W        W33108   7.228   1.173  14.978
66326W        W33109  19.063  13.195   0.839
66327W        W33110  39.530  32.680   0.061
66328W        W33111  39.076  28.347   1.504
66329W        W33112  20.025  36.969   1.568
66330W        W33113  32.684  41.629  10.634
66331W        W33114  13.359   8.722  14.829
66332W        W33115  31.183   6.277  10.710
66333W        W33116  26.549  25.809  14.457
66334W        W33117   5.467  36.343  14.972
66335W        W33118  16.179  12.616   2.917
66336W        W33119  16.212  28.030   2.126
66337W        W33120  18.985  30.361   2.722
66338W        W33121  37.662  40.930   2.697
66339W        W33122  32.177  26.895   1.672
66340W        W33123  40.039  36.087   3.637
66341W        W33124  18.603  29.201  11.999
66342W        W33125  40.420  17.164   1.889
66343W        W33126  17.806  29.764  10.424
66344W        W33127  10.809  24.167  14.534
66345W        W33128  34.267  14.321  10.721
66346W        W33129  41.177   7.190   4.539
66347W        W33130  27.686  39.067  14.016
66348W        W33131  10.761   6.669   2.346
66349W        W33132  26.741  38.480  11.060
66350W        W33133   3.644   7.063   3.644
66351W        W33134   4.407   2.933   2.744
66352W        W33135  31.149  16.627   1.898
66353W        W33136   5.130  10.793   1.196
66354W        W33137  14.825   2.690   4.754
66355W        W33138  10.171  32.458  12.820
66356W        W33139  23.471  28.084   0.286
66357W        W33140  37.742   5.010  13.385
66358W        W33141  28.557   4.667  11.023
66359W        W33142  19.007   6.952   2.832
66360W        W33143  37.661   6.643   2.394
66361W        W33144  19.114  28.897   1.390
66362W        W33145  16.323  16.734  13.069
66363W        W33146   4.394   9.840   4.113
66364W        W33147   7.963   3.213  10.275
66365W        W33148  35.922  36.010  14.068
66366W        W33149  18.638  37.417   3.701
66367W        W33150  27.434  33.435   0.874
66368W        W33151  16.723   7.742  13.557
66369W        W33152   9.265  11.047   2.901
66370W        W33153   0.205  25.556   1.641
66371W        W33154  36.109  37.703   4.454
66372W        W33155  31.897   8.265  12.193
66373W        W33156  37.865  29.146  11.961
66374W        W33157  24.039  36.871   1.947
66375W        W33158  27.024  29.417  11.240
66376W        W33159   4.457  38.555   0.492
66377W        W33160  32.962  11.362   4.142
66378W        W33161  42.515  26.691  12.854
66379W        W33162  19.152  43.742   3.639
66380W        W33163  40.507   1.753  11.646
66381W        W33164  30.534  36.418  13.626
66382W        W33165  16.810  22.695  11.106
66383W        W33166  21.679   5.167   0.855
66384W        W33167   6.156  19.156  12.925
66385W        W33168  20.087   4.259  11.551
66386W        W33169   8.685   0.225  10.702
66387W        W33170  42.420  29.616  11.489
66388W        W33171  40.500  30.340   2.468
66389W        W33172  42.809  24.050  13.047
66390W        W33173   5.396  14.203  13.988
66391W        W33174   3.321   9.926   1.326
66392W        W33175   7.289  27.554  14.542
66393W        W33176  27.023  20.734  13.394
66394W        W33177  11.316  24.088   0.794
66395W        W33178  12.573  42.257  11.647
66396W        W33179  22.525   4.732  12.171
66397W        W33180  36.107  20.727  14.995
66398W        W33181  24.999  27.607   2.229
66399W        W33182   1.795   4.947  11.958
66400W        W33183  40.967   5.898  13.355
66401W        W33184  30.477  15.752  12.432
66402W        W33185   8.321  32.419   4.034
66403W        W33186  18.355  17.603   1.824
66404W        W33187   5.151  10.562   3.239
66405W        W33188  13.759  39.042   2.118
66406W        W33189   4.881  38.813   2.948
66407W        W33190  41.832  15.776  12.547
66408W        W33191  25.624  33.536  12.924
66409W        W33192   2.819   5.694  13.803
66410W        W33193  27.181  36.873   4.416
66411W        W33194  33.480  31.971   0.791
66412W        W33195  24.124  20.162   4.237
66413W        W33196   2.426  26.210  13.014
66414W        W33197  27.249  21.712  11.248
66415W        W33198   4.705  21.635   4.819
66416W        W33199  35.977  10.322  10.201
66417W        W33200  40.743   7.084  11.400
66418W        W33201  17.014  14.631   2.778
66419W        W33202  39.585  42.498   0.247
66420W        W33203  21.336  10.674  12.921
66421W        W33204  27.535   5.756   1.314
66422W        W33205  18.242  33.913   4.709
66423W        W33206  20.078  44.464   1.757
66424W        W33207  34.019   4.894   3.757
66425W        W33208  22.577  27.527  13.921
66426W        W33209  31.522  43.373   1.555
66427W        W33210  20.111   8.926  11.940
66428W        W33211  26.691  23.419   3.926
66429W        W33212   4.407  18.423   0.880
66430W        W33213   2.199  40.582  13.936
66431W        W33214  41.907  36.292   3.690
66432W        W33215  20.527  37.021  13.834
66433W        W33216  40.415  36.899  12.505
66434W        W33217  11.063  37.107  14.276
66435W        W33218   5.956   8.174  13.007
66436W        W33219  32.454  43.867  11.224
66437W        W33220  33.099  32.338   3.305
66438W        W33221  30.851   6.694   2.755
66439W        W33222  20.400   5.383  10.182
66440W        W33223   2.332  33.652  13.335
66441W        W33224   8.384  31.144   1.438
66442W        W33225  32.696  18.257  11.499
66443W        W33226   4.032  29.841   2.736
66444W        W33227   1.482  37.412  11.193
66445W        W33228   9.061   1.326   4.607
66446W        W33229  12.113  35.383   0.871
66447W        W33230  10.423   2.752   2.439
66448W        W33231  37.279  41.176  11.880
66449W        W33232  33.525  42.849  10.915
66450W        W33233  12.275   2.810   0.836
66451W        W33234  33.084  24.218  12.994
66452W        W33235  27.572  32.299   3.562
66453W        W33236  22.259  22.052   1.060
66454W        W33237   2.602  33.475   2.605
66455W        W33238  40.960  21.000   4.115
66456W        W33239  29.507  26.452   2.377
66457W        W33240  18.008  43.478   4.351
66458W        W33241  38.000  13.618  13.304
66459W        W33242  28.086  39.389   4.132
66460W        W33243   6.761  25.208  14.846
66461W        W33244  43.635  12.039   4.626
66462W        W33245  28.409  19.141  14.422
66463W        W33246  17.243  31.368  11.154
66464W        W33247  30.622   1.908   3.864
66465W        W33248   1.947  29.143   0.381
66466W        W33249  10.080  27.580   3.132
66467W        W33250  41.891  40.778  13.859
66468W        W33251  28.533  34.612   0.310
66469W        W33252   5.145  16.121  12.854
66470W        W33253  27.172  36.422   4.701
66471W        W33254  42.077  41.279  13.898
66472W        W33255  15.787  41.889  14.924
66473W        W33256  22.502  14.678  13.531
66474W        W33257  16.179  25.519   2.884
66475W        W33258  33.961  42.417   1.121
66476W        W33259  24.113  34.489   0.379
66477W        W33260  14.737  41.736   3.197
66478W        W33261  39.324   3.972   4.132
66479W        W33262  19.161   2.828  11.191
66480W        W33263  29.413  44.328   1.721
66481W        W33264   8.198  26.733  11.936
66482W        W33265  31.521  34.981   3.378
66483W        W33266   0.461  22.642  13.448
66484W        W33267  33.460  40.275  14.932
66485W        W33268   9.328  18.315  12.854
66486W        W33269  10.496  20.327  10.734
66487W        W33270  42.854  15.743   1.627
66488W        W33271   8.102  15.616  14.223
66489W        W33272   8.884  36.860   4.168
66490W        W33273  15.204   8.778   2.744
66491W        W33274  41.386  31.594  13.477
66492W        W33275  18.093   4.716  12.449
66493W        W33276   5.168   5.238  14.392
66494W        W33277  13.161  39.552   2.467
66495W        W33278   4.823  41.708   3.700
66496W        W33279   2.716   5.733  12.936
66497W        W33280  44.344  14.396   2.281
66498W        W33281  19.591  10.266   5.150
66499W        W33282  39.588  39.450  13.396
66500W        W33283  12.278   0.782   2.567
66501W        W33284   7.826   7.145  12.129
66502W        W33285  42.428  19.039  12.852
66503W        W33286  20.804  16.348  13.271
66504W        W33287  23.137  41.542   1.331
66505W        W33288   0.918   0.110   4.418
66506W        W33289  19.520   3.817   1.454
66507W        W33290  17.284  36.626  11.069
66508W        W33291  36.258  32.314  10.341
66509W        W33292  33.449  24.721  13.447
66510W        W33293  37.872  21.659  13.028
66511W        W33294   8.884  24.629   3.173
66512W        W33295   7.969   4.917   2.123
66513W        W33296  15.604  15.650  10.247
66514W        W33297  40.000  10.163   3.296
66515W        W33298  39.325  14.099  12.577
66516W        W33299  13.127  26.462  12.378
66517W        W33300  14.272   3.025   3.632
66518W        W33301  38.592   1.287  14.110
66519W        W33302  21.477  44.306  11.482
66520W        W33303   8.156  41.763  14.512
66521W        W33304  34.743   4.487  12.768
66522W        W33305  35.608  16.634  11.669
66523W        W33306  29.621  11.112   2.373
66524W        W33307  40.946   8.938   3.352
66525W        W33308  29.398  18.194  10.738
66526W        W33309  41.867   0.277  11.378
66527W        W33310   2.313  28.117  12.626
66528W        W33311  15.354  31.821  11.563
66529W        W33312   5.069  21.227   4.702
66530W        W33313  12.031   6.813   3.552
66531W        W33314  41.879  44.481   3.722
66532W        W33315  30.169  35.966  14.691
66533W        W33316   8.413  10.290   2.946
66534W        W33317  14.553   4.322  13.475
66535W        W33318   0.383  29.633  11.700
66536W        W33319  19.963  42.490  13.825
66537W        W33320  27.174  19.165  12.597
66538W        W33321   1.315  29.796  11.579
66539W        W33322  33.556  28.945  14.360
66540W        W33323  37.863  35.770  14.108
66541W        W33324  37.857  10.900   1.143
66542W        W33325   3.424   7.773  13.449
66543W        W33326   9.308  31.125   4.627
66544W        W33327  13.243  33.365  11.331
66545W        W33328  20.241  21.014   0.073
66546W        W33329  26.345   5.739   0.728
66547W        W33330  44.646  37.374  10.739
66548W        W33331  18.341   5.108  11.959
66549W        W33332   1.751   9.741   0.375
66550W        W33333   6.410  32.669  14.429
66551W        W33334  13.649  10.706  13.282
66552W        W33335  17.284  27.419  13.829
66553W        W33336  20.844  14.689   4.200
66554W        W33337   9.628  41.922   1.647
66555W        W33338  38.485  28.354   2.830
66556W        W33339   1.082  24.549  14.158
66557W        W33340   5.214  28.709   3.825
66558W        W33341  11.480   3.929   2.261
66559W        W33342  41.143   2.318  11.499
66560W        W33343  34.170  44.907   1.318
66561W        W33344   4.938   0.727   4.560
66562W        W33345  12.829  15.702   1.597
66563W        W33346  20.679  26.991   4.599
66564W        W33347  28.582  17.694  11.043
66565W        W33348  24.714  26.697   5.186
66566W        W33349  25.436  12.721   3.370
66567W        W33350   3.956  24.607   0.322
66568W        W33351   1.808  24.680   3.462
66569W        W33352  41.230  15.313   0.421
66570W        W33353  25.869  43.735   2.007
66571W        W33354  16.161  31.044  13.730
66572W        W33355  41.559   5.938   3.176
66573W        W33356  28.033  40.116  13.415
66574W        W33357   3.302  28.918  10.389
66575W        W33358  34.768   4.061   5.296
66576W        W33359  21.451  27.743   4.881
66577W        W33360  26.492  28.724   2.014
66578W        W33361  13.244  41.463   0.395
66579W        W33362  36.543  15.096  10.767
66580W        W33363  41.339  40.509   2.400
66581W        W33364  34.897   3.688   1.260
66582W        W33365  29.453  24.131  10.725
66583W        W33366  43.741  17.892   3.767
66584W        W33367  40.944  30.671   2.480
66585W        W33368  14.376  15.172  14.000
66586W        W33369   1.565  41.293   3.194
66587W        W33370  27.393  31.782  13.502
66588W        W33371   7.732  18.120   2.256
66589W        W33372   4.372  33.026   3.335
66590W        W33373  27.232  14.326   4.241
66591W        W33374  33.794  44.835  11.554
66592W        W33375   5.370  16.995  14.353
66593W        W33376  33.134  12.344   4.099
66594W        W33377  37.550   6.064  13.983
66595W        W33378  41.256   8.654  11.783
66596W        W33379  19.075  26.168  10.482
66597W        W33380  25.523  32.006   4.097
66598W        W33381  25.867  44.478  10.960
66599W        W33382  39.333  23.584   3.266
66600W        W33383  40.024  43.864  14.834
66601W        W33384  18.257  16.093  11.149
66602W        W33385  22.939  11.713  12.545
66603W        W33386  24.999   6.914   3.669
66604W        W33387  10.700  12.138  12.542
66605W        W33388   1.943  22.260   1.439
66606W        W33389  30.223  32.725   3.801
66607W        W33390   8.589   0.861  14.790
66608W        W33391  29.026  41.655  12.352
66609W        W33392  10.886  17.520   3.420
66610W        W33393  29.431   0.510   3.675
66611W        W33394  19.991  19.107   1.897
66612W        W33395  15.786   6.269  13.936
66613W        W33396  31.427  18.312  14.754
66614W        W33397  27.356  41.342  12.865
66615W        W33398  24.226   2.310   3.593
66616W        W33399  31.927  15.253   1.370
66617W        W33400   8.466   4.948   0.941
66618W        W33401  28.960  34.488   0.566
66619W        W33402  35.109   2.841  14.189
66620W        W33403  20.646   8.414   1.502
66621W        W33404  17.792  24.796   3.047
66622W        W33405  37.888   0.011  14.830
66623W        W33406   7.870  10.035   2.607
66624W        W33407  24.801   6.808  11.052
66625W        W33408  13.245  27.543  13.049
66626W        W33409  36.815   9.790   2.288
66627W        W33410  17.564  28.933  13.083
66628W        W33411  33.424  12.946   2.797
66629W        W33412   4.995   7.324  10.272
66630W        W33413  27.977  27.764   1.868
66631W        W33414  39.981  24.673   0.034
66632W        W33415   7.726  29.089   1.477
66633W        W33416   4.202  37.653  13.935
66634W        W33417  32.907  42.370  14.112
66635W        W33418  11.003  22.728  10.778
66636W        W33419  17.968  44.855   2.899
66637W        W33420  29.171   2.449   2.329
66638W        W33421  13.144   0.275  11.556
66639W        W33422  15.294  17.329  11.115
66640W        W33423  33.101  28.763   3.574
66641W        W33424  10.676   7.996   3.995
66642W        W33425  31.553  34.772  12.938
66643W        W33426   7.754  26.487   4.340
66644W        W33427  41.398  44.840  13.304
66645W        W33428  44.368  42.904  12.048
66646W        W33429   2.740   6.494   3.669
66647W        W33430  39.804  34.459   3.150
66648W        W33431  34.148  36.719  12.503
66649W        W33432  35.462   9.874  12.894
66650W        W33433  35.918   9.861  12.555
66651W        W33434  29.611  41.468  12.196
66652W        W33435  40.877  42.729   0.798
66653W        W33436   7.523  37.098  14.974
66654W        W33437  34.321  27.877   2.805
66655W        W33438  31.457   0.890  13.413
66656W        W33439  16.365  41.572  13.703
66657W        W33440  42.514  25.552  11.767
66658W        W33441  20.080  12.862   4.170
66659W        W33442   2.776  15.130  10.738
66660W        W33443  44.641  37.955   2.028
66661W        W33444  11.617   7.882   2.694
66662W        W33445  38.880  15.240   1.854
66663W        W33446   8.529  23.645  10.606
66664W        W33447  23.520   5.767   1.378
66665W        W33448  19.186   0.701   4.565
66666W        W33449  36.075  26.541  12.157
66667W        W33450  24.417   9.631  12.309
66668W        W33451   7.346  22.034   4.759
66669W        W33452  17.120  10.523  10.611
66670W        W33453  38.846   0.984   3.458
66671W        W33454  43.848  43.280  13.433
66672W        W33455  43.520  17.908  13.403
66673W        W33456  14.197   6.239  12.606
66674W        W33457  27.469  44.500  13.420
66675W        W33458   6.880  19.196  12.175
66676W        W33459   5.924  35.487   1.646
66677W        W33460   9.135   4.262  14.808
66678W        W33461  19.485  31.048   5.103
66679W        W33462   0.733   8.206   3.171
66680W        W33463  15.847  14.733  14.845
66681W        W33464   6.834  14.141  13.886
66682W        W33465  21.751  44.345  11.037
66683W        W33466  32.852  10.955  14.038
66684W        W33467  36.408  23.116  13.996
66685W        W33468  30.924  42.475  12.426
66686W        W33469   8.208  39.328   0.802
66687W        W33470  29.919  43.970   4.097
66688W        W33471  28.298  34.644   4.240
66689W        W33472  18.707  41.289   2.166
66690W        W33473  21.578  38.810  11.117
66691W        W33474  25.479  37.055  11.584
66692W        W33475  15.380   5.717   0.389
66693W        W33476  10.084  36.557  10.164
66694W        W33477  20.307  34.120   0.202
66695W        W33478  33.113   1.218  12.480
66696W        W33479  33.458  35.609  12.482
66697W        W33480   3.681  20.195  10.560
66698W        W33481  11.411  34.065   1.792
66699W        W33482  20.216   2.845   1.280
66700W        W33483  28.433  10.324   2.080
66701W        W33484   0.557  39.326  12.345
66702W        W33485   2.244  25.234   9.655
66703W        W33486  28.040  18.150  14.915
66704W        W33487  16.235  27.538  10.552
66705W        W33488  34.296  14.443  13.767
66706W        W33489  21.961  42.886   3.300
66707W        W33490   5.296  19.960   2.719
66708W        W33491  39.856  12.332  12.531
66709W        W33492  33.309  35.012   1.793
66710W        W33493  10.781  37.063   2.729
66711W        W33494  19.655  12.456  12.007
66712W        W33495  11.880  11.131  10.113
66713W        W33496  20.053   8.882  10.215
66714W        W33497  40.062  12.350   3.830
66715W        W33498  11.711   0.155   4.153
66716W        W33499   6.222  28.735   4.077
66717W        W33500  15.851   5.422  13.224
66718W        W33501  15.024  15.264   0.771
66719W        W33502  27.918  20.831  13.312
66720W        W33503  11.642  11.850   4.115
66721W        W33504  39.470   7.473  14.001
66722W        W33505  29.535  37.369   1.639
66723W        W33506  30.381  27.662   1.986
66724W        W33507  17.700  22.227  13.291
66725W        W33508  20.205  20.631  13.304
66726W        W33509  35.602  28.506  14.535
66727W        W33510   8.837  33.546   2.357
66728W        W33511  41.664  41.637  11.553
66729W        W33512  18.211  17.325   0.947
66730W        W33513  25.818  17.364  12.593
66731W        W33514   8.500  23.082   2.729
66732W        W33515  37.480  37.274   0.248
66733W        W33516   8.097   9.317   2.629
66734W        W33517  37.911  39.825   4.001
66735W        W33518   0.018  26.444   4.178
66736W        W33519   9.342  14.312  13.390
66737W        W33520  29.181  13.900  14.398
66738W        W33521  28.465  17.135   1.961
66739W        W33522   4.171   2.264   2.493
66740W        W33523   3.665  40.616   0.739
66741W        W33524  20.956  31.862   0.677
66742W        W33525  26.845  28.082  13.922
66743W        W33526  10.941   5.474   4.996
66744W        W33527   1.833  23.660   4.690
66745W        W33528  28.641  12.663   0.527
66746W        W33529  15.527  16.688   4.686
66747W        W33530  39.420  25.016  11.583
66748W        W33531   0.518   0.163  12.172
66749W        W33532  38.957  15.765  11.077
66750W        W33533  43.042  28.335  14.937
66751W        W33534  28.970  14.080  10.638
66752W        W33535  36.071  29.404  11.142
66753W        W33536  13.884  18.735   0.253
66754W        W33537   1.784  31.613  12.107
66755W        W33538  12.749  41.792   2.294
66756W        W33539  33.987  30.537   1.666
66757W        W33540  21.195  21.238   4.683
66758W        W33541  27.183  39.070   3.134
66759W        W33542  18.567   0.018  10.204
66760W        W33543  36.989  40.628   3.217
66761W        W33544  39.483  39.039  10.141
66762W        W33545  15.380  27.672   2.641
66763W        W33546  42.968   2.302   4.462
66764W        W33547  34.316  14.926  13.921
66765W        W33548  26.937   4.260   2.846
66766W        W33549  22.266  28.944  13.122
66767W        W33550  36.301  25.465  11.239
66768W        W33551  14.137   3.490   4.684
66769W        W33552  29.948  28.194   3.906
66770W        W33553  42.434  32.110  14.270
66771W        W33554   6.685  32.848   3.306
66772W        W33555   1.412  37.288   4.525
66773W        W33556   5.074  14.040   1.462
66774W        W33557   7.902  29.930   3.221
66775W        W33558  16.265  18.722   3.165
66776W        W33559   5.980  42.855   5.051
66777W        W33560  26.248   6.746   1.334
66778W        W33561   8.820   8.240   0.642
66779W        W33562  25.087  25.176   1.708
66780W        W33563  18.613  42.874   4.889
66781W        W33564  15.907  33.237  10.429
66782W        W33565   5.140  43.523  11.368
66783W        W33566  19.971   4.293   4.800
66784W        W33567  11.313  23.594  10.891
66785W        W33568  36.942   6.237   0.582
66786W        W33569  39.978  41.517  13.092
66787W        W33570  38.843  18.838   0.733
66788W        W33571  12.685  14.650   2.396
66789W        W33572  33.727  15.972  14.251
66790W        W33573  20.119  16.319   0.803
66791W        W33574  42.678   5.341   5.033
66792W        W33575  13.171  26.862   0.706
66793W        W33576  17.556  35.795  12.354
66794W        W33577  15.146  31.020   2.687
66795W        W33578  31.221   3.213   0.986
66796W        W33579   4.418  19.834  13.966
66797W        W33580  18.258  40.018  13.921
66798W        W33581  43.197  33.535   0.469
66799W        W33582  39.942  29.770   0.896
66800W        W33583   0.818  39.267   3.670
66801W        W33584  31.599  44.043  14.050
66802W        W33585   1.077  38.318  13.477
66803W        W33586   0.668  14.826   0.410
66804W        W33587  23.989   1.908   9.783
66805W        W33588  22.804  22.704   0.804
66806W        W33589  41.858  16.835  12.642
66807W        W33590   2.620  11.230   0.624
66808W        W33591  16.755  28.887   1.715
66809W        W33592  13.737  44.736   1.337
66810W        W33593   7.541   3.246  13.908
66811W        W33594   3.091  26.527   0.948
66812W        W33595  40.558  22.638  13.538
66813W        W33596  21.506   1.691  13.024
66814W        W33597  30.723  34.872  12.380
66815W        W33598  18.994  10.442  13.972
66816W        W33599   5.329  30.772  13.771
66817W        W33600  38.545  14.817   0.793
66818W        W33601  19.049  22.680   4.661
66819W        W33602  37.561  27.450   2.395
66820W        W33603  22.752  33.768  11.112
66821W        W33604  20.282   7.174  13.392
66822W        W33605  35.162  23.685   1.895
66823W        W33606  10.763  11.776   0.320
66824W        W33607  22.465  41.889   1.399
66825W        W33608  28.471  20.620  14.591
66826W        W33609  37.417  27.407   3.884
66827W        W33610  12.743  37.910   2.079
66828W        W33611  19.630  32.171   3.482
66829W        W33612   9.647  25.802   0.862
66830W        W33613   7.799   3.361  14.728
66831W        W33614  30.058  39.084   3.729
66832W        W33615   4.355  12.436   1.684
66833W        W33616  30.616  16.564  14.424
66834W        W33617  40.033   0.626   3.747
66835W        W33618   2.945  38.032   1.970
66836W        W33619  26.053  11.665  14.653
66837W        W33620  25.218  11.543  14.941
66838W        W33621  28.297  43.009  11.448
66839W        W33622  12.739  26.945   2.581
66840W        W33623  15.680   0.458  14.926
66841W        W33624  21.109  30.637  13.390
66842W        W33625  36.554   1.452  11.261
66843W        W33626  28.191   7.845   2.626
66844W        W33627  41.841  34.462  11.125
66845W        W33628  35.135  22.619   4.188
66846W        W33629  19.156  18.324  10.782
66847W        W33630  12.729  40.769  12.950
66848W        W33631  13.344   7.594   0.138
66849W        W33632  21.791  19.698  11.719
66850W        W33633   4.960  13.019  10.096
66851W        W33634  37.625   7.151   2.393
66852W        W33635   4.878  19.633   2.670
66853W        W33636   4.890  44.514   3.141
66854W        W33637  23.247   6.324  10.960
66855W        W33638  31.451  25.307  13.380
66856W        W33639  24.617   8.306   3.558
66857W        W33640  16.257  19.377  13.337
66858W        W33641   4.376   1.873  10.452
66859W        W33642  14.307  19.072  12.117
66860W        W33643  34.044  44.866   0.263
66861W        W33644   7.357  18.703   1.741
66862W        W33645  21.790  32.392   3.735
66863W        W33646  10.040   0.323  14.997
66864W        W33647   0.027  22.822  12.210
66865W        W33648  22.212  12.475   0.880
66866W        W33649  15.139   3.461   1.716
66867W        W33650  32.417  17.037  12.473
66868W        W33651  17.101  39.491  10.679
66869W        W33652  42.239  13.357  11.779
66870W        W33653   7.064  24.654  12.405
66871W        W33654  24.638  35.440  12.576
66872W        W33655  40.915  28.662  14.522
66873W        W33656   2.937  15.683  14.370
66874W        W33657   6.208  12.335   4.147
66875W        W33658  41.326  35.909   4.910
66876W        W33659  24.452  13.647   3.094
66877W        W33660  32.667  14.837   3.198
66878W        W33661   7.319   5.848   2.939
66879W        W33662  18.834  29.233   3.180
66880W        W33663  19.525  22.310   4.229
66881W        W33664  43.443  12.617   5.027
66882W        W33665  41.073  11.240   0.760
66883W        W33666  21.977  12.167   2.238
66884W        W33667  33.447   9.257   3.540
66885W        W33668   6.683  38.307   4.204
66886W        W33669  19.083   4.010   2.370
66887W        W33670  33.508  25.724  14.316
66888W        W33671   6.536  12.740  12.165
66889W        W33672  41.508   1.055   0.036
66890W        W33673  28.416  42.522   0.365
66891W        W33674   9.293  39.007  14.297
66892W        W33675  12.992   1.161   4.313
66893W        W33676  18.600  30.533  13.443
66894W        W33677   9.871  23.259  11.870
66895W        W33678   9.077  42.851   9.767
66896W        W33679  25.082  13.716  11.202
66897W        W33680  16.318  32.626  11.456
66898W        W33681  13.561  12.327  13.005
66899W        W33682   0.852  28.980   2.236
66900W        W33683   2.679  10.176  14.469
66901W        W33684  38.224  10.782   0.781
66902W        W33685   2.103  27.238   1.478
66903W        W33686  11.644   6.674  14.825
66904W        W33687  37.829  27.280   3.199
66905W        W33688  20.693   6.285   0.928
66906W        W33689   8.713  37.135   1.383
66907W        W33690  20.674  23.238  14.386
66908W        W33691  16.535  44.784  14.968
66909W        W33692  16.900  34.544  11.555
66910W        W33693  43.748   7.616   0.018
66911W        W33694  27.152  17.504   2.594
66912W        W33695  29.904  40.829   3.257
66913W        W33696   5.143  18.802   4.227
66914W        W33697  33.974   3.362  14.887
66915W        W33698   6.227  41.352   2.784
66916W        W33699  14.144  13.117   3.185
66917W        W33700  40.955  39.865   3.122
66918W        W33701  22.263   2.358  11.425
66919W        W33702  35.162  40.445   2.851
66920W        W33703  42.871  24.802   4.552
66921W        W33704  12.612   1.063   2.855
66922W        W33705  25.494   8.597   5.035
66923W        W33706  43.962   3.785  11.210
66924W        W33707  32.349  17.337  12.880
66925W        W33708   3.074  14.799   2.627
66926W        W33709  32.469   7.853  10.588
66927W        W33710  20.336  14.284   2.654
66928W        W33711  36.474  21.453   4.136
66929W        W33712  17.451  22.187   4.643
66930W        W33713  38.746   0.559  12.432
66931W        W33714  21.608  38.613  13.427
66932W        W33715  29.929  13.872  13.486
66933W        W33716   2.978  20.746   0.921
66934W        W33717  35.836   0.032  10.945
66935W        W33718  19.977   2.466   5.294
66936W        W33719  27.151  42.764  10.602
66937W        W33720   5.931  42.976  13.906
66938W        W33721  37.595   3.418  12.522
66939W        W33722  20.422   3.527  10.981
66940W        W33723   7.782  42.916   0.433
66941W        W33724   2.889  15.226   1.833
66942W        W33725  29.100  29.906  14.969
66943W        W33726   8.303  27.443  12.519
66944W        W33727   2.814  34.872   1.244
66945W        W33728  12.772  23.680  11.081
66946W        W33729  20.246   1.957   1.370
66947W        W33730  11.635  42.823  13.890
66948W        W33731  40.999  34.940  13.567
66949W        W33732  35.306   9.746   4.711
66950W        W33733  38.097   9.761   1.765
66951W        W33734  36.073   9.411  14.769
66952W        W33735  28.080  17.261   4.627
66953W        W33736  39.184  40.328   4.153
66954W        W33737  43.115  34.065  11.868
66955W        W33738  14.565  11.909   3.304
66956W        W33739  13.159  12.430  10.930
66957W        W33740  37.792   7.371   1.936
66958W        W33741  26.541  15.149   0.746
66959W        W33742   8.406  37.347   3.736
66960W        W33743  24.575  20.272  12.981
66961W        W33744  22.470  30.071   0.947
66962W        W33745  11.391  22.219   1.367
66963W        W33746  24.473  26.471  11.518
66964W        W33747   0.870  25.253  12.155
66965W        W33748  25.976  19.072   0.774
66966W        W33749   6.010  33.630   3.268
66967W        W33750   9.757  34.102  13.337
66968W        W33751   8.252  37.629   2.647
66969W        W33752  12.608  32.181  13.555
66970W        W33753  42.758  31.434   2.768
66971W        W33754  16.174  12.366   3.368
66972W        W33755  30.465  19.180   1.599
66973W        W33756  35.031  26.115  13.496
66974W        W33757  28.435  35.941  11.657
66975W        W33758  33.531  24.476  12.981
66976W        W33759  28.084  30.143   3.892
66977W        W33760   4.398  31.461  14.935
66978W        W33761  39.966   1.205   1.930
66979W        W33762  28.511  16.155   4.414
66980W        W33763  16.826  29.089   3.597
66981W        W33764  44.312  24.522   4.397
66982W        W33765  24.637   2.229  12.463
66983W        W33766   3.023  41.526   2.903
66984W        W33767  24.134  28.315  13.863
66985W        W33768  43.255  36.990  10.595
66986W        W33769  34.559   7.807   1.013
66987W        W33770   6.929   2.314  13.991
66988W        W33771   2.971  22.549  13.119
66989W        W33772  16.791  30.710   1.953
66990W        W33773   5.615  18.101  12.015
66991W        W33774  11.603  15.710  13.298
66992W        W33775   1.226   5.838   4.654
66993W        W33776   3.393  41.898   4.572
66994W        W33777  15.701  36.284  12.132
66995W        W33778  44.871   5.216   2.772
66996W        W33779   7.705  39.451   3.731
66997W        W33780  38.611  30.721  10.953
66998W        W33781  19.693  18.745   2.138
66999W        W33782  42.095  34.869  10.621
67000W        W33783  27.589  38.347  13.298
67001W        W33784   5.326  37.320   2.190
67002W        W33785  35.129  20.394   2.605
67003W        W33786  22.632  34.608   2.313
67004W        W33787  32.136  25.038  13.729
67005W        W33788  27.927  10.623  11.555
67006W        W33789  25.646  27.449   4.743
67007W        W33790  22.127  24.623   3.231
67008W        W33791  40.662  42.964   3.328
67009W        W33792   8.975  41.872  12.848
67010W        W33793   3.907  28.201  14.375
67011W        W33794  34.994   7.903  11.775
67012W        W33795   4.966  23.966   3.636
67013W        W33796  36.949  14.361   1.570
67014W        W33797  22.218  10.208   0.236
67015W        W33798  36.336  37.489   1.900
67016W        W33799  28.404  34.112  11.983
67017W        W33800   5.520  31.903  11.125
67018W        W33801  20.510  14.291  14.439
67019W        W33802  13.109  41.083  11.637
67020W        W33803  27.558  13.038   2.486
67021W        W33804  22.228  42.082  14.793
67022W        W33805   4.270  34.767   0.439
67023W        W33806  40.043   3.293  13.419
67024W        W33807  38.550  31.066   4.163
67025W        W33808  36.423  36.535  14.512
67026W        W33809  16.772  22.190   2.805
67027W        W33810  43.175  30.202  11.539
67028W        W33811   9.169   8.591  10.751
67029W        W33812  33.832   1.510  13.873
67030W        W33813  12.634  11.599   0.946
67031W        W33814  25.072  10.436  10.788
67032W        W33815  44.481  15.840  10.659
67033W        W33816  39.045  40.919   2.596
67034W        W33817   6.348  16.661  10.801
67035W        W33818   3.589  32.128  13.633
67036W        W33819  23.000  44.540   3.626
67037W        W33820   6.793  42.987   2.869
67038W        W33821  17.343  34.347  11.757
67039W        W33822  35.506  44.312   3.121
67040W        W33823   0.556  11.679  12.350
67041W        W33824  37.587  43.102  13.381
67042W        W33825  44.523  44.482   1.369
67043W        W33826  35.478  28.029  14.705
67044W        W33827  17.539  10.808  14.706
67045W        W33828  20.893  37.038   0.765
67046W        W33829  30.796  28.887  13.424
67047W        W33830  24.628   5.927   2.725
67048W        W33831   4.411  32.131  10.618
67049W        W33832  37.534  34.658   1.659
67050W        W33833  26.533  23.009  11.103
67051W        W33834   2.445  32.689   3.004
67052W        W33835  11.304  22.087   2.327
67053W        W33836  35.095  34.617  12.020
67054W        W33837  39.087  42.902  14.285
67055W        W33838  15.914  37.406  12.923
67056W        W33839  19.781  16.220  13.754
67057W        W33840  32.521  35.760   0.419
67058W        W33841   5.668  44.376   1.267
67059W        W33842  27.389  43.739   1.493
67060W        W33843  21.751  36.378  11.203
67061W        W33844  21.579  13.918   0.157
67062W        W33845  44.002  24.059   1.217
67063W        W33846  43.044   1.343  14.873
67064W        W33847  19.775  28.833  13.383
67065W        W33848  10.384  43.992   1.886
67066W        W33849   4.557  10.399   1.935
67067W        W33850   8.677  22.067   4.922
67068W        W33851  39.289  43.774   4.234
67069W        W33852  42.429  25.718   2.824
67070W        W33853  18.213  27.088  10.682
67071W        W33854  23.057  13.692  13.757
67072W        W33855  38.916  44.768  13.552
67073W        W33856  28.480  27.455   3.814
67074W        W33857  40.854  24.704   3.778
67075W        W33858  29.669  23.189   4.470
67076W        W33859  31.183  38.970  11.454
67077W        W33860  36.484  35.761   5.089
67078W        W33861  10.439   8.012   2.331
67079W        W33862  19.501   2.466   3.112
67080W        W33863  38.264  12.834  11.082
67081W        W33864  21.279  15.255   1.976
67082W        W33865  26.984  32.154  12.491
67083W        W33866  31.195   4.166   2.535
67084W        W33867   6.746  15.345  10.635
67085W        W33868  30.116  19.465  13.505
67086W        W33869   4.852  12.727   1.389
67087W        W33870   4.662   9.768   3.136
67088W        W33871   1.720  21.953   0.561
67089W        W33872  24.485  22.939   4.460
67090W        W33873   4.303  28.078  13.843
67091W        W33874  26.519  34.348  11.123
67092W        W33875  38.639  29.588   2.176
67093W        W33876   9.745  13.183  11.166
67094W        W33877   3.800  26.871   3.396
67095W        W33878  29.278  29.797   2.758
67096W        W33879  22.603  25.415   1.269
67097W        W33880  42.017   1.095  11.120
67098W        W33881   3.923  25.613  13.367
67099W        W33882  17.728  17.828  13.481
67100W        W33883  18.914  33.546   4.039
67101W        W33884  30.923   4.467   4.675
67102W        W33885   2.801  24.259  14.864
67103W        W33886  34.971   1.591   4.615
67104W        W33887  44.551  14.838  10.376
67105W        W33888   9.809  11.989  12.471
67106W        W33889   2.970  42.835  12.591
67107W        W33890  16.709  34.822  10.294
67108W        W33891  16.366  28.564   3.316
67109W        W33892  29.800  41.411   3.712
67110W        W33893  36.352  36.041   0.768
67111W        W33894  20.751  17.909  11.401
67112W        W33895  11.639   3.199   1.259
67113W        W33896  33.508  29.013   3.331
67114W        W33897  15.201  31.133   0.713
67115W        W33898   2.434  42.797  14.414
67116W        W33899   6.369  20.388  14.147
67117W        W33900   3.319  11.891   4.757
67118W        W33901  32.177  12.094   0.151
67119W        W33902  10.272  34.605  10.099
67120W        W33903  17.650  42.824   0.589
67121W        W33904  38.067  21.416   3.213
67122W        W33905  35.893  36.338   4.700
67123W        W33906  38.933  15.743  14.727
67124W        W33907  20.763  16.548  13.747
67125W        W33908  22.184   6.498   3.473
67126W        W33909  44.587  12.863  10.367
67127W        W33910  31.920  42.580  13.583
67128W        W33911  12.562  34.633  10.710
67129W        W33912  21.617  40.321  12.608
67130W        W33913  33.519  40.245   3.790
67131W        W33914  17.113  33.061  12.319
67132W        W33915  44.558  20.800  14.290
67133W        W33916  23.272  23.061   4.890
67134W        W33917  30.661   8.215  12.394
67135W        W33918   5.493   0.028   2.299
67136W        W33919  33.004  10.279  10.690
67137W        W33920  37.427  21.479  11.157
67138W        W33921   0.527   7.128   5.087
67139W        W33922  29.580  38.553   2.186
67140W        W33923  14.874  22.675   0.189
67141W        W33924  27.491  22.526  11.114
67142W        W33925  36.908  23.615  11.979
67143W        W33926   2.218   9.209  10.601
67144W        W33927  17.734  34.612   4.893
67145W        W33928  44.351  15.632   2.385
67146W        W33929  34.380  11.803   0.512
67147W        W33930  24.304  22.116   4.782
67148W        W33931  10.308   9.128  14.362
67149W        W33932  23.849  13.333   0.773
67150W        W33933  33.118  37.755  12.352
67151W        W33934  16.618  12.199   3.131
67152W        W33935  22.306  11.767   2.959
67153W        W33936  12.992  21.055  14.550
67154W        W33937   4.883  39.276  14.004
67155W        W33938   0.797  13.115  10.266
67156W        W33939  22.212  10.645   4.809
67157W        W33940  33.121  10.157  11.675
67158W        W33941   3.776  30.947   4.139
67159W        W33942  40.076  33.949  13.108
67160W        W33943  24.229  21.687  14.480
67161W        W33944  43.438  26.533   9.982
67162W        W33945  26.140   5.529  10.039
67163W        W33946  22.510  13.592   0.925
67164W        W33947   2.998  37.223  14.903
67165W        W33948  15.206  31.119   3.835
67166W        W33949  28.390  16.272   1.931
67167W        W33950  27.273  36.870  12.947
67168W        W33951  17.559  31.194   0.485
67169W        W33952  36.905   3.449  14.251
67170W        W33953  33.417  34.996   3.688
67171W        W33954  21.079  30.244   3.357
67172W        W33955  42.416  14.120   0.755
67173W        W33956  29.517   4.794  14.668
67174W        W33957  42.751  17.370  12.863
67175W        W33958  35.290   9.123  13.431
67176W        W33959  18.610  35.309   0.258
67177W        W33960  31.938  11.090  10.715
67178W        W33961  27.983   4.200   3.434
67179W        W33962  36.478  28.349  13.563
67180W        W33963  23.096  24.029  10.323
67181W        W33964  24.789   7.390   3.762
67182W        W33965  32.892   7.365  14.799
67183W        W33966  12.086  12.077   3.268
67184W        W33967  36.968  15.806   0.351
67185W        W33968   8.413   2.364   2.408
67186W        W33969  39.352  33.029   0.811
67187W        W33970  43.827  43.835   4.526
67188W        W33971  43.032  39.297   0.290
67189W        W33972  41.418  24.412   2.218
67190W        W33973  43.836  20.120  14.953
67191W        W33974  29.917  27.204   1.816
67192W        W33975  12.706  15.935  13.860
67193W        W33976  36.411  36.175   2.195
67194W        W33977   9.065  21.612  12.087
67195W        W33978  24.735   1.816   1.306
67196W        W33979  31.616  24.981   3.124
67197W        W33980  28.534  41.983   1.322
67198W        W33981  27.553  25.171   4.982
67199W        W33982  31.579   1.808   0.440
67200W        W33983   2.913   9.909  10.681
67201W        W33984  38.520  17.850   1.973
67202W        W33985  44.710  33.147   1.386
67203W        W33986   4.848  41.790   0.430
67204W        W33987  41.007  23.298  12.048
67205W        W33988  35.918  21.688   1.652
67206W        W33989  20.273   5.816   9.674
67207W        W33990  11.535  26.894   0.328
67208W        W33991  18.603   3.537  14.758
67209W        W33992  35.580  40.980   0.865
67210W        W33993  33.583  32.155  10.059
67211W        W33994   4.337   1.854   2.189
67212W        W33995  11.368   6.872   0.231
67213W        W33996   3.115  29.487   3.636
67214W        W33997  20.182  39.244  12.982
67215W        W33998   5.974  42.318   3.211
67216W        W33999  25.429  16.769   4.171
67217W        W34000  12.304  22.088  12.190
67218W        W34001   2.518  25.517  14.781
67219W        W34002  29.081  39.645   4.033
67220W        W34003  10.162  42.220  14.301
67221W        W34004  35.767  25.206   1.379
67222W        W34005  31.621  41.106   2.230
67223W        W34006   3.973  33.073   2.971
67224W        W34007  38.954   0.291   2.192
67225W        W34008  29.103  21.973  12.508
67226W        W34009  21.801   2.842  13.809
67227W        W34010  35.253  32.114  14.112
67228W        W34011  21.059  31.081  12.074
67229W        W34012  21.748  24.188   3.697
67230W        W34013  29.712  21.523   2.040
67231W        W34014   2.851  38.199   3.295
67232W        W34015   3.354  41.815  13.403
67233W        W34016   9.146  32.067  13.514
67234W        W34017  12.270  17.585   4.598
67235W        W34018  19.542  14.156   1.273
67236W        W34019  22.772  14.718  12.509
67237W        W34020  29.515  16.215   4.367
67238W        W34021  39.307  33.020  13.467
67239W        W34022   0.174  38.252  10.628
67240W        W34023  25.565  31.994  11.807
67241W        W34024  28.659  43.042  12.588
67242W        W34025   1.286   9.225  13.439
67243W        W34026   1.679  36.550  11.496
67244W        W34027  43.107  41.990  11.543
67245W        W34028  38.465  39.800   3.842
67246W        W34029  13.887   6.336   3.790
67247W        W34030  26.119  44.520  11.410
67248W        W34031  32.132  22.263   1.407
67249W        W34032   6.274   2.336   4.465
67250W        W34033   5.292  40.644  12.926
67251W        W34034   6.750  13.029  13.024
67252W        W34035   1.845  39.332   0.362
67253W        W34036   7.756  26.019  14.828
67254W        W34037  17.080  13.876   4.131
67255W        W34038  18.832   6.294  11.400
67256W        W34039  27.188  43.598  10.200
67257W        W34040  39.555  24.448   2.652
67258W        W34041  39.020   1.263   1.184
67259W        W34042  38.594  44.953   0.972
67260W        W34043  23.201  29.613   4.033
67261W        W34044  20.678  32.113   4.638
67262W        W34045  44.887  33.374   2.257
67263W        W34046   2.365  15.745   2.379
67264W        W34047  16.023   7.217   1.280
67265W        W34048  13.274  29.008   4.564
67266W        W34049  25.527  29.933   1.685
67267W        W34050  17.879   5.171   1.889
67268W        W34051   7.757  11.781  11.919
67269W        W34052   1.034   0.946  13.454
67270W        W34053  41.792  24.125   3.190
67271W        W34054  16.315  40.524  12.579
67272W        W34055  11.658   4.057  12.933
67273W        W34056  10.129  15.700  11.103
67274W        W34057   5.468  24.081  12.542
67275W        W34058   2.220  12.611  12.561
67276W        W34059  32.481  15.269  10.777
67277W        W34060  43.512  36.303  11.095
67278W        W34061   6.403  11.132   4.620
67279W        W34062   8.712  15.817   4.603
67280W        W34063  24.719  26.047  11.129
67281W        W34064  27.968  20.134   0.778
67282W        W34065  14.370   6.710  11.311
67283W        W34066  36.077   1.837  11.365
67284W        W34067  19.596  28.921   4.183
67285W        W34068  38.484  40.432   3.324
67286W        W34069  30.643  33.499  14.454
67287W        W34070   9.926  42.977  14.267
67288W        W34071  18.843  33.638  11.974
67289W        W34072  23.530  44.818  10.584
67290W        W34073  22.345  15.962  10.542
67291W        W34074  37.517   6.816   3.411
67292W        W34075  23.500   6.492   4.191
67293W        W34076  44.467   0.976  12.488
67294W        W34077   9.776  13.902   2.660
67295W        W34078  21.253  21.121  13.985
67296W        W34079   5.239   0.561   0.086
67297W        W34080  27.274  35.344  13.765
67298W        W34081  12.198   5.230  13.823
67299W        W34082   6.923  24.796  14.563
67300W        W34083   4.241  16.740   4.483
67301W        W34084  42.640  39.550   3.126
67302W        W34085  10.659  34.478   4.568
67303W        W34086  15.743  13.908   2.782
67304W        W34087   7.163   7.738   0.431
67305W        W34088  44.834  24.670  10.766
67306W        W34089  36.370  31.135   1.691
67307W        W34090  37.953  24.408  11.119
67308W        W34091  22.180  36.356  13.343
67309W        W34092  14.686  32.030   3.154
67310W        W34093  34.008  19.700   2.415
67311W        W34094   1.314  27.333   0.234
67312W        W34095  27.425  20.142  11.106
67313W        W34096   9.774  22.997   4.130
67314W        W34097  30.482  37.956   2.924
67315W        W34098  30.124  33.841   4.448
67316W        W34099   4.664  21.236  10.442
67317W        W34100  11.357  11.354  14.839
67318W        W34101  33.958  39.541   1.721
67319W        W34102  13.301  37.957   3.730
67320W        W34103  34.450   3.374  11.487
67321W        W34104  10.251  24.184   3.205
67322W        W34105  21.375   1.387   2.472
67323W        W34106   9.313  14.273  10.448
67324W        W34107  13.214  35.019  11.556
67325W        W34108  23.361  11.395  13.520
67326W        W34109  39.298  24.030   4.834
67327W        W34110  20.318  20.466  12.382
67328W        W34111   9.568  12.661  12.946
67329W        W34112  24.922  16.756   2.952
67330W        W34113  37.132  42.038  13.555
67331W        W34114   8.881  21.633  14.833
67332W        W34115  32.210  31.490  14.926
67333W        W34116  29.582  31.965   5.004
67334W        W34117  11.435   9.644   4.336
67335W        W34118  20.184   7.270  12.472
67336W        W34119  25.161  14.202   0.275
67337W        W34120  35.166   1.753   4.152
67338W        W34121   8.595  38.796   4.594
67339W        W34122  33.492   3.944  14.480
67340W        W34123  15.805  12.233  12.940
67341W        W34124  33.141  18.543  14.406
67342W        W34125   3.496  34.914  11.972
67343W        W34126  26.094  27.708  11.540
67344W        W34127   8.782  28.105   3.131
67345W        W34128  16.685  25.544  11.180
67346W        W34129   1.718  37.292  14.511
67347W        W34130  40.473  29.892   2.793
67348W        W34131  19.210  22.377  11.660
67349W        W34132  42.807  28.935  11.465
67350W        W34133   8.902  42.433  13.624
67351W        W34134   3.985   4.264  13.800
67352W        W34135  18.702   2.322   2.044
67353W        W34136  23.710  21.643  12.198
67354W        W34137  15.015  23.192  11.127
67355W        W34138   1.978  32.072   3.188
67356W        W34139  20.070   9.287   1.321
67357W        W34140   1.268  44.659   2.179
67358W        W34141  10.471   2.907   0.988
67359W        W34142  17.035  28.827  13.852
67360W        W34143  30.206  12.811   0.209
67361W        W34144  28.151  16.814  12.557
67362W        W34145  18.789  29.524  14.907
67363W        W34146  36.869  37.402  13.761
67364W        W34147  34.139  34.519   1.803
67365W        W34148  36.911   8.204   4.269
67366W        W34149  28.174   0.884   2.374
67367W        W34150  28.707  18.092   1.870
67368W        W34151  27.174  11.828   0.108
67369W        W34152  39.868   1.393  12.429
67370W        W34153  17.252   9.750   4.249
67371W        W34154  31.734  16.380  13.006
67372W        W34155  14.304  24.215   4.169
67373W        W34156  25.212  16.674  10.840
67374W        W34157  16.643  27.996   2.660
67375W        W34158  15.232  25.092   3.621
67376W        W34159  21.157   7.789   4.617
67377W        W34160  30.254  44.279  11.774
67378W        W34161  19.838  31.637   0.316
67379W        W34162   5.860  24.184  14.746
67380W        W34163  43.063   9.043   2.789
67381W        W34164  17.591  21.993  14.042
67382W        W34165   7.941   7.285  13.509
67383W        W34166   6.825  44.324   2.180
67384W        W34167  21.165   3.480  14.271
67385W        W34168  43.500  29.983   3.126
67386W        W34169  20.332  19.145  13.905
67387W        W34170  21.862  26.956   1.300
67388W        W34171  36.466  17.145  14.082
67389W        W34172   2.805   2.533   1.867
67390W        W34173   0.323  43.014  11.312
67391W        W34174  24.453  11.269  14.690
67392W        W34175  43.702  28.928  13.270
67393W        W34176  15.159  31.404  12.935
67394W        W34177  29.479   9.713  13.355
67395W        W34178  37.090  27.945  13.495
67396W        W34179  19.123  19.265  10.372
67397W        W34180  11.761  33.176  10.480
67398W        W34181  15.828  36.878   0.326
67399W        W34182  15.610  27.653   4.675
67400W        W34183  35.318  22.085   0.968
67401W        W34184  30.158   3.046  13.535
67402W        W34185  26.465  23.147   3.179
67403W        W34186  42.084  17.176  13.530
67404W        W34187  10.636  40.324  11.633
67405W        W34188  27.193   7.733   2.694
67406W        W34189  30.451  41.810   1.076
67407W        W34190  13.354  26.003  12.360
67408W        W34191  37.342  42.960  11.634
67409W        W34192  21.525  41.600  14.390
67410W        W34193  24.126  22.249  12.413
67411W        W34194   2.368   2.772  13.496
67412W        W34195  15.141  26.244   1.555
67413W        W34196  17.612  12.391  11.211
67414W        W34197  30.496  21.529   2.891
67415W        W34198  32.633  17.914   0.385
67416W        W34199  20.107  40.549   3.675
67417W        W34200  14.318  33.035  14.043
67418W        W34201  33.460   8.198   4.934
67419W        W34202  44.698   7.265   9.912
67420W        W34203  40.415   8.844  11.347
67421W        W34204  10.512  23.246  13.379
67422W        W34205  18.174   1.793  13.477
67423W        W34206  37.905  31.709   4.073
67424W        W34207  40.012  40.233   4.320
67425W        W34208  19.737  26.120  11.150
67426W        W34209  14.167   7.648  11.377
67427W        W34210  23.225   0.704   1.375
67428W        W34211  44.499  12.752  13.620
67429W        W34212   1.903   1.947   1.260
67430W        W34213  40.344   3.804   1.403
67431W        W34214  24.275  32.352  14.845
67432W        W34215   2.336  36.656   1.158
67433W        W34216  42.391  27.203  13.784
67434W        W34217   6.214   4.714  12.616
67435W        W34218  44.430  21.093  14.930
67436W        W34219  32.570   5.304   2.196
67437W        W34220   0.257  36.776  14.061
67438W        W34221  34.072  35.425  13.303
67439W        W34222  19.220  37.584   0.212
67440W        W34223   3.940  25.273  14.928
67441W        W34224  43.024  42.542  12.491
67442W        W34225  30.838   4.448  10.998
67443W        W34226  43.906  34.570  14.441
67444W        W34227  18.577   9.828  12.123
67445W        W34228   4.206   3.364   4.636
67446W        W34229  40.610  17.143  13.474
67447W        W34230   6.288   5.341   4.871
67448W        W34231  44.899   3.176  11.371
67449W        W34232  28.337   2.156  11.580
67450W        W34233  23.122  26.182   1.349
67451W        W34234  39.817  36.501  14.607
67452W        W34235  33.589  11.649   4.293
67453W        W34236   0.387  17.607  12.402
67454W        W34237  29.926  11.989  12.994
67455W        W34238  19.540  22.236   0.525
67456W        W34239  24.510  24.008  13.895
67457W        W34240  37.451  28.583   2.702
67458W        W34241  35.181  36.047   2.145
67459W        W34242  13.399  44.862   3.605
67460W        W34243  33.325   9.671  11.675
67461W        W34244  12.101  31.480  13.299
67462W        W34245   0.865   7.220   1.215
67463W        W34246  28.801  34.508  14.557
67464W        W34247  34.662  21.226  11.862
67465W        W34248  37.967  38.522  10.524
67466W        W34249  31.937  22.107  14.325
67467W        W34250  21.695  16.415   1.491
67468W        W34251  26.519  28.754   2.627
67469W        W34252  41.895   2.780  10.736
67470W        W34253  40.994  21.687  14.261
67471W        W34254  18.076  33.037  12.395
67472W        W34255  37.096  29.447   3.289
67473W        W34256  13.201  30.114   1.888
67474W        W34257  35.425   2.148  11.244
67475W        W34258  14.584  27.250   3.310
67476W        W34259  17.917  39.573   2.366
67477W        W34260  35.177  36.158  14.961
67478W        W34261   7.258  17.033  12.906
67479W        W34262  30.158   1.029  12.699
67480W        W34263  25.004   9.806  13.571
67481W        W34264  40.457  12.718  10.580
67482W        W34265  40.762   9.262   4.164
67483W        W34266  39.712   0.323  14.224
67484W        W34267  16.273  17.656  14.113
67485W        W34268  36.135  12.860  12.576
67486W        W34269  14.791  16.861  13.103
67487W        W34270  15.492  18.248  11.128
67488W        W34271  21.441  24.278   9.845
67489W        W34272  30.135  24.925   4.476
67490W        W34273  11.631  21.582  12.064
67491W        W34274  27.091  43.938  12.856
67492W        W34275  29.675  15.510   4.897
67493W        W34276  14.380  39.568  12.072
67494W        W34277  22.777  10.032  13.325
67495W        W34278  36.227  40.350   2.718
67496W        W34279  25.101  12.828  12.506
67497W        W34280  23.377  42.334   4.044
67498W        W34281  34.083   0.482  14.151
67499W        W34282  36.008  24.040   4.674
67500W        W34283  13.219  42.448   0.700
67501W        W34284  35.088  12.163  14.128
67502W        W34285   7.425   7.708   1.515
67503W        W34286  10.829  34.118   0.014
67504W        W34287  30.205  43.817   0.220
67505W        W34288  27.579  10.139   1.974
67506W        W34289   7.819  31.339   3.234
67507W        W34290  27.503  24.169   0.999
67508W        W34291  14.426  33.107  12.937
67509W        W34292  23.454  43.736   2.136
67510W        W34293  32.205   9.748   1.443
67511W        W34294  13.561  21.788   0.729
67512W        W34295  11.190  17.949  12.102
67513W        W34296  26.216  20.763  11.058
67514W        W34297  22.253  21.411  14.284
67515W        W34298  30.381   1.388  14.530
67516W        W34299  27.077  34.993   1.256
67517W        W34300  20.569  11.725   4.615
67518W        W34301  10.083   9.591  14.497
67519W        W34302   4.353  26.140   4.818
67520W        W34303  35.013  42.482  12.381
67521W        W34304   2.330   5.396   4.209
67522W        W34305  21.090  43.048  12.438
67523W        W34306  16.485   1.314  11.004
67524W        W34307  36.355  14.028  10.594
67525W        W34308  34.276  15.659   4.144
67526W        W34309  30.870  42.805   1.826
67527W        W34310   4.283  21.536   0.515
67528W        W34311  27.296  40.696  12.537
67529W        W34312  31.576  31.224   1.695
67530W        W34313  14.199  39.463   4.104
67531W        W34314  24.215  28.565   4.311
67532W        W34315   6.688   9.188   4.216
67533W        W34316  10.631  38.936   0.947
67534W        W34317  23.901  37.299  13.925
67535W        W34318  37.492   0.009   4.222
67536W        W34319  42.542   0.695   1.852
67537W        W34320  28.584  24.410   0.740
67538W        W34321  29.012  19.567   2.733
67539W        W34322  26.126  32.376   2.593
67540W        W34323  42.569  26.283   0.242
67541W        W34324  41.926   3.734  13.472
67542W        W34325   9.057  29.510   9.809
67543W        W34326  27.727   8.361   1.168
67544W        W34327  18.177  22.078   4.079
67545W        W34328  35.320  34.004   1.700
67546W        W34329  36.895  13.798  12.865
67547W        W34330  22.621  40.228  11.386
67548W        W34331   3.274  26.069   0.796
67549W        W34332  32.209  26.577   3.283
67550W        W34333  13.686   3.579  10.756
67551W        W34334   3.650   6.648  10.524
67552W        W34335  26.528  35.909   1.737
67553W        W34336  22.647  21.298  10.955
67554W        W34337  30.741   2.628  11.987
67555W        W34338  35.346  39.476   4.490
67556W        W34339  15.560   2.915  11.902
67557W        W34340   6.366  12.406   2.428
67558W        W34341  42.532  42.356   0.820
67559W        W34342  19.152  22.841  11.444
67560W        W34343  18.636  16.425   5.469
67561W        W34344  27.619  30.604   0.837
67562W        W34345   0.047   7.851   2.531
67563W        W34346  29.931  27.707  12.065
67564W        W34347  22.162  12.605   2.906
67565W        W34348   6.823   8.849   1.394
67566W        W34349   5.010  32.035   1.788
67567W        W34350  24.142  13.176  12.425
67568W        W34351  17.039   4.397  13.507
67569W        W34352   2.939  14.648  11.164
67570W        W34353  39.564  13.827  13.981
67571W        W34354  11.870  31.533   4.953
67572W        W34355  13.239   2.492   2.270
67573W        W34356  14.613  15.656  12.892
67574W        W34357  37.542  21.317   2.231
67575W        W34358  29.892   6.630   4.112
67576W        W34359  44.797  25.714  11.713
67577W        W34360  25.088   4.958  11.548
67578W        W34361   2.862   8.426   3.690
67579W        W34362   5.661  27.202  13.906
67580W        W34363   5.305  28.086   4.770
67581W        W34364  38.400  29.355  13.579
67582W        W34365  41.938  27.677  11.569
67583W        W34366  27.785  33.029  13.455
67584W        W34367  27.247  28.988   1.788
67585W        W34368  12.588  35.809   4.884
67586W        W34369  22.550  15.574   0.988
67587W        W34370  21.439   1.831  11.394
67588W        W34371  30.621  28.477   0.045
67589W        W34372   6.125  27.610  11.142
67590W        W34373  39.988   7.574   1.365
67591W        W34374   1.870  36.731   4.099
67592W        W34375  41.987   5.182   3.201
67593W        W34376  10.103  30.091   4.170
67594W        W34377   6.172  16.196  10.631
67595W        W34378  18.480  34.890   2.672
67596W        W34379  12.290  30.064   2.461
67597W        W34380  37.804  19.031   2.786
67598W        W34381  39.293   8.279   0.352
67599W        W34382  22.254  40.415  11.676
67600W        W34383  12.767  34.860  12.434
67601W        W34384  32.043   1.112  13.393
67602W        W34385   0.062  11.128   2.340
67603W        W34386  22.529  23.964   2.579
67604W        W34387   9.149   8.093  14.509
67605W        W34388  27.445  27.293   3.617
67606W        W34389  41.369  27.073   4.612
67607W        W34390  42.890  38.316   1.141
67608W        W34391  12.760  35.504  11.996
67609W        W34392  44.407  30.878   2.468
67610W        W34393  23.562  23.346  10.747
67611W        W34394  36.977   1.846   3.266
67612W        W34395   1.003  37.497  12.948
67613W        W34396  19.056  39.753  10.634
67614W        W34397  35.792  25.980   0.945
67615W        W34398  40.788   6.655  14.782
67616W        W34399  43.087  29.426  14.414
67617W        W34400  18.446  42.356   4.964
67618W        W34401   3.775  30.723   2.500
67619W        W34402  38.956   3.222   3.363
67620W        W34403  26.418  37.530  10.818
67621W        W34404  25.212  26.028   0.426
67622W        W34405  21.886  28.592   4.751
67623W        W34406   2.808   9.615  11.537
67624W        W34407  17.279  27.460   2.298
67625W        W34408   3.404  26.867  14.350
67626W        W34409  43.442  24.781   3.260
67627W        W34410  29.331   6.243  13.968
67628W        W34411  32.437  24.905   0.940
67629W        W34412  21.509  41.222  14.029
67630W        W34413  38.509  21.723   1.259
67631W        W34414  40.506  33.347   0.313
67632W        W34415   0.457  43.894   3.512
67633W        W34416  29.408   5.702  14.021
67634W        W34417  32.036  40.756  13.887
67635W        W34418  29.913   2.829  12.945
67636W        W34419  18.548  40.316  12.396
67637W        W34420  43.490   5.752  12.827
67638W        W34421  33.230  20.842   0.727
67639W        W34422  14.665   6.668   4.807
67640W        W34423   2.846  24.253  12.513
67641W        W34424  23.096  36.242   2.421
67642W        W34425  11.902  28.421  12.882
67643W        W34426  40.980   5.341   1.412
67644W        W34427   1.967  31.938  11.702
67645W        W34428  30.570  22.181  13.365
67646W        W34429  21.777  19.909   4.605
67647W        W34430  13.532  22.131   3.795
67648W        W34431  42.369  21.637  12.403
67649W        W34432  32.092  19.162  11.365
67650W        W34433  43.793  33.359   2.727
67651W        W34434  14.841  28.098   4.097
67652W        W34435  26.485   2.555   4.149
67653W        W34436   6.760   9.673   0.330
67654W        W34437  20.481  18.058  13.029
67655W        W34438   7.095  15.948   1.805
67656W        W34439  26.214  42.964   4.176
67657W        W34440   6.373  37.603   2.837
67658W        W34441  28.124  22.445  13.832
67659W        W34442   6.929  26.274  12.019
67660W        W34443   6.264  39.710   3.153
67661W        W34444  14.796  20.247  10.963
67662W        W34445   3.168  41.066  13.785
67663W        W34446  17.135  44.220  11.413
67664W        W34447  21.898  15.139   0.387
67665W        W34448  15.896  27.913  10.225
67666W        W34449   5.798  28.495   1.879
67667W        W34450  11.907  36.046   2.922
67668W        W34451  30.382   7.158   4.572
67669W        W34452  17.219   2.480   0.371
67670W        W34453   6.467  24.892   0.795
67671W        W34454  26.191  39.836  14.492
67672W        W34455  23.580  16.773   4.686
67673W        W34456  16.870   0.417   3.939
67674W        W34457  41.748  44.404   2.688
67675W        W34458  18.711  20.578  13.442
67676W        W34459  40.408  13.585   0.317
67677W        W34460  10.218  37.849   3.150
67678W        W34461  36.478   5.089  10.656
67679W        W34462  14.736  20.562   2.850
67680W        W34463  29.625  23.702   3.591
67681W        W34464  31.901  15.564   0.697
67682W        W34465  38.426   6.226  13.954
67683W        W34466  15.526  27.818   0.064
67684W        W34467  42.877  40.784  14.486
67685W        W34468  35.435  23.610   1.397
67686W        W34469  10.861  43.817   0.865
67687W        W34470  18.483  20.883  11.968
67688W        W34471  10.373  26.273   4.208
67689W        W34472  14.897   1.241  12.012
67690W        W34473  26.727   6.698  11.164
67691W        W34474   3.263  42.443  14.859
67692W        W34475  20.748   9.241  14.953
67693W        W34476  31.874  22.062  11.230
67694W        W34477  28.928  19.212  14.365
67695W        W34478  25.555  34.404   4.608
67696W        W34479   9.634  16.499   4.052
67697W        W34480  14.551  14.794   1.400
67698W        W34481  36.550  33.872  13.519
67699W        W34482  20.741  31.570   3.821
67700W        W34483   2.235  26.468  14.913
67701W        W34484  34.813   6.633   0.024
67702W        W34485  25.492  38.848   9.786
67703W        W34486   2.432  35.515  12.500
67704W        W34487  32.026  20.697   2.810
67705W        W34488  35.691  17.726  12.612
67706W        W34489  22.016   0.923   0.032
67707W        W34490  18.277  30.543  13.021
67708W        W34491  38.459  18.614   0.484
67709W        W34492  40.510  30.009   1.164
67710W        W34493  10.781   2.690  10.645
67711W        W34494  36.093  40.792   1.755
67712W        W34495  36.649   7.186   3.562
67713W        W34496   7.102   5.890   3.933
67714W        W34497   5.424  44.029   2.327
67715W        W34498  28.835  25.558  14.029
67716W        W34499  14.625  38.797   4.574
67717W        W34500   3.496   3.482  11.108
67718W        W34501  39.989   9.385   2.259
67719W        W34502  37.254  13.062  11.045
67720W        W34503  29.458  39.346  12.781
67721W        W34504  42.771   1.938  11.113
67722W        W34505  34.245  26.082   1.450
67723W        W34506  24.147  16.921  12.462
67724W        W34507  29.409  20.335   4.885
67725W        W34508  18.089  42.353   3.256
67726W        W34509   8.964  16.478  11.522
67727W        W34510   9.327  40.951  12.587
67728W        W34511  41.805  40.001  14.435
67729W        W34512  40.573  27.433   2.412
67730W        W34513  34.506   1.435  12.553
67731W        W34514   5.561   8.701   2.668
67732W        W34515  27.559  29.129   0.984
67733W        W34516   9.428  42.843  14.339
67734W        W34517  44.534  24.821   1.617
67735W        W34518  32.533  26.532  13.327
67736W        W34519  28.152  21.531   2.224
67737W        W34520  37.803   0.314   0.347
67738W        W34521  12.168  29.173   0.314
67739W        W34522  43.752  43.365   0.886
67740W        W34523  11.069  23.584   3.376
67741W        W34524   3.917  13.857  11.954
67742W        W34525  41.331  18.203   1.691
67743W        W34526  41.330  25.774  14.447
67744W        W34527  32.018  14.700  12.941
67745W        W34528  18.937  30.837  11.576
67746W        W34529  38.580  11.720  14.506
67747W        W34530  30.642  42.955   1.232
67748W        W34531  30.985  28.559  11.943
67749W        W34532  34.866  16.819  11.091
67750W        W34533   8.857  24.890  11.754
67751W        W34534  42.906  40.801   2.188
67752W        W34535  14.516  37.145   2.433
67753W        W34536  14.770  43.018   4.320
67754W        W34537  31.959   0.007   0.708
67755W        W34538   4.136   2.438  12.105
67756W        W34539  13.524  37.051   1.444
67757W        W34540  38.144  20.058  13.296
67758W        W34541  26.398  30.417  11.623
67759W        W34542  16.241  20.661  12.812
67760W        W34543  16.586   3.414  12.483
67761W        W34544  25.644  29.593   0.696
67762W        W34545  30.121  34.153  13.476
67763W        W34546  41.278  42.103  12.785
67764W        W34547  35.509  12.356   0.430
67765W        W34548  43.701  29.622   1.818
67766W        W34549  23.251   6.794  14.381
67767W        W34550  18.069  18.062   4.179
67768W        W34551  44.345  43.806  10.458
67769W        W34552  43.203  41.250   9.856
67770W        W34553  44.424  26.993   3.879
67771W        W34554   7.731  40.443  14.757
67772W        W34555  23.123  17.835   1.438
67773W        W34556  40.380  43.835  10.947
67774W        W34557  18.860  34.467  13.362
67775W        W34558  22.957   1.683   2.744
67776W        W34559  23.058  30.108   4.159
67777W        W34560  38.848  42.079   3.710
67778W        W34561  32.572   0.941  11.236
67779W        W34562  12.243  15.198  11.133
67780W        W34563   8.609  30.191  13.916
67781W        W34564  15.456  19.756  13.866
67782W        W34565  43.819  22.764  11.592
67783W        W34566  29.359  43.328   4.174
67784W        W34567  28.975   9.158  11.947
67785W        W34568  25.619  41.510   3.364
67786W        W34569  29.554  28.906   4.105
67787W        W34570  32.612   2.859   4.491
67788W        W34571  37.534  19.817   5.070
67789W        W34572  22.144  42.107  13.815
67790W        W34573   7.191  17.354   3.148
67791W        W34574   9.643  30.696  14.477
67792W        W34575  31.868  16.047   3.609
67793W        W34576  36.546  14.116  11.985
67794W        W34577  35.608  29.582  11.914
67795W        W34578   5.805  11.693   2.390
67796W        W34579  38.396  35.352   3.642
67797W        W34580  36.549   3.360  11.678
67798W        W34581  38.118  12.648  13.812
67799W        W34582  21.513   4.374  13.591
67800W        W34583  16.887  33.487  10.144
67801W        W34584  28.652  37.399   1.319
67802W        W34585  34.930  36.236  10.259
67803W        W34586  10.315  37.307   4.461
67804W        W34587   7.834  34.068   4.483
67805W        W34588   1.847  29.490   0.000
67806W        W34589  31.053  15.935   2.908
67807W        W34590  27.231  35.406  10.714
67808W        W34591   7.369  38.918  11.590
67809W        W34592  14.365  12.106   2.038
67810W        W34593  42.496  25.053  11.948
67811W        W34594   7.318   6.707  14.448
67812W        W34595   9.638  14.695   2.841
67813W        W34596   2.321  24.516   3.156
67814W        W34597  27.832  38.163  12.410
67815W        W34598  10.634   8.115   0.001
67816W        W34599  26.702  35.208   2.241
67817W        W34600  10.233  38.316  13.218
67818W        W34601   3.344  29.439   2.629
67819W        W34602  33.036  36.886  13.449
67820W        W34603  28.604  42.062   0.405
67821W        W34604  30.518  37.983  13.050
67822W        W34605  25.620  10.561  12.501
67823W        W34606  15.353  12.771   3.694
67824W        W34607  36.669  14.142   2.678
67825W        W34608  33.236  23.349  11.991
67826W        W34609   4.331   8.430  11.244
67827W        W34610  11.762  33.734   1.434
67828W        W34611  42.359   0.678   5.060
67829W        W34612  29.098  22.689   1.348
67830W        W34613  34.797  29.210  12.029
67831W        W34614  41.545  12.814   0.268
67832W        W34615  14.078   3.564  12.853
67833W        W34616  25.302  28.529  14.412
67834W        W34617  40.401  12.638  13.368
67835W        W34618  17.965  30.092  14.714
67836W        W34619  40.433  37.791   1.910
67837W        W34620  11.240  41.213  12.783
67838W        W34621  42.781  20.369  12.840
67839W        W34622  20.072   0.648  12.359
67840W        W34623  36.426  27.157   0.483
67841W        W34624  23.703  13.396   3.677
67842W        W34625  20.051   7.610  14.923
67843W        W34626   4.254  37.473  12.402
67844W        W34627   7.872   3.012   0.791
67845W        W34628  38.610  11.299   0.820
67846W        W34629   2.867  23.180   3.351
67847W        W34630  17.045  17.012   3.117
67848W        W34631   9.086  40.890  14.079
67849W        W34632  30.248  20.789  13.495
67850W        W34633  22.987  40.111  14.340
67851W        W34634  11.101  39.967  14.174
67852W        W34635   3.159   0.233  14.518
67853W        W34636  36.844  38.307   2.414
67854W        W34637   6.019   1.467  13.312
67855W        W34638   4.762  30.892   2.209
67856W        W34639  17.221  39.115  13.767
67857W        W34640  29.429  11.827  12.875
67858W        W34641  17.623  10.471   4.284
67859W        W34642   6.432  33.255  13.803
67860W        W34643  39.033  33.677  14.470
67861W        W34644  30.177  14.200   4.528
67862W        W34645  31.963  11.239  11.679
67863W        W34646  33.341   3.445  12.508
67864W        W34647  31.159  42.810  11.178
67865W        W34648  34.529  16.781  11.930
67866W        W34649  37.047  23.309  14.871
67867W        W34650  28.277  12.329   4.152
67868W        W34651  22.078  27.930  14.647
67869W        W34652  35.400   9.500   0.452
67870W        W34653  43.950  41.049  12.168
67871W        W34654   4.869  29.716  13.417
67872W        W34655  16.553   1.065   2.534
67873W        W34656  26.625  35.301   4.566
67874W        W34657   3.449  10.471  14.304
67875W        W34658  21.186  29.413   0.929
67876W        W34659  34.407  24.058   2.717
67877W        W34660  24.203  43.928   2.785
67878W        W34661  24.484  20.634   4.547
67879W        W34662  42.768  43.335   1.851
67880W        W34663  30.655  20.841   0.449
67881W        W34664   3.389   1.480   4.352
67882W        W34665   4.435  40.276  13.406
67883W        W34666  39.513  11.262  11.097
67884W        W34667  43.329  24.582  10.697
67885W        W34668  44.978  11.347   1.873
67886W        W34669  34.228  14.709  12.503
67887W        W34670   4.752  38.493  10.692
67888W        W34671  40.805   4.747   0.774
67889W        W34672  34.336   4.813  14.663
67890W        W34673   8.823  44.049   4.570
67891W        W34674   7.982  30.567   1.211
67892W        W34675   1.471  22.543  12.979
67893W        W34676  27.153  21.273  10.982
67894W        W34677  21.129  11.545   4.192
67895W        W34678  12.090  42.319   0.078
67896W        W34679  42.758   0.245   1.722
67897W        W34680  39.099  27.822   1.556
67898W        W34681  32.794  44.856  14.548
67899W        W34682   2.490  40.513   3.789
67900W        W34683  14.352   4.885   2.741
67901W        W34684   6.164   9.882  14.460
67902W        W34685   0.450  17.341   3.132
67903W        W34686  12.917  21.568   1.171
67904W        W34687   3.348  41.895   3.180
67905W        W34688  43.866  26.125  10.568
67906W        W34689  41.722  25.878   1.729
67907W        W34690  43.710   4.773  11.934
67908W        W34691  36.047  26.230   3.813
67909W        W34692  42.400  21.477  14.266
67910W        W34693  16.465  29.670  13.067
67911W        W34694  10.400  13.073  13.768
67912W        W34695  15.260  18.397   0.754
67913W        W34696  39.161  13.898  12.114
67914W        W34697  18.230  33.656  14.626
67915W        W34698  11.300  22.645  11.213
67916W        W34699  29.632  26.620   0.757
67917W        W34700  19.097   1.886   2.727
67918W        W34701  36.402  36.730  13.987
67919W        W34702  38.484  11.110  10.210
67920W        W34703  13.213  34.992   1.858
67921W        W34704  37.013  32.554   2.906
67922W        W34705   4.578  21.143   2.346
67923W        W34706  17.790  39.088  14.360
67924W        W34707  13.322  40.791   2.889
67925W        W34708  16.888   7.399  10.861
67926W        W34709  32.845  10.614  12.598
67927W        W34710  22.903  16.535   1.010
67928W        W34711   7.898  39.396   1.338
67929W        W34712  11.126   3.495  12.625
67930W        W34713  33.980  41.392  11.570
67931W        W34714  13.658   2.477   2.983
67932W        W34715  17.854  32.011   2.835
67933W        W34716  37.467  33.808   0.826
67934W        W34717   1.873  11.238   3.632
67935W        W34718  33.651  27.173  10.699
67936W        W34719  43.431  12.289   1.446
67937W        W34720  35.814  11.432   4.306
67938W        W34721  27.138  32.584  11.599
67939W        W34722  37.059  37.402  10.771
67940W        W34723   1.730   6.413  13.250
67941W        W34724   4.420  33.178  11.572
67942W        W34725   9.217  16.766   4.313
67943W        W34726   5.680  41.097   2.228
67944W        W34727  24.532   1.528  14.113
67945W        W34728  33.782   2.407   0.422
67946W        W34729  18.216   4.156  10.708
67947W        W34730  20.142  28.204   0.804
67948W        W34731  37.043  41.017   0.353
67949W        W34732  22.289  19.044  11.169
67950W        W34733   9.700   4.743  12.188
67951W        W34734  12.733  10.311  13.729
67952W        W34735  39.951  24.768   1.909
67953W        W34736  35.786   7.239  14.857
67954W        W34737   1.488  33.599   2.986
67955W        W34738  19.563  19.650  11.932
67956W        W34739  25.572  13.877   1.390
67957W        W34740  14.843  38.957   0.071
67958W        W34741  10.844   6.839  14.313
67959W        W34742  42.896  37.410   1.024
67960W        W34743  28.454  40.884  10.277
67961W        W34744   0.049   1.988   2.728
67962W        W34745   3.103   5.377  12.448
67963W        W34746  35.830  17.249   3.712
67964W        W34747  21.715  33.008  14.910
67965W        W34748  33.372   0.418  13.546
67966W        W34749  17.051  18.654   2.687
67967W        W34750  26.213  31.717  13.732
67968W        W34751  35.544  24.288   4.737
67969W        W34752  41.616  10.518  14.984
67970W        W34753  24.039  15.373  11.019
67971W        W34754  42.596  25.049  10.186
67972W        W34755   1.920  25.057   0.772
67973W        W34756   3.878   0.314   2.646
67974W        W34757  39.131   0.522   4.294
67975W        W34758  38.981  34.885   3.597
67976W        W34759   4.287  38.520  10.869
67977W        W34760  24.121  18.491   3.799
67978W        W34761  14.770  12.276  10.669
67979W        W34762  36.671  12.656  14.984
67980W        W34763  40.051  14.242  12.133
67981W        W34764  44.959  24.106   0.882
67982W        W34765  28.960   3.354   0.341
67983W        W34766  12.713  24.162   0.608
67984W        W34767  44.594  13.106   5.170
67985W        W34768  42.975   6.614  14.472
67986W        W34769  15.277  17.120   4.854
67987W        W34770  41.318  32.596  11.573
67988W        W34771  35.915  32.392   4.548
67989W        W34772  22.288  28.065  13.229
67990W        W34773  41.222  24.236   0.383
67991W        W34774  19.650  36.507  11.980
67992W        W34775  12.700   2.025  10.974
67993W        W34776  15.273   3.820  11.612
67994W        W34777  33.735   5.902  10.859
67995W        W34778   2.994   0.950  13.012
67996W        W34779  24.874  13.421   0.311
67997W        W34780  36.919  43.834   4.630
67998W        W34781  26.567  19.778  14.525
67999W        W34782  23.976  21.196  13.184
68000W        W34783  30.437  26.290  12.380
68001W        W34784  34.397   9.180   3.739
68002W        W34785  25.850  37.713   4.245
68003W        W34786  16.874  41.510   0.920
68004W        W34787   0.842  18.660   3.639
68005W        W34788   5.236   9.289  14.103
68006W        W34789  31.604  26.466  14.988
68007W        W34790  43.757  31.157  12.086
68008W        W34791  43.474  25.161   5.152
68009W        W34792  18.559  13.305   0.872
68010W        W34793  33.616  39.872   4.155
68011W        W34794  20.030  36.764   3.017
68012W        W34795   3.694  36.849   1.794
68013W        W34796  38.064  17.103   4.437
68014W        W34797   9.324  21.054   1.776
68015W        W34798  16.232  21.953  10.293
68016W        W34799  23.737  15.742   4.215
68017W        W34800   5.384   6.927   2.642
68018W        W34801  36.490  27.427   4.440
68019W        W34802  21.618  18.756   0.795
68020W        W34803  13.981  20.442  10.975
68021W        W34804  43.780  31.576  12.947
68022W        W34805   8.320  10.714   2.650
68023W        W34806  25.706  29.618  13.411
68024W        W34807  18.906  28.960  14.347
68025W        W34808  14.349  14.174  10.589
68026W        W34809  17.305  18.485   0.600
68027W        W34810  35.146  44.810   1.339
68028W        W34811   8.756   6.425   3.496
68029W        W34812   1.246  28.496  11.159
68030W        W34813  26.419  38.871  11.178
68031W        W34814  40.548  31.829   1.258
68032W        W34815  14.056  37.835   2.042
68033W        W34816  20.262  13.796   2.811
68034W        W34817  25.523  18.297   4.572
68035W        W34818  16.786  41.694   1.392
68036W        W34819  17.609  38.699   3.672
68037W        W34820  20.744  36.888   0.251
68038W        W34821   6.792  44.379   4.135
68039W        W34822  32.344  36.924  11.604
68040W        W34823  31.493  20.962  12.988
68041W        W34824  29.611  21.987  11.997
68042W        W34825  19.499   4.420   3.359
68043W        W34826  33.339  28.410  12.144
68044W        W34827   6.395  43.032  12.118
68045W        W34828   6.916   1.635   0.681
68046W        W34829   3.086  26.956   2.690
68047W        W34830   2.708   4.870   4.166
68048W        W34831  43.715  41.155   4.305
68049W        W34832  26.958  42.002   1.325
68050W        W34833  28.375  40.512  12.635
68051W        W34834  37.060  10.770  14.364
68052W        W34835   4.845  27.836  13.123
68053W        W34836  16.552   2.216  10.647
68054W        W34837   3.329  25.658   4.783
68055W        W34838  19.649  11.300   3.626
68056W        W34839  42.429   9.087   2.909
68057W        W34840   6.704   0.237   1.134
68058W        W34841  16.610  29.983   3.550
68059W        W34842  30.355  10.824   1.235
68060W        W34843  25.519   9.466   0.474
68061W        W34844  21.124  19.448  12.935
68062W        W34845   6.325  44.941   0.917
68063W        W34846  15.094  26.230  11.648
68064W        W34847  36.638  13.021  12.520
68065W        W34848   0.831  30.400  12.982
68066W        W34849  44.920  14.492   5.420
68067W        W34850  16.457  18.978  14.268
68068W        W34851  42.473  37.364   4.925
68069W        W34852  29.377  27.070  10.425
68070W        W34853  12.385  27.116   3.310
68071W        W34854  25.554  19.252   4.381
68072W        W34855  14.049   9.490  11.559
68073W        W34856  14.335  10.738   0.384
68074W        W34857  35.522  38.053  12.579
68075W        W34858  25.673  11.696  13.263
68076W        W34859  13.275  40.509  13.042
68077W        W34860  18.332   2.194  14.060
68078W        W34861  10.461  27.624   0.700
68079W        W34862   0.071  28.129  11.003
68080W        W34863  17.553  41.223   1.824
68081W        W34864  41.944  38.869   2.292
68082W        W34865  10.598  21.719   3.264
68083W        W34866  16.844  23.126  14.258
68084W        W34867  12.027  37.501   4.387
68085W        W34868  21.703  14.149   2.133
68086W        W34869  10.927  43.301  12.936
68087W        W34870  17.510  36.643  11.957
68088W        W34871  29.208  27.205  11.118
68089W        W34872  20.903  13.746  11.135
68090W        W34873   1.256  36.088   2.555
68091W        W34874  15.161  17.751   0.054
68092W        W34875  36.314  32.643  13.009
68093W        W34876  26.631  12.094   2.399
68094W        W34877  30.383  39.214   5.008
68095W        W34878  20.286  22.380  13.475
68096W        W34879  10.182  35.781  10.614
68097W        W34880  24.135  20.494   3.567
68098W        W34881  13.759  31.919  11.876
68099W        W34882  29.951  10.729  12.955
68100W        W34883   0.343  31.787   2.889
68101W        W34884  43.284  12.946   2.836
68102W        W34885  17.372  21.880  14.505
68103W        W34886  19.423   4.999  10.238
68104W        W34887  14.409  30.140  13.984
68105W        W34888  34.056  36.826   2.188
68106W        W34889  34.065  20.184  12.869
68107W        W34890  32.924   3.413   2.023
68108W        W34891   2.781  31.987  11.202
68109W        W34892  12.587  20.522   2.763
68110W        W34893   3.894  30.189  14.474
68111W        W34894   2.542  31.120  14.799
68112W        W34895   6.992  17.895  14.447
68113W        W34896   3.252  19.343   4.154
68114W        W34897  36.407  12.416   3.176
68115W        W34898  25.563   9.798   0.879
68116W        W34899   1.013  21.848  13.807
68117W        W34900  38.841  18.349  14.896
68118W        W34901  10.781  31.414  11.102
68119W        W34902  17.013  33.313   2.147
68120W        W34903  25.251   8.642   1.776
68121W        W34904   3.240  36.539  12.481
68122W        W34905   8.300  35.059   1.603
68123W        W34906  28.583  19.368  13.994
68124W        W34907  39.275  36.535   0.504
68125W        W34908   9.225   6.372   1.871
68126W        W34909  43.980  16.239   2.757
68127W        W34910  24.170  25.801  12.456
68128W        W34911  32.563  42.047  12.504
68129W        W34912  14.211  25.660  11.128
68130W        W34913   6.775  27.538   0.289
68131W        W34914  28.215  15.680   0.404
68132W        W34915  28.930  14.165  13.216
68133W        W34916  39.049  44.167  11.141
68134W        W34917  30.927  34.197   1.789
68135W        W34918  14.480   7.926  13.158
68136W        W34919  43.451  15.001   3.587
68137W        W34920  19.867  22.472  11.626
68138W        W34921  18.732  19.822   4.224
68139W        W34922   6.737   5.177   3.636
68140W        W34923  12.798  30.199   0.815
68141W        W34924  31.460  13.820   4.795
68142W        W34925  34.554  19.066   0.061
68143W        W34926  38.846  35.493   3.395
68144W        W34927  18.969  37.983   4.777
68145W        W34928   4.731  11.108   1.348
68146W        W34929  38.214  10.856   2.773
68147W        W34930   7.258  18.397  14.511
68148W        W34931  18.220  40.522  11.516
68149W        W34932  35.574  31.159   3.670
68150W        W34933   9.425  26.146   0.510
68151W        W34934  26.152  29.491   0.745
68152W        W34935  33.364  22.629  13.153
68153W        W34936  44.854  37.966  14.083
68154W        W34937  28.729  35.087   1.890
68155W        W34938   0.701  13.086   1.792
68156W        W34939  36.314  31.480  14.950
68157W        W34940  11.688  10.339   4.078
68158W        W34941  11.389  23.406   2.390
68159W        W34942  38.577  28.738  12.523
68160W        W34943   1.813   4.229   4.371
68161W        W34944  26.065   0.268  12.951
68162W        W34945  23.007  11.905   3.315
68163W        W34946   0.711   2.204  11.544
68164W        W34947  43.783  28.110   3.211
68165W        W34948  17.137  35.387  14.315
68166W        W34949  23.107  21.178   3.442
68167W        W34950  32.324   6.743   2.103
68168W        W34951  20.529  29.064   1.461
68169W        W34952  21.561  43.520  13.525
68170W        W34953  35.625  30.890  14.281
68171W        W34954  42.433   8.910   0.091
68172W        W34955   5.963   9.874   3.097
68173W        W34956  18.527  38.172  14.517
68174W        W34957  18.205   2.193   1.846
68175W        W34958  19.173  11.576   2.035
68176W        W34959   0.689  42.293   0.455
68177W        W34960  16.051  15.413   4.850
68178W        W34961  16.580   2.289   1.766
68179W        W34962   9.684  31.441   3.060
68180W        W34963  30.474  34.414   2.004
68181W        W34964   2.906   5.241   4.935
68182W        W34965  23.989   7.145   2.752
68183W        W34966  17.070  40.507   2.000
68184W        W34967  40.001  29.092   1.268
68185W        W34968  23.049   2.335   1.082
68186W        W34969   8.946  10.702   0.516
68187W        W34970  23.101  38.065  10.947
68188W        W34971  13.330  13.708   0.715
68189W        W34972  19.114  20.603  13.018
68190W        W34973   3.718  39.985   4.465
68191W        W34974  19.257  36.875   1.328
68192W        W34975  41.464  30.910  12.896
68193W        W34976  12.349  30.518   3.985
68194W        W34977  19.054  24.297  10.686
68195W        W34978  22.606  13.866   5.023
68196W        W34979  18.376  16.550  13.948
68197W        W34980  39.752  38.837  11.163
68198W        W34981  16.771  11.703   0.310
68199W        W34982  14.063  44.250  13.518
68200W        W34983  13.999  23.948  14.341
68201W        W34984  44.676  21.922  13.405
68202W        W34985  17.030   0.636  13.968
68203W        W34986   7.360  17.150   0.205
68204W        W34987  39.284  24.967  12.965
68205W        W34988  14.894  23.298  13.373
68206W        W34989  34.086  30.377   3.616
68207W        W34990   5.208  25.715  13.978
68208W        W34991  33.846  20.378  12.426
68209W        W34992  40.422   8.668   0.296
68210W        W34993  15.661  27.949  11.733
68211W        W34994   4.241  12.192  11.896
68212W        W34995   5.403   2.900   4.623
68213W        W34996  33.912  26.546   3.628
68214W        W34997  38.101   4.976   4.073
68215W        W34998  43.042   6.127   3.227
68216W        W34999  39.113   2.256   5.109
68217W        W35000  40.692  36.268   0.334
68218W        W35001   3.284  31.453   2.729
68219W        W35002  24.995   2.504  11.143
68220W        W35003  29.094  29.971   4.912
68221W        W35004  36.439   8.830   2.629
68222W        W35005  16.778  19.793   3.679
68223W        W35006  39.411  25.146   0.436
68224W        W35007   6.175   0.929   3.704
68225W        W35008   5.461   0.367   0.584
68226W        W35009  26.960  12.309  13.453
68227W        W35010  31.178  36.031   1.634
68228W        W35011  18.564  28.035  14.585
68229W        W35012  40.742  23.778   2.280
68230W        W35013   2.259   9.751  12.950
68231W        W35014  31.814  27.485  11.527
68232W        W35015  26.512  34.416  14.339
68233W        W35016  14.461  15.938   5.087
68234W        W35017  22.254  38.742   0.595
68235W        W35018  30.391  26.282  11.877
68236W        W35019   9.427   2.263  12.829
68237W        W35020  43.338  40.079   1.276
68238W        W35021  16.836  38.547   0.429
68239W        W35022  37.422   5.647  12.136
68240W        W35023  12.228  36.384   2.693
68241W        W35024  23.282  38.329   0.872
68242W        W35025  23.213  10.261   2.377
68243W        W35026  13.819  14.765  11.442
68244W        W35027  10.033   6.770   5.553
68245W        W35028  24.552  36.833  11.902
68246W        W35029  43.213   6.435   4.544
68247W        W35030  13.214  31.096  13.927
68248W        W35031  20.432   5.622  11.776
68249W        W35032  44.645  22.565   1.916
68250W        W35033   3.727   8.349  12.973
68251W        W35034  20.090  24.057   1.416
68252W        W35035  41.675   1.487  14.551
68253W        W35036  37.384  28.895  14.931
68254W        W35037  42.299  15.379   3.264
68255W        W35038  41.908  17.593  14.464
68256W        W35039  12.192  26.076   0.217
68257W        W35040  29.821   6.402  14.018
68258W        W35041   0.048  35.497  11.421
68259W        W35042  10.860  16.380   0.169
68260W        W35043  26.572  12.207  11.190
68261W        W35044  27.178  31.432  11.999
68262W        W35045  38.475  11.282  12.890
68263W        W35046  44.978  20.122   1.864
68264W        W35047  19.882   8.194  11.220
68265W        W35048  42.522  16.206   1.310
68266W        W35049  36.617   3.734  14.962
68267W        W35050  15.614  11.237   0.345
68268W        W35051   6.770  36.926   0.707
68269W        W35052  12.262  26.397   1.931
68270W        W35053  21.982  35.808  11.185
68271W        W35054  42.400   6.678  12.464
68272W        W35055  31.221  34.593  11.164
68273W        W35056  22.122   7.667   3.331
68274W        W35057  33.584  18.101   4.251
68275W        W35058  37.689   4.811   4.998
68276W        W35059  23.343  14.645   2.117
68277W        W35060  26.666  26.691   0.681
68278W        W35061  13.703   3.695  13.355
68279W        W35062   3.702  14.118   1.467
68280W        W35063  20.013  21.721  11.486
68281W        W35064  44.514  24.170   4.737
68282W        W35065  35.055   8.224   3.562
68283W        W35066   5.295   7.195  13.543
68284W        W35067   1.249  44.788   0.294
68285W        W35068  25.489  38.860   4.406
68286W        W35069  10.364   2.691   3.919
68287W        W35070  37.164   2.699   3.852
68288W        W35071   4.816  10.744   3.942
68289W        W35072   4.350  31.599   4.672
68290W        W35073   1.839  26.867   3.270
68291W        W35074  36.455  15.821  14.445
68292W        W35075  42.941  15.746   3.587
68293W        W35076  31.012   3.180   3.658
68294W        W35077  39.965  41.551  10.782
68295W        W35078   3.987  18.223  13.979
68296W        W35079  41.032   3.111  11.172
68297W        W35080  28.922  39.612  12.566
68298W        W35081  41.519  32.212   1.240
68299W        W35082  44.896   3.348  12.307
68300W        W35083  39.603  23.748  11.151
68301W        W35084  14.720   1.259  13.445
68302W        W35085  32.560  30.272  11.522
68303W        W35086   9.179  42.268  12.202
68304W        W35087  10.727  34.231  10.841
68305W        W35088  29.876  23.777  12.101
68306W        W35089  30.346  30.177  14.951
68307W        W35090  13.851  11.088  12.493
68308W        W35091  41.109  16.252  13.089
68309W        W35092  12.041   2.923  13.915
68310W        W35093  34.548  29.728   2.868
68311W        W35094  40.014  23.063  12.105
68312W        W35095  24.814  28.177   2.651
68313W        W35096  35.287  44.336   1.665
68314W        W35097  35.344  38.069   4.061
68315W        W35098  38.516  23.669   1.325
68316W        W35099  27.616  30.869  13.514
68317W        W35100   8.300  33.971   3.639
68318W        W35101   6.241   9.355  14.524
68319W        W35102  18.475  26.939  14.852
68320W        W35103  20.599   7.339  12.097
68321W        W35104  15.346   5.703  14.440
68322W        W35105  22.083   2.375  14.549
68323W        W35106  25.201  32.140   1.853
68324W        W35107   9.345  23.249   4.360
68325W        W35108  16.023  29.414   1.778
68326W        W35109  23.131  39.932   0.048
68327W        W35110  41.020  44.017   1.386
68328W        W35111  27.579  13.542   4.267
68329W        W35112  28.959   8.809  14.714
68330W        W35113  10.314   7.444   0.370
68331W        W35114  41.423  12.084   2.251
68332W        W35115  17.067   1.146  14.015
68333W        W35116  32.437  27.222  12.045
68334W        W35117  26.473  31.655   4.553
68335W        W35118  28.918  21.174   5.049
68336W        W35119  36.280   3.898  10.592
68337W        W35120  36.393  11.550  13.357
68338W        W35121  33.088  35.411   3.162
68339W        W35122   0.105   2.788   4.143
68340W        W35123  29.542  41.300   0.708
68341W        W35124  35.187  18.779   3.246
68342W        W35125  28.987   0.190   0.498
68343W        W35126  42.008  37.142  10.839
68344W        W35127  40.526  15.681  12.933
68345W        W35128  14.083   2.336   0.861
68346W        W35129  23.961  32.506  10.978
68347W        W35130   8.811  40.151  14.799
68348W        W35131  42.901  39.307   2.168
68349W        W35132  22.957  15.974  12.712
68350W        W35133  23.759  35.484  10.621
68351W        W35134  30.655   5.813   2.598
68352W        W35135  17.146  30.669  14.422
68353W        W35136   6.635  44.028   2.873
68354W        W35137  26.863  24.056   3.288
68355W        W35138   2.101  34.057  13.503
68356W        W35139   1.682  26.581  11.509
68357W        W35140  24.986  31.895  13.384
68358W        W35141  37.052  23.637  11.501
68359W        W35142  25.123  10.080   1.850
68360W        W35143  42.085  25.685   4.165
68361W        W35144  25.533   2.179   5.003
68362W        W35145   6.701  33.895  14.631
68363W        W35146  13.311  17.690   1.961
68364W        W35147   4.453   9.370  11.698
68365W        W35148  41.267  20.222   3.791
68366W        W35149  20.457   7.096  10.858
68367W        W35150  29.075  43.535   0.678
68368W        W35151  23.283  11.674   1.911
68369W        W35152  36.686  28.859  11.543
68370W        W35153  21.985  31.193  12.556
68371W        W35154  34.487  11.223   4.297
68372W        W35155  21.936  17.554  10.882
68373W        W35156  18.620  39.136  14.865
68374W        W35157  19.193  26.175  14.343
68375W        W35158  22.288  37.335   2.268
68376W        W35159  10.575   3.172   3.541
68377W        W35160  21.973  35.620   0.070
68378W        W35161   4.167  25.436  12.890
68379W        W35162  41.738   1.450  13.899
68380W        W35163   7.813  31.425  12.921
68381W        W35164   9.312  28.675  10.418
68382W        W35165  28.965  25.323   3.254
68383W        W35166  10.643  36.001  10.953
68384W        W35167  22.222   9.494   2.741
68385W        W35168  10.253  19.112   0.629
68386W        W35169   2.662  20.291   4.627
68387W        W35170  40.343  29.472  12.556
68388W        W35171  21.583  12.894  11.873
68389W        W35172  21.170   8.010  11.120
68390W        W35173   4.783  42.327  10.924
68391W        W35174  28.015  13.688   3.150
68392W        W35175  12.141  17.589  12.928
68393W        W35176  32.530   0.951   3.082
68394W        W35177  44.422  35.804  11.941
68395W        W35178   6.620  18.494   0.302
68396W        W35179  40.877  39.921   2.178
68397W        W35180   0.680   0.506  13.454
68398W        W35181   6.258  36.822   3.216
68399W        W35182  18.605  22.765  12.489
68400W        W35183  22.584  10.277   4.603
68401W        W35184  30.823  23.178   1.225
68402W        W35185  32.829   3.069   3.398
68403W        W35186  17.212  41.876   4.293
68404W        W35187   7.228  17.600  14.035
68405W        W35188  38.560  43.233  13.367
68406W        W35189  29.499  27.611  13.600
68407W        W35190  13.545   2.307   0.897
68408W        W35191  29.186  42.319  11.929
68409W        W35192  22.008   4.792   1.333
68410W        W35193  24.261  30.959  14.924
68411W        W35194  41.533  42.846  14.781
68412W        W35195  30.217  22.054   1.770
68413W        W35196   6.312  38.086   2.692
68414W        W35197  12.687   2.357   1.168
68415W        W35198  24.884  41.675  10.653
68416W        W35199  23.444  20.783  14.092
68417W        W35200  30.000  41.838  13.402
68418W        W35201  17.184   8.811  11.545
68419W        W35202  17.070   0.020  12.899
68420W        W35203  17.217   1.008  11.032
68421W        W35204  43.843  23.359  14.331
68422W        W35205  44.159  36.586   0.654
68423W        W35206  22.573  13.293  13.264
68424W        W35207  14.082  14.424   4.490
68425W        W35208   9.559  44.689   4.161
68426W        W35209  13.488  14.772  10.467
68427W        W35210  32.036  27.509  11.997
68428W        W35211  15.203  17.096   3.374
68429W        W35212  38.838   5.959  13.152
68430W        W35213   4.226  13.917   4.808
68431W        W35214   6.987   8.486   1.031
68432W        W35215  36.319  43.791   0.277
68433W        W35216  10.104   3.467  11.558
68434W        W35217  10.198  16.396  10.564
68435W        W35218  26.694   3.753   0.440
68436W        W35219  41.877   4.170  11.378
68437W        W35220   6.263  40.938   4.579
68438W        W35221  30.043  36.756   3.136
68439W        W35222  19.249  14.517   0.517
68440W        W35223  31.894  41.578   1.709
68441W        W35224  11.524  26.622  11.257
68442W        W35225  28.054   4.244   0.344
68443W        W35226   8.946  26.646  11.516
68444W        W35227  16.007  22.972   3.184
68445W        W35228  24.837   0.841  12.451
68446W        W35229  33.980   2.940   1.289
68447W        W35230  24.998  44.454   4.817
68448W        W35231  40.458  13.099  14.460
68449W        W35232  40.383  11.624   3.323
68450W        W35233  29.643   1.809  12.775
68451W        W35234  38.459  16.581   1.399
68452W        W35235  33.978  18.063  12.086
68453W        W35236  19.784  35.821  11.229
68454W        W35237  37.242   1.884  13.121
68455W        W35238  18.111  32.917   4.760
68456W        W35239  28.624   4.170  12.498
68457W        W35240   4.043   9.551   0.065
68458W        W35241  40.856  10.662  13.933
68459W        W35242  27.066  24.909  11.510
68460W        W35243  13.259   4.539  12.529
68461W        W35244  22.344  38.627   2.669
68462W        W35245   9.367   1.814   0.998
68463W        W35246  13.049  42.375  13.065
68464W        W35247  16.035  17.252   3.173
68465W        W35248  40.853  20.737   3.172
68466W        W35249  19.960  36.548   0.739
68467W        W35250  38.471  14.995  11.450
68468W        W35251   3.420  42.823  13.451
68469W        W35252  14.548  19.178  11.652
68470W        W35253  18.500  10.235   1.003
68471W        W35254  21.718   8.148  13.038
68472W        W35255   8.022   1.945   3.343
68473W        W35256  22.113  16.712   2.354
68474W        W35257  30.438   3.676   4.706
68475W        W35258  25.020  16.161   4.831
68476W        W35259  15.432   8.823   0.311
68477W        W35260   8.222   0.515  11.741
68478W        W35261   5.741  18.767   1.938
68479W        W35262  14.365  16.567  10.566
68480W        W35263   5.960  15.745   0.429
68481W        W35264  16.712  41.844   3.579
68482W        W35265  34.326  12.167  10.787
68483W        W35266  28.460  21.049   4.311
68484W        W35267   0.954  30.653   0.458
68485W        W35268  32.310  19.577  12.453
68486W        W35269  34.355  32.502  14.862
68487W        W35270   8.882  15.945   3.776
68488W        W35271  29.296  32.907  11.219
68489W        W35272  40.162   6.478   2.453
68490W        W35273  38.467  20.792   1.307
68491W        W35274   9.914  30.908   3.639
68492W        W35275  38.510  13.138  11.495
68493W        W35276  24.609  27.388  11.896
68494W        W35277  11.904  35.594  10.546
68495W        W35278  28.055   1.814   4.558
68496W        W35279  42.970  44.258   3.310
68497W        W35280  15.700  25.454   2.645
68498W        W35281  20.046  26.484   3.654
68499W        W35282   2.844  28.674   0.702
68500W        W35283  25.026  23.136   1.383
68501W        W35284  17.859  23.780  12.003
68502W        W35285  33.013  27.062  14.670
68503W        W35286  41.078  28.566  12.887
68504W        W35287  28.200  11.419  11.067
68505W        W35288  21.542   8.678  12.410
68506W        W35289  34.014  37.453   4.549
68507W        W35290   3.698   9.854   3.329
68508W        W35291  22.454  19.359  14.438
68509W        W35292  38.338  34.654  11.749
68510W        W35293   9.620  35.516  11.192
68511W        W35294  22.673  33.394   3.522
68512W        W35295  44.057  38.839  14.030
68513W        W35296  34.292   8.392  12.389
68514W        W35297  28.429   5.538  13.369
68515W        W35298  34.368  20.314   1.411
68516W        W35299  13.087  32.884   4.098
68517W        W35300  40.121  31.151   0.229
68518W        W35301  38.805   2.795  10.594
68519W        W35302  37.050  41.988  11.667
68520W        W35303   7.721  12.693  12.460
68521W        W35304  36.029   9.172   4.534
68522W        W35305  29.292  21.475   0.562
68523W        W35306  38.395  35.352   1.761
68524W        W35307   5.340  14.864  13.513
68525W        W35308  22.526   3.925   4.726
68526W        W35309   7.729  26.166  12.573
68527W        W35310  32.012  12.304  13.415
68528W        W35311  15.085  23.312   0.328
68529W        W35312   7.219  29.537  13.601
68530W        W35313   7.245   5.375  12.236
68531W        W35314  16.135  27.474  14.789
68532W        W35315  21.374  11.156  13.119
68533W        W35316  20.304  33.391   4.855
68534W        W35317  14.341  28.956  13.344
68535W        W35318  11.291  42.894  12.132
68536W        W35319  43.996  28.492  12.307
68537W        W35320  35.512  11.072  10.728
68538W        W35321  38.469  34.683  11.209
68539W        W35322  41.316  42.387  14.954
68540W        W35323  29.450  23.660  12.461
68541W        W35324  32.314  27.126   0.242
68542W        W35325  23.695  18.683   4.978
68543W        W35326   2.862   2.348  10.682
68544W        W35327  41.388  18.383  13.338
68545W        W35328  20.413   9.440   4.463
68546W        W35329  12.329  40.263  11.012
68547W        W35330  11.144   4.181   2.567
68548W        W35331  26.658  30.219   3.875
68549W        W35332  42.892  25.261  13.442
68550W        W35333  24.995  26.642   0.431
68551W        W35334  28.915  15.130   3.794
68552W        W35335  34.246  29.257  14.136
68553W        W35336  25.286  34.094  10.726
68554W        W35337  38.915   7.255   4.124
68555W        W35338  22.639  21.292  14.592
68556W        W35339  19.640  35.666  10.406
68557W        W35340  39.052  18.015   2.307
68558W        W35341  16.125  31.279  12.841
68559W        W35342  29.926  41.432   2.765
68560W        W35343  41.040  17.579  11.079
68561W        W35344   9.075   3.440  11.677
68562W        W35345  40.827  30.544  10.660
68563W        W35346  42.868  30.858   4.440
68564W        W35347  14.332  17.430   3.465
68565W        W35348  35.701   0.219   0.705
68566W        W35349  33.394   1.769   4.083
68567W        W35350   7.934   6.851  12.548
68568W        W35351  10.245   0.021   1.773
68569W        W35352  19.021  21.287   1.382
68570W        W35353  28.662  15.703  10.587
68571W        W35354  24.919   5.186   3.217
68572W        W35355  28.437  40.113   9.780
68573W        W35356  15.142  34.013   0.705
68574W        W35357  20.017  19.644   0.289
68575W        W35358  25.301   6.890   4.099
68576W        W35359  16.812  44.454  11.044
68577W        W35360  35.052   9.954  11.041
68578W        W35361  22.644  28.850   4.103
68579W        W35362  13.118   1.411  14.870
68580W        W35363  35.120  12.407  11.142
68581W        W35364  37.055  14.533  12.488
68582W        W35365  31.745  42.944   0.802
68583W        W35366  32.332  19.789  13.326
68584W        W35367  19.650   5.347   0.172
68585W        W35368  42.703   4.935  13.555
68586W        W35369  30.585  31.140   3.044
68587W        W35370  20.481   4.665  10.658
68588W        W35371  26.906  21.006  12.404
68589W        W35372  38.137  17.165   3.921
68590W        W35373   0.927  14.443   3.004
68591W        W35374  43.299  44.056  11.617
68592W        W35375  41.337  19.833  11.368
68593W        W35376  24.697  30.360  11.011
68594W        W35377  13.501  28.560   3.957
68595W        W35378  32.355   2.112  13.707
68596W        W35379  15.065  31.631  11.989
68597W        W35380  14.648  39.025   4.118
68598W        W35381  14.388  12.621   0.776
68599W        W35382  36.070  37.037   1.730
68600W        W35383  13.343  23.080  11.537
68601W        W35384   7.447  41.499  10.420
68602W        W35385   0.399   0.909  12.572
68603W        W35386  38.469  26.346  11.033
68604W        W35387  34.317   9.919   2.180
68605W        W35388   6.578  32.161  13.114
68606W        W35389  26.826  33.001  14.316
68607W        W35390   7.004  36.282   1.996
68608W        W35391   5.909  21.512   1.425
68609W        W35392  11.337  31.860  11.650
68610W        W35393  32.527  14.704   3.696
68611W        W35394  29.957  12.233   1.462
68612W        W35395  19.080  35.516   0.196
68613W        W35396  41.820  44.190  12.605
68614W        W35397   8.813  19.089  14.926
68615W        W35398   4.899   3.480   4.250
68616W        W35399  44.451  16.576  11.347
68617W        W35400   4.884  33.867   0.751
68618W        W35401   6.444  15.582  13.306
68619W        W35402  14.045  35.469   1.482
68620W        W35403   7.292  20.981  11.421
68621W        W35404   6.755  36.839  14.846
68622W        W35405   9.709  12.430   0.371
68623W        W35406  11.211   2.355  13.426
68624W        W35407   4.479   6.188   4.516
68625W        W35408   0.463  16.251  11.067
68626W        W35409  12.162  22.272  13.651
68627W        W35410  23.256  20.647   2.756
68628W        W35411   7.587  30.953  13.130
68629W        W35412  42.357  23.452   1.684
68630W        W35413  16.585  32.835   3.889
68631W        W35414  30.389  19.146   0.842
68632W        W35415  22.712  26.738   2.386
68633W        W35416  40.879  41.287   4.370
68634W        W35417  43.680   9.783   4.972
68635W        W35418  33.509  32.328   4.541
68636W        W35419  17.728  13.282   0.476
68637W        W35420   7.233  26.097  13.929
68638W        W35421   4.477  30.674   1.801
68639W        W35422  32.549  22.678  13.594
68640W        W35423   2.660  29.937  11.214
68641W        W35424   2.137   7.960   2.661
68642W        W35425  20.134  41.801   4.119
68643W        W35426  40.828   8.326   9.927
68644W        W35427  35.317  10.631   4.659
68645W        W35428  33.275  26.714   0.911
68646W        W35429  27.101  34.425  10.549
68647W        W35430   7.945  13.728  13.760
68648W        W35431  33.500  38.733  13.392
68649W        W35432  31.924   5.677   0.476
68650W        W35433  44.476  14.104  12.874
68651W        W35434   0.288   5.901   2.374
68652W        W35435  17.940  37.984  13.945
68653W        W35436  28.913   3.242  10.710
68654W        W35437  30.714   3.219   0.884
68655W        W35438  17.772  27.468  11.515
68656W        W35439   5.227   3.440   2.673
68657W        W35440  31.988  19.057   3.206
68658W        W35441  17.293  28.095  13.244
68659W        W35442  43.372  24.236   1.191
68660W        W35443  36.872  38.828   2.283
68661W        W35444  44.532  36.191   4.652
68662W        W35445   1.714  21.110  13.711
68663W        W35446  12.637  28.469   4.168
68664W        W35447  13.093  26.472   3.385
68665W        W35448  25.174  23.182  10.724
68666W        W35449  30.450  44.970   0.030
68667W        W35450  19.159  10.321   3.373
68668W        W35451  41.956  31.569   4.607
68669W        W35452   2.547  29.564  12.441
68670W        W35453  38.599  23.437  10.987
68671W        W35454  38.353  40.341  12.652
68672W        W35455   3.443   8.772   3.632
68673W        W35456  21.241   0.968   2.221
68674W        W35457  38.358  17.141  12.922
68675W        W35458  15.181  32.484   3.200
68676W        W35459  34.618  17.645  12.431
68677W        W35460  41.581  42.774   0.729
68678W        W35461  27.032   8.271   0.722
68679W        W35462  28.535  41.068  14.066
68680W        W35463  24.271   7.590  11.859
68681W        W35464  12.388   1.403  13.304
68682W        W35465  20.991  30.946   0.752
68683W        W35466  32.866  15.491  13.464
68684W        W35467   4.260  41.017   3.192
68685W        W35468  39.003   6.170  10.231
68686W        W35469  34.456   4.606  11.845
68687W        W35470  31.578  42.030   2.112
68688W        W35471  37.287  39.624   3.309
68689W        W35472  36.287   1.499  11.696
68690W        W35473  17.104   8.385  14.464
68691W        W35474  43.636  32.977   0.832
68692W        W35475  41.888  41.782  14.061
68693W        W35476   0.483  43.517  11.397
68694W        W35477  13.331   4.808   0.920
68695W        W35478  31.219  11.017   1.841
68696W        W35479   4.603  29.917   4.570
68697W        W35480  26.557   5.923   4.686
68698W        W35481  29.517  25.222   0.218
68699W        W35482  14.892  27.213   0.363
68700W        W35483  34.018  37.370  11.847
68701W        W35484   1.221   0.692  11.102
68702W        W35485  30.390   8.170   3.721
68703W        W35486  25.870  13.303   4.995
68704W        W35487  26.002  18.715   1.184
68705W        W35488  12.297   3.749   2.762
68706W        W35489  37.453  12.130   4.494
68707W        W35490  15.742   1.481  13.929
68708W        W35491  30.884  36.417   1.365
68709W        W35492  12.007   2.704  11.289
68710W        W35493   7.159  31.622   1.416
68711W        W35494  13.998  36.881   1.627
68712W        W35495  24.417  13.501   0.944
68713W        W35496   0.291  25.470  12.920
68714W        W35497  31.689  21.774  11.651
68715W        W35498  30.091  38.975  12.610
68716W        W35499  18.854  40.350  13.879
68717W        W35500  23.963  40.213  13.820
68718W        W35501  11.425  32.370  10.520
68719W        W35502  31.163  29.174  10.717
68720W        W35503  14.877  33.970  13.257
68721W        W35504  12.722  32.079  10.623
68722W        W35505  21.911  27.967  12.890
68723W        W35506   9.443  15.211  11.468
68724W        W35507   2.833  25.379  14.291
68725W        W35508  38.410  44.034  12.114
68726W        W35509  36.837  25.113   2.307
68727W        W35510  17.081   1.373  13.491
68728W        W35511  40.507  40.477   2.771
68729W        W35512   2.730   4.744  11.737
68730W        W35513  25.973  32.586   4.078
68731W        W35514  19.439  41.033  13.882
68732W        W35515  11.404  32.956   3.181
68733W        W35516  24.457  29.254   5.022
68734W        W35517  43.871  14.295   0.334
68735W        W35518   6.734  39.533  12.576
68736W        W35519  30.516   4.722   1.828
68737W        W35520  39.086  30.031   2.379
68738W        W35521   1.268  27.996   2.751
68739W        W35522  40.061  39.638  12.155
68740W        W35523   2.005  26.617  10.149
68741W        W35524   2.300  19.311  12.100
68742W        W35525  22.705   0.911  12.502
68743W        W35526  42.931  26.536  10.211
68744W        W35527   2.272  11.399   4.406
68745W        W35528  26.438  40.020  14.925
68746W        W35529   9.703  33.482   4.690
68747W        W35530  39.357  25.238  11.061
68748W        W35531  19.709   0.435  14.794
68749W        W35532  28.625  33.291   2.435
68750W        W35533  15.531  34.506  10.639
68751W        W35534  20.733   9.908  13.705
68752W        W35535  20.563   1.348  14.791
68753W        W35536  26.661  17.680   0.538
68754W        W35537  15.403  27.752  10.177
68755W        W35538  33.973  34.460   4.122
68756W        W35539  31.659  25.428  11.079
68757W        W35540  12.065   7.720  13.319
68758W        W35541  33.700   4.791   5.045
68759W        W35542  15.697  39.957   9.986
68760W        W35543  16.062  27.661   1.791
68761W        W35544   4.731  15.098  13.435
68762W        W35545  20.153  15.967  14.042
68763W        W35546  11.842  38.420   2.883
68764W        W35547  17.560  41.397  12.115
68765W        W35548  39.416   0.314  10.577
68766W        W35549  40.083  18.769   4.985
68767W        W35550  18.065  31.412  10.692
68768W        W35551  43.926  25.982   3.654
68769W        W35552  38.455  37.826   4.146
68770W        W35553  19.721   7.363   3.527
68771W        W35554  30.180  23.133   1.077
68772W        W35555  34.310  35.868  13.448
68773W        W35556  41.708  10.267  11.124
68774W        W35557   8.167  22.512   3.727
68775W        W35558   7.294   6.342  11.246
68776W        W35559  21.309  17.748   4.157
68777W        W35560  13.828   8.051  13.611
68778W        W35561  30.229  13.772  12.940
68779W        W35562  41.855  25.532   5.080
68780W        W35563  11.167  28.611   4.143
68781W        W35564  26.419   3.574   5.491
68782W        W35565  13.563   4.791   1.399
68783W        W35566   5.383  41.367   4.854
68784W        W35567   9.403  35.848   2.945
68785W        W35568  42.001   4.258  13.508
68786W        W35569  38.668  26.931   2.233
68787W        W35570   8.197  34.931   3.497
68788W        W35571  18.729  13.066   0.443
68789W        W35572  28.302  31.685  14.389
68790W        W35573  36.127   7.591  13.067
68791W        W35574  27.273  42.703  13.370
68792W        W35575  30.420  42.265  12.524
68793W        W35576   4.903  19.524   0.294
68794W        W35577  41.220   0.507  12.955
68795W        W35578  43.320  29.910   0.752
68796W        W35579   6.021   2.871   1.724
68797W        W35580  20.509  21.665  14.885
68798W        W35581  14.060   4.821   2.318
68799W        W35582  29.917  19.632  10.787
68800W        W35583  24.682  29.251   3.283
68801W        W35584   5.246  15.017  14.376
68802W        W35585  10.799   5.939   2.884
68803W        W35586  19.702  14.433  12.921
68804W        W35587   0.623  44.821   2.729
68805W        W35588  18.238  43.000  12.063
68806W        W35589   6.712  33.479   4.816
68807W        W35590   2.647   8.507   3.236
68808W        W35591  29.620  14.906   3.069
68809W        W35592  41.960  16.452  13.077
68810W        W35593  37.535  16.561  14.364
68811W        W35594  15.121  17.844  11.084
68812W        W35595   6.967   5.559  13.076
68813W        W35596   1.501  41.040   1.311
68814W        W35597   6.254  32.288   2.225
68815W        W35598  10.667  43.753  12.954
68816W        W35599  43.093  13.039   0.957
68817W        W35600   9.254  20.944   3.668
68818W        W35601  17.204  18.162   1.893
68819W        W35602   6.132  29.152  14.502
68820W        W35603  29.659  10.368   0.919
68821W        W35604  34.498  26.355   3.318
68822W        W35605   8.162  36.381   4.581
68823W        W35606  32.202  29.644   0.381
68824W        W35607   1.056  41.415   3.175
68825W        W35608   8.887  44.812   3.320
68826W        W35609  25.712  24.666   0.233
68827W        W35610  15.321  22.722   3.355
68828W        W35611   6.857  33.834  14.108
68829W        W35612  40.112  21.848  14.667
68830W        W35613  11.734  44.156   4.800
68831W        W35614  32.064   0.295   0.261
68832W        W35615  37.359  20.025   0.007
68833W        W35616  29.353  28.690   4.589
68834W        W35617  30.162  30.552   3.038
68835W        W35618  33.895  13.241   2.817
68836W        W35619   6.914   5.413   1.859
68837W        W35620   8.723  34.567  10.207
68838W        W35621  23.353  40.241  13.972
68839W        W35622   7.114  28.138  13.933
68840W        W35623  30.035  16.266  10.866
68841W        W35624  20.749  29.645  14.914
68842W        W35625  42.307  31.082  10.858
68843W        W35626  44.416  13.397   9.776
68844W        W35627  21.205  24.263  12.483
68845W        W35628  44.643  10.687   1.452
68846W        W35629  13.445  35.985   2.133
68847W        W35630  40.462  29.940   2.122
68848W        W35631  11.980  20.815  10.579
68849W        W35632  20.006  36.348   3.342
68850W        W35633  32.874  44.938   3.682
68851W        W35634  44.417  19.617  13.452
68852W        W35635   7.167  20.200  13.703
68853W        W35636  13.911   0.565   3.911
68854W        W35637  28.620  42.018  12.877
68855W        W35638  34.650   3.828   3.123
68856W        W35639  43.083  14.475   0.675
68857W        W35640   1.199  19.069  13.021
68858W        W35641  29.512  13.525   4.569
68859W        W35642   7.497  21.058   5.290
68860W        W35643  32.413   1.025  13.012
68861W        W35644  34.974   5.364   4.607
68862W        W35645  36.593  41.094   4.390
68863W        W35646  28.438  23.635   1.749
68864W        W35647   0.708   8.794  11.551
68865W        W35648  27.925  28.699   2.409
68866W        W35649  14.645  10.063   2.553
68867W        W35650  18.079  42.397  14.824
68868W        W35651  26.446  24.051  13.026
68869W        W35652  23.254  41.293  14.901
68870W        W35653   2.525  19.707  11.180
68871W        W35654  35.874  11.855  12.704
68872W        W35655  16.169   3.776   2.495
68873W        W35656   0.936  38.304   3.959
68874W        W35657  44.046  23.547   0.402
68875W        W35658  43.515  29.325  10.812
68876W        W35659  20.218   5.169  13.449
68877W        W35660  19.978  37.942  11.021
68878W        W35661  21.235  25.163  13.773
68879W        W35662  21.080  39.508  12.020
68880W        W35663  32.500  33.153  14.931
68881W        W35664  16.290  19.856  13.513
68882W        W35665  39.831  28.650  12.377
68883W        W35666  16.333   1.408   4.691
68884W        W35667   6.179  17.546   1.412
68885W        W35668  26.940  41.431   2.643
68886W        W35669  23.689   9.649   1.199
68887W        W35670  32.312   8.087  12.424
68888W        W35671  10.433  11.850  14.912
68889W        W35672  16.084   1.851  14.785
68890W        W35673  22.111   3.339   2.698
68891W        W35674  13.924   0.039   2.777
68892W        W35675  34.590  33.198  14.545
68893W        W35676  24.592  11.351   3.685
68894W        W35677  15.705   1.487  10.718
68895W        W35678  11.109  24.048   1.324
68896W        W35679  22.313   8.359   1.239
68897W        W35680  23.546   3.166   0.071
68898W        W35681  40.731  30.072  12.045
68899W        W35682  14.053  20.220   3.313
68900W        W35683  17.820   7.804   0.411
68901W        W35684  37.878   3.819   4.841
68902W        W35685  44.392  42.649   3.238
68903W        W35686   1.994  44.796   3.698
68904W        W35687  41.034  24.017   0.829
68905W        W35688   6.322  17.390  10.336
68906W        W35689  35.519  35.469  14.831
68907W        W35690  34.576  25.763  11.431
68908W        W35691  19.720  27.246   4.773
68909W        W35692   6.200  19.228  11.996
68910W        W35693  14.709  32.547  10.673
68911W        W35694  30.047  30.114  13.529
68912W        W35695  32.618  10.178   4.738
68913W        W35696  38.384   5.741  11.416
68914W        W35697  12.763  29.735   4.658
68915W        W35698  17.336  21.370  14.540
68916W        W35699  21.793  25.542   3.278
68917W        W35700  27.509  36.625  11.889
68918W        W35701  40.762   6.993   2.640
68919W        W35702  43.432   8.610  12.045
68920W        W35703   1.511   3.047   2.672
68921W        W35704  17.569  15.509   2.537
68922W        W35705  14.612  21.252   3.582
68923W        W35706  30.344  20.747   3.252
68924W        W35707   4.402   5.058  13.916
68925W        W35708   1.185   3.420   2.829
68926W        W35709  37.943  27.455   1.396
68927W        W35710   4.187  43.849   1.901
68928W        W35711  32.427   9.134   2.326
68929W        W35712  43.305  29.542   0.363
68930W        W35713  31.576  37.005   4.936
68931W        W35714  16.682  19.965  14.453
68932W        W35715   6.192  17.007   4.518
68933W        W35716  19.544  24.431  10.549
68934W        W35717  14.799  32.017  13.907
68935W        W35718   3.430   6.257   2.846
68936W        W35719  30.235   3.274   2.358
68937W        W35720  33.989  25.707  14.820
68938W        W35721  11.278   1.534  14.375
68939W        W35722  25.552   0.378   0.950
68940W        W35723  39.345  23.546  14.626
68941W        W35724  38.380  19.286  14.281
68942W        W35725   0.985  12.763   4.424
68943W        W35726  14.136  12.224  12.306
68944W        W35727  33.460  35.985   2.900
68945W        W35728   0.458  20.701  10.305
68946W        W35729  29.410  38.357   1.744
68947W        W35730  24.957  27.332   0.034
68948W        W35731  15.460  29.292  13.875
68949W        W35732  32.935  13.071   2.039
68950W        W35733  31.240  18.624   3.591
68951W        W35734  34.087  24.204   3.326
68952W        W35735   3.357  36.824   2.171
68953W        W35736  29.946  28.112   4.411
68954W        W35737   1.663  17.041  14.331
68955W        W35738  29.422   2.427   0.464
68956W        W35739  26.110  42.484   4.295
68957W        W35740  19.758  38.835   4.448
68958W        W35741  18.068  11.275   4.707
68959W        W35742  18.729  11.122   1.469
68960W        W35743  44.220  19.199   3.227
68961W        W35744  20.241  23.076   4.409
68962W        W35745   5.234  41.429   3.892
68963W        W35746  17.811  22.659   1.445
68964W        W35747  42.762  19.363   2.428
68965W        W35748  31.639  15.268  11.157
68966W        W35749   8.195   8.761   1.247
68967W        W35750  41.086  44.466  14.511
68968W        W35751  35.655  21.690  12.689
68969W        W35752  35.940  41.413  14.622
68970W        W35753  40.347   3.809  10.585
68971W        W35754  22.751  39.851  12.908
68972W        W35755  17.209  42.900   0.896
68973W        W35756   1.744  17.199  11.720
68974W        W35757  20.648  30.126  12.755
68975W        W35758   0.509  23.091   2.057
68976W        W35759  19.289  39.536   2.430
68977W        W35760  36.046  42.296  14.480
68978W        W35761   4.619   9.913  14.560
68979W        W35762  35.556   5.069   4.050
68980W        W35763  39.923  18.342  14.265
68981W        W35764  31.392  35.619   4.853
68982W        W35765  26.145   8.735   3.664
68983W        W35766  19.337   6.782   1.233
68984W        W35767  16.627   6.716   0.493
68985W        W35768   7.246   1.427  14.010
68986W        W35769  21.059   8.741  11.547
68987W        W35770  43.126  10.695   1.354
68988W        W35771  22.269   4.754  13.588
68989W        W35772  18.155  35.964  10.642
68990W        W35773  21.490  26.539   0.445
68991W        W35774   4.029   3.846   4.675
68992W        W35775  10.672  19.815   0.427
68993W        W35776   9.148   2.992   2.217
68994W        W35777  33.592  19.970   3.453
68995W        W35778  11.135  10.445   1.733
68996W        W35779  44.547  27.546  11.583
68997W        W35780  19.236  25.026  13.292
68998W        W35781  13.818   9.244   4.734
68999W        W35782  25.091  15.492   0.919
69000W        W35783   1.193  22.313   1.229
69001W        W35784   8.805  44.280  11.410
69002W        W35785  11.555  14.177  12.781
69003W        W35786  10.731  23.515   2.008
69004W        W35787  28.283  23.860   3.275
69005W        W35788  27.471  20.465  13.996
69006W        W35789  41.495  27.415   0.922
69007W        W35790  26.611  41.865   3.367
69008W        W35791  37.057  12.564  14.577
69009W        W35792  30.100  36.774  13.361
69010W        W35793  23.704  43.536  12.156
69011W        W35794  17.678  38.405   4.551
69012W        W35795   8.935   6.594   4.329
69013W        W35796  42.557  34.968   4.136
69014W        W35797   1.916   8.539  13.495
69015W        W35798  32.542  34.380  13.416
69016W        W35799   5.308  10.215  14.070
69017W        W35800  35.528  32.942   2.412
69018W        W35801  34.552   9.555   5.514
69019W        W35802  12.244   2.433   1.955
69020W        W35803  41.457  44.035  13.282
69021W        W35804  13.642   0.553  13.616
69022W        W35805  15.562  37.308   0.355
69023W        W35806  37.981  32.995  14.576
69024W        W35807  42.552  18.685   4.560
69025W        W35808  10.381  11.311   4.136
69026W        W35809  24.489  21.589  14.911
69027W        W35810   4.896  15.798   4.020
69028W        W35811  30.081  11.716   0.876
69029W        W35812   1.315  14.513   2.656
69030W        W35813  33.059  21.242   2.350
69031W        W35814  27.707  33.353   2.793
69032W        W35815  35.884  32.143   5.323
69033W        W35816  29.436  36.029  13.543
69034W        W35817  29.075  31.622  12.376
69035W        W35818  15.798  35.752  12.048
69036W        W35819  33.038  39.789   2.198
69037W        W35820  17.035  44.440   3.198
69038W        W35821  41.878  37.831   3.746
69039W        W35822  34.192  28.739  12.353
69040W        W35823  33.499  19.158  11.218
69041W        W35824  19.330  17.816   1.752
69042W        W35825  32.545   1.612   4.623
69043W        W35826  28.475  10.171   1.033
69044W        W35827  30.620  13.624   2.686
69045W        W35828   2.227  28.224  13.109
69046W        W35829  18.032   0.704  10.582
69047W        W35830  27.778  41.771   0.702
69048W        W35831  27.706  35.090  10.948
69049W        W35832  16.426   4.802   3.794
69050W        W35833   3.980  11.422  11.890
69051W        W35834  14.088  41.955   2.201
69052W        W35835   5.456  31.074  14.165
69053W        W35836  16.066  27.613  13.278
69054W        W35837  43.924  41.710  13.609
69055W        W35838  24.250  36.951  12.970
69056W        W35839  21.797  15.658   0.388
69057W        W35840  14.101  14.394  11.155
69058W        W35841  44.931  31.494  12.360
69059W        W35842  22.034  33.352   1.306
69060W        W35843  14.320  17.518   4.834
69061W        W35844   8.022  24.695   2.766
69062W        W35845   5.958  23.661  14.321
69063W        W35846  10.342   0.187   0.388
69064W        W35847  24.729  15.808  12.719
69065W        W35848   1.344   0.188  11.974
69066W        W35849  28.030   7.879  13.377
69067W        W35850  41.325  34.484  11.074
69068W        W35851  13.562  30.362  14.752
69069W        W35852   7.425  11.828  14.899
69070W        W35853  18.452  20.942   3.250
69071W        W35854  39.262  32.119   4.610
69072W        W35855  42.856  29.444  11.931
69073W        W35856  36.615  24.184   1.393
69074W        W35857  34.472  33.369   4.507
69075W        W35858  32.034  35.132  14.912
69076W        W35859  17.839   3.312  11.965
69077W        W35860   7.254   5.260   0.411
69078W        W35861  13.825  39.582  11.007
69079W        W35862   3.892  44.485  10.315
69080W        W35863  28.940  20.068  12.421
69081W        W35864  26.794   3.743  10.715
69082W        W35865  42.793  11.802   4.577
69083W        W35866  25.103  37.664  14.781
69084W        W35867  33.539   1.601   4.623
69085W        W35868   6.219   4.670   2.809
69086W        W35869  31.888  24.700  14.059
69087W        W35870  14.495  42.113   1.353
69088W        W35871  18.619  33.877  12.438
69089W        W35872  38.970  32.344   0.238
69090W        W35873  22.533   8.688   0.909
69091W        W35874  16.230  11.682   0.392
69092W        W35875  19.616  23.042  13.042
69093W        W35876  11.329   6.226   0.705
69094W        W35877   3.382  37.948  14.670
69095W        W35878  26.182  32.353   0.413
69096W        W35879  11.613  10.279   2.664
69097W        W35880  22.739   1.895  12.629
69098W        W35881  38.417   8.338   2.740
69099W        W35882   8.471  22.255   3.373
69100W        W35883  35.343   5.148  11.194
69101W        W35884  25.300  13.892   2.711
69102W        W35885  26.673  40.945   2.762
69103W        W35886   9.132  29.285  12.018
69104W        W35887  25.854  42.856  13.562
69105W        W35888  20.589   8.752  14.983
69106W        W35889  44.323   6.157   2.104
69107W        W35890  40.256  15.666   0.407
69108W        W35891  39.313  22.029   3.701
69109W        W35892  36.197  11.664   3.120
69110W        W35893  29.193  41.992  14.801
69111W        W35894  42.741   6.021  14.367
69112W        W35895  44.296  35.486  10.983
69113W        W35896   3.895  26.575  11.134
69114W        W35897  31.325  13.600  12.499
69115W        W35898  34.657  37.978   0.811
69116W        W35899  42.320   4.400  12.190
69117W        W35900  14.825   9.233   1.347
69118W        W35901  33.086  20.627  11.767
69119W        W35902  19.015   6.296  14.116
69120W        W35903  21.183   0.937   4.110
69121W        W35904   9.856  27.261  13.283
69122W        W35905  10.704  18.058   1.692
69123W        W35906  26.932   3.414   2.690
69124W        W35907  42.271  29.463   2.387
69125W        W35908   4.742  21.735   0.317
69126W        W35909  30.695  44.216  11.292
69127W        W35910   0.189   3.120   4.550
69128W        W35911  35.964  41.581  11.008
69129W        W35912   6.721   6.427   0.411
69130W        W35913  19.714  26.863  12.458
69131W        W35914   7.366   1.446   3.449
69132W        W35915  10.750  44.701   0.784
69133W        W35916  15.788  17.188  13.403
69134W        W35917  36.088  30.023   1.832
69135W        W35918  44.308  27.133  12.868
69136W        W35919  43.056  13.822  11.567
69137W        W35920  27.169  25.574  12.774
69138W        W35921  39.306  18.323  12.526
69139W        W35922  14.910  34.023  10.349
69140W        W35923  29.886  36.611   1.314
69141W        W35924   8.069  40.834  14.329
69142W        W35925   5.433  43.046  10.626
69143W        W35926  40.073  37.772  14.053
69144W        W35927  32.904  40.436   4.232
69145W        W35928  39.412  26.088  10.691
69146W        W35929  23.724   5.702   4.603
69147W        W35930  38.544   9.158  12.300
69148W        W35931  28.377  29.210  12.782
69149W        W35932  17.497  41.937   0.301
69150W        W35933  25.975  38.858   0.367
69151W        W35934  16.604  16.118  14.947
69152W        W35935  26.731   4.736   2.925
69153W        W35936  21.232  22.237   3.109
69154W        W35937   4.205   2.314   1.952
69155W        W35938  26.435   5.379  11.730
69156W        W35939   2.523  43.877  14.758
69157W        W35940  42.731   8.283  14.047
69158W        W35941  28.691  21.893  12.194
69159W        W35942   2.832  35.106  13.375
69160W        W35943  39.558  39.127  13.822
69161W        W35944  21.231   4.408  12.025
69162W        W35945  10.063  23.955   1.358
69163W        W35946  25.074  29.273  13.963
69164W        W35947  42.517  44.558   3.228
69165W        W35948  31.481  19.643   3.552
69166W        W35949  19.786  22.994  10.754
69167W        W35950   6.334  34.619   4.403
69168W        W35951  31.465  35.772  10.914
69169W        W35952  32.687  41.339  11.068
69170W        W35953  28.595  21.016   2.823
69171W        W35954  16.397  24.189   4.212
69172W        W35955  40.373  33.918   2.536
69173W        W35956   0.491  20.166   0.891
69174W        W35957  38.018  13.357   1.379
69175W        W35958  15.886  26.490  14.807
69176W        W35959  30.513  23.621  14.965
69177W        W35960   8.776  28.834  12.421
69178W        W35961  22.648  38.621  12.461
69179W        W35962  11.292  11.512  14.341
69180W        W35963  14.116   0.954  14.393
69181W        W35964   7.956   3.113   1.846
69182W        W35965  23.554  29.499  14.045
69183W        W35966   0.791  44.316  11.372
69184W        W35967  13.242  23.012   4.210
69185W        W35968   8.609  35.563  12.568
69186W        W35969  42.489  30.214   1.207
69187W        W35970  18.699  18.111  10.943
69188W        W35971  10.911  15.589   2.387
69189W        W35972  41.155  36.367   1.716
69190W        W35973  12.219  12.129   2.339
69191W        W35974  32.914  33.846   1.449
69192W        W35975  11.269  12.094   1.292
69193W        W35976   7.860  20.517   4.953
69194W        W35977  20.612  29.545   1.309
69195W        W35978  11.323  36.579  10.599
69196W        W35979  41.811  39.378   0.803
69197W        W35980  35.762  13.089   1.713
69198W        W35981  26.008  14.299   3.719
69199W        W35982  37.519  14.012   4.625
69200W        W35983  41.050   9.356   4.576
69201W        W35984  19.620  29.094  10.147
69202W        W35985  24.213  43.604   0.782
69203W        W35986  33.867  38.357  11.647
69204W        W35987  28.099  18.220   3.856
69205W        W35988  17.341   7.922  14.472
69206W        W35989  13.397  10.384   2.831
69207W        W35990  43.785  28.467  14.913
69208W        W35991   8.209  34.850   4.277
69209W        W35992  13.561  40.335   2.663
69210W        W35993  28.937  16.245  13.523
69211W        W35994  31.677  38.854  11.487
69212W        W35995  13.355  40.368  12.026
69213W        W35996  39.971   5.607   1.401
69214W        W35997  40.431   4.397  14.467
69215W        W35998  15.521  30.973  10.467
69216W        W35999  13.689  23.997   2.740
69217W        W36000  12.924   0.217  13.162
69218W        W36001  38.737   8.872  14.994
69219W        W36002  11.390  43.996   2.771
69220W        W36003  26.276  37.499  13.495
69221W        W36004  26.036  15.256   4.188
69222W        W36005  13.199  29.884  12.154
69223W        W36006  39.097   6.911   3.765
69224W        W36007  10.126   1.211   4.182
69225W        W36008   2.110  16.575   1.272
69226W        W36009  32.908  22.428  13.337
69227W        W36010  43.459  38.117   4.620
69228W        W36011  11.555  22.144   0.883
69229W        W36012  30.146  18.115  13.955
69230W        W36013  29.612  26.722   4.227
69231W        W36014  24.484  30.950  13.592
69232W        W36015  44.728   5.227  14.469
69233W        W36016   9.421  10.695  13.994
69234W        W36017  40.092  20.866   4.549
69235W        W36018   6.605  44.512   2.669
69236W        W36019  17.767  12.906   0.870
69237W        W36020  28.180  17.185   3.661
69238W        W36021  42.822  22.499   3.306
69239W        W36022   7.577  12.678   1.793
69240W        W36023   1.809  36.301  10.487
69241W        W36024   1.557  28.778  13.427
69242W        W36025   0.802   9.670  12.435
69243W        W36026  11.270  35.006  11.921
69244W        W36027  11.392  38.074   1.197
69245W        W36028  42.257  32.415  13.429
69246W        W36029  24.019  40.896   3.685
69247W        W36030  42.102   5.703  13.940
69248W        W36031  38.869  21.632  14.810
69249W        W36032  20.065  34.947   1.780
69250W        W36033  24.952   8.223  14.325
69251W        W36034  42.764  38.843   0.372
69252W        W36035  30.473  22.458  12.024
69253W        W36036   3.425  27.024   4.693
69254W        W36037  15.195  36.789  11.538
69255W        W36038  40.389   9.278  14.449
69256W        W36039  36.475  43.446  12.473
69257W        W36040  15.648  37.675   2.639
69258W        W36041   5.182   0.980  10.245
69259W        W36042   7.957   4.435   1.869
69260W        W36043   5.789  15.126  10.591
69261W        W36044   3.619  18.816   2.544
69262W        W36045  17.843  19.734  10.934
69263W        W36046  42.691  19.093   3.413
69264W        W36047  37.521  24.797   1.221
69265W        W36048  36.054  33.071  10.774
69266W        W36049  38.150  32.025  12.799
69267W        W36050  24.659  15.594   2.683
69268W        W36051  34.629  40.832   0.264
69269W        W36052  29.022  31.972   5.000
69270W        W36053   0.915  15.639   0.785
69271W        W36054  15.167  30.795  11.617
69272W        W36055  10.670   9.136  11.921
69273W        W36056  39.466   8.120   0.794
69274W        W36057  33.342  29.540  13.591
69275W        W36058  23.285  22.833  12.350
69276W        W36059   1.785  25.528  12.973
69277W        W36060   1.429  42.984   4.190
69278W        W36061  15.999  17.897   2.380
69279W        W36062  11.292  40.957   3.195
69280W        W36063  27.222  20.607  12.165
69281W        W36064  36.641  42.075  13.428
69282W        W36065  38.058  18.231  11.885
69283W        W36066  29.471  40.813  11.465
69284W        W36067   0.997  37.498  11.019
69285W        W36068  35.818  10.106  11.632
69286W        W36069  42.047  41.361  10.785
69287W        W36070  10.777  33.577   3.385
69288W        W36071  39.747  37.351  14.128
69289W        W36072   4.899   8.396  10.645
69290W        W36073  29.193  31.672  14.406
69291W        W36074  16.432  16.738  11.219
69292W        W36075  33.567  38.099   4.575
69293W        W36076  14.328   0.843   1.340
69294W        W36077  32.432  13.167  10.714
69295W        W36078  44.318  13.364   1.261
69296W        W36079   5.936  27.077  13.475
69297W        W36080  16.432   8.656   2.135
69298W        W36081  12.334  18.051   3.658
69299W        W36082  14.785  27.041   1.988
69300W        W36083   8.251  40.078   0.344
69301W        W36084  26.404  14.331   4.961
69302W        W36085   6.700  15.606   1.722
69303W        W36086  39.084  17.364  11.219
69304W        W36087  18.306  10.722   2.643
69305W        W36088  24.644  39.931   3.110
69306W        W36089  28.714  14.358   4.238
69307W        W36090  41.348  30.349  14.127
69308W        W36091  27.446  41.460   1.759
69309W        W36092  42.818  36.656  12.910
69310W        W36093  38.923   7.459  11.380
69311W        W36094  37.146   9.273  13.868
69312W        W36095  39.360  16.940  11.136
69313W        W36096  25.031  19.036   3.713
69314W        W36097  32.905   0.834  12.803
69315W        W36098  11.496  31.940  14.519
69316W        W36099  28.188  29.418  14.865
69317W        W36100   5.512  35.405  12.409
69318W        W36101   5.102  23.467  11.378
69319W        W36102  40.661  22.610  14.507
69320W        W36103  10.839  27.641   3.979
69321W        W36104  23.692  39.774  10.467
69322W        W36105  21.646   7.198  14.062
69323W        W36106  41.683  32.592   2.640
69324W        W36107  10.074  40.449   3.258
69325W        W36108  22.699  26.653   2.899
69326W        W36109  27.478  13.248   1.505
69327W        W36110  31.676  24.193  12.545
69328W        W36111   4.844   7.845  12.488
69329W        W36112  37.482   7.751  14.369
69330W        W36113  40.287  35.823  10.693
69331W        W36114   2.763   4.922  14.404
69332W        W36115  40.360  13.698  13.486
69333W        W36116  26.297  42.896   4.679
69334W        W36117   1.437  30.789   1.160
69335W        W36118  14.934  38.900   1.414
69336W        W36119  12.282  32.382  10.677
69337W        W36120  28.478  43.508   4.539
69338W        W36121   3.213   9.788   2.214
69339W        W36122   8.916   0.987  11.852
69340W        W36123   3.025  29.776   2.864
69341W        W36124  44.185  31.256   4.941
69342W        W36125  23.265  26.201   0.301
69343W        W36126   5.342  30.973  11.082
69344W        W36127  19.579   1.180   2.227
69345W        W36128  22.202  41.250  11.277
69346W        W36129  43.844   9.776  11.367
69347W        W36130  18.551  39.298  10.473
69348W        W36131  18.094  30.570  13.508
69349W        W36132  37.159  33.462  12.027
69350W        W36133   5.358  26.504   0.527
69351W        W36134  43.752   6.752   1.944
69352W        W36135  23.084   9.648  12.137
69353W        W36136  17.121  41.518   0.319
69354W        W36137   6.407  11.539   3.924
69355W        W36138   3.278  42.584   1.766
69356W        W36139  21.676  23.777   2.769
69357W        W36140  27.577   3.250  13.289
69358W        W36141  40.027  33.965   3.306
69359W        W36142  15.130  37.825  11.503
69360W        W36143  10.409   6.694  13.405
69361W        W36144  16.152  12.251  11.183
69362W        W36145  44.502  22.780  14.904
69363W        W36146  24.949  41.550  14.560
69364W        W36147  18.416   3.987  12.145
69365W        W36148  22.639  15.878   4.634
69366W        W36149  12.931  37.786  12.013
69367W        W36150  30.081  29.608   2.708
69368W        W36151  12.176  17.163  13.281
69369W        W36152  34.525  23.487  14.972
69370W        W36153   8.898  31.829   2.573
69371W        W36154  26.123  26.693   5.351
69372W        W36155  32.368  43.398  14.991
69373W        W36156   9.158  13.777  14.845
69374W        W36157   2.696  38.162  10.971
69375W        W36158  35.934  15.844  14.489
69376W        W36159   5.143  22.158   1.323
69377W        W36160   3.331  18.856  12.923
69378W        W36161  17.089  12.754   2.609
69379W        W36162  42.092  40.418  13.533
69380W        W36163   1.219   0.874  12.989
69381W        W36164  36.246   2.182  13.337
69382W        W36165  11.166  42.758   3.108
69383W        W36166  29.408  21.115   1.879
69384W        W36167  25.644  35.515   4.259
69385W        W36168  33.781  27.845   4.167
69386W        W36169  28.150  38.851  14.039
69387W        W36170   4.257  16.100   0.875
69388W        W36171  35.677  14.163   2.829
69389W        W36172   9.129   1.713   2.828
69390W        W36173  17.977  28.582  13.521
69391W        W36174  20.652  18.421  11.297
69392W        W36175  22.507   5.774   3.282
69393W        W36176  26.071  25.695  11.236
69394W        W36177   2.443  43.794  13.429
69395W        W36178   2.103  25.575   3.913
69396W        W36179  35.812  37.580  13.873
69397W        W36180  44.781   1.835   1.819
69398W        W36181  36.908  36.393  10.771
69399W        W36182   1.786  39.591   1.440
69400W        W36183  39.334  41.100   1.304
69401W        W36184   3.825  20.436  12.176
69402W        W36185  19.037  26.543   1.620
69403W        W36186   3.752  14.226   2.479
69404W        W36187  20.750  22.779   0.278
69405W        W36188  15.379  33.311   2.779
69406W        W36189  19.689   6.792  13.067
69407W        W36190  34.936  26.234  14.821
69408W        W36191  30.615  39.362   4.109
69409W        W36192  36.362   8.463   0.293
69410W        W36193   6.890  41.831   1.378
69411W        W36194  32.324  23.278  12.417
69412W        W36195  14.156  37.992  12.540
69413W        W36196  36.966  37.838  10.519
69414W        W36197  32.428   4.821  10.784
69415W        W36198  44.726  13.889  12.476
69416W        W36199   4.138   7.633   3.699
69417W        W36200  18.384  21.091  11.495
69418W        W36201  27.477   5.228  13.294
69419W        W36202   3.803   7.373  12.594
69420W        W36203  36.097  41.801  13.394
69421W        W36204   5.420  24.186   4.911
69422W        W36205  17.994  22.811  11.098
69423W        W36206  18.149  14.104   4.115
69424W        W36207  42.255  15.770   4.914
69425W        W36208   3.178  26.467  11.726
69426W        W36209  13.774  34.422   5.132
69427W        W36210  29.642   8.956   1.740
69428W        W36211  27.156  38.645  13.460
69429W        W36212  10.174   0.567  14.509
69430W        W36213   6.345  31.426   1.836
69431W        W36214  13.582  38.838  12.466
69432W        W36215  17.795  10.392   0.001
69433W        W36216  11.851  24.078  10.719
69434W        W36217  23.469   2.736   2.103
69435W        W36218  34.152   5.242   5.512
69436W        W36219   2.947  24.272   0.855
69437W        W36220  38.101  27.040  12.544
69438W        W36221   4.440  10.675  12.078
69439W        W36222  34.981  15.816  10.816
69440W        W36223   1.464  29.431  10.769
69441W        W36224   3.326  16.929   4.519
69442W        W36225  28.039   5.842   2.889
69443W        W36226  37.471  30.001  12.043
69444W        W36227  18.654  37.807   0.433
69445W        W36228  30.679  16.637  10.671
69446W        W36229  33.954   5.134  10.534
69447W        W36230  15.844  21.783   4.150
69448W        W36231  20.897   6.856   3.737
69449W        W36232  30.402  11.294   0.212
69450W        W36233  11.591  23.642  12.246
69451W        W36234  32.541  24.955   4.557
69452W        W36235  41.453   9.295  11.644
69453W        W36236   9.095   1.392   0.885
69454W        W36237  13.308   2.528   4.703
69455W        W36238  27.235  42.778   2.697
69456W        W36239  26.545   1.878  12.506
69457W        W36240  37.595  18.180   4.612
69458W        W36241  10.665  30.764  13.784
69459W        W36242  30.625  12.603   0.437
69460W        W36243  34.938  36.912  11.676
69461W        W36244  44.373  13.339   3.697
69462W        W36245   5.489  14.249   0.352
69463W        W36246  10.864  20.068  14.907
69464W        W36247  31.867  37.842   2.756
69465W        W36248  43.412  20.984  12.796
69466W        W36249  34.411  35.878   2.666
69467W        W36250  20.242  42.511  10.621
69468W        W36251  27.404   7.254   1.399
69469W        W36252  14.817  29.608   1.280
69470W        W36253  34.504  23.975  12.864
69471W        W36254  16.176  23.650  12.596
69472W        W36255   2.637  21.221  14.543
69473W        W36256  26.257  26.919  13.849
69474W        W36257  13.243  33.439  10.840
69475W        W36258  22.093  13.287  12.559
69476W        W36259  11.276  32.431  13.512
69477W        W36260   8.905  19.824   3.431
69478W        W36261  33.156   1.673   3.085
69479W        W36262  22.592  23.222   1.895
69480W        W36263  29.116  19.800  13.544
69481W        W36264  40.867   4.879   0.256
69482W        W36265  33.377  22.670   4.429
69483W        W36266  41.160   6.227  10.301
69484W        W36267  43.411   0.384  10.661
69485W        W36268  42.421  33.014   2.394
69486W        W36269  14.641  40.377   2.026
69487W        W36270  17.741  40.901  12.002
69488W        W36271  37.423  30.617  10.344
69489W        W36272  20.126  38.944  12.557
69490W        W36273  12.944   8.890  10.701
69491W        W36274  12.465  32.598  12.309
69492W        W36275   3.466  14.311  14.532
69493W        W36276  32.674  32.181  12.976
69494W        W36277   2.399  20.752  12.858
69495W        W36278  20.125  13.042  10.558
69496W        W36279  13.840  35.533   9.955
69497W        W36280  26.549  16.427  11.469
69498W        W36281  36.778  20.135   2.375
69499W        W36282  35.831   7.236   3.871
69500W        W36283  37.402  36.605  14.603
69501W        W36284  28.229   4.541  13.514
69502W        W36285  40.229  37.801   4.502
69503W        W36286  35.716  14.531   3.223
69504W        W36287   8.371  27.559  14.486
69505W        W36288  15.673  42.186   4.209
69506W        W36289  22.957  18.249  12.026
69507W        W36290   2.530  35.758   4.999
69508W        W36291  22.494  22.749   2.164
69509W        W36292   0.476  21.464  13.036
69510W        W36293   8.650  39.840  13.914
69511W        W36294  27.880  11.475   0.812
69512W        W36295   6.921   5.700  14.932
69513W        W36296  13.250   3.571   0.685
69514W        W36297  38.981  10.224  11.454
69515W        W36298   4.895  16.965   3.310
69516W        W36299   8.116  27.240  10.966
69517W        W36300  12.263  42.606  11.416
69518W        W36301  36.035  19.660   1.871
69519W        W36302   6.903  20.645   3.571
69520W        W36303  38.106  42.150   4.196
69521W        W36304  14.402  19.248   4.165
69522W        W36305   0.860  13.374  13.669
69523W        W36306  41.259   5.872   0.255
69524W        W36307   7.187  15.028  10.703
69525W        W36308  41.121  16.067   3.711
69526W        W36309  34.585   3.730   4.042
69527W        W36310  43.796   9.627   2.771
69528W        W36311  40.997  24.346   2.925
69529W        W36312  29.747  28.068  13.582
69530W        W36313  28.803  44.218  11.258
69531W        W36314  28.678  13.663   1.889
69532W        W36315  42.826  10.394   2.121
69533W        W36316  19.456  23.190  14.031
69534W        W36317  25.086   7.439  10.613
69535W        W36318  17.396   2.156   2.745
69536W        W36319   3.015  42.856   1.392
69537W        W36320  38.498  18.120  12.188
69538W        W36321  20.029   8.375   2.723
69539W        W36322   5.562  28.612  13.324
69540W        W36323  40.539  21.192   3.227
69541W        W36324  39.127  29.477   5.114
69542W        W36325  27.626  21.660  10.909
69543W        W36326  22.573  42.909  12.996
69544W        W36327  38.752  26.671   0.306
69545W        W36328   0.277  21.180  12.668
69546W        W36329   3.688  36.370  10.618
69547W        W36330  30.894  33.552  12.086
69548W        W36331  25.563  42.351  11.395
69549W        W36332   2.957   6.389   2.665
69550W        W36333  40.756  16.100   0.460
69551W        W36334   5.921  44.399   2.263
69552W        W36335  18.809  34.819   0.278
69553W        W36336   5.767  14.774   4.640
69554W        W36337  41.757  40.440  12.528
69555W        W36338  32.229   2.293   0.295
69556W        W36339   7.433   5.074  14.123
69557W        W36340  33.302  18.005   1.367
69558W        W36341   3.851  27.756   0.181
69559W        W36342  10.613  26.771  14.168
69560W        W36343   7.335  40.071  11.182
69561W        W36344  36.025  23.025   0.852
69562W        W36345  14.252  38.366  12.024
69563W        W36346   0.366  42.991  14.320
69564W        W36347  40.697   6.793  10.952
69565W        W36348  34.723   5.429  10.208
69566W        W36349   0.743  42.990  10.575
69567W        W36350  40.437  18.289   2.771
69568W        W36351  29.699  38.090   0.486
69569W        W36352  18.807  39.365  12.395
69570W        W36353  36.644  38.651  13.053
69571W        W36354  28.552  27.626   4.974
69572W        W36355  32.487  36.785  13.393
69573W        W36356  28.441  27.893   0.385
69574W        W36357  26.460   6.400   4.524
69575W        W36358  11.312   5.875   4.106
69576W        W36359   8.927  35.438  10.635
69577W        W36360  27.632  36.855  10.771
69578W        W36361   1.323  26.741  13.443
69579W        W36362  13.238   5.865  12.631
69580W        W36363  29.327   4.338  14.844
69581W        W36364  12.657  32.660   3.658
69582W        W36365  42.435   4.291   4.943
69583W        W36366   5.727  19.719  12.426
69584W        W36367  41.295  11.705   4.364
69585W        W36368  35.663  12.534   2.246
69586W        W36369  38.828  21.606   0.343
69587W        W36370  31.747  37.032  14.974
69588W        W36371  40.616  31.514  12.250
69589W        W36372  27.510   9.601  14.826
69590W        W36373  18.324  41.328  12.640
69591W        W36374  13.335  19.863   4.989
69592W        W36375  25.537   0.306   2.832
69593W        W36376  37.596  30.904   4.091
69594W        W36377  27.167  27.598  10.453
69595W        W36378   7.204   7.339  14.781
69596W        W36379  24.239  13.801  11.563
69597W        W36380  14.249   7.189  11.070
69598W        W36381  40.237  13.124   2.210
69599W        W36382  15.308   1.129  11.647
69600W        W36383  24.490  26.693  14.517
69601W        W36384  37.979  13.465  14.769
69602W        W36385  40.511  37.084  11.088
69603W        W36386  42.956  40.776  11.143
69604W        W36387  42.825   5.509  14.487
69605W        W36388   5.771  16.788   1.040
69606W        W36389   4.412  21.197  12.140
69607W        W36390   2.331  30.685   3.414
69608W        W36391  17.629  24.963  12.562
69609W        W36392  34.810   6.564  12.060
69610W        W36393  44.005  37.089  12.167
69611W        W36394  22.559  42.854  14.470
69612W        W36395  18.012  41.283  13.052
69613W        W36396  14.173   9.628   4.953
69614W        W36397  11.263  20.425  12.889
69615W        W36398  41.805  26.116  12.550
69616W        W36399  29.889  44.285   0.824
69617W        W36400  34.354   5.609   2.343
69618W        W36401   0.747  43.519  10.584
69619W        W36402  42.385  33.117   0.787
69620W        W36403  14.460  38.728   1.507
69621W        W36404  18.262  15.203  13.418
69622W        W36405  43.937   6.624   3.276
69623W        W36406  25.521  29.386  10.250
69624W        W36407  31.835  39.834  12.766
69625W        W36408  24.259  38.143  12.200
69626W        W36409  12.267  17.730   0.920
69627W        W36410  28.094  20.697   2.781
69628W        W36411  39.086  27.130  13.592
69629W        W36412  35.149   0.011   3.230
69630W        W36413  25.971  16.190   0.025
69631W        W36414  35.368  43.993   2.027
69632W        W36415  22.585  42.189   2.915
69633W        W36416  31.732  41.359  12.149
69634W        W36417  21.549   9.781   0.443
69635W        W36418  29.167  32.125   0.465
69636W        W36419  36.518  18.224   4.472
69637W        W36420  39.095   3.024   2.286
69638W        W36421   3.908   4.804  12.523
69639W        W36422  30.556  26.682  14.325
69640W        W36423  18.604  14.261  14.589
69641W        W36424   4.724   0.210   2.398
69642W        W36425   8.408  33.517  12.103
69643W        W36426  18.576  42.923   3.858
69644W        W36427  26.325  35.380   1.300
69645W        W36428  37.774  32.015   4.506
69646W        W36429  23.114  20.997  12.895
69647W        W36430  25.739  17.523  11.170
69648W        W36431  35.142  11.710   0.030
69649W        W36432  38.652   5.235   1.645
69650W        W36433  28.401  23.234   3.820
69651W        W36434  34.177  26.692   1.943
69652W        W36435  12.556  16.984   1.945
69653W        W36436  35.279  20.994  12.451
69654W        W36437  42.868  21.267  14.343
69655W        W36438  32.059  26.668   3.775
69656W        W36439  14.592  34.327   4.970
69657W        W36440  32.081  16.331   3.226
69658W        W36441  27.999  27.671   0.578
69659W        W36442   0.448  18.693  13.295
69660W        W36443   0.944  21.807   2.230
69661W        W36444  17.272  39.973  10.687
69662W        W36445  20.504  36.764   1.535
69663W        W36446  10.908  11.216  12.267
69664W        W36447   0.160  41.734   1.404
69665W        W36448  17.318   9.192  10.545
69666W        W36449   4.922   9.913   0.870
69667W        W36450   6.936  18.794  14.031
69668W        W36451  40.463  10.834  10.687
69669W        W36452   2.481  33.420  10.971
69670W        W36453  31.695  32.597  11.906
69671W        W36454  21.070  37.112  14.899
69672W        W36455  42.582  27.499   0.938
69673W        W36456  19.296   5.396   3.628
69674W        W36457  33.787  41.214   2.594
69675W        W36458   8.452  35.239   2.218
69676W        W36459  20.952  16.333   2.698
69677W        W36460  33.196  32.100   1.743
69678W        W36461  24.194   0.257   0.340
69679W        W36462  25.971   3.277   3.665
69680W        W36463  37.162   7.268  11.339
69681W        W36464  41.319   8.716   0.961
69682W        W36465  13.842  36.656  12.840
69683W        W36466  43.984  38.084   3.834
69684W        W36467  23.847  18.727  13.825
69685W        W36468  31.620  20.194  12.400
69686W        W36469  31.623  11.724   0.793
69687W        W36470  37.567  11.359  11.192
69688W        W36471  16.586  44.525   0.420
69689W        W36472   6.340   6.552   3.872
69690W        W36473  37.855  25.191   1.334
69691W        W36474  30.527  44.440   3.289
69692W        W36475  37.501  17.067  14.282
69693W        W36476   9.856  14.396   3.396
69694W        W36477  11.292   7.092  14.285
69695W        W36478  31.034  15.319  14.539
69696W        W36479  14.906   7.662   1.219
69697W        W36480   2.867  16.006   3.679
69698W        W36481  20.185  42.929  11.567
69699W        W36482  23.931  15.292   1.889
69700W        W36483  38.194   6.845   4.608
69701W        W36484  16.545  17.174   3.139
69702W        W36485  21.545   6.619   2.690
69703W        W36486  32.819  14.318  11.500
69704W        W36487  31.084  14.753  11.940
69705W        W36488   4.324  23.277  10.681
69706W        W36489   9.873   8.166   0.462
69707W        W36490  21.155  17.431   0.802
69708W        W36491   1.483   4.374   0.384
69709W        W36492  20.473  25.072   3.700
69710W        W36493  28.512  34.270   3.737
69711W        W36494  12.516  37.779   3.078
69712W        W36495  44.944  44.089   0.487
69713W        W36496   6.420   1.507   0.444
69714W        W36497  41.066  44.060  14.112
69715W        W36498   8.246  35.405   4.634
69716W        W36499  42.439   7.763   2.754
69717W        W36500  35.938  24.455   3.665
69718W        W36501  22.580  15.898  10.987
69719W        W36502   8.409  42.892   2.659
69720W        W36503   7.880  25.958  13.499
69721W        W36504  30.933  18.243  12.018
69722W        W36505  38.420  15.730  14.492
69723W        W36506  34.806   7.693   1.880
69724W        W36507  35.029  35.868  12.949
69725W        W36508  34.388  19.385   2.830
69726W        W36509  29.601  22.507  12.071
69727W        W36510  44.378  38.310   4.139
69728W        W36511   5.583  42.041  10.753
69729W        W36512  19.814  16.684   4.258
69730W        W36513   8.117  31.779  13.388
69731W        W36514  17.839  44.418   0.944
69732W        W36515  27.644   8.351   1.675
69733W        W36516  41.894  26.030  13.128
69734W        W36517  15.301  10.049   2.300
69735W        W36518  15.620  20.590   2.739
69736W        W36519  31.307  11.508   1.830
69737W        W36520   6.382  18.772  10.808
69738W        W36521  39.019   4.814  12.292
69739W        W36522  25.101  44.177  14.327
69740W        W36523  41.963  32.872   1.777
69741W        W36524  39.968  39.095  12.966
69742W        W36525  27.953  20.651  10.964
69743W        W36526  10.164  14.834   2.030
69744W        W36527   2.532  24.186  11.081
69745W        W36528   0.803  10.878   2.112
69746W        W36529  15.047  41.625   5.234
69747W        W36530  37.376   5.276   2.819
69748W        W36531  19.711   2.533  13.855
69749W        W36532  19.807  32.956   0.494
69750W        W36533   7.045   3.255  13.805
69751W        W36534  12.277  43.843   3.264
69752W        W36535  36.016  36.377  13.330
69753W        W36536  27.729  27.149   2.335
69754W        W36537  43.097  39.664  13.409
69755W        W36538  22.757  30.634  11.532
69756W        W36539  17.800  25.381   4.047
69757W        W36540   9.223   7.241  14.974
69758W        W36541  29.725  28.102   3.298
69759W        W36542   1.999  24.474  13.877
69760W        W36543  40.417  39.326   1.867
69761W        W36544  38.465   0.198  13.305
69762W        W36545   6.051  12.221  12.293
69763W        W36546  26.672  35.479  12.495
69764W        W36547  44.399  34.194  14.253
69765W        W36548  22.063  32.876   3.215
69766W        W36549  42.913  17.753   5.417
69767W        W36550  36.107  34.402   0.330
69768W        W36551   0.078  17.158   5.008
69769W        W36552  44.900  41.032   0.426
69770W        W36553   0.813  13.832   1.385
69771W        W36554  34.183  34.300  12.104
69772W        W36555  28.627  39.631   2.783
69773W        W36556  36.943   1.171   2.779
69774W        W36557  14.906  25.052   3.176
69775W        W36558   1.488   8.267  11.565
69776W        W36559  31.327   8.205   0.874
69777W        W36560  40.047  35.874  12.419
69778W        W36561   2.388  24.013   3.300
69779W        W36562   3.351  30.053  13.418
69780W        W36563  31.251  43.732   0.315
69781W        W36564  35.436  41.057   3.379
69782W        W36565  12.261  42.406   4.815
69783W        W36566  20.739  16.335  11.921
69784W        W36567  42.462   8.631  12.072
69785W        W36568  37.503  43.327   0.465
69786W        W36569  32.633  38.009   0.802
69787W        W36570   2.478  13.680   2.254
69788W        W36571   6.377  29.505  10.704
69789W        W36572  27.639  25.096   4.171
69790W        W36573   6.748  14.005   5.323
69791W        W36574  19.099  23.521   0.856
69792W        W36575   1.595  28.024   1.318
69793W        W36576   9.351  44.812  14.404
69794W        W36577   9.150   1.768  11.527
69795W        W36578  39.694  21.560   1.875
69796W        W36579  29.834  19.398  11.244
69797W        W36580  29.512  40.878   1.400
69798W        W36581  32.440  39.829  14.953
69799W        W36582  43.339  30.636  13.012
69800W        W36583  32.495  37.955  11.930
69801W        W36584   6.698  10.565  13.447
69802W        W36585  20.551  44.900   1.427
69803W        W36586  25.172  42.830  10.772
69804W        W36587  13.332  43.942   2.900
69805W        W36588   5.830   6.103  12.908
69806W        W36589  11.610   6.444  12.044
69807W        W36590  38.448  43.981   3.200
69808W        W36591  17.588  10.286  13.493
69809W        W36592  12.081  26.236  14.340
69810W        W36593  10.926   5.719  13.548
69811W        W36594  23.559  30.502   3.338
69812W        W36595   9.276  14.096  12.860
69813W        W36596  23.766  14.927   2.867
69814W        W36597  11.210  44.962  13.539
69815W        W36598  18.298  23.718  13.669
69816W        W36599  38.045  33.608   0.822
69817W        W36600  40.008   4.684  14.623
69818W        W36601  42.806  28.878  13.297
69819W        W36602   5.397  39.838   0.477
69820W        W36603  35.281   4.265   4.175
69821W        W36604  29.593  22.564  14.005
69822W        W36605  21.775  20.766  13.418
69823W        W36606  17.305   9.203   2.723
69824W        W36607  16.252   6.129  14.984
69825W        W36608  41.411  34.892   4.753
69826W        W36609  25.018   5.947   0.546
69827W        W36610  30.632   5.468  14.908
69828W        W36611   9.595  18.640  14.943
69829W        W36612  32.528   0.708  10.751
69830W        W36613  17.767  21.552  14.729
69831W        W36614  36.505  11.799  10.476
69832W        W36615  16.563  20.835   3.731
69833W        W36616  13.490  31.026   2.947
69834W        W36617  28.929  10.650   3.866
69835W        W36618  13.871  39.106   1.161
69836W        W36619  19.276  43.296  11.649
69837W        W36620  17.827   4.886  10.300
69838W        W36621  22.110  13.836  11.472
69839W        W36622  39.439  25.108   4.079
69840W        W36623  34.665  13.527   2.349
69841W        W36624  37.499  32.460   4.585
69842W        W36625  31.840  37.482  11.317
69843W        W36626  36.046  25.414   2.407
69844W        W36627  22.313   5.134  10.850
69845W        W36628  43.283  24.266   2.336
69846W        W36629   5.387  38.672  13.050
69847W        W36630  11.686  30.591  10.354
69848W        W36631  12.113   7.580  14.293
69849W        W36632   8.881  40.412  12.026
69850W        W36633  15.218  36.604   2.004
69851W        W36634  38.561  17.141  14.444
69852W        W36635  33.642  12.843  12.802
69853W        W36636  10.669   6.536   3.697
69854W        W36637   3.679  20.074  11.838
69855W        W36638  14.226  18.667   2.184
69856W        W36639  21.317  23.971   2.407
69857W        W36640  44.840  14.735  11.904
69858W        W36641   6.178  20.237   4.781
69859W        W36642  12.298  19.233  14.331
69860W        W36643  22.496  14.049   0.672
69861W        W36644  31.920  15.558  12.446
69862W        W36645  44.073  34.185  13.168
69863W        W36646  24.643  37.301  12.121
69864W        W36647   0.946  14.843   1.189
69865W        W36648  34.307  28.865  11.054
69866W        W36649  38.078  32.162   1.722
69867W        W36650  33.132  16.406  11.005
69868W        W36651  23.669  31.998  14.547
69869W        W36652  16.121  22.779  13.872
69870W        W36653  36.440  35.351   2.761
69871W        W36654  32.047  33.644   1.265
69872W        W36655  39.590  44.263   1.808
69873W        W36656  30.025  31.451  14.779
69874W        W36657  10.703  41.990  13.784
69875W        W36658  28.857  28.756   3.517
69876W        W36659  15.961  21.121  12.982
69877W        W36660  31.502  11.281  10.888
69878W        W36661  34.485  36.045   4.696
69879W        W36662  12.829  25.422   2.277
69880W        W36663  25.579  11.169   2.219
69881W        W36664  18.042  18.450   2.194
69882W        W36665  18.552  23.589   3.925
69883W        W36666  20.058  42.932   3.818
69884W        W36667  12.341  15.089   3.779
69885W        W36668  22.474   1.167  10.145
69886W        W36669  13.332  13.906   4.057
69887W        W36670  10.842  16.266  13.387
69888W        W36671  15.653  30.971  11.539
69889W        W36672  20.617   7.757   4.482
69890W        W36673  17.094   6.659  12.440
69891W        W36674  40.672  17.956   4.892
69892W        W36675  34.965  24.465  14.362
69893W        W36676   0.434  39.365   4.866
69894W        W36677  21.657   0.917   1.869
69895W        W36678   2.254  38.268  11.875
69896W        W36679   4.204  44.923  11.663
69897W        W36680  37.432  20.443  11.181
69898W        W36681  11.047  28.114  10.199
69899W        W36682  35.980  20.746   0.986
69900W        W36683  10.782  23.486   1.501
69901W        W36684  34.423  19.067   0.890
69902W        W36685  28.308  18.465   0.992
69903W        W36686  10.415   7.610  14.541
69904W        W36687   9.617   4.688  11.119
69905W        W36688  37.846  42.444   0.772
69906W        W36689   8.808  19.587  12.885
69907W        W36690   0.683  14.355   9.921
69908W        W36691   4.519  12.564  12.949
69909W        W36692  26.152  32.800  12.967
69910W        W36693  35.416   3.003  11.602
69911W        W36694  15.130  25.097  10.273
69912W        W36695   3.871   3.631   2.970
69913W        W36696   2.239  34.334   2.314
69914W        W36697  27.737  11.814   3.652
69915W        W36698  20.274  44.520  13.737
69916W        W36699  38.806  40.318   3.786
69917W        W36700   3.868  17.545  11.615
69918W        W36701  16.990  18.598  13.451
69919W        W36702  30.527  29.875  13.431
69920W        W36703  29.145   6.231  10.637
69921W        W36704  13.593  35.799   5.021
69922W        W36705  27.901  24.216   3.262
69923W        W36706   8.362  42.785   4.845
69924W        W36707  19.022  30.546  14.379
69925W        W36708   6.842   9.927  14.888
69926W        W36709   8.491   4.298   1.946
69927W        W36710   2.511  31.432  13.946
69928W        W36711  39.919   8.803  13.083
69929W        W36712   9.101   2.196   1.194
69930W        W36713  32.093  37.031  11.144
69931W        W36714   7.431   4.865  10.641
69932W        W36715  36.873  42.024  14.470
69933W        W36716  34.162  32.076  13.102
69934W        W36717   0.251  44.941   0.296
69935W        W36718  35.802  17.521  12.144
69936W        W36719  39.265  15.521  14.372
69937W        W36720  42.511  12.068  12.971
69938W        W36721  35.375  39.890  12.988
69939W        W36722   2.732   4.347   3.848
69940W        W36723   6.312  32.805   2.274
69941W        W36724  16.300  33.194   3.626
69942W        W36725  28.694  12.188   3.861
69943W        W36726  32.116  24.885   4.876
69944W        W36727  31.003   7.750  10.893
69945W        W36728  11.003  14.317   0.304
69946W        W36729   8.747  29.998   4.428
69947W        W36730  15.659  28.502  14.009
69948W        W36731  19.013  39.787   3.735
69949W        W36732   8.859  27.061  14.048
69950W        W36733  27.635  44.070  12.819
69951W        W36734  32.930  20.850  12.197
69952W        W36735   5.395  34.812   1.698
69953W        W36736   9.841   3.179   4.101
69954W        W36737  44.277   4.803   3.260
69955W        W36738   1.737  19.643  11.433
69956W        W36739   3.490  32.485   4.601
69957W        W36740  21.827  15.201  10.673
69958W        W36741  33.911   9.824  14.052
69959W        W36742  27.516  29.602   2.782
69960W        W36743  38.400  41.804   3.804
69961W        W36744  20.076  20.289   0.783
69962W        W36745  21.658  25.718   2.784
69963W        W36746  14.030   4.937  13.889
69964W        W36747  25.490  11.041  12.565
69965W        W36748  34.397  41.457   1.354
69966W        W36749  24.414  32.074  10.276
69967W        W36750  39.417  18.097  13.529
69968W        W36751  43.920   7.313  13.030
69969W        W36752  20.340   1.289   3.130
69970W        W36753  32.077   9.745  14.472
69971W        W36754   3.310  35.145   2.649
69972W        W36755  20.077  19.785   4.060
69973W        W36756  32.844  41.923  13.183
69974W        W36757  28.014  15.382  12.543
69975W        W36758  20.189  21.051   2.233
69976W        W36759  18.873  15.290   1.393
69977W        W36760   1.478  29.729  12.059
69978W        W36761  11.128  12.262   4.772
69979W        W36762  23.149  17.710   1.926
69980W        W36763   1.232  24.404   0.855
69981W        W36764  13.960   2.482  12.645
69982W        W36765  24.097   1.319   2.867
69983W        W36766  11.740   3.447   5.180
69984W        W36767   0.334  14.917   2.719
69985W        W36768  29.151  11.685   1.727
69986W        W36769  24.230   8.411  10.718
69987W        W36770   6.993  40.986   2.687
69988W        W36771  17.710  40.904   0.822
69989W        W36772  18.088   5.686  13.962
69990W        W36773  43.982  37.527   0.271
69991W        W36774  42.373  33.350   3.285
69992W        W36775   1.320  42.449   3.249
69993W        W36776  33.616  20.164  13.089
69994W        W36777   6.583  35.850  10.545
69995W        W36778  42.536  17.995  10.751
69996W        W36779   3.155  42.372   3.341
69997W        W36780  25.641  32.893   0.518
69998W        W36781  18.232   1.191  10.533
69999W        W36782  11.566  24.520   4.231
70000W        W36783  18.659  36.318   4.120
70001W        W36784  24.474   9.753   2.351
70002W        W36785  23.213  43.336  10.761
70003W        W36786  14.182  17.028   3.748
70004W        W36787  13.324  15.309   3.354
70005W        W36788   9.843  13.830  14.051
70006W        W36789   9.698  12.673  11.157
70007W        W36790  39.293  39.716   0.241
70008W        W36791  23.990   6.180  12.884
70009W        W36792  32.900  36.434   1.781
70010W        W36793  11.155  44.680   1.963
70011W        W36794  14.631  17.307  13.295
70012W        W36795  23.446  23.706   4.154
70013W        W36796  21.137  44.542  14.856
70014W        W36797   5.445   4.878   3.711
70015W        W36798  29.038  20.103  12.953
70016W        W36799  38.378  25.241   2.219
70017W        W36800  33.333   0.307   0.473
70018W        W36801   2.259  27.211   4.172
70019W        W36802  39.836  27.339   0.818
70020W        W36803  12.513   7.100   4.940
70021W        W36804  24.918  38.352   1.882
70022W        W36805   2.416  33.435  11.957
70023W        W36806  34.852  25.731  14.847
70024W        W36807  19.664  19.149  12.657
70025W        W36808  13.151   6.192  10.997
70026W        W36809  33.443   0.666   2.178
70027W        W36810   1.815   9.415  10.332
70028W        W36811   7.135  15.108  14.847
70029W        W36812  18.620  24.491  14.030
70030W        W36813  28.255  40.401   1.759
70031W        W36814  38.612  35.001   4.713
70032W        W36815  28.109   4.273   4.434
70033W        W36816  22.304  34.504  12.824
70034W        W36817   7.752   8.159   2.994
70035W        W36818   2.216   0.764  12.859
70036W        W36819  29.371   5.222   1.424
70037W        W36820  25.523  30.394  10.666
70038W        W36821  18.115   9.317   1.398
70039W        W36822  34.909  40.309  11.692
70040W        W36823   5.769  18.297   4.609
70041W        W36824   7.848  16.583  11.608
70042W        W36825   1.526  33.538  11.887
70043W        W36826  14.895   9.329  13.492
70044W        W36827  23.592   0.375  12.538
70045W        W36828  32.362  18.684   0.695
70046W        W36829  20.073   5.473   4.026
70047W        W36830  41.718  36.421   1.287
70048W        W36831  34.706  19.541  10.418
70049W        W36832  36.440  17.071  12.539
70050W        W36833  30.601  33.147  14.999
70051W        W36834  13.090   9.174   2.272
70052W        W36835  25.307   2.040  13.022
70053W        W36836  16.186  11.319   0.004
70054W        W36837  41.726  19.100  14.877
70055W        W36838  28.620  12.192  13.579
70056W        W36839   1.223  16.477   1.011
70057W        W36840  10.925  24.060  11.594
70058W        W36841  39.601  29.007  14.846
70059W        W36842  23.216  10.449  14.083
70060W        W36843   8.331  24.121  13.842
70061W        W36844  18.321  25.602  11.688
70062W        W36845  24.126  29.397   0.214
70063W        W36846  43.982   0.997   0.841
70064W        W36847   8.845  29.394   5.125
70065W        W36848   6.643  40.422   4.158
70066W        W36849  30.013  12.862  13.065
70067W        W36850  23.017  21.493  12.896
70068W        W36851  42.122   0.911  10.654
70069W        W36852  21.061  12.107  13.504
70070W        W36853  33.958   6.058   1.823
70071W        W36854  32.198  16.094  11.060
70072W        W36855  37.937  24.581  13.516
70073W        W36856  14.380  15.562  13.367
70074W        W36857  30.515  12.296  11.110
70075W        W36858   2.745   1.952   0.696
70076W        W36859  37.802  13.141   1.799
70077W        W36860  29.886   3.620  11.635
70078W        W36861  27.593  37.298  13.511
70079W        W36862  36.380  40.975   4.857
70080W        W36863  17.629   9.976  11.621
70081W        W36864   2.653  13.669  11.753
70082W        W36865  42.774  20.086   3.220
70083W        W36866  21.587  10.663   2.709
70084W        W36867  32.105  16.836   0.189
70085W        W36868  35.562  26.031   2.887
70086W        W36869  18.283  26.423   1.041
70087W        W36870  18.088  32.441  13.911
70088W        W36871  36.849  31.637  13.052
70089W        W36872  19.663  18.949   4.284
70090W        W36873  32.646  35.064  13.927
70091W        W36874  17.689  25.889  10.624
70092W        W36875  14.941  21.599   2.797
70093W        W36876   8.138  32.520   3.539
70094W        W36877   4.801  14.811   1.309
70095W        W36878  10.251  42.977  11.269
70096W        W36879   3.207  43.456   2.191
70097W        W36880  16.479  40.909   0.374
70098W        W36881   1.420   6.956   5.055
70099W        W36882   0.268  41.898  11.104
70100W        W36883  22.242  29.941  13.506
70101W        W36884  13.593  43.010  12.916
70102W        W36885  30.630  41.997   2.417
70103W        W36886  37.955   8.666   0.409
70104W        W36887  13.400  32.080   4.153
70105W        W36888   1.162  22.741  11.942
70106W        W36889  30.136  39.324   3.292
70107W        W36890  41.999   9.550  13.861
70108W        W36891  38.785  18.905  11.516
70109W        W36892  21.196   8.133  12.975
70110W        W36893   7.919  36.163  11.683
70111W        W36894   9.557  26.463  11.188
70112W        W36895  33.463  40.534  14.483
70113W        W36896   9.763   1.409   0.295
70114W        W36897  42.846  12.821  13.965
70115W        W36898   6.492  43.754   0.008
70116W        W36899   5.306  24.967  11.677
70117W        W36900  33.151  34.089  12.581
70118W        W36901   8.368  44.831  10.600
70119W        W36902  33.346   0.163   2.189
70120W        W36903  25.651  42.978  10.590
70121W        W36904  10.319  18.187  13.880
70122W        W36905  13.294  18.741   0.915
70123W        W36906  20.573  27.118  12.850
70124W        W36907  38.273  37.096  10.913
70125W        W36908  13.537  28.597  12.627
70126W        W36909   6.426  23.658   0.476
70127W        W36910  35.239   7.755   0.497
70128W        W36911  27.634  42.753  12.981
70129W        W36912  29.023  24.092   1.171
70130W        W36913  24.483   2.742  12.511
70131W        W36914  39.055  41.456  14.428
70132W        W36915  11.385   8.170  12.505
70133W        W36916   7.457  12.504   4.360
70134W        W36917  20.090  29.106  12.017
70135W        W36918  12.250   1.721   4.579
70136W        W36919  19.561  11.175  11.585
70137W        W36920   0.865  12.244  10.336
70138W        W36921  34.092  18.151   4.129
70139W        W36922  34.376  29.605   1.744
70140W        W36923  31.498  18.627   4.036
70141W        W36924   8.129  13.669   0.694
70142W        W36925  31.963   0.872  13.856
70143W        W36926  38.781  10.229   2.714
70144W        W36927  20.743  28.032   3.791
70145W        W36928  24.318  17.042   0.342
70146W        W36929  36.033  44.395   3.912
70147W        W36930   4.751   3.994   1.298
70148W        W36931   8.267  43.039   0.939
70149W        W36932  17.317  17.091  14.075
70150W        W36933  24.472  18.317  12.076
70151W        W36934   6.351  31.394   4.220
70152W        W36935  35.468  12.811  11.269
70153W        W36936  24.348   0.718  12.463
70154W        W36937  23.148  18.823   1.822
70155W        W36938  36.133  36.916   2.641
70156W        W36939  21.292  41.977  14.081
70157W        W36940  39.873  40.874   3.177
70158W        W36941  38.017   3.999   0.964
70159W        W36942  16.781   3.950  13.349
70160W        W36943  15.098  11.270  11.287
70161W        W36944  42.876   5.217   1.466
70162W        W36945   3.871  36.663   4.701
70163W        W36946  43.400  18.001  11.367
70164W        W36947  16.192  38.574   1.648
70165W        W36948   3.703  13.221   1.951
70166W        W36949  15.018  13.823   4.776
70167W        W36950  39.314  18.201   2.730
70168W        W36951  28.964   0.033  14.538
70169W        W36952  42.797  12.526  14.887
70170W        W36953  24.585   9.151   3.948
70171W        W36954  19.643  26.624  11.383
70172W        W36955   2.861  20.197   0.123
70173W        W36956  31.107   5.809   4.931
70174W        W36957  40.840  31.075  11.231
70175W        W36958  37.389  34.972  13.446
70176W        W36959  43.358  29.265   3.924
70177W        W36960   0.342   0.256   3.685
70178W        W36961   3.928  13.884   3.869
70179W        W36962  35.080  24.961  14.449
70180W        W36963  32.987  22.918  14.496
70181W        W36964  38.808  21.294   1.389
70182W        W36965   4.401  41.520   1.224
70183W        W36966  34.868  32.261   4.829
70184W        W36967  27.110   5.525  13.017
70185W        W36968  26.693  22.249  11.739
70186W        W36969  19.993  26.498   4.623
70187W        W36970  14.032   9.345  14.347
70188W        W36971  23.773  13.138  13.358
70189W        W36972  23.206  40.908  11.978
70190W        W36973  38.955   5.295  12.481
70191W        W36974   0.209  31.592  14.818
70192W        W36975  24.183  36.412   1.731
70193W        W36976  10.293  34.316   0.691
70194W        W36977  12.374   0.811  12.400
70195W        W36978  30.414  37.344  11.974
70196W        W36979  32.070   7.883   4.653
70197W        W36980  20.146  16.861  13.616
70198W        W36981  15.860  19.244  14.809
70199W        W36982   6.739  12.875  10.575
70200W        W36983  34.130  23.193   2.412
70201W        W36984  35.653   2.200  14.530
70202W        W36985  19.734  43.089   5.132
70203W        W36986  31.617  26.930  12.557
70204W        W36987  30.856  33.694   3.214
70205W        W36988  41.056  27.229  11.073
70206W        W36989  44.253   5.336   1.701
70207W        W36990  19.352   0.726  11.191
70208W        W36991  35.346   5.901  12.826
70209W        W36992  43.476  26.896  12.285
70210W        W36993  26.474  44.873  13.441
70211W        W36994   0.800  41.820  11.409
70212W        W36995  38.926  14.588  10.278
70213W        W36996   2.931   3.412   0.510
70214W        W36997  18.054  30.591  14.557
70215W        W36998  10.653  44.283   0.487
70216W        W36999  19.009  27.478  11.687
70217W        W37000  10.654  20.733   3.351
70218W        W37001  20.036   6.149   1.678
70219W        W37002   6.377  30.516  10.007
70220W        W37003  12.778  14.142  12.405
70221W        W37004   3.656  38.153  11.961
70222W        W37005  15.164  39.861   4.582
70223W        W37006  38.498  32.277  14.091
70224W        W37007   8.935  30.572   3.745
70225W        W37008  21.191  25.978   2.859
70226W        W37009  13.633  41.819  11.585
70227W        W37010  15.827  33.352  13.517
70228W        W37011  31.033  20.643   4.848
70229W        W37012  43.487  13.257   3.199
70230W        W37013  27.575   6.074  11.149
70231W        W37014   3.022  41.458  12.433
70232W        W37015  44.861  22.724  11.735
70233W        W37016  31.019  43.528   0.771
70234W        W37017  44.733  14.059  11.929
70235W        W37018   6.837  34.337  11.089
70236W        W37019  42.296   9.526   5.037
70237W        W37020  41.550   3.943  12.971
70238W        W37021  30.168  35.930  11.250
70239W        W37022  41.517  38.095  13.920
70240W        W37023  31.505  26.023   2.316
70241W        W37024  27.626  25.844  13.937
70242W        W37025   2.458  18.334  12.058
70243W        W37026  16.155   1.539   5.183
70244W        W37027  10.407   9.386   3.711
70245W        W37028  30.455  30.861  11.080
70246W        W37029  23.363  36.082  12.412
70247W        W37030  27.540  34.503   2.373
70248W        W37031  22.900  42.756  12.378
70249W        W37032  11.346  43.391  11.859
70250W        W37033  27.127   0.424   3.602
70251W        W37034  44.306   7.940  14.339
70252W        W37035  44.701  16.752   1.049
70253W        W37036  42.784  29.918  11.710
70254W        W37037  42.816   0.726  13.772
70255W        W37038  40.756   1.893   4.246
70256W        W37039   2.261   9.738   0.425
70257W        W37040  36.604  40.352   0.196
70258W        W37041  12.104  40.876   4.724
70259W        W37042  32.963  10.312  11.193
70260W        W37043  40.521  20.204  12.566
70261W        W37044  17.780  34.294  11.028
70262W        W37045  33.615  36.828   1.894
70263W        W37046  32.224   7.853   0.760
70264W        W37047  44.491  16.813   3.255
70265W        W37048   6.189  25.213   1.321
70266W        W37049   8.712  40.290   3.287
70267W        W37050  27.685   0.250  10.032
70268W        W37051  34.556  10.857  13.972
70269W        W37052  26.522   5.272  11.244
70270W        W37053   4.246  30.669  11.466
70271W        W37054  43.054  37.811   2.482
70272W        W37055  14.770  17.531  11.440
70273W        W37056  36.393  44.399   3.129
70274W        W37057   9.312   3.735  13.013
70275W        W37058  35.349  28.428   4.115
70276W        W37059  17.713  33.140  11.633
70277W        W37060  23.991  29.368   2.830
70278W        W37061  24.524  11.138  13.085
70279W        W37062   0.677  35.378   0.439
70280W        W37063   3.245  15.921   0.265
70281W        W37064  14.818  33.397  12.059
70282W        W37065  28.412  26.485  14.390
70283W        W37066   7.420  12.518  11.143
70284W        W37067  29.891  34.619  12.800
70285W        W37068  43.911   3.712  14.897
70286W        W37069  12.298  13.526  14.258
70287W        W37070  15.140   1.900   1.380
70288W        W37071  24.143  32.024  11.146
70289W        W37072  13.787  14.684   3.430
70290W        W37073  13.541  14.344  13.962
70291W        W37074   1.666  37.889   0.005
70292W        W37075   2.066  31.767  14.379
70293W        W37076  14.331  34.958   3.530
70294W        W37077  27.725  13.064   0.006
70295W        W37078  26.896  18.726   4.598
70296W        W37079   8.833  16.721  10.637
70297W        W37080  37.902  25.650   2.847
70298W        W37081  29.606  42.075   0.504
70299W        W37082  44.939  39.219   4.561
70300W        W37083  22.536  25.106   9.854
70301W        W37084  41.554  35.168  11.245
70302W        W37085  28.207  37.883  13.100
70303W        W37086  18.698  29.585   1.099
70304W        W37087  17.082  44.376   0.288
70305W        W37088   3.783  21.715   1.423
70306W        W37089   5.900  21.117  10.549
70307W        W37090  37.050  26.431   0.484
70308W        W37091  37.459  44.777  13.020
70309W        W37092   1.166  41.423   1.278
70310W        W37093  22.061  30.592  14.983
70311W        W37094  29.122  40.812  12.026
70312W        W37095  44.512  23.224   2.540
70313W        W37096   0.303  44.002  11.485
70314W        W37097  44.871   1.330  11.218
70315W        W37098  35.514   6.801  14.994
70316W        W37099   8.240   9.187  11.096
70317W        W37100  44.293  28.411  10.543
70318W        W37101  36.499  31.440   2.292
70319W        W37102  17.719  42.067   1.303
70320W        W37103  13.836  39.464   0.765
70321W        W37104  24.519  31.517  10.486
70322W        W37105   8.684  22.065   4.366
70323W        W37106   4.467   0.922  14.556
70324W        W37107   5.438   3.692   0.975
70325W        W37108  37.786  21.176  10.965
70326W        W37109   7.297  11.877  13.489
70327W        W37110  43.032  18.478  11.097
70328W        W37111   0.046   1.919   1.369
70329W        W37112  21.481   0.370  14.998
70330W        W37113  18.974  26.606  10.749
70331W        W37114  35.042  10.571  12.885
70332W        W37115  10.267  17.032  12.019
70333W        W37116  31.473  12.977  13.174
70334W        W37117  21.232  30.950  12.946
70335W        W37118   7.570  30.827   1.412
70336W        W37119   5.909  37.899   4.038
70337W        W37120  23.116  38.106   4.098
70338W        W37121  17.322  37.008   2.837
70339W        W37122  33.198  39.951   4.431
70340W        W37123  15.370  15.213  14.077
70341W        W37124  34.519  19.154   1.404
70342W        W37125   1.754   3.027   0.054
70343W        W37126   1.812  28.851   4.849
70344W        W37127  18.184  37.080  12.423
70345W        W37128  39.863  19.508   2.703
70346W        W37129   6.752  37.589   3.220
70347W        W37130  14.557  34.028   3.332
70348W        W37131  15.314  29.473   1.300
70349W        W37132  21.349   9.303   0.778
70350W        W37133   7.430  43.835   4.591
70351W        W37134  15.760  11.843   2.774
70352W        W37135  15.114   7.155   1.081
70353W        W37136  22.133   3.479   3.628
70354W        W37137  26.286  35.552   2.240
70355W        W37138  24.448  34.887  11.559
70356W        W37139  23.620  31.489   2.231
70357W        W37140  14.803   7.623   9.944
70358W        W37141  16.224  22.959  10.602
70359W        W37142  15.051   7.886  14.391
70360W        W37143  29.357  39.393   1.853
70361W        W37144  16.051  35.798   3.428
70362W        W37145  18.268   7.432  14.328
70363W        W37146  41.514  43.013   3.317
70364W        W37147  14.326  36.282  10.863
70365W        W37148  41.438  13.893   3.085
70366W        W37149  43.019  10.228   1.156
70367W        W37150  20.650  28.569   3.108
70368W        W37151  38.314  36.633  10.675
70369W        W37152  16.652  27.371   0.985
70370W        W37153  34.647  18.170   0.500
70371W        W37154   5.775  30.412   1.215
70372W        W37155  25.450  39.548  11.561
70373W        W37156  32.110   0.676   1.220
70374W        W37157  21.924  37.303  12.944
70375W        W37158  41.077  37.153  12.976
70376W        W37159  12.316  39.894  10.630
70377W        W37160  13.587  26.387  12.597
70378W        W37161  31.841  25.137   4.105
70379W        W37162  24.176   1.501  14.969
70380W        W37163  37.696  12.244  12.043
70381W        W37164  11.700  40.896  11.746
70382W        W37165  40.515  31.129   3.840
70383W        W37166  44.720   3.219   3.780
70384W        W37167  24.370  37.591   1.861
70385W        W37168   3.269  33.467   1.317
70386W        W37169  18.344  11.922   0.298
70387W        W37170  38.805  20.728  13.076
70388W        W37171  27.039  23.760   2.907
70389W        W37172   1.259  43.947  14.817
70390W        W37173  43.855  41.085  11.165
70391W        W37174  39.079   1.570   0.387
70392W        W37175  17.643  18.825   2.335
70393W        W37176  17.185  12.778   9.997
70394W        W37177  16.085  33.173   1.238
70395W        W37178  13.394  42.084   3.355
70396W        W37179  24.704   5.450   0.284
70397W        W37180  30.947  17.464  13.079
70398W        W37181  28.594  14.759  12.124
70399W        W37182   4.273  33.800   0.110
70400W        W37183  38.963  37.177   1.719
70401W        W37184  19.477  38.898   3.614
70402W        W37185  14.682  26.767  13.628
70403W        W37186  31.955  11.113  14.827
70404W        W37187   6.143  43.856  12.879
70405W        W37188  41.004   1.480  12.549
70406W        W37189  21.883  41.840  10.493
70407W        W37190  38.645  26.072  12.953
70408W        W37191   5.324  26.993   1.269
70409W        W37192  19.128  22.121   3.095
70410W        W37193  16.772  28.924  11.690
70411W        W37194  38.026  31.911  11.441
70412W        W37195  12.424  38.485  11.538
70413W        W37196  43.079  19.844  11.185
70414W        W37197  38.839   5.524  11.588
70415W        W37198  15.067  33.338   1.311
70416W        W37199   5.714  11.294   1.819
70417W        W37200   2.821  12.634   1.902
70418W        W37201  39.554  30.470   0.435
70419W        W37202  30.048  22.143   3.481
70420W        W37203   1.038  16.328   1.492
70421W        W37204  31.941  10.530   3.314
70422W        W37205  22.045  11.732   1.919
70423W        W37206  28.402  20.537   3.192
70424W        W37207  36.652   1.757   4.179
70425W        W37208  36.421  41.206  12.461
70426W        W37209  41.498  19.175   0.816
70427W        W37210   8.979  31.123  14.003
70428W        W37211  10.376  29.509   1.986
70429W        W37212  24.457  18.674   1.282
70430W        W37213   7.581  18.034   4.236
70431W        W37214  25.644  41.103  14.853
70432W        W37215   5.629  35.535  10.390
70433W        W37216  32.454  25.649  14.955
70434W        W37217   3.283  22.960   2.101
70435W        W37218  25.981  36.327  10.327
70436W        W37219  22.739  32.840   3.663
70437W        W37220  29.508   5.928  10.901
70438W        W37221  17.710  37.420   0.899
70439W        W37222   2.649  14.050   3.693
70440W        W37223  38.199  36.213   5.201
70441W        W37224  16.120  14.730   4.731
70442W        W37225  37.412  18.031   4.146
70443W        W37226  11.806  36.042   4.274
70444W        W37227  23.949  41.940  13.344
70445W        W37228  27.729  10.427   0.153
70446W        W37229   8.340  40.436   4.518
70447W        W37230  24.230  30.611  10.779
70448W        W37231  23.089   8.920   2.389
70449W        W37232   3.690   8.345   3.398
70450W        W37233   9.546   4.702  13.087
70451W        W37234   3.514  38.448  11.554
70452W        W37235  42.045  28.842  13.362
70453W        W37236  14.298   8.454  14.092
70454W        W37237  35.417  40.796  11.386
70455W        W37238  25.023   5.369  10.636
70456W        W37239   9.158  12.219   2.896
70457W        W37240   0.754  18.625  13.967
70458W        W37241   9.772  40.408  14.059
70459W        W37242  14.671  17.770   3.367
70460W        W37243  31.458  32.949  10.345
70461W        W37244  22.616  27.191  14.307
70462W        W37245  16.143  11.294   4.047
70463W        W37246  16.475  41.465   3.319
70464W        W37247   1.452  44.459  13.021
70465W        W37248  25.515  35.502   1.702
70466W        W37249  33.095  22.769   0.773
70467W        W37250  31.894  12.140   1.783
70468W        W37251   5.986  15.687  13.605
70469W        W37252  12.747  28.600   4.661
70470W        W37253   6.519   4.547   0.267
70471W        W37254  19.817  44.975  11.664
70472W        W37255  23.148  41.367  11.757
70473W        W37256  36.135   6.669  13.841
70474W        W37257  31.880  24.085  11.460
70475W        W37258  36.972  31.908  10.977
70476W        W37259   6.817  21.736  12.884
70477W        W37260  41.890  10.428   0.411
70478W        W37261  14.995   8.429   4.122
70479W        W37262  25.203  39.302   2.664
70480W        W37263  20.085   5.938  12.991
70481W        W37264  10.832  33.088   0.818
70482W        W37265  21.150  14.162  10.486
70483W        W37266  29.770  20.971  12.068
70484W        W37267  24.514  19.458   0.818
70485W        W37268   5.264  10.631   4.214
70486W        W37269  41.548  13.882  13.769
70487W        W37270  13.714  21.720  13.993
70488W        W37271  10.423  26.037   1.909
70489W        W37272  26.424   3.517   2.792
70490W        W37273  37.946  31.246  11.919
70491W        W37274   5.615  14.178   3.489
70492W        W37275  29.933  23.235  10.015
70493W        W37276  13.651  12.345   3.172
70494W        W37277  25.986  32.156  13.502
70495W        W37278  44.590  21.176  10.799
70496W        W37279  14.849  42.093  10.472
70497W        W37280  19.371   7.690   3.279
70498W        W37281   7.656  33.004  11.107
70499W        W37282  40.522  10.749   3.360
70500W        W37283  19.606  38.704   1.289
70501W        W37284  29.865   8.264  11.089
70502W        W37285  22.006  43.272   0.157
70503W        W37286  21.125  18.923  12.896
70504W        W37287  35.127   3.659   2.992
70505W        W37288  11.576  23.611  13.937
70506W        W37289  21.826   9.606   0.919
70507W        W37290  24.691   7.802   0.324
70508W        W37291  27.873  14.109  11.776
70509W        W37292  29.899   1.152  11.099
70510W        W37293  31.869  19.999  13.459
70511W        W37294   8.235  15.729  14.749
70512W        W37295   5.586  32.051   5.153
70513W        W37296  12.139   8.312   3.941
70514W        W37297  37.482  18.674   1.894
70515W        W37298  26.653  19.206  10.682
70516W        W37299   6.269  20.165  13.140
70517W        W37300   5.183  34.900  13.954
70518W        W37301  36.041   5.964   4.210
70519W        W37302  33.580  35.757   2.426
70520W        W37303  24.127  35.103   4.954
70521W        W37304  32.469  41.503  13.824
70522W        W37305  32.511  42.788   3.843
70523W        W37306  25.076  14.243   4.667
70524W        W37307  32.620  25.280   2.181
70525W        W37308  40.066   9.572  11.584
70526W        W37309  19.419  40.863   4.570
70527W        W37310  40.566  21.486  11.973
70528W        W37311  26.078  37.462   3.862
70529W        W37312  17.724  40.821   3.744
70530W        W37313  30.108  42.374  13.380
70531W        W37314  33.032  41.986   0.919
70532W        W37315   6.361  23.618   2.731
70533W        W37316  32.718  18.249  14.428
70534W        W37317   6.216  34.939  12.969
70535W        W37318  21.434  31.453   2.412
70536W        W37319  40.439  14.599   2.132
70537W        W37320  39.708  19.621   0.616
70538W        W37321  40.658  14.029   3.174
70539W        W37322  34.989  41.267  11.883
70540W        W37323  14.489   5.392   2.649
70541W        W37324  31.977  39.831   0.212
70542W        W37325  38.527  41.931   1.445
70543W        W37326   4.494   3.339  12.066
70544W        W37327  36.098   3.872  14.105
70545W        W37328  40.725  17.051   3.302
70546W        W37329   9.821  28.172   2.255
70547W        W37330  25.168   2.505   4.484
70548W        W37331  27.622  21.776   3.703
70549W        W37332   9.957  40.360   4.261
70550W        W37333  34.549   7.722  11.629
70551W        W37334  44.367  33.855  11.589
70552W        W37335  32.344  29.948   0.871
70553W        W37336  16.188  24.477  11.513
70554W        W37337  11.816  33.485  12.656
70555W        W37338  28.961  37.815   1.188
70556W        W37339  35.924  32.260  14.919
70557W        W37340   5.813   8.848   3.112
70558W        W37341  42.525  23.708   2.102
70559W        W37342   8.631  11.241  14.872
70560W        W37343  37.960  37.386   2.669
70561W        W37344  22.994  27.555  13.091
70562W        W37345  28.248  32.803  10.999
70563W        W37346   0.842  21.682   0.523
70564W        W37347  31.839  28.383   1.110
70565W        W37348   0.783  11.254  12.569
70566W        W37349   1.767  20.125   3.089
70567W        W37350  15.717  34.948   1.119
70568W        W37351  32.608  41.009  14.399
70569W        W37352   6.352   5.837  14.293
70570W        W37353  35.063   8.124  13.385
70571W        W37354  42.333  26.457  11.021
70572W        W37355  32.522  20.518   2.745
70573W        W37356  29.212  36.831  13.271
70574W        W37357  39.299  13.027  11.984
70575W        W37358   3.731  15.204   4.161
70576W        W37359  32.621   7.811   4.582
70577W        W37360   8.319  32.060   3.383
70578W        W37361   5.520  35.520  12.929
70579W        W37362   7.382  44.223  13.161
70580W        W37363   4.766  29.677  11.336
70581W        W37364  12.393  19.866   2.203
70582W        W37365   6.368  23.167   0.274
70583W        W37366  44.676  12.329  14.773
70584W        W37367   0.727  36.566   1.672
70585W        W37368   2.970  23.248   1.752
70586W        W37369  35.455  34.202   4.692
70587W        W37370  37.615  42.134  11.705
70588W        W37371  38.565  10.166   1.103
70589W        W37372  15.611  41.413  14.813
70590W        W37373  24.486  20.643  11.632
70591W        W37374  32.055  15.813  14.809
70592W        W37375  11.223  30.215  14.817
70593W        W37376  36.464   7.828  14.428
70594W        W37377  41.268  11.622   3.838
70595W        W37378  10.383  43.788   4.132
70596W        W37379  44.402  31.262  11.090
70597W        W37380  25.916  35.270   3.310
70598W        W37381  24.826   4.302   2.753
70599W        W37382  43.870  25.835  11.421
70600W        W37383   2.625   7.106  13.846
70601W        W37384  13.731  22.101  11.005
70602W        W37385  16.064   6.397  12.217
70603W        W37386  41.626  25.969   1.242
70604W        W37387  10.700   4.852   4.355
70605W        W37388  39.646  42.328  13.041
70606W        W37389  32.912  27.082  12.996
70607W        W37390  38.399  25.310  13.326
70608W        W37391  13.903   1.772   1.353
70609W        W37392  10.383  14.199  10.369
70610W        W37393  36.550  18.933  10.714
70611W        W37394  39.121  16.299  13.121
70612W        W37395  25.205  26.537   3.063
70613W        W37396  14.585  35.615  11.548
70614W        W37397  25.880  24.073   3.205
70615W        W37398  23.626  37.769  13.876
70616W        W37399  31.567  40.001  10.929
70617W        W37400  14.691  10.114  12.520
70618W        W37401  25.842  33.127  14.574
70619W        W37402  21.724  28.397   1.793
70620W        W37403   2.396  25.374  14.007
70621W        W37404  44.376  29.611  14.002
70622W        W37405  24.449   1.331  10.657
70623W        W37406  37.959   4.242  10.716
70624W        W37407   0.865  21.143  14.298
70625W        W37408  24.057  39.814   3.742
70626W        W37409  31.700  42.428  12.120
70627W        W37410  23.750  36.831   2.992
70628W        W37411  19.940   2.775   1.719
70629W        W37412  18.032  39.068  11.109
70630W        W37413  11.575  18.826   0.256
70631W        W37414   1.385  27.206   1.703
70632W        W37415  12.608   3.705   0.215
70633W        W37416  40.412  14.789  12.043
70634W        W37417   6.532  11.376  11.252
70635W        W37418  22.068  31.938   0.743
70636W        W37419  13.159  39.626   4.681
70637W        W37420  30.672  43.386   3.153
70638W        W37421  25.111  38.599  12.065
70639W        W37422  28.087  15.015  11.734
70640W        W37423  35.439   7.182  11.577
70641W        W37424  27.613  29.898   0.421
70642W        W37425  24.454   4.570   4.108
70643W        W37426   4.217  40.612   4.232
70644W        W37427  35.450  18.587  12.719
70645W        W37428  14.528  17.353  11.898
70646W        W37429  18.673  10.595   2.311
70647W        W37430   1.895  10.703  13.586
70648W        W37431   0.678  38.973  14.806
70649W        W37432  26.145  11.089  12.045
70650W        W37433  28.032  25.691  10.457
70651W        W37434  42.750  34.954   0.789
70652W        W37435  19.601   4.964  12.143
70653W        W37436  17.635   9.412  10.915
70654W        W37437  25.358  12.282   0.683
70655W        W37438  32.963  24.495   1.912
70656W        W37439   4.295  12.363   0.333
70657W        W37440  40.278  21.231   4.208
70658W        W37441  34.944  43.837   1.366
70659W        W37442  26.226  38.874  14.002
70660W        W37443  37.520  44.258   4.538
70661W        W37444   5.945  44.288  10.943
70662W        W37445   2.913   6.773  12.988
70663W        W37446  37.366  10.688   2.371
70664W        W37447  19.666   2.846   1.256
70665W        W37448  44.986   9.045   4.952
70666W        W37449  26.879   1.086   0.283
70667W        W37450  29.702  30.888  12.459
70668W        W37451  19.582  28.274   3.631
70669W        W37452  35.103  31.226   2.612
70670W        W37453  24.469  34.187  13.423
70671W        W37454  12.026  15.581   4.176
70672W        W37455  30.242  19.049  13.856
70673W        W37456  35.578  29.089  12.552
70674W        W37457  30.999  19.235  13.481
70675W        W37458   7.029  33.034  13.440
70676W        W37459   7.783  26.953  11.700
70677W        W37460  34.842  15.781  13.748
70678W        W37461  18.655   1.491   4.690
70679W        W37462   6.578   0.588  13.852
70680W        W37463   4.349  29.968  11.176
70681W        W37464  33.929  10.086   3.283
70682W        W37465  30.890   8.979   1.382
70683W        W37466  41.474  31.438  12.396
70684W        W37467  33.156  18.122  12.574
70685W        W37468  30.240  36.036   1.929
70686W        W37469  39.071  10.669   1.372
70687W        W37470  18.493   3.372  11.086
70688W        W37471  19.184  23.668   1.734
70689W        W37472  16.358   0.590   3.372
70690W        W37473  35.345  41.451   4.149
70691W        W37474  20.165  42.733  14.846
70692W        W37475  18.993   2.299   4.606
70693W        W37476  33.433  21.895  11.209
70694W        W37477  26.163   9.091   4.858
70695W        W37478  29.185  42.963  13.077
70696W        W37479  20.444  28.514  14.837
70697W        W37480  32.576   4.677   1.368
70698W        W37481  27.924  39.548  12.719
70699W        W37482  22.174  33.176   0.307
70700W        W37483   9.074  37.866   2.884
70701W        W37484   7.899  15.826   2.654
70702W        W37485  38.820   6.755  13.104
70703W        W37486  24.453   0.319  12.970
70704W        W37487  25.929  19.587   9.917
70705W        W37488  34.909  30.429   0.414
70706W        W37489  11.879  15.681  10.587
70707W        W37490  12.451  44.257   4.672
70708W        W37491  21.058  40.333   3.838
70709W        W37492  42.086  16.746  11.381
70710W        W37493  29.142  37.483   3.593
70711W        W37494  14.127  24.702  11.047
70712W        W37495   1.277  20.500  11.073
70713W        W37496  20.799   0.038   0.449
70714W        W37497  33.230  16.410  13.762
70715W        W37498  44.968  20.334  12.533
70716W        W37499   5.646  43.843   4.072
70717W        W37500  15.335  44.238  14.885
70718W        W37501   2.316   7.230   0.319
70719W        W37502  22.292  20.744  13.466
70720W        W37503  28.569  16.259   3.385
70721W        W37504  17.243  19.408  14.254
70722W        W37505  22.357  37.807  14.596
70723W        W37506  14.127  14.063   4.108
70724W        W37507  14.885  35.269   1.227
70725W        W37508   1.042  12.127  14.086
70726W        W37509  27.597  39.825   3.173
70727W        W37510  35.436   7.330   0.771
70728W        W37511  10.200  39.084  14.289
70729W        W37512  36.338  31.180   0.356
70730W        W37513  29.186   9.727  11.061
70731W        W37514  23.996  18.048  14.919
70732W        W37515  11.742  28.447   1.336
70733W        W37516   3.508  15.022  11.173
70734W        W37517   5.144  36.418   0.961
70735W        W37518  19.485  44.487  12.056
70736W        W37519   9.007   4.721  14.471
70737W        W37520   1.458  14.380  11.597
70738W        W37521  31.151  10.868   2.625
70739W        W37522  24.311  39.395  12.355
70740W        W37523   6.695   7.334   2.882
70741W        W37524  44.519  24.516   0.260
70742W        W37525  40.985   2.731   2.733
70743W        W37526  37.833   5.522  13.378
70744W        W37527  24.274  37.718  11.326
70745W        W37528  28.152  24.408  14.828
70746W        W37529  19.618  14.884  13.290
70747W        W37530  31.938  11.879   1.308
70748W        W37531  24.226  17.282  14.309
70749W        W37532   9.093  43.499  12.551
70750W        W37533  22.154  35.516  14.121
70751W        W37534  16.028  40.001   2.700
70752W        W37535  27.170  24.279   2.872
70753W        W37536  27.827  10.424  13.477
70754W        W37537  21.646  24.507   0.263
70755W        W37538  31.973   9.192  14.888
70756W        W37539  36.985  19.000   3.146
70757W        W37540   4.439  28.533   5.088
70758W        W37541   3.348  17.820  12.232
70759W        W37542  27.124  33.864   3.661
70760W        W37543  37.765  42.005   0.369
70761W        W37544  18.094  40.365   2.861
70762W        W37545  40.967  21.630  11.208
70763W        W37546   1.036  10.263   1.975
70764W        W37547  25.232  28.948   5.099
70765W        W37548  28.405  38.358   2.243
70766W        W37549  25.037  22.951  13.277
70767W        W37550  37.115   3.860   1.228
70768W        W37551  28.062  13.811   4.851
70769W        W37552  22.493  21.180   0.618
70770W        W37553   7.908  15.052   3.600
70771W        W37554   3.962  25.929   2.645
70772W        W37555  40.368  28.887   4.243
70773W        W37556   2.483   0.333  12.989
70774W        W37557  20.494  40.942  11.984
70775W        W37558  23.453  43.737  14.721
70776W        W37559   1.829  30.861  12.929
70777W        W37560  35.451  30.134   4.617
70778W        W37561  19.294   1.145   0.022
70779W        W37562  31.612   6.373   2.103
70780W        W37563  30.809  36.885   1.670
70781W        W37564  13.912  37.096  14.655
70782W        W37565  43.056  23.917  14.436
70783W        W37566  26.503   4.689   3.410
70784W        W37567   9.981  26.026   0.489
70785W        W37568  28.475  38.933   2.914
70786W        W37569  26.061  41.496   1.303
70787W        W37570  13.639  35.015  12.335
70788W        W37571  35.844  31.420  12.787
70789W        W37572  19.480  41.822   2.327
70790W        W37573  31.310  18.559   9.849
70791W        W37574  39.409  30.356  14.408
70792W        W37575  13.430  12.856  11.101
70793W        W37576  35.946  33.227   4.283
70794W        W37577  35.866  27.899   4.163
70795W        W37578  18.703  30.663   0.393
70796W        W37579   8.346   3.013  11.449
70797W        W37580  13.725  25.997  10.706
70798W        W37581  22.540   0.261   3.769
70799W        W37582  12.577  25.090  11.526
70800W        W37583   9.113  31.161  12.988
70801W        W37584  40.771  41.283  13.735
70802W        W37585  40.162  19.236  13.801
70803W        W37586  34.183   4.771   0.360
70804W        W37587  17.584  40.369   0.752
70805W        W37588   7.752  10.556  13.837
70806W        W37589   6.158  41.928   0.347
70807W        W37590  19.638  41.525   1.748
70808W        W37591  20.510  36.213   3.233
70809W        W37592   3.743  44.989  10.241
70810W        W37593  30.241   6.457   2.123
70811W        W37594  27.411  31.347   2.808
70812W        W37595  20.082  35.935   1.983
70813W        W37596  12.421   2.833   4.377
70814W        W37597  32.053  10.302   1.994
70815W        W37598  23.175  13.763  14.245
70816W        W37599  33.282   1.303   4.278
70817W        W37600  27.321  12.163   4.188
70818W        W37601  26.997  11.450  13.323
70819W        W37602  31.563  35.309   0.884
70820W        W37603  22.984  35.684  11.036
70821W        W37604  21.283  30.083   1.741
70822W        W37605  39.014  33.619   0.239
70823W        W37606  28.330  13.050  13.223
70824W        W37607   0.778  16.964   4.625
70825W        W37608   0.051  43.999   4.149
70826W        W37609  26.283  35.855  12.251
70827W        W37610  17.548  28.014   2.784
70828W        W37611  21.228  25.116  11.655
70829W        W37612  30.611  36.806   2.133
70830W        W37613  30.842  29.962  11.449
70831W        W37614  35.245  26.609   0.742
70832W        W37615  15.558  44.225  10.078
70833W        W37616  35.253  40.777   0.482
70834W        W37617  30.283  32.212   1.909
70835W        W37618   4.889  23.904   5.033
70836W        W37619  23.382  40.930   0.289
70837W        W37620  10.326  41.275  10.236
70838W        W37621  41.498  25.047   0.707
70839W        W37622  14.624  39.745   1.284
70840W        W37623  36.643   9.446   0.291
70841W        W37624  28.027   9.402  13.644
70842W        W37625  12.325  23.845  10.751
70843W        W37626   9.245  32.860   2.094
70844W        W37627  40.592  36.571  14.925
70845W        W37628  12.058   2.473   4.238
70846W        W37629  15.645   8.199   0.967
70847W        W37630   2.419   4.781   1.979
70848W        W37631  26.046  38.474  13.717
70849W        W37632   1.689  43.317   4.858
70850W        W37633  36.889  11.755   2.723
70851W        W37634  44.412  32.384  13.893
70852W        W37635  27.753  32.067   0.939
70853W        W37636  28.026  25.892   2.685
70854W        W37637   2.617  41.786  12.436
70855W        W37638   0.442  35.136  12.002
70856W        W37639  39.311   3.065  12.927
70857W        W37640  24.508  21.195   2.336
70858W        W37641   2.228  16.298  11.428
70859W        W37642  22.019  42.967  10.939
70860W        W37643  44.228  37.256  11.467
70861W        W37644  36.373  13.190  10.526
70862W        W37645  10.071   1.675  13.829
70863W        W37646  40.054   7.299   0.469
70864W        W37647  18.166  26.651   1.963
70865W        W37648  29.182  12.064   3.690
70866W        W37649  27.498  37.748   0.320
70867W        W37650   2.723  44.097   1.796
70868W        W37651  18.825  39.878   0.999
70869W        W37652  31.510  12.815   4.894
70870W        W37653  35.366  16.331  12.712
70871W        W37654   0.382  19.985   3.803
70872W        W37655  42.072  17.582   4.897
70873W        W37656  10.443  26.173  10.124
70874W        W37657  37.097  33.381   4.849
70875W        W37658  14.601   4.324  10.454
70876W        W37659  29.201  26.491  14.831
70877W        W37660  34.191  40.922   3.744
70878W        W37661  31.384   6.247  12.843
70879W        W37662  38.462  32.202   4.872
70880W        W37663  33.468   8.847  12.577
70881W        W37664  20.741  20.543   0.659
70882W        W37665   7.867   0.867   0.931
70883W        W37666  18.264  20.125   1.399
70884W        W37667   3.885  24.483  11.987
70885W        W37668  29.459  26.915   2.641
70886W        W37669   0.517  20.403   0.434
70887W        W37670  14.641   6.161   4.915
70888W        W37671   4.389  40.454  12.911
70889W        W37672  29.029  39.641   3.156
70890W        W37673  22.035  35.338  13.102
70891W        W37674   3.658   1.986  13.407
70892W        W37675   2.756   5.785  12.434
70893W        W37676  28.871  21.675  14.623
70894W        W37677  22.944   6.878  12.410
70895W        W37678  15.190   7.053   4.183
70896W        W37679  12.659  16.472   1.899
70897W        W37680   6.782  23.554   2.435
70898W        W37681   3.718  38.346   1.152
70899W        W37682  44.575  33.304  11.605
70900W        W37683  20.214  19.600  13.263
70901W        W37684  34.381  27.479   4.654
70902W        W37685  40.865  28.956   4.456
70903W        W37686  24.459  24.073   4.973
70904W        W37687  30.061  40.758  11.841
70905W        W37688  26.579   3.501  13.025
70906W        W37689  31.941  13.631   4.936
70907W        W37690  27.379  35.913  10.680
70908W        W37691  40.493  12.585   3.654
70909W        W37692  18.650  32.875   1.982
70910W        W37693  24.150  17.132   4.050
70911W        W37694   3.390  44.518   2.226
70912W        W37695  25.811  12.736   4.640
70913W        W37696   5.346  20.276  12.885
70914W        W37697  33.390  15.897   4.723
70915W        W37698  30.947  27.231   4.179
70916W        W37699   0.910  21.488  12.369
70917W        W37700   9.735  15.387  11.952
70918W        W37701  34.180  41.881  13.528
70919W        W37702  36.494   3.192  13.345
70920W        W37703  29.948  30.927  13.927
70921W        W37704  30.083   7.614  10.386
70922W        W37705  17.534   0.372   1.791
70923W        W37706  32.109  17.604  11.036
70924W        W37707  15.581  31.608  11.973
70925W        W37708  33.517  25.233  13.464
70926W        W37709  25.640   8.913   3.726
70927W        W37710   9.671   5.247  13.064
70928W        W37711  32.124  42.984  10.718
70929W        W37712  10.242  25.780  13.389
70930W        W37713   6.767  29.608   3.940
70931W        W37714  31.175  30.169   2.141
70932W        W37715  33.070  26.405   0.535
70933W        W37716  20.487  23.742  12.445
70934W        W37717  33.740  40.549   1.628
70935W        W37718  40.340  24.574   4.214
70936W        W37719  34.117  25.002  11.599
70937W        W37720  28.487  32.657  13.123
70938W        W37721  25.702  18.192   3.597
70939W        W37722  27.132   4.908  14.756
70940W        W37723  21.945   5.797   3.237
70941W        W37724  25.521  35.914   2.033
70942W        W37725  43.275   7.729  14.431
70943W        W37726  38.779  35.074  11.432
70944W        W37727   0.355  11.875   0.207
70945W        W37728   0.734  21.559   1.769
70946W        W37729  36.754  35.388  11.750
70947W        W37730  34.867   5.255  12.428
70948W        W37731   2.947  25.238  14.801
70949W        W37732  28.669  38.570  11.815
70950W        W37733   1.621   9.364  12.459
70951W        W37734  17.649  30.661  14.253
70952W        W37735  41.860  10.949  13.501
70953W        W37736   3.775  31.212   3.112
70954W        W37737  26.928  42.377  13.769
70955W        W37738  22.235  24.814  10.163
70956W        W37739  22.848  10.322  13.760
70957W        W37740   3.818  13.709   1.135
70958W        W37741   5.563  27.096   3.108
70959W        W37742   9.708  12.925  11.628
70960W        W37743   0.375  11.116   0.281
70961W        W37744  30.480   1.493   1.848
70962W        W37745   6.899  25.565  12.317
70963W        W37746  12.782  35.860   3.365
70964W        W37747  18.700  15.307   0.553
70965W        W37748  25.623  26.253  13.504
70966W        W37749  21.150  21.328   1.072
70967W        W37750  33.496  20.897  11.169
70968W        W37751   4.943  21.716  13.540
70969W        W37752  32.458  32.952  10.620
70970W        W37753  10.278  18.553   0.497
70971W        W37754  42.867   9.338   3.656
70972W        W37755   1.637  27.476   1.337
70973W        W37756  20.118  30.043  12.833
70974W        W37757  25.981  13.634   3.251
70975W        W37758   3.889  21.140  13.901
70976W        W37759  32.125  30.172   0.422
70977W        W37760  38.772   9.408  13.472
70978W        W37761  44.442  11.366  10.170
70979W        W37762  22.984  15.238   0.930
70980W        W37763  26.290  27.984   2.216
70981W        W37764  24.688  42.799  12.694
70982W        W37765  25.213  36.545   2.188
70983W        W37766   1.851  35.390  10.777
70984W        W37767  19.673  19.151  11.645
70985W        W37768  26.016  18.383  12.956
70986W        W37769  28.881  26.793  14.398
70987W        W37770  23.430   8.899   3.750
70988W        W37771   2.584   6.377  13.047
70989W        W37772   2.861   5.377  10.633
70990W        W37773  11.766  25.650   3.715
70991W        W37774   8.642   2.250   4.600
70992W        W37775  16.586  38.992  13.387
70993W        W37776   4.944  44.296  13.533
70994W        W37777   4.894  39.429   4.665
70995W        W37778   0.726  43.034  12.153
70996W        W37779  27.927   8.207   2.929
70997W        W37780  12.278  43.542  14.919
70998W        W37781  16.867   1.386   0.710
70999W        W37782  38.464   3.814   4.729
71000W        W37783  27.927   3.778  13.043
71001W        W37784  39.173   6.311  13.340
71002W        W37785  40.101  33.403   3.235
71003W        W37786  15.714  32.905   1.517
71004W        W37787  31.528  43.220  12.504
71005W        W37788  35.525  26.468   3.298
71006W        W37789  40.948  28.197  14.291
71007W        W37790  31.947  22.300   4.581
71008W        W37791  43.825  37.996  12.611
71009W        W37792  14.080  31.428  10.545
71010W        W37793  37.281  13.153   1.816
71011W        W37794  24.620  24.338   3.532
71012W        W37795  14.822  30.528  14.391
71013W        W37796  35.501  41.583  12.748
71014W        W37797   1.255  31.066  13.574
71015W        W37798   3.319  15.327  11.562
71016W        W37799  26.577   9.362  12.914
71017W        W37800  31.076  12.466   0.661
71018W        W37801  25.227   3.435   1.414
71019W        W37802  35.057  23.748  13.310
71020W        W37803  18.142  23.213   3.156
71021W        W37804  27.391  35.833   1.731
71022W        W37805  20.778  44.519  13.597
71023W        W37806  42.724   0.724   0.999
71024W        W37807  22.099   4.301  13.826
71025W        W37808  18.558  42.336   0.003
71026W        W37809  28.957   1.268  11.146
71027W        W37810  44.232  19.868  11.202
71028W        W37811  11.198  13.082  12.089
71029W        W37812   5.837  17.207  12.499
71030W        W37813  32.155  30.089  13.135
71031W        W37814  40.345  42.410   0.896
71032W        W37815  23.933  34.426   0.858
71033W        W37816  43.759   3.294   0.884
71034W        W37817   5.378  39.491  13.896
71035W        W37818  17.087  30.943   3.682
71036W        W37819   0.860  34.484  13.032
71037W        W37820  20.275  37.020   1.080
71038W        W37821   4.337   2.013  12.929
71039W        W37822  21.387  24.058  13.482
71040W        W37823  16.742  34.034   3.736
71041W        W37824  26.969  36.781  12.083
71042W        W37825  23.825  31.055   2.383
71043W        W37826  30.007  42.799   3.126
71044W        W37827   1.463  19.591  10.999
71045W        W37828  41.982  31.039   0.247
71046W        W37829  17.116  15.801   0.402
71047W        W37830  22.238  30.599  11.472
71048W        W37831   8.243   3.829   0.937
71049W        W37832   2.368   4.031  11.097
71050W        W37833  28.536  14.748   2.979
71051W        W37834  21.499  44.173   4.536
71052W        W37835  33.578  30.606   0.789
71053W        W37836  36.342  10.763  10.748
71054W        W37837  33.423  36.111   0.769
71055W        W37838   1.969  29.467   2.017
71056W        W37839  16.973  37.395  14.857
71057W        W37840  15.107   3.214   4.223
71058W        W37841  22.169   5.491   3.611
71059W        W37842  38.951  21.732   4.961
71060W        W37843  31.824  26.945   2.269
71061W        W37844  38.998   2.336   0.558
71062W        W37845   2.987  31.679   0.393
71063W        W37846  44.049  14.824   4.060
71064W        W37847   2.842  14.483   4.590
71065W        W37848  18.576  18.270  12.889
71066W        W37849  44.305  28.113  12.140
71067W        W37850  44.838  12.592   1.368
71068W        W37851  19.211  30.937  11.141
71069W        W37852  27.438  23.064  12.706
71070W        W37853   6.864  38.182  11.187
71071W        W37854  21.736   7.086   2.634
71072W        W37855  19.238  35.208  13.953
71073W        W37856   5.741  26.160   4.546
71074W        W37857  13.177  27.090  12.797
71075W        W37858  25.686  40.858   2.909
71076W        W37859   9.650   1.582   3.520
71077W        W37860   9.152  43.888  11.183
71078W        W37861  41.400  34.937  13.875
71079W        W37862  43.841  21.456   0.253
71080W        W37863  31.469  23.800   1.000
71081W        W37864  16.337  39.345  14.028
71082W        W37865  28.748  11.568  12.089
71083W        W37866  33.131  20.378  12.222
71084W        W37867  43.988  31.000  13.803
71085W        W37868  10.379  42.119   0.467
71086W        W37869  42.743   1.341   2.735
71087W        W37870  41.302   2.415  12.040
71088W        W37871  34.629  14.804  14.369
71089W        W37872  33.864   0.211  12.503
71090W        W37873   4.850  18.591   0.615
71091W        W37874  21.179  39.597   0.780
71092W        W37875  33.076  43.319  13.841
71093W        W37876   0.436  43.939  14.243
71094W        W37877  31.868  10.783  11.477
71095W        W37878  39.489  18.551  11.888
71096W        W37879  21.483  21.564  11.021
71097W        W37880  37.089   3.361   0.306
71098W        W37881  37.857  35.134   2.385
71099W        W37882  40.614  30.065   3.746
71100W        W37883  24.723  21.948   4.498
71101W        W37884  33.978  35.356   2.098
71102W        W37885  31.139  34.417   0.837
71103W        W37886  43.522   6.399  10.607
71104W        W37887  18.148  14.830  14.420
71105W        W37888  23.827  32.380   0.720
71106W        W37889  23.956  26.845   0.760
71107W        W37890  26.501  11.066   2.291
71108W        W37891  20.593  34.569   1.001
71109W        W37892  22.120   3.212   0.671
71110W        W37893   2.850  39.572   4.689
71111W        W37894  25.284  35.694   0.323
71112W        W37895   7.731   4.885  11.084
71113W        W37896  12.526  39.882  12.435
71114W        W37897  16.819  30.688  14.013
71115W        W37898   7.345  34.388   1.716
71116W        W37899   9.001  26.562   4.605
71117W        W37900  17.369  39.459  14.568
71118W        W37901  14.663  43.707   1.532
71119W        W37902  17.499   7.238   4.281
71120W        W37903  35.017  43.341   0.494
71121W        W37904   5.480  10.219   3.436
71122W        W37905   7.486  12.713   2.807
71123W        W37906   0.206  29.732   1.410
71124W        W37907  38.399  24.025  12.404
71125W        W37908   7.807  27.022   3.013
71126W        W37909   8.375  12.154   0.796
71127W        W37910  26.177  34.604   2.785
71128W        W37911   3.436   1.655  10.696
71129W        W37912  31.696  28.014  14.059
71130W        W37913  27.138  37.083  13.407
71131W        W37914  19.149  13.517   1.246
71132W        W37915  13.679  30.142   2.132
71133W        W37916  26.681  37.897   3.799
71134W        W37917  37.893   9.240   1.969
71135W        W37918  27.994  22.897  13.997
71136W        W37919  31.699   2.293   0.293
71137W        W37920  37.650  44.728  10.735
71138W        W37921  14.139  12.202   0.461
71139W        W37922  25.834  22.509  12.044
71140W        W37923  15.380  35.455  12.013
71141W        W37924  18.221   3.964   2.874
71142W        W37925   2.829  33.119   4.345
71143W        W37926  27.649  22.775   3.903
71144W        W37927  12.845  21.221  14.053
71145W        W37928  41.957  38.436  14.777
71146W        W37929  18.511  36.279   9.913
71147W        W37930   7.403   3.439  14.393
71148W        W37931  39.590  39.543  14.290
71149W        W37932   7.763  11.318  13.560
71150W        W37933  12.340  17.119   4.863
71151W        W37934   8.477  10.891   0.295
71152W        W37935  34.410  33.367  11.126
71153W        W37936  39.239  21.155   4.124
71154W        W37937  31.045  17.091  11.736
71155W        W37938   6.802  14.329   4.883
71156W        W37939  20.105  19.231   4.691
71157W        W37940  16.362  16.282  12.297
71158W        W37941  30.161  26.208   3.717
71159W        W37942  24.556  18.452   2.167
71160W        W37943  44.376  40.938  11.877
71161W        W37944  19.014   8.421   3.771
71162W        W37945   5.892  10.214  11.450
71163W        W37946  23.115  13.616   4.973
71164W        W37947   6.659  43.437   2.650
71165W        W37948  41.987  32.351   1.869
71166W        W37949  38.801  14.431  12.910
71167W        W37950  42.729  29.796  14.474
71168W        W37951  29.104  30.415  14.979
71169W        W37952  31.295  24.400   4.002
71170W        W37953  42.565  21.129   3.325
71171W        W37954  34.534  31.983   1.646
71172W        W37955  35.928   3.837  14.589
71173W        W37956   6.436  10.677   2.707
71174W        W37957  24.791  34.972   2.958
71175W        W37958  23.218  26.904  10.763
71176W        W37959  13.956  41.293   9.310
71177W        W37960  15.562  27.264  14.912
71178W        W37961  20.517  21.548   4.561
71179W        W37962  22.235  19.024   0.753
71180W        W37963   3.168  40.970  12.462
71181W        W37964  23.224  32.643  14.711
71182W        W37965  33.117  18.645   5.069
71183W        W37966  35.522  13.076   3.307
71184W        W37967  24.220  39.063   4.159
71185W        W37968  33.995  11.001   0.309
71186W        W37969  11.604   6.962   2.566
71187W        W37970  42.560  41.384  10.777
71188W        W37971  18.647   4.719  12.153
71189W        W37972  42.020  11.288  12.528
71190W        W37973   4.699   0.562  14.838
71191W        W37974  22.559  27.999   3.668
71192W        W37975  33.958  27.722   1.516
71193W        W37976  37.658  43.164   2.286
71194W        W37977  14.640  22.092   4.570
71195W        W37978  15.307  14.275  13.667
71196W        W37979   2.988   8.621  14.398
71197W        W37980  41.815  11.151  12.056
71198W        W37981  22.146   0.567  14.196
71199W        W37982  16.314  22.581  14.838
71200W        W37983  11.781  25.306  14.517
71201W        W37984  41.714  18.652   2.865
71202W        W37985  21.147  44.288   0.325
71203W        W37986  23.533  34.609  12.180
71204W        W37987  32.508  43.301  14.006
71205W        W37988  34.420  13.216   1.987
71206W        W37989  12.342  21.936  14.009
71207W        W37990  21.517  31.370  13.873
71208W        W37991  17.331  11.090  11.788
71209W        W37992  26.427  35.260   0.185
71210W        W37993   7.565  33.820   4.094
71211W        W37994  40.106  42.582  12.981
71212W        W37995  19.012  34.937   2.677
71213W        W37996  12.191   6.752  14.092
71214W        W37997   3.314  23.956  10.753
71215W        W37998   2.290  34.818  11.282
71216W        W37999  27.148  37.777   2.802
71217W        W38000  28.067  20.724  14.934
71218W        W38001  16.126   1.474   1.648
71219W        W38002   0.279  40.859   2.131
71220W        W38003   2.932   9.654   2.630
71221W        W38004  39.648  15.036   4.648
71222W        W38005  26.188  44.797   4.036
71223W        W38006  24.049  38.037  13.693
71224W        W38007   9.601  10.106   0.490
71225W        W38008   2.231  16.106  14.596
71226W        W38009  27.961  23.684   0.377
71227W        W38010  12.357   2.882  11.632
71228W        W38011  43.585  36.291   0.826
71229W        W38012  33.180   2.936  14.460
71230W        W38013   7.207  44.061  10.432
71231W        W38014  31.084  10.237  13.085
71232W        W38015   9.147  24.185   1.184
71233W        W38016  14.854   4.701  14.910
71234W        W38017  43.953   4.200   2.904
71235W        W38018   9.419  41.331   0.918
71236W        W38019  35.102  38.441  11.001
71237W        W38020  27.669  44.390   2.824
71238W        W38021  13.675   4.719  14.174
71239W        W38022   3.190  32.485  14.852
71240W        W38023  33.051  29.168   1.462
71241W        W38024  22.035  15.640  13.558
71242W        W38025  31.963   6.029   4.613
71243W        W38026   7.305  39.039   2.781
71244W        W38027  36.275  17.552  14.359
71245W        W38028  35.468   1.811   0.729
71246W        W38029  19.199  34.692   3.586
71247W        W38030  18.857  13.148  13.517
71248W        W38031  23.173  28.498   0.430
71249W        W38032  25.734  12.567   0.912
71250W        W38033   1.703  41.471   0.483
71251W        W38034  12.655  44.808  14.929
71252W        W38035   9.278  32.182  11.145
71253W        W38036  44.515  43.417  13.889
71254W        W38037  27.109   4.709  14.262
71255W        W38038  35.087  11.674   2.236
71256W        W38039  17.158   4.752   2.664
71257W        W38040  38.623   4.297   2.897
71258W        W38041  11.926   5.337   2.043
71259W        W38042  18.066  33.833  11.869
71260W        W38043  24.011   1.856   4.077
71261W        W38044   1.414  29.208  12.854
71262W        W38045  40.539  39.061  11.626
71263W        W38046   6.740   5.388   0.319
71264W        W38047   8.452   7.743  11.139
71265W        W38048  29.436  18.333   2.412
71266W        W38049  42.479  22.571  11.322
71267W        W38050  32.560  28.053  10.582
71268W        W38051  30.704  27.184  12.365
71269W        W38052  25.785  36.042  12.150
71270W        W38053   2.832   5.134  13.797
71271W        W38054  25.905  26.253   5.504
71272W        W38055   7.087  43.103   1.865
71273W        W38056  43.057  11.136  12.469
71274W        W38057   5.832  19.221  12.353
71275W        W38058  36.388  12.755  13.482
71276W        W38059  30.854  11.870  13.014
71277W        W38060  10.923   1.299  11.754
71278W        W38061  32.891  22.303   0.402
71279W        W38062  39.923  17.799  12.928
71280W        W38063   6.575  40.910  11.099
71281W        W38064   2.915  23.593  11.566
71282W        W38065  35.987  41.978  11.631
71283W        W38066  16.065  16.185  11.879
71284W        W38067  16.387  35.328   1.847
71285W        W38068  32.172   8.406   1.846
71286W        W38069  31.194  25.950   1.353
71287W        W38070  14.748   1.798   2.578
71288W        W38071  10.698  41.477   3.296
71289W        W38072  19.587   9.514   2.371
71290W        W38073  27.232  17.289  12.565
71291W        W38074  30.023  29.567  11.429
71292W        W38075  31.156  29.155  14.303
71293W        W38076  44.021   6.484   2.352
71294W        W38077   6.348   9.496   3.067
71295W        W38078  20.473   7.473  11.213
71296W        W38079  22.221  44.907   5.548
71297W        W38080  34.358  41.269  13.165
71298W        W38081  17.771  29.567  10.893
71299W        W38082  17.677   1.177   1.152
71300W        W38083  40.117  14.645  13.872
71301W        W38084  16.568   8.258  11.142
71302W        W38085  37.330  26.505   0.914
71303W        W38086  22.490  20.134   2.706
71304W        W38087   9.638  26.441   4.376
71305W        W38088  34.313   7.495   2.316
71306W        W38089  13.367  28.231   3.221
71307W        W38090   7.644   7.322   4.772
71308W        W38091  18.041  36.550   0.472
71309W        W38092  25.647  42.669  14.653
71310W        W38093  11.294  20.613  14.445
71311W        W38094  15.208   2.066   0.213
71312W        W38095  28.703  12.278   3.342
71313W        W38096   1.001  24.400   1.936
71314W        W38097  40.044  44.301   0.246
71315W        W38098  37.238  28.087  12.857
71316W        W38099  26.998  19.574   1.686
71317W        W38100  29.994  22.673   0.876
71318W        W38101  32.614  32.074   0.435
71319W        W38102   8.197  23.233   0.883
71320W        W38103  31.926  26.039   0.829
71321W        W38104  20.878  41.381   2.792
71322W        W38105  37.766  12.697  11.148
71323W        W38106  22.606  44.756   3.890
71324W        W38107  44.255  38.161   3.257
71325W        W38108  30.712  44.823  12.126
71326W        W38109   5.622  32.940   3.540
71327W        W38110  38.678   9.963  12.530
71328W        W38111  38.363  30.579   3.825
71329W        W38112  40.939  38.800   4.370
71330W        W38113  11.162  12.897  13.432
71331W        W38114   5.487  35.292  14.833
71332W        W38115   9.939  15.605   3.618
71333W        W38116  14.589  26.767   0.421
71334W        W38117   5.286  13.679   0.530
71335W        W38118  21.387  38.511   4.065
71336W        W38119   2.087  29.730   0.395
71337W        W38120  42.285   3.382   3.611
71338W        W38121   1.487  26.423  13.847
71339W        W38122  27.400  38.282   3.270
71340W        W38123   2.855  43.832   2.277
71341W        W38124  19.599  19.803  14.876
71342W        W38125   9.660  20.003  10.967
71343W        W38126  37.223   7.568   2.690
71344W        W38127  36.487  26.241  12.277
71345W        W38128  33.556  37.878  14.191
71346W        W38129   3.364  10.447   1.292
71347W        W38130  16.168  42.984   1.749
71348W        W38131   3.291   7.357  13.157
71349W        W38132  43.796  13.552  12.550
71350W        W38133   8.844  43.992   0.257
71351W        W38134  10.507  28.111   0.434
71352W        W38135  30.096  21.713  13.648
71353W        W38136  22.890  42.524   1.134
71354W        W38137   6.159  34.039   1.314
71355W        W38138   1.302  19.186  12.106
71356W        W38139  34.546  30.810   0.358
71357W        W38140  40.090  44.074   1.573
71358W        W38141  38.980  44.690  11.180
71359W        W38142  35.859  14.206  14.573
71360W        W38143   7.264  26.631   3.107
71361W        W38144  27.356  12.755  14.036
71362W        W38145  25.067  26.709  11.798
71363W        W38146  23.991  13.097   1.729
71364W        W38147  19.246  31.583  12.139
71365W        W38148  17.554  19.173   0.250
71366W        W38149  26.941  24.742   0.175
71367W        W38150  26.423  20.589   3.239
71368W        W38151  27.730  41.923   2.620
71369W        W38152  19.584   0.690   0.231
71370W        W38153  15.380  42.713  11.391
71371W        W38154  27.668  28.004  13.550
71372W        W38155  16.615  24.213  12.207
71373W        W38156  27.954  10.785  14.086
71374W        W38157  40.986   3.369   2.372
71375W        W38158  28.222  42.617   4.114
71376W        W38159   1.268  11.667  11.859
71377W        W38160  28.977   6.442   0.782
71378W        W38161   6.306  19.392  10.836
71379W        W38162  15.188  44.745  14.953
71380W        W38163  22.048   4.486  11.592
71381W        W38164  38.017   6.985   2.720
71382W        W38165   5.662  12.441  12.569
71383W        W38166  43.440  36.775  14.910
71384W        W38167   3.247  42.410  12.535
71385W        W38168  34.896   5.127  14.724
71386W        W38169  30.986   4.699   1.285
71387W        W38170   9.604  28.151   4.658
71388W        W38171  32.122   9.928  13.969
71389W        W38172  31.912  18.006   2.400
71390W        W38173  25.529  28.700  13.403
71391W        W38174  40.549  10.601  11.604
71392W        W38175  20.447  34.476   3.750
71393W        W38176  39.769   7.417   0.024
71394W        W38177  39.956  43.951   2.050
71395W        W38178  33.589   8.315   0.323
71396W        W38179  10.188  14.129  12.981
71397W        W38180  15.821  14.265   1.555
71398W        W38181  43.062  35.373  14.998
71399W        W38182  10.755   2.856   3.160
71400W        W38183  26.104  10.482  12.749
71401W        W38184  22.069  26.114   2.816
71402W        W38185  10.279  29.359   0.965
71403W        W38186   5.813   6.968   3.182
71404W        W38187   5.823  29.714  13.325
71405W        W38188  29.013  18.063   1.477
71406W        W38189  36.352  18.963  12.606
71407W        W38190  24.129  44.758  12.206
71408W        W38191  17.073  12.749  12.132
71409W        W38192  44.225  39.769   0.416
71410W        W38193  40.869  12.716   3.341
71411W        W38194  15.116  11.846  13.383
71412W        W38195   9.608  16.184  13.876
71413W        W38196  33.214   7.331  14.368
71414W        W38197  38.320  16.042   0.474
71415W        W38198  22.232  41.572  13.832
71416W        W38199  39.684  44.514   0.972
71417W        W38200  13.654   1.728  11.654
71418W        W38201  35.147  24.186   3.909
71419W        W38202  24.100   5.833  12.508
71420W        W38203  34.018  16.765   4.628
71421W        W38204  40.580   5.341  12.929
71422W        W38205  13.077   1.180   0.710
71423W        W38206  34.497  26.506   1.583
71424W        W38207   4.808  40.228   0.196
71425W        W38208   6.704  36.577   3.168
71426W        W38209  24.156  18.592  12.397
71427W        W38210  35.981   1.360  14.346
71428W        W38211  17.741  36.563  14.517
71429W        W38212  42.977   0.934   1.992
71430W        W38213   7.350  39.906   1.796
71431W        W38214  19.578  31.617  11.537
71432W        W38215  42.485  18.951   2.547
71433W        W38216  19.817   6.733   2.364
71434W        W38217  23.498  32.281   0.337
71435W        W38218  12.773  35.608  12.957
71436W        W38219  20.105  17.523   1.465
71437W        W38220   4.698  19.656   2.173
71438W        W38221   5.215  27.950  11.858
71439W        W38222   0.062  18.791  12.556
71440W        W38223  11.809  25.689  13.697
71441W        W38224  35.685   0.234  14.894
71442W        W38225  38.628   9.767   4.428
71443W        W38226  41.274  25.775   0.428
71444W        W38227   7.897   1.321   1.202
71445W        W38228  23.676  15.226   4.202
71446W        W38229  15.480  30.453   2.866
71447W        W38230  20.677  13.026   3.687
71448W        W38231  12.587  27.796   2.802
71449W        W38232  10.879  17.667  11.621
71450W        W38233  44.899  27.981   1.398
71451W        W38234  24.739  22.609   4.792
71452W        W38235  11.247  23.913  14.292
71453W        W38236  16.794  44.607   1.264
71454W        W38237   6.204  44.802  14.059
71455W        W38238  27.597  32.665  12.879
71456W        W38239   5.433  13.972  14.499
71457W        W38240  36.180  26.124  13.045
71458W        W38241  25.580   2.669  11.246
71459W        W38242  21.862  34.665  12.521
71460W        W38243  20.079  19.604   2.283
71461W        W38244  18.794  43.836   2.008
71462W        W38245  32.194  19.523   0.876
71463W        W38246  12.311  11.452  11.332
71464W        W38247  18.012  11.667   1.896
71465W        W38248  38.317  21.762   0.297
71466W        W38249  30.049  22.591  14.774
71467W        W38250  35.156  11.194  11.558
71468W        W38251  15.762  21.610  12.793
71469W        W38252  32.495  16.745  11.202
71470W        W38253  42.068  16.319   4.253
71471W        W38254  28.673  30.129  14.748
71472W        W38255  28.599  42.266   0.874
71473W        W38256  35.909  30.967   4.690
71474W        W38257  39.475  39.293  12.923
71475W        W38258   3.197  36.835  12.914
71476W        W38259  31.828  37.518  14.831
71477W        W38260  14.428  35.449   2.930
71478W        W38261  17.516   4.214   4.180
71479W        W38262   8.255  20.185   4.843
71480W        W38263   0.074  22.014   3.554
71481W        W38264  44.729   0.969   1.477
71482W        W38265  14.284  35.904   2.724
71483W        W38266  13.019   8.175  13.798
71484W        W38267  27.157  19.741   3.156
71485W        W38268  29.297  41.616   1.883
71486W        W38269  18.188  26.655   3.332
71487W        W38270  28.435  27.106   2.755
71488W        W38271  39.211  22.835  10.459
71489W        W38272  26.158  39.375  12.395
71490W        W38273   0.428   7.813   3.347
71491W        W38274  11.178  39.888   2.964
71492W        W38275  38.420  12.864   3.184
71493W        W38276  35.855  35.063   4.277
71494W        W38277  31.984  39.761   9.889
71495W        W38278   0.836  36.419   2.568
71496W        W38279  21.737  31.104  14.712
71497W        W38280  23.538  44.901  11.084
71498W        W38281  42.326   6.034   0.271
71499W        W38282  38.558  30.737   2.825
71500W        W38283  39.336  12.061  10.742
71501W        W38284  43.974  32.375   0.258
71502W        W38285   1.794  11.420  14.872
71503W        W38286  37.524  41.716   2.384
71504W        W38287   5.164  38.082  13.954
71505W        W38288  12.635   4.359  13.293
71506W        W38289  32.525  18.743   1.606
71507W        W38290  36.424  31.693   0.454
71508W        W38291  37.033  26.662   1.885
71509W        W38292  17.128  40.279  14.496
71510W        W38293  26.472  29.499  11.126
71511W        W38294   4.922  21.468  11.178
71512W        W38295  18.164  36.138  14.991
71513W        W38296  14.705  31.498   3.244
71514W        W38297  43.791  37.360   3.272
71515W        W38298  16.576  26.236  10.459
71516W        W38299  34.875  24.124   1.777
71517W        W38300   3.201  19.447   1.366
71518W        W38301  42.164   1.888   4.551
71519W        W38302  15.087  25.587  14.676
71520W        W38303   9.372  24.976  14.353
71521W        W38304   0.773  12.918  13.390
71522W        W38305  16.896  43.395  13.016
71523W        W38306   8.778  17.616   4.617
71524W        W38307  32.414   2.340   3.107
71525W        W38308  32.354  44.387   3.162
71526W        W38309   3.679  24.659   3.435
71527W        W38310  36.942  44.993   1.291
71528W        W38311  35.395  12.312  11.584
71529W        W38312   0.342  40.390   1.897
71530W        W38313  32.418  33.857  12.114
71531W        W38314  19.583   4.392  13.376
71532W        W38315  24.433  39.019  13.466
71533W        W38316  14.242  39.460   0.260
71534W        W38317  39.736   2.166   0.961
71535W        W38318  19.746   5.366  13.510
71536W        W38319  24.026  23.070   0.255
71537W        W38320  37.301  34.431  14.966
71538W        W38321  29.032  11.812   4.137
71539W        W38322  14.091  29.192   3.130
71540W        W38323   5.193  38.404  13.517
71541W        W38324   2.288   8.011   1.473
71542W        W38325   7.310  14.765   1.406
71543W        W38326  33.633  28.981   4.299
71544W        W38327  30.941   2.853  12.917
71545W        W38328  19.331  22.806   4.203
71546W        W38329  11.036  42.546  12.514
71547W        W38330   5.713  38.107   0.352
71548W        W38331  23.664  39.072   1.277
71549W        W38332  39.855  41.854  13.518
71550W        W38333  28.059  27.060   4.523
71551W        W38334  26.690  21.194   1.285
71552W        W38335  35.472  10.421   1.317
71553W        W38336  15.106   0.725  11.912
71554W        W38337  10.119   5.789   3.718
71555W        W38338   5.026  30.969   0.843
71556W        W38339  40.326   5.426  12.498
71557W        W38340  36.527  39.523   4.775
71558W        W38341  14.123  16.717  12.907
71559W        W38342   3.399  26.009  13.969
71560W        W38343   7.824  11.610  14.009
71561W        W38344  22.145  44.985   2.343
71562W        W38345  38.841  36.776  12.097
71563W        W38346  40.867  40.348   1.465
71564W        W38347  13.617  23.596   1.910
71565W        W38348  38.335  33.096  11.070
71566W        W38349  39.956   8.878   2.449
71567W        W38350  27.327   2.710   3.534
71568W        W38351  43.673  10.077   4.561
71569W        W38352  27.742  11.901   1.417
71570W        W38353  37.810  16.639  13.465
71571W        W38354  20.948  14.190   1.435
71572W        W38355  20.551  36.823   2.890
71573W        W38356   0.385  26.586  13.592
71574W        W38357  17.276  38.515  12.885
71575W        W38358   9.778   7.328   0.710
71576W        W38359  20.907  37.647  12.042
71577W        W38360  13.965  18.599  13.483
71578W        W38361  14.198  32.300   3.318
71579W        W38362  40.060  24.613  13.488
71580W        W38363   3.381  29.654  11.078
71581W        W38364  17.111  11.469   1.240
71582W        W38365   5.951  26.108  11.885
71583W        W38366   4.792  34.038   3.714
71584W        W38367  23.981  26.651  14.463
71585W        W38368  37.477  22.482  13.946
71586W        W38369  28.550  33.952  13.352
71587W        W38370  35.507  32.179   2.756
71588W        W38371  25.369  11.650   4.179
71589W        W38372  25.646  23.547  13.807
71590W        W38373  22.204  10.853  11.521
71591W        W38374  23.909  38.471  11.672
71592W        W38375  44.974  10.733  10.701
71593W        W38376  44.505  21.211   2.677
71594W        W38377  12.898  40.228   0.196
71595W        W38378  10.265  27.183  12.922
71596W        W38379  25.612   2.333  10.207
71597W        W38380  19.690  20.261   2.084
71598W        W38381  18.202  41.076  13.494
71599W        W38382  10.916  41.824   4.636
71600W        W38383  26.304   2.253  10.866
71601W        W38384  20.418  16.228  14.429
71602W        W38385  23.479  24.554   9.783
71603W        W38386  24.558  16.243   2.521
71604W        W38387  27.241  36.839  13.939
71605W        W38388  40.400  41.704  12.860
71606W        W38389  11.209  12.916  14.324
71607W        W38390   3.796  18.686  10.739
71608W        W38391   4.346  17.542   4.350
71609W        W38392  43.689  43.383  10.987
71610W        W38393  39.729  17.944   2.809
71611W        W38394  32.604   9.357  12.972
71612W        W38395   5.677  15.229   2.464
71613W        W38396  38.854   7.698  10.369
71614W        W38397  23.588  15.194   2.298
71615W        W38398  36.246   3.100   2.745
71616W        W38399  42.271  27.077   2.015
71617W        W38400  18.645   9.792   0.794
71618W        W38401   3.355  32.571   1.635
71619W        W38402  33.595  33.486  12.014
71620W        W38403   7.313  18.033  13.743
71621W        W38404   7.662  41.850   0.888
71622W        W38405   4.275   8.481  12.216
71623W        W38406  33.065  36.633   4.107
71624W        W38407  15.876  19.247  12.994
71625W        W38408  34.452  30.456  13.567
71626W        W38409   3.431   7.542   2.022
71627W        W38410  43.559  36.417   3.382
71628W        W38411  20.202  36.489  12.394
71629W        W38412  44.832   9.867   3.233
71630W        W38413  34.616  10.588   1.472
71631W        W38414  32.399   6.281   4.581
71632W        W38415  43.957  11.892  11.518
71633W        W38416  22.832  34.442  12.855
71634W        W38417   8.885  33.510   0.031
71635W        W38418  14.374   0.037  13.805
71636W        W38419  25.086  23.541  11.563
71637W        W38420   1.783  40.537   2.259
71638W        W38421   5.431  26.969   0.744
71639W        W38422  32.577  11.107   4.374
71640W        W38423  37.469  31.365   1.840
71641W        W38424  24.951  25.521   3.955
71642W        W38425  38.503  21.619   4.445
71643W        W38426  14.564  34.898  11.191
71644W        W38427  36.519  15.588  13.057
71645W        W38428  36.428  40.051   4.821
71646W        W38429  27.958  19.164  13.047
71647W        W38430   9.187  34.783  14.792
71648W        W38431   8.474  16.276   4.692
71649W        W38432  14.594  20.108   0.048
71650W        W38433  35.524  42.860   3.320
71651W        W38434  34.121   9.659  12.572
71652W        W38435  32.638  11.775   4.064
71653W        W38436  31.083   5.681   2.878
71654W        W38437   3.769  16.194  12.417
71655W        W38438  23.121  30.216   2.078
71656W        W38439  30.702  43.743   2.791
71657W        W38440  43.312  25.103   0.341
71658W        W38441  36.169  35.480   4.162
71659W        W38442  38.945  34.661  13.552
71660W        W38443   6.833   4.855  13.302
71661W        W38444  38.574   3.772   2.775
71662W        W38445  37.828  17.019   3.543
71663W        W38446  38.850  19.976   4.775
71664W        W38447   5.154  15.655  11.612
71665W        W38448   8.869  24.143  14.730
71666W        W38449  23.451  14.304   3.726
71667W        W38450  19.590  19.150   0.356
71668W        W38451  39.841  17.260  14.002
71669W        W38452  27.645  20.178  14.397
71670W        W38453   7.290  28.968   4.123
71671W        W38454  31.601  37.375  13.796
71672W        W38455   3.508  12.689  13.029
71673W        W38456  31.263  42.371  11.421
71674W        W38457   3.836   2.823  13.055
71675W        W38458  17.115  31.461   3.698
71676W        W38459  39.805  13.508   5.015
71677W        W38460  35.578  31.821  11.923
71678W        W38461  20.864  27.200  13.531
71679W        W38462  15.084  39.510  12.879
71680W        W38463   6.880  37.847   3.987
71681W        W38464  40.809  41.396   2.493
71682W        W38465  38.229  27.976  12.911
71683W        W38466   6.723  28.936   4.218
71684W        W38467   0.847  15.551  10.609
71685W        W38468   1.518   3.507  14.312
71686W        W38469  44.487   2.276   1.942
71687W        W38470  21.695  13.700  10.736
71688W        W38471  11.059  13.089   3.751
71689W        W38472  28.296   2.390   1.231
71690W        W38473   1.632  15.802   5.064
71691W        W38474  10.142   3.653   3.697
71692W        W38475   6.587  22.435   3.813
71693W        W38476  34.035  19.237  14.390
71694W        W38477  20.668  21.741   1.744
71695W        W38478  15.330  35.636   4.142
71696W        W38479  19.659  26.272   1.533
71697W        W38480  12.695  22.832   2.010
71698W        W38481  30.131   1.305   0.005
71699W        W38482  37.876  21.537   1.061
71700W        W38483  25.097  16.634  14.980
71701W        W38484  28.667  18.483  12.822
71702W        W38485  25.677  44.163   2.237
71703W        W38486  38.580   2.280  14.843
71704W        W38487  41.959   6.904  11.160
71705W        W38488   0.560  23.665   0.705
71706W        W38489  15.195  24.109  12.348
71707W        W38490  30.178   1.258  14.032
71708W        W38491  16.969   5.851   1.086
71709W        W38492  20.743  32.425  11.153
71710W        W38493  30.628   5.397   0.808
71711W        W38494  38.445  42.050   3.338
71712W        W38495  29.199  25.485  14.890
71713W        W38496  19.141  34.416   4.577
71714W        W38497   3.904   4.917  10.990
71715W        W38498  11.382   5.887  11.988
71716W        W38499   1.823  15.120  12.025
71717W        W38500  21.308  28.637   1.322
71718W        W38501  25.035  34.119   2.617
71719W        W38502  30.874  34.403  12.512
71720W        W38503   5.683  41.846   4.108
71721W        W38504  24.997  24.679  12.389
71722W        W38505   5.780  39.989   2.010
71723W        W38506   7.809  25.958  11.579
71724W        W38507   8.957   2.635   0.426
71725W        W38508  18.397   6.237   4.252
71726W        W38509  15.248  13.776   3.244
71727W        W38510   3.734   1.058  12.030
71728W        W38511  38.547  25.759  12.118
71729W        W38512  19.559  24.335   4.204
71730W        W38513  16.630  19.235  10.390
71731W        W38514  19.618   3.370   1.172
71732W        W38515  13.870  15.853  14.220
71733W        W38516   5.453  20.744  14.742
71734W        W38517  42.956   9.923  10.777
71735W        W38518  36.184   1.983   1.061
71736W        W38519  26.903  24.740  12.764
71737W        W38520  36.830  34.495  12.755
71738W        W38521  39.339  24.621   1.226
71739W        W38522  26.137   0.174   1.682
71740W        W38523  22.026   5.670   1.238
71741W        W38524  15.948  21.598  14.523
71742W        W38525  23.253   7.423   2.167
71743W        W38526  29.167  37.221  11.607
71744W        W38527  25.684  43.511  10.630
71745W        W38528  23.559  13.130   0.354
71746W        W38529   0.947  13.361  14.551
71747W        W38530  14.536  43.927  11.562
71748W        W38531  18.161  26.021  12.138
71749W        W38532  40.326  25.543   4.376
71750W        W38533   5.803  19.562  10.632
71751W        W38534  19.760  27.530   3.112
71752W        W38535   6.328  39.848  13.822
71753W        W38536  35.207   5.442  10.378
71754W        W38537  10.300  21.893   4.087
71755W        W38538  41.297  29.237  11.239
71756W        W38539   1.231   7.352  11.142
71757W        W38540  32.962  31.468  12.554
71758W        W38541   1.758  35.937   3.322
71759W        W38542   2.931  18.104  14.048
71760W        W38543  36.945  38.692   3.315
71761W        W38544  14.601  44.701  13.378
71762W        W38545  22.134   7.742   0.301
71763W        W38546  21.527  27.043  12.461
71764W        W38547  44.108  43.535   1.245
71765W        W38548  15.807  38.514   0.953
71766W        W38549  12.408   4.267  13.758
71767W        W38550  29.530  16.190   3.327
71768W        W38551  16.216   3.512  12.142
71769W        W38552  41.797  22.598  11.144
71770W        W38553   3.386  25.797   1.653
71771W        W38554  27.101  43.485   2.252
71772W        W38555  24.035  28.122   4.070
71773W        W38556  12.090  39.054  13.813
71774W        W38557   6.000  31.658  11.113
71775W        W38558  16.145   2.683   4.841
71776W        W38559   5.765  26.879   1.520
71777W        W38560  44.945  14.620   1.184
71778W        W38561   1.290  34.311  11.046
71779W        W38562  26.990  43.176  13.421
71780W        W38563  33.990   7.716  14.761
71781W        W38564  41.746  41.370  13.492
71782W        W38565  44.276  41.960  13.331
71783W        W38566   5.828  24.217   3.126
71784W        W38567   0.543  20.467  12.918
71785W        W38568  23.651  22.938   9.791
71786W        W38569  22.059   1.258   1.827
71787W        W38570  17.837  12.850  13.581
71788W        W38571  33.149  15.725   3.764
71789W        W38572   3.681  36.153   3.156
71790W        W38573  16.201   9.405   1.394
71791W        W38574  31.225  32.565  12.047
71792W        W38575  32.628  21.274  12.181
71793W        W38576  28.177  35.279   4.957
71794W        W38577  17.051  13.275   1.920
71795W        W38578  10.333  17.735  10.324
71796W        W38579  37.067   0.407  13.894
71797W        W38580  30.864   2.355   4.164
71798W        W38581   2.753  16.328  11.955
71799W        W38582  12.398  38.058  13.337
71800W        W38583   0.534  43.876   4.016
71801W        W38584   5.795  36.499  13.176
71802W        W38585  13.905  38.242   4.321
71803W        W38586   3.318  41.574   9.876
71804W        W38587   4.502  31.065   0.814
71805W        W38588  25.073  37.266  10.187
71806W        W38589  16.380  30.379  13.937
71807W        W38590  19.204  12.233   0.853
71808W        W38591  38.938  28.816  11.658
71809W        W38592  11.913  30.233  11.170
71810W        W38593  37.618  18.687  11.601
71811W        W38594  31.351  39.213  11.998
71812W        W38595  40.271   5.793  12.901
71813W        W38596  13.579  13.335  10.646
71814W        W38597  28.654  16.832   0.704
71815W        W38598  33.105  21.142  11.533
71816W        W38599   5.531  29.202  13.916
71817W        W38600  42.473  13.302  14.669
71818W        W38601  10.286  20.137   4.574
71819W        W38602  44.897   7.374   0.885
71820W        W38603   9.117  26.613   2.672
71821W        W38604  39.050  12.207   0.760
71822W        W38605  33.543  37.424  12.078
71823W        W38606  19.458  35.314  14.838
71824W        W38607  42.402  36.600  13.554
71825W        W38608  31.139  42.247  14.885
71826W        W38609   9.050  39.176  13.870
71827W        W38610  35.109  12.663  12.567
71828W        W38611   5.750   0.961  14.981
71829W        W38612  41.106  38.230   3.512
71830W        W38613  41.459   2.608   2.943
71831W        W38614  28.657  22.138   0.548
71832W        W38615  25.921  34.332  13.016
71833W        W38616  44.318  21.256   4.872
71834W        W38617  33.579   2.636   3.642
71835W        W38618   9.640  15.666   1.765
71836W        W38619  27.960  31.888  14.058
71837W        W38620  40.315  39.018  14.543
71838W        W38621  16.698  33.958   0.567
71839W        W38622  34.563  17.467   4.578
71840W        W38623  27.830  31.028   4.956
71841W        W38624  12.908  22.669   4.922
71842W        W38625   0.349  29.153   2.304
71843W        W38626   8.276   1.489  11.519
71844W        W38627  26.205  15.143   1.427
71845W        W38628  27.936  24.289   2.421
71846W        W38629   7.410  14.373  11.384
71847W        W38630  37.970  22.548  12.891
71848W        W38631  28.626  14.530   0.979
71849W        W38632  23.674  35.552   2.315
71850W        W38633  39.580   3.038  13.939
71851W        W38634  37.458  28.622  12.200
71852W        W38635  37.462   7.280   1.034
71853W        W38636  15.275  18.309  12.849
71854W        W38637  43.158  13.699   1.787
71855W        W38638  15.502  12.233   4.526
71856W        W38639  14.703  16.110  13.655
71857W        W38640  31.588  31.540   1.283
71858W        W38641   6.319   6.812   4.876
71859W        W38642   0.968  27.114  10.859
71860W        W38643  43.480  23.444  12.474
71861W        W38644  33.352  15.219   3.166
71862W        W38645  19.344  14.842  14.744
71863W        W38646  19.268  18.320   1.612
71864W        W38647   6.621  36.366  14.085
71865W        W38648  21.643  26.613   4.030
71866W        W38649  44.448  31.598   3.006
71867W        W38650  33.228  30.778  14.829
71868W        W38651  24.340  38.660  12.988
71869W        W38652  43.856   8.718   1.756
71870W        W38653  19.059  17.374   1.818
71871W        W38654   3.857  24.163   0.032
71872W        W38655   3.211  18.740   0.260
71873W        W38656  42.820  31.354   1.790
71874W        W38657  17.834  40.560   3.280
71875W        W38658  40.882   8.820  14.986
71876W        W38659   7.722  27.943   4.594
71877W        W38660  20.223  25.679   0.885
71878W        W38661  29.389  13.150   1.018
71879W        W38662   1.549  42.808   2.246
71880W        W38663  11.826  38.790  14.604
71881W        W38664  37.032  26.920  11.939
71882W        W38665  33.040   1.878   0.939
71883W        W38666  21.234  29.049  13.534
71884W        W38667  37.530   4.678  13.043
71885W        W38668  12.439  40.014   2.194
71886W        W38669   3.687  38.859  14.999
71887W        W38670   8.830  41.820  13.370
71888W        W38671  28.059  11.364  13.380
71889W        W38672  33.550  24.282   3.236
71890W        W38673  36.328  29.880   3.142
71891W        W38674   0.945  15.955  14.421
71892W        W38675  30.702  39.811   1.514
71893W        W38676  32.028  43.010   3.590
71894W        W38677   1.459  43.839  13.300
71895W        W38678  12.381   9.680   0.998
71896W        W38679  22.955  22.421  12.147
71897W        W38680  13.870   9.217  12.173
71898W        W38681   4.867  35.770  14.876
71899W        W38682  20.432  44.589   4.601
71900W        W38683  25.033  11.011  12.941
71901W        W38684  17.172  38.593  11.878
71902W        W38685  11.343  34.373  14.488
71903W        W38686   7.002  30.230   1.173
71904W        W38687  44.721  28.436  14.817
71905W        W38688   2.513  14.603  14.817
71906W        W38689  29.217  43.532  13.923
71907W        W38690  32.493  35.123   3.795
71908W        W38691  39.927  15.348  11.630
71909W        W38692  15.320  34.679  13.029
71910W        W38693  38.219  19.232   1.181
71911W        W38694  39.511  21.531  13.044
71912W        W38695  44.082  43.061  14.949
71913W        W38696  34.794  31.075   4.077
71914W        W38697  28.494   2.515   3.737
71915W        W38698  13.060  18.597  14.391
71916W        W38699  18.216  19.390  11.061
71917W        W38700  41.042  13.022   9.820
71918W        W38701  15.958  42.545   1.517
71919W        W38702  33.938  24.669   1.485
71920W        W38703  34.871  18.746   3.673
71921W        W38704  23.813   1.783  14.044
71922W        W38705  17.564  15.724  13.388
71923W        W38706   2.112   3.692  11.818
71924W        W38707  33.144  37.442  12.995
71925W        W38708  11.263  18.858  11.719
71926W        W38709  20.482  35.091  13.298
71927W        W38710  41.904  11.597  14.385
71928W        W38711  10.669  35.477  13.475
71929W        W38712  43.654  26.741   4.401
71930W        W38713  39.377  31.357  10.411
71931W        W38714  24.062  15.812   1.811
71932W        W38715  41.444  36.943   3.120
71933W        W38716   3.269  31.526   1.709
71934W        W38717   6.332  40.220   3.144
71935W        W38718  12.132  15.216   0.726
71936W        W38719  13.315  22.692   1.208
71937W        W38720  43.393   4.771  13.178
71938W        W38721  39.297  42.093  12.745
71939W        W38722   1.524  32.827   0.679
71940W        W38723  11.760   4.527   0.956
71941W        W38724  17.319  33.944   4.662
71942W        W38725   8.642   2.957   0.687
71943W        W38726  44.473  40.789   2.625
71944W        W38727   3.217  17.022  14.329
71945W        W38728  23.087   7.957   1.286
71946W        W38729   4.311  29.762   4.059
71947W        W38730  20.659  42.107   4.909
71948W        W38731  35.095   6.845  11.728
71949W        W38732  23.014  44.826   5.066
71950W        W38733  37.849  32.846   0.965
71951W        W38734  27.620  26.986  12.363
71952W        W38735  23.608  41.403  14.507
71953W        W38736  20.784  31.579  13.452
71954W        W38737  39.048  26.173  14.987
71955W        W38738  10.750  19.814  12.137
71956W        W38739  26.000  12.889   2.154
71957W        W38740  27.992  15.840   3.393
71958W        W38741  43.078  33.601   4.205
71959W        W38742  10.266   0.856  14.944
71960W        W38743  38.873  42.355   3.207
71961W        W38744   3.671   2.338   0.437
71962W        W38745  39.258  21.810   1.766
71963W        W38746  10.430  25.206  10.215
71964W        W38747  31.499  22.677   2.367
71965W        W38748   7.614  21.758   0.323
71966W        W38749  32.623  27.700  11.970
71967W        W38750  19.162  14.403   0.033
71968W        W38751  34.389   8.998  11.235
71969W        W38752  31.352   3.844   2.890
71970W        W38753  19.635  41.774  10.731
71971W        W38754  25.818  15.113  12.619
71972W        W38755  30.863  42.442  10.436
71973W        W38756  24.993   6.322   4.724
71974W        W38757  38.884  30.458   3.121
71975W        W38758  15.307  12.441   1.928
71976W        W38759   9.466  14.751  11.218
71977W        W38760  24.951  26.513   1.356
71978W        W38761  39.484  33.705   4.849
71979W        W38762   7.655   7.155   2.842
71980W        W38763  10.266  17.544  11.846
71981W        W38764   3.941   6.168   2.657
71982W        W38765  15.907   4.867   3.791
71983W        W38766  32.195  42.459  10.970
71984W        W38767  29.083  17.143   0.835
71985W        W38768  23.076  11.188   3.900
71986W        W38769  33.971  40.224   4.194
71987W        W38770   9.651  11.654   1.783
71988W        W38771  19.752  17.320  12.967
71989W        W38772   3.989  33.412  14.135
71990W        W38773  40.899  30.643  13.402
71991W        W38774  18.934  30.181  12.558
71992W        W38775  33.515  33.340  12.891
71993W        W38776  12.069  20.582  11.328
71994W        W38777  26.001  14.771   0.428
71995W        W38778  24.977   5.801   1.034
71996W        W38779  40.614  33.569   3.305
71997W        W38780  43.020  16.102   3.019
71998W        W38781  35.086   4.121  13.454
71999W        W38782  22.560  36.023  13.531
72000W        W38783  31.386  27.044  13.010
72001W        W38784  26.142   9.787   1.669
72002W        W38785  10.816  24.520  11.423
72003W        W38786  32.190  13.115   0.431
72004W        W38787   0.052  11.834   2.635
72005W        W38788  44.346  38.806  12.427
72006W        W38789  42.548  21.129   0.792
72007W        W38790  30.425   3.322  14.995
72008W        W38791   8.579  40.823  14.185
72009W        W38792  38.848  22.714  13.904
72010W        W38793  13.542   3.378   1.899
72011W        W38794  40.628  36.504   4.124
72012W        W38795  36.437  43.601  13.908
72013W        W38796  31.083  16.834  14.461
72014W        W38797  19.172   9.617  11.007
72015W        W38798  32.491  12.848  14.004
72016W        W38799   7.370  21.367   3.499
72017W        W38800  26.632  17.133   1.948
72018W        W38801  40.859  12.383  13.424
72019W        W38802   2.285  21.218  10.768
72020W        W38803  33.027  40.061  13.337
72021W        W38804   6.560   7.707   3.179
72022W        W38805  44.593  34.469   3.113
72023W        W38806  15.462  18.577  14.266
72024W        W38807  24.924  19.099  11.891
72025W        W38808  23.229  24.562  10.232
72026W        W38809  17.223   8.877  13.207
72027W        W38810  31.549  24.011   2.759
72028W        W38811  18.209  19.152   4.422
72029W        W38812   6.484  32.126  12.581
72030W        W38813  41.645   6.405  10.500
72031W        W38814   0.872  22.758   0.312
72032W        W38815  42.769  23.566  13.485
72033W        W38816   0.524  35.717   4.069
72034W        W38817  41.095  25.086   1.608
72035W        W38818   1.220  44.202   2.812
72036W        W38819  16.686  14.557  11.102
72037W        W38820  16.081  27.871  12.081
72038W        W38821  29.559   4.963   4.625
72039W        W38822  37.649   9.948  11.100
72040W        W38823  25.158  24.944  14.606
72041W        W38824   1.822  22.890   0.289
72042W        W38825  27.104  15.373  13.465
72043W        W38826   8.678  29.414  14.764
72044W        W38827  34.753   9.268  11.480
72045W        W38828  44.295  27.147  11.847
72046W        W38829  14.314  42.807   2.615
72047W        W38830  31.153  38.435  12.880
72048W        W38831   6.676  18.330   2.114
72049W        W38832  31.047  12.736   4.660
72050W        W38833   3.171  18.682  12.448
72051W        W38834  26.255  14.145   4.146
72052W        W38835  28.626  16.274  10.719
72053W        W38836  36.235  43.419  13.456
72054W        W38837  35.187  30.104   2.007
72055W        W38838  35.585  42.991   2.264
72056W        W38839   8.097  33.329   0.715
72057W        W38840  12.715  23.073  10.379
72058W        W38841  27.367   7.708   2.207
72059W        W38842  40.410  10.430   0.894
72060W        W38843  29.215  33.976   4.437
72061W        W38844  20.497  13.978   3.666
72062W        W38845   0.562  22.182  12.629
72063W        W38846  39.416  32.293   2.404
72064W        W38847  13.325  17.608  11.618
72065W        W38848  10.233   3.798   4.474
72066W        W38849  28.621  17.083  12.446
72067W        W38850  34.178  30.063   1.606
72068W        W38851  41.538   8.221  11.817
72069W        W38852  22.788  23.568  11.019
72070W        W38853   2.986   7.217   3.268
72071W        W38854  23.000  44.723  12.459
72072W        W38855  41.978   3.871  14.967
72073W        W38856   7.706   4.969   2.587
72074W        W38857   9.564   5.789  12.461
72075W        W38858  22.713  34.593   3.215
72076W        W38859   7.143  38.754   4.679
72077W        W38860  43.364  19.589  14.564
72078W        W38861  20.155   9.491  12.909
72079W        W38862   8.220  22.990   4.573
72080W        W38863  37.324  40.698   2.330
72081W        W38864  19.598   6.546  11.979
72082W        W38865  35.252  34.656   4.868
72083W        W38866  17.176  30.391  10.646
72084W        W38867  21.686  27.491  12.203
72085W        W38868   8.728  37.480   2.812
72086W        W38869  20.910   4.726   4.067
72087W        W38870  13.222  17.298   0.799
72088W        W38871  15.289   3.266   2.705
72089W        W38872  28.195  31.327   1.234
72090W        W38873  34.017   1.775  11.711
72091W        W38874  36.090  38.184   4.187
72092W        W38875  37.538  28.935   3.849
72093W        W38876  24.477  39.883  12.373
72094W        W38877  18.491  14.202  12.572
72095W        W38878  40.591  36.485   0.996
72096W        W38879   3.484  20.737   0.993
72097W        W38880  38.287  34.334  14.788
72098W        W38881  29.412  27.598   1.719
72099W        W38882  27.425  32.415   4.570
72100W        W38883  17.731  12.707   4.912
72101W        W38884  19.784  32.990   3.173
72102W        W38885  44.292  25.174   1.294
72103W        W38886  11.360  27.919   0.403
72104W        W38887   5.160  34.529   0.199
72105W        W38888  29.177  19.617   4.423
72106W        W38889   5.301  16.042   2.117
72107W        W38890  25.953  20.558   4.104
72108W        W38891  11.347  16.674   3.628
72109W        W38892  37.342  25.280  12.856
72110W        W38893  12.878   8.555   2.781
72111W        W38894   3.687  35.953  13.265
72112W        W38895  44.484  18.296  10.905
72113W        W38896  10.161  30.352   1.322
72114W        W38897  19.723   9.300   3.832
72115W        W38898   7.733   0.348  13.444
72116W        W38899  14.639  41.521  11.628
72117W        W38900   6.733   6.896  11.645
72118W        W38901  28.126   7.369  13.387
72119W        W38902  10.417  40.873  13.020
72120W        W38903  28.574  43.244   3.509
72121W        W38904   9.853  28.595  11.982
72122W        W38905  31.664   7.836  12.007
72123W        W38906   6.151  35.054  11.076
72124W        W38907  39.811  16.718   4.627
72125W        W38908  16.364  15.653  14.949
72126W        W38909  27.647  31.448   2.330
72127W        W38910   6.396  32.150   0.708
72128W        W38911  31.052   5.345  11.060
72129W        W38912  35.521   4.631  14.511
72130W        W38913   4.723  30.113  12.103
72131W        W38914   9.797  21.134   3.117
72132W        W38915  44.987  30.406  10.657
72133W        W38916   5.458  36.990   4.148
72134W        W38917  42.189  12.291  11.102
72135W        W38918   5.689  12.474   3.279
72136W        W38919  22.466  14.997  14.569
72137W        W38920  15.275   1.484   3.655
72138W        W38921  29.996   5.749  10.978
72139W        W38922  33.912   5.315  13.858
72140W        W38923  19.360   3.239  11.925
72141W        W38924  30.792  32.507   4.637
72142W        W38925  41.367  42.349   2.270
72143W        W38926  15.317  32.412  13.375
72144W        W38927  26.731  18.277  14.235
72145W        W38928  22.686  36.014  14.471
72146W        W38929  36.525   1.816  10.550
72147W        W38930   0.246  30.503   3.962
72148W        W38931  36.495  32.693   0.809
72149W        W38932   8.879  22.774  14.536
72150W        W38933   7.555   7.705  11.183
72151W        W38934  26.918   3.062   4.868
72152W        W38935  12.883   9.222  11.215
72153W        W38936   2.290   1.361   1.687
72154W        W38937  15.565  35.628  12.504
72155W        W38938  40.338  28.212  13.818
72156W        W38939  44.289  24.659   2.962
72157W        W38940  31.441  18.171  11.960
72158W        W38941   3.260  27.422   0.087
72159W        W38942  32.938   9.057   3.588
72160W        W38943  23.806  42.616   0.672
72161W        W38944   0.262   4.894   2.336
72162W        W38945  44.897  40.374  11.270
72163W        W38946  39.361  37.443  10.958
72164W        W38947  26.974  36.046   1.979
72165W        W38948  24.653  38.141  14.363
72166W        W38949  19.181  13.561  14.298
72167W        W38950  11.571  22.524  11.662
72168W        W38951  16.181   4.354   1.819
72169W        W38952  22.030  39.842   0.786
72170W        W38953  16.817  10.862   2.749
72171W        W38954  18.059  28.876  14.835
72172W        W38955  13.283  16.635  13.942
72173W        W38956  28.210   0.170  13.844
72174W        W38957  11.993  13.386   3.607
72175W        W38958  25.569  31.671   1.908
72176W        W38959  24.562  30.717  11.370
72177W        W38960   4.641  40.194  13.884
72178W        W38961  25.756   4.449  14.859
72179W        W38962  38.822  43.024  13.858
72180W        W38963  15.151   9.857  11.215
72181W        W38964  25.672  22.295   0.894
72182W        W38965  17.201   5.643  13.766
72183W        W38966  41.358  15.837  12.272
72184W        W38967  31.838  37.158  12.474
72185W        W38968  18.196  41.899  13.931
72186W        W38969  23.158  26.632   2.122
72187W        W38970  23.600  22.798   0.355
72188W        W38971   7.824  30.840   3.182
72189W        W38972  28.254   3.747   1.631
72190W        W38973   1.950  26.082   2.772
72191W        W38974  37.670  37.103   1.746
72192W        W38975  36.486  39.309   0.421
72193W        W38976  24.094  18.824   3.395
72194W        W38977  18.324  11.222  14.719
72195W        W38978  32.898  24.258  13.910
72196W        W38979  16.331   4.528  12.013
72197W        W38980  19.512   5.695  12.944
72198W        W38981  20.788  39.994   3.499
72199W        W38982   1.358  24.600  11.257
72200W        W38983  38.954  31.031  10.672
72201W        W38984  33.892   8.752   0.296
72202W        W38985  42.530  21.888   0.780
72203W        W38986   7.413  38.997   4.173
72204W        W38987  44.581  11.772   4.552
72205W        W38988  34.939  42.209   0.361
72206W        W38989  39.481  34.475   2.279
72207W        W38990  12.978   4.029   3.281
72208W        W38991  33.890   1.904   2.262
72209W        W38992  31.094  37.928  10.769
72210W        W38993  12.043  19.111   0.307
72211W        W38994  15.258  30.044  13.275
72212W        W38995  15.559  13.658  14.439
72213W        W38996  28.528  35.563   1.816
72214W        W38997  19.901  28.467  13.049
72215W        W38998  33.702  29.211   0.222
72216W        W38999   2.091  15.323   3.653
72217W        W39000  16.345   2.995  12.377
72218W        W39001  35.272  13.321  12.828
72219W        W39002  24.222   6.307   1.140
72220W        W39003  17.679  37.049   3.319
72221W        W39004  14.568  33.681  10.530
72222W        W39005  35.619   3.957   1.733
72223W        W39006  21.017   9.761   0.479
72224W        W39007  14.389  18.686  13.747
72225W        W39008  38.584  19.199  11.948
72226W        W39009  25.105  38.814   4.072
72227W        W39010  32.868  18.513   0.788
72228W        W39011  11.476  29.030   0.988
72229W        W39012   0.506  15.931  10.683
72230W        W39013  38.837  21.990   0.862
72231W        W39014  23.039  32.082   0.985
72232W        W39015  26.270  39.904   4.266
72233W        W39016  15.547  39.989   1.367
72234W        W39017  22.444  24.963   1.534
72235W        W39018   1.413   8.579  12.881
72236W        W39019   6.595  21.364  14.459
72237W        W39020   8.314  27.657  10.721
72238W        W39021  34.172  33.359  14.822
72239W        W39022   7.647  39.473   2.381
72240W        W39023  32.839  24.520   3.693
72241W        W39024  10.123  30.353   1.877
72242W        W39025  22.072   0.978   4.082
72243W        W39026   1.195  14.155  12.017
72244W        W39027   0.964  33.604   1.768
72245W        W39028  41.751  25.211  13.282
72246W        W39029  40.924  12.470   4.315
72247W        W39030  10.142  12.141   0.251
72248W        W39031  25.318   8.710   4.127
72249W        W39032   6.914  42.857   3.769
72250W        W39033  32.542   5.773  13.432
72251W        W39034  42.461  31.674   4.153
72252W        W39035  21.498  13.704  14.706
72253W        W39036  11.735  21.073  12.535
72254W        W39037  18.081  38.333   3.668
72255W        W39038  11.216   3.245  11.346
72256W        W39039  11.574  42.336  14.988
72257W        W39040   0.211  35.632  12.847
72258W        W39041  29.112  12.094   1.335
72259W        W39042  20.641  39.068   4.275
72260W        W39043   1.904  33.233  11.654
72261W        W39044  11.789  27.117   1.990
72262W        W39045  34.137  34.845   0.690
72263W        W39046  11.236   3.745   4.560
72264W        W39047  24.745  19.688   5.017
72265W        W39048  19.627  29.752   3.363
72266W        W39049   3.242  24.755   1.765
72267W        W39050  10.813   2.833   0.162
72268W        W39051  12.851  21.774  13.569
72269W        W39052  13.336   8.271  12.427
72270W        W39053  31.961  39.364  14.913
72271W        W39054  35.333   4.294  11.487
72272W        W39055  19.103  38.988   3.237
72273W        W39056  38.107  41.959  14.979
72274W        W39057   4.845  24.113  10.715
72275W        W39058  11.360  38.527   2.704
72276W        W39059  43.304  42.912  12.215
72277W        W39060  13.025  28.533  14.942
72278W        W39061  15.084   1.949   3.884
72279W        W39062   1.638  15.127   0.403
72280W        W39063  22.620  26.536  12.830
72281W        W39064  16.330  27.025   4.347
72282W        W39065  11.716  36.804  11.230
72283W        W39066   8.041   0.716  10.883
72284W        W39067  15.580  22.758  14.110
72285W        W39068  23.536  39.787  12.358
72286W        W39069  15.548  26.383   2.848
72287W        W39070  30.342  30.929   5.057
72288W        W39071  15.185  24.017   1.821
72289W        W39072  36.541  23.412   9.819
72290W        W39073  16.684  19.581  14.833
72291W        W39074  38.740  42.476   2.605
72292W        W39075  11.692   7.348  14.482
72293W        W39076  12.328  35.303   2.604
72294W        W39077  25.683   3.205   3.186
72295W        W39078   9.154  12.109  14.247
72296W        W39079  18.199  16.392   1.089
72297W        W39080  28.078  34.401   2.735
72298W        W39081  17.149  36.921   0.019
72299W        W39082  34.375  30.555  12.133
72300W        W39083  10.634  43.870   2.335
72301W        W39084  35.495   3.248  13.384
72302W        W39085  32.528   4.413  13.027
72303W        W39086  25.299   1.514   4.718
72304W        W39087  24.272  24.597   5.093
72305W        W39088  19.014   5.203  13.511
72306W        W39089  44.537  27.441   3.078
72307W        W39090  15.617  22.842   0.920
72308W        W39091  34.184  39.771  11.193
72309W        W39092  13.738  17.630  10.865
72310W        W39093  37.355  10.346  13.264
72311W        W39094  42.337  43.468  14.919
72312W        W39095  29.641  26.442  13.175
72313W        W39096  30.671  22.742   4.242
72314W        W39097  12.846  21.195  11.511
72315W        W39098  15.067  21.739   0.452
72316W        W39099  11.379  37.051   5.589
72317W        W39100  14.558  23.190   2.053
72318W        W39101  35.115  14.774   4.447
72319W        W39102  34.095  11.791  14.915
72320W        W39103   5.298  28.636   4.354
72321W        W39104   6.964  36.509   2.725
72322W        W39105  42.165  18.584  13.960
72323W        W39106  36.083  28.915   0.488
72324W        W39107  40.596  25.253  10.080
72325W        W39108  40.306  43.417   0.848
72326W        W39109  13.694  25.651   0.707
72327W        W39110  10.223  15.229   4.730
72328W        W39111  21.461  36.980  12.062
72329W        W39112  21.589  11.893   0.312
72330W        W39113  18.639  30.941  14.955
72331W        W39114  34.358   2.454   1.147
72332W        W39115  36.635  31.611   1.751
72333W        W39116   0.479  12.299  14.448
72334W        W39117  37.027  30.154   2.334
72335W        W39118  41.867  11.051  12.988
72336W        W39119  38.300  37.244  14.975
72337W        W39120  10.702  10.844   2.796
72338W        W39121  18.510  44.656   2.313
72339W        W39122  33.472  43.837   1.923
72340W        W39123   4.658  15.765  10.735
72341W        W39124  10.364  30.286   0.808
72342W        W39125  32.405  29.360   1.738
72343W        W39126  33.922  29.571  12.355
72344W        W39127  39.878  10.118  12.870
72345W        W39128  37.977  35.595   4.143
72346W        W39129  44.977  24.107  11.729
72347W        W39130  10.399  29.651   3.887
72348W        W39131   6.009  14.816  12.376
72349W        W39132  12.256  10.176   4.757
72350W        W39133   5.243  13.090   1.272
72351W        W39134  27.580  19.968   0.002
72352W        W39135  14.526  11.755  11.543
72353W        W39136   8.266  18.055  12.989
72354W        W39137   4.197  13.349   1.907
72355W        W39138   5.425   4.323  13.834
72356W        W39139   8.296  13.146   0.439
72357W        W39140  42.743  36.295  13.827
72358W        W39141  17.742  35.333  11.039
72359W        W39142  31.862  31.133   3.215
72360W        W39143  36.555  22.181  13.468
72361W        W39144  31.381  30.152   0.820
72362W        W39145  29.437   6.294  14.876
72363W        W39146  17.364  13.534  11.999
72364W        W39147  16.551   1.306  13.342
72365W        W39148  12.665  26.763   3.592
72366W        W39149  25.162  33.063  14.483
72367W        W39150  20.529  20.243  13.001
72368W        W39151   6.656   5.658   1.500
72369W        W39152   0.561  24.999   2.711
72370W        W39153  25.792   0.899   1.858
72371W        W39154   8.460  20.643   1.327
72372W        W39155  43.620  16.036  14.314
72373W        W39156  20.559  10.301  12.048
72374W        W39157  14.718   5.354  13.508
72375W        W39158  36.984  35.977   1.816
72376W        W39159  39.621  33.070  12.456
72377W        W39160  16.839   8.310   4.563
72378W        W39161  33.446  40.562   2.440
72379W        W39162  44.085   8.678  12.825
72380W        W39163  15.721  35.277  12.879
72381W        W39164  35.709   4.582   4.118
72382W        W39165  29.037  11.141  10.415
72383W        W39166   1.168  36.500  10.293
72384W        W39167  30.495  38.047   4.667
72385W        W39168  37.505   7.297  14.571
72386W        W39169  21.041  15.072   2.406
72387W        W39170  29.430  29.542   3.361
72388W        W39171  27.981   1.601  13.333
72389W        W39172  36.974  40.536  10.735
72390W        W39173  26.889  11.862   3.335
72391W        W39174  12.719  35.601  11.152
72392W        W39175  22.755  41.484   2.298
72393W        W39176   9.293  19.035   3.593
72394W        W39177  13.273   6.310  14.387
72395W        W39178  28.473  18.660  10.700
72396W        W39179   9.376  16.406   3.596
72397W        W39180  43.543  23.731  14.108
72398W        W39181   9.472  31.516   0.817
72399W        W39182   5.037   7.142  13.080
72400W        W39183  26.499  25.614   3.589
72401W        W39184  44.883  41.680   0.982
72402W        W39185   2.602  25.887   0.186
72403W        W39186  15.716  12.713   0.063
72404W        W39187  29.666  35.384   3.148
72405W        W39188  12.775  20.845   1.544
72406W        W39189  13.934  28.985  10.736
72407W        W39190  18.685  42.530  10.729
72408W        W39191  18.682  36.355  14.351
72409W        W39192  21.184  43.047   0.774
72410W        W39193  36.435  29.322  11.515
72411W        W39194   4.411   0.113   4.043
72412W        W39195   0.692   1.702  11.512
72413W        W39196   1.129  15.295   0.482
72414W        W39197  40.592   8.217   0.823
72415W        W39198  31.111   7.693   3.264
72416W        W39199  16.596  35.051   3.183
72417W        W39200  23.063   2.283   0.574
72418W        W39201  42.854  23.420  14.332
72419W        W39202  41.185  35.085   0.837
72420W        W39203  35.084   4.911   0.325
72421W        W39204  17.773   1.896   1.891
72422W        W39205  38.968   3.853   4.521
72423W        W39206  36.450   3.063   5.096
72424W        W39207  34.946  16.035  14.594
72425W        W39208  24.870   1.727  11.636
72426W        W39209  18.849   7.175   3.286
72427W        W39210  14.272  35.837  12.975
72428W        W39211  16.732   5.881  13.107
72429W        W39212   2.565  22.008  14.927
72430W        W39213  42.452  44.431   1.291
72431W        W39214  33.330   8.172   0.836
72432W        W39215  37.232   5.458   1.167
72433W        W39216   4.339  26.064  11.020
72434W        W39217  12.663  37.609  12.418
72435W        W39218   8.263  38.862   2.230
72436W        W39219   0.979   7.201   2.174
72437W        W39220  18.736  39.439  11.471
72438W        W39221   6.857  19.169   2.267
72439W        W39222  25.560  43.297   4.615
72440W        W39223   4.844   8.951  13.290
72441W        W39224  34.571  27.086  13.788
72442W        W39225  42.669   7.054   5.144
72443W        W39226  30.634  36.884  13.814
72444W        W39227  31.135   5.345   4.281
72445W        W39228  31.218  18.113  12.434
72446W        W39229  31.500  15.863  12.416
72447W        W39230  16.156  21.171  11.127
72448W        W39231  24.132  29.751  13.876
72449W        W39232   5.836  26.653  11.258
72450W        W39233  36.342   8.882  13.771
72451W        W39234  36.948  42.898  10.909
72452W        W39235  36.176  41.022  14.380
72453W        W39236  44.397   7.127  13.040
72454W        W39237  31.260  41.299  11.562
72455W        W39238  11.886  35.528   0.414
72456W        W39239   9.904  39.542   0.869
72457W        W39240  14.309   7.650  10.107
72458W        W39241  31.445  25.533   2.890
72459W        W39242  26.055  23.187  12.779
72460W        W39243  43.801  34.922   1.943
72461W        W39244  17.261  39.812   3.233
72462W        W39245  17.836  44.513  11.070
72463W        W39246   5.400  37.383   1.306
72464W        W39247  32.418   9.824  11.224
72465W        W39248  22.480  16.858  11.205
72466W        W39249   0.866  31.578  12.141
72467W        W39250  21.792   2.568   0.557
72468W        W39251  20.761  41.021   3.181
72469W        W39252   4.896  16.732  13.036
72470W        W39253  39.043   0.896   0.450
72471W        W39254  37.838  40.978  13.473
72472W        W39255  20.787  27.937  13.025
72473W        W39256  25.659  30.485  12.457
72474W        W39257   4.413  28.618   3.181
72475W        W39258  35.324   0.926   1.068
72476W        W39259  16.711  40.461  10.649
72477W        W39260  24.667   7.774  10.539
72478W        W39261  41.985  32.020   1.472
72479W        W39262  32.063  16.016   4.857
72480W        W39263  33.032  13.159   3.604
72481W        W39264   5.443  12.348   3.710
72482W        W39265  11.218  42.925   1.654
72483W        W39266  27.375   4.332  12.862
72484W        W39267  30.226  18.327   0.355
72485W        W39268  14.085   8.664  13.673
72486W        W39269  17.517  40.978  13.012
72487W        W39270  21.680  27.556   9.736
72488W        W39271  44.333  23.721   2.767
72489W        W39272   2.673   7.907  14.929
72490W        W39273  26.353  36.303   0.192
72491W        W39274   8.712  17.184   5.410
72492W        W39275   2.101  42.783  11.565
72493W        W39276  22.272  22.468   1.778
72494W        W39277   6.141  10.765   3.126
72495W        W39278  21.962   7.389  14.932
72496W        W39279  16.981  31.449  10.691
72497W        W39280   0.424   7.706  14.720
72498W        W39281  14.518  43.737   2.045
72499W        W39282  24.529  37.269   3.178
72500W        W39283  40.663  16.681  10.676
72501W        W39284  29.147  43.864  11.558
72502W        W39285  38.092  33.429  10.143
72503W        W39286  33.136  36.945  11.181
72504W        W39287  28.608  16.604  13.355
72505W        W39288  28.442  30.142  10.442
72506W        W39289  12.342  39.035  13.343
72507W        W39290  34.791   5.786   4.266
72508W        W39291  38.125  31.038   3.250
72509W        W39292  31.037  28.526  11.387
72510W        W39293   8.868  23.046   4.043
72511W        W39294  37.312  32.499  14.391
72512W        W39295  20.675  11.074  12.456
72513W        W39296  38.379  19.988   1.721
72514W        W39297  37.883  42.380  12.058
72515W        W39298  26.525  37.378   2.917
72516W        W39299   4.610  14.190   5.068
72517W        W39300   4.460  23.254   0.325
72518W        W39301  25.017  21.615   1.158
72519W        W39302  18.079   8.569  13.491
72520W        W39303  35.567  30.299   0.771
72521W        W39304  14.856  43.020  13.207
72522W        W39305   8.321  15.187  12.078
72523W        W39306  43.056   0.993   2.494
72524W        W39307  22.298  31.450   0.511
72525W        W39308  28.193  19.143   3.664
72526W        W39309  22.315  40.110  12.842
72527W        W39310  10.833  18.072  13.849
72528W        W39311  11.103  14.849   3.215
72529W        W39312  24.999   4.421  12.948
72530W        W39313  39.407  10.199   2.103
72531W        W39314   1.081  12.774  13.765
72532W        W39315   8.809  27.958  14.862
72533W        W39316  13.538  17.199   4.399
72534W        W39317  37.415  16.646   1.390
72535W        W39318  16.487   4.249   4.201
72536W        W39319  13.817   6.218   0.792
72537W        W39320   5.756  22.710  10.487
72538W        W39321   7.629   9.846  14.593
72539W        W39322  34.310  34.577  11.609
72540W        W39323  17.797  39.785  14.925
72541W        W39324   3.515  31.472   1.251
72542W        W39325  30.146   4.325  14.465
72543W        W39326   9.650  15.674  13.073
72544W        W39327   9.157  43.355   3.845
72545W        W39328   7.647  20.069  12.451
72546W        W39329  26.032  13.838  13.761
72547W        W39330  35.017  13.563   1.918
72548W        W39331  25.671   7.382  13.951
72549W        W39332  42.607  34.050  13.009
72550W        W39333  25.985  23.812  10.736
72551W        W39334  25.658  28.151  11.083
72552W        W39335  16.736  20.937  11.987
72553W        W39336  40.237  44.324  10.192
72554W        W39337   3.830  35.764  11.727
72555W        W39338  39.646  13.292   0.748
72556W        W39339  12.893  30.594  11.082
72557W        W39340   6.196  12.628  12.560
72558W        W39341  15.312  40.142  13.065
72559W        W39342  12.441  24.295   2.722
72560W        W39343  31.739  15.822  10.240
72561W        W39344  22.431  16.125  12.319
72562W        W39345  12.642  35.767  14.999
72563W        W39346   4.142   3.135   1.398
72564W        W39347   5.729  29.962   4.585
72565W        W39348  38.423   4.285  11.951
72566W        W39349  14.912  30.189  14.006
72567W        W39350  44.378  31.752   4.993
72568W        W39351  32.050  29.839   4.529
72569W        W39352  23.736  35.129   4.611
72570W        W39353  17.218  28.162  14.457
72571W        W39354  44.463   1.613  11.362
72572W        W39355   5.310   2.835   2.480
72573W        W39356  29.463  22.148   4.946
72574W        W39357  15.803  10.324  13.920
72575W        W39358  22.596  20.067   4.120
72576W        W39359  13.661  12.094   0.236
72577W        W39360  37.536  17.678  11.491
72578W        W39361  22.405   5.852  10.037
72579W        W39362  40.974  41.704   4.858
72580W        W39363  11.253  34.550   1.842
72581W        W39364  32.942   5.837  12.603
72582W        W39365  17.080  21.033   2.146
72583W        W39366  27.732   1.934  14.944
72584W        W39367  36.132  20.005  12.063
72585W        W39368  30.128  11.920   2.404
72586W        W39369  18.619  36.958  14.283
72587W        W39370  15.511  33.526  12.520
72588W        W39371  42.401  22.992   2.801
72589W        W39372  14.594  31.862  11.852
72590W        W39373   5.974   4.819   0.434
72591W        W39374  37.066  42.519   4.703
72592W        W39375   0.781  11.376   1.274
72593W        W39376  22.529  13.170  12.274
72594W        W39377  14.319   1.410  14.073
72595W        W39378  32.771  21.764  10.485
72596W        W39379  30.078  10.082  12.438
72597W        W39380  28.700  32.648   3.118
72598W        W39381  27.430  35.830  11.556
72599W        W39382  43.989  20.303   1.747
72600W        W39383  36.004  20.028   0.366
72601W        W39384  38.064  18.298   3.462
72602W        W39385   5.175  40.862   2.279
72603W        W39386  24.824  42.432  14.407
72604W        W39387  17.700   1.697   0.311
72605W        W39388  38.106  25.752   3.332
72606W        W39389  38.536   0.455   0.786
72607W        W39390   4.927  18.269   4.969
72608W        W39391  29.766  21.399   0.324
72609W        W39392  23.424  41.826  11.956
72610W        W39393  27.519  27.998   1.946
72611W        W39394  20.287  37.645   3.211
72612W        W39395   6.660  43.832   4.162
72613W        W39396   9.397   2.909   4.122
72614W        W39397  15.780   3.022  13.800
72615W        W39398  38.099  23.980   3.584
72616W        W39399  42.747  19.000   2.049
72617W        W39400  36.961  13.294   3.713
72618W        W39401  36.281  35.835  11.177
72619W        W39402  43.163  30.015   4.874
72620W        W39403  22.313  11.502  13.597
72621W        W39404  33.487  11.833   1.982
72622W        W39405   6.142  10.172   2.699
72623W        W39406  36.042   6.952   0.787
72624W        W39407  16.308  44.766   1.463
72625W        W39408   8.184  21.474  12.447
72626W        W39409  11.876  18.113   2.682
72627W        W39410  10.237  40.400  13.270
72628W        W39411  25.507  32.517  11.612
72629W        W39412   9.498   1.746  12.126
72630W        W39413   5.511  34.078  13.021
72631W        W39414  27.598  44.991  11.605
72632W        W39415  20.117  31.705   2.863
72633W        W39416  25.703  44.327  13.724
72634W        W39417  39.672  19.237  13.893
72635W        W39418   2.572  17.188  11.097
72636W        W39419  37.794  34.564  12.813
72637W        W39420  30.164  15.886  14.759
72638W        W39421  14.648  30.530   4.198
72639W        W39422  41.462  12.727  12.186
72640W        W39423   7.855  33.623   2.800
72641W        W39424  44.435  40.580  10.682
72642W        W39425  34.046  37.339   0.760
72643W        W39426  21.279   0.854   0.841
72644W        W39427  44.181  12.689   2.771
72645W        W39428   8.869  13.491   2.801
72646W        W39429   9.190  28.901   0.454
72647W        W39430  30.148  19.358  10.395
72648W        W39431  20.136  36.768  12.899
72649W        W39432  12.822  11.317  12.529
72650W        W39433  17.638  21.347  11.938
72651W        W39434  43.352  35.593   3.883
72652W        W39435  42.461  32.755   0.398
72653W        W39436  11.141  28.615   2.723
72654W        W39437  43.919   8.891   0.425
72655W        W39438  33.657   1.364   0.001
72656W        W39439  22.992  40.084   9.978
72657W        W39440   5.333  26.217  13.104
72658W        W39441  32.107  16.747  12.903
72659W        W39442  20.421  11.243   4.699
72660W        W39443  40.520  14.836  13.417
72661W        W39444  15.255  36.098   2.752
72662W        W39445  28.661  12.511   1.916
72663W        W39446  37.479   4.098   3.853
72664W        W39447  27.735  39.722   4.971
72665W        W39448  42.853  14.234  11.797
72666W        W39449   8.631  16.065  10.586
72667W        W39450  40.523   5.640  13.357
72668W        W39451  11.738  30.836   4.363
72669W        W39452   8.412   8.808   0.002
72670W        W39453  39.058  16.319   4.402
72671W        W39454  33.845  32.384  12.728
72672W        W39455  21.677  19.652   0.816
72673W        W39456  36.972  34.909  10.500
72674W        W39457  18.239   3.528   3.164
72675W        W39458  41.222  32.023   2.165
72676W        W39459  20.965  20.801   3.139
72677W        W39460   9.324  36.729  13.217
72678W        W39461  18.498  12.427  14.481
72679W        W39462   5.723  25.992  12.825
72680W        W39463  40.572  32.331  12.863
72681W        W39464  12.263  31.733  11.432
72682W        W39465  22.413  23.668   3.342
72683W        W39466   6.895  17.373  14.378
72684W        W39467  40.362  44.243  13.015
72685W        W39468  13.923   1.852  14.862
72686W        W39469  10.262   1.189   0.339
72687W        W39470  42.579  26.479  14.743
72688W        W39471  33.353  28.116   5.113
72689W        W39472  33.046  36.733  12.017
72690W        W39473   1.815  16.024  14.315
72691W        W39474  24.049  25.966  14.877
72692W        W39475  28.513  20.345   1.285
72693W        W39476  24.422   4.287   1.845
72694W        W39477  24.613   7.166  10.678
72695W        W39478  16.220   4.735   4.918
72696W        W39479  21.034  23.631   1.154
72697W        W39480  25.239   2.897  12.812
72698W        W39481  27.674   1.610  12.531
72699W        W39482  17.399  38.387   4.116
72700W        W39483   6.183  15.485   3.581
72701W        W39484  29.932  32.549   1.282
72702W        W39485  32.420  14.372   3.258
72703W        W39486  37.509  37.877  13.478
72704W        W39487  43.800  27.158   4.119
72705W        W39488   2.933  12.856  11.540
72706W        W39489  34.013  17.156  12.582
72707W        W39490  22.775  20.500   2.949
72708W        W39491  23.676   9.693   3.390
72709W        W39492  24.774  29.745  13.106
72710W        W39493   9.739  26.662  14.077
72711W        W39494  12.813  16.143  12.994
72712W        W39495  30.064   8.165  12.355
72713W        W39496  24.193  10.918   3.076
72714W        W39497  38.692   1.964  10.635
72715W        W39498  17.331  18.223   2.824
72716W        W39499   2.985   1.696   4.120
72717W        W39500   8.882   6.379   0.043
72718W        W39501  15.755  27.035  11.664
72719W        W39502  23.643  35.948  14.402
72720W        W39503  19.718  42.478   0.136
72721W        W39504  42.065  14.822   4.124
72722W        W39505  44.757  27.934   3.270
72723W        W39506  32.482   7.381   1.286
72724W        W39507  20.490  32.451  11.700
72725W        W39508  36.559  11.619  12.085
72726W        W39509   8.539   6.278  13.124
72727W        W39510  35.421  44.852   0.385
72728W        W39511  19.498  36.360   3.196
72729W        W39512  32.113  23.382  13.486
72730W        W39513  34.926  32.829   4.760
72731W        W39514  42.757  44.291  14.866
72732W        W39515  18.022  15.070  10.975
72733W        W39516  25.054  34.113   1.593
72734W        W39517  13.574  34.565  10.530
72735W        W39518  25.045  33.584   2.195
72736W        W39519  27.661   1.557   1.824
72737W        W39520   0.526  26.568  13.026
72738W        W39521  31.921  12.590  12.136
72739W        W39522  29.162   3.292  12.895
72740W        W39523  16.974  14.783   3.732
72741W        W39524   4.893  31.751   1.358
72742W        W39525  30.961  42.746  14.903
72743W        W39526  31.124  15.655   3.377
72744W        W39527  18.234   8.607   4.103
72745W        W39528  11.768  28.208   2.728
72746W        W39529  16.170   4.753   0.419
72747W        W39530  34.442  13.973  13.898
72748W        W39531  11.130  24.468   2.267
72749W        W39532   2.886  17.918  13.574
72750W        W39533   2.661  13.067  11.090
72751W        W39534   1.417  18.708  12.310
72752W        W39535   4.192  31.081   2.284
72753W        W39536  41.399  29.450   3.630
72754W        W39537   9.385  21.142  11.563
72755W        W39538  32.107  34.883  11.590
72756W        W39539  39.739  33.145   4.218
72757W        W39540   4.692  25.891   3.777
72758W        W39541  14.952  35.855  10.344
72759W        W39542  14.954  25.735   2.591
72760W        W39543  29.092   4.173  11.654
72761W        W39544   2.803  20.374   0.606
72762W        W39545   9.095  22.146  10.615
72763W        W39546  34.905  44.590   3.364
72764W        W39547  10.274  41.402   2.879
72765W        W39548  11.640  35.109   1.873
72766W        W39549  28.630  15.303  13.115
72767W        W39550  23.203   5.348   1.459
72768W        W39551  30.008  35.011   0.964
72769W        W39552  26.562  24.575   4.182
72770W        W39553  37.435   6.597   0.344
72771W        W39554  20.231  31.174   1.956
72772W        W39555  37.935  31.476   3.073
72773W        W39556  30.796  34.421   2.415
72774W        W39557  39.308  24.433   3.400
72775W        W39558  16.116   6.667   2.904
72776W        W39559  37.053  32.509   4.283
72777W        W39560   1.943  15.546  12.491
72778W        W39561  35.199   3.628   1.718
72779W        W39562  44.863  12.666   2.239
72780W        W39563  14.781  15.536  10.750
72781W        W39564  31.512  42.399   1.296
72782W        W39565  30.338  13.725   4.051
72783W        W39566  33.004  38.617   2.821
72784W        W39567  31.696  26.617  12.958
72785W        W39568  32.994  35.103   3.991
72786W        W39569  14.647  16.167   2.687
72787W        W39570  13.764  33.977  14.055
72788W        W39571  15.986  30.200   1.270
72789W        W39572  34.866  24.939   1.158
72790W        W39573   4.690  29.054   3.201
72791W        W39574  43.584  38.366   1.897
72792W        W39575  21.887  44.011  12.709
72793W        W39576  28.164  10.536   3.658
72794W        W39577  23.823  41.411   4.050
72795W        W39578  25.846  34.089  13.533
72796W        W39579  10.330  26.014  13.918
72797W        W39580   4.384  24.613  11.139
72798W        W39581   8.071  41.504  11.602
72799W        W39582   4.691  27.892   2.644
72800W        W39583  42.134  30.065   4.587
72801W        W39584  19.688  11.466   2.155
72802W        W39585  20.710  27.215  12.343
72803W        W39586  13.745  15.040   0.096
72804W        W39587  13.366  30.664   1.197
72805W        W39588  35.409  21.734   2.776
72806W        W39589  40.549  42.387  10.660
72807W        W39590  28.189  24.139   2.839
72808W        W39591  36.893  12.606   3.249
72809W        W39592  25.060  28.623   2.781
72810W        W39593  24.130  12.776  10.334
72811W        W39594  18.250  30.121   4.563
72812W        W39595  32.297  18.209   3.654
72813W        W39596   4.322  14.205  11.752
72814W        W39597   9.676  34.575   3.160
72815W        W39598  42.898  26.548  13.213
72816W        W39599  39.596  16.572  12.941
72817W        W39600  44.155   5.323   0.748
72818W        W39601  21.616   7.388  11.950
72819W        W39602  41.481  40.025  12.700
72820W        W39603  24.156  24.345   4.660
72821W        W39604  44.714  37.535  12.462
72822W        W39605  34.876  39.581  13.514
72823W        W39606   5.828   2.301  10.460
72824W        W39607  40.887  29.636  13.897
72825W        W39608  40.839  24.176  14.243
72826W        W39609   1.222  42.852  10.817
72827W        W39610  35.577   3.590   4.917
72828W        W39611  24.482  28.241  12.979
72829W        W39612   2.871  44.005  14.346
72830W        W39613   8.123  23.021  14.325
72831W        W39614   0.321  34.815   2.443
72832W        W39615  21.304  38.574   0.852
72833W        W39616  28.628  26.212  13.661
72834W        W39617  19.127  16.298   1.416
72835W        W39618  17.108  23.507   3.641
72836W        W39619  30.494   4.479  14.841
72837W        W39620  37.339  31.515   4.873
72838W        W39621   2.462  42.431  11.668
72839W        W39622  34.371  42.892   4.569
72840W        W39623   6.772  26.634   2.377
72841W        W39624  12.351  30.090  13.534
72842W        W39625  34.585  30.046   1.945
72843W        W39626  41.026  35.523  13.062
72844W        W39627   9.610  16.863   2.129
72845W        W39628  43.537   2.338  11.960
72846W        W39629  22.675  44.776   0.315
72847W        W39630  38.249  44.440   3.395
72848W        W39631  24.052  26.251  14.006
72849W        W39632   8.089  36.096  14.336
72850W        W39633  15.177  10.084  10.398
72851W        W39634  38.583  19.135  11.081
72852W        W39635  38.055   8.441   3.865
72853W        W39636   7.691  35.633   1.877
72854W        W39637  21.395   6.143  11.967
72855W        W39638  44.956  14.868   4.095
72856W        W39639   2.224   0.983   1.317
72857W        W39640  34.521  28.060  14.729
72858W        W39641  35.490  10.564  13.738
72859W        W39642   9.786  19.533   4.224
72860W        W39643  28.056  44.923   1.639
72861W        W39644   4.714  13.290  12.032
72862W        W39645  44.500  22.334  11.158
72863W        W39646  30.926  40.770   0.810
72864W        W39647   5.241   4.459   1.504
72865W        W39648  37.121  21.092   1.448
72866W        W39649  25.251  28.513   0.303
72867W        W39650  21.243  41.019   2.210
72868W        W39651  15.805  11.612  13.532
72869W        W39652  24.805   0.811   1.471
72870W        W39653  39.318   8.068   1.547
72871W        W39654  18.234  36.539  12.360
72872W        W39655  20.202  31.901  10.814
72873W        W39656  18.712   1.856  13.979
72874W        W39657   0.261  40.490  10.867
72875W        W39658   4.486  38.894  13.448
72876W        W39659  28.954   5.386   1.183
72877W        W39660  25.565   7.095   1.770
72878W        W39661  16.683  37.926  10.193
72879W        W39662   2.924   8.097  14.304
72880W        W39663  28.972  28.647  11.383
72881W        W39664  15.988  40.480  11.247
72882W        W39665  31.614  25.692   3.817
72883W        W39666   9.440   3.704   2.756
72884W        W39667  10.852   4.865  13.572
72885W        W39668   0.043  21.639  14.470
72886W        W39669   3.260  18.983  13.887
72887W        W39670  26.338   8.607   4.153
72888W        W39671  14.069   7.842   5.484
72889W        W39672   7.865  31.312  13.448
72890W        W39673  33.052  26.487   1.335
72891W        W39674  17.650  29.016  12.173
72892W        W39675  31.950   1.941  14.007
72893W        W39676  31.548   1.661  10.696
72894W        W39677  33.175   2.497  10.534
72895W        W39678  44.967  40.258  13.107
72896W        W39679  16.235  36.360   2.713
72897W        W39680   6.380   7.350   0.514
72898W        W39681  27.897  44.473   4.537
72899W        W39682  14.018  15.865  12.904
72900W        W39683  32.456  19.646  14.229
72901W        W39684   3.975  30.670   1.704
72902W        W39685  25.320  14.818  12.403
72903W        W39686   8.865  30.157   2.342
72904W        W39687  38.057  27.234  11.103
72905W        W39688  34.918  13.097   2.144
72906W        W39689  10.280  29.617   3.355
72907W        W39690  31.380  17.561   1.988
72908W        W39691  38.596  39.878   3.322
72909W        W39692  37.344  10.777  11.612
72910W        W39693  24.943  31.995   0.172
72911W        W39694  37.040  18.160  11.117
72912W        W39695  31.862  19.115  14.766
72913W        W39696  15.858  27.876  13.723
72914W        W39697  34.911   5.412   2.912
72915W        W39698  39.636  27.474   2.245
72916W        W39699  31.945   1.155   1.291
72917W        W39700   2.409  22.350   4.853
72918W        W39701  18.068  37.996   3.255
72919W        W39702   6.763  18.639   0.869
72920W        W39703   2.172  38.588   4.131
72921W        W39704   8.249   2.215  13.369
72922W        W39705  40.104  41.860  14.797
72923W        W39706  26.314  39.253   0.385
72924W        W39707  31.045  38.005   2.203
72925W        W39708  13.091   3.528   3.227
72926W        W39709  18.737  40.539   4.103
72927W        W39710  11.271  21.688   2.014
72928W        W39711  15.291  18.770  11.369
72929W        W39712  27.420  29.090   2.291
72930W        W39713  20.687  33.607   4.557
72931W        W39714  23.206  30.132  12.006
72932W        W39715  23.162   5.725   3.672
72933W        W39716   4.184   6.760  10.511
72934W        W39717  18.080  21.573  11.524
72935W        W39718  26.925  21.302   0.341
72936W        W39719   3.976  33.410   3.805
72937W        W39720  43.058  15.408   5.126
72938W        W39721  11.179   6.633   9.885
72939W        W39722  35.874  13.668   2.805
72940W        W39723  34.593  18.209   4.196
72941W        W39724  44.500  30.529  13.029
72942W        W39725  27.605   7.987  11.778
72943W        W39726  23.098   1.355   3.749
72944W        W39727  16.135   6.623  10.712
72945W        W39728   7.441  29.554  13.132
72946W        W39729  17.283   9.674  13.968
72947W        W39730  41.551  33.655   0.632
72948W        W39731  39.190   1.888  10.549
72949W        W39732  32.674   8.956  11.146
72950W        W39733  13.214   8.007  11.975
72951W        W39734   1.089  31.686   1.876
72952W        W39735  31.059  29.087  12.133
72953W        W39736  21.074  20.457  14.751
72954W        W39737  20.620  27.973   4.282
72955W        W39738  21.722   9.763   3.387
72956W        W39739  34.629  30.614   0.816
72957W        W39740   7.487  31.040  13.668
72958W        W39741  18.849  43.850   3.240
72959W        W39742  28.547  28.920   2.363
72960W        W39743  38.827  36.390   4.624
72961W        W39744   5.657  23.176   0.621
72962W        W39745  21.754   7.158  11.488
72963W        W39746  38.472  23.977   2.731
72964W        W39747  29.074  29.123  14.428
72965W        W39748  15.967  30.791  11.933
72966W        W39749  14.554  44.730  12.497
72967W        W39750   8.869  30.899   4.765
72968W        W39751  26.084  11.442   3.216
72969W        W39752  10.565  16.769   1.950
72970W        W39753  32.408  42.143   4.336
72971W        W39754   5.231  26.129  12.598
72972W        W39755   4.796  21.490  14.863
72973W        W39756  20.111  13.894  10.267
72974W        W39757  11.276  18.826   2.774
72975W        W39758  44.084  16.249  11.530
72976W        W39759  12.831  23.957  14.980
72977W        W39760  37.818  34.984   0.426
72978W        W39761  36.056   4.794  11.128
72979W        W39762  17.097   7.247   1.405
72980W        W39763  33.371  37.983   9.940
72981W        W39764  36.607   8.507   3.883
72982W        W39765  41.926  22.761  14.752
72983W        W39766  12.122  22.262   0.958
72984W        W39767  30.852   5.365   4.763
72985W        W39768   0.721  24.441  14.588
72986W        W39769  27.326   5.331  11.471
72987W        W39770  37.460  29.730   1.176
72988W        W39771  29.340  11.848  12.160
72989W        W39772  10.049  23.227   3.767
72990W        W39773  25.487  35.399  14.341
72991W        W39774  30.480  22.289   3.247
72992W        W39775  25.460  19.029  13.407
72993W        W39776  40.577  11.328   0.825
72994W        W39777   6.389  29.206   3.943
72995W        W39778  11.983  15.244   1.648
72996W        W39779  37.369  28.238  10.696
72997W        W39780  14.678   1.717  11.998
72998W        W39781  42.539   5.742   1.745
72999W        W39782  43.125  12.819  10.679
73000W        W39783  21.073  26.074   0.682
73001W        W39784  11.191  13.666  13.778
73002W        W39785   8.612  36.547  11.121
73003W        W39786  15.388  19.252  11.220
73004W        W39787  44.210  26.489   2.790
73005W        W39788  44.204  43.329  11.191
73006W        W39789  31.989   9.978   3.319
73007W        W39790   5.652  12.209  11.610
73008W        W39791  39.324  26.890  10.970
73009W        W39792  11.213   8.669  13.026
73010W        W39793   8.615  43.975  12.391
73011W        W39794   0.858  37.381   0.413
73012W        W39795  12.617  35.897  12.527
73013W        W39796  25.709  22.227  10.276
73014W        W39797  35.140  35.301   1.921
73015W        W39798   3.378   0.887   3.893
73016W        W39799   2.248   0.265  14.467
73017W        W39800  36.314  11.587  12.541
73018W        W39801  39.953   3.782  13.374
73019W        W39802  33.483  16.194  13.347
73020W        W39803  19.577  20.051  13.565
73021W        W39804  14.228   2.296   1.351
73022W        W39805  25.224  18.264  14.454
73023W        W39806  21.909  22.161   1.965
73024W        W39807  21.949   5.163   0.427
73025W        W39808  43.825  13.019  12.566
73026W        W39809  12.613   9.434   4.871
73027W        W39810  44.844   9.468   4.028
73028W        W39811  38.762  23.524   4.144
73029W        W39812  22.494  28.650  14.864
73030W        W39813  22.533  34.118  11.600
73031W        W39814  10.861  29.533  13.305
73032W        W39815   0.532  12.629   1.635
73033W        W39816  36.520   1.766  12.061
73034W        W39817  40.827   8.943   5.425
73035W        W39818   7.858  27.006   4.305
73036W        W39819   7.421   3.474   0.492
73037W        W39820  39.331   7.632  11.121
73038W        W39821  35.396   5.228  12.528
73039W        W39822  40.259  10.629  12.030
73040W        W39823  44.601  38.952   1.755
73041W        W39824   6.877  32.931   1.580
73042W        W39825  43.248  42.899   2.802
73043W        W39826   0.385   5.888   1.302
73044W        W39827  23.474   2.839   2.621
73045W        W39828  38.067  12.756   0.477
73046W        W39829  33.246  39.055  13.794
73047W        W39830  35.639   2.269   3.739
73048W        W39831   0.168  17.216  11.113
73049W        W39832  41.307  40.921   2.756
73050W        W39833  40.670   1.855  12.497
73051W        W39834  21.791  24.171  11.567
73052W        W39835  17.212  41.981  11.464
73053W        W39836  25.737  37.993   0.918
73054W        W39837  36.978  44.960  11.934
73055W        W39838  39.316  16.036   0.619
73056W        W39839  34.190  41.871  11.584
73057W        W39840  33.736  38.128   1.778
73058W        W39841   9.319  18.733  13.565
73059W        W39842  19.858   2.949  14.896
73060W        W39843  27.981   0.742   1.341
73061W        W39844  30.038  39.024   1.464
73062W        W39845   5.390  33.960   4.650
73063W        W39846  31.536  18.622  10.336
73064W        W39847  26.062  26.722  12.448
73065W        W39848  38.912   4.608  11.152
73066W        W39849   7.895  32.525  14.525
73067W        W39850  21.336  41.408  11.808
73068W        W39851  31.710  13.391   0.340
73069W        W39852  40.074   7.904   4.296
73070W        W39853  41.408   2.237   0.746
73071W        W39854  11.881  22.596  10.740
73072W        W39855  33.935  25.080   4.753
73073W        W39856   6.657  10.710  11.653
73074W        W39857  24.242  40.307   0.998
73075W        W39858  16.805  30.562  10.942
73076W        W39859  13.718   7.635   1.399
73077W        W39860   1.561  39.294  11.727
73078W        W39861  28.572  10.695   1.734
73079W        W39862  36.907  31.144   2.950
73080W        W39863  17.494   1.244   1.624
73081W        W39864  27.166  24.048  14.999
73082W        W39865  34.577  40.307  13.032
73083W        W39866  17.150  24.727   4.772
73084W        W39867  22.934  18.739  14.735
73085W        W39868  36.002  32.883   2.212
73086W        W39869  20.723   5.440   4.489
73087W        W39870  34.976  42.354   4.520
73088W        W39871  25.894  13.227   2.816
73089W        W39872  16.900  28.171  12.820
73090W        W39873  34.869  17.710  14.831
73091W        W39874   3.451  18.174   9.968
73092W        W39875  24.288  16.589   4.397
73093W        W39876  42.549  15.445   5.168
73094W        W39877   0.460  39.353   0.478
73095W        W39878  31.736  14.211   4.540
73096W        W39879  36.660  35.399   0.521
73097W        W39880  44.906  36.443   0.479
73098W        W39881  17.722  16.144   0.815
73099W        W39882  30.608   4.901   4.544
73100W        W39883  33.961  12.775  12.378
73101W        W39884  39.794  32.760  11.169
73102W        W39885  41.535  11.826   1.789
73103W        W39886  10.311  33.566  14.516
73104W        W39887  21.246  31.498  14.313
73105W        W39888   7.161  17.801   4.397
73106W        W39889  36.313  15.270   1.189
73107W        W39890  20.047  33.417  13.372
73108W        W39891  44.958  14.939   5.143
73109W        W39892  43.253   7.695   2.376
73110W        W39893   7.180  23.977   4.351
73111W        W39894  19.584  33.883  13.922
73112W        W39895  28.416  44.534   1.735
73113W        W39896  12.082  39.784   0.372
73114W        W39897   1.282   1.408  13.099
73115W        W39898  26.927   0.738  13.169
73116W        W39899  36.547  11.384  11.526
73117W        W39900  37.418  38.903   3.137
73118W        W39901  15.489  11.958  14.793
73119W        W39902  15.193  14.855   3.686
73120W        W39903  34.871  18.552   2.333
73121W        W39904  36.246  25.141  10.154
73122W        W39905  19.578   6.403   0.913
73123W        W39906  13.652  29.487  10.720
73124W        W39907  17.808  26.161   4.516
73125W        W39908  30.214   6.355   0.413
73126W        W39909  12.826  11.037  12.985
73127W        W39910  36.145  14.390   1.974
73128W        W39911  31.418   8.876  13.351
73129W        W39912  22.750  38.598   2.316
73130W        W39913  17.276  34.922  14.103
73131W        W39914   4.109  13.133   2.387
73132W        W39915   3.905  43.204   1.709
73133W        W39916  30.076  37.111  11.095
73134W        W39917   1.682  40.944  11.121
73135W        W39918  43.463  19.050   4.620
73136W        W39919   9.689  24.359   0.293
73137W        W39920  12.076  43.381  14.376
73138W        W39921  31.487  33.519  14.314
73139W        W39922  20.837  24.199  14.193
73140W        W39923  41.284  24.497  12.945
73141W        W39924  26.760   4.868  10.516
73142W        W39925  40.813  22.713  12.678
73143W        W39926   9.674  40.014  11.020
73144W        W39927   7.111  17.195  11.557
73145W        W39928  19.763  17.835  14.746
73146W        W39929  15.081  10.165   3.834
73147W        W39930  29.377   4.329  12.364
73148W        W39931  23.596   2.208   0.532
73149W        W39932   3.462  18.698  13.457
73150W        W39933  31.942   8.196  11.706
73151W        W39934  11.581  12.764   4.355
73152W        W39935  42.697  18.637  14.045
73153W        W39936  29.137  17.065   3.617
73154W        W39937  24.034  39.561  13.973
73155W        W39938   0.024  39.973  12.119
73156W        W39939  32.931  14.415  10.684
73157W        W39940   6.248  42.038   1.903
73158W        W39941  23.760  10.213   2.466
73159W        W39942  38.048  44.501  11.013
73160W        W39943  31.360  25.111  14.437
73161W        W39944  17.746  32.646  12.531
73162W        W39945  16.753   4.719   4.209
73163W        W39946  42.354  24.727  12.619
73164W        W39947  40.548  44.460  14.437
73165W        W39948   3.979  15.884  11.223
73166W        W39949  17.203  31.705   4.143
73167W        W39950  11.795  11.736   4.967
73168W        W39951  43.961  16.284  13.484
73169W        W39952  41.270  16.070   1.864
73170W        W39953  33.767  44.919  14.827
73171W        W39954  42.513   1.514   3.258
73172W        W39955   8.576  41.598  11.626
73173W        W39956  18.080  33.609   2.407
73174W        W39957  13.347  40.459   0.293
73175W        W39958  20.562   7.623  12.507
73176W        W39959  43.794  36.961  10.703
73177W        W39960  38.996  31.151  12.934
73178W        W39961  36.067  38.384  14.315
73179W        W39962  25.496   7.019   2.785
73180W        W39963  22.247   1.011  12.813
73181W        W39964  30.442  22.510   4.640
73182W        W39965  18.870  24.947  11.175
73183W        W39966   1.410  29.876   2.308
73184W        W39967  18.204  34.830   1.324
73185W        W39968  29.712  16.062   0.897
73186W        W39969  29.539   4.812  12.505
73187W        W39970  30.499  43.768  14.796
73188W        W39971  25.143  22.696   1.841
73189W        W39972  40.611   5.267   3.619
73190W        W39973  12.340  36.623  14.056
73191W        W39974   0.912  20.967  14.779
73192W        W39975  34.092  13.675  10.546
73193W        W39976  28.873   2.087  11.607
73194W        W39977  11.177  14.633   3.680
73195W        W39978   7.929   9.599  12.881
73196W        W39979  36.003  18.877   2.968
73197W        W39980  32.054  11.719  11.538
73198W        W39981  20.661  26.799   1.684
73199W        W39982   3.784  21.112   4.168
73200W        W39983  19.004  42.408   4.312
73201W        W39984  29.580  15.076  13.905
73202W        W39985  41.055  26.436  14.028
73203W        W39986  21.799  23.008  14.838
73204W        W39987   5.368   5.320   4.615
73205W        W39988  43.848   4.968  14.354
73206W        W39989  33.876   2.466   2.294
73207W        W39990  19.009  37.907  13.867
73208W        W39991   6.784  27.662  14.763
73209W        W39992  12.870  36.765  11.918
73210W        W39993  22.763   3.344   2.626
73211W        W39994  21.476  29.437  11.131
73212W        W39995  21.791  24.056   2.261
73213W        W39996  14.278  43.930   1.227
73214W        W39997  24.519   8.841   2.880
73215W        W39998  37.129  43.245  11.264
73216W        W39999  33.040  34.432   4.231
73217W        W40000  28.765  18.030   4.441
73218W        W40001   3.038  26.988  12.074
73219W        W40002   0.014  44.452   1.240
73220W        W40003  17.072  41.492  12.240
73221W        W40004  40.347   7.002  11.741
73222W        W40005  34.019  16.039   0.878
73223W        W40006  16.319   8.833   3.422
73224W        W40007  31.963  42.345   4.548
73225W        W40008  22.659  14.309  12.814
73226W        W40009  27.768  28.266  12.067
73227W        W40010  32.681  27.762   0.001
73228W        W40011  14.136  40.439   4.316
73229W        W40012  33.002   1.434  14.354
73230W        W40013  43.969  13.402  11.638
73231W        W40014  29.367  10.453  10.658
73232W        W40015  25.472  20.608   0.320
73233W        W40016   5.377   6.810   4.548
73234W        W40017  18.010  32.537  11.648
73235W        W40018   8.767   6.973  14.794
73236W        W40019  41.304  37.289   4.066
73237W        W40020  42.236  31.549   2.835
73238W        W40021  19.068   2.772   4.374
73239W        W40022  30.663  34.585  11.906
73240W        W40023   1.503  19.104  14.800
73241W        W40024   1.351  21.506   3.674
73242W        W40025   3.439  12.709  11.583
73243W        W40026  26.125  36.229   1.818
73244W        W40027   2.348  12.818   1.854
73245W        W40028   2.266  29.683   4.969
73246W        W40029   3.727  31.016   2.058
73247W        W40030  17.667  27.474  12.934
73248W        W40031  23.498  16.380   2.285
73249W        W40032  28.563  20.959  12.094
73250W        W40033  35.816  38.605   1.768
73251W        W40034   1.517  36.350   0.831
73252W        W40035  18.565  38.978   3.224
73253W        W40036  33.103   3.293  13.370
73254W        W40037  44.257   7.448   1.311
73255W        W40038  43.835  37.730  10.929
73256W        W40039  30.555  34.468   1.487
73257W        W40040  29.181  44.713   0.480
73258W        W40041  31.383  19.375   1.151
73259W        W40042  39.390  44.993  11.198
73260W        W40043  28.778  23.618  10.933
73261W        W40044  41.574   5.779  13.891
73262W        W40045  16.226  15.093   1.702
73263W        W40046  40.981  15.605   1.183
73264W        W40047  37.943   6.459   2.784
73265W        W40048   6.367  17.121  12.585
73266W        W40049  28.395  14.238   1.347
73267W        W40050  17.557  39.015   4.065
73268W        W40051  12.354   7.737  12.877
73269W        W40052  17.307  10.243  12.415
73270W        W40053  14.353  32.576   4.639
73271W        W40054  41.867  39.256   2.639
73272W        W40055  39.500  44.556  12.065
73273W        W40056  34.400  18.631  13.851
73274W        W40057   6.152  10.925   2.369
73275W        W40058  44.362  13.023   0.397
73276W        W40059   1.177  11.029  13.097
73277W        W40060  19.066  28.893  13.841
73278W        W40061  18.851   8.239  11.936
73279W        W40062  22.800   2.134   3.671
73280W        W40063  26.206  23.630  12.388
73281W        W40064   1.735   0.919  11.072
73282W        W40065  43.775  26.483   3.656
73283W        W40066  18.610   7.850  11.135
73284W        W40067  44.385  38.549   1.499
73285W        W40068   9.454   2.741   0.543
73286W        W40069  41.883  29.217   4.638
73287W        W40070  37.900  14.333   3.852
73288W        W40071  21.455  36.118   5.091
73289W        W40072  21.629  32.039   2.708
73290W        W40073   8.162  34.825   2.072
73291W        W40074  33.429  23.980   2.811
73292W        W40075  20.345  12.899   3.281
73293W        W40076   1.534  44.453  13.928
73294W        W40077  26.646   3.466  13.915
73295W        W40078  23.700  24.578   1.816
73296W        W40079  39.561   0.841  14.307
73297W        W40080   8.098  43.778   1.368
73298W        W40081  22.076  30.061   1.310
73299W        W40082   5.840  42.675   2.858
73300W        W40083   9.186  27.595   1.263
73301W        W40084  13.384  11.662   0.125
73302W        W40085  44.380  12.155  11.394
73303W        W40086  15.819  20.592  13.103
73304W        W40087  31.347  21.240   3.666
73305W        W40088  40.917  10.112  11.592
73306W        W40089  16.245   2.490  12.392
73307W        W40090  36.115  41.801   1.158
73308W        W40091  39.224  10.650   2.835
73309W        W40092  37.475  29.458  12.722
73310W        W40093  18.713  18.389  12.392
73311W        W40094  38.973  16.268   1.367
73312W        W40095   5.200  17.216  11.059
73313W        W40096  11.717  22.125  14.569
73314W        W40097  29.018  14.596  11.865
73315W        W40098  44.984  26.636  13.258
73316W        W40099   4.148   5.222  10.457
73317W        W40100  24.635  28.007  11.241
73318W        W40101  28.968  17.823  12.651
73319W        W40102  19.018  34.041  14.720
73320W        W40103  26.259  38.022  13.921
73321W        W40104   1.092   9.461  14.346
73322W        W40105  32.595  19.166   5.412
73323W        W40106  25.194  29.095  11.077
73324W        W40107  35.288   7.849  12.996
73325W        W40108  11.710  40.903  12.269
73326W        W40109   1.689  44.832   2.709
73327W        W40110  40.856   8.378  11.047
73328W        W40111  38.875  20.103   1.519
73329W        W40112  42.091  29.213  14.523
73330W        W40113  21.299  43.213   4.097
73331W        W40114   9.871   6.913  11.184
73332W        W40115  40.132   5.182   3.798
73333W        W40116  27.843  12.612  13.581
73334W        W40117  15.823  25.700   4.220
73335W        W40118  27.391  40.864   0.196
73336W        W40119   0.982  18.887  10.949
73337W        W40120   0.483  10.737  14.210
73338W        W40121  21.710  40.639   3.176
73339W        W40122  22.641   9.762   4.716
73340W        W40123  36.934  26.982   2.735
73341W        W40124  22.831   6.835   4.642
73342W        W40125  12.641  21.693  11.482
73343W        W40126  12.225  20.147   3.102
73344W        W40127  26.740   5.269   2.875
73345W        W40128   4.690  24.616  13.335
73346W        W40129  15.716  10.928   4.160
73347W        W40130  11.119  10.080  11.631
73348W        W40131  36.916  14.038  12.420
73349W        W40132   9.265   7.283   1.824
73350W        W40133  12.781   1.248  10.719
73351W        W40134  36.868   5.178   1.459
73352W        W40135  16.627  44.964   4.060
73353W        W40136   0.573  41.431  11.713
73354W        W40137  18.682   7.994  10.654
73355W        W40138  40.577   9.121   3.060
73356W        W40139  20.076  39.969  10.637
73357W        W40140  24.994  17.809   2.115
73358W        W40141  39.843  10.555  11.293
73359W        W40142  38.877  41.884  12.482
73360W        W40143  37.472  22.257  11.668
73361W        W40144  29.143  31.613  13.339
73362W        W40145  14.817   0.950  14.796
73363W        W40146   3.453   1.508  12.930
73364W        W40147  21.098   4.985  11.281
73365W        W40148  33.941  39.972   3.148
73366W        W40149  27.540   1.770   0.949
73367W        W40150  15.572  26.118   0.434
73368W        W40151  41.502  16.579   2.854
73369W        W40152  34.398  42.227  12.971
73370W        W40153  43.185   9.880   5.118
73371W        W40154  30.198   1.072   0.493
73372W        W40155  11.832  18.999  13.425
73373W        W40156  35.105   3.512   5.157
73374W        W40157  11.667   3.685   1.385
73375W        W40158  15.080  39.244  13.436
73376W        W40159  44.711  41.364   1.396
73377W        W40160  43.263  29.471  12.665
73378W        W40161  21.249  27.422  11.870
73379W        W40162  23.150  39.539   0.935
73380W        W40163  26.940  39.578   2.467
73381W        W40164  36.574  20.737  12.440
73382W        W40165  29.153  14.270  14.756
73383W        W40166  15.147   0.977   2.246
73384W        W40167  36.604  36.117  14.781
73385W        W40168   1.892  21.728   1.411
73386W        W40169  16.741  32.631   0.651
73387W        W40170  38.526  28.720   3.904
73388W        W40171   7.660  21.259   0.420
73389W        W40172  28.201   1.884  10.139
73390W        W40173   2.231  16.784  11.127
73391W        W40174  39.039  23.998   3.363
73392W        W40175  32.938   9.329   2.293
73393W        W40176  33.894  14.531  10.999
73394W        W40177   2.228   1.249   2.184
73395W        W40178  32.049  33.081  14.694
73396W        W40179  23.066  22.235   3.087
73397W        W40180  42.484  29.035   2.144
73398W        W40181  32.982  29.681   1.335
73399W        W40182  25.016  43.377  11.034
73400W        W40183   5.629  34.241  12.538
73401W        W40184   2.357  33.985  11.560
73402W        W40185  33.646  28.609  11.642
73403W        W40186  22.468  41.870  10.507
73404W        W40187  23.500  23.536  12.072
73405W        W40188  42.537  40.985  14.120
73406W        W40189  13.831  34.179  14.543
73407W        W40190  37.927  15.481  11.227
73408W        W40191  15.342  28.048  14.606
73409W        W40192  24.968  33.940   3.094
73410W        W40193   2.246  13.308   0.078
73411W        W40194  41.381  15.316  11.355
73412W        W40195  41.897  26.877  12.073
73413W        W40196  25.052  11.748   0.690
73414W        W40197   3.287  16.134  14.792
73415W        W40198  19.224  35.846   0.859
73416W        W40199  30.617   5.133  13.177
73417W        W40200  23.173   8.136   4.541
73418W        W40201   2.235  44.595  11.289
73419W        W40202  44.283  30.489  14.002
73420W        W40203  18.098  14.200  12.227
73421W        W40204  26.584  42.851   2.607
73422W        W40205  23.230  24.234  13.045
73423W        W40206  23.851  40.087   4.676
73424W        W40207  24.032  35.801   5.339
73425W        W40208  26.718  24.856   3.758
73426W        W40209   3.981  29.106   1.781
73427W        W40210  30.099  42.929   0.192
73428W        W40211  12.584  14.566   1.872
73429W        W40212  44.755  37.442   2.067
73430W        W40213   8.639  37.144   2.215
73431W        W40214  17.514  26.583   4.558
73432W        W40215  37.666   8.733   1.814
73433W        W40216  40.586  44.245   1.675
73434W        W40217  13.691  29.454   3.362
73435W        W40218  14.801  25.531  14.217
73436W        W40219  14.290  20.752   4.196
73437W        W40220   9.579  14.010   4.471
73438W        W40221  28.086   7.956   4.647
73439W        W40222   9.818  12.919   0.490
73440W        W40223   6.892  30.130  14.844
73441W        W40224  26.512  33.507  10.652
73442W        W40225  27.501   3.101  11.098
73443W        W40226  29.988  33.960   4.924
73444W        W40227  29.710  40.946   2.770
73445W        W40228  17.622   6.158  11.068
73446W        W40229  21.719   5.773   4.512
73447W        W40230  42.035  13.776  10.788
73448W        W40231  39.893  26.107   2.310
73449W        W40232   0.079  39.012   4.102
73450W        W40233  36.881   1.292  14.130
73451W        W40234  12.575  31.157   4.902
73452W        W40235  13.342  27.412  10.773
73453W        W40236  21.815  44.928   2.834
73454W        W40237  21.124   3.024  13.018
73455W        W40238   8.443  19.839  11.630
73456W        W40239  43.312  21.531   0.369
73457W        W40240  37.273  25.031   3.773
73458W        W40241  10.082  27.114   2.322
73459W        W40242  31.384  26.447  12.571
73460W        W40243  18.727  38.805   4.626
73461W        W40244  42.786  37.146  10.446
73462W        W40245  38.427  18.693  14.956
73463W        W40246  12.393   7.143  14.369
73464W        W40247   8.836  23.443   2.624
73465W        W40248   8.831  33.798  11.985
73466W        W40249  33.031   1.191   2.872
73467W        W40250  24.364  31.465  13.583
73468W        W40251  24.203  36.408  14.950
73469W        W40252  22.197  10.733   1.177
73470W        W40253  23.985  26.639  11.634
73471W        W40254  38.492  18.256   4.661
73472W        W40255   3.212  13.616   4.620
73473W        W40256  24.843  27.014  12.146
73474W        W40257  13.649   8.831  11.153
73475W        W40258  25.125   6.486   3.335
73476W        W40259  27.376   2.239   2.788
73477W        W40260  42.407  26.172   2.595
73478W        W40261  30.066  10.251  13.181
73479W        W40262  18.298   8.677   2.375
73480W        W40263  38.204   8.820   1.933
73481W        W40264  23.765  27.953   1.283
73482W        W40265  43.708  22.729  12.126
73483W        W40266  21.424  23.096   2.709
73484W        W40267  35.437   8.721  14.895
73485W        W40268  40.893  37.963   2.697
73486W        W40269  13.127  13.555  14.816
73487W        W40270  28.520  13.279   1.320
73488W        W40271  24.677  33.573  14.047
73489W        W40272  30.393  12.767   3.181
73490W        W40273  24.728  25.061  14.910
73491W        W40274  37.563   3.713  14.722
73492W        W40275   4.737   8.284   0.755
73493W        W40276  33.156   2.173   3.355
73494W        W40277  30.209  20.193   2.566
73495W        W40278  37.070  38.090   5.044
73496W        W40279  43.676  16.703  13.645
73497W        W40280   8.075  31.506  14.799
73498W        W40281  12.815  16.766   1.424
73499W        W40282   7.781  43.241  13.472
73500W        W40283   2.113  41.897  12.430
73501W        W40284  35.517  23.136  12.378
73502W        W40285  39.344  32.976  11.109
73503W        W40286  41.395  38.317  10.747
73504W        W40287  22.135  16.338  14.255
73505W        W40288  14.182  37.729  10.186
73506W        W40289   0.871  42.013   4.142
73507W        W40290  18.035   8.777  10.475
73508W        W40291  39.256  35.887  14.645
73509W        W40292  16.795  26.193   4.269
73510W        W40293   7.940  24.064  14.254
73511W        W40294   4.639   3.961   4.470
73512W        W40295  27.192  37.619   1.431
73513W        W40296  18.173   7.140  11.562
73514W        W40297  12.904  10.826  13.944
73515W        W40298  10.626  11.150   3.700
73516W        W40299   5.226  11.654   0.670
73517W        W40300  29.144  10.186   3.725
73518W        W40301  18.550  21.531  11.292
73519W        W40302  40.701   0.874  11.459
73520W        W40303  36.791  29.644   0.869
73521W        W40304  12.786   8.894  14.228
73522W        W40305  18.016  28.095   4.512
73523W        W40306   0.659   5.957   3.831
73524W        W40307  23.678  25.721   3.259
73525W        W40308   5.899  37.132   0.460
73526W        W40309  23.268  41.764   0.881
73527W        W40310  16.342  28.581   1.300
73528W        W40311  26.735  28.150   0.733
73529W        W40312  29.028  24.901   4.116
73530W        W40313  38.483   5.256   2.186
73531W        W40314   2.258  39.481   4.629
73532W        W40315  21.404  14.835   3.664
73533W        W40316  26.184   9.172   2.925
73534W        W40317  24.663  12.249  13.840
73535W        W40318  30.535  37.685   3.845
73536W        W40319  32.653   7.292   2.682
73537W        W40320  14.900  20.471  10.476
73538W        W40321  24.290   7.480   3.676
73539W        W40322  12.699  36.280   0.034
73540W        W40323   2.414  34.733  12.144
73541W        W40324  17.397  27.491   2.790
73542W        W40325  27.403  30.057  11.477
73543W        W40326  38.239  30.060   4.944
73544W        W40327  41.690  30.371   2.891
73545W        W40328   7.287  19.180   0.889
73546W        W40329  29.899   5.640  13.539
73547W        W40330  15.544  16.668   3.665
73548W        W40331   7.412  40.290   3.732
73549W        W40332   5.881  20.483  14.029
73550W        W40333  33.682  38.527   1.484
73551W        W40334  42.471  23.941   1.499
73552W        W40335  11.010  28.570   3.639
73553W        W40336  29.722  30.475   4.217
73554W        W40337  32.103  44.977  11.548
73555W        W40338  29.588  37.019  11.288
73556W        W40339  38.527  22.200   3.243
73557W        W40340  38.045  33.908  14.603
73558W        W40341  18.033  13.700  11.057
73559W        W40342  16.975  20.373   3.295
73560W        W40343  16.213  32.282   4.557
73561W        W40344   6.818  10.152  13.725
73562W        W40345  18.914   9.357   0.640
73563W        W40346  12.918   7.331   0.802
73564W        W40347   3.970  23.087  12.596
73565W        W40348  43.286  17.279  12.822
73566W        W40349  20.163  11.055   0.443
73567W        W40350   7.749  27.616  13.722
73568W        W40351   4.210   5.677  13.336
73569W        W40352  34.059  34.402  13.754
73570W        W40353  43.809  44.741  12.547
73571W        W40354  30.196  19.224  13.038
73572W        W40355  12.873  25.601   0.326
73573W        W40356  29.930  41.137  11.496
73574W        W40357  32.581  44.714  13.260
73575W        W40358  33.978   5.954  13.426
73576W        W40359  35.003  26.895   2.909
73577W        W40360   3.085  32.273   4.279
73578W        W40361  20.534  34.025   2.640
73579W        W40362  28.117  11.011   1.715
73580W        W40363  21.968  29.411   4.336
73581W        W40364  33.032  12.350  12.470
73582W        W40365  21.235   1.717   4.642
73583W        W40366  41.230   4.940  10.604
73584W        W40367  28.719   6.509  13.482
73585W        W40368   6.490  27.393  12.442
73586W        W40369  10.395  29.210   4.122
73587W        W40370  17.927   7.286  13.583
73588W        W40371  10.783  36.046  11.877
73589W        W40372  36.996  13.815  14.703
73590W        W40373  16.313  17.409   0.537
73591W        W40374  23.247  20.990  11.989
73592W        W40375  22.069  26.223  13.989
73593W        W40376  31.916  24.704  10.637
73594W        W40377  38.260   4.647   2.760
73595W        W40378   1.558  30.625   2.788
73596W        W40379  34.951  23.091   1.394
73597W        W40380  37.034  27.455  13.353
73598W        W40381  41.044  42.365   0.383
73599W        W40382   4.676  34.863   0.094
73600W        W40383   1.396  38.044   3.832
73601W        W40384  26.832  32.413  10.387
73602W        W40385  25.693  11.056  13.916
73603W        W40386   6.121  26.843  10.085
73604W        W40387  42.964  29.554   4.129
73605W        W40388  14.287  25.441   3.688
73606W        W40389   5.815  23.509   1.004
73607W        W40390  38.382  24.566  11.410
73608W        W40391  21.096  40.943  11.966
73609W        W40392  17.615   9.405   4.136
73610W        W40393  12.743  37.050   1.965
73611W        W40394   5.280   1.956  11.602
73612W        W40395  44.041   5.425  12.501
73613W        W40396  41.852  39.451  11.346
73614W        W40397   8.623   6.120  11.141
73615W        W40398   4.318  35.262  14.315
73616W        W40399  38.906  11.925  11.004
73617W        W40400  41.833  33.108   3.276
73618W        W40401  12.606   5.512   0.870
73619W        W40402  25.242  35.557  13.896
73620W        W40403   0.895  25.374   0.933
73621W        W40404  34.242  43.437   4.554
73622W        W40405   9.691  31.162  12.116
73623W        W40406  10.377  17.808   1.257
73624W        W40407  43.911  42.561  14.911
73625W        W40408  10.184  30.037  11.595
73626W        W40409  40.254  21.752   1.868
73627W        W40410  32.165   4.278  14.225
73628W        W40411  34.993  24.605   3.599
73629W        W40412  29.676  37.454   1.136
73630W        W40413  12.060  31.621   1.381
73631W        W40414   2.374  38.020   2.649
73632W        W40415  28.939  42.522  14.058
73633W        W40416  39.611   9.928   5.161
73634W        W40417  26.378  15.157   3.804
73635W        W40418  36.919  26.598  12.438
73636W        W40419   6.845  39.916  10.903
73637W        W40420   7.357  18.965  14.817
73638W        W40421  26.530   5.836   9.851
73639W        W40422   9.336  36.008  12.569
73640W        W40423  13.206  23.762  10.727
73641W        W40424  14.756  42.991  10.009
73642W        W40425  31.009  32.763  13.442
73643W        W40426   9.266  21.400   1.364
73644W        W40427  35.188  30.597  13.792
73645W        W40428  19.140  21.393  12.547
73646W        W40429  16.160  17.168   1.254
73647W        W40430  21.626  22.765  14.397
73648W        W40431  36.844  20.533   3.134
73649W        W40432  18.676  27.672   4.088
73650W        W40433  44.542  43.952  12.995
73651W        W40434  13.755   5.954  12.622
73652W        W40435   5.882  34.413   3.657
73653W        W40436  24.384  29.977   2.286
73654W        W40437  26.789  42.958   9.817
73655W        W40438   3.228  13.878   5.056
73656W        W40439  17.140  38.982   0.378
73657W        W40440  39.965  38.353  13.531
73658W        W40441  35.372  40.927   4.226
73659W        W40442  28.643  10.372   3.499
73660W        W40443  41.425  18.224   1.161
73661W        W40444   0.399  26.205   1.237
73662W        W40445   9.453   0.304   1.176
73663W        W40446  16.907   1.388   4.963
73664W        W40447  14.096  28.036   0.093
73665W        W40448   4.221  39.000   0.647
73666W        W40449  11.416   4.381  14.380
73667W        W40450  37.546  36.923  11.956
73668W        W40451  11.288  22.896   0.202
73669W        W40452   4.795  41.514   0.004
73670W        W40453  17.775   4.316   1.625
73671W        W40454  34.417   5.863  12.151
73672W        W40455  40.267  28.089   3.150
73673W        W40456   2.943  11.631   1.174
73674W        W40457  24.363  44.533   4.000
73675W        W40458  42.401  40.320  13.130
73676W        W40459  34.818  13.124  12.675
73677W        W40460   3.859  31.896  12.422
73678W        W40461  23.980  39.911  14.357
73679W        W40462  41.296   9.183   1.691
73680W        W40463  39.323   1.432   1.667
73681W        W40464   5.920  34.416  12.121
73682W        W40465  32.624  28.083  14.232
73683W        W40466   8.263   3.125   1.417
73684W        W40467  17.352  22.133  12.374
73685W        W40468  38.446  36.817  13.779
73686W        W40469   7.541   4.422  11.246
73687W        W40470  27.635   8.217  13.497
73688W        W40471  21.781  16.151  14.575
73689W        W40472  13.334  21.120  11.683
73690W        W40473   9.554   2.953  11.109
73691W        W40474  33.373  38.421  10.279
73692W        W40475  15.260   8.928   1.295
73693W        W40476  32.167  19.070  12.916
73694W        W40477  33.147  18.235  13.083
73695W        W40478  31.385   5.489   1.465
73696W        W40479  43.782  20.007   1.243
73697W        W40480  29.168  31.396   0.882
73698W        W40481  29.206  23.718  11.209
73699W        W40482  15.107  27.470   3.199
73700W        W40483   3.762  35.913  12.228
73701W        W40484   0.226  32.420   0.191
73702W        W40485   1.385  28.823   4.146
73703W        W40486   2.181  23.583  12.538
73704W        W40487   1.978  29.666  14.259
73705W        W40488  34.485  18.083  13.449
73706W        W40489  28.906  26.673   0.252
73707W        W40490  25.147  31.669  11.964
73708W        W40491   0.168  16.789   0.796
73709W        W40492   2.672  21.397  13.392
73710W        W40493  17.709  18.653   0.865
73711W        W40494   9.590   3.445  11.641
73712W        W40495  32.884   3.860   4.522
73713W        W40496  36.410  23.116   4.572
73714W        W40497  35.319  24.581  13.103
73715W        W40498  24.647   7.770   3.438
73716W        W40499  25.760   9.935   0.339
73717W        W40500  40.808  15.786   3.995
73718W        W40501   9.870  24.977  11.073
73719W        W40502  43.886  31.635   1.932
73720W        W40503  29.141  28.790  11.907
73721W        W40504  24.487  18.952   0.834
73722W        W40505  13.762   8.184  10.078
73723W        W40506  41.000   2.343  10.547
73724W        W40507   2.715   3.535  13.153
73725W        W40508  18.230  38.039  13.497
73726W        W40509  41.335  29.434  14.083
73727W        W40510  36.971  21.786  13.784
73728W        W40511   5.685  10.140   1.252
73729W        W40512  42.021  26.473  12.884
73730W        W40513   2.375  26.716   3.328
73731W        W40514   6.324  42.845   0.554
73732W        W40515  25.060  31.656   2.719
73733W        W40516  40.869  16.169   0.946
73734W        W40517  27.632   4.933  11.850
73735W        W40518  37.013  29.406  14.420
73736W        W40519   4.168  16.279   4.268
73737W        W40520  37.597  32.604   1.822
73738W        W40521  36.466  44.176   4.065
73739W        W40522   9.234   4.206   3.667
73740W        W40523  43.441  28.047   0.101
73741W        W40524  15.404  20.385  14.906
73742W        W40525   4.729  40.326  10.533
73743W        W40526  17.812  42.958  13.031
73744W        W40527   9.237  32.821   0.636
73745W        W40528   8.118   7.596   3.658
73746W        W40529  16.741  28.129  14.267
73747W        W40530   4.828  11.374   2.294
73748W        W40531  10.800  20.442   4.628
73749W        W40532  39.122  33.995  14.907
73750W        W40533  39.848  15.961   1.309
73751W        W40534  36.297   9.321   3.292
73752W        W40535   4.777  32.875   1.075
73753W        W40536  19.659  29.231   2.202
73754W        W40537  23.560   3.628   2.260
73755W        W40538  31.530  41.498  12.995
73756W        W40539  41.514  23.153  12.073
73757W        W40540   4.923  12.901   3.401
73758W        W40541  14.716   9.401   9.806
73759W        W40542  35.370   8.135   5.447
73760W        W40543   4.766  35.113   1.092
73761W        W40544  43.202  13.433  13.316
73762W        W40545  13.262  39.266   1.449
73763W        W40546   9.653  14.072  12.508
73764W        W40547   7.288  20.687   1.737
73765W        W40548  17.662   9.153  14.605
73766W        W40549  37.872  38.830  12.163
73767W        W40550  27.993   8.179  11.501
73768W        W40551  41.507  11.099   3.648
73769W        W40552  18.446  16.097   2.795
73770W        W40553  38.756  37.366  10.292
73771W        W40554  23.136  12.756   0.413
73772W        W40555  29.489  21.969   4.466
73773W        W40556  40.474  10.287  14.512
73774W        W40557  13.014  16.211   3.470
73775W        W40558  20.817   8.374  12.196
73776W        W40559  15.026  21.094   2.141
73777W        W40560  23.053  42.412  12.027
73778W        W40561  32.311  27.968  14.699
73779W        W40562  28.309  36.940  11.710
73780W        W40563   4.803  12.171   0.278
73781W        W40564  42.020   0.888   3.482
73782W        W40565   4.748   0.873  11.977
73783W        W40566   8.907  19.048   3.923
73784W        W40567  14.710  15.167  13.628
73785W        W40568  21.694  27.134   0.706
73786W        W40569  19.571   7.693  12.878
73787W        W40570  31.906  25.622   1.999
73788W        W40571  35.835   3.213   1.214
73789W        W40572   3.421  43.869   4.582
73790W        W40573  15.660  22.335   2.614
73791W        W40574  24.040   3.408   0.728
73792W        W40575  24.024  36.869  12.515
73793W        W40576  18.128  40.528  10.403
73794W        W40577  42.666  41.984  13.770
73795W        W40578  25.384  20.690  11.185
73796W        W40579  32.560  35.404   0.834
73797W        W40580  38.274  19.176  13.046
73798W        W40581  35.453  39.035  10.920
73799W        W40582  42.517   3.360   4.397
73800W        W40583  34.869  26.240  12.958
73801W        W40584  41.771  36.038  12.485
73802W        W40585   7.648  17.814   1.430
73803W        W40586  38.573  28.489  12.061
73804W        W40587   4.983  22.106  10.617
73805W        W40588  35.052  24.645   2.549
73806W        W40589  23.176  15.763   3.570
73807W        W40590  36.113  23.572   1.595
73808W        W40591   4.294  11.738   4.437
73809W        W40592  29.298  23.997  11.677
73810W        W40593  16.522  20.626  14.175
73811W        W40594  42.801  12.311   0.362
73812W        W40595  44.728  21.671   3.398
73813W        W40596  16.206  44.332   0.033
73814W        W40597  24.044  36.927   4.814
73815W        W40598  40.803  42.828  10.688
73816W        W40599   5.944   5.841   0.260
73817W        W40600  27.598   4.138   4.405
73818W        W40601  29.895  39.959   5.183
73819W        W40602  37.613  22.207   1.394
73820W        W40603   3.885  20.806  10.508
73821W        W40604  22.115  11.742   0.352
73822W        W40605  22.719  28.134  10.560
73823W        W40606  19.611  40.056   2.501
73824W        W40607  21.521   6.089   4.141
73825W        W40608  23.470  32.478  13.827
73826W        W40609  20.278  32.531   0.024
73827W        W40610  10.836  33.411  12.985
73828W        W40611  32.199   8.693  14.853
73829W        W40612  30.392  34.935  14.664
73830W        W40613   5.818  28.048   3.984
73831W        W40614  41.032  15.154  14.401
73832W        W40615  34.323  25.852   3.223
73833W        W40616  20.376   8.130  11.361
73834W        W40617  31.863  17.704   1.965
73835W        W40618  22.912  40.765   4.608
73836W        W40619  43.488  14.157   0.020
73837W        W40620  22.794  22.284   5.180
73838W        W40621  28.690  13.159  11.491
73839W        W40622  13.848   9.932  11.685
73840W        W40623  39.543  44.818  10.733
73841W        W40624  43.041  13.038   3.332
73842W        W40625  17.244  23.033   4.813
73843W        W40626  29.468  33.487  11.122
73844W        W40627   1.770  14.223  13.819
73845W        W40628  31.433  10.859  14.730
73846W        W40629   0.479   0.404   4.265
73847W        W40630  35.979  17.071  14.891
73848W        W40631  36.376  12.374  13.104
73849W        W40632  40.283  38.491  14.446
73850W        W40633  13.847  36.037   4.596
73851W        W40634  32.902   1.931  14.560
73852W        W40635  38.374  14.606  14.352
73853W        W40636  27.968  10.847  12.454
73854W        W40637  16.566   1.745  12.135
73855W        W40638   4.086  43.418   2.145
73856W        W40639  16.077  10.195  10.626
73857W        W40640  39.798   8.347  13.487
73858W        W40641   2.059  12.712   1.359
73859W        W40642  25.797   3.936  10.739
73860W        W40643   0.519  12.659  10.169
73861W        W40644   3.993  35.132  12.837
73862W        W40645  12.865   0.665  12.350
73863W        W40646  10.137  35.475  13.511
73864W        W40647   9.809  32.476   3.672
73865W        W40648   1.668  36.486   1.740
73866W        W40649  34.026  32.246   5.045
73867W        W40650  12.306   5.992  13.039
73868W        W40651  28.049  20.899  10.535
73869W        W40652  33.712  40.464   3.304
73870W        W40653  42.580  22.977  14.305
73871W        W40654  38.549  12.104   0.770
73872W        W40655  26.989  20.394  13.793
73873W        W40656  20.093  43.380   1.472
73874W        W40657  10.329  33.182   2.867
73875W        W40658  14.805  10.396  12.099
73876W        W40659   5.791   2.706  11.575
73877W        W40660  31.742  37.331   0.891
73878W        W40661  25.658  32.665   1.739
73879W        W40662  22.704   1.067   5.444
73880W        W40663  22.627  20.971  12.691
73881W        W40664   6.300  41.300   4.986
73882W        W40665  41.980  28.133   2.748
73883W        W40666  31.906  11.939  13.768
73884W        W40667  17.519  22.714  10.308
73885W        W40668  13.810  11.097   4.599
73886W        W40669  31.138  41.805  12.535
73887W        W40670  15.590  32.965  11.796
73888W        W40671  23.293  13.302   1.882
73889W        W40672  39.378  25.698   1.347
73890W        W40673  26.668  38.647   0.837
73891W        W40674  13.392  40.769   1.941
73892W        W40675  41.936  44.057  13.789
73893W        W40676  12.855   8.329   3.613
73894W        W40677  42.819  32.998   1.051
73895W        W40678  29.218  12.124  14.394
73896W        W40679  44.213  15.337   0.432
73897W        W40680   6.836  24.073  11.297
73898W        W40681  31.452  44.857  13.385
73899W        W40682  34.702  41.135   2.760
73900W        W40683  41.774  31.647   3.250
73901W        W40684  23.132  23.513   0.832
73902W        W40685  22.765  12.264   1.590
73903W        W40686  37.414  44.707  11.189
73904W        W40687  21.152  38.033   3.175
73905W        W40688  43.366  20.632   0.887
73906W        W40689   8.385  16.582   2.660
73907W        W40690  44.532  18.085  12.988
73908W        W40691  22.257  28.722   1.435
73909W        W40692  20.245  31.045  12.929
73910W        W40693  13.799  20.400   2.113
73911W        W40694  22.246  40.993   3.397
73912W        W40695  38.506  15.214  10.972
73913W        W40696  42.496  43.684  12.041
73914W        W40697   0.270  28.995   4.179
73915W        W40698  36.376  28.763  12.958
73916W        W40699  16.393  42.289  13.068
73917W        W40700  18.890  14.709   0.807
73918W        W40701   0.429   6.832  13.658
73919W        W40702  27.500   1.976  12.205
73920W        W40703  29.664  23.236  13.387
73921W        W40704  32.150  24.714   4.277
73922W        W40705   0.228  19.595   2.832
73923W        W40706  25.325  20.856  10.708
73924W        W40707  20.331  35.518   3.729
73925W        W40708  39.801   0.744  11.146
73926W        W40709   7.071  29.017  11.565
73927W        W40710  13.364  38.795  14.877
73928W        W40711  40.036  21.448   2.233
73929W        W40712  36.447  40.745  13.218
73930W        W40713   4.289  14.940   0.439
73931W        W40714  28.942  42.429  11.512
73932W        W40715  18.541  17.833   1.299
73933W        W40716   2.297  25.455  11.598
73934W        W40717  18.702   3.674   1.663
73935W        W40718   7.281  16.705   0.514
73936W        W40719  39.407  12.549  12.441
73937W        W40720  34.875  20.814  11.597
73938W        W40721  38.468  40.721   4.680
73939W        W40722  13.074  24.606   3.366
73940W        W40723  35.401   0.080  13.580
73941W        W40724  36.140  28.199   3.778
73942W        W40725   7.147  27.893   0.479
73943W        W40726  28.357  44.997  12.766
73944W        W40727  21.359   8.264  10.700
73945W        W40728  29.354   0.459  10.647
73946W        W40729  19.917   3.828  12.467
73947W        W40730   3.508   9.312   1.736
73948W        W40731  21.919  44.323   3.617
73949W        W40732  37.858   7.367   0.699
73950W        W40733   3.039  24.103  11.209
73951W        W40734   8.647  30.114   3.698
73952W        W40735   9.436   4.394  14.392
73953W        W40736  29.998  29.665   0.770
73954W        W40737  31.213  24.134   4.953
73955W        W40738  41.490  23.233   0.398
73956W        W40739  35.020  23.214  13.303
73957W        W40740  16.610  31.601   1.418
73958W        W40741  44.345  36.755  11.551
73959W        W40742  11.466   8.638   4.139
73960W        W40743  10.955  32.848   1.255
73961W        W40744  37.858   2.925   0.438
73962W        W40745  19.558   5.636   4.043
73963W        W40746  16.370  28.910   2.100
73964W        W40747   6.191  18.828   0.236
73965W        W40748  25.519  34.481  13.369
73966W        W40749  33.028  21.727   1.473
73967W        W40750  25.491  19.845   1.674
73968W        W40751  43.336  24.547   4.556
73969W        W40752   1.241  14.367  13.829
73970W        W40753  36.449  44.418   2.623
73971W        W40754  42.811   6.424   1.107
73972W        W40755  35.428  36.021  10.761
73973W        W40756  12.404   3.579   2.266
73974W        W40757  41.427   6.156   4.490
73975W        W40758   8.196  29.656  12.382
73976W        W40759  14.299  35.310  10.629
73977W        W40760  42.028  29.392   0.004
73978W        W40761  10.200  40.770   0.837
73979W        W40762  21.746  12.162   1.765
73980W        W40763  21.649   7.237   0.932
73981W        W40764  21.009  32.920  12.637
73982W        W40765  18.650  37.282   0.555
73983W        W40766  22.174  27.547  13.617
73984W        W40767   6.585  28.924   2.754
73985W        W40768  31.506  32.603   2.615
73986W        W40769  33.991   1.420   0.406
73987W        W40770  28.916  15.124   0.352
73988W        W40771  19.100  38.816   1.346
73989W        W40772  16.704  13.288   0.995
73990W        W40773  28.162   9.756   0.993
73991W        W40774   8.924  14.060  13.586
73992W        W40775  33.589  38.039   0.752
73993W        W40776  44.332  14.840   0.500
73994W        W40777  23.285  21.199   4.437
73995W        W40778   8.212  26.058   4.141
73996W        W40779  33.097  21.599  14.903
73997W        W40780  41.202  10.265  12.021
73998W        W40781  37.825   2.726  13.001
73999W        W40782  12.025   6.403  11.740
74000W        W40783   1.445  39.647   0.365
74001W        W40784  15.230   0.949  13.429
74002W        W40785  39.568  38.118   3.150
74003W        W40786  29.509   1.457  12.001
74004W        W40787  35.598  10.630  10.993
74005W        W40788  17.658  28.874   1.965
74006W        W40789  38.118   6.334   4.605
74007W        W40790  36.063  12.773   3.669
74008W        W40791  28.221  31.008  12.757
74009W        W40792  39.877  34.236  13.511
74010W        W40793  17.955   9.676  11.869
74011W        W40794   6.801  24.400  13.716
74012W        W40795  13.238  34.938  14.682
74013W        W40796  36.408  38.851   1.364
74014W        W40797   1.769  41.256   4.298
74015W        W40798   8.762  12.025  12.122
74016W        W40799  16.065  44.332   1.398
74017W        W40800  35.008  22.021   3.337
74018W        W40801  34.498  44.374   2.077
74019W        W40802  14.143  41.000   3.193
74020W        W40803  16.992  42.024   0.202
74021W        W40804  37.240  28.244   1.745
74022W        W40805  11.035  19.637   4.845
74023W        W40806  32.999  18.646  10.536
74024W        W40807  41.344  27.104   2.112
74025W        W40808  35.942  39.105   1.637
74026W        W40809  18.081  43.867  13.762
74027W        W40810   9.298  34.340  13.530
74028W        W40811  38.630  44.672   2.497
74029W        W40812   8.396  16.445  10.851
74030W        W40813  29.823  24.101  11.662
74031W        W40814  18.768  44.509   2.765
74032W        W40815  27.169  15.237  13.962
74033W        W40816  22.486  43.255   0.400
74034W        W40817   9.623  29.115   4.507
74035W        W40818  31.184  41.820  13.908
74036W        W40819  22.776   8.437   3.228
74037W        W40820  16.363  39.596  11.434
74038W        W40821  30.123  38.918  13.549
74039W        W40822  33.052  26.413   2.730
74040W        W40823  24.452  33.891  11.601
74041W        W40824  25.881   2.592   0.282
74042W        W40825  23.023  11.162  11.180
74043W        W40826   4.836  41.236   1.078
74044W        W40827  37.034  30.269  11.970
74045W        W40828  29.997   7.841   0.481
74046W        W40829   5.943  23.400  11.254
74047W        W40830  37.380  21.262   3.101
74048W        W40831  28.701  34.890  14.903
74049W        W40832   6.877   7.322  10.703
74050W        W40833  44.656  21.782   3.902
74051W        W40834  16.095  31.372   0.914
74052W        W40835  39.047  39.889  11.943
74053W        W40836  16.720  33.743  13.885
74054W        W40837   4.902  19.005  13.290
74055W        W40838  32.572  19.116  12.603
74056W        W40839   8.601  21.722  13.824
74057W        W40840   2.865  25.629   4.463
74058W        W40841  23.909   5.491   0.093
74059W        W40842  27.772  28.483  12.951
74060W        W40843  13.374  26.677   1.306
74061W        W40844   2.803  33.058   1.345
74062W        W40845  17.755  22.397   2.838
74063W        W40846  20.596   1.788  13.068
74064W        W40847  42.894  12.619   0.770
74065W        W40848  41.023  20.470  14.646
74066W        W40849  36.354  17.221   0.816
74067W        W40850  29.534  13.938  14.806
74068W        W40851  38.116  30.677  11.119
74069W        W40852   3.205  34.426  14.830
74070W        W40853   9.279  11.843   0.769
74071W        W40854  39.921  32.951   4.672
74072W        W40855  35.554  30.590  12.567
74073W        W40856  26.159  17.917  12.062
74074W        W40857   8.008   2.148  14.092
74075W        W40858  35.852  32.992  13.773
74076W        W40859  32.597  43.742  10.756
74077W        W40860   9.948   8.990   2.234
74078W        W40861  22.611   3.236   0.906
74079W        W40862   8.551  14.690  12.963
74080W        W40863  36.322  39.065  13.124
74081W        W40864  12.313  13.784   0.278
74082W        W40865  23.722   0.896   2.750
74083W        W40866   4.530   7.720  14.231
74084W        W40867   9.811  20.895   0.869
74085W        W40868  13.888  17.585   4.532
74086W        W40869  36.650   6.194  10.350
74087W        W40870  40.135  14.767  10.778
74088W        W40871   1.331  30.673  10.587
74089W        W40872  31.448  34.104   1.850
74090W        W40873  34.006  42.461  12.365
74091W        W40874  10.901   9.699   3.790
74092W        W40875   3.272  39.272   2.724
74093W        W40876  12.296  10.902  11.645
74094W        W40877  30.747   9.815  11.699
74095W        W40878  23.106   9.142  12.093
74096W        W40879  17.200  37.587   1.945
74097W        W40880  18.481  41.064  13.043
74098W        W40881  15.551  35.445  13.767
74099W        W40882  15.080  36.045  12.612
74100W        W40883   8.624  21.797   3.554
74101W        W40884  12.647  29.027   1.687
74102W        W40885  12.732  20.735   2.300
74103W        W40886  41.612  43.830   1.259
74104W        W40887  17.196  23.700   2.773
74105W        W40888  18.495  29.234  12.975
74106W        W40889  34.379  43.918   2.783
74107W        W40890  35.502  26.211   4.669
74108W        W40891  25.984  26.622   1.404
74109W        W40892  12.140  23.701   2.202
74110W        W40893  43.161  10.971  13.544
74111W        W40894  35.851   2.944  12.570
74112W        W40895  17.296   7.432   3.324
74113W        W40896  42.240  22.978   1.900
74114W        W40897  39.054   5.958  12.363
74115W        W40898   5.437  30.996   1.191
74116W        W40899  12.170   4.315   2.750
74117W        W40900   3.927  15.631   2.182
74118W        W40901  31.907  26.759   2.918
74119W        W40902  39.324   2.774  10.576
74120W        W40903   3.227  19.805   3.572
74121W        W40904  28.589  16.655   0.216
74122W        W40905  37.531  25.744  12.985
74123W        W40906  38.577  37.651  12.152
74124W        W40907   8.357   4.781   1.803
74125W        W40908  26.128  42.197  10.312
74126W        W40909  43.868   1.500   0.857
74127W        W40910   7.015  23.487  14.879
74128W        W40911   2.474  43.545  12.939
74129W        W40912  33.403  33.597  11.160
74130W        W40913  32.840   5.960   4.476
74131W        W40914  15.421   2.319   2.639
74132W        W40915  25.066   5.970  11.437
74133W        W40916   6.223  25.262  11.670
74134W        W40917  13.082  17.125   4.180
74135W        W40918   2.075   1.230  13.068
74136W        W40919  38.853  26.585  10.030
74137W        W40920  20.089  29.883   3.157
74138W        W40921  39.449  43.357   4.503
74139W        W40922  34.393  22.211   2.791
74140W        W40923  27.087   3.728   0.078
74141W        W40924  29.749  40.418   4.998
74142W        W40925  35.781  21.059  12.437
74143W        W40926  24.609   0.602   3.113
74144W        W40927   7.302  36.621   1.283
74145W        W40928  38.276  22.549  10.395
74146W        W40929  30.871  41.775   0.734
74147W        W40930  32.162  42.237  11.897
74148W        W40931  26.371  10.229   4.960
74149W        W40932  12.566  31.003   2.641
74150W        W40933  11.644  24.267  14.425
74151W        W40934  30.998  23.299   0.411
74152W        W40935  36.989  42.516  13.420
74153W        W40936  25.416  35.291  11.139
74154W        W40937  19.037  44.765   2.370
74155W        W40938  38.008  11.237  10.498
74156W        W40939  14.438  10.529  14.824
74157W        W40940   6.777  38.155  12.486
74158W        W40941   2.327   3.876  13.919
74159W        W40942  10.005  11.206  11.896
74160W        W40943  43.634  10.795  12.199
74161W        W40944   9.729  30.486   3.359
74162W        W40945  23.968  44.395   0.253
74163W        W40946  17.741  26.996  14.404
74164W        W40947   0.455  44.383   3.326
74165W        W40948  36.477  37.853   4.097
74166W        W40949  32.084  32.536   2.518
74167W        W40950   1.838  26.745   4.777
74168W        W40951   9.855  38.250  14.193
74169W        W40952  40.108  36.654   0.950
74170W        W40953  13.662  37.726  11.707
74171W        W40954  24.659   4.974   0.530
74172W        W40955  34.885  42.834   1.191
74173W        W40956  34.328  21.863   4.990
74174W        W40957  22.044   5.008  11.440
74175W        W40958  32.411   9.288   1.345
74176W        W40959   4.174  27.685   2.407
74177W        W40960  14.313   8.400  14.947
74178W        W40961  11.600  23.097  14.724
74179W        W40962  31.447  30.137  10.689
74180W        W40963  19.934  36.536   0.197
74181W        W40964   9.651  10.673  13.505
74182W        W40965  24.613  43.706   3.076
74183W        W40966  21.838  10.780  11.101
74184W        W40967   2.023  24.150   2.738
74185W        W40968  11.834  27.744  14.364
74186W        W40969   4.318   6.771   2.822
74187W        W40970  15.848  29.996  11.606
74188W        W40971   3.376  40.893  11.100
74189W        W40972  10.402  15.231   2.816
74190W        W40973  39.022  23.161  10.842
74191W        W40974  15.125   1.823   4.895
74192W        W40975   9.834   3.483  14.408
74193W        W40976   3.934  27.853  11.499
74194W        W40977  44.307  11.306   2.138
74195W        W40978   8.341   0.397   4.652
74196W        W40979  39.346   9.142  12.114
74197W        W40980  26.712  32.058   0.827
74198W        W40981  41.470  35.071  14.374
74199W        W40982  41.068  38.992  13.928
74200W        W40983  27.717  33.998   0.895
74201W        W40984  40.564  21.007   1.702
74202W        W40985  15.109  37.043  12.966
74203W        W40986  38.261   8.815  14.852
74204W        W40987  33.388   3.613   3.686
74205W        W40988  29.216   2.917   0.502
74206W        W40989   3.259  43.287   3.370
74207W        W40990  42.880   8.024  14.907
74208W        W40991  25.120  34.519  12.444
74209W        W40992  26.960  29.066  14.376
74210W        W40993  17.721  37.016  14.251
74211W        W40994   2.071  19.303   3.606
74212W        W40995  12.367  31.423   2.871
74213W        W40996   0.531   2.212  13.903
74214W        W40997  34.568  19.470  13.809
74215W        W40998   1.533  37.442  12.763
74216W        W40999  43.411   9.725  10.971
74217W        W41000  39.900  41.245   4.125
74218W        W41001  36.111  14.221   4.770
74219W        W41002  41.426   9.402   1.134
74220W        W41003  11.848  38.474  11.487
74221W        W41004  27.946  38.861   2.820
74222W        W41005   5.290  41.497   0.311
74223W        W41006  23.300  30.565  12.770
74224W        W41007   9.739  31.698   0.378
74225W        W41008  31.377   8.104  13.072
74226W        W41009  26.623  30.720   3.932
74227W        W41010  29.627   7.062   3.911
74228W        W41011  18.588  11.791  13.923
74229W        W41012  22.887  30.289  11.059
74230W        W41013  31.565  21.716   3.596
74231W        W41014   1.040  33.459  11.686
74232W        W41015  15.291  25.748  14.237
74233W        W41016   3.013   1.767   2.736
74234W        W41017  38.288  35.799  11.090
74235W        W41018  33.821  19.743  14.377
74236W        W41019  19.363   6.903   3.705
74237W        W41020   2.681  35.085   2.146
74238W        W41021  32.220  42.772   2.622
74239W        W41022  36.521  17.772   3.666
74240W        W41023   6.535  30.551  14.847
74241W        W41024  38.273  30.116   1.385
74242W        W41025  13.445  42.968   3.789
74243W        W41026  10.839  30.983  12.611
74244W        W41027  30.718   3.318  12.948
74245W        W41028  16.625   2.771  13.595
74246W        W41029  18.772  16.741  12.101
74247W        W41030   0.303   8.875  12.450
74248W        W41031   6.101  41.834   0.872
74249W        W41032  38.060  32.365   3.445
74250W        W41033  33.726  42.096  11.570
74251W        W41034  32.787   3.342  14.295
74252W        W41035   1.918   6.926  10.750
74253W        W41036  13.191  36.856   2.238
74254W        W41037  41.337  25.661  12.412
74255W        W41038  34.818  18.702  14.802
74256W        W41039  27.978   6.384  14.757
74257W        W41040   0.663   9.859   2.922
74258W        W41041  31.176  10.140   4.672
74259W        W41042  39.766   1.421   0.866
74260W        W41043  36.365  10.137  12.389
74261W        W41044   7.992  44.624  14.464
74262W        W41045   9.699  31.337   1.255
74263W        W41046  31.924  37.047   0.490
74264W        W41047   6.363  19.655  13.043
74265W        W41048  28.409  39.800  14.861
74266W        W41049  18.961  19.786   0.369
74267W        W41050   8.326   8.285   4.945
74268W        W41051   2.786   5.854   0.972
74269W        W41052  40.294  13.624  14.452
74270W        W41053  21.483  31.098   4.284
74271W        W41054   9.389   7.291   3.399
74272W        W41055   3.244  34.220  10.339
74273W        W41056  15.256  42.093   4.898
74274W        W41057  43.096   6.681  10.732
74275W        W41058  19.160  43.198   1.224
74276W        W41059  41.227   7.869  14.504
74277W        W41060  41.850  35.323  11.947
74278W        W41061  28.302  26.621   4.373
74279W        W41062   3.231  30.423  10.610
74280W        W41063  29.434  21.229  10.757
74281W        W41064  14.901  19.389   4.195
74282W        W41065   0.001   6.243  14.915
74283W        W41066  25.045  44.067   3.095
74284W        W41067   0.819   5.222  13.987
74285W        W41068  40.553  37.301   2.755
74286W        W41069  35.309  31.530   2.235
74287W        W41070  44.511  24.224   2.772
74288W        W41071   0.453  34.086   0.006
74289W        W41072  18.662  20.197   3.713
74290W        W41073  15.930  21.362   4.983
74291W        W41074   6.744  19.391   1.450
74292W        W41075  17.146  15.790   2.418
74293W        W41076  28.973  20.277   4.103
74294W        W41077  29.253  16.662   1.538
74295W        W41078  37.298  14.120   0.756
74296W        W41079  26.647  17.977   4.141
74297W        W41080  34.317  11.287  11.988
74298W        W41081  30.736  34.717  11.401
74299W        W41082  27.685   2.975  12.454
74300W        W41083  38.101   7.307  10.144
74301W        W41084  44.439  36.124  10.391
74302W        W41085  29.922  20.237   3.762
74303W        W41086  41.372   9.547   0.573
74304W        W41087  35.747  27.700   1.172
74305W        W41088  35.459   2.707   0.617
74306W        W41089  30.174  43.941  13.067
74307W        W41090  17.401  37.837   4.129
74308W        W41091  38.957  23.060   4.208
74309W        W41092  26.915  43.355  14.417
74310W        W41093   5.138  16.059  14.225
74311W        W41094  24.172  34.485   2.623
74312W        W41095  25.714  22.675   3.278
74313W        W41096   9.949  30.029   3.276
74314W        W41097  16.590  42.719   3.155
74315W        W41098  20.110  33.520   2.143
74316W        W41099  24.660  23.247   4.091
74317W        W41100  18.854   5.274  14.516
74318W        W41101  25.012  16.124  14.925
74319W        W41102  34.572  16.531  13.937
74320W        W41103  40.976   7.899   2.420
74321W        W41104  29.174   2.960  13.436
74322W        W41105  43.452  31.141   3.149
74323W        W41106  12.627  42.799   0.042
74324W        W41107  41.903  44.779   0.860
74325W        W41108  33.557  27.871  10.184
74326W        W41109  10.688  21.451  11.741
74327W        W41110   4.908  23.106  14.669
74328W        W41111   6.876  36.453   1.003
74329W        W41112  31.970  12.088  12.066
74330W        W41113  33.441  28.908   1.194
74331W        W41114  19.702  25.864   0.105
74332W        W41115  42.008  25.089   3.820
74333W        W41116  18.267   0.892   2.814
74334W        W41117  15.967  30.490   1.706
74335W        W41118  21.531  34.735  12.090
74336W        W41119  43.403  43.357  11.946
74337W        W41120  25.255  34.006  12.374
74338W        W41121  26.749  25.492   0.793
74339W        W41122   2.259   4.302  13.578
74340W        W41123  15.040  39.530   3.520
74341W        W41124  34.640   1.386  14.722
74342W        W41125  43.948  17.395   0.282
74343W        W41126  13.858  10.302   2.538
74344W        W41127  42.002  27.456   4.115
74345W        W41128   6.800  27.171   4.761
74346W        W41129  17.059  40.832   4.190
74347W        W41130   6.902  18.732  11.958
74348W        W41131  13.645  33.525   4.046
74349W        W41132  30.663  16.845   3.099
74350W        W41133  10.182  11.327   0.806
74351W        W41134  11.589  29.259  14.583
74352W        W41135   3.285  44.708   1.268
74353W        W41136   3.299  29.363   0.297
74354W        W41137  29.593  26.446  12.668
74355W        W41138   7.496  18.652  13.111
74356W        W41139  41.281  21.153   3.704
74357W        W41140   2.323  20.860   2.315
74358W        W41141  19.647  10.679  12.312
74359W        W41142  29.617  35.564   4.093
74360W        W41143  25.171  43.923  13.292
74361W        W41144   5.175  14.684  13.973
74362W        W41145  13.298  38.373   1.604
74363W        W41146  25.426  25.169   1.307
74364W        W41147  39.200  35.435   4.942
74365W        W41148  10.141  31.397   2.528
74366W        W41149  38.962  14.590  14.863
74367W        W41150  42.541  20.471  11.649
74368W        W41151  15.409  35.331  11.091
74369W        W41152  10.712  32.903  13.069
74370W        W41153  20.481   2.409   1.223
74371W        W41154  16.407   0.411  12.471
74372W        W41155  24.893  27.067   0.722
74373W        W41156  11.706  24.390   3.281
74374W        W41157  38.613  33.657  11.979
74375W        W41158  23.555  41.776  13.691
74376W        W41159  33.581  11.384  13.292
74377W        W41160  26.852  42.779   3.043
74378W        W41161   2.789  20.031   3.312
74379W        W41162  43.515  15.284   4.489
74380W        W41163  14.018   6.281  11.241
74381W        W41164  14.402  42.856   3.491
74382W        W41165   5.436   5.619   4.173
74383W        W41166   2.736  43.321  12.559
74384W        W41167  34.380  32.338  11.147
74385W        W41168  25.565  23.992  13.035
74386W        W41169  15.606   1.260   1.851
74387W        W41170  10.487  32.519   3.291
74388W        W41171  16.463  29.172   0.377
74389W        W41172   9.860  27.649   2.195
74390W        W41173  43.168  27.512   3.239
74391W        W41174  27.561  19.152  10.768
74392W        W41175  31.828  32.169  11.678
74393W        W41176  24.397  14.978   0.967
74394W        W41177  32.370  38.826   3.717
74395W        W41178  41.939  18.535   3.300
74396W        W41179  28.558  15.387   1.748
74397W        W41180  34.548  24.989  11.894
74398W        W41181  37.214  37.395   4.521
74399W        W41182  35.885  23.771   0.343
74400W        W41183   4.688  35.456   2.155
74401W        W41184  43.755  31.328   0.952
74402W        W41185   1.048  32.279   0.811
74403W        W41186  42.421  22.782  12.807
74404W        W41187   8.325  39.885   4.644
74405W        W41188  38.934  15.276  11.259
74406W        W41189   7.308  29.470  11.779
74407W        W41190   9.031  21.588  13.515
74408W        W41191  10.711  44.801   3.785
74409W        W41192  15.152  25.664  11.918
74410W        W41193  20.807  23.247  10.606
74411W        W41194  11.940  30.091  11.986
74412W        W41195  33.562  26.859   1.327
74413W        W41196  24.899  26.195  12.441
74414W        W41197  43.394  31.546   4.547
74415W        W41198  31.881  17.466   4.259
74416W        W41199  21.570  39.793  12.461
74417W        W41200  35.360  14.292   1.472
74418W        W41201  29.473  12.845   3.646
74419W        W41202  41.344  31.593   2.420
74420W        W41203  15.133  43.820  13.012
74421W        W41204  30.589  22.972   2.446
74422W        W41205  34.564   4.027  12.573
74423W        W41206  35.451  26.667   4.936
74424W        W41207   6.891  19.671   2.382
74425W        W41208  37.625   5.178   0.220
74426W        W41209  28.590  13.087   3.452
74427W        W41210  30.396  19.765  10.624
74428W        W41211   7.410  25.155  10.718
74429W        W41212  17.531   8.430  11.600
74430W        W41213   7.520  35.949   2.805
74431W        W41214  35.029  13.865  13.550
74432W        W41215  17.685   2.741   1.317
74433W        W41216  42.397  40.615   2.302
74434W        W41217  43.046   3.307   4.348
74435W        W41218  38.003   5.251  12.605
74436W        W41219  19.230  11.849   4.366
74437W        W41220  13.762  27.184  13.492
74438W        W41221   9.459   9.285   4.952
74439W        W41222  27.105   7.013  11.307
74440W        W41223  27.557  16.129  12.347
74441W        W41224  42.127  11.712  10.293
74442W        W41225  32.240   0.666   2.699
74443W        W41226  24.212  24.578   1.298
74444W        W41227   8.624  16.677   2.216
74445W        W41228  36.568  22.044  11.979
74446W        W41229  34.855  37.313  12.416
74447W        W41230  12.895  18.122   2.787
74448W        W41231  28.590  41.009   1.410
74449W        W41232   4.782   8.187   3.642
74450W        W41233  10.533   3.889  10.331
74451W        W41234  18.086   4.227   0.691
74452W        W41235  44.351   5.107   1.180
74453W        W41236   1.908  39.811   0.533
74454W        W41237  33.845  34.064   1.725
74455W        W41238  32.436  11.212  10.934
74456W        W41239  10.256   2.325   2.185
74457W        W41240  41.929  12.716   2.117
74458W        W41241  18.515   2.583   1.612
74459W        W41242  14.673  40.775   4.156
74460W        W41243  32.571   3.584  11.097
74461W        W41244  36.372   5.208   1.209
74462W        W41245  25.232  35.853  11.556
74463W        W41246  30.697   7.860   4.197
74464W        W41247  41.830  38.574   4.935
74465W        W41248  29.499  44.111   2.647
74466W        W41249  14.897   5.466  12.501
74467W        W41250  27.507  28.927  12.875
74468W        W41251  36.849  19.036   1.899
74469W        W41252  13.291   3.210   0.236
74470W        W41253  39.927  20.658  12.146
74471W        W41254  13.130  35.393   1.510
74472W        W41255  32.499   8.193  14.818
74473W        W41256  23.614  12.576  11.099
74474W        W41257  17.203  31.350  13.035
74475W        W41258   5.806  32.075   2.070
74476W        W41259  25.195  20.842   4.531
74477W        W41260  33.895   0.369  10.824
74478W        W41261  25.644  18.974   0.408
74479W        W41262  30.134  38.052  10.762
74480W        W41263  26.012  26.938   2.644
74481W        W41264  30.619   0.773   1.188
74482W        W41265  23.964   0.508  14.467
74483W        W41266  30.610  28.038   2.295
74484W        W41267  42.418  29.619   3.851
74485W        W41268  24.973  33.734   1.248
74486W        W41269  24.200  42.506   3.631
74487W        W41270  11.423   5.380   3.507
74488W        W41271   6.133  20.814  13.236
74489W        W41272  36.942  31.482  11.267
74490W        W41273  12.081   4.594  12.039
74491W        W41274  40.493   1.435   4.132
74492W        W41275  39.252  12.318   1.219
74493W        W41276  30.855  19.562   2.723
74494W        W41277  37.741  24.070  13.314
74495W        W41278  35.390  11.433  14.084
74496W        W41279  33.374  10.056   2.146
74497W        W41280  34.049  41.827   3.197
74498W        W41281  40.794  10.684   1.157
74499W        W41282  39.059  27.669  12.965
74500W        W41283   0.721  22.131  13.115
74501W        W41284  43.568  34.034  12.132
74502W        W41285  37.600   8.876   3.209
74503W        W41286   6.825  20.020   4.173
74504W        W41287  39.482  18.619   1.020
74505W        W41288   3.762  27.720  12.016
74506W        W41289  25.308   6.870  11.077
74507W        W41290   2.541  31.866  10.282
74508W        W41291  18.270  43.925  11.985
74509W        W41292  41.297  33.612  14.646
74510W        W41293   5.667   8.731  14.470
74511W        W41294   2.342   5.273  10.736
74512W        W41295  29.403   2.850  12.962
74513W        W41296  11.445  36.938   4.293
74514W        W41297  34.097  23.960   4.634
74515W        W41298  34.441  15.727   3.268
74516W        W41299  30.501  30.004  12.107
74517W        W41300  13.936  25.145  11.978
74518W        W41301  28.240  11.170   4.257
74519W        W41302  41.361  34.868   2.689
74520W        W41303  22.144  21.747   2.147
74521W        W41304   3.914   3.190  11.236
74522W        W41305  21.730   1.495   4.287
74523W        W41306  28.048  11.685   0.317
74524W        W41307   6.300   3.385   3.133
74525W        W41308  19.978  44.593   4.305
74526W        W41309  39.027  13.388  10.597
74527W        W41310   3.799  25.939   3.186
74528W        W41311  33.815   0.076  13.900
74529W        W41312  37.102   4.297   4.768
74530W        W41313  21.967  41.877   4.219
74531W        W41314  24.382  24.585   4.249
74532W        W41315  25.029  11.704  10.497
74533W        W41316   6.399   5.481  14.955
74534W        W41317   1.517  15.707  12.846
74535W        W41318  33.166  18.010  14.479
74536W        W41319  14.214   9.081   5.019
74537W        W41320  42.393  33.495  10.631
74538W        W41321   3.170  18.500  13.847
74539W        W41322   8.875  17.608  10.431
74540W        W41323  28.056  20.051  12.988
74541W        W41324  34.398   6.274   3.612
74542W        W41325   7.272  39.073  10.789
74543W        W41326  40.790  40.104  13.357
74544W        W41327  19.634  25.739  13.599
74545W        W41328  15.149  41.564  11.849
74546W        W41329  20.647  22.990  12.959
74547W        W41330  24.491  20.750  13.548
74548W        W41331  17.226  30.175   4.084
74549W        W41332  42.881  24.036   1.791
74550W        W41333  15.315  26.240  14.445
74551W        W41334   6.764  34.454   1.864
74552W        W41335  22.222   0.576   5.021
74553W        W41336  21.386  36.278  14.896
74554W        W41337   9.896   4.788  11.720
74555W        W41338  27.787  14.767   0.222
74556W        W41339  16.793  37.145   0.318
74557W        W41340  15.214  40.476  14.175
74558W        W41341  37.972  15.846   2.671
74559W        W41342   7.669   7.459  13.928
74560W        W41343   9.844  33.554  14.216
74561W        W41344  28.003   1.322   2.673
74562W        W41345  43.288  24.158  13.969
74563W        W41346  25.589   2.804   1.259
74564W        W41347   9.843  37.890  14.952
74565W        W41348   8.522   7.354   5.027
74566W        W41349   8.733  43.480   3.581
74567W        W41350  33.045  41.741   3.240
74568W        W41351   8.893  30.661   0.407
74569W        W41352  18.397   7.440   1.883
74570W        W41353  23.670  43.701   1.631
74571W        W41354   3.267  23.968   1.423
74572W        W41355  23.234  36.153  14.659
74573W        W41356  41.374  14.679  13.323
74574W        W41357   2.527  20.881  11.864
74575W        W41358   7.063   7.767   3.298
74576W        W41359  16.263  14.877  11.185
74577W        W41360  44.968  13.686   4.632
74578W        W41361  40.912   3.477  13.626
74579W        W41362  39.292   7.639   0.812
74580W        W41363  40.725  37.905  13.403
74581W        W41364  30.991  25.956  13.987
74582W        W41365  14.281  13.579   4.099
74583W        W41366   3.694  44.437   4.946
74584W        W41367  28.400  39.335  11.406
74585W        W41368  27.053  33.439   3.374
74586W        W41369  11.109   8.691   3.305
74587W        W41370  29.527   6.121   0.372
74588W        W41371  28.783  38.249  13.470
74589W        W41372   8.566   7.338  14.443
74590W        W41373  26.499  14.076  11.660
74591W        W41374  21.508   2.270   0.906
74592W        W41375  26.543  28.700  13.093
74593W        W41376   4.994  16.210   4.959
74594W        W41377  19.034   4.891  12.483
74595W        W41378  16.866  22.983  12.533
74596W        W41379  39.065  18.741  12.708
74597W        W41380  36.504  29.699  11.167
74598W        W41381  10.722  21.005   2.920
74599W        W41382  12.202  41.002   4.232
74600W        W41383  36.029  23.779  11.493
74601W        W41384  21.550  18.498   2.804
74602W        W41385  25.066  34.334  11.967
74603W        W41386   9.014   0.585  13.050
74604W        W41387  40.582  31.538   4.225
74605W        W41388  24.668   2.217  10.290
74606W        W41389   5.864   3.838   1.573
74607W        W41390  30.150  25.011   2.671
74608W        W41391  43.230  27.241  10.442
74609W        W41392  13.295  37.130   3.305
74610W        W41393  40.948   1.270  11.689
74611W        W41394  29.369  21.523   4.207
74612W        W41395  36.412  24.178   3.255
74613W        W41396   2.798  30.559   2.301
74614W        W41397   8.143  27.706   1.318
74615W        W41398  17.402  15.677   0.837
74616W        W41399  10.242  33.499   4.721
74617W        W41400  21.956  42.054   0.264
74618W        W41401  36.488  13.551   1.111
74619W        W41402  36.396  38.398   2.738
74620W        W41403  19.446  38.064   0.752
74621W        W41404   2.681  27.517   3.235
74622W        W41405  24.035  40.547   2.357
74623W        W41406  11.868  24.244  11.599
74624W        W41407  35.306  44.748  10.702
74625W        W41408   9.672  17.064  13.325
74626W        W41409  26.488  32.526   0.807
74627W        W41410  22.477  27.700  10.409
74628W        W41411   8.151  18.701   1.443
74629W        W41412  42.805   9.888   2.398
74630W        W41413  20.942  11.214   4.594
74631W        W41414  43.406  38.739  12.904
74632W        W41415  11.206  43.735  12.992
74633W        W41416   3.392  42.954  13.937
74634W        W41417  30.179  21.675   0.917
74635W        W41418  31.219  25.049  11.211
74636W        W41419  30.148   7.390   0.283
74637W        W41420  38.851  26.810  11.555
74638W        W41421  31.438  43.282   0.515
74639W        W41422  10.312   3.367  14.251
74640W        W41423  25.006  10.130  11.727
74641W        W41424  30.731   2.398   1.375
74642W        W41425  13.336   1.229  10.711
74643W        W41426  40.321   3.743  14.356
74644W        W41427  13.854  29.136   1.267
74645W        W41428  39.917   9.319  14.224
74646W        W41429  35.434  19.038   4.549
74647W        W41430  13.073  36.795  13.167
74648W        W41431  44.149  29.503  12.043
74649W        W41432   9.501  28.181  10.249
74650W        W41433  33.559  25.134   3.635
74651W        W41434  11.054  33.950  14.588
74652W        W41435  28.526   1.978   1.905
74653W        W41436   9.111  29.102   2.189
74654W        W41437  29.641  40.293   2.753
74655W        W41438  31.358  12.612  12.806
74656W        W41439   4.160  41.760  12.340
74657W        W41440  34.911  13.123  14.154
74658W        W41441  28.613  26.628  13.949
74659W        W41442  31.982  14.208  13.005
74660W        W41443  37.660   2.810   4.011
74661W        W41444   4.606   6.477  11.272
74662W        W41445  44.355  11.341  13.002
74663W        W41446  38.530   7.143   2.727
74664W        W41447  38.066  24.534   3.768
74665W        W41448  41.555  31.719   1.404
74666W        W41449  20.939  33.799   3.284
74667W        W41450  31.432  12.346  11.521
74668W        W41451   8.750  42.693   4.251
74669W        W41452  21.022  37.414   2.197
74670W        W41453   3.927   1.492  10.680
74671W        W41454   5.887  11.145  13.283
74672W        W41455  32.566   3.204   0.711
74673W        W41456  27.591  26.821   3.746
74674W        W41457  36.767   6.608  13.371
74675W        W41458   0.820  27.688   3.805
74676W        W41459   6.995  14.186   3.101
74677W        W41460  28.635  26.676  10.018
74678W        W41461   4.771  43.634  10.734
74679W        W41462  37.328  31.504  11.622
74680W        W41463  39.867  14.871   0.340
74681W        W41464  29.705  12.075  12.505
74682W        W41465   9.274  11.391   4.967
74683W        W41466  37.332  19.476   0.932
74684W        W41467   3.241  14.072  14.928
74685W        W41468   5.754  19.324   3.212
74686W        W41469  21.133  25.061   1.229
74687W        W41470  10.739   2.383  13.749
74688W        W41471  30.148  24.001  13.885
74689W        W41472  10.220  14.201   3.764
74690W        W41473  33.299  31.357  11.874
74691W        W41474  30.727   2.078   0.223
74692W        W41475  29.995  43.365  13.496
74693W        W41476  38.379  10.531   3.776
74694W        W41477   3.754  34.400  13.477
74695W        W41478  24.184  25.478  12.086
74696W        W41479  11.162  23.397   0.271
74697W        W41480  34.826  36.821  12.589
74698W        W41481   1.958   7.362   3.206
74699W        W41482   8.675   8.226  11.990
74700W        W41483   0.442  31.322  11.984
74701W        W41484   6.773  16.252   0.951
74702W        W41485  42.482  27.662  13.406
74703W        W41486   5.212   1.948  11.007
74704W        W41487  38.474  44.228   0.434
74705W        W41488  24.114   1.467   1.940
74706W        W41489  35.001  42.955  11.434
74707W        W41490  40.445  35.990  11.962
74708W        W41491  33.062  11.595   1.746
74709W        W41492  22.290  11.576  14.863
74710W        W41493  18.244  28.433   3.827
74711W        W41494  24.720  14.398  14.301
74712W        W41495   8.968  41.159   5.206
74713W        W41496  29.754  33.237   5.114
74714W        W41497  31.760  43.400   3.336
74715W        W41498  33.065   1.395  13.419
74716W        W41499  42.472  43.444   2.337
74717W        W41500   4.057  32.511  10.622
74718W        W41501  11.790  11.139   0.458
74719W        W41502  31.508   0.294   1.895
74720W        W41503   0.732   5.141   2.348
74721W        W41504  20.598   8.826  12.144
74722W        W41505  13.086   1.250  12.409
74723W        W41506   7.691   7.325  14.987
74724W        W41507   6.830  40.547  14.476
74725W        W41508   2.932  36.081  11.408
74726W        W41509  23.258  29.469   3.076
74727W        W41510   1.526  29.356   2.333
74728W        W41511  11.247  34.173   0.844
74729W        W41512  38.526   2.883   1.035
74730W        W41513   0.600   0.188   0.830
74731W        W41514   1.077   3.970  11.633
74732W        W41515  33.839  28.362   4.024
74733W        W41516   4.901  23.680   2.280
74734W        W41517  22.538  12.229   2.288
74735W        W41518  41.842  15.641  14.386
74736W        W41519   6.927  32.638  14.393
74737W        W41520  15.220  44.531   0.443
74738W        W41521  41.356  11.987   5.491
74739W        W41522  12.848  34.017   3.808
74740W        W41523   3.228   2.820  14.776
74741W        W41524   6.214  43.459   2.388
74742W        W41525  26.529  41.286  13.131
74743W        W41526  27.628  35.046   0.712
74744W        W41527  26.606   8.939  12.170
74745W        W41528  20.624  22.175   2.771
74746W        W41529  10.103  21.419   4.096
74747W        W41530   6.857  24.164  12.303
74748W        W41531  19.460  31.771   1.701
74749W        W41532  14.182   7.416   4.675
74750W        W41533  21.097  11.217  14.408
74751W        W41534   5.228  25.216   2.405
74752W        W41535  42.910  18.823   0.853
74753W        W41536   7.946   6.463   3.396
74754W        W41537   5.586   4.508   4.132
74755W        W41538  41.811  43.996   3.556
74756W        W41539  15.340  30.245   2.428
74757W        W41540  43.443  38.923  14.906
74758W        W41541  16.079  26.391   5.000
74759W        W41542   6.928  13.401   4.385
74760W        W41543  24.072  23.450  10.703
74761W        W41544  29.881   3.794  13.074
74762W        W41545  12.692  41.759   3.733
74763W        W41546  44.276  10.854  12.859
74764W        W41547  24.534  14.279   4.611
74765W        W41548  41.328  41.817  13.226
74766W        W41549  20.137  31.621  12.048
74767W        W41550  44.346  42.371  13.623
74768W        W41551  37.608   9.602  14.635
74769W        W41552   9.703  33.176  12.577
74770W        W41553  12.101  30.073   1.973
74771W        W41554   1.816  16.071   4.086
74772W        W41555  19.624   2.440   0.857
74773W        W41556  27.068  26.779   4.430
74774W        W41557  12.195  12.812   0.317
74775W        W41558   6.515  18.551  11.641
74776W        W41559  33.068  38.601  10.656
74777W        W41560  26.711  32.097  12.938
74778W        W41561  34.310  16.574   3.418
74779W        W41562  11.233  24.543  12.584
74780W        W41563   8.002  35.170   3.922
74781W        W41564  14.699   1.270  14.380
74782W        W41565  28.073  21.290  12.426
74783W        W41566   5.673  31.037   4.425
74784W        W41567  24.069  25.432  13.397
74785W        W41568   4.366   1.190  13.816
74786W        W41569   0.024   8.675  14.339
74787W        W41570  32.457  37.001  10.332
74788W        W41571  36.869  14.751   4.824
74789W        W41572   1.792  20.935   3.491
74790W        W41573  21.765  35.312   2.758
74791W        W41574  14.523  31.882  11.209
74792W        W41575  33.025   3.733   0.225
74793W        W41576  22.508  40.829   4.262
74794W        W41577  37.714  18.050   1.583
74795W        W41578  28.479  26.045   3.783
74796W        W41579  24.905   0.017  12.923
74797W        W41580  10.933  39.867  11.806
74798W        W41581  43.214  12.005  13.524
74799W        W41582  38.008   5.830  13.778
74800W        W41583  10.149  15.262   3.296
74801W        W41584  14.145  13.377   4.568
74802W        W41585   3.869  37.436   3.176
74803W        W41586  18.657  39.076   1.291
74804W        W41587  25.788  14.382   4.195
74805W        W41588  13.259  30.395  14.301
74806W        W41589  22.996  33.270   0.013
74807W        W41590   2.414  20.120   0.879
74808W        W41591  20.553  21.108  12.135
74809W        W41592  14.393  19.023  11.180
74810W        W41593  18.557  44.018  13.995
74811W        W41594  29.186  25.555   0.785
74812W        W41595  30.707  23.570  11.964
74813W        W41596  18.614  27.810   0.040
74814W        W41597  23.467  11.901   3.659
74815W        W41598  11.827   6.170  14.857
74816W        W41599  22.954  30.733  14.486
74817W        W41600  26.636  33.165   3.616
74818W        W41601  36.351   8.260   5.373
74819W        W41602  13.837  18.495   0.758
74820W        W41603   2.916  37.956  10.561
74821W        W41604  11.550   5.721   4.985
74822W        W41605  44.404  23.305  12.952
74823W        W41606  36.415  25.929  11.448
74824W        W41607   6.983  29.136  12.450
74825W        W41608  17.632  36.191   2.743
74826W        W41609  42.583  35.603   2.838
74827W        W41610   3.682  33.094   0.454
74828W        W41611   9.801  33.585   2.223
74829W        W41612   0.763  32.377  14.625
74830W        W41613  17.526  18.755   3.686
74831W        W41614  17.736  29.008   1.428
74832W        W41615   8.261  27.903  13.258
74833W        W41616  17.309   3.417   1.408
74834W        W41617  27.462  36.378  12.888
74835W        W41618  15.271  17.950   2.903
74836W        W41619  17.360  28.112   4.197
74837W        W41620   9.355  16.530   0.730
74838W        W41621  27.260   0.283  14.289
74839W        W41622   9.261  13.171  11.617
74840W        W41623   8.407  23.004  13.385
74841W        W41624  12.930  44.662   2.715
74842W        W41625  13.535  26.580   0.381
74843W        W41626  17.213   5.752   2.894
74844W        W41627   3.116  40.790   3.648
74845W        W41628  33.907  34.106   3.653
74846W        W41629  37.940  18.541  12.650
74847W        W41630  43.153  11.659   4.186
74848W        W41631   9.782  34.029   1.945
74849W        W41632   2.479   6.892   4.418
74850W        W41633   5.493  13.111  14.291
74851W        W41634  24.785  27.569  14.569
74852W        W41635  40.382  21.707   3.875
74853W        W41636  11.354  32.767   1.774
74854W        W41637   3.883  41.937  13.116
74855W        W41638  29.009  26.719   3.547
74856W        W41639  33.808   9.121  13.487
74857W        W41640  25.057  15.268   2.336
74858W        W41641  31.487  26.418   2.943
74859W        W41642  20.446  26.591   4.900
74860W        W41643  38.109  40.412  13.109
74861W        W41644  27.088  13.003   2.692
74862W        W41645  41.475  16.842   0.759
74863W        W41646  18.931  20.167   2.849
74864W        W41647  12.760  21.742   2.902
74865W        W41648  37.338  43.280  12.041
74866W        W41649  20.500  39.971  13.331
74867W        W41650  37.626   7.283  12.762
74868W        W41651   8.849  15.627   1.210
74869W        W41652  10.639  30.033   4.141
74870W        W41653  38.300  36.602   1.301
74871W        W41654  26.890  14.143  14.904
74872W        W41655   3.675  18.449  11.724
74873W        W41656  16.696   5.447   0.937
74874W        W41657  37.603  26.585   3.294
74875W        W41658   1.325  39.009  12.104
74876W        W41659  21.173  31.816   2.671
74877W        W41660  20.181  22.135  10.736
74878W        W41661  19.661  22.938  11.564
74879W        W41662  24.064  19.200   2.398
74880W        W41663  42.174   5.118   4.916
74881W        W41664  41.033  34.835   3.106
74882W        W41665  44.041  40.744  11.527
74883W        W41666  10.259  18.059   1.935
74884W        W41667  39.041   7.407   5.159
74885W        W41668  22.538  13.706  13.607
74886W        W41669   7.846  33.862  11.016
74887W        W41670  33.309  22.601   0.303
74888W        W41671  22.143  14.699   4.832
74889W        W41672  32.053  16.648   2.344
74890W        W41673  34.847  31.901  11.559
74891W        W41674  39.455  10.369   1.619
74892W        W41675  14.637  44.189   2.338
74893W        W41676   3.141  39.251  13.354
74894W        W41677  24.905  19.520  14.997
74895W        W41678  23.633  12.888   3.681
74896W        W41679  36.402   8.462   4.347
74897W        W41680  42.988  30.072   1.360
74898W        W41681   8.909  16.321  10.963
74899W        W41682  27.113   2.354   0.812
74900W        W41683  28.131  16.270   3.658
74901W        W41684  39.423  22.766   0.699
74902W        W41685  23.336  19.344  10.574
74903W        W41686  33.138  10.760  11.035
74904W        W41687  37.591   8.924   4.200
74905W        W41688  42.534  19.263   3.905
74906W        W41689  41.560  38.790  14.882
74907W        W41690  16.227  40.922  11.202
74908W        W41691  23.552  29.575  12.546
74909W        W41692  26.222  32.076   4.785
74910W        W41693  19.043   7.466  13.910
74911W        W41694  21.050   9.401  14.334
74912W        W41695  22.734   3.695   0.010
74913W        W41696  20.113   9.005   4.413
74914W        W41697  24.281  25.090   2.195
74915W        W41698  32.171  19.507   2.347
74916W        W41699   2.407  12.331  11.967
74917W        W41700  36.132  10.167  14.092
74918W        W41701  42.751   9.435   2.697
74919W        W41702  11.623  40.237  14.848
74920W        W41703  22.298  15.952  11.448
74921W        W41704  33.367  12.272   2.215
74922W        W41705   9.836  20.989  10.814
74923W        W41706   7.695   8.476   4.323
74924W        W41707  44.241  41.252   0.488
74925W        W41708  17.777  15.804   1.211
74926W        W41709  28.519  10.092  11.069
74927W        W41710   1.922  26.598   0.315
74928W        W41711  26.588  31.633  14.505
74929W        W41712   2.874   2.759  13.393
74930W        W41713   0.433  19.237   4.663
74931W        W41714  27.204  36.040   4.358
74932W        W41715  44.586  12.705   1.803
74933W        W41716  17.017  14.292  14.411
74934W        W41717   2.306   6.828   3.903
74935W        W41718  30.025  15.336   3.677
74936W        W41719   1.814  23.664   2.824
74937W        W41720  29.498  22.401  12.969
74938W        W41721  21.917   2.396   0.063
74939W        W41722  24.747  34.005  12.534
74940W        W41723   2.932  42.250  12.960
74941W        W41724  25.900  26.554  13.810
74942W        W41725  37.047   8.434   3.614
74943W        W41726  27.598  10.656   1.919
74944W        W41727  27.473  17.852   2.360
74945W        W41728  34.066  37.359   1.294
74946W        W41729  34.541   1.373   1.147
74947W        W41730  31.842  40.233   0.545
74948W        W41731   2.470   7.236  10.227
74949W        W41732  42.877  23.657   2.478
74950W        W41733  28.941  15.691  13.467
74951W        W41734   1.034   0.818   5.093
74952W        W41735  11.624  10.370  12.749
74953W        W41736  21.803  11.427  12.905
74954W        W41737  23.947  37.545   4.214
74955W        W41738  31.657  11.499   3.244
74956W        W41739  27.505  20.546  13.484
74957W        W41740  38.019  10.868  13.437
74958W        W41741  29.470  42.573  10.711
74959W        W41742  25.164  33.090   0.406
74960W        W41743   6.190  12.166  10.957
74961W        W41744  26.134  28.868   1.157
74962W        W41745  29.390  34.228  14.837
74963W        W41746  37.177  14.531  11.561
74964W        W41747  43.771   5.998  14.420
74965W        W41748  23.549   6.474   3.675
74966W        W41749  35.974  38.942   1.116
74967W        W41750  36.873  28.072   2.704
74968W        W41751  20.422  39.507   5.078
74969W        W41752  42.118  13.022  12.955
74970W        W41753  10.366  44.586  13.392
74971W        W41754   8.681  44.044  10.983
74972W        W41755  43.775  20.779   1.700
74973W        W41756   2.956  12.371   0.766
74974W        W41757   2.373  18.124  13.405
74975W        W41758   8.096  36.476  11.224
74976W        W41759  27.294   3.727   4.304
74977W        W41760   3.162  18.073   1.262
74978W        W41761  17.483  13.766   2.434
74979W        W41762   6.013   0.785  10.619
74980W        W41763  21.690  31.909   3.601
74981W        W41764  14.053  22.262  12.021
74982W        W41765  37.486  29.546   4.664
74983W        W41766  25.995  23.703  12.884
74984W        W41767   1.512  31.130   2.860
74985W        W41768   1.761  20.166   1.206
74986W        W41769  35.615  19.436   0.706
74987W        W41770  28.121  14.587   2.678
74988W        W41771  29.542   7.056   1.455
74989W        W41772  18.653  15.217  13.086
74990W        W41773  40.419  42.343   3.755
74991W        W41774  42.868  32.849   2.578
74992W        W41775  43.915  36.857   4.780
74993W        W41776  16.010  42.573   0.963
74994W        W41777  11.567   1.910   0.783
74995W        W41778  30.944  31.018  12.041
74996W        W41779  14.060  17.726   2.614
74997W        W41780  19.775   9.385  14.839
74998W        W41781   1.243  13.898  14.653
74999W        W41782  40.215  18.231  11.137
75000W        W41783  26.380  18.671   4.596
75001W        W41784  38.708   3.199  10.269
75002W        W41785  27.232  41.321   3.103
75003W        W41786   7.794  19.125   0.157
75004W        W41787   1.497  41.519  11.095
75005W        W41788  14.603  42.450  12.822
75006W        W41789  10.842  24.436   2.691
75007W        W41790  43.653  22.130  11.010
75008W        W41791  34.494  37.266   3.123
75009W        W41792  21.886  16.652   3.705
75010W        W41793  34.561  34.105   0.953
75011W        W41794  19.067  29.824   3.303
75012W        W41795  30.817  26.948   0.526
75013W        W41796  44.569   9.698   3.667
75014W        W41797  35.718   3.934  11.371
75015W        W41798   1.591  35.544   3.026
75016W        W41799   6.993  10.345   2.300
75017W        W41800  24.709   4.439   2.249
75018W        W41801   6.770  42.161  11.306
75019W        W41802  35.624   5.840   3.839
75020W        W41803  15.171   2.850   3.882
75021W        W41804  23.100  36.760  13.508
75022W        W41805  41.740   4.398  13.994
75023W        W41806   1.259   6.068   1.645
75024W        W41807  41.035  26.711   3.344
75025W        W41808  28.253  23.385   0.018
75026W        W41809   5.191  33.102   3.795
75027W        W41810  36.128   9.198  11.959
75028W        W41811   2.736  21.156   1.093
75029W        W41812  25.744  40.686  13.822
75030W        W41813  28.723  16.682  14.350
75031W        W41814   0.049  11.660   3.703
75032W        W41815  18.237  39.506  14.856
75033W        W41816  31.624  17.551   0.841
75034W        W41817   2.459  10.183  10.762
75035W        W41818  24.387  14.940  11.254
75036W        W41819  24.938  11.232  13.391
75037W        W41820   0.001  34.853  14.774
75038W        W41821  35.470  23.813   4.510
75039W        W41822   5.653  17.116  12.974
75040W        W41823  39.075  16.144  10.303
75041W        W41824  24.467  28.058   0.297
75042W        W41825   8.716   4.821   2.748
75043W        W41826  18.142   2.957  14.395
75044W        W41827  38.942  35.047  10.527
75045W        W41828  35.426  36.523   0.943
75046W        W41829  11.741  14.403  10.265
75047W        W41830   5.684   5.394  14.484
75048W        W41831  32.497  24.616  11.066
75049W        W41832  26.053   3.500   1.489
75050W        W41833   8.828  25.158   2.234
75051W        W41834  26.403  39.942   3.748
75052W        W41835  26.610   3.214  13.467
75053W        W41836  34.888  12.714   3.802
75054W        W41837  26.307   3.923  10.698
75055W        W41838  41.898  25.014  14.740
75056W        W41839  35.577  29.557  13.986
75057W        W41840  26.556  14.046   2.312
75058W        W41841  32.058  28.424  14.736
75059W        W41842  24.698  10.203  13.778
75060W        W41843  31.879  43.465   0.740
75061W        W41844   3.989  44.528  11.128
75062W        W41845  36.943   2.664   2.816
75063W        W41846  42.464   8.301  14.486
75064W        W41847  30.601  24.545  11.437
75065W        W41848  19.580  42.335   2.385
75066W        W41849  39.819  34.906  13.748
75067W        W41850  43.808  29.472   2.307
75068W        W41851  43.890  26.072   2.763
75069W        W41852  44.347  36.268   1.324
75070W        W41853  17.695   6.338  12.021
75071W        W41854  22.377  18.351   2.824
75072W        W41855  28.094  39.801   0.283
75073W        W41856   9.479  16.770  14.326
75074W        W41857  22.232   4.023   2.188
75075W        W41858  11.811   6.958   4.426
75076W        W41859  11.292  19.953  13.292
75077W        W41860   9.427  19.148   4.097
75078W        W41861  32.000  36.516  10.901
75079W        W41862  12.909  31.245  13.508
75080W        W41863   9.015  25.020   1.267
75081W        W41864   8.322  40.951  13.332
75082W        W41865  15.156  31.031  13.407
75083W        W41866  25.209  28.973   1.416
75084W        W41867  27.574  30.928   3.087
75085W        W41868  11.032  18.819  11.258
75086W        W41869  16.289  42.055   4.270
75087W        W41870  31.098   7.160   3.284
75088W        W41871  28.730  24.135   0.222
75089W        W41872   1.280   5.357   4.007
75090W        W41873  39.433   7.840  12.488
75091W        W41874   5.967  13.616  12.071
75092W        W41875  41.784  16.357   0.782
75093W        W41876  12.362  36.815  12.014
75094W        W41877  35.001  35.464  13.888
75095W        W41878  44.737  29.177  13.608
75096W        W41879  15.836  24.658   3.864
75097W        W41880  41.410  16.121   0.529
75098W        W41881  36.514  28.662   0.040
75099W        W41882  40.273   0.103  11.105
75100W        W41883  42.466   2.482   0.381
75101W        W41884   3.833  38.057   1.984
75102W        W41885  36.498  33.772  12.076
75103W        W41886  43.408  30.769  12.117
75104W        W41887  19.163  32.007  12.819
75105W        W41888  38.363  41.080  12.083
75106W        W41889   8.794  40.981   1.561
75107W        W41890  37.346  22.822  14.567
75108W        W41891  22.656   7.931   1.692
75109W        W41892  16.186  24.593   1.959
75110W        W41893  14.322  29.875   1.391
75111W        W41894  19.219  40.912  12.520
75112W        W41895  25.937  25.244  12.640
75113W        W41896  36.592  36.638   2.335
75114W        W41897  36.723  31.472  12.581
75115W        W41898   0.796   1.375  13.299
75116W        W41899  44.718  36.749   3.759
75117W        W41900  13.359   4.397   0.319
75118W        W41901  37.911   1.682   4.639
75119W        W41902   1.811  43.328  10.764
75120W        W41903   5.350  12.654   5.216
75121W        W41904  39.282   0.802  11.943
75122W        W41905  23.056  12.303   4.220
75123W        W41906   3.216  23.728  13.382
75124W        W41907  16.868  36.158   1.814
75125W        W41908  22.519  32.131   1.013
75126W        W41909  41.281   8.425  12.269
75127W        W41910  36.424  39.313  13.547
75128W        W41911  23.488  43.324   1.308
75129W        W41912  14.860  42.465  13.334
75130W        W41913  34.664   3.935  13.890
75131W        W41914  26.176  33.744   4.033
75132W        W41915  32.386  23.740  12.158
75133W        W41916   3.950  20.127  13.253
75134W        W41917   1.253  33.855   4.689
75135W        W41918  44.943  27.108   2.722
75136W        W41919   3.772  20.680   3.687
75137W        W41920   9.851   1.863   4.695
75138W        W41921   5.732  34.561   3.192
75139W        W41922  41.407  11.926  11.536
75140W        W41923   9.770   7.600  12.707
75141W        W41924   4.680  15.359  12.940
75142W        W41925  29.560  40.201   2.239
75143W        W41926   2.850  28.402   3.114
75144W        W41927   6.324   6.311   4.692
75145W        W41928  12.277  23.870  12.870
75146W        W41929  17.794  24.298   3.170
75147W        W41930  20.054  14.249   1.149
75148W        W41931  27.104  39.918  12.991
75149W        W41932  41.442  21.227  11.604
75150W        W41933  42.785  12.650  10.318
75151W        W41934  11.542  13.121   3.560
75152W        W41935  14.576   3.821   1.202
75153W        W41936  16.910  15.637  10.246
75154W        W41937  12.088  17.585  10.801
75155W        W41938   9.783  13.046  13.300
75156W        W41939  10.587  20.854  10.625
75157W        W41940   3.450  36.521   2.889
75158W        W41941  21.186  42.436   3.384
75159W        W41942  28.860   9.176  11.174
75160W        W41943   5.345  27.242  12.884
75161W        W41944   2.105  34.772   0.521
75162W        W41945   4.623  35.548  10.237
75163W        W41946  23.782   8.389  12.980
75164W        W41947  42.818  18.982   4.248
75165W        W41948  17.341  27.074  12.885
75166W        W41949   3.357  27.917   0.262
75167W        W41950  22.706  17.257   0.843
75168W        W41951  26.958  14.156  11.892
75169W        W41952  33.804  11.736  10.495
75170W        W41953  29.305  32.951   4.346
75171W        W41954   4.066  10.968   0.273
75172W        W41955  25.667  10.336  12.996
75173W        W41956  42.385  31.097  13.808
75174W        W41957  36.878  10.834  12.532
75175W        W41958   5.448   9.963  11.398
75176W        W41959  41.819  30.467  11.592
75177W        W41960  42.289  11.318   1.201
75178W        W41961  36.046  36.265  14.966
75179W        W41962  23.100  19.160  13.999
75180W        W41963  13.375  39.508   0.515
75181W        W41964  12.003  17.272  11.230
75182W        W41965   9.935  24.446   5.235
75183W        W41966  38.113   9.165  14.011
75184W        W41967  42.254  40.281   1.892
75185W        W41968  28.195   1.206  13.900
75186W        W41969  11.880  31.110   1.301
75187W        W41970  12.737   0.033  13.604
75188W        W41971   3.754  16.690   3.623
75189W        W41972   7.643  37.433  11.212
75190W        W41973  37.087  31.004  14.370
75191W        W41974  21.698   9.882   2.366
75192W        W41975  26.464  20.692  12.547
75193W        W41976  43.401  34.248   3.625
75194W        W41977  38.044  20.612   2.776
75195W        W41978  34.594  15.594   0.488
75196W        W41979  23.442  39.371  10.649
75197W        W41980  25.450  15.523  13.990
75198W        W41981  36.128  20.627   0.492
75199W        W41982  22.561  18.750   1.362
75200W        W41983  34.933  21.153  13.543
75201W        W41984  17.685  22.944  14.774
75202W        W41985  31.649   2.929  13.429
75203W        W41986   2.864  38.203  12.325
75204W        W41987  30.110  21.597   4.635
75205W        W41988  33.761  24.593   0.603
75206W        W41989  44.940  23.723  14.064
75207W        W41990  22.592  22.918  13.972
75208W        W41991  18.833  30.653   1.346
75209W        W41992   4.373  27.156  12.622
75210W        W41993  41.442  37.014   2.205
75211W        W41994   5.876  14.365  14.338
75212W        W41995  44.527  14.880   1.412
75213W        W41996  18.787  44.510   3.666
75214W        W41997  39.417  11.531   0.770
75215W        W41998  29.961  11.197   3.381
75216W        W41999   2.392  34.490  11.654
75217W        W42000  42.532  28.448  12.600
75218W        W42001  33.984   8.899  10.418
75219W        W42002  14.544  35.000  12.851
75220W        W42003  40.060  29.553   3.381
75221W        W42004   2.790  41.432  10.686
75222W        W42005  42.021  22.326  11.530
75223W        W42006  12.416  31.126  13.495
75224W        W42007  22.519  37.084   0.950
75225W        W42008  14.612  42.872  10.928
75226W        W42009  31.878  42.002   0.325
75227W        W42010  30.078   4.940  12.371
75228W        W42011  15.487   3.819   0.253
75229W        W42012  26.744  24.280  10.682
75230W        W42013  39.547  18.881  11.075
75231W        W42014   7.158  21.982   3.147
75232W        W42015  17.373   0.295  13.774
75233W        W42016  32.097  18.447   1.478
75234W        W42017  20.714  36.387   3.684
75235W        W42018  20.572  24.177   2.830
75236W        W42019  30.629   3.838   0.024
75237W        W42020  44.965  33.246  12.989
75238W        W42021  44.790   0.799  11.227
75239W        W42022  20.496  29.926  10.629
75240W        W42023  39.771  16.148   3.242
75241W        W42024  41.961  14.137   0.469
75242W        W42025  10.630  40.754   1.180
75243W        W42026  24.988  24.577  11.851
75244W        W42027  11.617  34.214  14.057
75245W        W42028  17.594   1.719   3.448
75246W        W42029  37.094  44.370  13.804
75247W        W42030  36.161  41.067  12.910
75248W        W42031  16.777  18.318  13.898
75249W        W42032  17.149   9.677  14.954
75250W        W42033  12.032  18.161   1.150
75251W        W42034  39.822  21.525  14.999
75252W        W42035  40.825  32.860  11.122
75253W        W42036  16.138  42.863   0.013
75254W        W42037  13.738  36.022  11.210
75255W        W42038  18.620  13.349  10.175
75256W        W42039   1.910   4.348  14.508
75257W        W42040  41.724   1.274   2.768
75258W        W42041  42.249   2.730   0.778
75259W        W42042  14.644  44.751   3.247
75260W        W42043   4.240   0.988  11.839
75261W        W42044  19.543   9.227  14.392
75262W        W42045  11.147  34.919  10.435
75263W        W42046  31.124  13.337  13.254
75264W        W42047  24.057   7.448   4.899
75265W        W42048   5.112  37.368  11.524
75266W        W42049   2.240  11.849   4.093
75267W        W42050   3.528  19.236   2.839
75268W        W42051  14.524  40.994  11.594
75269W        W42052   4.701  15.844   0.774
75270W        W42053  41.202  41.071  11.980
75271W        W42054  33.618  36.733  13.206
75272W        W42055  13.811  29.696   3.810
75273W        W42056   9.177   7.269   4.417
75274W        W42057  19.809  43.381   3.739
75275W        W42058   5.243   0.828  13.689
75276W        W42059  13.356  39.787   1.805
75277W        W42060  26.430  44.635   4.727
75278W        W42061  22.340  14.080  11.860
75279W        W42062   5.870   1.584  12.247
75280W        W42063   8.333   8.410  12.325
75281W        W42064  10.388  27.176   3.307
75282W        W42065  31.004  39.551   3.699
75283W        W42066   7.254  23.989  12.901
75284W        W42067  12.102   5.376  14.742
75285W        W42068  11.609  23.008  11.046
75286W        W42069   0.288  33.935  10.784
75287W        W42070  41.496  40.768  14.755
75288W        W42071  13.038  20.717  11.498
75289W        W42072  42.216  27.274  14.266
75290W        W42073  19.094   5.311   0.854
75291W        W42074  40.252  18.522   1.880
75292W        W42075  35.042  25.007  12.560
75293W        W42076  31.031  28.404   0.943
75294W        W42077  12.393  17.450  11.505
75295W        W42078  40.897   9.384   3.622
75296W        W42079  10.117  44.238   4.050
75297W        W42080  42.557  30.654  14.683
75298W        W42081  10.623  17.551  13.925
75299W        W42082  39.476  33.462   1.066
75300W        W42083  33.451   0.950  11.160
75301W        W42084  17.720  24.451   4.040
75302W        W42085  40.374  25.995  12.048
75303W        W42086   7.630  13.700  14.867
75304W        W42087  11.083  22.435  14.241
75305W        W42088  11.276  31.711   1.650
75306W        W42089  44.078   4.852   4.262
75307W        W42090  15.301  32.454  11.397
75308W        W42091   2.355  10.961  12.518
75309W        W42092  10.073  10.656   3.089
75310W        W42093  23.451   5.894  14.523
75311W        W42094   8.903  15.753  13.053
75312W        W42095  42.995  27.816   0.003
75313W        W42096   0.996  15.704   4.995
75314W        W42097  26.513   8.613   0.103
75315W        W42098   1.349  10.819  11.364
75316W        W42099  36.329  36.851   4.577
75317W        W42100  24.756   8.664   1.994
75318W        W42101  29.439  17.698  13.515
75319W        W42102  36.243  16.248   0.479
75320W        W42103  28.073  33.020   5.182
75321W        W42104  30.831  15.922   3.710
75322W        W42105  23.884   2.010  11.572
75323W        W42106  31.101  39.903  12.530
75324W        W42107  41.478  11.286  14.306
75325W        W42108  11.747   1.582   4.405
75326W        W42109   2.416  42.999   3.387
75327W        W42110  43.928   7.964   3.876
75328W        W42111  22.113  39.272   0.803
75329W        W42112  25.999  38.929  12.627
75330W        W42113   8.537  39.558   2.540
75331W        W42114   4.934   7.695  13.866
75332W        W42115  18.024   1.261  13.877
75333W        W42116  35.421  30.647  12.083
75334W        W42117  33.353  35.382   0.231
75335W        W42118  24.576  28.493  11.082
75336W        W42119  25.067  31.888   2.273
75337W        W42120  31.383  24.955  11.678
75338W        W42121  15.351  25.796   1.330
75339W        W42122   6.666  34.909   4.149
75340W        W42123  15.231  44.861   1.924
75341W        W42124  37.365  35.073  11.569
75342W        W42125  23.481  21.266  13.116
75343W        W42126  41.879  28.226  14.472
75344W        W42127  24.255  31.733   4.112
75345W        W42128  32.454   2.285   1.568
75346W        W42129  14.442  14.296   2.704
75347W        W42130  42.418  35.839   1.100
75348W        W42131  28.157  17.558   1.266
75349W        W42132  18.891  20.788   1.194
75350W        W42133  14.005  43.889   1.814
75351W        W42134  23.842  37.286   2.787
75352W        W42135  13.089  18.635   1.393
75353W        W42136   5.940  23.949  11.109
75354W        W42137   6.325   4.628   1.863
75355W        W42138  15.733   3.427  13.490
75356W        W42139   7.854  34.276  12.066
75357W        W42140   4.250  11.761  14.746
75358W        W42141  19.351  13.239  11.847
75359W        W42142  27.732   4.674   0.502
75360W        W42143  36.983  12.203  12.624
75361W        W42144  15.223  34.869  14.414
75362W        W42145  32.068   3.023   1.431
75363W        W42146  37.881  30.230  11.092
75364W        W42147  29.216   7.959  14.271
75365W        W42148  21.121  20.629  12.053
75366W        W42149  29.886  28.343   1.394
75367W        W42150  25.004  34.023  14.059
75368W        W42151  23.667  11.095   1.334
75369W        W42152  10.067  33.161   1.475
75370W        W42153  16.102  43.588   0.748
75371W        W42154  33.478  29.906   4.534
75372W        W42155  10.762  14.325   0.748
75373W        W42156   1.335  43.416   4.478
75374W        W42157  42.371  17.825   1.768
75375W        W42158  26.138   5.369  13.746
75376W        W42159  25.879   7.820  11.182
75377W        W42160  33.869  41.935   1.918
75378W        W42161  43.286   9.634  12.014
75379W        W42162  17.101   7.201   2.854
75380W        W42163  34.347  18.010   3.706
75381W        W42164   5.455  36.894  12.488
75382W        W42165  11.389  22.393   0.232
75383W        W42166  36.848  33.612  12.408
75384W        W42167  17.760   3.932  10.629
75385W        W42168  19.109   4.704   3.133
75386W        W42169  30.052  27.535   3.297
75387W        W42170  18.142  27.293  11.166
75388W        W42171   8.307  30.317   1.659
75389W        W42172  41.737  17.512   2.747
75390W        W42173  22.084  44.518  14.362
75391W        W42174  26.295  27.040   1.347
75392W        W42175  29.017  29.692  11.781
75393W        W42176  23.070  35.566   2.577
75394W        W42177   3.246   2.232   2.769
75395W        W42178   4.431  29.518  13.140
75396W        W42179  28.222  41.702  14.792
75397W        W42180  30.125  34.190  14.226
75398W        W42181   1.554   7.325   1.969
75399W        W42182  16.812  17.083  13.400
75400W        W42183  19.804  35.503  13.478
75401W        W42184  44.343  33.154   3.850
75402W        W42185  40.963   2.364   4.379
75403W        W42186  15.843  31.832  10.272
75404W        W42187   3.354  19.839   4.075
75405W        W42188  13.714  13.812  10.423
75406W        W42189  17.289  35.017  12.991
75407W        W42190  15.262  38.800  11.642
75408W        W42191  28.367   1.140   4.086
75409W        W42192  15.806  28.055  14.269
75410W        W42193   9.164  14.789   4.172
75411W        W42194  22.607  24.065  14.747
75412W        W42195  24.175  24.488   3.312
75413W        W42196  26.122  17.277   2.240
75414W        W42197  26.692  42.394   1.153
75415W        W42198  34.234  37.501   1.901
75416W        W42199  25.228  39.568  12.065
75417W        W42200  15.511  10.219   3.133
75418W        W42201  34.367  24.125   0.873
75419W        W42202  32.537   5.232  12.079
75420W        W42203   2.225   6.258  14.390
75421W        W42204  17.512  20.614  13.839
75422W        W42205  20.776  39.838   0.343
75423W        W42206  17.189  39.524   3.647
75424W        W42207  11.802   2.012  13.760
75425W        W42208  37.194  31.630  12.457
75426W        W42209  10.239  28.918   0.265
75427W        W42210   7.143  18.304  11.047
75428W        W42211  23.226  23.506   4.592
75429W        W42212  18.568  14.865   2.357
75430W        W42213  43.921  13.419  13.038
75431W        W42214   6.411  14.284   1.897
75432W        W42215   4.459   7.349   0.256
75433W        W42216   8.788   1.084   1.714
75434W        W42217  17.335  13.760  14.360
75435W        W42218  24.673  12.183  10.952
75436W        W42219  17.728  32.076   0.960
75437W        W42220   5.749  34.809  14.002
75438W        W42221  34.265  30.429  13.090
75439W        W42222  41.756  41.952  11.948
75440W        W42223  28.149  13.179   3.165
75441W        W42224  18.028  35.481  13.108
75442W        W42225  37.472  18.681  10.506
75443W        W42226  31.114  32.935  11.155
75444W        W42227  36.021  33.872   0.277
75445W        W42228  20.518   0.780   1.421
75446W        W42229  19.534  10.634  10.519
75447W        W42230  41.768   9.514   5.032
75448W        W42231  30.600  28.190   3.232
75449W        W42232  17.843   3.571  14.494
75450W        W42233  17.315  35.135   4.188
75451W        W42234  18.627  23.526  10.374
75452W        W42235  37.480  33.982   2.738
75453W        W42236   2.212   0.397  11.688
75454W        W42237   9.249  36.056   0.479
75455W        W42238  27.663  30.694   1.590
75456W        W42239  39.007  36.474  13.612
75457W        W42240  24.210   7.151  11.630
75458W        W42241  42.815  34.019   4.040
75459W        W42242  30.417   1.943   2.649
75460W        W42243  38.488  41.795  11.195
75461W        W42244  30.075  31.173  13.489
75462W        W42245   3.488   5.910   4.294
75463W        W42246   3.185  37.871  12.027
75464W        W42247   4.932  22.525   4.399
75465W        W42248  23.808  14.738  14.295
75466W        W42249  27.366  28.018   3.262
75467W        W42250  27.124  21.617   3.709
75468W        W42251   6.467  42.313  14.204
75469W        W42252   1.780  22.741  13.439
75470W        W42253   7.442  28.896  12.485
75471W        W42254  19.061  10.809  10.646
75472W        W42255  11.785  29.460   1.457
75473W        W42256  24.354  27.117  12.280
75474W        W42257  41.608  17.364  13.448
75475W        W42258   8.824  16.375  12.252
75476W        W42259  24.457   6.918   2.799
75477W        W42260  20.173  40.000   0.747
75478W        W42261  22.754  40.841  10.624
75479W        W42262   2.844  34.161  11.561
75480W        W42263   4.224   9.118   2.627
75481W        W42264  26.191   0.246   0.181
75482W        W42265   7.658   1.246  12.026
75483W        W42266  22.760  16.826   4.174
75484W        W42267  38.768  10.237   4.617
75485W        W42268  35.794  19.073   2.507
75486W        W42269  38.516  34.428  10.724
75487W        W42270  29.369  33.402   3.419
75488W        W42271  41.873  25.941  10.681
75489W        W42272  15.491   4.262   3.151
75490W        W42273  15.829  39.931  12.261
75491W        W42274  12.287  23.477  11.100
75492W        W42275   8.274  29.501  11.105
75493W        W42276  23.927   6.214  12.139
75494W        W42277  22.951  32.543  13.860
75495W        W42278  10.657   5.861   5.212
75496W        W42279  37.867  35.571   3.233
75497W        W42280  17.033  34.471   3.678
75498W        W42281  29.084  32.932   2.832
75499W        W42282  43.363  34.946  13.956
75500W        W42283   5.750  23.293   3.634
75501W        W42284   1.426  38.930  14.024
75502W        W42285  25.166   5.927   4.406
75503W        W42286  27.597  26.194   2.731
75504W        W42287  44.331  11.332   2.679
75505W        W42288  25.172  32.128   4.524
75506W        W42289   8.371  14.792  11.508
75507W        W42290  10.391  22.207   3.282
75508W        W42291  25.103  20.149   1.896
75509W        W42292  42.396  26.619  13.363
75510W        W42293   2.318  22.817   4.583
75511W        W42294   5.477  25.585   0.454
75512W        W42295  27.693  19.165  12.598
75513W        W42296  19.462  18.745  11.882
75514W        W42297  15.187  27.641   0.410
75515W        W42298  38.859  10.769  14.085
75516W        W42299  16.757  44.460   2.595
75517W        W42300   2.508  39.515  10.942
75518W        W42301  38.947  21.237  11.957
75519W        W42302  11.730  44.028   4.285
75520W        W42303   9.105  27.487   2.658
75521W        W42304  16.197  19.324   4.801
75522W        W42305   5.133  10.770  10.734
75523W        W42306   8.542  25.752  13.859
75524W        W42307  12.559  21.029   4.747
75525W        W42308  17.670  31.559  10.384
75526W        W42309  38.007  43.877  12.896
75527W        W42310  16.283  27.178  12.988
75528W        W42311  24.978   1.266  12.194
75529W        W42312  11.129  13.619   1.218
75530W        W42313  36.395  36.315  12.052
75531W        W42314  25.737  19.179   1.205
75532W        W42315  19.201  14.698  13.537
75533W        W42316  23.758  41.365  13.951
75534W        W42317  41.785  25.676   4.577
75535W        W42318  30.839  30.342  14.960
75536W        W42319  12.837  28.924  13.059
75537W        W42320  23.017   4.386  13.986
75538W        W42321   8.313  27.575   4.123
75539W        W42322  36.383  39.349  12.388
75540W        W42323   9.349  24.103  13.442
75541W        W42324  17.834   4.779  14.916
75542W        W42325  26.923  21.634   4.189
75543W        W42326  12.625  19.033  13.761
75544W        W42327  34.435  32.866   3.593
75545W        W42328   6.291  40.375  13.109
75546W        W42329  27.004   4.006  12.724
75547W        W42330  27.703  33.138   4.107
75548W        W42331  12.174   2.742  12.992
75549W        W42332  21.470  27.207   1.509
75550W        W42333  42.791  29.441   2.234
75551W        W42334   5.528   9.720   2.802
75552W        W42335  24.984  33.161  14.015
75553W        W42336  12.612  29.389   3.337
75554W        W42337   9.717  34.046   2.461
75555W        W42338   9.409   4.931  10.710
75556W        W42339   0.447  35.879  11.020
75557W        W42340   0.417  23.596   0.214
75558W        W42341  16.673  31.064  11.506
75559W        W42342  37.324   7.482  10.668
75560W        W42343  39.565  20.330   2.701
75561W        W42344  13.207  34.864  13.062
75562W        W42345  28.690  41.860   3.993
75563W        W42346  42.530  10.991  10.764
75564W        W42347   6.733  21.012  10.739
75565W        W42348  39.276  42.561   2.332
75566W        W42349  22.743  17.696  14.875
75567W        W42350  36.902  38.794  11.902
75568W        W42351  40.513  41.444   1.910
75569W        W42352  20.123   2.254  14.417
75570W        W42353  30.307  38.641   3.672
75571W        W42354  26.662  31.105  12.871
75572W        W42355  32.729  19.611   0.003
75573W        W42356   0.445  12.424  10.634
75574W        W42357  36.528  24.964  11.543
75575W        W42358  17.625  14.586   2.131
75576W        W42359  19.165  30.425   0.248
75577W        W42360   0.822  38.818  12.980
75578W        W42361   4.980  35.830   9.927
75579W        W42362   0.922  40.246  14.856
75580W        W42363   3.440  17.615   3.727
75581W        W42364   2.976   2.021  13.734
75582W        W42365  16.191  30.537  14.708
75583W        W42366  22.870  37.443   1.776
75584W        W42367  23.356   7.772   3.742
75585W        W42368  32.909  25.061   2.586
75586W        W42369  13.640  18.979   2.570
75587W        W42370  16.671  23.298  14.860
75588W        W42371  42.532  39.309  14.516
75589W        W42372   3.855  20.621  13.916
75590W        W42373  18.714  42.551   0.474
75591W        W42374  27.830  38.351   2.993
75592W        W42375  28.379   1.787  12.402
75593W        W42376  13.288  25.667  11.994
75594W        W42377  37.719  10.619   0.737
75595W        W42378  16.770  36.152  12.907
75596W        W42379  19.030  40.426  12.547
75597W        W42380   9.819  10.882   0.348
75598W        W42381  14.750  16.204  11.362
75599W        W42382  10.909  19.062  14.915
75600W        W42383   7.383  35.110   3.075
75601W        W42384  39.887  41.759   4.151
75602W        W42385  44.860  20.763  10.589
75603W        W42386  34.100  33.128  10.789
75604W        W42387  32.370  32.625   1.333
75605W        W42388  29.099  26.624  12.481
75606W        W42389   4.842  26.088  13.990
75607W        W42390  23.757   1.240  14.790
75608W        W42391  36.625   0.370  11.115
75609W        W42392  14.224  33.195   1.889
75610W        W42393  11.464  25.937   4.055
75611W        W42394   6.184  38.600   0.280
75612W        W42395  38.515   7.220   2.215
75613W        W42396  40.574  33.641  11.910
75614W        W42397  31.492  15.896  13.941
75615W        W42398   8.901  34.315   1.774
75616W        W42399   4.406  33.763  10.697
75617W        W42400  20.764   4.931  10.301
75618W        W42401  20.740  22.208   1.392
75619W        W42402  13.367  42.830  13.347
75620W        W42403  39.079  36.032  11.095
75621W        W42404  42.453  30.418   0.734
75622W        W42405  19.116  34.415   1.319
75623W        W42406  34.045  28.277  12.549
75624W        W42407   6.536  35.886  12.833
75625W        W42408  26.472  19.617   3.373
75626W        W42409  27.009   7.720   4.932
75627W        W42410   4.735  16.422   2.585
75628W        W42411  21.119  43.976   3.182
75629W        W42412  35.310  29.183  12.106
75630W        W42413  11.649  33.619  14.938
75631W        W42414   4.729  10.295   0.316
75632W        W42415  18.581  35.585  12.120
75633W        W42416  16.079  28.238  12.482
75634W        W42417  22.609  41.261   4.532
75635W        W42418  34.554  33.468  12.930
75636W        W42419   3.203   1.779  13.322
75637W        W42420  42.939  21.728  11.626
75638W        W42421  21.560  14.399  11.159
75639W        W42422   8.361  31.571   1.729
75640W        W42423  11.350  39.092   2.468
75641W        W42424  32.888  15.390   4.041
75642W        W42425  18.118  19.425  13.509
75643W        W42426   0.740  20.528   1.729
75644W        W42427  10.819  26.662  12.131
75645W        W42428  27.022  32.434  12.063
75646W        W42429  19.598  11.891  10.313
75647W        W42430   7.255  16.079   0.932
75648W        W42431  37.971  35.848  10.663
75649W        W42432  20.758  38.556  11.072
75650W        W42433  20.903  15.726   5.269
75651W        W42434  22.948   2.878   2.760
75652W        W42435   9.128   0.675   1.313
75653W        W42436  19.281  10.730   4.107
75654W        W42437  27.920   3.248   2.255
75655W        W42438  39.995  23.341   4.654
75656W        W42439  34.337  22.628  11.155
75657W        W42440  33.538   8.739   3.315
75658W        W42441   7.746  18.177  14.947
75659W        W42442   7.747  11.346  12.684
75660W        W42443  12.799  17.326  14.064
75661W        W42444  16.364   4.812  14.941
75662W        W42445   3.974  31.534   1.471
75663W        W42446  19.521   7.419  12.039
75664W        W42447  25.166  17.128   0.085
75665W        W42448  14.787   9.570  11.460
75666W        W42449  30.428   4.785  14.411
75667W        W42450  21.769   3.213   2.234
75668W        W42451  18.170  40.069  12.136
75669W        W42452  36.290   4.301  13.877
75670W        W42453  15.371  18.557  10.361
75671W        W42454  21.752  20.685   2.825
75672W        W42455   7.975  40.981  12.943
75673W        W42456  43.370  16.759   1.562
75674W        W42457  40.684  19.981   4.985
75675W        W42458  33.057  41.687   1.348
75676W        W42459  36.033  33.878  12.294
75677W        W42460  30.229  15.270   0.458
75678W        W42461  29.638  41.009  14.315
75679W        W42462   7.706  15.033  10.690
75680W        W42463  43.962  13.599   3.880
75681W        W42464  35.029  17.826   1.882
75682W        W42465  35.060   0.709   0.667
75683W        W42466  34.360  38.546   0.259
75684W        W42467  27.497  26.241  14.856
75685W        W42468  20.064  15.747  14.945
75686W        W42469  25.123  10.770   4.834
75687W        W42470  22.101  42.038   4.702
75688W        W42471  42.555   6.077   1.368
75689W        W42472  31.344  31.180   2.586
75690W        W42473  17.218  25.653   4.770
75691W        W42474  33.183  36.113  14.800
75692W        W42475  34.163  34.555   3.663
75693W        W42476  12.804  13.097   0.399
75694W        W42477  39.501  42.508  10.621
75695W        W42478   9.225  28.021   3.875
75696W        W42479  17.597   5.927  10.582
75697W        W42480  41.075  29.927   1.292
75698W        W42481   6.095  30.919   3.307
75699W        W42482  21.537   7.240  14.577
75700W        W42483  31.378  18.653   4.594
75701W        W42484  12.496  14.071  13.191
75702W        W42485  42.826  27.342  14.994
75703W        W42486  13.640   7.773   0.911
75704W        W42487  38.904  24.979   0.429
75705W        W42488  34.151   6.834   2.783
75706W        W42489  22.335  19.583  14.887
75707W        W42490  22.973   4.751  10.373
75708W        W42491   2.150  44.938   0.264
75709W        W42492  33.788  19.020   1.668
75710W        W42493  40.841  24.424   4.218
75711W        W42494   9.888  36.385   4.660
75712W        W42495  29.478   9.054  14.046
75713W        W42496  39.260  28.207   3.260
75714W        W42497  20.898  26.443  12.050
75715W        W42498   8.311  24.237   4.979
75716W        W42499  23.842   9.636   2.495
75717W        W42500  42.018  27.845  13.522
75718W        W42501  26.147  35.941   1.352
75719W        W42502   1.785  31.598   3.075
75720W        W42503   0.039   6.770   1.372
75721W        W42504  30.358  30.652  12.040
75722W        W42505  32.078  26.284  13.923
75723W        W42506   5.766  13.653  11.595
75724W        W42507  35.499  15.932   2.508
75725W        W42508  16.832  40.137   2.303
75726W        W42509   8.540  24.587   1.780
75727W        W42510  11.235  42.827  11.200
75728W        W42511   9.266   0.863  11.266
75729W        W42512  34.473  13.259  14.953
75730W        W42513   1.327  39.373  13.432
75731W        W42514  22.230   3.982  10.321
75732W        W42515   4.759  13.755   0.672
75733W        W42516   5.791  24.683   3.895
75734W        W42517  18.473  24.259  11.585
75735W        W42518  19.607  35.345  11.399
75736W        W42519  30.015  25.044  12.576
75737W        W42520   6.940  38.883   0.168
75738W        W42521  20.625  35.581  13.021
75739W        W42522  13.262   3.817   4.114
75740W        W42523  35.885   7.847  11.903
75741W        W42524  23.063  17.329   1.244
75742W        W42525  39.416  16.534   3.324
75743W        W42526   0.122  25.928   2.041
75744W        W42527   6.414  34.829  12.505
75745W        W42528  14.120  43.667   2.818
75746W        W42529   8.296  28.935  11.223
75747W        W42530  10.212   5.512   3.302
75748W        W42531  36.460   8.924   3.596
75749W        W42532  38.518  15.357  10.476
75750W        W42533   2.442   1.984  13.810
75751W        W42534   4.751   6.727  14.921
75752W        W42535  44.616  28.261  11.142
75753W        W42536  44.344  13.869   3.646
75754W        W42537   2.731  24.738   3.926
75755W        W42538  34.644  19.504  10.943
75756W        W42539  33.797   4.480  13.005
75757W        W42540  30.550  27.183   3.385
75758W        W42541  43.918  10.662  10.501
75759W        W42542  18.201  25.873  10.734
75760W        W42543  29.609  38.379  13.286
75761W        W42544  16.810  11.066   4.014
75762W        W42545   4.199  36.475  12.336
75763W        W42546  26.501   3.274  14.362
75764W        W42547  29.393  27.449   2.635
75765W        W42548  42.300   8.450  12.573
75766W        W42549  42.492  42.633   9.933
75767W        W42550  19.319  16.712  12.094
75768W        W42551   9.795   4.226  10.980
75769W        W42552  23.416  20.274  12.905
75770W        W42553  18.742   9.919  13.920
75771W        W42554   6.253  34.537   1.993
75772W        W42555  28.799  14.177   0.110
75773W        W42556  31.419  39.530  12.936
75774W        W42557  34.363  28.296  12.138
75775W        W42558  24.232  18.208  10.658
75776W        W42559  38.259   8.273  10.776
75777W        W42560   3.167  37.101  13.363
75778W        W42561  40.586  26.540   4.229
75779W        W42562  34.820   3.922   0.340
75780W        W42563  29.453   4.791  11.591
75781W        W42564  31.211   4.965   2.302
75782W        W42565   0.271  20.037   4.357
75783W        W42566  42.863  22.667  13.061
75784W        W42567  24.079  17.893  11.508
75785W        W42568   5.337  11.742  11.185
75786W        W42569  17.836  28.013   1.854
75787W        W42570  23.731   5.310   1.462
75788W        W42571  26.217   6.329   0.687
75789W        W42572  26.199   2.192   4.591
75790W        W42573  44.377  18.333  13.539
75791W        W42574  11.899  28.553   4.598
75792W        W42575  21.226  15.835  12.963
75793W        W42576  37.953  23.306   1.811
75794W        W42577  17.762  16.694   4.597
75795W        W42578   4.939  24.536   1.905
75796W        W42579  11.968  14.361  11.039
75797W        W42580  16.233  34.992  12.867
75798W        W42581  13.002  37.349  14.462
75799W        W42582  35.227  33.539   2.977
75800W        W42583   3.763  33.494   1.131
75801W        W42584  38.441  32.990  12.828
75802W        W42585  35.894   1.033  13.943
75803W        W42586   5.451  21.324   2.594
75804W        W42587  44.660  24.551   3.985
75805W        W42588  21.684  44.721   2.233
75806W        W42589  30.623  25.442  12.062
75807W        W42590   2.257   5.956  13.031
75808W        W42591   2.488  28.898  12.199
75809W        W42592  17.010  21.270   3.033
75810W        W42593  29.539  44.484  11.153
75811W        W42594  28.041  13.748  11.475
75812W        W42595  16.203  25.089  12.320
75813W        W42596  44.403  28.447   0.425
75814W        W42597   1.710   9.818  11.184
75815W        W42598   0.844  33.579  13.540
75816W        W42599  27.613  29.267  11.920
75817W        W42600   7.245   0.363   4.135
75818W        W42601  11.619  40.072   2.728
75819W        W42602  38.935   1.373  12.971
75820W        W42603  32.337  21.045   2.621
75821W        W42604  23.666  14.605  13.806
75822W        W42605   1.726   0.847  12.961
75823W        W42606  12.647   7.450  12.489
75824W        W42607  30.920   6.395  11.742
75825W        W42608  21.604   6.100   2.776
75826W        W42609  42.565  16.893  10.674
75827W        W42610  11.781  16.370   3.705
75828W        W42611  38.590  11.298  13.944
75829W        W42612   8.667  32.470  10.534
75830W        W42613  30.095   0.470   2.773
75831W        W42614  10.435  32.122  14.021
75832W        W42615  29.862  30.424   1.627
75833W        W42616  19.862   9.865  13.546
75834W        W42617  39.164   1.930   3.278
75835W        W42618  33.795  37.024  14.436
75836W        W42619  39.677  44.948   1.237
75837W        W42620  13.885   1.274  11.982
75838W        W42621   0.188   6.913  14.102
75839W        W42622  13.082  19.064   3.228
75840W        W42623  41.233   5.914   9.819
75841W        W42624  11.095   8.438   1.886
75842W        W42625  19.561  26.604  13.516
75843W        W42626  26.523   1.437   4.240
75844W        W42627  30.007  11.092  13.911
75845W        W42628  42.765  11.438   0.377
75846W        W42629  25.445  44.103  10.249
75847W        W42630  13.666  36.023   9.817
75848W        W42631  26.308  40.334  12.558
75849W        W42632  40.261  28.479   0.143
75850W        W42633   2.448  29.445  14.648
75851W        W42634   5.472  38.831  13.636
75852W        W42635  27.508  11.323  13.447
75853W        W42636  10.960  27.193  10.921
75854W        W42637  21.943   9.859   4.189
75855W        W42638  11.395   3.129   2.630
75856W        W42639  26.785  43.541   1.818
75857W        W42640  32.568  24.176   0.313
75858W        W42641  11.385  24.095  12.432
75859W        W42642   4.281  20.656   3.641
75860W        W42643  17.828  24.968   1.848
75861W        W42644  15.856  15.640   1.653
75862W        W42645  20.101   2.558   0.354
75863W        W42646  19.841  39.799   3.245
75864W        W42647  24.652   8.301  10.396
75865W        W42648   3.287  21.641  10.580
75866W        W42649  28.017  11.014   3.824
75867W        W42650  14.113   1.062  11.125
75868W        W42651  21.734  13.927   2.701
75869W        W42652  19.066  35.389   1.114
75870W        W42653  22.583  21.252   0.102
75871W        W42654  11.694  13.096   0.019
75872W        W42655  21.252  42.895   2.469
75873W        W42656  31.196  38.842   0.022
75874W        W42657  10.621  12.070  14.470
75875W        W42658  13.604  34.031   1.373
75876W        W42659   2.490  26.965   3.768
75877W        W42660  42.792  16.883  13.028
75878W        W42661   1.690  36.969   3.658
75879W        W42662  25.370  14.258  13.435
75880W        W42663   7.294  38.565  14.445
75881W        W42664  28.599   2.214  10.682
75882W        W42665  11.853  12.123  14.832
75883W        W42666  19.595  16.724   2.205
75884W        W42667   4.555  34.078   5.076
75885W        W42668  33.390  22.233  13.459
75886W        W42669  39.236   5.602   2.775
75887W        W42670  13.528   2.257  12.813
75888W        W42671  17.043   9.199   4.467
75889W        W42672  24.063  21.316   0.011
75890W        W42673  32.066  16.595  11.903
75891W        W42674  42.394  29.176   4.150
75892W        W42675  21.917   1.459  11.026
75893W        W42676   0.357  13.291   2.815
75894W        W42677  13.876  31.815   4.171
75895W        W42678  14.277  30.872   4.149
75896W        W42679   8.058  26.968   2.212
75897W        W42680  18.349  23.635   1.756
75898W        W42681  40.570   9.495  10.786
75899W        W42682  22.769  36.379  14.868
75900W        W42683  37.296  37.612  14.895
75901W        W42684  44.014   7.022   4.241
75902W        W42685  32.903  25.769   4.076
75903W        W42686  11.218  41.305   2.775
75904W        W42687  23.719  34.862   0.997
75905W        W42688  38.942   5.469  13.005
75906W        W42689  20.982  43.025  14.207
75907W        W42690   4.115  27.428   4.117
75908W        W42691  34.533  17.228  10.587
75909W        W42692  34.543  27.840  11.994
75910W        W42693  44.011  26.701  13.494
75911W        W42694  36.547  25.695  14.821
75912W        W42695  32.662  31.509   3.323
75913W        W42696  19.067   9.293   4.642
75914W        W42697  19.725  12.621  12.492
75915W        W42698   8.440  26.026  14.495
75916W        W42699  33.558   9.772   3.449
75917W        W42700  14.620  15.218   1.710
75918W        W42701  29.947  44.380   3.776
75919W        W42702  39.014  14.683  13.346
75920W        W42703  24.595  32.465   3.512
75921W        W42704  13.235  33.352   4.310
75922W        W42705  32.536   5.070  13.796
75923W        W42706  27.543  30.204   1.740
75924W        W42707  34.049   8.995  14.324
75925W        W42708  11.765  41.625   9.975
75926W        W42709  40.439  19.074  12.846
75927W        W42710   4.225  25.405  13.727
75928W        W42711  18.046  40.076  11.655
75929W        W42712  16.284  41.659  11.445
75930W        W42713   7.420   5.705  10.512
75931W        W42714  10.292  10.832   0.583
75932W        W42715  27.538  24.633   4.940
75933W        W42716   4.877   0.711  10.571
75934W        W42717   1.470  16.322   3.254
75935W        W42718  38.026  42.423   0.273
75936W        W42719  40.859  18.222   2.480
75937W        W42720   2.243  10.415  14.324
75938W        W42721  23.067  23.167  14.056
75939W        W42722  37.986   0.156   4.188
75940W        W42723   6.211   3.243  12.431
75941W        W42724  41.843   2.333  14.337
75942W        W42725  15.994  14.895  13.786
75943W        W42726  24.091  24.852  14.218
75944W        W42727  33.557  39.812  13.351
75945W        W42728  35.526   2.708   4.575
75946W        W42729  21.537  28.145   0.967
75947W        W42730  14.758  36.522  11.098
75948W        W42731  23.942   8.905   2.265
75949W        W42732  44.011  24.210   2.820
75950W        W42733  36.060   1.075  14.796
75951W        W42734   0.352  21.660  14.893
75952W        W42735  18.700  18.629  10.945
75953W        W42736  26.856  38.594   1.307
75954W        W42737   0.219  23.667   1.095
75955W        W42738  41.242  42.960  13.874
75956W        W42739   3.419   8.427   0.215
75957W        W42740   0.384  24.604  14.987
75958W        W42741  41.307  13.587  14.589
75959W        W42742  42.892   0.268  10.635
75960W        W42743  27.440   9.910  13.324
75961W        W42744  43.947  28.079   3.708
75962W        W42745  39.899  17.209   1.840
75963W        W42746  43.808   3.300  13.919
75964W        W42747  32.601   1.818  13.359
75965W        W42748  38.120  15.762  12.127
75966W        W42749  32.451  14.648   0.799
75967W        W42750   3.283  23.980  11.653
75968W        W42751  34.421  37.483  14.160
75969W        W42752  27.511  29.838  10.647
75970W        W42753   0.927   6.249   1.245
75971W        W42754   8.802   6.276  11.633
75972W        W42755   2.257  26.928   2.836
75973W        W42756  20.769  40.083  10.933
75974W        W42757  20.896  14.449   3.748
75975W        W42758  36.282   9.806   1.427
75976W        W42759   2.769  22.027   2.447
75977W        W42760  11.753  38.384   3.423
75978W        W42761  44.708  28.998  11.618
75979W        W42762  23.260   7.753  12.987
75980W        W42763  16.276  42.799  13.990
75981W        W42764  43.110  26.147  12.005
75982W        W42765   9.294  36.002  10.653
75983W        W42766  13.717  30.909   3.380
75984W        W42767  25.012   8.367   1.402
75985W        W42768  16.180   0.359   2.858
75986W        W42769  19.331  36.101   3.594
75987W        W42770  26.162  31.002  14.785
75988W        W42771  19.702   4.736  13.000
75989W        W42772   7.998  17.225  13.824
75990W        W42773  17.745  30.865   0.099
75991W        W42774  16.598  21.292   1.386
75992W        W42775  12.192  37.026  14.794
75993W        W42776  17.490   7.301   0.449
75994W        W42777   4.847  23.549  13.799
75995W        W42778  35.009  40.127   0.884
75996W        W42779  20.282   7.571  14.430
75997W        W42780  22.665  41.358  11.512
75998W        W42781  18.354  13.125   3.222
75999W        W42782  30.249  42.826   0.682
76000W        W42783  18.151  32.991  11.887
76001W        W42784  22.444  10.772   1.712
76002W        W42785  16.128   6.417   3.369
76003W        W42786  27.556   6.661   0.784
76004W        W42787  40.436  12.363   0.944
76005W        W42788  40.366  14.636  12.953
76006W        W42789  25.092  31.854   0.998
76007W        W42790  14.685  22.688  14.163
76008W        W42791  17.182  26.246  11.062
76009W        W42792   9.110  21.322   2.163
76010W        W42793   1.279   0.188  12.493
76011W        W42794  25.739  44.022  10.713
76012W        W42795  18.167  10.244   2.425
76013W        W42796  11.465   1.898  13.370
76014W        W42797  15.043  11.309  10.773
76015W        W42798  20.887  27.322   2.197
76016W        W42799  29.053  15.446   1.926
76017W        W42800   3.406  12.407  14.944
76018W        W42801  14.509   6.759  14.313
76019W        W42802  11.472   7.750  13.495
76020W        W42803  43.470  39.655  11.169
76021W        W42804  33.382  21.026  14.083
76022W        W42805  15.355  24.124   3.213
76023W        W42806  35.008  16.550  11.991
76024W        W42807  43.063  27.125   3.663
76025W        W42808  12.523   6.442  11.571
76026W        W42809   7.858   1.188  10.804
76027W        W42810  37.479  22.680  10.455
76028W        W42811  39.924  33.584   1.310
76029W        W42812  43.691  40.121  12.098
76030W        W42813  21.428  29.136  13.054
76031W        W42814  30.376   1.680  13.255
76032W        W42815  27.074  39.421   0.982
76033W        W42816  18.998  32.559   3.235
76034W        W42817  21.712  18.242  14.240
76035W        W42818  18.940  35.078  14.846
76036W        W42819   5.662  27.845   1.235
76037W        W42820   3.822  32.461   1.823
76038W        W42821  13.762   9.008   1.876
76039W        W42822  10.352   0.215   4.054
76040W        W42823  32.368  10.483  12.419
76041W        W42824  34.317  29.639  11.698
76042W        W42825   9.924  22.292  13.850
76043W        W42826  15.287  24.129  11.365
76044W        W42827  35.129  17.233   3.245
76045W        W42828  17.582  44.995  11.048
76046W        W42829   6.253  39.975   2.265
76047W        W42830   3.961  31.154   1.119
76048W        W42831  11.644  43.533   2.777
76049W        W42832  18.283  10.107   3.164
76050W        W42833  29.614  41.038  11.918
76051W        W42834  17.979  40.105  14.374
76052W        W42835   2.997  26.122   3.554
76053W        W42836  34.950  22.660  14.278
76054W        W42837  30.703   2.429  12.806
76055W        W42838  22.831  27.703   2.371
76056W        W42839  42.313   5.457  11.678
76057W        W42840  12.641   1.182  14.994
76058W        W42841  36.620   0.840  10.285
76059W        W42842  34.319   9.176  13.475
76060W        W42843  33.521  14.840   0.740
76061W        W42844  18.179  38.035   4.544
76062W        W42845   0.075  40.685   4.129
76063W        W42846   7.845   0.331   3.139
76064W        W42847  11.349  38.645   9.841
76065W        W42848  44.953  11.549  10.085
76066W        W42849  10.825   4.447   2.872
76067W        W42850  21.728  28.990  10.896
76068W        W42851   1.900   3.291   5.062
76069W        W42852   1.850   9.891   2.511
76070W        W42853  30.463  35.452   0.489
76071W        W42854   3.420  44.471   0.682
76072W        W42855  38.062  43.301  13.496
76073W        W42856  29.790  32.602  12.126
76074W        W42857  23.620   4.943   5.008
76075W        W42858  33.248  23.961  14.744
76076W        W42859  42.495  41.092   2.044
76077W        W42860  28.514  18.067  12.586
76078W        W42861  32.067  17.966   4.347
76079W        W42862  14.794  16.813  10.697
76080W        W42863  40.074  27.445   1.905
76081W        W42864  34.657  20.782  12.612
76082W        W42865  23.623   1.408   1.790
76083W        W42866  17.887  11.754   4.746
76084W        W42867  16.353  38.840  13.861
76085W        W42868  24.760  36.673   3.795
76086W        W42869  27.006  21.732  12.907
76087W        W42870  29.353  19.248   0.722
76088W        W42871   1.885  18.304   1.967
76089W        W42872  20.106  21.548   2.387
76090W        W42873  23.805  38.015  11.476
76091W        W42874  19.002  27.868  13.803
76092W        W42875  18.128  27.742   4.891
76093W        W42876   1.219   1.377  10.590
76094W        W42877  27.714  18.811  12.020
76095W        W42878  19.729  16.085  10.878
76096W        W42879  33.370  17.128  10.555
76097W        W42880  26.009  22.243  11.115
76098W        W42881  20.556  10.363  13.441
76099W        W42882  38.911  14.095  11.633
76100W        W42883  24.790  43.383  14.029
76101W        W42884  21.814  19.053  10.354
76102W        W42885  17.585  33.074   3.677
76103W        W42886  32.545  22.208   1.742
76104W        W42887  24.780   0.256   5.586
76105W        W42888  12.943  44.361  10.535
76106W        W42889   6.322   9.229   2.598
76107W        W42890  32.775  20.663  14.766
76108W        W42891   5.970  17.659  11.122
76109W        W42892   7.486  10.282   2.272
76110W        W42893  38.623  39.323  14.299
76111W        W42894   0.508   0.991  13.464
76112W        W42895   4.894  20.718   2.406
76113W        W42896  36.911   2.529  14.346
76114W        W42897  36.105  14.569  13.262
76115W        W42898   1.292  37.457  14.235
76116W        W42899  15.416  14.169   4.383
76117W        W42900   6.633  19.715   0.626
76118W        W42901  13.948   0.073   1.929
76119W        W42902  19.260  36.540  12.387
76120W        W42903  44.058  30.217   1.941
76121W        W42904  40.850  39.029  12.500
76122W        W42905   9.629  35.550  12.522
76123W        W42906  10.786  19.339  14.485
76124W        W42907   8.674  36.905   0.512
76125W        W42908  41.784   6.105   1.929
76126W        W42909  38.582  40.115  11.775
76127W        W42910   0.135  18.110   3.602
76128W        W42911  41.792   5.373  14.988
76129W        W42912  15.851  35.211  11.980
76130W        W42913  10.983  16.739  13.285
76131W        W42914  39.412   5.050  12.514
76132W        W42915  12.262  16.041   4.142
76133W        W42916  30.373  28.508   1.350
76134W        W42917  27.623   3.397   4.530
76135W        W42918  29.596  39.856   1.866
76136W        W42919  25.207   7.412   0.949
76137W        W42920  39.443   6.360  11.493
76138W        W42921  33.309  10.893  13.322
76139W        W42922  40.934  42.037  11.490
76140W        W42923   8.062  33.793   9.967
76141W        W42924  18.429  32.180  14.711
76142W        W42925   7.774  44.889   0.235
76143W        W42926   3.183  24.098  14.031
76144W        W42927  25.875  35.675  14.539
76145W        W42928   3.815  30.646  14.721
76146W        W42929  30.381  25.470   4.535
76147W        W42930  22.632  37.588  12.032
76148W        W42931  31.432  24.639   3.528
76149W        W42932  12.132  38.092   2.245
76150W        W42933  44.442   0.700  14.094
76151W        W42934  33.198  23.466  12.501
76152W        W42935  32.403   1.358   2.722
76153W        W42936  15.887  39.579   2.396
76154W        W42937  25.896  43.055   3.273
76155W        W42938  33.070  42.948  14.932
76156W        W42939  26.481   7.148  14.382
76157W        W42940   9.488  27.188   1.437
76158W        W42941   3.323  29.136  13.322
76159W        W42942  33.722  38.906  14.719
76160W        W42943  10.711  27.997  11.537
76161W        W42944   6.617   2.238  12.015
76162W        W42945  20.798  14.728  12.504
76163W        W42946  12.014  32.904  14.387
76164W        W42947   2.490   4.199  12.550
76165W        W42948  33.130   3.916   1.769
76166W        W42949  16.197  39.830   4.756
76167W        W42950  27.302  10.394  13.457
76168W        W42951  14.159  22.499   0.825
76169W        W42952  16.358  33.376  13.959
76170W        W42953  33.352  11.214  11.134
76171W        W42954  12.282  10.506   1.293
76172W        W42955  14.443  19.603  13.826
76173W        W42956  13.272  12.857   0.469
76174W        W42957  38.844  25.175   3.743
76175W        W42958  24.630   3.805  13.066
76176W        W42959   0.361  41.493   1.823
76177W        W42960  10.198  34.906   0.379
76178W        W42961   0.525  27.984  10.790
76179W        W42962  17.875  13.626  11.948
76180W        W42963  43.906  25.759  14.466
76181W        W42964  13.240   5.491   1.971
76182W        W42965  36.023  17.136   3.239
76183W        W42966  36.325   8.510  10.721
76184W        W42967  37.601  10.887  12.060
76185W        W42968   8.974  12.505  13.496
76186W        W42969  15.867  10.435  14.778
76187W        W42970   4.400   0.497  10.579
76188W        W42971  16.986  43.230   1.280
76189W        W42972  18.552  16.303  12.937
76190W        W42973   5.393  39.967  12.605
76191W        W42974  34.396  12.582   4.676
76192W        W42975  41.920  14.890  14.731
76193W        W42976  28.406   7.094  10.852
76194W        W42977  38.160   9.842  10.639
76195W        W42978  12.106  14.023  11.793
76196W        W42979  29.546  26.610  12.187
76197W        W42980  11.637  26.139  13.425
76198W        W42981   2.710  43.817  13.884
76199W        W42982  36.636  37.004   2.689
76200W        W42983  10.247  20.186  12.555
76201W        W42984  39.872  18.653  13.577
76202W        W42985  23.060   9.628  14.446
76203W        W42986  37.085  27.178   1.744
76204W        W42987  39.292  23.413   2.451
76205W        W42988  30.494  10.550  13.247
76206W        W42989   1.180  22.774  11.118
76207W        W42990   0.786  13.312   1.316
76208W        W42991   1.223  43.311  10.589
76209W        W42992  13.880  39.446  12.020
76210W        W42993  28.847   5.372   1.670
76211W        W42994  11.035  25.252   2.834
76212W        W42995  17.573  16.745  14.343
76213W        W42996  34.481  17.819  11.944
76214W        W42997   6.899   9.321  11.500
76215W        W42998   4.894  16.788   0.484
76216W        W42999  30.963   6.263   0.941
76217W        W43000  34.308  25.767   0.365
76218W        W43001  25.750  35.009   5.028
76219W        W43002  19.667  28.706   0.444
76220W        W43003  11.539  33.539   2.453
76221W        W43004   5.903  30.342  12.053
76222W        W43005  17.558  23.723  13.370
76223W        W43006  21.232  31.982  11.663
76224W        W43007  24.751  28.741   1.913
76225W        W43008  14.494  31.470   3.719
76226W        W43009  20.856  14.542  10.257
76227W        W43010  13.020  20.311   4.516
76228W        W43011  22.031  44.363  12.353
76229W        W43012  32.752  16.639   0.704
76230W        W43013  32.652  18.514   3.065
76231W        W43014  33.909  43.345   1.229
76232W        W43015  32.927  39.974   0.198
76233W        W43016   1.232   7.739   2.700
76234W        W43017  12.589  23.517  11.548
76235W        W43018  18.735  23.680   5.007
76236W        W43019  37.845  30.568   3.319
76237W        W43020   2.724   7.055   3.726
76238W        W43021  17.557  31.767   1.998
76239W        W43022  23.063  18.680   1.332
76240W        W43023   3.465  16.387   0.235
76241W        W43024  14.917  42.967  14.383
76242W        W43025  40.804  10.843  10.285
76243W        W43026  40.505  44.095   5.002
76244W        W43027  22.726   5.633  12.378
76245W        W43028  11.148  19.035   4.190
76246W        W43029   0.440  16.627  11.396
76247W        W43030   7.233  15.585   4.764
76248W        W43031  17.078  24.040  11.601
76249W        W43032   9.888   6.667   1.702
76250W        W43033  40.170  14.890   4.603
76251W        W43034  13.310  14.831  14.309
76252W        W43035  35.759  38.015  13.610
76253W        W43036  38.226  24.346   1.805
76254W        W43037  15.052  34.622   5.078
76255W        W43038   4.137  10.049  11.178
76256W        W43039  40.954   3.715  14.712
76257W        W43040  10.377  33.518  13.247
76258W        W43041  44.930  26.262  12.886
76259W        W43042  34.892   5.001   0.932
76260W        W43043  37.287   0.975   2.438
76261W        W43044  14.645  24.821   0.123
76262W        W43045  27.455   1.698   2.754
76263W        W43046  40.105  37.430  13.670
76264W        W43047  41.756   6.915   0.622
76265W        W43048   1.034  23.273   3.295
76266W        W43049  17.202  19.785  13.321
76267W        W43050  11.049  11.233   2.798
76268W        W43051  22.231  25.137  14.618
76269W        W43052  26.003  30.033   4.554
76270W        W43053  14.179   6.884  13.923
76271W        W43054  15.145  16.081  13.952
76272W        W43055  16.146  19.956   4.692
76273W        W43056  35.597  23.248   2.617
76274W        W43057  29.762   4.884   3.181
76275W        W43058  42.715   2.737  11.954
76276W        W43059   8.172  17.842   1.424
76277W        W43060  37.355   0.048   0.398
76278W        W43061  14.348  16.261  12.850
76279W        W43062  14.610  29.007  12.072
76280W        W43063   0.816  33.415  14.385
76281W        W43064  14.030   4.190  13.535
76282W        W43065  27.855  26.674  11.315
76283W        W43066  41.856  24.192   2.405
76284W        W43067  12.843  13.435  13.956
76285W        W43068  33.453  29.518  10.761
76286W        W43069  22.468  34.912   4.100
76287W        W43070   0.951  42.707   0.693
76288W        W43071  30.690  21.755  11.562
76289W        W43072   0.869  21.644  10.433
76290W        W43073  13.804   5.615   4.132
76291W        W43074  22.127  29.059   4.708
76292W        W43075   3.802   4.046   4.215
76293W        W43076   7.915  15.029  13.378
76294W        W43077  22.279  30.810  12.914
76295W        W43078  23.572  27.629   4.365
76296W        W43079   5.290  36.339  12.425
76297W        W43080  18.556  43.546  10.538
76298W        W43081   5.916   9.764  14.935
76299W        W43082  36.475  30.229  11.158
76300W        W43083  40.336  28.873   0.470
76301W        W43084   0.084  36.442  12.341
76302W        W43085  12.347  29.909   3.433
76303W        W43086  32.787   5.922   0.327
76304W        W43087  12.313  16.623   1.446
76305W        W43088  15.567   1.883   4.592
76306W        W43089   1.322  31.573  11.892
76307W        W43090  21.713  12.518  12.212
76308W        W43091  20.059  34.418   3.289
76309W        W43092   8.257   6.391  11.672
76310W        W43093  23.066  39.719   3.706
76311W        W43094  26.922  32.670   2.323
76312W        W43095   2.395   6.892  12.946
76313W        W43096  42.011   6.909   0.149
76314W        W43097   6.669  31.543   0.128
76315W        W43098  29.558  20.618   2.670
76316W        W43099  20.291  16.320  10.265
76317W        W43100   4.286  25.610  14.698
76318W        W43101  10.749  10.195  14.334
76319W        W43102  14.795  21.927  12.048
76320W        W43103   8.518  37.877   3.762
76321W        W43104  32.064   1.158  11.170
76322W        W43105  44.027  22.547  11.134
76323W        W43106   3.689  31.057  10.416
76324W        W43107  29.360  34.885   2.261
76325W        W43108   5.332   7.936   2.407
76326W        W43109  26.610  29.040  12.573
76327W        W43110  19.809   3.823   4.892
76328W        W43111  39.758  36.880  13.301
76329W        W43112  43.355   1.533   3.354
76330W        W43113   4.763  33.899   0.248
76331W        W43114  15.490  22.823   2.642
76332W        W43115  19.428  34.878  11.529
76333W        W43116   2.740  43.329  14.079
76334W        W43117  39.225  37.507   3.077
76335W        W43118   4.332  10.694   4.186
76336W        W43119   8.855   1.771  14.641
76337W        W43120  31.632  25.166   3.610
76338W        W43121  39.723  23.251  11.182
76339W        W43122  19.240   7.159  10.550
76340W        W43123  36.839   9.006   0.808
76341W        W43124  14.021  41.435   0.739
76342W        W43125  17.560  41.506   0.019
76343W        W43126  11.357  27.562  11.670
76344W        W43127  16.828  28.205  12.152
76345W        W43128  16.184   0.039  14.126
76346W        W43129   2.696  22.162  12.921
76347W        W43130  14.633   0.525   1.657
76348W        W43131   0.435  16.211   2.577
76349W        W43132   8.573  20.741   0.226
76350W        W43133   0.287   7.334   0.080
76351W        W43134   0.775  30.961   0.019
76352W        W43135  36.799  29.624  10.680
76353W        W43136  32.893  24.890  10.684
76354W        W43137  21.642   8.949   1.430
76355W        W43138  16.804  41.752   3.035
76356W        W43139   2.500  17.630   2.166
76357W        W43140  26.369   0.404  13.354
76358W        W43141  32.806  23.277   4.596
76359W        W43142  23.335   8.624  11.224
76360W        W43143  33.842  19.980  13.518
76361W        W43144  22.799   9.951  10.521
76362W        W43145  23.549  28.017   0.801
76363W        W43146  12.268  35.317  12.034
76364W        W43147   6.644  36.366  13.011
76365W        W43148   1.939  37.787  13.629
76366W        W43149  39.835   6.886   9.844
76367W        W43150  40.801  43.146   3.807
76368W        W43151  35.587  42.017   3.428
76369W        W43152  17.214   6.557  11.145
76370W        W43153  15.397  12.762   0.478
76371W        W43154   1.712   4.832   0.243
76372W        W43155  12.339  40.648   3.274
76373W        W43156  36.627  19.606   5.420
76374W        W43157  13.611  42.818   2.355
76375W        W43158   5.979  25.934  14.446
76376W        W43159  26.726   2.516   1.809
76377W        W43160  12.814  23.013  14.416
76378W        W43161  18.588  37.560   4.565
76379W        W43162  38.154  22.661   3.299
76380W        W43163  17.629  12.068  13.184
76381W        W43164  37.791  12.247   3.407
76382W        W43165  39.796  23.407   4.170
76383W        W43166   8.414  19.136   1.404
76384W        W43167  21.407  22.344  10.106
76385W        W43168   8.648  42.187   0.879
76386W        W43169   4.795  38.607   1.232
76387W        W43170  21.959  20.022  13.956
76388W        W43171   4.154   8.253  14.879
76389W        W43172  15.077  13.840  14.464
76390W        W43173  22.753  42.428  13.936
76391W        W43174  20.365   9.709  14.380
76392W        W43175  33.209  26.239  12.524
76393W        W43176  27.607   1.834  11.226
76394W        W43177   1.199  19.622   1.412
76395W        W43178  10.183   0.773  10.713
76396W        W43179  43.934  36.546   1.132
76397W        W43180  36.560   7.827  13.925
76398W        W43181  13.550   0.391   1.864
76399W        W43182  12.629  24.747  12.885
76400W        W43183   5.699   2.983   4.197
76401W        W43184  31.919   5.751   4.172
76402W        W43185  30.922  14.634  13.937
76403W        W43186  17.087  32.898  11.837
76404W        W43187  39.349  32.487   1.934
76405W        W43188  33.579  16.312  12.842
76406W        W43189  22.723  31.983  12.058
76407W        W43190  44.374   3.672  11.531
76408W        W43191  18.026   7.191   2.291
76409W        W43192   3.501  25.642   2.134
76410W        W43193  44.583  44.299  12.626
76411W        W43194  18.641   7.249   1.450
76412W        W43195  11.888   6.181   0.804
76413W        W43196   1.946  42.389   4.454
76414W        W43197  27.926  28.705   3.171
76415W        W43198  44.500  14.868  12.351
76416W        W43199  20.437   4.663   4.241
76417W        W43200  13.587   1.269  12.420
76418W        W43201  23.884  35.773   0.307
76419W        W43202  17.923   6.775   0.490
76420W        W43203  24.570   4.761  14.497
76421W        W43204  26.578  25.553  12.632
76422W        W43205  32.935  13.194  14.025
76423W        W43206  21.264   7.233  11.588
76424W        W43207  32.492  18.649   9.684
76425W        W43208  11.130  16.678   4.614
76426W        W43209  35.047   7.760   3.286
76427W        W43210  20.724   7.863  12.935
76428W        W43211  16.911   4.983   3.717
76429W        W43212   6.122  10.296  11.906
76430W        W43213  34.953  13.416  10.977
76431W        W43214  25.284  17.243   2.717
76432W        W43215  38.278   0.888  14.021
76433W        W43216  33.837  36.429  12.131
76434W        W43217   6.131  19.175  14.503
76435W        W43218   1.216  30.053  13.883
76436W        W43219  17.623  10.323   2.476
76437W        W43220   5.088  33.790  14.441
76438W        W43221  36.584  33.438  10.359
76439W        W43222  19.167  30.465  12.901
76440W        W43223  35.106   9.415  13.847
76441W        W43224  17.315  30.915  13.941
76442W        W43225  26.976  40.439   3.340
76443W        W43226  14.654  22.199  13.336
76444W        W43227   7.311   2.515   3.649
76445W        W43228  27.418  33.563   4.140
76446W        W43229  21.058  25.817   4.228
76447W        W43230  33.344  42.009  11.175
76448W        W43231   2.319  41.815  14.186
76449W        W43232   2.406  12.390  14.786
76450W        W43233  20.803   3.407   0.395
76451W        W43234  24.092   4.414  12.318
76452W        W43235  33.905  37.889   3.621
76453W        W43236  30.968  27.449  10.555
76454W        W43237  12.882   3.969  14.838
76455W        W43238   4.978  43.444  13.143
76456W        W43239   1.225  18.003   3.242
76457W        W43240  39.102   9.397  13.912
76458W        W43241  22.773  25.577  14.944
76459W        W43242  43.276  14.601  14.274
76460W        W43243  29.689  22.025   2.881
76461W        W43244  26.646  32.323   2.647
76462W        W43245  30.670  38.866  14.951
76463W        W43246   7.129  14.735  11.138
76464W        W43247  17.822  27.166  13.335
76465W        W43248   3.318  30.898   4.406
76466W        W43249  11.413  21.137   4.653
76467W        W43250  27.920  25.578   0.292
76468W        W43251  26.075  22.047  13.524
76469W        W43252   9.410  29.564   2.052
76470W        W43253  24.793  15.704   4.714
76471W        W43254  41.342  39.515   1.849
76472W        W43255  23.720  21.191   1.333
76473W        W43256  33.508  24.403  14.810
76474W        W43257   6.344  10.379  13.793
76475W        W43258  41.089  44.426   4.556
76476W        W43259  41.307  24.995  13.107
76477W        W43260  19.721  19.244   2.394
76478W        W43261  35.290  36.849  10.591
76479W        W43262  19.304   7.933  12.481
76480W        W43263   9.140  31.162   3.791
76481W        W43264  13.652   8.277   3.193
76482W        W43265   9.631  17.904  13.816
76483W        W43266  43.014  15.129  12.592
76484W        W43267  10.819  36.758  10.635
76485W        W43268  34.917   6.090   1.000
76486W        W43269  41.695  42.307  12.518
76487W        W43270  31.649   8.950  11.966
76488W        W43271  29.495  15.180   0.773
76489W        W43272  29.241  35.973  13.084
76490W        W43273  25.163   1.045   2.348
76491W        W43274  22.564  32.468   1.398
76492W        W43275  14.825  19.858   3.951
76493W        W43276  38.554  18.936  13.406
76494W        W43277  13.760  44.798   2.317
76495W        W43278  20.075  21.616  10.510
76496W        W43279  39.603  39.390  11.918
76497W        W43280  31.913   3.210   1.898
76498W        W43281  37.401   9.246   4.563
76499W        W43282  14.052  34.353  10.600
76500W        W43283  16.284  22.605   4.775
76501W        W43284  20.548  28.171   2.102
76502W        W43285  13.677  23.482   2.821
76503W        W43286  44.352  32.958   0.533
76504W        W43287   2.102  36.823  11.381
76505W        W43288   6.417  41.397  14.556
76506W        W43289  19.753   2.366  10.191
76507W        W43290   2.844  34.830  14.672
76508W        W43291  22.511  33.372  14.050
76509W        W43292  39.472  16.163  12.154
76510W        W43293  15.759  24.118   0.478
76511W        W43294   1.195  29.162  13.336
76512W        W43295  43.918  40.886  12.665
76513W        W43296  15.288  37.356  12.127
76514W        W43297  22.228   0.529   1.390
76515W        W43298  32.001  44.389   3.626
76516W        W43299  20.060   6.756   4.609
76517W        W43300  44.786  16.658   4.357
76518W        W43301   1.722   3.337   0.777
76519W        W43302  13.696   5.412   3.663
76520W        W43303  34.207  40.414   3.173
76521W        W43304  24.486  34.028  13.943
76522W        W43305  30.620   1.840  11.548
76523W        W43306  11.071  29.028   4.747
76524W        W43307  24.650  23.858   2.845
76525W        W43308   2.499  21.162   2.699
76526W        W43309   4.446  21.655  13.453
76527W        W43310  33.149  43.788   0.039
76528W        W43311  28.254   8.115   4.168
76529W        W43312  14.512  29.952  14.472
76530W        W43313  15.256  33.329  14.280
76531W        W43314  26.175   8.935  12.957
76532W        W43315  29.513  18.755  12.635
76533W        W43316  43.761  40.248   0.330
76534W        W43317  17.197  12.742   5.173
76535W        W43318   0.883  27.175   1.826
76536W        W43319  42.009   9.370   3.047
76537W        W43320  15.673   4.158   1.898
76538W        W43321  11.846  28.919  12.970
76539W        W43322  24.703  44.822  11.535
76540W        W43323   8.486  38.776  14.907
76541W        W43324  16.601  37.908  13.722
76542W        W43325   1.860  15.601   0.246
76543W        W43326  11.250  27.444  12.218
76544W        W43327  44.734   5.320   3.257
76545W        W43328  21.692  21.683   1.897
76546W        W43329  25.224  22.007   4.372
76547W        W43330   4.145   1.914   0.695
76548W        W43331   7.624  11.376   1.335
76549W        W43332   4.976  19.116   2.833
76550W        W43333  11.638   6.375   3.626
76551W        W43334  29.959  20.389   3.278
76552W        W43335   4.830  13.545  10.775
76553W        W43336  14.380  40.882   4.571
76554W        W43337  17.069   3.796   2.209
76555W        W43338  22.401  20.376  12.005
76556W        W43339   8.283  22.565  12.819
76557W        W43340  39.002   0.414   1.700
76558W        W43341  38.828  18.479  12.341
76559W        W43342  18.495  41.821   2.383
76560W        W43343  12.203   8.780  13.555
76561W        W43344  24.452  44.586  11.147
76562W        W43345   1.454  11.910   1.683
76563W        W43346  13.679  38.038   1.758
76564W        W43347  12.253  15.557  12.085
76565W        W43348  36.902  44.243  14.434
76566W        W43349  27.149   6.212   1.388
76567W        W43350  43.456  31.288  14.698
76568W        W43351  19.438  31.114   4.570
76569W        W43352  42.294  18.575  13.405
76570W        W43353   5.887  29.702  11.598
76571W        W43354  26.426  16.745  10.273
76572W        W43355  23.606   7.421  13.349
76573W        W43356  21.047   7.401  14.674
76574W        W43357  26.224  31.938   3.366
76575W        W43358  19.816  33.362   4.044
76576W        W43359  25.659  23.481   2.197
76577W        W43360  27.081  35.544   4.493
76578W        W43361  12.323  19.794  12.483
76579W        W43362   8.300  29.916  11.424
76580W        W43363  37.536  23.725   1.683
76581W        W43364  36.411  14.231   0.854
76582W        W43365  30.030  25.799  13.355
76583W        W43366  30.353  10.433  12.764
76584W        W43367  34.833  42.860   3.478
76585W        W43368   8.198  15.956  10.860
76586W        W43369  25.219  33.597  13.854
76587W        W43370   8.380  12.156   4.431
76588W        W43371  28.587  31.279  12.076
76589W        W43372  16.951  37.796   3.254
76590W        W43373   1.734  16.036  10.344
76591W        W43374   0.582  36.765   0.818
76592W        W43375  41.935  12.353  12.557
76593W        W43376  37.299  15.044   4.653
76594W        W43377  22.222   5.261   1.482
76595W        W43378  15.241   6.736  11.677
76596W        W43379  24.552  44.028  12.034
76597W        W43380  16.552  24.333  14.490
76598W        W43381  34.456  29.021   4.550
76599W        W43382  13.208  31.612   4.199
76600W        W43383  34.617  13.807  14.437
76601W        W43384  15.275   1.521   1.040
76602W        W43385  33.113   4.915  12.133
76603W        W43386  23.277  19.805   4.247
76604W        W43387  10.828   6.144   0.551
76605W        W43388  42.682  28.719  14.963
76606W        W43389  42.524  35.446  13.134
76607W        W43390  16.734  22.535  12.299
76608W        W43391  28.561  36.731   3.275
76609W        W43392  37.773  35.859  11.129
76610W        W43393   8.218  39.375  11.870
76611W        W43394  33.804  11.512   0.267
76612W        W43395  23.566  23.334   0.344
76613W        W43396  35.132  27.653   0.288
76614W        W43397  34.778  21.698  12.892
76615W        W43398  18.166  21.075   1.019
76616W        W43399   4.977  16.181  14.718
76617W        W43400  26.990  44.304  10.760
76618W        W43401  22.566  41.601  10.079
76619W        W43402  27.939  16.337  11.445
76620W        W43403   8.951  31.541   0.783
76621W        W43404  43.568  21.486  12.050
76622W        W43405  27.005  28.842  12.932
76623W        W43406  30.723  11.398  11.235
76624W        W43407  10.848  36.617  14.441
76625W        W43408   2.958   9.584  13.442
76626W        W43409  10.803  10.734  10.964
76627W        W43410  42.542  17.099   0.671
76628W        W43411   8.106  32.078   2.899
76629W        W43412  31.067  37.628   5.128
76630W        W43413  35.052  18.399  14.449
76631W        W43414  18.270  31.063   1.778
76632W        W43415  31.395  35.254  14.468
76633W        W43416  11.280  10.824  12.322
76634W        W43417  39.416  30.558   4.403
76635W        W43418  17.639  15.039   2.345
76636W        W43419  13.648  35.126  11.208
76637W        W43420  13.258  16.187   3.923
76638W        W43421  13.299  22.657   4.594
76639W        W43422   6.310  37.974   3.208
76640W        W43423   8.337  28.128  14.720
76641W        W43424  17.110   9.332   3.980
76642W        W43425  37.248  20.503  14.730
76643W        W43426   6.723  34.649   3.173
76644W        W43427  30.500   2.217  10.693
76645W        W43428  17.755   4.233   4.640
76646W        W43429  11.662  21.577  12.615
76647W        W43430   4.726  34.976   0.588
76648W        W43431  10.470   2.292  12.850
76649W        W43432  15.244  25.464   4.720
76650W        W43433  29.560  19.621   3.480
76651W        W43434   5.822   9.590  11.559
76652W        W43435  10.201  20.080   0.460
76653W        W43436  12.445  37.172   3.194
76654W        W43437  36.953  14.970  11.726
76655W        W43438  38.495  35.549   4.162
76656W        W43439  23.735  39.649  11.013
76657W        W43440  32.081  11.057  13.414
76658W        W43441  40.296   3.225   1.958
76659W        W43442  13.916  23.998  10.682
76660W        W43443  12.135  34.437   5.601
76661W        W43444  14.211  20.227  12.690
76662W        W43445  16.635  33.686  11.501
76663W        W43446   8.149  10.267  13.992
76664W        W43447  33.016  17.124   2.767
76665W        W43448  26.111  22.919   4.269
76666W        W43449  28.074  26.207   3.175
76667W        W43450  38.811  14.218   1.653
76668W        W43451  36.024   4.245   1.904
76669W        W43452  32.237  10.917   0.287
76670W        W43453   3.861  15.079   3.187
76671W        W43454   7.901  11.744   3.308
76672W        W43455   2.008  14.083  11.157
76673W        W43456   5.667  11.379   0.758
76674W        W43457  15.130  37.548   2.572
76675W        W43458  26.947   9.267   3.431
76676W        W43459   0.426  39.956   2.671
76677W        W43460  20.578   1.976   4.575
76678W        W43461  17.932  36.423  12.766
76679W        W43462  17.280  14.011   3.268
76680W        W43463  36.130  15.548  12.144
76681W        W43464  33.256  26.563  10.027
76682W        W43465   1.322  37.377   0.725
76683W        W43466  10.580  23.732   2.446
76684W        W43467   6.725   5.539  14.471
76685W        W43468  26.455  28.620   1.490
76686W        W43469  25.598  31.306  14.361
76687W        W43470   3.001  40.846   1.352
76688W        W43471  22.466   4.363   4.149
76689W        W43472  35.353  39.501  13.335
76690W        W43473   1.877  23.639   1.194
76691W        W43474  41.074  12.558  13.884
76692W        W43475  43.435  17.729   5.479
76693W        W43476  14.597  37.532  13.658
76694W        W43477  22.004  21.557   1.205
76695W        W43478  24.543  30.265   1.841
76696W        W43479  33.605  30.749  10.123
76697W        W43480  13.941   2.049   2.917
76698W        W43481  19.302  41.971  13.489
76699W        W43482  33.039  24.507   2.428
76700W        W43483  14.972  14.613   2.760
76701W        W43484  42.883  42.868   1.558
76702W        W43485  44.085   0.433   4.802
76703W        W43486  29.630  36.872  12.948
76704W        W43487  32.446  23.364  10.881
76705W        W43488   8.541  29.769   1.455
76706W        W43489  20.795  36.698  11.112
76707W        W43490  25.757  18.548   2.780
76708W        W43491   0.476   7.849   3.862
76709W        W43492  23.601  37.946  11.008
76710W        W43493   8.183  29.502   3.158
76711W        W43494  40.069  34.844   4.988
76712W        W43495  24.462  38.181   4.145
76713W        W43496  28.100  15.136   1.951
76714W        W43497  16.280  41.991   0.088
76715W        W43498  43.271   6.303  11.074
76716W        W43499  42.691  38.972   1.843
76717W        W43500  19.216  44.252  13.007
76718W        W43501  12.776  29.655  11.985
76719W        W43502  43.917  13.775   3.379
76720W        W43503   0.209  41.766   2.250
76721W        W43504  15.316  36.619   0.681
76722W        W43505   3.255   1.266   1.749
76723W        W43506   0.271  19.413  12.092
76724W        W43507  17.110  19.932   1.173
76725W        W43508   3.369  42.898   0.949
76726W        W43509  26.723  28.912   4.130
76727W        W43510  25.124  40.016  12.591
76728W        W43511  44.364  41.538   3.237
76729W        W43512  12.678  30.244   4.739
76730W        W43513  10.152  28.040  11.625
76731W        W43514  30.103  17.404   0.633
76732W        W43515  30.896  12.163   1.819
76733W        W43516   3.535  21.135   2.328
76734W        W43517   5.707  26.169  13.838
76735W        W43518  30.618  44.954   3.310
76736W        W43519  32.844  28.550  12.154
76737W        W43520  39.846   0.428  13.517
76738W        W43521  10.108  38.373  13.727
76739W        W43522  10.364  16.211  13.641
76740W        W43523  22.729  30.454   0.314
76741W        W43524  27.242   4.416   4.104
76742W        W43525  30.324   9.807   4.571
76743W        W43526  11.756   3.976   4.564
76744W        W43527  36.638  13.683  13.322
76745W        W43528   2.174   5.224   3.732
76746W        W43529  42.069  34.023  12.980
76747W        W43530  21.781  22.274   4.316
76748W        W43531  21.447  32.650  12.686
76749W        W43532   2.992  14.708   1.755
76750W        W43533   7.145   9.243  11.974
76751W        W43534  27.151   2.900  13.375
76752W        W43535  24.617   8.616   0.997
76753W        W43536   8.432  31.613   2.757
76754W        W43537  20.719  21.191   0.021
76755W        W43538   2.705  32.568   3.430
76756W        W43539  38.069  13.073   0.917
76757W        W43540  20.573  40.516   2.368
76758W        W43541  44.783  27.542  10.553
76759W        W43542  10.645   0.341   1.780
76760W        W43543  26.288   9.899   0.261
76761W        W43544   3.689  39.902  11.167
76762W        W43545  21.590   3.316  14.905
76763W        W43546   9.457  44.348  12.313
76764W        W43547  29.193  39.512   1.258
76765W        W43548  33.486  44.649  10.736
76766W        W43549  43.075  30.450   1.741
76767W        W43550  42.414  26.101  10.638
76768W        W43551  32.873  27.523  12.415
76769W        W43552  27.229   4.258  13.341
76770W        W43553   4.976  43.325   0.440
76771W        W43554  30.902  10.191  12.623
76772W        W43555  28.477  26.041   1.319
76773W        W43556  15.535   5.954  10.905
76774W        W43557   8.931  18.104  12.603
76775W        W43558  17.158   1.505  12.628
76776W        W43559   4.379  13.245   4.224
76777W        W43560  28.510  37.513   1.821
76778W        W43561  39.286  19.820  10.730
76779W        W43562  35.969  10.181   2.915
76780W        W43563  25.425  20.909  13.409
76781W        W43564   2.943  10.953  10.661
76782W        W43565   3.172  26.564   4.762
76783W        W43566  36.623  20.229  13.398
76784W        W43567  39.479  37.812  11.295
76785W        W43568  26.454  24.071  13.571
76786W        W43569  39.591  27.140  13.436
76787W        W43570  39.089  25.688  10.865
76788W        W43571   4.192  23.251  11.529
76789W        W43572  41.253  25.857  11.582
76790W        W43573  21.288  35.348  13.567
76791W        W43574  28.495  23.296   4.318
76792W        W43575  29.947   1.546   0.436
76793W        W43576  23.288  19.708   2.842
76794W        W43577  14.816  12.613  14.638
76795W        W43578  18.648  38.483   0.676
76796W        W43579  21.025  33.952  11.662
76797W        W43580   1.883  20.930  12.866
76798W        W43581  32.628  38.046  14.700
76799W        W43582  22.818  15.798   4.154
76800W        W43583  10.830  18.803  12.071
76801W        W43584  39.340  42.151   3.382
76802W        W43585  42.070  29.855  13.566
76803W        W43586  12.828  15.517   3.892
76804W        W43587  13.290  38.505   5.074
76805W        W43588  34.969  33.829  13.824
76806W        W43589  27.702  36.360   3.841
76807W        W43590  16.904  10.177  14.956
76808W        W43591   5.318   3.656   0.139
76809W        W43592  44.278  28.456   2.712
76810W        W43593  24.738   3.531   1.270
76811W        W43594  18.252  17.555   4.244
76812W        W43595  28.080  31.149   2.325
76813W        W43596   7.652  27.289  11.268
76814W        W43597  44.228  13.212   1.820
76815W        W43598  44.335   5.623   2.151
76816W        W43599  30.562  21.661  12.466
76817W        W43600  18.187   9.541   0.014
76818W        W43601  23.701  16.627  13.545
76819W        W43602  37.254  20.189  10.751
76820W        W43603  18.132  21.572   0.865
76821W        W43604   9.096  30.011  13.964
76822W        W43605  12.249   2.998  10.479
76823W        W43606  25.375  36.094   5.046
76824W        W43607   6.223  21.023  14.376
76825W        W43608   3.056  40.487  11.171
76826W        W43609  39.984   8.744   3.337
76827W        W43610   5.240  31.772   2.377
76828W        W43611   8.246   1.704  14.822
76829W        W43612  16.252  34.174   3.565
76830W        W43613  44.788  41.975   2.497
76831W        W43614  23.015   4.794   4.258
76832W        W43615  29.430  44.774  14.527
76833W        W43616  23.531  38.406  11.235
76834W        W43617  28.893   9.230   2.743
76835W        W43618  10.229   2.420  14.381
76836W        W43619  40.771  15.730   3.491
76837W        W43620  29.937  37.123   1.410
76838W        W43621  39.397  16.030  14.410
76839W        W43622   9.328   1.767  12.662
76840W        W43623  10.276  34.189   3.780
76841W        W43624  30.435  24.547   1.555
76842W        W43625  15.820   6.278   4.593
76843W        W43626  18.087  17.699   0.333
76844W        W43627   1.400  24.867   0.076
76845W        W43628  12.284   6.652   4.496
76846W        W43629  35.037  37.768   1.848
76847W        W43630  12.782  23.256   1.745
76848W        W43631  18.677  38.215  12.094
76849W        W43632   8.650  31.654   0.353
76850W        W43633  35.101  16.004   4.373
76851W        W43634   3.816  20.686   2.340
76852W        W43635   7.135   7.175  14.297
76853W        W43636  24.587  17.970  14.827
76854W        W43637  23.697  24.681   2.742
76855W        W43638  44.088  40.207   4.794
76856W        W43639   6.260   7.016   3.718
76857W        W43640  10.800  41.477  13.939
76858W        W43641  16.780  25.676   2.297
76859W        W43642   9.030  38.562   4.452
76860W        W43643   7.257  40.381  13.925
76861W        W43644  22.627  29.085  13.910
76862W        W43645   9.246  11.184  14.031
76863W        W43646  19.769  36.972  14.374
76864W        W43647   0.205  19.470  11.287
76865W        W43648  37.301  40.243  14.535
76866W        W43649  28.045  26.730   1.821
76867W        W43650  24.154  35.024  11.946
76868W        W43651   1.129   4.170  10.494
76869W        W43652   2.409   2.460  14.795
76870W        W43653   5.253  34.063   0.409
76871W        W43654  13.040  18.998   4.125
76872W        W43655  32.953   6.691   3.159
76873W        W43656  27.554   5.366  10.456
76874W        W43657  21.017  31.364  13.855
76875W        W43658  29.842  36.562  12.019
76876W        W43659  12.677  11.254   0.505
76877W        W43660  39.394  33.957   0.976
76878W        W43661  12.802  39.381   0.699
76879W        W43662  22.171  15.277  12.984
76880W        W43663   4.403  15.584  11.162
76881W        W43664  17.282   4.754  13.779
76882W        W43665  39.026  44.228   0.424
76883W        W43666  39.612  12.785   2.391
76884W        W43667  24.705   5.788  14.734
76885W        W43668  20.145  23.133  14.890
76886W        W43669  27.878  24.932  13.059
76887W        W43670   7.879  40.472  11.962
76888W        W43671   4.351  26.973   4.137
76889W        W43672  27.916   1.384   3.945
76890W        W43673  41.172   3.946  13.827
76891W        W43674   8.610  13.048   3.396
76892W        W43675  42.948  11.129   4.979
76893W        W43676  43.771  25.269   4.080
76894W        W43677   7.753   6.981   4.416
76895W        W43678  18.515   1.367   3.679
76896W        W43679  32.925   8.595  13.478
76897W        W43680  11.194  33.349  12.338
76898W        W43681  24.093  10.437  10.936
76899W        W43682  21.144   9.159   3.788
76900W        W43683   1.876   7.738  12.184
76901W        W43684   5.458  13.637  12.006
76902W        W43685  36.263  35.443  12.955
76903W        W43686   7.741   9.361  11.164
76904W        W43687  40.251  24.041  14.353
76905W        W43688  40.758  33.623   2.296
76906W        W43689  22.052  35.987   4.354
76907W        W43690  38.101  15.642   0.183
76908W        W43691   8.321  28.731  12.701
76909W        W43692  37.674  16.093   2.197
76910W        W43693   8.461  24.784  10.657
76911W        W43694  15.307  13.853  10.261
76912W        W43695   6.199  11.421   2.207
76913W        W43696  41.731  20.995  11.218
76914W        W43697  10.295  35.992  13.566
76915W        W43698   0.624  37.575  12.427
76916W        W43699  22.569  42.614  13.480
76917W        W43700  36.047  21.909  14.804
76918W        W43701   1.953  19.926   0.804
76919W        W43702  32.923  24.631   2.897
76920W        W43703   2.897  27.393  12.343
76921W        W43704  29.661   4.274  13.310
76922W        W43705   4.573   1.492   1.420
76923W        W43706  26.317  21.969   1.525
76924W        W43707  22.574   4.183   3.183
76925W        W43708  21.575  40.162   3.324
76926W        W43709  24.642  19.606   4.033
76927W        W43710  25.649  23.055  13.569
76928W        W43711  15.092  38.810   1.895
76929W        W43712   8.297   3.375  12.824
76930W        W43713   8.970  43.800   4.096
76931W        W43714   8.714  24.283   0.242
76932W        W43715  17.944  28.768   3.134
76933W        W43716  43.316  15.279   3.180
76934W        W43717  20.814  10.208   1.536
76935W        W43718   3.724  43.844  14.039
76936W        W43719  20.086  33.767  14.358
76937W        W43720  29.880  27.797   0.749
76938W        W43721   0.982  10.236  10.613
76939W        W43722  23.713   2.287   3.259
76940W        W43723  17.866  27.360  12.446
76941W        W43724  13.115  36.120  10.062
76942W        W43725  33.229  22.783   4.906
76943W        W43726   4.430  23.460   0.788
76944W        W43727  43.277  31.516  12.035
76945W        W43728  27.553  24.067  14.590
76946W        W43729  18.817  36.127  13.895
76947W        W43730  16.177  18.098  12.911
76948W        W43731  39.657  30.567  14.003
76949W        W43732  26.329   3.862   3.188
76950W        W43733  44.337   2.781   1.792
76951W        W43734  27.602  17.011   0.258
76952W        W43735  27.652   4.782   2.831
76953W        W43736   2.564   7.890  13.006
76954W        W43737  20.365  21.122  11.648
76955W        W43738  25.567   6.016  11.249
76956W        W43739  36.012   2.967  14.085
76957W        W43740  14.311   1.322   3.328
76958W        W43741  16.146  44.803  14.606
76959W        W43742  10.261   8.226  14.671
76960W        W43743  22.990   0.326   2.870
76961W        W43744  17.729  39.118   1.174
76962W        W43745  22.595  15.508   1.923
76963W        W43746  32.405  34.009   1.441
76964W        W43747   5.837  12.016  13.827
76965W        W43748  22.638  18.109  14.459
76966W        W43749  30.240   2.482  12.028
76967W        W43750  42.389  21.000   1.301
76968W        W43751  27.281   7.758   1.322
76969W        W43752  11.775  19.564  11.120
76970W        W43753   6.388  44.602   2.207
76971W        W43754  39.981  21.533   0.500
76972W        W43755  16.399  23.622   4.560
76973W        W43756  14.681   3.116  12.196
76974W        W43757  18.933   2.747   1.831
76975W        W43758  21.160  40.073  12.637
76976W        W43759  15.299  24.228  14.020
76977W        W43760  29.960  44.841   3.977
76978W        W43761  22.666  12.652  12.394
76979W        W43762  12.353  43.690   1.872
76980W        W43763  15.699   2.016  13.925
76981W        W43764  39.365  26.067  12.188
76982W        W43765  25.107  40.323  11.339
76983W        W43766   8.379   5.924  11.937
76984W        W43767  15.730   1.479   3.385
76985W        W43768  23.604   6.608  10.637
76986W        W43769  13.141  19.121   2.366
76987W        W43770  39.078   0.760  14.970
76988W        W43771   9.270   1.812   4.643
76989W        W43772  11.256  35.946  11.154
76990W        W43773  18.725  40.038   1.473
76991W        W43774  21.199  34.684   2.359
76992W        W43775  30.200   7.592   4.237
76993W        W43776  19.932  22.134   1.606
76994W        W43777  17.224  25.753  12.587
76995W        W43778  36.480  42.157  14.804
76996W        W43779  10.677  10.597  13.550
76997W        W43780  22.776   6.929   3.382
76998W        W43781   6.242  35.580  14.434
76999W        W43782  30.847  44.324  10.802
77000W        W43783  33.136  12.683   2.411
77001W        W43784  37.434  10.783   4.407
77002W        W43785  10.387  32.975   4.797
77003W        W43786  11.118   6.825  11.664
77004W        W43787  26.608   9.302   2.616
77005W        W43788  27.675   9.652   1.795
77006W        W43789  25.190   7.775  14.331
77007W        W43790  42.747  17.895  12.825
77008W        W43791   9.359  36.179  11.632
77009W        W43792  31.237  37.916   4.158
77010W        W43793  28.857  43.739  14.821
77011W        W43794  31.275  40.574   3.636
77012W        W43795  33.665   8.963   1.142
77013W        W43796   5.525  26.454   1.310
77014W        W43797  15.763   5.170  12.340
77015W        W43798   6.170  25.249  12.224
77016W        W43799  23.836   6.126   2.138
77017W        W43800  38.749  42.513  13.929
77018W        W43801  27.168  16.404  12.645
77019W        W43802  43.818  33.773   1.231
77020W        W43803  16.574   0.859  12.700
77021W        W43804  44.042  35.609   0.947
77022W        W43805  27.202   8.837  10.531
77023W        W43806  31.447  14.313   2.376
77024W        W43807   9.629  19.456  11.067
77025W        W43808  44.800  16.292  14.822
77026W        W43809  43.209  31.057  13.428
77027W        W43810  32.877  20.480  14.256
77028W        W43811  27.574  27.779   2.849
77029W        W43812  16.814   2.906  11.705
77030W        W43813  43.561  41.603  10.997
77031W        W43814  28.209  38.593   3.219
77032W        W43815  27.154  41.517   0.533
77033W        W43816   0.703  23.946   4.979
77034W        W43817  25.976   3.526  12.014
77035W        W43818  15.224  19.968  12.458
77036W        W43819  41.956   2.405   0.438
77037W        W43820  39.533  32.927  11.606
77038W        W43821   1.378  38.956  10.640
77039W        W43822  13.611  10.335  14.480
77040W        W43823  40.856  27.954   1.286
77041W        W43824  11.890   6.787   0.283
77042W        W43825   2.200  18.115   3.827
77043W        W43826  43.227   7.196  12.276
77044W        W43827   7.307  21.119  12.401
77045W        W43828   5.299  17.350   4.191
77046W        W43829  39.306  21.070   3.576
77047W        W43830  23.335  14.261   0.669
77048W        W43831  36.438  20.531   1.143
77049W        W43832  25.672  22.216   4.596
77050W        W43833   7.493  42.859   2.266
77051W        W43834  20.852  42.824   3.287
77052W        W43835  11.264   7.633  14.347
77053W        W43836  29.504  25.154   4.059
77054W        W43837   4.382  34.915   1.412
77055W        W43838   4.675  18.000   3.226
77056W        W43839   2.256  28.012   2.837
77057W        W43840  37.481  21.635  12.110
77058W        W43841  34.888  36.952   3.264
77059W        W43842  31.826  34.661  13.930
77060W        W43843  31.199  13.183  12.200
77061W        W43844   7.734  16.309  13.873
77062W        W43845  24.874  29.555  14.388
77063W        W43846  17.354  41.278  12.626
77064W        W43847  15.749  40.954  14.059
77065W        W43848  37.618  11.874  12.882
77066W        W43849  26.888  25.114   2.922
77067W        W43850  20.704  22.028   3.820
77068W        W43851  25.944  39.486  11.479
77069W        W43852  22.710   4.414  13.559
77070W        W43853  31.939  30.829  12.538
77071W        W43854  32.106   4.615   0.592
77072W        W43855   2.244   5.632  12.619
77073W        W43856  15.484  23.676   0.385
77074W        W43857  40.998  19.584   1.265
77075W        W43858   3.938  33.981   3.473
77076W        W43859   1.942  33.174   0.743
77077W        W43860  39.053  34.939   5.018
77078W        W43861   1.771  28.060  11.565
77079W        W43862  31.211  44.247  13.759
77080W        W43863  17.045   7.012   0.452
77081W        W43864   9.670  24.818   0.527
77082W        W43865  31.479  38.936   3.086
77083W        W43866   2.270   7.188   0.856
77084W        W43867  26.195   8.771  10.393
77085W        W43868  42.490  33.163   3.800
77086W        W43869  24.919  36.476   4.247
77087W        W43870  16.580  36.161   2.235
77088W        W43871  18.910  12.424  11.020
77089W        W43872   4.560  16.363  11.807
77090W        W43873  13.759  13.598  14.436
77091W        W43874   3.831  32.652  12.039
77092W        W43875  30.053  40.418  12.257
77093W        W43876  27.054  43.755   4.643
77094W        W43877  11.650   6.231  12.502
77095W        W43878  38.041   1.239   0.448
77096W        W43879   7.859  32.129  11.167
77097W        W43880  10.754  36.657   4.864
77098W        W43881  43.300   4.332  11.046
77099W        W43882  10.231   1.010   3.646
77100W        W43883  17.326   9.799   4.811
77101W        W43884  39.805  15.169   1.748
77102W        W43885  34.622  10.998   3.814
77103W        W43886  31.941  13.774   4.395
77104W        W43887  10.663  15.711  11.218
77105W        W43888  44.447  32.195   4.155
77106W        W43889  27.705  34.429   4.132
77107W        W43890   2.341  30.548   0.523
77108W        W43891  20.828  32.553   3.690
77109W        W43892  44.198   0.963  14.465
77110W        W43893   1.977  31.870   1.690
77111W        W43894  23.824  11.562  11.707
77112W        W43895  26.647  14.070   0.755
77113W        W43896   1.336  14.317   4.042
77114W        W43897   0.125  21.652  13.433
77115W        W43898  31.022  43.725  14.844
77116W        W43899  35.062   8.486   4.847
77117W        W43900  23.056  27.930   2.924
77118W        W43901  28.059  33.390  13.178
77119W        W43902  37.251  30.417  12.420
77120W        W43903  34.849   8.976   5.418
77121W        W43904  17.769  23.132   0.767
77122W        W43905  35.198   6.573  11.277
77123W        W43906  31.049  20.711   1.233
77124W        W43907   6.763   4.678  14.772
77125W        W43908   4.738   0.507  14.294
77126W        W43909  14.533  27.206  11.899
77127W        W43910  25.266   8.740  10.973
77128W        W43911   0.784  37.134  12.640
77129W        W43912  32.444   6.731  13.404
77130W        W43913  19.619   5.912   2.741
77131W        W43914  17.119   0.727  11.449
77132W        W43915  30.999   1.649   3.592
77133W        W43916  11.659  29.203  11.199
77134W        W43917  34.832   6.165   3.889
77135W        W43918  16.680  29.925  14.177
77136W        W43919  11.882  34.265   4.528
77137W        W43920  31.111   9.288   1.726
77138W        W43921  11.279  32.902   4.141
77139W        W43922  41.420  32.067  12.134
77140W        W43923  24.093  21.689  11.854
77141W        W43924  17.171  11.758   4.344
77142W        W43925  19.363  13.682   0.230
77143W        W43926   0.715  23.755  13.903
77144W        W43927  10.095  22.149   4.489
77145W        W43928   7.768  37.759   2.886
77146W        W43929  38.015   3.746  12.943
77147W        W43930  19.771  27.923   4.012
77148W        W43931  26.488   6.814  11.604
77149W        W43932  24.770  44.501  14.861
77150W        W43933  44.291  34.910   1.813
77151W        W43934  40.674   5.360   1.856
77152W        W43935   2.881  35.553   2.003
77153W        W43936  10.075  18.797   4.686
77154W        W43937  44.462  31.386  11.614
77155W        W43938  25.559  16.905  10.531
77156W        W43939  21.476   8.113  13.486
77157W        W43940  41.707  24.540   0.524
77158W        W43941  27.542   8.757  12.283
77159W        W43942  16.217   2.985  14.552
77160W        W43943  10.671   9.693  13.522
77161W        W43944   4.427  18.803   0.001
77162W        W43945  27.980  28.919  12.595
77163W        W43946  17.247  29.663  13.563
77164W        W43947  13.070  22.139  13.058
77165W        W43948  19.775   6.990  12.177
77166W        W43949  40.309  12.006   1.423
77167W        W43950   3.826  18.253  12.843
77168W        W43951  18.183  29.777  13.671
77169W        W43952   6.718   0.354   4.172
77170W        W43953   3.524  27.884   1.423
77171W        W43954  34.865   1.960  10.744
77172W        W43955  44.565  25.640  13.393
77173W        W43956  31.841  34.980   1.799
77174W        W43957  31.488  40.753  14.991
77175W        W43958  21.944  11.181   4.173
77176W        W43959  20.585  20.193   1.954
77177W        W43960  14.605  39.603   3.834
77178W        W43961  42.962  36.825   2.380
77179W        W43962  30.576   5.677  13.164
77180W        W43963  23.742   1.899  13.000
77181W        W43964  20.036   8.371  14.200
77182W        W43965  34.358  26.519   4.956
77183W        W43966   8.457  16.096   1.858
77184W        W43967  11.305  21.621   2.526
77185W        W43968  37.378  41.504   1.926
77186W        W43969  37.342   2.823  14.719
77187W        W43970  23.301  19.571  14.254
77188W        W43971  28.220  25.048   3.801
77189W        W43972  34.283  11.260  13.816
77190W        W43973  19.660  37.283   3.410
77191W        W43974  13.526  39.767  11.461
77192W        W43975  33.748   4.182   2.901
77193W        W43976  10.213  16.214   3.949
77194W        W43977  30.604  42.524   4.108
77195W        W43978   6.617  34.506  13.589
77196W        W43979  32.826  21.087  12.632
77197W        W43980  24.122  22.295  11.519
77198W        W43981  31.867  28.596   4.075
77199W        W43982  13.927  25.514  10.702
77200W        W43983  32.964  34.150   4.642
77201W        W43984   4.740  30.388   3.342
77202W        W43985   2.304  18.911   1.420
77203W        W43986   8.004  32.359   5.016
77204W        W43987  31.152   5.964  14.344
77205W        W43988   0.241   5.606  10.934
77206W        W43989  30.150  23.056  10.576
77207W        W43990  18.023  17.914   2.213
77208W        W43991  26.907  32.909   1.264
77209W        W43992  41.353  30.523  13.644
77210W        W43993  16.364  29.126  11.428
77211W        W43994  19.450  26.496   2.792
77212W        W43995  27.254  31.717  11.571
77213W        W43996   5.842   5.088   4.728
77214W        W43997   8.953  20.552   3.361
77215W        W43998  24.607  21.846   3.785
77216W        W43999   0.461  27.174  10.775
77217W        W44000  34.485  19.795  12.087
77218W        W44001  44.283   3.913  12.965
77219W        W44002  14.922  44.293  13.128
77220W        W44003  30.182  40.798   0.367
77221W        W44004  19.842   9.688  12.550
77222W        W44005  28.110  40.429  12.194
77223W        W44006  27.539  15.390   0.771
77224W        W44007  33.971  35.660  12.408
77225W        W44008  16.150  28.925   2.998
77226W        W44009   1.847  27.694  13.870
77227W        W44010  15.082  34.902   1.930
77228W        W44011  28.169  27.412   1.455
77229W        W44012  40.888  17.172   2.819
77230W        W44013  31.904  33.881  11.699
77231W        W44014  28.575  39.300  14.799
77232W        W44015   1.017   3.366  14.377
77233W        W44016  39.680  14.759   0.824
77234W        W44017  41.955  28.514   0.377
77235W        W44018   4.078   2.270  11.178
77236W        W44019  30.158  28.084   2.536
77237W        W44020   8.369  38.368  14.065
77238W        W44021  11.620  14.567   1.813
77239W        W44022  38.063  38.132   1.915
77240W        W44023  33.523  44.909   1.747
77241W        W44024  29.035  34.999  12.456
77242W        W44025  28.617  11.266   2.382
77243W        W44026  21.342   9.620   2.702
77244W        W44027  20.125  13.648   4.347
77245W        W44028   0.054  23.708   0.568
77246W        W44029  12.073  26.727  10.603
77247W        W44030  32.725  20.746   0.721
77248W        W44031  20.793  37.000  14.322
77249W        W44032  40.243  36.464   2.823
77250W        W44033  41.618  13.105  14.389
77251W        W44034  23.025  17.254  12.676
77252W        W44035   7.388  22.471   2.250
77253W        W44036  29.995  28.665  10.562
77254W        W44037  36.003  23.648  10.622
77255W        W44038   8.174  23.756   0.993
77256W        W44039  34.076  44.228  13.127
77257W        W44040  11.113  22.101   4.567
77258W        W44041  21.745   9.748  14.912
77259W        W44042  43.855  28.585   3.910
77260W        W44043  22.064  33.619  13.992
77261W        W44044   3.901  38.367   0.134
77262W        W44045  23.084  29.445  10.440
77263W        W44046  17.018  18.614   3.607
77264W        W44047  26.570  19.197   1.659
77265W        W44048  30.589  13.497  12.122
77266W        W44049  35.045  15.139  14.363
77267W        W44050  32.111  19.722   2.841
77268W        W44051  32.892  12.802  14.761
77269W        W44052  31.316  33.033   2.868
77270W        W44053  37.734   7.014   0.318
77271W        W44054  35.313  10.184  10.214
77272W        W44055   4.728  42.457   4.680
77273W        W44056  17.842  22.264   3.750
77274W        W44057  18.377  43.697   3.308
77275W        W44058  40.743  27.192   0.683
77276W        W44059  27.245  18.805  13.686
77277W        W44060  11.844  17.542  13.479
77278W        W44061  18.836  11.573  11.256
77279W        W44062  35.459   7.346   0.252
77280W        W44063  25.777  15.958   1.846
77281W        W44064  15.544  43.852  10.612
77282W        W44065  35.329  14.671  11.180
77283W        W44066   5.148  20.237   4.111
77284W        W44067  33.300   6.321  10.076
77285W        W44068  41.745  22.035   1.823
77286W        W44069   4.773  40.129   3.385
77287W        W44070  20.474  13.244   4.494
77288W        W44071  43.478  12.337   4.231
77289W        W44072   7.677   1.381  14.771
77290W        W44073  23.968  40.918  11.078
77291W        W44074  11.280   9.622   1.312
77292W        W44075  29.134  30.379   0.942
77293W        W44076  18.460  29.952   1.786
77294W        W44077  32.927  13.594  11.108
77295W        W44078  11.100  37.508   1.364
77296W        W44079  22.224   7.034   5.364
77297W        W44080  27.635  43.910   3.065
77298W        W44081   1.398  32.813  12.450
77299W        W44082  20.582  28.012  14.836
77300W        W44083  26.767  38.148   0.947
77301W        W44084  44.794  13.630   3.524
77302W        W44085   1.497  33.423  10.004
77303W        W44086  33.530   5.453  10.652
77304W        W44087   4.000  33.089   4.325
77305W        W44088  11.120  16.247  14.080
77306W        W44089  33.438  27.170  13.861
77307W        W44090  23.093   8.445   2.203
77308W        W44091  42.346  37.331   4.347
77309W        W44092  26.519  23.831  10.700
77310W        W44093  30.101  36.250  13.382
77311W        W44094   9.262  43.313  12.083
77312W        W44095  44.390  11.165  13.977
77313W        W44096  40.203   1.214   1.013
77314W        W44097  26.974  21.669   3.219
77315W        W44098  29.898  30.474  12.204
77316W        W44099  10.590  27.533   3.010
77317W        W44100  21.553  14.629  13.142
77318W        W44101   0.998  42.913   2.745
77319W        W44102  37.123   1.450   2.255
77320W        W44103  42.663  27.366   3.355
77321W        W44104  24.084   1.543  14.439
77322W        W44105  24.761  33.601  11.291
77323W        W44106  22.291  42.810  10.490
77324W        W44107  37.414  39.356   2.865
77325W        W44108  35.834  25.037   2.696
77326W        W44109  26.950  30.064  10.649
77327W        W44110  34.679   7.483  11.203
77328W        W44111  21.463  43.832  14.969
77329W        W44112  44.861  20.647  13.861
77330W        W44113  26.011   4.820   1.271
77331W        W44114  37.329   5.865  14.390
77332W        W44115  36.086  27.082  13.276
77333W        W44116   4.228  11.168  12.345
77334W        W44117  17.256  24.080  13.983
77335W        W44118  15.639  19.365   4.189
77336W        W44119  42.840   9.879   0.013
77337W        W44120  18.792  37.775   2.283
77338W        W44121  35.618  32.416   3.204
77339W        W44122  21.392  10.179   5.040
77340W        W44123  19.117  25.670   4.961
77341W        W44124  18.579  33.591   4.435
77342W        W44125  10.314  18.761  10.750
77343W        W44126  31.688  23.048   1.361
77344W        W44127   8.304  30.803   1.850
77345W        W44128  22.311  30.266  11.887
77346W        W44129  27.618  24.253  10.759
77347W        W44130  16.996  43.258  13.523
77348W        W44131  40.936  20.202   0.427
77349W        W44132  25.730  31.513  13.659
77350W        W44133  19.561  26.040   1.071
77351W        W44134  16.558   0.737  13.201
77352W        W44135  31.136  42.837   0.434
77353W        W44136   3.361  37.654   5.255
77354W        W44137  32.572  30.793   1.998
77355W        W44138  39.929  30.609   2.105
77356W        W44139  21.781   9.295   0.490
77357W        W44140  41.303  26.667   0.352
77358W        W44141  22.033  17.113  12.532
77359W        W44142  28.863   6.931   3.223
77360W        W44143  17.967  13.584   0.074
77361W        W44144  37.932  29.573   4.944
77362W        W44145  21.810  10.913  12.917
77363W        W44146  15.354  40.169   4.214
77364W        W44147  40.323  34.837   1.161
77365W        W44148  28.417   8.824   1.208
77366W        W44149  30.088   0.770   1.285
77367W        W44150  23.453  35.889  10.683
77368W        W44151  41.982  36.259   1.703
77369W        W44152   4.420   3.735   5.085
77370W        W44153  14.837   6.354  14.453
77371W        W44154  42.909   8.030   3.311
77372W        W44155  12.689  35.832   4.373
77373W        W44156   0.949  36.261  13.553
77374W        W44157  25.459  26.454  11.550
77375W        W44158  22.196   4.461   4.564
77376W        W44159  21.483   5.388   0.422
77377W        W44160   2.433  40.851   3.145
77378W        W44161  22.057   0.279  12.274
77379W        W44162   6.842   7.650  12.892
77380W        W44163  23.288  37.408  14.638
77381W        W44164  11.437  13.566  11.154
77382W        W44165  25.134  35.478   4.106
77383W        W44166  37.842  31.914   3.589
77384W        W44167  17.356  34.496  13.366
77385W        W44168  10.546  22.033  11.037
77386W        W44169   6.734   3.381  11.505
77387W        W44170  40.885  20.490   4.166
77388W        W44171  39.504   5.888   4.598
77389W        W44172  20.752  26.935  10.496
77390W        W44173   6.916  15.846   1.280
77391W        W44174  28.952   9.381   3.627
77392W        W44175   2.058   9.899  13.580
77393W        W44176  31.964  24.794   2.746
77394W        W44177  39.802  37.986   3.593
77395W        W44178  17.640   7.781  14.903
77396W        W44179  41.929   5.410   4.006
77397W        W44180  18.167  16.091  13.898
77398W        W44181  36.868  33.522   2.292
77399W        W44182  27.678  40.355   1.329
77400W        W44183  41.003  36.634  12.927
77401W        W44184  14.827   7.813   4.723
77402W        W44185  15.349   3.841  14.752
77403W        W44186  23.413  24.575  14.874
77404W        W44187   7.606  24.661  12.392
77405W        W44188  29.943  24.779   1.344
77406W        W44189  37.580  36.986  14.292
77407W        W44190  32.963  36.616  14.784
77408W        W44191   3.311  36.446   3.368
77409W        W44192  39.408  19.174   0.668
77410W        W44193  32.918  38.504  13.796
77411W        W44194  21.198  27.525   1.799
77412W        W44195  24.773   8.554  13.021
77413W        W44196  12.043  38.836   4.507
77414W        W44197  21.226  10.269  14.192
77415W        W44198  35.407  15.654  14.483
77416W        W44199  36.017   4.900  12.947
77417W        W44200   1.938  32.540   2.287
77418W        W44201  27.956  18.087   2.277
77419W        W44202  13.558  27.676  12.016
77420W        W44203   0.480   3.298  14.927
77421W        W44204  25.234  10.649   3.297
77422W        W44205  42.514  31.613  14.483
77423W        W44206  10.599  27.026   2.310
77424W        W44207  36.613  35.156  14.759
77425W        W44208   4.618   0.995   2.685
77426W        W44209  15.238  10.893   0.464
77427W        W44210   7.391  30.425   4.654
77428W        W44211   4.686  24.662  11.585
77429W        W44212  29.398  27.491  10.711
77430W        W44213  13.572   2.264  11.509
77431W        W44214  13.575  22.060  11.935
77432W        W44215   5.875   1.279  11.415
77433W        W44216   0.384  12.962  11.480
77434W        W44217  31.953  29.089   1.814
77435W        W44218  43.924  30.582  13.031
77436W        W44219  14.143   3.875  14.319
77437W        W44220   9.445  20.827  12.070
77438W        W44221   1.940  32.371   1.795
77439W        W44222  17.247  37.845   1.503
77440W        W44223  37.836  39.203  13.989
77441W        W44224  29.691  40.407  14.523
77442W        W44225  33.558  22.686  11.580
77443W        W44226  27.698  12.127   1.875
77444W        W44227   6.916  10.272  11.518
77445W        W44228   5.861  44.753  11.152
77446W        W44229  30.584  15.252  12.443
77447W        W44230   2.247   5.699   1.961
77448W        W44231  42.302  42.990   0.121
77449W        W44232  23.434  11.577   3.238
77450W        W44233  35.145  18.259  11.175
77451W        W44234  10.114  21.181   5.076
77452W        W44235   2.188   2.419   4.232
77453W        W44236  40.042  39.211   4.048
77454W        W44237  37.978  40.018  12.786
77455W        W44238  40.877   0.076   3.714
77456W        W44239   7.176  20.248   1.419
77457W        W44240  12.067  13.562   4.928
77458W        W44241  25.712  15.770   0.249
77459W        W44242  24.507  35.916  13.860
77460W        W44243  21.233  23.362  14.017
77461W        W44244   0.403  21.461   4.118
77462W        W44245  12.372  43.333   1.474
77463W        W44246  19.659  38.873   0.435
77464W        W44247  39.536  44.244   0.408
77465W        W44248  41.781  39.289   4.162
77466W        W44249  12.302   2.266  14.193
77467W        W44250   7.372   6.883  12.122
77468W        W44251  33.365  31.238   1.725
77469W        W44252  14.151  26.379   3.753
77470W        W44253   0.451  42.536  13.452
77471W        W44254  28.526  28.154   5.035
77472W        W44255  18.084   8.092   3.229
77473W        W44256   4.304  16.830  12.047
77474W        W44257  37.989  28.374  14.298
77475W        W44258   6.498  33.522  10.428
77476W        W44259   5.846   1.800   1.314
77477W        W44260  43.560  10.225  11.542
77478W        W44261   4.763  18.657  14.238
77479W        W44262  44.316  34.238  11.259
77480W        W44263   0.806  37.862   2.749
77481W        W44264  44.414  16.743  14.485
77482W        W44265   5.341  23.931  11.617
77483W        W44266  23.207  18.990   0.961
77484W        W44267  18.296  28.210   0.290
77485W        W44268  13.869   2.392  13.173
77486W        W44269   5.740  35.830   4.733
77487W        W44270   6.509  34.506  13.018
77488W        W44271  34.544  13.907   4.528
77489W        W44272  31.504  44.746  12.466
77490W        W44273   1.499  12.362  14.703
77491W        W44274  28.088  16.376  12.275
77492W        W44275  17.072  27.876   2.912
77493W        W44276  20.970  40.821   3.656
77494W        W44277  17.310   0.428   1.294
77495W        W44278  17.698  37.147   2.299
77496W        W44279   2.447  35.973   4.527
77497W        W44280  19.571  19.585  10.886
77498W        W44281  21.974  19.559  14.420
77499W        W44282  31.592  30.753   1.880
77500W        W44283  38.626  29.807  11.058
77501W        W44284   2.534  11.997  10.110
77502W        W44285   3.235   9.333  13.799
77503W        W44286  16.092  15.374   3.341
77504W        W44287  22.660   8.267   4.615
77505W        W44288   9.065  14.982   0.865
77506W        W44289   0.730  16.575   1.137
77507W        W44290   6.408  27.087  12.910
77508W        W44291   2.233  17.075   1.438
77509W        W44292  27.647  37.152   2.175
77510W        W44293  23.852  29.790  14.402
77511W        W44294  32.525   2.149  14.883
77512W        W44295  33.414  15.639  11.026
77513W        W44296  19.126  23.587  13.959
77514W        W44297   5.487  16.324  12.528
77515W        W44298  31.585  34.589  13.432
77516W        W44299  19.269  37.609   2.144
77517W        W44300  22.787  32.363  10.396
77518W        W44301  36.086  44.668  12.324
77519W        W44302  15.564  20.855  11.612
77520W        W44303  42.453  16.252  11.033
77521W        W44304  20.947  16.996  14.347
77522W        W44305  40.905  26.897  10.682
77523W        W44306  38.854  18.001   2.798
77524W        W44307  13.251  24.028   0.613
77525W        W44308  16.655   8.728  10.642
77526W        W44309  20.930  28.606  14.753
77527W        W44310   2.648  36.509  10.676
77528W        W44311  28.821  39.952  12.145
77529W        W44312  41.733  11.491  11.608
77530W        W44313  19.463  27.498  11.176
77531W        W44314   6.727   1.469   2.314
77532W        W44315   4.877   5.834   0.460
77533W        W44316   5.885   5.424   3.347
77534W        W44317  39.924  38.792  13.980
77535W        W44318  24.699  14.797   2.283
77536W        W44319  32.050  16.819  13.802
77537W        W44320  19.928  23.255   4.046
77538W        W44321  13.560  34.380  13.241
77539W        W44322  36.489   9.814   3.260
77540W        W44323  31.023  40.374   3.188
77541W        W44324  41.543  40.138  12.181
77542W        W44325  31.053  41.091   1.251
77543W        W44326  36.388  16.288   4.367
77544W        W44327  34.454  12.172   4.342
77545W        W44328  16.536  17.571   2.776
77546W        W44329  43.830  41.012   3.800
77547W        W44330  16.655   3.712  11.063
77548W        W44331   2.744  35.829   1.292
77549W        W44332  12.964  18.515   4.812
77550W        W44333  13.746  10.313   1.580
77551W        W44334  33.178  37.100  14.007
77552W        W44335  31.237  29.787  13.962
77553W        W44336  21.357  33.533   3.064
77554W        W44337  30.845  36.800  11.463
77555W        W44338  10.363  24.727  14.773
77556W        W44339  11.607  16.603  11.214
77557W        W44340  18.358  30.427   1.386
77558W        W44341  28.446   5.301  12.902
77559W        W44342  12.562  29.013  14.411
77560W        W44343  37.916  20.779  14.107
77561W        W44344  26.705   2.528  13.050
77562W        W44345  41.968  21.733  14.210
77563W        W44346  40.925  23.794  13.855
77564W        W44347  10.507  36.502  11.033
77565W        W44348  42.007  13.184  10.824
77566W        W44349  16.720   6.432   1.701
77567W        W44350   6.491   1.820   0.878
77568W        W44351   2.756  14.603   2.234
77569W        W44352  33.885  30.082  12.547
77570W        W44353  28.509  19.630   1.490
77571W        W44354  27.968  43.318   4.631
77572W        W44355  17.786  30.892   1.788
77573W        W44356   1.270  25.032  10.433
77574W        W44357  38.953  26.639   0.844
77575W        W44358  33.746   0.549  11.262
77576W        W44359  14.715  42.285   0.897
77577W        W44360  26.100   6.683   4.769
77578W        W44361  31.197   2.272  12.885
77579W        W44362  15.516  10.534   0.858
77580W        W44363   6.339   0.512  13.411
77581W        W44364  41.782  12.595  10.321
77582W        W44365  26.191  18.163   3.882
77583W        W44366  25.047  23.674  10.700
77584W        W44367  19.955  17.958   2.317
77585W        W44368  17.684  10.845   0.200
77586W        W44369  30.648  44.488   1.393
77587W        W44370  19.072   9.408   1.648
77588W        W44371  23.811  37.216  13.057
77589W        W44372  20.096  39.913   2.339
77590W        W44373  39.459  26.240   4.132
77591W        W44374  11.303   6.603  13.391
77592W        W44375  41.464   4.371  11.675
77593W        W44376   4.286   5.895   3.165
77594W        W44377  41.770  20.935   3.731
77595W        W44378   2.937  19.168   0.053
77596W        W44379  29.984  22.161   1.316
77597W        W44380  37.056  11.333   3.439
77598W        W44381   6.765  24.483   0.891
77599W        W44382  20.667  10.932   1.190
77600W        W44383  27.244  10.054  10.984
77601W        W44384  41.020  44.773   0.819
77602W        W44385  35.919  11.709   0.351
77603W        W44386  11.008  40.637   2.269
77604W        W44387  17.498  44.856   2.684
77605W        W44388  17.229  12.642  13.059
77606W        W44389  10.902  13.032   3.256
77607W        W44390  20.515  17.744  10.118
77608W        W44391  24.690  40.937  12.999
77609W        W44392  44.897  15.414  13.164
77610W        W44393  22.689  10.596   4.998
77611W        W44394  40.236  17.004   3.184
77612W        W44395  26.398   1.382  12.159
77613W        W44396  22.890   7.058  14.663
77614W        W44397  44.955  19.825  11.749
77615W        W44398  15.171  23.987   3.681
77616W        W44399   8.137  29.942  13.244
77617W        W44400  36.119  22.260  14.414
77618W        W44401  31.021  28.303   4.106
77619W        W44402   3.929   1.966   0.227
77620W        W44403  41.214  22.097   1.861
77621W        W44404   9.058   9.605  11.461
77622W        W44405   7.139  24.063  10.452
77623W        W44406  28.022  26.962  12.058
77624W        W44407  31.059  14.800  11.439
77625W        W44408   7.662  40.738  13.919
77626W        W44409  11.512  39.089  10.840
77627W        W44410  30.439  17.551  12.391
77628W        W44411  41.783  14.632   3.720
77629W        W44412   5.804   9.869  13.505
77630W        W44413   5.239  27.506   3.231
77631W        W44414  42.449  16.902  12.214
77632W        W44415  15.458   8.464  10.257
77633W        W44416  27.244  29.498  13.623
77634W        W44417   4.445   2.798  12.326
77635W        W44418  25.245  29.128   2.821
77636W        W44419  34.605  42.285  12.092
77637W        W44420  34.886   2.195   4.164
77638W        W44421  24.826   0.815  11.629
77639W        W44422   3.793  25.242   1.384
77640W        W44423   6.970  35.913   4.745
77641W        W44424  32.735  34.907  12.404
77642W        W44425  22.089   6.127  10.950
77643W        W44426  44.012   4.329   3.408
77644W        W44427   5.284  10.328   0.957
77645W        W44428  33.655   8.437  10.268
77646W        W44429  22.664   2.729  12.927
77647W        W44430  34.020  41.841  14.023
77648W        W44431  34.934  10.735  11.559
77649W        W44432   2.459  14.381  11.960
77650W        W44433  23.096   8.177   3.545
77651W        W44434  43.818  24.941  11.635
77652W        W44435  36.347  23.651  14.084
77653W        W44436  10.509  34.980   2.429
77654W        W44437   9.805  19.787  11.401
77655W        W44438  20.442  42.778   4.853
77656W        W44439  31.229   6.703  11.050
77657W        W44440  17.640  18.079  13.992
77658W        W44441  20.276  24.713   0.824
77659W        W44442  13.211  19.490   4.131
77660W        W44443   2.668  17.013  14.279
77661W        W44444   3.947  15.799   1.654
77662W        W44445  28.580  18.993  12.381
77663W        W44446  18.796  28.438  10.680
77664W        W44447   4.963  28.870   2.803
77665W        W44448  25.199  15.601   3.393
77666W        W44449  30.645   6.020  12.300
77667W        W44450   0.994  30.966   4.619
77668W        W44451  13.600  35.476   1.023
77669W        W44452  40.710  29.451   4.530
77670W        W44453  43.960   1.217  14.863
77671W        W44454   8.940  26.046   4.513
77672W        W44455  40.181  14.512   4.063
77673W        W44456  11.408   2.513  12.535
77674W        W44457  20.441   5.039   0.412
77675W        W44458   5.874  21.126  14.039
77676W        W44459   2.705  44.061   2.713
77677W        W44460  39.617  42.481   4.128
77678W        W44461  32.573  36.974  14.712
77679W        W44462  40.354  39.230  12.406
77680W        W44463  41.809  43.968  11.537
77681W        W44464  40.308  28.971  14.239
77682W        W44465  39.951  20.351   3.094
77683W        W44466  37.104  33.055  11.507
77684W        W44467   7.885  19.573   2.213
77685W        W44468  10.734  42.693   0.945
77686W        W44469  11.998  31.989  14.510
77687W        W44470  33.577  14.718  11.396
77688W        W44471  14.238  33.340  14.464
77689W        W44472  30.061  12.738  10.602
77690W        W44473   6.689  38.590   3.741
77691W        W44474  23.230  15.765  14.133
77692W        W44475  42.148   6.496  13.741
77693W        W44476  44.963  24.002   2.794
77694W        W44477   7.255  16.541  13.017
77695W        W44478  29.171  24.745  11.919
77696W        W44479  37.231  26.531  11.604
77697W        W44480  26.566  32.185  12.061
77698W        W44481  25.930   6.348   1.119
77699W        W44482  36.106  28.474  14.785
77700W        W44483  17.851   4.922   3.626
77701W        W44484  22.262   3.394  12.377
77702W        W44485  41.794  14.266  13.514
77703W        W44486  14.188   2.500   3.743
77704W        W44487  31.159  25.364   5.030
77705W        W44488  11.384  31.954  10.795
77706W        W44489  23.653   9.889  13.287
77707W        W44490  38.372  31.137  11.129
77708W        W44491   2.296  20.101   3.206
77709W        W44492  12.552  33.359  12.822
77710W        W44493  37.497  39.493   2.368
77711W        W44494   7.103  19.275  13.384
77712W        W44495  20.672  14.644  13.906
77713W        W44496  32.165  29.843  12.654
77714W        W44497  12.294  42.061   1.242
77715W        W44498  20.607  17.305  13.446
77716W        W44499  19.884  26.325  14.879
77717W        W44500  11.075   9.833  14.512
77718W        W44501  16.509  13.230  13.432
77719W        W44502   7.790  22.745   0.243
77720W        W44503  27.196  32.042   4.993
77721W        W44504  28.190  29.906  12.166
77722W        W44505  37.056  35.569   0.833
77723W        W44506  34.967  26.915  14.081
77724W        W44507  34.519  33.396   0.373
77725W        W44508   9.328  44.925   1.790
77726W        W44509  40.504  14.908  14.762
77727W        W44510   4.777  37.920   5.134
77728W        W44511  14.869   4.688   0.778
77729W        W44512  27.921  41.744  11.262
77730W        W44513  17.044  32.844  13.084
77731W        W44514  14.861  16.617   2.839
77732W        W44515   4.564  24.016  11.135
77733W        W44516  26.109   1.150  13.915
77734W        W44517   2.488  39.427  14.466
77735W        W44518  42.234  30.489   2.849
77736W        W44519  35.599  39.457  14.317
77737W        W44520  33.231   5.813  10.063
77738W        W44521  44.664   3.681  12.673
77739W        W44522  16.469   7.445   3.716
77740W        W44523  41.313  33.016   4.204
77741W        W44524  37.458  11.286  11.678
77742W        W44525  19.540  25.833  14.140
77743W        W44526   3.284  36.037  12.457
77744W        W44527   6.409   3.204  10.322
77745W        W44528  40.449  31.316   2.047
77746W        W44529  23.303  22.271   2.273
77747W        W44530  20.660  29.108   4.832
77748W        W44531  44.917   7.323  13.919
77749W        W44532  27.310  34.880  13.988
77750W        W44533  32.019  24.563   0.934
77751W        W44534  25.186  43.592  11.486
77752W        W44535  43.304   6.255  14.298
77753W        W44536  29.117  20.760  14.559
77754W        W44537  24.998  31.496   0.000
77755W        W44538  35.776   4.952  10.723
77756W        W44539  10.277  11.827  10.483
77757W        W44540  17.763   1.719  12.056
77758W        W44541  16.489  27.410  11.216
77759W        W44542  34.322  16.811  14.897
77760W        W44543  33.050  44.530  11.998
77761W        W44544   4.379  29.531  10.732
77762W        W44545  23.267  38.832   2.298
77763W        W44546  42.980  27.570   2.309
77764W        W44547   0.122  10.790  11.995
77765W        W44548  44.489  10.165  13.971
77766W        W44549   2.903  36.496  11.134
77767W        W44550  32.796  16.584  14.906
77768W        W44551  25.692  28.382   4.613
77769W        W44552  23.604  10.281  11.695
77770W        W44553  20.955  19.708   4.668
77771W        W44554  14.708  39.071  14.576
77772W        W44555  31.228   2.357   2.348
77773W        W44556   0.487  37.625  14.431
77774W        W44557  17.831  42.236  11.133
77775W        W44558   2.949   3.893   0.220
77776W        W44559  27.203  13.219   3.138
77777W        W44560  42.321  12.524  12.873
77778W        W44561  40.879   6.328   3.677
77779W        W44562  12.350  34.597   1.283
77780W        W44563  34.049  16.896   4.076
77781W        W44564   2.678  43.909   3.859
77782W        W44565  41.307  12.389   1.827
77783W        W44566  40.093   2.878   3.388
77784W        W44567   4.230  12.588  14.267
77785W        W44568  33.632  33.658   1.461
77786W        W44569   2.224   1.468   4.115
77787W        W44570  41.013  21.338  10.724
77788W        W44571  13.982  17.191  12.122
77789W        W44572  16.690   4.138  10.776
77790W        W44573   1.875  31.441   3.845
77791W        W44574   4.561   1.393  11.124
77792W        W44575  20.783  41.903  13.996
77793W        W44576  39.452   2.402   3.261
77794W        W44577  22.739  14.191   4.275
77795W        W44578  29.560  10.217  10.193
77796W        W44579  33.294  33.161   2.103
77797W        W44580  42.953   2.874   3.858
77798W        W44581  33.106  14.568  13.407
77799W        W44582  32.801  30.935   0.759
77800W        W44583  12.168  34.588   4.823
77801W        W44584  27.625  38.627   0.773
77802W        W44585  38.761  17.845  14.392
77803W        W44586  16.919   1.251   2.846
77804W        W44587  36.106  20.571  11.227
77805W        W44588  35.157  27.963  12.610
77806W        W44589  13.354  15.763  12.501
77807W        W44590  34.894  25.229  13.032
77808W        W44591   6.340  28.968   1.809
77809W        W44592  43.339  21.778  13.990
77810W        W44593  11.299  13.839   2.277
77811W        W44594  37.579  11.691   4.221
77812W        W44595  20.447  16.655   4.328
77813W        W44596  28.947  41.100  14.671
77814W        W44597  27.155  32.856   0.316
77815W        W44598  14.498   5.362   0.492
77816W        W44599   8.230  14.301  12.863
77817W        W44600  25.758  42.094   4.219
77818W        W44601  36.243  26.944   3.176
77819W        W44602  11.954  32.228  13.069
77820W        W44603  28.244  21.228  11.558
77821W        W44604  25.623  28.738   1.167
77822W        W44605  24.146  20.754  12.053
77823W        W44606   4.726  41.925   2.837
77824W        W44607  34.917  13.112  14.685
77825W        W44608   9.701   4.086  11.802
77826W        W44609  39.748  18.686   1.925
77827W        W44610  20.322  36.523  13.722
77828W        W44611   3.753  13.552  14.390
77829W        W44612  29.429  15.057  11.531
77830W        W44613  26.125  13.771  13.231
77831W        W44614  27.856  26.530  11.815
77832W        W44615  19.984  29.907  10.567
77833W        W44616  42.656   6.866  13.034
77834W        W44617  32.544  14.581   4.700
77835W        W44618  42.824  42.820  12.074
77836W        W44619  31.648  42.965  12.918
77837W        W44620   4.976  25.540   0.302
77838W        W44621   1.310  11.680   0.381
77839W        W44622  24.823  38.535   3.729
77840W        W44623  40.897  40.967   0.867
77841W        W44624  21.565   1.991  13.434
77842W        W44625  43.321  41.723  11.966
77843W        W44626  10.238  13.586   0.304
77844W        W44627  32.866  34.379  12.241
77845W        W44628   0.820  12.092   0.845
77846W        W44629  24.329  38.399   0.612
77847W        W44630   6.574  36.600   1.970
77848W        W44631  17.173   7.201  12.456
77849W        W44632  44.981  27.721   0.555
77850W        W44633  37.997  41.769  12.953
77851W        W44634  34.393  31.659  10.396
77852W        W44635  33.507  39.497  12.951
77853W        W44636  30.759  42.966  14.439
77854W        W44637   0.076  38.742   2.212
77855W        W44638  16.728  22.035  13.609
77856W        W44639  22.690  31.828   3.605
77857W        W44640  20.792   8.118   1.110
77858W        W44641   3.379  13.367   5.027
77859W        W44642  32.636  16.011   0.493
77860W        W44643  23.535  17.214  11.034
77861W        W44644  12.269  27.101   4.546
77862W        W44645  35.101   3.283   3.346
77863W        W44646  28.505  27.459  10.571
77864W        W44647  17.681  12.839   9.806
77865W        W44648  34.838   7.304  13.521
77866W        W44649  33.367   5.671   2.368
77867W        W44650  18.075  35.199  11.866
77868W        W44651  39.512  19.257   4.214
77869W        W44652  31.656  39.341   3.391
77870W        W44653  31.711  42.953  12.112
77871W        W44654   8.903   7.859   0.284
77872W        W44655  15.635   0.767   0.442
77873W        W44656  36.327  21.851   3.245
77874W        W44657  10.011  38.322   4.499
77875W        W44658  17.194   6.907   3.890
77876W        W44659   6.832  34.095   3.694
77877W        W44660  29.906  14.825   3.671
77878W        W44661  12.907  34.014   2.837
77879W        W44662   0.837  20.026  11.600
77880W        W44663  25.657  10.301   0.692
77881W        W44664  40.908  36.273  12.044
77882W        W44665  28.122  43.928  11.910
77883W        W44666  10.345   1.911   1.408
77884W        W44667   1.357  31.565  13.418
77885W        W44668  33.467   8.797   1.608
77886W        W44669  19.576  37.573  13.007
77887W        W44670  20.275  41.308   0.002
77888W        W44671  26.162   3.656   4.998
77889W        W44672  27.099  18.925  10.792
77890W        W44673  37.635  20.541   0.887
77891W        W44674   0.285  25.436   2.609
77892W        W44675   0.844  11.645  13.944
77893W        W44676  39.685  24.254  11.019
77894W        W44677   0.530   9.178  14.108
77895W        W44678   3.193   1.039   0.845
77896W        W44679  26.238   8.866  13.486
77897W        W44680  39.861   7.317   2.283
77898W        W44681  37.717  24.322   3.424
77899W        W44682  14.272  20.022  10.837
77900W        W44683   8.755  30.188  12.997
77901W        W44684  19.525  35.532   2.475
77902W        W44685  17.781  13.841   2.881
77903W        W44686  43.988  36.045  11.163
77904W        W44687  16.570  21.271  14.528
77905W        W44688  26.669  18.259   3.658
77906W        W44689  32.417  23.176   3.178
77907W        W44690  35.654  43.941  11.950
77908W        W44691  26.669  18.178   2.105
77909W        W44692  28.723  37.930  13.058
77910W        W44693  21.022  39.977  13.465
77911W        W44694  33.744  43.214   3.271
77912W        W44695  12.165  34.870   3.510
77913W        W44696   9.427  12.705   1.321
77914W        W44697  19.285   2.356  13.049
77915W        W44698  16.752  19.099   0.826
77916W        W44699  35.580  40.484   4.415
77917W        W44700  16.054  17.174  12.894
77918W        W44701  25.748  11.318   3.641
77919W        W44702  11.861  41.693   4.612
77920W        W44703  34.626   4.744  13.582
77921W        W44704  41.471  13.425   3.322
77922W        W44705  33.989  29.572   2.560
77923W        W44706  32.304  18.171   0.733
77924W        W44707  36.473  35.184   3.419
77925W        W44708   4.766  37.065   0.476
77926W        W44709  34.306   1.318  13.802
77927W        W44710  37.001   6.880  13.850
77928W        W44711  18.704  16.927   5.614
77929W        W44712  12.281  33.380   2.791
77930W        W44713  17.096  16.704  12.413
77931W        W44714  17.722  19.307  11.811
77932W        W44715  41.419  24.958  11.313
77933W        W44716  35.554  38.950  12.516
77934W        W44717   2.677  10.123   4.251
77935W        W44718  32.804  36.283  12.003
77936W        W44719  11.659   0.836  12.883
77937W        W44720   1.989  44.775   1.717
77938W        W44721  26.257  42.530  13.428
77939W        W44722  37.590  24.682   4.054
77940W        W44723  27.508  29.026  13.421
77941W        W44724  26.232  26.687   0.941
77942W        W44725  22.457  28.881   1.876
77943W        W44726  22.646  38.367   1.851
77944W        W44727   9.130  44.449   0.801
77945W        W44728  43.457  19.708  13.053
77946W        W44729  25.497   4.215  14.452
77947W        W44730  26.118  31.951   2.846
77948W        W44731  24.098  33.600   4.589
77949W        W44732  22.360  14.319  14.140
77950W        W44733  30.143   5.237   3.278
77951W        W44734   3.854  37.861  11.579
77952W        W44735  34.510  34.020  10.925
77953W        W44736   1.547  18.811   4.294
77954W        W44737   1.998  21.456  11.146
77955W        W44738   3.996   1.848   5.020
77956W        W44739  32.099  38.340  13.135
77957W        W44740  35.155  30.015  13.361
77958W        W44741  16.301  21.256  13.523
77959W        W44742  10.724  37.881   3.252
77960W        W44743  32.480  17.487   9.885
77961W        W44744  36.340  16.388   3.342
77962W        W44745   2.016   0.416  13.853
77963W        W44746  20.240  42.030   1.658
77964W        W44747  20.244  25.433  12.225
77965W        W44748  24.588  31.663  12.365
77966W        W44749  36.406  34.526  11.648
77967W        W44750  10.954  39.353   0.904
77968W        W44751  38.935  40.354  13.498
77969W        W44752   9.140   5.269  14.247
77970W        W44753   0.638   4.683   3.152
77971W        W44754  43.458  20.267   3.653
77972W        W44755  44.471  34.545  13.164
77973W        W44756  16.633  19.777  13.923
77974W        W44757  27.696  38.719   3.818
77975W        W44758  32.547  37.565  13.819
77976W        W44759  31.194  11.342   4.839
77977W        W44760  35.918  44.377  13.607
77978W        W44761  38.476  13.347  12.026
77979W        W44762  21.573  19.361  11.150
77980W        W44763   6.833  26.023  12.565
77981W        W44764  42.333  36.435  14.101
77982W        W44765  13.492   9.202  12.561
77983W        W44766  27.190  10.141   2.907
77984W        W44767   8.803  10.557   1.011
77985W        W44768  30.906  20.045   0.034
77986W        W44769   9.297  35.822   3.956
77987W        W44770   6.651  25.144  13.159
77988W        W44771  39.101  30.964  11.629
77989W        W44772  34.903  41.584   2.927
77990W        W44773  43.992  33.316   2.262
77991W        W44774  13.732  28.899  13.048
77992W        W44775   3.559  30.636  10.936
77993W        W44776  28.904  24.157  12.977
77994W        W44777   4.426  21.592  11.109
77995W        W44778  24.205  12.213  14.852
77996W        W44779  30.400  17.285   2.332
77997W        W44780  40.048  32.969  11.572
77998W        W44781  41.283  41.531  14.995
77999W        W44782  39.647  24.696   3.119
78000W        W44783  38.220  26.138  13.806
78001W        W44784   9.102  37.622  12.048
78002W        W44785   3.425  17.630  13.555
78003W        W44786  15.194  10.567  10.580
78004W        W44787  19.344  32.975  11.972
78005W        W44788  20.144  37.879   2.369
78006W        W44789  18.544  26.676   9.948
78007W        W44790  23.866  33.616  11.996
78008W        W44791  10.045  17.029   0.375
78009W        W44792  19.109  44.392   1.742
78010W        W44793  26.752  30.653  11.366
78011W        W44794   5.308  39.384  11.026
78012W        W44795   1.529  20.215  13.852
78013W        W44796   1.687   1.895  11.047
78014W        W44797   0.459  23.965  10.654
78015W        W44798  28.057   3.509   2.697
78016W        W44799   9.062  24.529  12.720
78017W        W44800  10.891  32.177   3.264
78018W        W44801   3.738  39.560  12.590
78019W        W44802  20.585  39.999  14.864
78020W        W44803  15.834  20.182  11.107
78021W        W44804   3.821  31.028   3.620
78022W        W44805  27.371  34.475  13.137
78023W        W44806  35.682  22.184  12.532
78024W        W44807  25.937  39.329  10.678
78025W        W44808   9.296  37.115  12.873
78026W        W44809  42.928  33.361  10.731
78027W        W44810  19.266  18.560   3.301
78028W        W44811  17.561  37.501  11.559
78029W        W44812  35.934   5.700   2.258
78030W        W44813   3.692  23.079  11.461
78031W        W44814  22.537  36.207  12.044
78032W        W44815  23.196  21.646   0.221
78033W        W44816  23.565  21.043  13.574
78034W        W44817  30.969  34.913   3.699
78035W        W44818  24.593   1.261   4.659
78036W        W44819   5.740   1.074   0.878
78037W        W44820  42.271  15.666  13.654
78038W        W44821  32.507  15.687  11.101
78039W        W44822  34.313  36.938  14.370
78040W        W44823  24.160   9.649   3.641
78041W        W44824  41.634  31.805   3.737
78042W        W44825  11.419  24.608  14.089
78043W        W44826  28.898  39.503  11.484
78044W        W44827  38.107  43.456  11.071
78045W        W44828   8.383  41.453   4.432
78046W        W44829  26.662  38.021  11.549
78047W        W44830  20.472  37.880   2.783
78048W        W44831  18.715  25.114   0.215
78049W        W44832  10.854  34.395   0.493
78050W        W44833  36.421   2.867  14.698
78051W        W44834   0.464  20.062   2.794
78052W        W44835   2.667  38.535  13.293
78053W        W44836  24.496   5.811  11.285
78054W        W44837   2.919   0.730  14.009
78055W        W44838  19.076  44.314   1.221
78056W        W44839   1.339  10.534   2.720
78057W        W44840  40.345  10.816   3.841
78058W        W44841  32.530  39.299  11.523
78059W        W44842   1.211  20.045  12.599
78060W        W44843  22.180  21.353  10.770
78061W        W44844  16.188  38.042   3.706
78062W        W44845  42.345   2.481   1.242
78063W        W44846  31.930  14.197   3.249
78064W        W44847   5.786  43.149   3.577
78065W        W44848  31.143  33.343   1.419
78066W        W44849  22.623  38.083  10.763
78067W        W44850  29.648  28.577   0.699
78068W        W44851   4.370  10.797  14.892
78069W        W44852  43.657  42.016   3.359
78070W        W44853  10.263  34.353  10.646
78071W        W44854  10.665   5.849   0.975
78072W        W44855  13.613  15.759  13.781
78073W        W44856  39.916  12.712  14.340
78074W        W44857  42.487  24.556   4.303
78075W        W44858   2.165  11.909  11.440
78076W        W44859  19.594  36.800  11.195
78077W        W44860   0.242   2.018  10.890
78078W        W44861  35.508  25.617   1.218
78079W        W44862  13.808   8.474  13.297
78080W        W44863  25.732  44.262   1.351
78081W        W44864   7.652  22.638   1.853
78082W        W44865   5.523   6.244  10.359
78083W        W44866  25.928   7.709   0.923
78084W        W44867  33.857  10.756   4.446
78085W        W44868  15.144   3.292  11.971
78086W        W44869  28.709  24.518  11.674
78087W        W44870  25.971  32.400   3.582
78088W        W44871  39.408  31.825   9.967
78089W        W44872  39.742  18.260  12.808
78090W        W44873  41.916  36.285  11.940
78091W        W44874   8.417  19.204  13.792
78092W        W44875   0.745  17.067  12.936
78093W        W44876  26.897  10.834   0.360
78094W        W44877  14.785  16.109  12.595
78095W        W44878   7.311   7.493  10.455
78096W        W44879  12.351  17.453  14.272
78097W        W44880  21.749  40.775  14.278
78098W        W44881   1.197  30.283   2.579
78099W        W44882  31.164   8.575  12.948
78100W        W44883   5.685  38.353   3.888
78101W        W44884  15.708   8.362  12.885
78102W        W44885  18.074   0.898   3.320
78103W        W44886  25.264  31.222   4.587
78104W        W44887  27.043  44.052   4.213
78105W        W44888  30.337  25.241   4.069
78106W        W44889  26.529  22.647  12.519
78107W        W44890  31.489  36.358   2.732
78108W        W44891  33.757  28.440   2.170
78109W        W44892  32.904   2.816  13.472
78110W        W44893  36.786  29.956  12.308
78111W        W44894  24.442  17.354  12.200
78112W        W44895  39.371  25.968   3.674
78113W        W44896   7.138  20.724   4.116
78114W        W44897   9.664  39.546  10.764
78115W        W44898  37.898   1.883   2.824
78116W        W44899  33.863  14.459  14.780
78117W        W44900   6.671  16.840   3.764
78118W        W44901  28.304  43.066  10.718
78119W        W44902  26.225   3.442  12.445
78120W        W44903   2.461   0.112  12.049
78121W        W44904   1.643  19.620  12.795
78122W        W44905  40.463  33.970   3.033
78123W        W44906  29.561  27.416   0.869
78124W        W44907  39.168  34.036   2.372
78125W        W44908  30.447  43.449  11.500
78126W        W44909  11.587  39.116  13.834
78127W        W44910  34.595  20.756   0.517
78128W        W44911   0.955  17.118   3.224
78129W        W44912  26.257  22.220   3.403
78130W        W44913  37.022  15.194   4.218
78131W        W44914  12.722  40.957   4.106
78132W        W44915  15.301  15.556   2.831
78133W        W44916  31.160  41.591   5.021
78134W        W44917  15.144  33.007  14.688
78135W        W44918  34.044   0.171   1.770
78136W        W44919  30.407  38.937  14.499
78137W        W44920  13.423  38.841  11.392
78138W        W44921  14.224   7.263   3.835
78139W        W44922   7.937  25.665   1.789
78140W        W44923   0.971  20.071   2.692
78141W        W44924   1.237  21.790   4.131
78142W        W44925   4.894  29.513  12.919
78143W        W44926  34.200   2.907  11.656
78144W        W44927  17.713  22.869   0.319
78145W        W44928  31.103  40.517  14.378
78146W        W44929  32.561  19.183   1.316
78147W        W44930  21.452  20.187  14.028
78148W        W44931  42.823  12.155  12.158
78149W        W44932   1.011  16.655   2.363
78150W        W44933  42.424   3.426   2.184
78151W        W44934  30.520   4.769  13.570
78152W        W44935  12.654  10.175   2.760
78153W        W44936   0.961  26.117  12.122
78154W        W44937  29.587  39.971   4.793
78155W        W44938  25.629  42.601   4.134
78156W        W44939  17.311  24.638  14.738
78157W        W44940  34.489  15.778  14.501
78158W        W44941  28.952  25.043  13.959
78159W        W44942  19.646  42.337  11.126
78160W        W44943  30.747  17.997   4.695
78161W        W44944  18.254  30.978   4.086
78162W        W44945   8.820  15.285  12.808
78163W        W44946  23.055  27.408  11.978
78164W        W44947  10.100  29.041   1.444
78165W        W44948  40.398  42.924   0.962
78166W        W44949  30.208  36.510   2.243
78167W        W44950  13.209   3.131  13.870
78168W        W44951  11.312  20.243  11.508
78169W        W44952  25.850  29.027   0.753
78170W        W44953  36.628  41.955   4.337
78171W        W44954   5.404  16.791   3.299
78172W        W44955  20.681  22.043  10.650
78173W        W44956  22.945   4.460  11.536
78174W        W44957  39.439  19.791  12.458
78175W        W44958  42.984  37.951   3.390
78176W        W44959  30.916  16.589   4.452
78177W        W44960  14.135  14.083   2.246
78178W        W44961  40.786  24.045   0.124
78179W        W44962   7.741  38.312  14.387
78180W        W44963  35.365  11.189   4.187
78181W        W44964   7.969  23.169   2.763
78182W        W44965  20.720   0.740   4.255
78183W        W44966  19.632  41.850  12.035
78184W        W44967   4.269  19.512  14.338
78185W        W44968  44.187  19.594   3.604
78186W        W44969  30.468  43.432  14.407
78187W        W44970   4.318  43.574  11.006
78188W        W44971   9.748  18.556   4.250
78189W        W44972  14.344   0.763  14.842
78190W        W44973  34.579  16.385  11.106
78191W        W44974   6.768  34.426  12.545
78192W        W44975  37.907  18.960  10.358
78193W        W44976  14.301   4.897  12.087
78194W        W44977  33.037  41.395   4.723
78195W        W44978  23.180   0.312  13.807
78196W        W44979  44.230  27.084  14.883
78197W        W44980  39.379  44.598  13.875
78198W        W44981  21.247   8.657  13.856
78199W        W44982  36.818  14.771  11.260
78200W        W44983   6.157  25.466   2.283
78201W        W44984  40.786  23.545   0.728
78202W        W44985   7.509  15.382  11.555
78203W        W44986  24.008  41.977  10.780
78204W        W44987  24.750   6.379   2.373
78205W        W44988  42.945  38.120   4.377
78206W        W44989  11.642   5.027  12.111
78207W        W44990  19.810  27.858  10.898
78208W        W44991   9.226  42.333   3.833
78209W        W44992   6.395  41.447   2.289
78210W        W44993   9.168  28.126   0.889
78211W        W44994   6.877   6.498   2.734
78212W        W44995  11.726  31.216  11.163
78213W        W44996  41.096  29.602   3.202
78214W        W44997   3.566  44.312  13.875
78215W        W44998  41.010  22.281  11.750
78216W        W44999  17.498  34.501  12.333
78217W        W45000  40.873  42.589   1.500
78218W        W45001  32.062  43.240   2.767
78219W        W45002  26.464   7.214   1.175
78220W        W45003  17.643  10.221   4.774
78221W        W45004   5.260  16.957  10.276
78222W        W45005  32.497  44.266   3.641
78223W        W45006   6.966  42.961  12.375
78224W        W45007   5.267  31.532   0.967
78225W        W45008  29.845  42.976  10.599
78226W        W45009  44.256  17.719  14.305
78227W        W45010  17.278   7.340   4.744
78228W        W45011  43.518  32.418  14.809
78229W        W45012  35.037  28.856   2.325
78230W        W45013   9.702  30.188  11.524
78231W        W45014  42.073  11.837   1.706
78232W        W45015  20.718  16.072   1.385
78233W        W45016  14.230  33.606   1.005
78234W        W45017  34.572  12.778   3.109
78235W        W45018  42.755   1.470   0.766
78236W        W45019  25.428  19.192  12.045
78237W        W45020  19.089   7.858   4.577
78238W        W45021  30.338   1.299   2.440
78239W        W45022  44.032  29.994   4.564
78240W        W45023  40.139  11.118   1.831
78241W        W45024  26.724   7.243  11.053
78242W        W45025   5.934  14.752   2.346
78243W        W45026  31.019   4.918  14.398
78244W        W45027  20.341  33.034   2.259
78245W        W45028  14.740   0.976  13.002
78246W        W45029  41.851  23.341   1.611
78247W        W45030  10.159  11.594   3.255
78248W        W45031  30.225  40.424  13.622
78249W        W45032  19.346  25.095  11.345
78250W        W45033  19.380  16.246  13.231
78251W        W45034  35.801  29.081  13.915
78252W        W45035  21.701  33.906   0.439
78253W        W45036   7.923  13.331  10.504
78254W        W45037   1.870  17.771  14.781
78255W        W45038  11.509  35.349   2.365
78256W        W45039   5.866  25.107   3.088
78257W        W45040   4.274  14.210   0.876
78258W        W45041  12.752  25.237   1.233
78259W        W45042  19.604   2.185   2.267
78260W        W45043  13.261  20.154   2.150
78261W        W45044  27.196  40.706  14.722
78262W        W45045  22.014   2.067  13.659
78263W        W45046   4.513  43.308   3.497
78264W        W45047   9.357  25.683   4.725
78265W        W45048  24.247   6.392  12.479
78266W        W45049  37.967  16.854  11.547
78267W        W45050  27.874  22.720  13.450
78268W        W45051  32.778  11.206  11.901
78269W        W45052  12.866   3.740   2.712
78270W        W45053  42.871  32.667  12.324
78271W        W45054  24.603  39.587   1.910
78272W        W45055  35.925  45.000   2.782
78273W        W45056  31.450  44.794  14.310
78274W        W45057  13.286  12.726  13.578
78275W        W45058  12.205  39.952  12.057
78276W        W45059  11.623  23.190   3.655
78277W        W45060  44.952  23.214   3.296
78278W        W45061  25.582  29.452   4.604
78279W        W45062  24.588  22.021  13.377
78280W        W45063  15.921  14.999   5.158
78281W        W45064  41.872  28.952  12.907
78282W        W45065  40.967  18.304  11.649
78283W        W45066  43.291  25.468   3.919
78284W        W45067  43.749   1.290   3.620
78285W        W45068   2.026  23.121  10.401
78286W        W45069   8.155  22.432   1.791
78287W        W45070  35.524  39.354   0.508
78288W        W45071  25.398  10.029  11.000
78289W        W45072  15.138   7.376  13.541
78290W        W45073  25.010  25.624  13.444
78291W        W45074  42.462  38.430   3.413
78292W        W45075  32.220  10.720   2.906
78293W        W45076  10.364  36.026  14.923
78294W        W45077  27.202  16.051   1.258
78295W        W45078   0.453  22.754   4.517
78296W        W45079  23.544   3.919   2.719
78297W        W45080  39.961   8.607  11.365
78298W        W45081  22.460  23.118  11.074
78299W        W45082  23.941  30.205  13.507
78300W        W45083  13.237  22.852  12.020
78301W        W45084  18.593  25.157   5.133
78302W        W45085  36.310   9.228   2.337
78303W        W45086  44.460  34.347   0.776
78304W        W45087  36.931  11.379   4.925
78305W        W45088  40.537   9.327  13.939
78306W        W45089  34.172  26.902  14.987
78307W        W45090  18.550  35.535  13.028
78308W        W45091  33.010  33.916   1.974
78309W        W45092  27.638  34.345   1.822
78310W        W45093  24.725  12.827  14.683
78311W        W45094   9.304   5.232   4.866
78312W        W45095  21.038  22.631   3.553
78313W        W45096  26.320   4.476   0.860
78314W        W45097   7.061   8.273  14.234
78315W        W45098  36.486  12.627   1.567
78316W        W45099  35.307  33.603  13.500
78317W        W45100   5.790   5.919   3.868
78318W        W45101   2.371  44.184  14.363
78319W        W45102  15.544  37.570  10.784
78320W        W45103  29.421  31.632   2.894
78321W        W45104  24.380  14.074  11.126
78322W        W45105  44.784  22.288  10.298
78323W        W45106   9.591  35.048   0.975
78324W        W45107  44.124  35.296   4.001
78325W        W45108   5.130  11.632   4.442
78326W        W45109  11.470  17.822   1.718
78327W        W45110  25.163  18.784  10.979
78328W        W45111  25.449  37.480  13.883
78329W        W45112  16.820  36.591  13.843
78330W        W45113  30.332   9.704   3.699
78331W        W45114   0.121  14.135   1.858
78332W        W45115  33.844   1.381  12.016
78333W        W45116  24.240  22.065   1.322
78334W        W45117   0.740  19.614   2.817
78335W        W45118  29.721  44.251  14.872
78336W        W45119   9.718  31.671  14.099
78337W        W45120  10.758  33.360   4.789
78338W        W45121   9.364  43.785   2.701
78339W        W45122  43.276  11.270   3.612
78340W        W45123   5.398  18.583  11.934
78341W        W45124  22.057  24.721   1.268
78342W        W45125  44.888   3.017  11.929
78343W        W45126  19.959  36.290   4.191
78344W        W45127  32.003   0.263   3.523
78345W        W45128  20.438   1.982   3.604
78346W        W45129   2.806  37.706   3.444
78347W        W45130   9.982   6.765  13.072
78348W        W45131  19.763   7.861   4.225
78349W        W45132  22.516  20.203   4.922
78350W        W45133  26.493  24.774   2.894
78351W        W45134  19.239  20.295  14.445
78352W        W45135  31.693  19.162   0.319
78353W        W45136   8.253  23.034   2.295
78354W        W45137  34.294  33.222   0.813
78355W        W45138  30.383   2.290   0.754
78356W        W45139  14.484  23.354  11.175
78357W        W45140  33.610  38.988  14.212
78358W        W45141  32.051  36.294   0.766
78359W        W45142  10.531  22.711   3.237
78360W        W45143  26.922  40.935   2.304
78361W        W45144  21.878   9.109   1.863
78362W        W45145  41.097   7.803   4.175
78363W        W45146  34.459  32.912   1.684
78364W        W45147  18.533  15.660   4.068
78365W        W45148   7.792  12.633  14.069
78366W        W45149  43.356   9.936  13.422
78367W        W45150  24.146  31.562  12.059
78368W        W45151  10.811  18.067   1.157
78369W        W45152  40.181  40.437  14.506
78370W        W45153  10.807   2.807  12.795
78371W        W45154   4.043  42.293   1.479
78372W        W45155  44.274  43.468   2.117
78373W        W45156   7.753  14.081   3.683
78374W        W45157  13.078  26.945   1.638
78375W        W45158  24.762  12.057  12.925
78376W        W45159  16.784   5.707   3.218
78377W        W45160   7.446   3.327   1.816
78378W        W45161  27.751  31.440  10.636
78379W        W45162  11.179  28.159  14.003
78380W        W45163  18.509  17.785  13.837
78381W        W45164  27.674  19.146   3.550
78382W        W45165  26.717   4.244  13.499
78383W        W45166  18.462  38.620  11.671
78384W        W45167  18.306  41.920  14.777
78385W        W45168  34.591   3.268   2.308
78386W        W45169  34.431  17.707   4.125
78387W        W45170  23.941  33.850   4.154
78388W        W45171  27.002   6.259   1.970
78389W        W45172  10.160  43.735   4.766
78390W        W45173  40.011  35.102   2.541
78391W        W45174  41.103  38.501   0.740
78392W        W45175  41.301  15.222   3.141
78393W        W45176  42.772  40.135   4.302
78394W        W45177  38.552   9.746   1.448
78395W        W45178  38.293  20.038  11.443
78396W        W45179   4.543  16.717  12.606
78397W        W45180  37.358  27.972  13.998
78398W        W45181   2.414  19.839  12.151
78399W        W45182  29.274  18.221   1.894
78400W        W45183  41.947  27.803  11.068
78401W        W45184  39.339  27.540  11.620
78402W        W45185   4.198  37.964  12.027
78403W        W45186   0.787  27.590  12.024
78404W        W45187  16.698  31.002   4.962
78405W        W45188  36.947  17.772  13.421
78406W        W45189  41.554  25.784  12.845
78407W        W45190  43.028  18.893  10.731
78408W        W45191  11.263   1.952   2.403
78409W        W45192  19.579  39.972  11.970
78410W        W45193  43.414  33.581  10.806
78411W        W45194   4.763   2.890  14.917
78412W        W45195  44.352  22.525   5.113
78413W        W45196  23.314  32.771  14.214
78414W        W45197   0.821  16.060  11.918
78415W        W45198  12.869   5.423  11.609
78416W        W45199  40.917  33.341   0.912
78417W        W45200  35.984  12.098   2.235
78418W        W45201  24.846  20.701   4.131
78419W        W45202  25.417  15.591   1.667
78420W        W45203  28.484  31.026  10.666
78421W        W45204  22.492  22.243  14.248
78422W        W45205  13.258  38.262  12.869
78423W        W45206  21.183  36.088  10.611
78424W        W45207  11.397  28.074   1.447
78425W        W45208  35.107  17.644  11.552
78426W        W45209  35.831  40.960  11.640
78427W        W45210  30.685  35.368   3.413
78428W        W45211   9.274   9.885  12.379
78429W        W45212  43.938  12.691   3.575
78430W        W45213   8.265  31.060   4.115
78431W        W45214  37.047  12.686   1.841
78432W        W45215  22.785  10.596   3.170
78433W        W45216  37.565  21.688   1.468
78434W        W45217  19.327  29.413   3.123
78435W        W45218  21.772  38.017  13.722
78436W        W45219  15.110  27.565  14.868
78437W        W45220  24.970  22.890   2.281
78438W        W45221  31.374  44.579  14.918
78439W        W45222  28.117  39.905   4.112
78440W        W45223  12.387  34.155  11.247
78441W        W45224  21.585   0.978  11.905
78442W        W45225  42.485   8.272  13.056
78443W        W45226   8.177   0.021   2.328
78444W        W45227  17.422  31.709  10.811
78445W        W45228  15.298  40.346   4.702
78446W        W45229  21.318  15.663   3.191
78447W        W45230  36.888   1.284  12.512
78448W        W45231  29.390  11.492   2.604
78449W        W45232   2.809  23.732   0.762
78450W        W45233  10.868   6.785   0.263
78451W        W45234  29.734   3.186   2.344
78452W        W45235   1.792  38.587  11.936
78453W        W45236  27.546  19.020   0.400
78454W        W45237   0.306  21.042   9.923
78455W        W45238  21.767  39.512  13.550
78456W        W45239  24.204  10.769   2.166
78457W        W45240  41.070  36.851   2.769
78458W        W45241  37.221  39.605   1.178
78459W        W45242  24.809  43.070   3.768
78460W        W45243  36.451  29.000   4.480
78461W        W45244  32.259   6.386   9.898
78462W        W45245  41.941   4.721   1.814
78463W        W45246  16.367  28.702  10.653
78464W        W45247  11.814  37.118  14.440
78465W        W45248  30.637  13.476  13.718
78466W        W45249  15.531  16.235  11.939
78467W        W45250  41.499  22.564  13.992
78468W        W45251  36.580  18.213   0.424
78469W        W45252  40.904  33.638  10.991
78470W        W45253  14.201  29.616  14.791
78471W        W45254  24.467  21.224  13.336
78472W        W45255  39.352  38.235  14.417
78473W        W45256  15.585  26.917   4.695
78474W        W45257   2.253  13.655  14.369
78475W        W45258  34.399  26.815   2.400
78476W        W45259  11.080  27.645   2.943
78477W        W45260  18.190  11.299  10.789
78478W        W45261   5.668  26.814   3.926
78479W        W45262  12.692   6.523  10.686
78480W        W45263  42.095  31.550  11.110
78481W        W45264  31.653  16.258   4.049
78482W        W45265   3.304  16.007  13.288
78483W        W45266  31.786  17.492   1.348
78484W        W45267  29.372  14.393   2.406
78485W        W45268  42.209   5.237   2.751
78486W        W45269  12.101  30.650   1.247
78487W        W45270   7.801  18.688  14.872
78488W        W45271   6.461  38.414  13.017
78489W        W45272  32.876   5.657  14.872
78490W        W45273   5.437   6.169   1.198
78491W        W45274  11.125  43.878   1.325
78492W        W45275  12.737  35.803  10.285
78493W        W45276  38.581  12.245  13.343
78494W        W45277   4.968  29.807   0.272
78495W        W45278  44.199  40.439  11.977
78496W        W45279  22.954   4.476   2.217
78497W        W45280  23.957  17.051  13.879
78498W        W45281  10.243  31.156   1.134
78499W        W45282  43.968  20.278  11.563
78500W        W45283   2.717  26.549  14.334
78501W        W45284  25.942  31.711  11.538
78502W        W45285   2.417  36.016  14.941
78503W        W45286  31.213  14.248  12.644
78504W        W45287  44.222  21.205  11.149
78505W        W45288  17.065  24.283   1.794
78506W        W45289  21.560  44.853  14.931
78507W        W45290  21.747   0.284  14.043
78508W        W45291  40.383  33.510  14.842
78509W        W45292  34.061  22.965   1.482
78510W        W45293   3.124  11.081   2.687
78511W        W45294  32.088  40.988   1.313
78512W        W45295  18.516  27.244  12.098
78513W        W45296   1.002  32.348   2.297
78514W        W45297  33.105   5.369   2.763
78515W        W45298  27.593  15.760  10.686
78516W        W45299   3.430  43.983   2.319
78517W        W45300  24.400  14.774   4.622
78518W        W45301  23.503   1.799   4.100
78519W        W45302  38.573  39.481   1.766
78520W        W45303  32.249  15.631   1.200
78521W        W45304   8.836   2.995   2.829
78522W        W45305   2.409  22.385   2.274
78523W        W45306  32.337  32.662  14.829
78524W        W45307  29.664   1.078   4.409
78525W        W45308   6.797   1.206   1.865
78526W        W45309  12.838  15.394  14.939
78527W        W45310  41.001  25.402  14.067
78528W        W45311   3.478  38.430  14.816
78529W        W45312  43.532  16.039   1.066
78530W        W45313  32.029   4.525  13.037
78531W        W45314  10.686   5.929   4.693
78532W        W45315   9.073   2.854  11.140
78533W        W45316  36.228  37.882  13.474
78534W        W45317  24.806  10.193   4.059
78535W        W45318   4.463  33.275   1.848
78536W        W45319  10.292   1.881   2.952
78537W        W45320  34.647  42.376  14.809
78538W        W45321  36.034  36.764  14.846
78539W        W45322  31.882  30.474   2.831
78540W        W45323  24.898  20.935   0.131
78541W        W45324  28.430  10.853  10.682
78542W        W45325  17.329  44.274  14.242
78543W        W45326   6.976  33.835  11.050
78544W        W45327   8.428  17.043  12.079
78545W        W45328  16.158  44.863  13.499
78546W        W45329  43.909  37.874  13.959
78547W        W45330  31.434   8.422  14.485
78548W        W45331  23.081   4.692   0.735
78549W        W45332  23.018  40.897   0.663
78550W        W45333  33.690  10.434   0.770
78551W        W45334  26.022  13.738   4.740
78552W        W45335  24.340  14.175   3.020
78553W        W45336  44.824  36.325  10.724
78554W        W45337  25.078  37.758  12.558
78555W        W45338  38.551  42.911   4.646
78556W        W45339  18.037  44.801   4.654
78557W        W45340  11.394  36.078   9.718
78558W        W45341   4.055  20.631  12.595
78559W        W45342  16.129  32.013  13.573
78560W        W45343   5.666   9.430   3.870
78561W        W45344  10.265  19.802  11.583
78562W        W45345  21.370  24.807  14.839
78563W        W45346  20.513  40.993  11.493
78564W        W45347   0.597   3.351   3.725
78565W        W45348  29.515  43.449   4.738
78566W        W45349  20.108  28.795   4.069
78567W        W45350  33.529   1.909  13.787
78568W        W45351   2.405   0.397   2.705
78569W        W45352  42.605  30.855  11.225
78570W        W45353   6.483  12.485  11.213
78571W        W45354  12.844  36.158   0.956
78572W        W45355  19.719  31.177   1.227
78573W        W45356   2.503   3.378   2.719
78574W        W45357  13.316   1.953  11.948
78575W        W45358  25.758   5.800   3.175
78576W        W45359   8.774  39.018   1.274
78577W        W45360   6.632   1.921  13.739
78578W        W45361   8.582  33.559   1.567
78579W        W45362  18.624  32.008   0.749
78580W        W45363   2.282   4.304   1.759
78581W        W45364  42.537   2.409  11.119
78582W        W45365  19.854  38.523   3.181
78583W        W45366  22.476  26.361  10.682
78584W        W45367  24.040  41.982  12.507
78585W        W45368   1.255  10.668   2.230
78586W        W45369   6.977  29.282   2.709
78587W        W45370  18.022  44.979   3.917
78588W        W45371  29.870  17.211   2.861
78589W        W45372  26.443  24.553  12.898
78590W        W45373  20.541  31.556   4.326
78591W        W45374   8.154   4.382   3.268
78592W        W45375  26.178  11.751   3.776
78593W        W45376  36.857  12.823   4.236
78594W        W45377   5.149  36.620  14.225
78595W        W45378  12.597  32.918   4.809
78596W        W45379  12.358  42.538  14.670
78597W        W45380  44.590  21.189  12.232
78598W        W45381  33.940  30.140   4.461
78599W        W45382  14.629  28.623   4.156
78600W        W45383  10.551   8.881   3.575
78601W        W45384   6.635  36.370  11.242
78602W        W45385  22.875  13.377   2.202
78603W        W45386  24.482  37.546   5.138
78604W        W45387  31.929  42.624   2.208
78605W        W45388  23.099  24.511  11.552
78606W        W45389  18.998   0.371  11.168
78607W        W45390  31.170  14.282  14.511
78608W        W45391  21.936   4.305   4.087
78609W        W45392   7.762  12.318   2.648
78610W        W45393  37.279   8.699   0.800
78611W        W45394  35.836  20.054  13.509
78612W        W45395  43.760  18.601   2.815
78613W        W45396   1.082  23.035   3.750
78614W        W45397  40.943  12.782   3.853
78615W        W45398  21.236   5.424  12.811
78616W        W45399  23.060  24.978  14.816
78617W        W45400   8.798  20.538  10.452
78618W        W45401  36.194  24.235  11.672
78619W        W45402  13.191  40.028   3.302
78620W        W45403  31.926  31.112  12.975
78621W        W45404  41.959   3.907   1.738
78622W        W45405   3.392  12.213  11.360
78623W        W45406  24.237   1.754  13.754
78624W        W45407  13.048  43.206  11.640
78625W        W45408  11.216  31.043   2.560
78626W        W45409  29.387   5.378  11.991
78627W        W45410  15.600   2.251  13.413
78628W        W45411  43.907  14.767  13.441
78629W        W45412  10.442  27.829  13.877
78630W        W45413   3.323  22.712  12.192
78631W        W45414  42.761  14.652   0.271
78632W        W45415  42.192  39.145  11.079
78633W        W45416  28.429  37.182   5.082
78634W        W45417   3.694  44.855  13.371
78635W        W45418  16.807   5.723   4.118
78636W        W45419  27.106  16.589   0.435
78637W        W45420  35.946   5.626  13.980
78638W        W45421  30.791  29.700   0.055
78639W        W45422  35.875  27.021   4.193
78640W        W45423  41.327  19.191   4.856
78641W        W45424  20.762  11.252   0.357
78642W        W45425  19.198  10.104  11.140
78643W        W45426  19.472   9.736  12.188
78644W        W45427   6.397  27.901  12.502
78645W        W45428  17.388   3.950   3.261
78646W        W45429  35.613   5.294  11.619
78647W        W45430  16.694  36.942   3.134
78648W        W45431  18.286  13.349   0.419
78649W        W45432   1.801   7.738   1.039
78650W        W45433  19.706   3.948   0.929
78651W        W45434  10.159  10.869   1.088
78652W        W45435  18.137  14.882   0.356
78653W        W45436  25.073  15.844  13.944
78654W        W45437  11.637  22.120   1.889
78655W        W45438  40.961   7.124   0.757
78656W        W45439   0.767   7.328   0.276
78657W        W45440  28.246  41.504   1.336
78658W        W45441  19.428  14.856  12.818
78659W        W45442  42.136  16.653  10.883
78660W        W45443  25.445  41.895  14.418
78661W        W45444  41.050  31.563   1.264
78662W        W45445   8.910  25.226  14.243
78663W        W45446  11.949  18.533  12.624
78664W        W45447  14.363   2.156  11.955
78665W        W45448  42.337  28.933   0.837
78666W        W45449  42.864  39.500   0.780
78667W        W45450  12.175  10.233  14.820
78668W        W45451   9.197  23.545   2.290
78669W        W45452  37.038  31.984   0.790
78670W        W45453   8.302  16.091   2.801
78671W        W45454  15.764  23.611   2.291
78672W        W45455  30.179   5.756   3.346
78673W        W45456   3.962  19.579   1.784
78674W        W45457   8.394  34.178   1.290
78675W        W45458  23.133  39.325  13.110
78676W        W45459  34.864  34.554   0.254
78677W        W45460  13.824  17.646  12.364
78678W        W45461  20.517  41.278   1.853
78679W        W45462  16.075  19.630   0.470
78680W        W45463  31.833   4.017  11.762
78681W        W45464   2.849  22.686   3.212
78682W        W45465  30.217  36.036   2.919
78683W        W45466  33.487  35.211   4.205
78684W        W45467   5.909  12.564  11.091
78685W        W45468  22.530  39.918  12.369
78686W        W45469   7.377  36.313   0.852
78687W        W45470  23.758   9.804   4.598
78688W        W45471  10.639  27.990  10.546
78689W        W45472  28.190   0.440  12.964
78690W        W45473  33.703   2.616  10.499
78691W        W45474  32.382  31.490  14.077
78692W        W45475  13.731  20.363  14.357
78693W        W45476  39.466  24.062   3.051
78694W        W45477  34.514  23.342   4.178
78695W        W45478  10.639  36.440   4.384
78696W        W45479  42.483  18.708   1.696
78697W        W45480  26.373  15.832   2.177
78698W        W45481  29.950   2.385   1.849
78699W        W45482  28.879  44.436   4.529
78700W        W45483  37.790   6.211   0.322
78701W        W45484  26.053  28.999  11.949
78702W        W45485  32.110  23.095  13.041
78703W        W45486  17.849  36.960  12.848
78704W        W45487   7.697  35.130   3.494
78705W        W45488  23.948   3.925  12.385
78706W        W45489  28.121  27.990   2.305
78707W        W45490  12.034  14.114   0.632
78708W        W45491  38.859   6.392   2.676
78709W        W45492  35.691  15.259   0.320
78710W        W45493  37.591  23.186  10.644
78711W        W45494  43.284  38.540   3.683
78712W        W45495   9.534  21.374   0.525
78713W        W45496  17.097  37.270   4.597
78714W        W45497  34.492  37.674  12.485
78715W        W45498   7.846  41.841   4.970
78716W        W45499   2.279   0.703   2.312
78717W        W45500  42.757  25.484   0.251
78718W        W45501  40.429  41.917  12.377
78719W        W45502  40.835  31.563   3.768
78720W        W45503  38.500   4.557   4.834
78721W        W45504   1.179  18.845   1.832
78722W        W45505  15.325  35.949  12.159
78723W        W45506  38.926   2.718  13.387
78724W        W45507  12.964  34.607  11.968
78725W        W45508  13.139  42.852   4.198
78726W        W45509  27.018   7.521   4.214
78727W        W45510  12.144  26.333  13.456
78728W        W45511  27.015   8.620  12.043
78729W        W45512  30.750   2.044   4.861
78730W        W45513  19.722  44.127   3.517
78731W        W45514  14.143   9.562   3.108
78732W        W45515   8.798  17.131   1.234
78733W        W45516  16.270  21.711   1.472
78734W        W45517   0.316  40.720  12.178
78735W        W45518  29.513  30.096   3.559
78736W        W45519  40.414  39.277   3.681
78737W        W45520  27.950  30.604   4.099
78738W        W45521  23.138   3.662   0.760
78739W        W45522  18.815  20.104   1.426
78740W        W45523  39.284  24.155   0.378
78741W        W45524  18.581   4.170   2.559
78742W        W45525   9.621  22.702  12.548
78743W        W45526  41.266  16.612   0.090
78744W        W45527  12.424  36.437  10.782
78745W        W45528  24.751  21.332   3.745
78746W        W45529  41.504  14.745   3.294
78747W        W45530   9.366   4.370   0.274
78748W        W45531   1.421  12.858   4.161
78749W        W45532  43.515  38.845  13.974
78750W        W45533  13.155  28.931  12.070
78751W        W45534  40.886  33.991  14.460
78752W        W45535  42.824  34.840  13.432
78753W        W45536  42.415  42.920   1.849
78754W        W45537  40.770   7.392   4.883
78755W        W45538  17.918  23.669   2.062
78756W        W45539  18.344  44.238  14.419
78757W        W45540  40.449  42.635  11.921
78758W        W45541  27.230  18.060  10.772
78759W        W45542  28.680  30.052   3.158
78760W        W45543   0.258  12.706  14.228
78761W        W45544  28.950  15.307  12.402
78762W        W45545  35.650  42.877  13.169
78763W        W45546   3.767  31.452  11.554
78764W        W45547   8.866  26.936   0.096
78765W        W45548  37.274  11.513  13.826
78766W        W45549  42.661  12.645   5.455
78767W        W45550  42.564  14.027  13.376
78768W        W45551   3.803  33.884   3.961
78769W        W45552   7.174  31.337  11.937
78770W        W45553  20.044  12.759   1.845
78771W        W45554  40.251  31.672  12.586
78772W        W45555   6.173   3.649   3.586
78773W        W45556   1.733   7.025   2.870
78774W        W45557  13.369   2.340   3.371
78775W        W45558  34.142   1.962  11.238
78776W        W45559  26.028  28.626   4.308
78777W        W45560  21.303  24.179  14.412
78778W        W45561  35.386   2.374   1.336
78779W        W45562  10.202   0.569   1.804
78780W        W45563  19.590   3.038  12.432
78781W        W45564   8.342  39.031   4.203
78782W        W45565   1.522  21.161   4.621
78783W        W45566   4.949  13.192  13.409
78784W        W45567  27.169  12.317   3.279
78785W        W45568  42.914   7.256   0.614
78786W        W45569  36.476  17.027   0.003
78787W        W45570  43.763  32.770  12.560
78788W        W45571  13.183   8.191   1.881
78789W        W45572   4.235  40.513   2.818
78790W        W45573  21.691  23.541  10.880
78791W        W45574   4.838  36.322   1.889
78792W        W45575   0.014  33.643  13.884
78793W        W45576  35.080  37.789   3.693
78794W        W45577  37.827  36.462  12.029
78795W        W45578  26.545   9.732   4.964
78796W        W45579   9.456  21.707   0.914
78797W        W45580  35.871   3.628   4.489
78798W        W45581  13.329  38.973   3.410
78799W        W45582   7.774  11.243   0.824
78800W        W45583   0.381   5.567   0.776
78801W        W45584  16.572  22.506  13.325
78802W        W45585  19.557  34.531  12.219
78803W        W45586  26.421  31.375   1.767
78804W        W45587  15.736  21.815  14.022
78805W        W45588  41.278   3.329  14.839
78806W        W45589   2.281  21.241   0.832
78807W        W45590  39.906  36.080   0.293
78808W        W45591  36.898  31.569   1.208
78809W        W45592  20.017  33.126   1.813
78810W        W45593  40.120  44.901  11.574
78811W        W45594  14.684  38.484   5.456
78812W        W45595  22.444   2.952   2.603
78813W        W45596  34.111  13.615  13.243
78814W        W45597  25.568  40.060   3.549
78815W        W45598  24.206  12.339  11.724
78816W        W45599  21.069   0.299  11.998
78817W        W45600  35.611  35.880  12.124
78818W        W45601  13.728  26.622  11.030
78819W        W45602  43.055  23.801   1.335
78820W        W45603  11.211  12.526  12.126
78821W        W45604  15.310  28.178  12.967
78822W        W45605  17.577  36.286   2.211
78823W        W45606  28.530   3.733   2.826
78824W        W45607  38.514  27.775  12.528
78825W        W45608   3.017  43.804  12.597
78826W        W45609  20.617  41.493  11.539
78827W        W45610  10.772   9.333  12.379
78828W        W45611  41.756  39.105   3.666
78829W        W45612  11.592   5.827  10.661
78830W        W45613  33.419   0.203  11.597
78831W        W45614   2.399   4.528  11.228
78832W        W45615   5.598  26.738  10.217
78833W        W45616  42.076   5.782  14.854
78834W        W45617  34.076  35.102   2.974
78835W        W45618   7.650  30.621  13.954
78836W        W45619  19.834  26.293   2.519
78837W        W45620  19.063  40.913  13.526
78838W        W45621  16.250   5.951   3.572
78839W        W45622  34.095  22.418  14.942
78840W        W45623  21.669  35.651   1.039
78841W        W45624  17.720  27.539   3.666
78842W        W45625  42.834  21.726  14.104
78843W        W45626   3.467  35.958  14.713
78844W        W45627  12.866  31.389   1.245
78845W        W45628  34.886  41.443   4.629
78846W        W45629  11.265  16.674  14.887
78847W        W45630  24.473  26.016   0.977
78848W        W45631  40.569  21.195   0.907
78849W        W45632  12.690  37.900  13.785
78850W        W45633  20.604  12.835  14.684
78851W        W45634  26.006  40.729   3.281
78852W        W45635   8.112  10.322  10.811
78853W        W45636  36.600  39.293  11.929
78854W        W45637  35.859  28.952  12.971
78855W        W45638  38.764  15.380  14.336
78856W        W45639  23.142   6.846  10.833
78857W        W45640  15.039  16.557  12.430
78858W        W45641  16.640  29.093  10.921
78859W        W45642  20.581   6.694  10.384
78860W        W45643   1.943  28.010  12.099
78861W        W45644  17.207  18.601   1.610
78862W        W45645  31.657  38.972   4.873
78863W        W45646   3.838  34.953  14.749
78864W        W45647   1.720  16.286   2.801
78865W        W45648  12.019  35.495  11.124
78866W        W45649  40.812  30.529  14.923
78867W        W45650   9.328  17.056   2.525
78868W        W45651   3.872  29.730  10.687
78869W        W45652  39.802  27.232  11.570
78870W        W45653  14.273  32.569  14.977
78871W        W45654  38.371   0.912   0.997
78872W        W45655  11.445  34.089   2.740
78873W        W45656  19.775  43.406   4.286
78874W        W45657  20.509  15.459  14.922
78875W        W45658  35.164  28.068   9.837
78876W        W45659   8.915  10.796  13.872
78877W        W45660  12.818   9.056   2.700
78878W        W45661  14.843  22.143  14.038
78879W        W45662  14.439   3.880  10.722
78880W        W45663   5.152   3.129   3.148
78881W        W45664  39.404  34.453   4.197
78882W        W45665  14.538  33.386  12.497
78883W        W45666  27.097  27.666   4.740
78884W        W45667  15.242  21.664  12.150
78885W        W45668  24.002   0.062  13.138
78886W        W45669  17.302  13.156   9.646
78887W        W45670   5.384  24.724   4.852
78888W        W45671   1.285  14.876  13.042
78889W        W45672  12.376  42.522   0.464
78890W        W45673  35.321  42.399   3.189
78891W        W45674  15.884  26.673   1.213
78892W        W45675  12.674  32.033  11.526
78893W        W45676  15.770   7.645  12.524
78894W        W45677   6.086  34.550  13.471
78895W        W45678  19.606  15.511   0.770
78896W        W45679  25.623  17.323   3.671
78897W        W45680  27.467  12.728   0.787
78898W        W45681  11.496  36.426  13.849
78899W        W45682  35.030   0.209  14.488
78900W        W45683  35.201  20.541  11.951
78901W        W45684   5.281   4.226   3.806
78902W        W45685  12.903  10.714   3.677
78903W        W45686  10.886  41.753  11.648
78904W        W45687  31.072  35.702   4.460
78905W        W45688  13.624   4.386   2.562
78906W        W45689   9.404  37.552   0.312
78907W        W45690  29.295  16.177  14.960
78908W        W45691  14.155   9.796   0.599
78909W        W45692  29.924  40.803  10.547
78910W        W45693  23.665  44.661  13.285
78911W        W45694  17.217  42.828  11.860
78912W        W45695   2.916  11.519  13.286
78913W        W45696  19.558  25.242   1.675
78914W        W45697  44.270  21.085  13.457
78915W        W45698   3.752  35.013  14.246
78916W        W45699  31.979   3.405  13.936
78917W        W45700  24.956  41.954  14.234
78918W        W45701  37.453  21.376   5.019
78919W        W45702   0.433  25.081  14.798
78920W        W45703  26.967   2.803   3.165
78921W        W45704   4.312  35.104   4.228
78922W        W45705  29.363  11.112  12.354
78923W        W45706   8.393   3.334   5.037
78924W        W45707   0.551  25.856  14.801
78925W        W45708  10.773  30.682   4.667
78926W        W45709  37.888  10.086  13.979
78927W        W45710  39.308   9.387  11.659
78928W        W45711  40.879  42.518   2.301
78929W        W45712  18.182   3.192   1.859
78930W        W45713  35.886  25.589  13.619
78931W        W45714  10.422  36.933  13.484
78932W        W45715   9.566  27.490  11.952
78933W        W45716  39.541  36.748   4.497
78934W        W45717   4.399  29.066   3.607
78935W        W45718  40.049  19.675   2.266
78936W        W45719  35.570  12.175   3.762
78937W        W45720  37.770  36.735   1.396
78938W        W45721  13.347   2.075   5.027
78939W        W45722  32.037  30.868   4.587
78940W        W45723  40.010  15.120   2.907
78941W        W45724  37.452  42.799  11.163
78942W        W45725   4.339  35.940  11.636
78943W        W45726  41.927   6.214   4.247
78944W        W45727   4.928   4.719   2.507
78945W        W45728  10.058  17.237  14.858
78946W        W45729  14.287  13.313   5.068
78947W        W45730  25.888  21.315   0.396
78948W        W45731  27.109  14.077   1.704
78949W        W45732  11.353  23.399  14.376
78950W        W45733  30.353  17.328  11.007
78951W        W45734  35.917   5.701   0.280
78952W        W45735  41.077  14.139  12.094
78953W        W45736  33.955  23.033   0.621
78954W        W45737   4.629  23.668  11.489
78955W        W45738   2.489  32.660   1.516
78956W        W45739  22.746   6.418   1.339
78957W        W45740  21.993  34.115  11.633
78958W        W45741  23.135  14.042   2.889
78959W        W45742  24.249  10.262   2.282
78960W        W45743  25.017  31.499   3.203
78961W        W45744  20.549  35.707  11.207
78962W        W45745  33.371   2.943   0.327
78963W        W45746  43.582  25.494   1.201
78964W        W45747  35.953  25.338   0.353
78965W        W45748  34.700  41.002   3.700
78966W        W45749  35.975  17.973   1.057
78967W        W45750  12.323  30.710  12.318
78968W        W45751  24.096  16.312   2.801
78969W        W45752  20.961  44.254   1.290
78970W        W45753  15.022   1.575  11.621
78971W        W45754  22.498   4.750  11.569
78972W        W45755   7.360   1.028  13.327
78973W        W45756  29.664  14.406   4.341
78974W        W45757  44.902  10.330  13.060
78975W        W45758   1.862  18.149   4.355
78976W        W45759  28.145  24.683   0.699
78977W        W45760  10.256  19.282  12.854
78978W        W45761  30.216  14.388   3.671
78979W        W45762  44.285  37.058   3.724
78980W        W45763   8.839  14.073  10.297
78981W        W45764  39.259   4.714   0.908
78982W        W45765   4.356  16.174  10.718
78983W        W45766  16.723  25.556   2.832
78984W        W45767   2.347  15.397  11.409
78985W        W45768  32.989  42.235   0.476
78986W        W45769  26.039  44.106  13.142
78987W        W45770  28.408  17.576  13.820
78988W        W45771  44.073  21.128  10.648
78989W        W45772  24.039   4.960   3.149
78990W        W45773   4.828  28.182  11.185
78991W        W45774  12.583   6.400  12.455
78992W        W45775  13.245   4.949   1.891
78993W        W45776  42.606  34.571   2.461
78994W        W45777  43.777  25.035   1.315
78995W        W45778  18.471   2.060   5.065
78996W        W45779  29.853  10.740   1.242
78997W        W45780  28.305  19.631   4.175
78998W        W45781  13.750  35.150   2.108
78999W        W45782  43.536  22.609   4.290
79000W        W45783  11.375  38.024   2.573
79001W        W45784  41.439  42.569  12.923
79002W        W45785   3.501  11.456  14.030
79003W        W45786  21.353  14.465   1.274
79004W        W45787  38.842  28.743   2.477
79005W        W45788  29.281  20.822  11.047
79006W        W45789  14.553  19.561  11.996
79007W        W45790  14.234  35.886  11.220
79008W        W45791  11.951  26.573   0.286
79009W        W45792  16.761  13.202   2.389
79010W        W45793  39.942   2.551  11.839
79011W        W45794  20.879  38.690  13.078
79012W        W45795  43.044  14.630   1.158
79013W        W45796  24.316  15.165  14.919
79014W        W45797   5.364  39.077   2.902
79015W        W45798  30.641  26.709  12.101
79016W        W45799  43.718  26.212   3.233
79017W        W45800   1.815   0.438   2.285
79018W        W45801  41.955  36.509  14.469
79019W        W45802  32.764  17.772  12.554
79020W        W45803  12.602  13.655   4.723
79021W        W45804  25.493  18.812   3.724
79022W        W45805   4.296  18.490   4.716
79023W        W45806  16.373  13.072  11.560
79024W        W45807  17.714  32.605   4.948
79025W        W45808  21.953  42.470   1.790
79026W        W45809   9.295  43.721   0.120
79027W        W45810  19.804  44.456  12.484
79028W        W45811  21.650  33.000   4.793
79029W        W45812   1.012  21.728  10.954
79030W        W45813   5.986  42.872  12.376
79031W        W45814   1.112  39.899   1.277
79032W        W45815  37.014  29.140   2.391
79033W        W45816  24.641  19.483   1.819
79034W        W45817   3.384  29.409  12.163
79035W        W45818  29.596  28.387  13.212
79036W        W45819  15.739  17.968  11.494
79037W        W45820  14.515  18.276  14.038
79038W        W45821  44.429   5.455  14.876
79039W        W45822  44.214  10.493  14.264
79040W        W45823  36.298   9.761   2.380
79041W        W45824  29.001  41.460   0.514
79042W        W45825  36.324  29.009  11.913
79043W        W45826   0.084  29.647   4.899
79044W        W45827  26.923  19.709   3.652
79045W        W45828  34.353  12.215   0.072
79046W        W45829  26.390  28.485   3.283
79047W        W45830  29.681  11.070   4.306
79048W        W45831  10.825  34.983   2.864
79049W        W45832  23.466  44.004   0.697
79050W        W45833   7.376  13.848  14.371
79051W        W45834   7.781  13.554  11.618
79052W        W45835   2.050  18.152   2.882
79053W        W45836   6.108  25.441  14.364
79054W        W45837  20.195   7.561   4.211
79055W        W45838  23.093  29.420  12.097
79056W        W45839  41.431  13.199  12.512
79057W        W45840  27.187   7.443  11.000
79058W        W45841   2.140  16.568  14.781
79059W        W45842  35.425  19.207  14.367
79060W        W45843  38.155  39.081  13.053
79061W        W45844  41.854  18.762   0.843
79062W        W45845  22.518   7.213  14.326
79063W        W45846   4.890  33.810  11.852
79064W        W45847  26.632   2.410   3.292
79065W        W45848   9.388  40.450  12.510
79066W        W45849  29.509   3.630  11.265
79067W        W45850  26.857  15.740  14.834
79068W        W45851   5.631  22.216   3.684
79069W        W45852  32.035  31.024  12.063
79070W        W45853  30.475  42.191   0.714
79071W        W45854  26.631   3.286  10.905
79072W        W45855  42.513  18.838  11.905
79073W        W45856  31.045  15.181  12.633
79074W        W45857  37.494   5.792   3.143
79075W        W45858  38.839  40.469  12.628
79076W        W45859   3.827   8.658  11.522
79077W        W45860  36.069  13.434   1.425
79078W        W45861  40.179  30.279   5.105
79079W        W45862   4.692   8.341   3.127
79080W        W45863  24.014  37.604  11.760
79081W        W45864  35.092  43.039   3.069
79082W        W45865   4.444  10.116  13.835
79083W        W45866  11.272  16.578   4.112
79084W        W45867  38.075   4.974   2.364
79085W        W45868  26.677  10.821  10.695
79086W        W45869  20.264   5.214   3.620
79087W        W45870  11.127  40.982  13.433
79088W        W45871   8.141  15.887   3.298
79089W        W45872  34.459  26.646  14.045
79090W        W45873  12.589  18.826  11.546
79091W        W45874  35.201   4.742   1.802
79092W        W45875  27.604  15.924  14.564
79093W        W45876  18.295  41.755  10.619
79094W        W45877  27.112  44.569   4.193
79095W        W45878  22.076  31.982  14.257
79096W        W45879   1.464  35.144  12.046
79097W        W45880   9.891   7.131   0.246
79098W        W45881  10.952  44.800   2.916
79099W        W45882   3.391  44.272   3.275
79100W        W45883  38.066  15.488  13.014
79101W        W45884   7.543   8.293  13.391
79102W        W45885   5.448   6.706  11.099
79103W        W45886  23.960  26.762  13.960
79104W        W45887  29.132  13.318  12.743
79105W        W45888   4.242   9.185   3.537
79106W        W45889  29.665  34.769   1.333
79107W        W45890  30.090   2.412   3.286
79108W        W45891   6.813   9.382   3.297
79109W        W45892  19.268  26.140   1.868
79110W        W45893   3.458  20.715  11.252
79111W        W45894  26.404  40.258   1.875
79112W        W45895  11.963  26.687  11.560
79113W        W45896   7.320  36.377   3.423
79114W        W45897   0.806  33.324   2.187
79115W        W45898  24.011   0.265  13.796
79116W        W45899  36.650  31.167  13.063
79117W        W45900   0.473  36.428  10.934
79118W        W45901  38.759  42.819  12.431
79119W        W45902  28.463   9.326   0.967
79120W        W45903  19.663  30.608   4.680
79121W        W45904  32.394  33.079   1.818
79122W        W45905  14.053  27.960   3.661
79123W        W45906  29.496   3.502  12.083
79124W        W45907   2.292  36.381   0.320
79125W        W45908  26.670   1.178   3.816
79126W        W45909   8.633  17.982  14.398
79127W        W45910  28.450  17.998  12.070
79128W        W45911  36.617  35.104  10.808
79129W        W45912  14.917  12.255   2.250
79130W        W45913  38.417  37.069   2.514
79131W        W45914   9.159  28.083  11.588
79132W        W45915  30.508  33.848  13.054
79133W        W45916  27.012  10.663  11.775
79134W        W45917   3.231   0.363   3.878
79135W        W45918  28.541  39.788   1.721
79136W        W45919   1.167  25.926   2.938
79137W        W45920   8.735  43.949  14.617
79138W        W45921  31.736  10.118  13.662
79139W        W45922   2.345   2.066   1.035
79140W        W45923   8.133  32.836   2.481
79141W        W45924  26.964   6.250   4.642
79142W        W45925   3.947   4.276  12.600
79143W        W45926   1.945   2.846   3.322
79144W        W45927  13.904   8.729  14.971
79145W        W45928  18.647  29.714  11.971
79146W        W45929   1.327  33.594  13.332
79147W        W45930  22.554  36.630   1.187
79148W        W45931  42.324  17.361  11.916
79149W        W45932  41.953  37.907   1.319
79150W        W45933  21.114  18.092  10.604
79151W        W45934   4.810  44.795   1.371
79152W        W45935  23.029   7.744   3.281
79153W        W45936   9.721  24.911  13.116
79154W        W45937  16.834  34.163   4.605
79155W        W45938  20.334  23.177   1.795
79156W        W45939  30.443  33.638  14.914
79157W        W45940  42.026  12.663  10.758
79158W        W45941   2.770  36.636  14.264
79159W        W45942  28.505   8.927   0.030
79160W        W45943  33.024   3.244  10.426
79161W        W45944  18.059  41.284   3.148
79162W        W45945  34.150  29.640  14.775
79163W        W45946   8.867  16.198   4.274
79164W        W45947  17.351   1.213   0.754
79165W        W45948  17.888  28.168   1.361
79166W        W45949   3.850   1.298  11.600
79167W        W45950  19.570   9.848   4.241
79168W        W45951   9.975  15.623   5.023
79169W        W45952  43.632  14.528  12.502
79170W        W45953   1.213   5.144   0.778
79171W        W45954  17.145  40.748  14.275
79172W        W45955  35.471  20.999   3.513
79173W        W45956  38.899  15.692   2.652
79174W        W45957  19.617  43.337  10.475
79175W        W45958  24.237  41.327  14.984
79176W        W45959  10.063   0.310  10.457
79177W        W45960  21.704  25.524   1.113
79178W        W45961  12.283  18.606   1.002
79179W        W45962  15.526  40.379  11.465
79180W        W45963  25.683  36.567  14.856
79181W        W45964  32.822  16.146   2.734
79182W        W45965  44.873  27.482   1.393
79183W        W45966  37.765  40.323  12.024
79184W        W45967  14.086   1.777  13.782
79185W        W45968  22.722   0.446   0.779
79186W        W45969   7.761  21.489  10.648
79187W        W45970  39.382  36.006   0.672
79188W        W45971  21.564  26.989   3.690
79189W        W45972  28.154   0.636   0.079
79190W        W45973  25.213   0.413   0.296
79191W        W45974  25.819  11.274   0.243
79192W        W45975  19.345   6.613  10.463
79193W        W45976  39.539  40.432   1.812
79194W        W45977   0.429  35.661   0.104
79195W        W45978  28.008  27.508  10.302
79196W        W45979   6.549  20.638  14.543
79197W        W45980  11.329  13.361  12.541
79198W        W45981   4.801   7.442  13.418
79199W        W45982   5.316   6.981   1.776
79200W        W45983  24.056  36.090  12.002
79201W        W45984  14.777  44.587   1.804
79202W        W45985  31.816  40.925  11.879
79203W        W45986  39.993  20.946  10.316
79204W        W45987   2.364  43.404   1.086
79205W        W45988  17.037  38.775  13.274
79206W        W45989  27.215  13.657   1.359
79207W        W45990  19.547  44.565  11.560
79208W        W45991   5.460  39.895  14.569
79209W        W45992  34.637  26.930  10.751
79210W        W45993  13.086  30.189  13.005
79211W        W45994  13.965  26.078   4.290
79212W        W45995   9.857  13.313  14.028
79213W        W45996  25.571  16.091  12.519
79214W        W45997  42.957  39.501  10.705
79215W        W45998  17.625  18.186   4.497
79216W        W45999  22.646  22.051   3.326
79217W        W46000  13.299  18.268  12.908
79218W        W46001  40.401   6.035   5.106
79219W        W46002  23.707  11.335   1.837
79220W        W46003  22.455  36.870   2.463
79221W        W46004  24.823  26.181   4.391
79222W        W46005  35.495  35.820  12.643
79223W        W46006   0.835  10.878   0.339
79224W        W46007   3.484  29.677  12.587
79225W        W46008  20.483   2.290  10.661
79226W        W46009  19.499  29.608  12.323
79227W        W46010  10.690  17.681  12.129
79228W        W46011  31.871  20.136   1.794
79229W        W46012   8.146   4.899   1.356
79230W        W46013  42.268  35.132  12.388
79231W        W46014  18.262  33.121   3.164
79232W        W46015  34.315  18.677   1.208
79233W        W46016  35.422  25.748   4.870
79234W        W46017   7.948  43.419  13.929
79235W        W46018  38.606  30.950   0.852
79236W        W46019  26.633  44.509  10.460
79237W        W46020  40.135  10.383   9.978
79238W        W46021  13.667  23.596  14.000
79239W        W46022  14.173  37.948   3.585
79240W        W46023  10.213  44.521  11.529
79241W        W46024  30.355  38.315  12.192
79242W        W46025  18.715  23.736   0.579
79243W        W46026   1.021  18.178   2.772
79244W        W46027  35.892  24.756   4.097
79245W        W46028   2.868  11.185  12.384
79246W        W46029  26.140   3.765   3.664
79247W        W46030  41.192  10.529   2.926
79248W        W46031  39.341  18.171   0.811
79249W        W46032   5.446  33.015   1.226
79250W        W46033  29.241   2.715   3.843
79251W        W46034  14.628   9.358   4.029
79252W        W46035  22.886  24.142  12.524
79253W        W46036  12.178  17.245   3.241
79254W        W46037   4.149  39.866   0.871
79255W        W46038   9.741  29.942   1.931
79256W        W46039  15.076  30.802   4.224
79257W        W46040  39.503  23.960   3.586
79258W        W46041  18.928  11.792   1.020
79259W        W46042   9.471  26.760  11.598
79260W        W46043  44.367   1.107  11.246
79261W        W46044   8.150  28.778   1.472
79262W        W46045  26.709  33.087   0.552
79263W        W46046   4.855  19.199   4.595
79264W        W46047  21.299  24.743   1.618
79265W        W46048   2.508   1.293  13.374
79266W        W46049  27.947  15.683   0.865
79267W        W46050  16.121  44.809  10.999
79268W        W46051  23.583  15.418   1.344
79269W        W46052  38.442  37.284   1.861
79270W        W46053  19.433  19.796  13.117
79271W        W46054  43.254  36.981  13.367
79272W        W46055  24.478   3.867  11.694
79273W        W46056  39.209  40.430  14.152
79274W        W46057  30.032  17.773  12.897
79275W        W46058   7.198  38.462  12.461
79276W        W46059  44.989  24.195  14.380
79277W        W46060  40.114   2.011  13.455
79278W        W46061  38.064  28.627   4.386
79279W        W46062  34.627   6.134  13.858
79280W        W46063  34.004  40.884   3.275
79281W        W46064  23.581   7.068   2.330
79282W        W46065  15.103   0.998  12.418
79283W        W46066  24.547  21.514   4.740
79284W        W46067   0.828  22.144  11.173
79285W        W46068  10.684  17.136  13.590
79286W        W46069   7.125  43.368   2.860
79287W        W46070   2.586   9.319   1.800
79288W        W46071  38.008  13.384   2.693
79289W        W46072  29.442   9.945  10.652
79290W        W46073  14.146   5.969   4.921
79291W        W46074  12.843  44.567  14.307
79292W        W46075   9.580   9.742  14.543
79293W        W46076  31.377  21.921   4.061
79294W        W46077  16.200  35.498  12.888
79295W        W46078  34.495  19.051  11.146
79296W        W46079  42.309   0.880  13.575
79297W        W46080  24.108  35.459  12.568
79298W        W46081  13.617  19.315   2.170
79299W        W46082  17.703  36.591  13.489
79300W        W46083  34.615  16.153  10.660
79301W        W46084  22.265  37.545  11.092
79302W        W46085  37.551  38.025   0.838
79303W        W46086   0.525  23.098  14.455
79304W        W46087  25.400  42.828  13.311
79305W        W46088  39.770  10.144   4.732
79306W        W46089  23.214  27.178   1.344
79307W        W46090  15.223   9.696  10.734
79308W        W46091   3.227  10.282  11.874
79309W        W46092  13.390   9.588  12.949
79310W        W46093  41.918  39.732  14.005
79311W        W46094  13.107  23.021  12.871
79312W        W46095  30.127  33.337   4.256
79313W        W46096  14.827   9.337  11.932
79314W        W46097  34.320  27.450   1.254
79315W        W46098  40.051   7.191  12.692
79316W        W46099  20.995   7.792   4.112
79317W        W46100  27.761   0.038  14.093
79318W        W46101   6.949  12.162   1.829
79319W        W46102  28.923  22.033   2.145
79320W        W46103  27.757  15.203  12.074
79321W        W46104  27.958  43.970   2.667
79322W        W46105  11.591  18.066   0.282
79323W        W46106  16.743   3.292  11.368
79324W        W46107   7.689  32.541  11.466
79325W        W46108  11.683  38.359   2.309
79326W        W46109  15.786  20.158   3.626
79327W        W46110  32.786  10.805  14.991
79328W        W46111  34.035  20.766  13.991
79329W        W46112   5.312   9.651  11.778
79330W        W46113   6.410  38.628   1.222
79331W        W46114  44.975  12.276  14.362
79332W        W46115  14.291  39.556  10.739
79333W        W46116  22.042  33.016   0.803
79334W        W46117   7.313  42.628  13.968
79335W        W46118   1.497  26.498  12.115
79336W        W46119  35.381  28.476   2.215
79337W        W46120   3.228  28.011  13.906
79338W        W46121  36.364  19.160  14.478
79339W        W46122  44.462   5.857   1.723
79340W        W46123  25.091  11.771  11.558
79341W        W46124  24.513  28.911   0.709
79342W        W46125  44.408   0.471  12.288
79343W        W46126  14.173   0.929   3.651
79344W        W46127  32.403  34.458   0.181
79345W        W46128  40.528  14.361   0.869
79346W        W46129  28.016   5.805  13.955
79347W        W46130   0.050  30.566  13.684
79348W        W46131   4.748  10.788   2.303
79349W        W46132  37.485  25.518   4.537
79350W        W46133   7.315  14.310   4.825
79351W        W46134  38.008  16.952   3.073
79352W        W46135  28.570  31.989  11.506
79353W        W46136   8.647   3.849  13.915
79354W        W46137   2.251  24.524  14.881
79355W        W46138  22.163   4.922   2.311
79356W        W46139   8.790  22.063  13.504
79357W        W46140  13.166  17.188  10.272
79358W        W46141   0.271  25.995   4.001
79359W        W46142  35.391  32.042  13.612
79360W        W46143  31.352  43.289  11.184
79361W        W46144  32.497  42.915  12.469
79362W        W46145  33.829  12.154  10.915
79363W        W46146  36.029   1.867  12.484
79364W        W46147   6.207  11.214   1.200
79365W        W46148  10.060  14.773  14.850
79366W        W46149   2.421  26.054  13.502
79367W        W46150  26.626  26.315  14.453
79368W        W46151  36.172  17.512  12.587
79369W        W46152   9.984   6.589  11.596
79370W        W46153  19.166  30.139   4.610
79371W        W46154  33.435   3.690  13.304
79372W        W46155   3.989  11.617  12.396
79373W        W46156  10.803   3.211  14.223
79374W        W46157  20.924   1.389  10.913
79375W        W46158   9.535  29.481   4.138
79376W        W46159  13.644   1.097   2.758
79377W        W46160   3.967  15.448   3.729
79378W        W46161   2.916  21.961  10.771
79379W        W46162  25.527  28.623   4.194
79380W        W46163   5.200   5.340   3.796
79381W        W46164  44.951  34.872  14.271
79382W        W46165  25.592  35.547   0.731
79383W        W46166  44.676  32.715   1.787
79384W        W46167  27.272  18.969   2.065
79385W        W46168  41.436  33.047   3.644
79386W        W46169  35.701  19.464  11.523
79387W        W46170  22.726  32.947  14.685
79388W        W46171  38.640  37.478   2.279
79389W        W46172  14.118  42.012   0.487
79390W        W46173   2.188  39.785  11.251
79391W        W46174  13.381   7.798  13.725
79392W        W46175  27.378  28.719  14.270
79393W        W46176   1.910  29.904   3.700
79394W        W46177  31.132  39.055   1.337
79395W        W46178  21.682  18.676  11.561
79396W        W46179  44.707  17.247   0.867
79397W        W46180  28.539  40.079  10.662
79398W        W46181   0.259  25.268   1.193
79399W        W46182  20.808  19.615  10.226
79400W        W46183  41.802  34.438  14.487
79401W        W46184  40.374  17.020  14.914
79402W        W46185  12.790  32.930   2.262
79403W        W46186  19.046  41.978  14.530
79404W        W46187  40.160  40.044  13.992
79405W        W46188  14.763  38.001  14.735
79406W        W46189  26.110  10.569  12.217
79407W        W46190  27.630  28.092  12.589
79408W        W46191  42.432   5.192  14.305
79409W        W46192  42.005  33.913   0.853
79410W        W46193  23.099  36.751   2.324
79411W        W46194   5.901  25.494   2.727
79412W        W46195   4.954   6.243   0.805
79413W        W46196  15.471  14.378  12.862
79414W        W46197  40.044   6.194  13.130
79415W        W46198   2.575   7.789   4.383
79416W        W46199  20.556  36.812  12.024
79417W        W46200  33.165   4.892   3.873
79418W        W46201  42.786  30.174  12.548
79419W        W46202  27.003  38.576   0.327
79420W        W46203  17.928  39.834  12.930
79421W        W46204  44.449  35.470   2.397
79422W        W46205  38.587  33.462   1.705
79423W        W46206  28.448  41.617   4.727
79424W        W46207  14.608  27.387  11.018
79425W        W46208  15.032  26.117  13.035
79426W        W46209   7.372  32.918   0.112
79427W        W46210  19.242   9.062   0.335
79428W        W46211  39.745  22.180   4.056
79429W        W46212  38.993  21.836  11.359
79430W        W46213   1.524  35.351  12.888
79431W        W46214  43.030   2.724   2.386
79432W        W46215   3.873  40.809   3.906
79433W        W46216  23.233  16.798  12.469
79434W        W46217  36.307  34.535   0.811
79435W        W46218  19.819  28.097  10.443
79436W        W46219  31.345   4.090  11.598
79437W        W46220   4.882  17.485  14.829
79438W        W46221  41.360  39.567   4.016
79439W        W46222   2.807   0.757   0.651
79440W        W46223  42.461  44.004   1.610
79441W        W46224  21.670   3.406  13.502
79442W        W46225   1.878  38.546  11.077
79443W        W46226  31.487  16.353  14.837
79444W        W46227  30.352  27.117  11.998
79445W        W46228  33.567  14.908   4.367
79446W        W46229  39.577  30.196   3.691
79447W        W46230   3.747   1.033  14.967
79448W        W46231  41.360  35.110   2.229
79449W        W46232  11.681  14.162  14.272
79450W        W46233   1.250   4.978  12.426
79451W        W46234  28.999  43.860   2.623
79452W        W46235   7.622  14.574  13.384
79453W        W46236  25.089   2.171  14.690
79454W        W46237   1.011  26.493   3.042
79455W        W46238  17.559  42.039   2.361
79456W        W46239  31.384   7.641  13.948
79457W        W46240  20.287  41.226   0.505
79458W        W46241   8.798  31.578  13.101
79459W        W46242  29.845  11.209   4.794
79460W        W46243  31.058  32.346   4.216
79461W        W46244  40.511  36.389  12.381
79462W        W46245   2.540  33.138  14.886
79463W        W46246   6.738  41.278   0.498
79464W        W46247  44.952  26.167  11.043
79465W        W46248   1.023  16.546  10.586
79466W        W46249   5.147   8.213  11.867
79467W        W46250  38.979  19.287   0.946
79468W        W46251   4.029  34.927   1.860
79469W        W46252   4.841   1.716  10.681
79470W        W46253   2.036  27.532   0.511
79471W        W46254  18.617   1.880   2.496
79472W        W46255  26.577  42.482  11.248
79473W        W46256   4.286   9.831  11.971
79474W        W46257  41.792  24.932   2.896
79475W        W46258  37.313  13.798   4.179
79476W        W46259  33.935  13.264  14.892
79477W        W46260   4.721  11.099   2.720
79478W        W46261  35.041  33.602  12.030
79479W        W46262   4.415   1.065   1.227
79480W        W46263  41.090   3.729  12.840
79481W        W46264  21.296  10.362   0.706
79482W        W46265  18.588  24.071   4.149
79483W        W46266  14.283  39.034  13.560
79484W        W46267  44.797  12.363   0.907
79485W        W46268  40.952  38.221  14.410
79486W        W46269  18.513  37.041   1.617
79487W        W46270   2.995   8.585  11.190
79488W        W46271  34.071  17.364   0.440
79489W        W46272   1.953  39.827   4.379
79490W        W46273  13.692   1.394  14.940
79491W        W46274  27.529   8.635  14.697
79492W        W46275   4.029  27.620  10.644
79493W        W46276  15.695  22.845  12.155
79494W        W46277  34.068  11.204   2.751
79495W        W46278  38.838   4.606  11.847
79496W        W46279  11.892  22.604  14.063
79497W        W46280  33.373  37.137   3.794
79498W        W46281  29.319  33.142  14.415
79499W        W46282   7.027   2.624  11.144
79500W        W46283  44.502  21.343   0.377
79501W        W46284  18.047  12.715  10.584
79502W        W46285  35.968  31.619   0.690
79503W        W46286  37.115  16.120   0.732
79504W        W46287  13.271  44.528   1.374
79505W        W46288  17.121  44.329  12.328
79506W        W46289  15.295  20.752   4.106
79507W        W46290  40.434  25.503   3.870
79508W        W46291  27.598  38.676   1.873
79509W        W46292  38.808   7.585   3.243
79510W        W46293  13.717   8.481  14.527
79511W        W46294   8.956  24.879   2.694
79512W        W46295  34.914   3.723  12.002
79513W        W46296  38.073  12.391  13.360
79514W        W46297  15.609  31.974  13.558
79515W        W46298  20.495  34.174   0.681
79516W        W46299   3.177   2.309  13.323
79517W        W46300  34.264  43.861   0.409
79518W        W46301   2.267  37.854  12.147
79519W        W46302  28.644  11.705  12.835
79520W        W46303  27.614   3.769  14.983
79521W        W46304  28.529  43.549   0.732
79522W        W46305   2.262  39.103   2.681
79523W        W46306   8.273  16.749   4.477
79524W        W46307  11.669   3.811  14.590
79525W        W46308   6.989   0.259   4.619
79526W        W46309  19.857  13.311  13.834
79527W        W46310  38.247  37.089   1.437
79528W        W46311  25.631   8.665  10.610
79529W        W46312  18.834  15.592   1.956
79530W        W46313  28.070  30.139  14.407
79531W        W46314  26.839  35.423   1.410
79532W        W46315  35.839  17.953   2.748
79533W        W46316  35.860  22.577   2.126
79534W        W46317  42.372   8.947  12.466
79535W        W46318  20.282  11.704   3.878
79536W        W46319  42.600   1.519  12.511
79537W        W46320  34.050  36.469  14.227
79538W        W46321   4.283  26.951  11.160
79539W        W46322  39.971  39.310  10.933
79540W        W46323  44.439  31.575   1.365
79541W        W46324  13.183  13.780  14.317
79542W        W46325  22.084   0.074   5.087
79543W        W46326  31.100  32.795  12.525
79544W        W46327   5.364  21.891   3.372
79545W        W46328  22.149   1.822   3.639
79546W        W46329  36.027  37.099  13.887
79547W        W46330  11.961   2.668  10.787
79548W        W46331  34.782  10.191   1.825
79549W        W46332  36.493   1.922  11.072
79550W        W46333  33.259  39.508  11.044
79551W        W46334   7.036   7.868   2.295
79552W        W46335   3.673  17.776  12.647
79553W        W46336   2.106  41.837   3.839
79554W        W46337  18.368  37.431   2.159
79555W        W46338   8.099  25.949   2.277
79556W        W46339  31.963  33.844   4.732
79557W        W46340   5.871   8.506  12.046
79558W        W46341  31.587   9.908  11.540
79559W        W46342  37.099  28.678   3.831
79560W        W46343  16.128  42.044  13.541
79561W        W46344  19.996  40.019   3.697
79562W        W46345  30.505  43.711  12.135
79563W        W46346  18.571  30.500   0.904
79564W        W46347  29.941  44.316   4.672
79565W        W46348   1.226  16.739   0.411
79566W        W46349   3.042  20.768   0.393
79567W        W46350  13.897  29.574  11.150
79568W        W46351  35.292  43.189  13.418
79569W        W46352   5.199   6.965  14.276
79570W        W46353  44.701  30.862  11.849
79571W        W46354   9.285  39.443  14.582
79572W        W46355  34.968  39.321  13.966
79573W        W46356  11.395  36.888  13.238
79574W        W46357  40.432  22.179   4.631
79575W        W46358  43.698  23.936   2.251
79576W        W46359   7.467  42.967  11.145
79577W        W46360  25.614  27.100  14.719
79578W        W46361  13.913  19.174  14.966
79579W        W46362  36.518   3.434   2.416
79580W        W46363  14.808  34.374  13.924
79581W        W46364  21.594  25.054  12.049
79582W        W46365  41.801  35.686   4.844
79583W        W46366  34.036  40.110   0.692
79584W        W46367  13.259  43.038   4.666
79585W        W46368  16.090   6.803   4.802
79586W        W46369  41.219  41.960  11.937
79587W        W46370  42.980   5.883   1.947
79588W        W46371  13.257  26.979   0.209
79589W        W46372  44.402  17.355  10.301
79590W        W46373  31.996  14.491  11.568
79591W        W46374  15.164  12.353   1.423
79592W        W46375  18.447  26.614  10.699
79593W        W46376  35.936   1.475   1.784
79594W        W46377  36.123  43.318   4.494
79595W        W46378  19.712   2.791  12.899
79596W        W46379  21.019  40.072   0.814
79597W        W46380  33.452  23.162  13.458
79598W        W46381  19.926  31.703   3.353
79599W        W46382  20.113  41.514   0.894
79600W        W46383  32.462   5.955   1.669
79601W        W46384   5.139  27.888   2.880
79602W        W46385  13.344   1.000   1.134
79603W        W46386  24.606  17.560   2.374
79604W        W46387   1.966   0.084  13.470
79605W        W46388   7.704  28.082  13.982
79606W        W46389   9.378  11.333   2.105
79607W        W46390   1.200  14.593  11.118
79608W        W46391  12.374  30.078  10.629
79609W        W46392   8.306  12.374  13.973
79610W        W46393  35.889  23.487   3.794
79611W        W46394  32.976   0.868   4.817
79612W        W46395  20.233   8.484  14.682
79613W        W46396   7.088   3.011  10.809
79614W        W46397  21.254   4.786   1.922
79615W        W46398  13.733  39.577  12.945
79616W        W46399   8.723  44.549   4.496
79617W        W46400  12.781   7.082   4.073
79618W        W46401  31.336   4.459   4.294
79619W        W46402   3.038   8.443  12.443
79620W        W46403  43.241  29.927  14.510
79621W        W46404  25.222  26.577   1.802
79622W        W46405   5.302  37.982  11.755
79623W        W46406   3.073  25.760   0.359
79624W        W46407  15.023  16.506  13.445
79625W        W46408  39.291  41.632  13.970
79626W        W46409  19.855  18.739  11.305
79627W        W46410  25.147  13.573   1.405
79628W        W46411  38.864  29.186   1.912
79629W        W46412  17.598  30.744   2.261
79630W        W46413  35.253  12.818   2.682
79631W        W46414  35.960  14.179   0.571
79632W        W46415  14.003  19.655   1.328
79633W        W46416   2.482   6.620  11.461
79634W        W46417  32.353  24.704   3.752
79635W        W46418  25.674  36.999  10.694
79636W        W46419  16.717  29.640   2.820
79637W        W46420  34.537   0.866  14.235
79638W        W46421  28.566  33.445  13.475
79639W        W46422  13.166  13.813  12.736
79640W        W46423  37.095   3.416  12.549
79641W        W46424  12.855  13.789  11.053
79642W        W46425  12.329   5.462  14.288
79643W        W46426  15.065   7.837  12.601
79644W        W46427  12.518   3.816  13.949
79645W        W46428  37.362  39.340   0.480
79646W        W46429   1.840  39.198  10.482
79647W        W46430  15.279  17.492  12.518
79648W        W46431  32.311  17.259  14.281
79649W        W46432  32.547  19.161  10.270
79650W        W46433  12.794  44.837  10.702
79651W        W46434  33.072  37.343   0.341
79652W        W46435  13.314  12.803  13.074
79653W        W46436  40.288  10.652   0.440
79654W        W46437  42.710   6.255   5.010
79655W        W46438  28.680  28.614   1.796
79656W        W46439  15.089  15.199   3.221
79657W        W46440  30.644  18.682   0.037
79658W        W46441  38.753  43.805   0.275
79659W        W46442  29.016   3.973   2.693
79660W        W46443  21.998  34.579   0.733
79661W        W46444  42.980  36.413   1.454
79662W        W46445  44.732  11.546   2.327
79663W        W46446  26.662  22.967   3.655
79664W        W46447   5.103  37.100  12.050
79665W        W46448   8.282  11.891  13.275
79666W        W46449  12.795  12.119   2.744
79667W        W46450  16.307   8.702   0.807
79668W        W46451  11.162  36.295   2.664
79669W        W46452  31.392  43.643   4.245
79670W        W46453  41.487  12.828   1.229
79671W        W46454  14.053  30.882  14.139
79672W        W46455  25.507  29.315  13.047
79673W        W46456  25.577  35.783  11.121
79674W        W46457  38.004   6.553   1.826
79675W        W46458   5.822  25.062   4.272
79676W        W46459  37.392  24.649   0.748
79677W        W46460  42.304  16.586  12.587
79678W        W46461  25.568  37.011   3.177
79679W        W46462  25.187   8.195   4.284
79680W        W46463  42.908  20.568   3.080
79681W        W46464  28.655  22.882   2.233
79682W        W46465  37.621  39.282  11.907
79683W        W46466  44.702   3.709   1.289
79684W        W46467  38.104  36.963  12.812
79685W        W46468  26.570  18.400  10.241
79686W        W46469  40.261  20.201   0.756
79687W        W46470   8.881   4.593  13.020
79688W        W46471  24.754   9.687  11.207
79689W        W46472  38.026  29.095  13.318
79690W        W46473  24.191  24.583  12.942
79691W        W46474  19.535  32.102  14.498
79692W        W46475   3.581   7.010  12.912
79693W        W46476  15.300  22.165  11.983
79694W        W46477  39.117  18.124   0.334
79695W        W46478  15.433  28.968  10.473
79696W        W46479   9.846  43.484   2.254
79697W        W46480   4.970   7.740   4.612
79698W        W46481   5.421  20.195   1.793
79699W        W46482   9.283  13.362  12.097
79700W        W46483  17.242  12.046  14.806
79701W        W46484   6.746   4.711   2.849
79702W        W46485  40.410   9.236   3.573
79703W        W46486   0.565  18.684   4.138
79704W        W46487  17.327  18.137   5.021
79705W        W46488  39.949  18.814  14.060
79706W        W46489  24.061  14.244  12.453
79707W        W46490   9.187  34.647  10.484
79708W        W46491  32.947  13.434   1.609
79709W        W46492  17.809  11.356  12.032
79710W        W46493  28.982   6.984   0.787
79711W        W46494   7.268  10.158  14.348
79712W        W46495  27.396  37.063  12.120
79713W        W46496   7.855  30.719  11.588
79714W        W46497  18.291  39.245  14.423
79715W        W46498  33.626  44.422  11.307
79716W        W46499   6.681  19.013  13.621
79717W        W46500  31.401  14.075   3.232
79718W        W46501   0.825  27.613   2.382
79719W        W46502  43.300  25.606   2.595
79720W        W46503   6.836  20.966   1.835
79721W        W46504   0.939   8.201   3.872
79722W        W46505  34.766  30.443  14.033
79723W        W46506  20.572  33.823  13.090
79724W        W46507  40.943  39.340   4.321
79725W        W46508  10.696  42.955   3.220
79726W        W46509  39.071  28.558   4.677
79727W        W46510  24.707  20.514   1.815
79728W        W46511   1.277   6.422   0.312
79729W        W46512  10.909  30.076  12.998
79730W        W46513   7.061  20.686  14.454
79731W        W46514  44.799  31.116  10.776
79732W        W46515  18.964  23.680  13.016
79733W        W46516  29.524  12.360  12.914
79734W        W46517  12.778  17.048  14.986
79735W        W46518  19.578  34.712   4.598
79736W        W46519  12.137  12.190  10.419
79737W        W46520  37.643  23.220   4.540
79738W        W46521  16.632   0.797  12.195
79739W        W46522   5.758  18.873  12.715
79740W        W46523  38.869   6.986  14.006
79741W        W46524   7.453  22.624  14.504
79742W        W46525  19.229  39.143  14.449
79743W        W46526   7.684  30.933  10.717
79744W        W46527  36.543  12.508   3.653
79745W        W46528  25.429  25.257  13.451
79746W        W46529  34.258  19.267  12.979
79747W        W46530  23.074   7.833  12.497
79748W        W46531   2.231   4.646  11.689
79749W        W46532  14.302   4.028   3.818
79750W        W46533  33.653  17.974  14.597
79751W        W46534  36.341  40.881  11.646
79752W        W46535  30.241  41.603   5.192
79753W        W46536  40.078  37.951   2.258
79754W        W46537  12.247  29.280  12.895
79755W        W46538  44.203  40.286   4.083
79756W        W46539  15.782  40.447  12.358
79757W        W46540  22.705  39.436   1.186
79758W        W46541   6.277   8.289  14.311
79759W        W46542  35.627  37.090  11.389
79760W        W46543  24.910  25.106  10.725
79761W        W46544  15.424   5.892   1.186
79762W        W46545  35.953  40.738  13.388
79763W        W46546  22.696  20.233  14.306
79764W        W46547  21.798   0.605  12.665
79765W        W46548  18.195  31.879   4.572
79766W        W46549  15.361  29.153   0.880
79767W        W46550  39.295  20.524  14.331
79768W        W46551  13.759  11.188   3.213
79769W        W46552  16.862   9.820  11.317
79770W        W46553  30.134   4.257  13.092
79771W        W46554  43.706   4.987   9.759
79772W        W46555   8.406  11.141  14.421
79773W        W46556  13.160   5.972  13.197
79774W        W46557  29.074  41.550   4.279
79775W        W46558  26.959  17.200  10.759
79776W        W46559  35.920  32.646  14.564
79777W        W46560   0.362  24.473  12.977
79778W        W46561  22.752  42.307  10.618
79779W        W46562  17.157  26.578   4.197
79780W        W46563  38.620  32.316  10.678
79781W        W46564  13.663  15.150  12.620
79782W        W46565  27.658  12.642   1.797
79783W        W46566   4.579  41.255   3.554
79784W        W46567  21.621  31.008   3.678
79785W        W46568  36.342  31.500   1.335
79786W        W46569   9.170  42.411  10.896
79787W        W46570   3.822  38.538   3.709
79788W        W46571  21.530  22.134  10.892
79789W        W46572  32.170  27.593   0.055
79790W        W46573  30.300  35.306   2.483
79791W        W46574   2.954  24.383   0.336
79792W        W46575  17.004   4.856  10.891
79793W        W46576  39.575  16.716  11.532
79794W        W46577  11.884  11.192  12.589
79795W        W46578  22.603  16.064  11.834
79796W        W46579  34.649  37.934  14.386
79797W        W46580  25.007  43.268  12.191
79798W        W46581  19.660  23.162  13.548
79799W        W46582  44.424  12.732  11.860
79800W        W46583   9.441  30.035   3.281
79801W        W46584  31.745  42.920  14.297
79802W        W46585  30.373  20.059   4.019
79803W        W46586  35.641  21.537  13.880
79804W        W46587   6.087  40.265  14.008
79805W        W46588  15.742  29.578   4.342
79806W        W46589   8.309   8.694  10.942
79807W        W46590   1.669   5.230   0.999
79808W        W46591  19.710   5.583  10.938
79809W        W46592  12.792  13.140   2.864
79810W        W46593  15.064  23.689  11.642
79811W        W46594  22.802  31.031   2.258
79812W        W46595  24.463   2.753   0.270
79813W        W46596  11.741   5.787   1.862
79814W        W46597  21.716  18.154   0.555
79815W        W46598   1.489  13.340   3.535
79816W        W46599  16.343  15.909   4.592
79817W        W46600  38.276  38.366   2.949
79818W        W46601  32.393  26.545  12.435
79819W        W46602  12.770  17.769   3.695
79820W        W46603  29.953   8.988  13.392
79821W        W46604  28.969  17.236   1.845
79822W        W46605   3.373  24.480  11.989
79823W        W46606  23.400  21.368  14.398
79824W        W46607   1.009  26.537   1.758
79825W        W46608  25.909  32.205  11.498
79826W        W46609  34.453  41.519  14.138
79827W        W46610  21.503  19.619   0.316
79828W        W46611  17.043  22.717   2.698
79829W        W46612  13.899   9.518   1.962
79830W        W46613  32.610   4.064  13.954
79831W        W46614  33.991  16.329   1.303
79832W        W46615  24.236  34.603   2.111
79833W        W46616  25.080  14.618   1.978
79834W        W46617   9.263   5.185  13.766
79835W        W46618  27.016  35.754   2.825
79836W        W46619   6.140   0.903  13.820
79837W        W46620  21.187   2.939   2.841
79838W        W46621  28.211  13.862   0.608
79839W        W46622  13.556  17.269   1.726
79840W        W46623  17.570  18.119   0.917
79841W        W46624  42.001  17.289  14.871
79842W        W46625  21.279  32.439   2.764
79843W        W46626  30.642  20.136  11.315
79844W        W46627  30.428   7.368  11.084
79845W        W46628  32.967  43.293  12.514
79846W        W46629   2.765  24.788   2.403
79847W        W46630   6.452  40.931   4.089
79848W        W46631  21.734  16.373   2.309
79849W        W46632  38.038  34.865  14.064
79850W        W46633  14.252  35.815   3.723
79851W        W46634   9.752  30.404  14.925
79852W        W46635  24.023  44.293  11.040
79853W        W46636  33.113  21.045   3.703
79854W        W46637  34.155  17.619  13.308
79855W        W46638  30.927   8.164   3.121
79856W        W46639  28.389   9.963   4.844
79857W        W46640  15.551   7.635  11.644
79858W        W46641  44.458  35.955   2.753
79859W        W46642  36.807   5.231   0.946
79860W        W46643   4.791  30.772   0.387
79861W        W46644  10.480  32.083   4.488
79862W        W46645  15.350  34.495   4.681
79863W        W46646  33.685  42.620  13.913
79864W        W46647  36.727  30.463   5.134
79865W        W46648  39.747   9.277  13.299
79866W        W46649  24.639  32.902   0.327
79867W        W46650  27.926  34.875   2.327
79868W        W46651  29.163   3.235   4.569
79869W        W46652  38.232  19.501   1.609
79870W        W46653   8.414  14.285  10.615
79871W        W46654  35.965  11.702   3.581
79872W        W46655   9.630  29.146   3.602
79873W        W46656   5.663   4.065  11.094
79874W        W46657  14.315   9.296   1.276
79875W        W46658  34.900  43.441  13.690
79876W        W46659  34.057  40.889  11.431
79877W        W46660  31.370  22.616   0.371
79878W        W46661  22.598  21.809   2.392
79879W        W46662  17.986   7.597   3.159
79880W        W46663  26.876   0.422  11.015
79881W        W46664  44.298  38.067   1.647
79882W        W46665  25.427  20.676   3.301
79883W        W46666  40.396  41.603  10.320
79884W        W46667  27.560  36.322  12.358
79885W        W46668  23.235  22.319  12.574
79886W        W46669  23.502   0.868  14.464
79887W        W46670  22.049  43.410   0.668
79888W        W46671  22.996   3.386  14.251
79889W        W46672  16.562  44.759   3.099
79890W        W46673  26.872  19.631   4.534
79891W        W46674  26.707  29.034  11.112
79892W        W46675  24.811  20.493   2.778
79893W        W46676  18.206  16.072   1.516
79894W        W46677  32.184  33.156  10.067
79895W        W46678  23.487  41.010   1.875
79896W        W46679   0.386  17.070  14.321
79897W        W46680  39.825  35.326   1.807
79898W        W46681  13.540   3.346   4.140
79899W        W46682  21.681  28.107   0.002
79900W        W46683  15.114  34.470   3.697
79901W        W46684   9.699   8.064  13.614
79902W        W46685  32.347  21.036  14.807
79903W        W46686  28.251  28.720  12.981
79904W        W46687  25.032  24.184   4.786
79905W        W46688  15.269   1.210  13.882
79906W        W46689  26.761  20.551   2.877
79907W        W46690  12.833  28.650   0.841
79908W        W46691   3.940  37.788  13.360
79909W        W46692   4.279   9.478   2.233
79910W        W46693  24.111  34.986   1.727
79911W        W46694  32.959  44.444  13.509
79912W        W46695  33.042  18.970   2.244
79913W        W46696  39.678  29.815   4.606
79914W        W46697  12.891  41.399  10.638
79915W        W46698  12.275  19.064   1.873
79916W        W46699  24.205  28.677  13.042
79917W        W46700  43.836  14.949  11.668
79918W        W46701  22.046  23.287   4.550
79919W        W46702  38.541  38.720   2.646
79920W        W46703  13.300   4.415   3.257
79921W        W46704  26.559  13.371   1.526
79922W        W46705  22.694  36.903  12.597
79923W        W46706  34.275  43.469  14.958
79924W        W46707  35.300  14.330  11.950
79925W        W46708   9.357  13.896   4.931
79926W        W46709  36.582  43.914  10.728
79927W        W46710  13.886  12.239   4.509
79928W        W46711  18.918  38.486  14.375
79929W        W46712   5.171  10.720  13.546
79930W        W46713  10.905  22.166   3.275
79931W        W46714  15.641  16.243  13.686
79932W        W46715  17.265  38.218   3.247
79933W        W46716  34.159   4.383   1.643
79934W        W46717  11.303  39.107   4.950
79935W        W46718   8.802  19.078   1.055
79936W        W46719  29.447   0.750  14.467
79937W        W46720  22.129  19.196  13.658
79938W        W46721  25.332   9.640  13.937
79939W        W46722  16.659   5.542  12.144
79940W        W46723  27.096  13.204  13.954
79941W        W46724   4.247  15.149   4.135
79942W        W46725  13.293  16.765  10.584
79943W        W46726  10.929  39.856  10.488
79944W        W46727   0.382  42.364  10.677
79945W        W46728  42.778  15.156  11.860
79946W        W46729  37.354  42.087   4.675
79947W        W46730  18.600   6.157  10.971
79948W        W46731  24.146   9.625  14.500
79949W        W46732  12.185  34.825   1.732
79950W        W46733   0.899   4.421  12.397
79951W        W46734  27.369   8.634  10.988
79952W        W46735  17.244  28.145  11.474
79953W        W46736  43.784  43.066  12.125
79954W        W46737  42.324  32.209   1.130
79955W        W46738  11.057   5.725   9.794
79956W        W46739  15.008   0.884   4.967
79957W        W46740  36.329  14.165  14.802
79958W        W46741  37.159  12.826   0.009
79959W        W46742  33.254  44.800  13.047
79960W        W46743   0.562  10.677  13.651
79961W        W46744  21.891  42.282   2.283
79962W        W46745  35.455   7.888   2.739
79963W        W46746  33.320   8.027  10.287
79964W        W46747  35.948  23.602  13.415
79965W        W46748   5.922   6.429  12.057
79966W        W46749  14.060  35.682  13.407
79967W        W46750  35.585  25.960  13.928
79968W        W46751  15.838  13.406   1.068
79969W        W46752  37.921  39.158  12.598
79970W        W46753  31.407  29.149   3.138
79971W        W46754  41.024  19.322   3.094
79972W        W46755   1.185  35.339   2.411
79973W        W46756  33.116  10.190  12.645
79974W        W46757   7.802  23.222  11.167
79975W        W46758  20.500  38.287   1.298
79976W        W46759   7.147  41.819   1.817
79977W        W46760  26.640  39.708  13.596
79978W        W46761  25.214   4.422   1.405
79979W        W46762   5.661  25.884  10.769
79980W        W46763  22.607  11.358   3.766
79981W        W46764  17.388  35.072   0.117
79982W        W46765  44.689  40.816  14.458
79983W        W46766  10.103  26.765   3.208
79984W        W46767  18.559  33.543   2.607
79985W        W46768  27.859  42.668   0.761
79986W        W46769   5.938   0.460   3.721
79987W        W46770  32.107   3.172  13.472
79988W        W46771   7.819  34.515   1.058
79989W        W46772  29.898  25.353   4.328
79990W        W46773  29.182  39.756   5.028
79991W        W46774   3.717   4.771  14.233
79992W        W46775  40.278  15.897  13.692
79993W        W46776   8.712  17.697  12.391
79994W        W46777  32.428  14.379  13.855
79995W        W46778  37.556  35.574  11.488
79996W        W46779  19.675  37.365  12.551
79997W        W46780  40.611  24.531   4.678
79998W        W46781  31.350  37.061  12.534
79999W        W46782   3.418  25.198   4.988
80000W        W46783  13.127  15.033  12.018
80001W        W46784  20.533  26.629  13.110
80002W        W46785  26.097  20.142   0.672
80003W        W46786   1.506  26.465   3.157
80004W        W46787  15.654  28.548  12.520
80005W        W46788  12.367  42.295   1.680
80006W        W46789  20.931  14.992   5.495
80007W        W46790  25.656   3.202   1.587
80008W        W46791  43.895  32.217  12.208
80009W        W46792   2.689  43.062  13.013
80010W        W46793  35.442  44.765  11.670
80011W        W46794  19.357  26.574   1.204
80012W        W46795  27.554  14.629   1.393
80013W        W46796   1.347  37.350   1.680
80014W        W46797  40.756  18.800  11.589
80015W        W46798  32.355  40.879  11.049
80016W        W46799   8.855  39.123  14.683
80017W        W46800   5.737  20.271   2.710
80018W        W46801  20.719  15.523   1.371
80019W        W46802  10.709  22.285  10.601
80020W        W46803   5.319  33.177  11.455
80021W        W46804   6.542  21.046  13.532
80022W        W46805   1.690   7.739   2.295
80023W        W46806   1.796  27.037  12.145
80024W        W46807  36.171  21.174   1.761
80025W        W46808  25.940  36.425  12.974
80026W        W46809  11.198  35.611  12.588
80027W        W46810   7.936  42.090  11.093
80028W        W46811  42.531  41.399   0.794
80029W        W46812   4.497  31.990  12.014
80030W        W46813  26.280  15.176  13.004
80031W        W46814  23.647  38.879  14.803
80032W        W46815   5.247   2.724   3.658
80033W        W46816  15.866  32.586   2.620
80034W        W46817  44.304  44.865   0.215
80035W        W46818  35.887  40.290   2.336
80036W        W46819  17.251  12.233   2.314
80037W        W46820   1.868  44.317  10.494
80038W        W46821   6.508   0.924   5.079
80039W        W46822  42.488  41.535   1.755
80040W        W46823   1.339  11.155   4.720
80041W        W46824  21.577  16.114   4.396
80042W        W46825  44.962  26.107   2.530
80043W        W46826  12.336  29.520  14.243
80044W        W46827  31.742  33.407  11.559
80045W        W46828  25.232  18.150   0.319
80046W        W46829  35.370  37.287  13.834
80047W        W46830  30.446  35.790   2.346
80048W        W46831  14.610  14.547   2.255
80049W        W46832  36.489   9.306  14.425
80050W        W46833  30.484  29.410   0.343
80051W        W46834  14.690  21.301   1.807
80052W        W46835  36.554  23.237   1.692
80053W        W46836  39.890  12.719  10.949
80054W        W46837  31.987  12.852  11.170
80055W        W46838  35.434   0.828   3.952
80056W        W46839  14.816  40.154  11.290
80057W        W46840   4.449  25.609  13.311
80058W        W46841   5.210  35.100   0.721
80059W        W46842  25.488  35.085   2.433
80060W        W46843   5.621  35.145   0.382
80061W        W46844  26.566   5.698  13.021
80062W        W46845   6.730   8.661  12.039
80063W        W46846   6.639   9.245  13.552
80064W        W46847  26.980  17.667  10.547
80065W        W46848  34.153   7.176  12.921
80066W        W46849  37.507  22.047  13.509
80067W        W46850  35.301   8.718  10.753
80068W        W46851  43.479  33.469  14.885
80069W        W46852  20.177  44.993   0.458
80070W        W46853  25.755   8.277   3.017
80071W        W46854  26.176  22.135   3.918
80072W        W46855  37.549  10.706   0.087
80073W        W46856  13.232  21.136   0.025
80074W        W46857  25.725  33.622   1.819
80075W        W46858  21.362  26.750   1.302
80076W        W46859  37.814  12.314   0.302
80077W        W46860  17.534  38.855  13.381
80078W        W46861  14.859  34.926   3.795
80079W        W46862  18.102  40.434  14.969
80080W        W46863  19.689  43.178  14.356
80081W        W46864  37.492  41.790   1.458
80082W        W46865   2.288  15.846  11.145
80083W        W46866  37.863  23.583  13.073
80084W        W46867  41.383  39.647  12.096
80085W        W46868  42.396  36.843  10.685
80086W        W46869  35.420  26.839   0.300
80087W        W46870  28.955  10.172   4.715
80088W        W46871  35.973  34.881   4.761
80089W        W46872  24.313  11.781  12.951
80090W        W46873  42.387  40.932   0.512
80091W        W46874  13.697   9.695   0.925
80092W        W46875   0.276  24.595  12.011
80093W        W46876  31.094  22.183   3.714
80094W        W46877  29.656  39.269   0.724
80095W        W46878  19.616  27.563   4.359
80096W        W46879  10.689  35.455   2.657
80097W        W46880  24.560  30.408  14.256
80098W        W46881   6.964  36.277   0.052
80099W        W46882   8.842  20.139   1.208
80100W        W46883   9.878  42.906   2.746
80101W        W46884  28.496   9.124   3.630
80102W        W46885  43.728   2.200   2.685
80103W        W46886   0.452  23.210   1.066
80104W        W46887  30.439  31.533  10.851
80105W        W46888  28.143   2.000  11.118
80106W        W46889  10.883  44.982  11.572
80107W        W46890  27.915   3.420   0.734
80108W        W46891  43.342  33.385   3.414
80109W        W46892   4.926   3.731   0.886
80110W        W46893  15.841   5.604  14.556
80111W        W46894  13.181  24.221   3.672
80112W        W46895  20.758  32.657  14.814
80113W        W46896  22.682   9.172   2.189
80114W        W46897  15.029  14.581  10.780
80115W        W46898  44.963  22.504  11.301
80116W        W46899  22.711   2.484  13.848
80117W        W46900  14.143  15.214  14.812
80118W        W46901   3.228   2.220   1.792
80119W        W46902  38.954  12.870   1.171
80120W        W46903  37.363  25.828   0.774
80121W        W46904   9.727  28.636  13.445
80122W        W46905   9.382  12.694   4.630
80123W        W46906   9.086  37.514  10.795
80124W        W46907   2.173  18.722   0.259
80125W        W46908  28.477  22.613   0.563
80126W        W46909  13.510  12.246  14.314
80127W        W46910  31.915  40.548   4.353
80128W        W46911  27.878  21.311   2.639
80129W        W46912  15.615   9.733  14.620
80130W        W46913  16.072  16.333   1.543
80131W        W46914   7.323  43.069  10.671
80132W        W46915  13.324  38.970  13.577
80133W        W46916  21.272  10.718  14.444
80134W        W46917  15.337  24.682  12.413
80135W        W46918  22.162   6.843  11.445
80136W        W46919  15.127   6.310   2.731
80137W        W46920  27.135  15.906   4.399
80138W        W46921   4.229  25.140  14.511
80139W        W46922   5.917  15.231   0.358
80140W        W46923  22.653  14.224   3.096
80141W        W46924  35.391  25.769  11.487
80142W        W46925  16.761  15.833   3.647
80143W        W46926  18.829  39.307   0.397
80144W        W46927  44.684  38.102  10.991
80145W        W46928  21.194  20.494   2.768
80146W        W46929  40.064  12.196  12.074
80147W        W46930  28.250  30.596  11.598
80148W        W46931  24.017  33.059   3.181
80149W        W46932  21.788  34.385   2.667
80150W        W46933  20.162  27.529   4.716
80151W        W46934  44.281  43.507   2.651
80152W        W46935   8.804   6.380  10.738
80153W        W46936   3.241  20.391  14.575
80154W        W46937  12.876   8.294   0.951
80155W        W46938   8.742  42.864  11.785
80156W        W46939  31.391  12.542  14.720
80157W        W46940   1.341  39.561  12.931
80158W        W46941  39.571  27.893   1.315
80159W        W46942  43.947  12.283   3.212
80160W        W46943  14.159   0.768   0.329
80161W        W46944  27.610  41.910  13.333
80162W        W46945  20.498  27.282   2.552
80163W        W46946  43.045  18.206  11.789
80164W        W46947  38.388  30.948  12.056
80165W        W46948  33.904  35.979   1.657
80166W        W46949   0.941  40.869  10.537
80167W        W46950  29.209   0.434  13.846
80168W        W46951  24.049   5.320  13.496
80169W        W46952  33.580  24.905   4.120
80170W        W46953  30.359   9.161  14.933
80171W        W46954   3.023  31.490  14.109
80172W        W46955  29.250  33.210  11.686
80173W        W46956  38.449  11.201   1.747
80174W        W46957  23.967  23.091   2.886
80175W        W46958  25.480   2.524  12.177
80176W        W46959  13.938  26.511  12.945
80177W        W46960  20.968   9.370   4.632
80178W        W46961  28.928  32.409  12.504
80179W        W46962   1.503   3.752  14.782
80180W        W46963  29.987  23.484  13.724
80181W        W46964  14.849  43.407  12.871
80182W        W46965   0.063   5.583  13.122
80183W        W46966  39.166  35.908   3.333
80184W        W46967   5.717  22.763   3.530
80185W        W46968   3.340  23.996   4.883
80186W        W46969  37.621  18.639  13.431
80187W        W46970  19.585  11.236   2.622
80188W        W46971   2.681  17.728   2.946
80189W        W46972  13.193  31.099   3.379
80190W        W46973  22.340  17.682   4.162
80191W        W46974   5.682   8.354   3.336
80192W        W46975  24.472  30.203   4.139
80193W        W46976  25.538  32.486   4.350
80194W        W46977  14.075   4.295   0.793
80195W        W46978  38.207  43.314   3.793
80196W        W46979  23.964  39.611  13.015
80197W        W46980   4.403  14.845   4.538
80198W        W46981  41.939   4.888   1.317
80199W        W46982  13.165   5.298   4.319
80200W        W46983  40.136  24.940  14.293
80201W        W46984  27.179  32.198   1.802
80202W        W46985  39.823  17.761   4.924
80203W        W46986  17.813  35.591  13.710
80204W        W46987   4.178  27.001   1.753
80205W        W46988   0.223   7.247   1.495
80206W        W46989  18.437  38.850  10.710
80207W        W46990  23.086   0.622  10.620
80208W        W46991  29.788  14.666  13.648
80209W        W46992  36.812  18.122  13.075
80210W        W46993  11.763  16.103   0.842
80211W        W46994  17.267  20.167   1.618
80212W        W46995   1.696   3.422   3.686
80213W        W46996  17.635  14.366   1.173
80214W        W46997   5.214  39.952   0.017
80215W        W46998  17.765  18.499   3.313
80216W        W46999  10.404   3.339   4.671
80217W        W47000   0.033  22.935  13.436
80218W        W47001  16.685  38.812   0.827
80219W        W47002   0.884   8.661  12.004
80220W        W47003   7.146   7.483  12.449
80221W        W47004  41.048   2.085   3.869
80222W        W47005  22.715   4.802  14.406
80223W        W47006  20.645  30.508   3.261
80224W        W47007   5.210   2.258  12.109
80225W        W47008  22.085  15.125   4.328
80226W        W47009  28.089  12.975   3.628
80227W        W47010  20.633  19.344   3.978
80228W        W47011  43.227  13.299   0.028
80229W        W47012  23.030   5.849  11.120
80230W        W47013  19.848  33.404   0.258
80231W        W47014  25.724  15.537  11.064
80232W        W47015  13.031  15.220   1.619
80233W        W47016  39.387  36.341   1.403
80234W        W47017  22.176  20.647   1.116
80235W        W47018  25.633   0.177   1.416
80236W        W47019  16.687  40.790  11.448
80237W        W47020  14.607  32.964   0.691
80238W        W47021   7.086  36.702  11.134
80239W        W47022  42.917  31.622  14.109
80240W        W47023  33.696  23.328   1.557
80241W        W47024  42.790   8.680   0.844
80242W        W47025   8.139   3.110   3.785
80243W        W47026   0.689   2.722  11.472
80244W        W47027  34.551  43.436  12.358
80245W        W47028  34.012  43.976   1.092
80246W        W47029  11.145  10.904  10.283
80247W        W47030  21.140  39.939   1.657
80248W        W47031  43.192  36.026   4.598
80249W        W47032  42.722  37.224   1.456
80250W        W47033  11.711  28.042  14.758
80251W        W47034  39.483  34.589  13.399
80252W        W47035  12.882  34.555   0.388
80253W        W47036  12.793  19.386  14.394
80254W        W47037   3.874  17.380  13.560
80255W        W47038  27.292  22.862  14.736
80256W        W47039   3.961  14.195  11.377
80257W        W47040  11.393  14.202  14.978
80258W        W47041  14.302  38.021   4.558
80259W        W47042   4.001  39.104  12.583
80260W        W47043  12.019  33.021  11.467
80261W        W47044  12.558  18.291  10.731
80262W        W47045   5.495  26.140  12.126
80263W        W47046  41.033  25.301   0.453
80264W        W47047  21.590  27.032  11.951
80265W        W47048  32.995  32.150   0.802
80266W        W47049  26.952   2.996  11.166
80267W        W47050  10.762  11.606  14.312
80268W        W47051  31.443   5.196  12.850
80269W        W47052  25.528  32.334  14.767
80270W        W47053   4.357  29.244   4.083
80271W        W47054   5.674   4.367  13.360
80272W        W47055  44.102   9.295  11.622
80273W        W47056  42.986  28.665  12.404
80274W        W47057  41.511  17.834   0.372
80275W        W47058   4.711  12.139   2.788
80276W        W47059  16.650  20.414   1.955
80277W        W47060  20.568  23.641   1.928
80278W        W47061  16.332  10.810   0.036
80279W        W47062   3.190  27.846  14.786
80280W        W47063  42.560  11.334   1.650
80281W        W47064  20.108  38.524   1.054
80282W        W47065  14.283  18.036  13.615
80283W        W47066  34.018  14.643  11.669
80284W        W47067  44.688  14.030   5.383
80285W        W47068   9.775  44.552   1.221
80286W        W47069  41.187   4.349   3.597
80287W        W47070  44.947  33.714   4.160
80288W        W47071   3.720  34.193   4.919
80289W        W47072  15.521  33.040   0.044
80290W        W47073   9.083   6.049   0.489
80291W        W47074  21.082  42.097  10.567
80292W        W47075  31.130  29.557   3.269
80293W        W47076  30.318  18.887   2.096
80294W        W47077  37.373  38.820  12.091
80295W        W47078  38.862   4.009  11.853
80296W        W47079  22.135  11.135   3.146
80297W        W47080  38.973  39.849   3.702
80298W        W47081  40.019   4.966  11.973
80299W        W47082  32.169  43.936  14.263
80300W        W47083  42.898  16.675  12.082
80301W        W47084  22.507  37.367   0.310
80302W        W47085  19.337  37.082   2.234
80303W        W47086  30.090  31.475  12.132
80304W        W47087   1.283  35.096   1.965
80305W        W47088  43.081   2.215   2.214
80306W        W47089  38.900  32.687  13.482
80307W        W47090  27.202  40.570  13.427
80308W        W47091  12.120  42.938   2.349
80309W        W47092   7.653   7.732   0.620
80310W        W47093   1.349  42.017   4.419
80311W        W47094   1.381  37.024  10.272
80312W        W47095  44.324  13.874   1.365
80313W        W47096  38.539  39.377   4.618
80314W        W47097  40.148   0.258  13.906
80315W        W47098  41.201  36.485   3.163
80316W        W47099  24.445  44.800  13.112
80317W        W47100  20.106  32.960   3.747
80318W        W47101  42.110  33.421  13.369
80319W        W47102   3.183   6.076   0.742
80320W        W47103   0.808   7.462   0.762
80321W        W47104   9.116  14.315  11.845
80322W        W47105   3.464   2.307   1.336
80323W        W47106  40.760  28.604   0.017
80324W        W47107  21.390  12.174  14.887
80325W        W47108   2.154  21.728   0.407
80326W        W47109  33.914  41.425   1.728
80327W        W47110  16.410  20.520   3.325
80328W        W47111  12.625  11.808   4.225
80329W        W47112  36.366   9.889   0.284
80330W        W47113   8.352  15.784   1.265
80331W        W47114  28.682  16.352   0.925
80332W        W47115  25.147  16.309   0.416
80333W        W47116   4.474   1.136   0.413
80334W        W47117  29.174   3.644   1.643
80335W        W47118   1.389  13.157  14.339
80336W        W47119   2.364   8.284   3.636
80337W        W47120  17.760  10.934   4.467
80338W        W47121  14.192  37.149  12.523
80339W        W47122  31.355  35.632   1.307
80340W        W47123  30.639   5.353   2.833
80341W        W47124  42.936  34.424   4.841
80342W        W47125  20.188   1.469  11.948
80343W        W47126  32.387  34.509  12.431
80344W        W47127   2.238  15.615  14.867
80345W        W47128  12.854  42.722   0.479
80346W        W47129  15.416  11.380  12.374
80347W        W47130  11.516  28.653   3.748
80348W        W47131  25.486  18.630   2.355
80349W        W47132  28.929   8.734   1.202
80350W        W47133   4.721  39.245   4.214
80351W        W47134  34.068  32.515  11.503
80352W        W47135  14.398  36.004   2.233
80353W        W47136   9.107  16.593  13.844
80354W        W47137  19.285   8.182  13.319
80355W        W47138   8.130   0.764   2.876
80356W        W47139  20.220  27.088   3.806
80357W        W47140   0.885   5.770   1.431
80358W        W47141  44.820  31.423  12.972
80359W        W47142  41.563  32.611   2.040
80360W        W47143  37.025  11.360   1.435
80361W        W47144  20.213  44.357  12.772
80362W        W47145  10.555  12.083  11.130
80363W        W47146  42.749   4.339   0.447
80364W        W47147  24.826  15.075   1.863
80365W        W47148  19.182   8.942  11.554
80366W        W47149  14.738  25.588  11.129
80367W        W47150  20.635  36.124  14.681
80368W        W47151  44.955  37.315   2.880
80369W        W47152  25.134  13.069   1.303
80370W        W47153   4.958  20.545   0.000
80371W        W47154  33.465   1.270   1.394
80372W        W47155  44.807   0.372   2.769
80373W        W47156  18.228  16.996  11.394
80374W        W47157  34.836  21.658  14.239
80375W        W47158  12.813   1.691   3.693
80376W        W47159  18.171  18.649   1.699
80377W        W47160  29.624  29.929  14.331
80378W        W47161  27.662  39.512  10.756
80379W        W47162  14.117  27.724   4.220
80380W        W47163  32.420   8.133  11.519
80381W        W47164  23.809  28.076   4.548
80382W        W47165  36.640  10.142  14.079
80383W        W47166  28.537   6.179  14.381
80384W        W47167  23.099  37.266  13.462
80385W        W47168  44.463   5.783   4.789
80386W        W47169  12.124  10.665  10.703
80387W        W47170  39.570  29.195   3.348
80388W        W47171  40.088  36.181   4.997
80389W        W47172   1.569  21.458  14.361
80390W        W47173  31.441  25.982   3.253
80391W        W47174   1.520  12.764   1.263
80392W        W47175  33.296  14.093   4.548
80393W        W47176  26.778   2.256  10.658
80394W        W47177   7.596  43.811  13.380
80395W        W47178   2.423  28.283   4.207
80396W        W47179   4.956  36.890  12.581
80397W        W47180  24.528  16.667   3.556
80398W        W47181  24.224  29.045   3.177
80399W        W47182  31.567  18.744   0.025
80400W        W47183   5.149  24.700   2.373
80401W        W47184   6.311  19.813   3.430
80402W        W47185  31.565  39.937  11.458
80403W        W47186  16.319  33.619  14.857
80404W        W47187  39.177  26.986   3.448
80405W        W47188  31.703   1.358   4.307
80406W        W47189  33.011  32.436   0.363
80407W        W47190  32.814  24.169   4.955
80408W        W47191  15.517  15.726  11.133
80409W        W47192  43.774  11.296   2.199
80410W        W47193   8.285  39.479   5.082
80411W        W47194  30.084  37.357   0.194
80412W        W47195  26.097  16.233  11.642
80413W        W47196  10.223  23.812   4.621
80414W        W47197  34.080  28.437  11.182
80415W        W47198  23.513  34.916  14.510
80416W        W47199  43.768  35.334  10.857
80417W        W47200   6.360  26.411   2.712
80418W        W47201   2.160  30.168   1.361
80419W        W47202  14.206  21.989  13.874
80420W        W47203   7.185  18.511  12.745
80421W        W47204  38.375  43.858  11.311
80422W        W47205  18.553   0.328  11.969
80423W        W47206  34.570  15.322   4.936
80424W        W47207  26.070  18.954   2.807
80425W        W47208  36.304  30.436   3.076
80426W        W47209   9.327  25.195  13.870
80427W        W47210  20.744  24.448  12.932
80428W        W47211  43.223  31.075   0.107
80429W        W47212  19.555  44.243   1.038
80430W        W47213  17.088  28.510  11.821
80431W        W47214   1.368   4.361   1.227
80432W        W47215   5.350  21.610  12.534
80433W        W47216   6.255   6.926  10.696
80434W        W47217  13.989   7.308   3.147
80435W        W47218  19.232   9.581   0.275
80436W        W47219  25.520  41.785  12.462
80437W        W47220  17.028  20.200   4.116
80438W        W47221  23.583  32.167   3.916
80439W        W47222  12.692  22.961  12.273
80440W        W47223  28.236  18.619  14.064
80441W        W47224  30.126  42.419  14.807
80442W        W47225  43.984  12.119   1.681
80443W        W47226  31.852  30.998   2.712
80444W        W47227  20.014  27.172   2.277
80445W        W47228   7.789   5.896  14.980
80446W        W47229  11.244  41.491   1.742
80447W        W47230   1.052   2.195   3.223
80448W        W47231  32.505  39.516  11.993
80449W        W47232  32.630  17.319  10.356
80450W        W47233  32.607  42.904   0.161
80451W        W47234  44.194  29.524   4.736
80452W        W47235  40.531  18.623   2.327
80453W        W47236  14.782  13.679  12.963
80454W        W47237   6.347  43.281   4.280
80455W        W47238  14.156   4.667  13.447
80456W        W47239  31.357  12.754  11.822
80457W        W47240  13.364  30.598   1.723
80458W        W47241  36.428  43.125  14.793
80459W        W47242  19.814  35.580  14.381
80460W        W47243  31.085  44.395   4.513
80461W        W47244   2.443   4.763   3.719
80462W        W47245  16.352  28.306  12.062
80463W        W47246  11.339  11.201   3.210
80464W        W47247  38.895  23.497  14.360
80465W        W47248  19.971   2.202  10.620
80466W        W47249  26.527  32.804  10.180
80467W        W47250  21.199   7.619  10.743
80468W        W47251  32.685   1.463   3.139
80469W        W47252   5.403   8.325  12.725
80470W        W47253   6.697   7.896  11.557
80471W        W47254  33.879  35.829  11.233
80472W        W47255  35.788  38.734   4.455
80473W        W47256   0.325   9.591   4.205
80474W        W47257  28.990  28.302   4.806
80475W        W47258  10.230  13.323  11.029
80476W        W47259  36.839  42.392   4.191
80477W        W47260  39.831   6.588  10.903
80478W        W47261  27.638  31.326   3.833
80479W        W47262   9.565  22.523   3.335
80480W        W47263  34.525  20.519  13.548
80481W        W47264  26.534   0.308   1.991
80482W        W47265   4.359  38.211   2.445
80483W        W47266  29.024  40.484  11.607
80484W        W47267  20.777  20.559   4.335
80485W        W47268  42.724  16.418   4.263
80486W        W47269  25.321  31.195   1.820
80487W        W47270  35.873  34.764  12.476
80488W        W47271  31.127  18.894  10.223
80489W        W47272  40.029  30.842  11.971
80490W        W47273  10.917  44.346   2.439
80491W        W47274  19.956  41.690  12.891
80492W        W47275  29.741  37.871  12.593
80493W        W47276  19.521  42.900  12.565
80494W        W47277  36.833  21.176   2.452
80495W        W47278  20.130   4.989  12.112
80496W        W47279   0.338  24.430  11.534
80497W        W47280  30.422   2.220  12.426
80498W        W47281   8.237  12.904  14.016
80499W        W47282   4.177  44.219  12.392
80500W        W47283  33.972   9.243  10.847
80501W        W47284  42.093  37.649   1.850
80502W        W47285   6.323   5.470  11.875
80503W        W47286  38.067  15.139   0.063
80504W        W47287   6.323  17.212   0.183
80505W        W47288  28.523  25.335  11.384
80506W        W47289  34.666   8.719   0.996
80507W        W47290  44.721  16.771   0.038
80508W        W47291  29.875  11.894  11.203
80509W        W47292  35.172  22.681   1.691
80510W        W47293  44.242   6.640  14.040
80511W        W47294  37.646  23.623   0.785
80512W        W47295   8.583   0.060  13.834
80513W        W47296  16.058  20.562   1.371
80514W        W47297  11.740  42.414  11.476
80515W        W47298   2.956  43.838  11.640
80516W        W47299   0.917  35.850  11.593
80517W        W47300  28.660  27.229   1.419
80518W        W47301  31.191  26.022   3.714
80519W        W47302   3.876  40.761   1.250
80520W        W47303  40.752  42.859   1.915
80521W        W47304  23.987  37.936   1.797
80522W        W47305  20.491  26.248  12.337
80523W        W47306  27.446   4.726  13.493
80524W        W47307   2.322   5.428  13.099
80525W        W47308   5.458  15.225  11.530
80526W        W47309  42.189  30.282  13.977
80527W        W47310  41.340  15.640   3.947
80528W        W47311  40.469  37.861  11.600
80529W        W47312  12.169  35.528   4.769
80530W        W47313  35.129  35.447   3.373
80531W        W47314  40.492   6.637  11.397
80532W        W47315  38.615  35.055   3.245
80533W        W47316  34.138  11.229  11.509
80534W        W47317  31.571   6.417   4.637
80535W        W47318  39.477  16.797  12.467
80536W        W47319  35.569  24.984   0.485
80537W        W47320  38.897   4.349   2.453
80538W        W47321  15.667  28.485  14.517
80539W        W47322  39.758   4.715   2.801
80540W        W47323  13.800  34.387  11.985
80541W        W47324  36.597  37.891   0.253
80542W        W47325  33.865  14.673   2.852
80543W        W47326  40.610  24.250   1.891
80544W        W47327  26.106  41.384  14.927
80545W        W47328  13.043  26.570   3.891
80546W        W47329   3.451  14.213  11.480
80547W        W47330  31.512  36.530   4.700
80548W        W47331  29.254  20.139  11.381
80549W        W47332  36.304   6.413  12.072
80550W        W47333  19.320  13.169   2.327
80551W        W47334  25.052  36.580   0.236
80552W        W47335   8.743  37.747   4.622
80553W        W47336  34.463  41.236   1.853
80554W        W47337  35.701  22.074   4.610
80555W        W47338   9.092  19.543  13.303
80556W        W47339  25.261  38.140  11.217
80557W        W47340  12.714   7.820   0.768
80558W        W47341  39.005  10.297   3.626
80559W        W47342  15.237  38.301  11.762
80560W        W47343  40.566  37.620  13.895
80561W        W47344  23.638  24.155   2.786
80562W        W47345  16.658  44.416  12.507
80563W        W47346  26.745  23.640   1.102
80564W        W47347  41.846  39.974  11.046
80565W        W47348  13.103  29.115   3.598
80566W        W47349  22.038  20.443   3.644
80567W        W47350  18.832  13.704   2.817
80568W        W47351  22.958  31.809   2.729
80569W        W47352  25.442  39.505   2.183
80570W        W47353  35.775   3.924  12.645
80571W        W47354  26.994   3.656   4.735
80572W        W47355   0.931  34.464  13.569
80573W        W47356  14.302  17.357  11.133
80574W        W47357  24.726   2.514  14.887
80575W        W47358  12.869  22.763   0.371
80576W        W47359  29.699   2.267   1.404
80577W        W47360  28.197  19.076  14.886
80578W        W47361  24.259   1.970  12.904
80579W        W47362   9.694  17.297   0.711
80580W        W47363  33.502  20.014  12.194
80581W        W47364  33.420  20.155   2.457
80582W        W47365  28.012  23.106  11.214
80583W        W47366  26.530  36.110   0.670
80584W        W47367  22.670  19.219  11.611
80585W        W47368   0.836  14.058   0.897
80586W        W47369  17.261  30.523  13.072
80587W        W47370   6.103  42.823   3.302
80588W        W47371   4.328  33.081  14.364
80589W        W47372  26.007  19.566   3.984
80590W        W47373  31.596  18.407   1.392
80591W        W47374  43.060  20.011   1.850
80592W        W47375  23.468   8.935   4.557
80593W        W47376   2.226  11.575  11.069
80594W        W47377  23.147  40.406   2.469
80595W        W47378  21.568  35.099   2.276
80596W        W47379   5.723  40.103  11.996
80597W        W47380  12.680  10.312  12.419
80598W        W47381  26.922  36.563   0.708
80599W        W47382   4.346   0.573   1.278
80600W        W47383  31.208   3.732  11.162
80601W        W47384  34.811  22.139   0.958
80602W        W47385  25.489  20.044   0.328
80603W        W47386  16.540  40.355  13.768
80604W        W47387   0.067   3.330  14.548
80605W        W47388  25.577  28.398  10.559
80606W        W47389  38.829  12.668   0.679
80607W        W47390   3.925   6.731   3.905
80608W        W47391  42.845   2.445   3.571
80609W        W47392  12.098  20.537  11.877
80610W        W47393  41.952   1.263  13.452
80611W        W47394  29.183  25.210  11.135
80612W        W47395  28.052  26.548  12.818
80613W        W47396  44.156  13.148  12.059
80614W        W47397  37.993  21.372   0.184
80615W        W47398  39.378  16.357  11.204
80616W        W47399  23.577  24.408   3.608
80617W        W47400   6.682   9.935   2.186
80618W        W47401   7.292  33.562   4.448
80619W        W47402  21.542  27.556  10.792
80620W        W47403   8.380  36.537  14.333
80621W        W47404   3.234   8.844  14.005
80622W        W47405  12.171   0.352  14.406
80623W        W47406   3.572  16.708  11.655
80624W        W47407  24.643  29.116  11.413
80625W        W47408  29.184  33.696  11.538
80626W        W47409  16.468  35.803  14.095
80627W        W47410  31.399  44.181   1.419
80628W        W47411  42.407   0.027   2.895
80629W        W47412  21.659  20.265  13.503
80630W        W47413  29.427  25.041  11.559
80631W        W47414  42.917   6.857  12.017
80632W        W47415  43.246  43.467   0.947
80633W        W47416  23.724  40.145   3.526
80634W        W47417   4.774  31.924  11.547
80635W        W47418  39.023  27.677   4.271
80636W        W47419   1.289  23.653  10.914
80637W        W47420  43.380  44.628  12.845
80638W        W47421  20.696  43.466  14.105
80639W        W47422  24.622  11.766   2.703
80640W        W47423   2.201  28.540  11.405
80641W        W47424   2.241  42.504   1.136
80642W        W47425  31.107  44.842   4.232
80643W        W47426   6.965  35.744   1.732
80644W        W47427  42.410  39.798  14.708
80645W        W47428  23.632  30.331   1.972
80646W        W47429  41.851   5.166  13.595
80647W        W47430   1.866  23.067   4.738
80648W        W47431  25.490  25.012  12.977
80649W        W47432   9.256  42.953  11.633
80650W        W47433  12.163  10.376  12.465
80651W        W47434  24.600  15.944   1.749
80652W        W47435   1.724  35.368  14.445
80653W        W47436   1.551  37.518   3.753
80654W        W47437  30.021   2.002  10.726
80655W        W47438  36.814  15.708   2.032
80656W        W47439   3.161   4.838  13.303
80657W        W47440  25.961  36.906  11.174
80658W        W47441  10.097  27.524  13.670
80659W        W47442  24.894   8.720  12.111
80660W        W47443   8.560  18.240   4.054
80661W        W47444  20.071  27.648   1.712
80662W        W47445  25.754  37.533   0.356
80663W        W47446  44.121  38.633  10.403
80664W        W47447  31.063   0.247  13.975
80665W        W47448  28.412  40.341  14.835
80666W        W47449  17.737   4.061  14.388
80667W        W47450   2.983   2.542  12.898
80668W        W47451  37.006  23.756   1.958
80669W        W47452   6.231  15.685   4.478
80670W        W47453  37.418  22.009  14.918
80671W        W47454  30.624  23.839   3.448
80672W        W47455  14.847  43.860  13.426
80673W        W47456  39.614  19.741  11.181
80674W        W47457  25.074  40.463  12.352
80675W        W47458  34.942  10.855  14.878
80676W        W47459  40.861  24.535  11.669
80677W        W47460  39.530   5.791   3.169
80678W        W47461   7.784   7.518   4.253
80679W        W47462  17.186  36.315  10.662
80680W        W47463   6.899   4.326   3.617
80681W        W47464   4.913  27.591   0.932
80682W        W47465  10.761  31.038  10.706
80683W        W47466  37.477  36.110  10.795
80684W        W47467  34.295   8.167  11.600
80685W        W47468  10.340  37.314  11.539
80686W        W47469  35.186   2.196   0.885
80687W        W47470  14.837  41.788   0.778
80688W        W47471   1.817  37.758  13.119
80689W        W47472  40.836   1.076  11.007
80690W        W47473  10.679  17.334  14.966
80691W        W47474  22.576  40.314   3.098
80692W        W47475  34.780  13.171   1.641
80693W        W47476  19.596  40.421   3.598
80694W        W47477  43.366  38.522   2.349
80695W        W47478  18.000   2.241  14.888
80696W        W47479  17.106   5.979   0.180
80697W        W47480  44.752  13.938   3.123
80698W        W47481  19.734  44.700   0.377
80699W        W47482  25.547  34.159   1.434
80700W        W47483  15.724   3.200  14.504
80701W        W47484  16.094   4.186  11.597
80702W        W47485  26.532  41.745  12.435
80703W        W47486  20.905  19.550  12.056
80704W        W47487  30.161  28.581  14.459
80705W        W47488  41.997  36.174  13.392
80706W        W47489   9.096  22.243  12.921
80707W        W47490  31.674  29.014  13.464
80708W        W47491   2.864  24.585  11.152
80709W        W47492  36.642  15.160  13.952
80710W        W47493  21.942  28.868   1.860
80711W        W47494   7.386  20.661  13.144
80712W        W47495  35.974  22.226   2.474
80713W        W47496   0.844  31.618   2.842
80714W        W47497  34.997  25.486  11.605
80715W        W47498  22.318  18.196   1.022
80716W        W47499  24.893  14.204  11.050
80717W        W47500  25.948  17.848  12.532
80718W        W47501  18.322  44.240   5.007
80719W        W47502  28.465  10.351  13.086
80720W        W47503  35.501  12.772  11.786
80721W        W47504  12.225  26.178   4.587
80722W        W47505  43.828   5.933  10.633
80723W        W47506  39.183   8.855  10.798
80724W        W47507  20.724  30.890  13.067
80725W        W47508  19.025  43.857  12.470
80726W        W47509  30.679  10.314  11.797
80727W        W47510  38.613  27.260   0.770
80728W        W47511  21.589  10.709  13.356
80729W        W47512  21.012  13.585  14.580
80730W        W47513  18.563   0.520  12.434
80731W        W47514  19.032  14.249   3.803
80732W        W47515  29.412  40.841  14.840
80733W        W47516  31.168  10.499  11.944
80734W        W47517  29.050  28.109   1.180
80735W        W47518  16.990  38.163   1.815
80736W        W47519  34.814  33.026  12.864
80737W        W47520  24.562  29.927  10.622
80738W        W47521  25.564  27.500  11.609
80739W        W47522   2.765   1.019  11.092
80740W        W47523  43.962  33.160  12.187
80741W        W47524   3.274   8.376   4.227
80742W        W47525  24.960  43.024  13.100
80743W        W47526  11.656  16.306   2.264
80744W        W47527  43.205  30.614   3.162
80745W        W47528  35.693   1.866   1.214
80746W        W47529  34.429  32.854   4.524
80747W        W47530  18.143  22.230   0.199
80748W        W47531  32.058  37.544   0.359
80749W        W47532  14.178   5.843  12.934
80750W        W47533   2.088  42.836   1.530
80751W        W47534  38.420   1.876  12.111
80752W        W47535  11.799  13.197  11.199
80753W        W47536   8.199   9.340   4.413
80754W        W47537  18.084  30.570   2.346
80755W        W47538  25.463   7.477  10.262
80756W        W47539  23.686  14.640   4.117
80757W        W47540  18.740  24.645   2.898
80758W        W47541  16.404  43.798  14.286
80759W        W47542  36.361  15.321   3.435
80760W        W47543  14.074  30.336   2.871
80761W        W47544   2.814  21.891   4.975
80762W        W47545  15.033  40.466   0.553
80763W        W47546  37.833   2.262  10.763
80764W        W47547  35.710  18.289  10.043
80765W        W47548  40.082   4.978   2.250
80766W        W47549  30.431  11.253   3.652
80767W        W47550   9.341   3.818  10.899
80768W        W47551  11.769  10.206   3.576
80769W        W47552   0.892   3.442   4.132
80770W        W47553   6.316  44.428  12.373
80771W        W47554  11.377  21.126  12.156
80772W        W47555  40.294  11.743  12.107
80773W        W47556  29.234   5.721  11.621
80774W        W47557  35.903  31.213  14.690
80775W        W47558  35.096   8.796   3.640
80776W        W47559  23.113  13.368   4.286
80777W        W47560  11.132  31.529   2.858
80778W        W47561  23.518   9.971   3.806
80779W        W47562  30.429   9.959  14.546
80780W        W47563  32.690   1.101   1.788
80781W        W47564  21.576  18.630   1.294
80782W        W47565  22.503  29.085  11.975
80783W        W47566  19.362  10.269   1.924
80784W        W47567   8.795   7.296   1.534
80785W        W47568  20.269  17.538   3.294
80786W        W47569  35.859  18.622  11.000
80787W        W47570   9.087  16.965  11.495
80788W        W47571  14.893   5.392   2.320
80789W        W47572  34.898  20.770   2.897
80790W        W47573  20.495  16.212   0.397
80791W        W47574  11.207  12.186  11.738
80792W        W47575   0.684  17.522  13.234
80793W        W47576  31.604  29.087   2.672
80794W        W47577   6.369  21.323  13.971
80795W        W47578  42.552   6.254   3.188
80796W        W47579   8.027  15.322   4.828
80797W        W47580  12.853  24.098  13.051
80798W        W47581  11.743  35.911   3.393
80799W        W47582  33.704   1.828   1.386
80800W        W47583  43.335  22.415  11.638
80801W        W47584  43.412   5.904  11.919
80802W        W47585  12.023  17.082  10.726
80803W        W47586  40.871   2.366  14.883
80804W        W47587  40.893  44.391  12.546
80805W        W47588  30.080  20.851  14.481
80806W        W47589  12.711   1.479  14.032
80807W        W47590  29.811   1.025   1.641
80808W        W47591   8.633   2.207   0.482
80809W        W47592  24.596   0.068   3.127
80810W        W47593  36.731  14.842   1.269
80811W        W47594  37.879  37.774  10.486
80812W        W47595  17.758   7.681  11.042
80813W        W47596   2.220  23.496  14.980
80814W        W47597  10.509  22.633  11.640
80815W        W47598  27.736  22.039   0.815
80816W        W47599  19.675  32.662  12.405
80817W        W47600  40.590  25.262   0.724
80818W        W47601  35.139   8.327   1.738
80819W        W47602  23.875  20.183  13.770
80820W        W47603  21.407  19.167  10.695
80821W        W47604  39.679  34.894  12.434
80822W        W47605  20.130  19.138  12.968
80823W        W47606  18.034  40.276  12.585
80824W        W47607  11.800  22.676   4.915
80825W        W47608  19.124  23.599   0.314
80826W        W47609  14.605   9.118  10.229
80827W        W47610  13.944  35.197   0.613
80828W        W47611   8.720   5.265  11.688
80829W        W47612   6.659  38.289   1.507
80830W        W47613  40.878  12.690   2.787
80831W        W47614  26.380  12.329  12.159
80832W        W47615   9.821  16.307  11.830
80833W        W47616  25.426  10.835   1.493
80834W        W47617  42.434  38.108   1.354
80835W        W47618   8.632  15.108  11.075
80836W        W47619   7.876  16.586  13.423
80837W        W47620  40.641   8.712   9.604
80838W        W47621  43.291  12.934  13.698
80839W        W47622  36.085   1.439   1.283
80840W        W47623   5.358  39.726   1.758
80841W        W47624  33.134  31.817  12.060
80842W        W47625  24.113  34.140   4.553
80843W        W47626  13.030  40.005  12.303
80844W        W47627   9.805  25.160  14.086
80845W        W47628   8.392  34.604  12.927
80846W        W47629  44.531  24.076   4.234
80847W        W47630  12.399  25.503   1.474
80848W        W47631   0.875   5.848   1.953
80849W        W47632  22.516  14.355   4.725
80850W        W47633  16.003  25.604  14.991
80851W        W47634  21.173  42.500   4.865
80852W        W47635   1.676  22.066  13.016
80853W        W47636  19.713   9.002  11.593
80854W        W47637   1.972  24.156  14.599
80855W        W47638   4.675  21.734  11.547
80856W        W47639  13.707  31.101  10.738
80857W        W47640  42.776   0.307  14.687
80858W        W47641  16.722  34.318   3.259
80859W        W47642  21.630   4.173   1.052
80860W        W47643   7.371  29.299   4.541
80861W        W47644  14.624  32.943  14.841
80862W        W47645  16.190  36.760   3.145
80863W        W47646  10.685  32.433   1.331
80864W        W47647  40.758  32.810   1.740
80865W        W47648  20.292  29.442   4.607
80866W        W47649  16.521  16.853   3.564
80867W        W47650  32.919  21.512   1.939
80868W        W47651  24.696   7.405  14.969
80869W        W47652  10.296  17.962   3.738
80870W        W47653  22.026   1.323   0.820
80871W        W47654  36.866  39.991   0.475
80872W        W47655   4.650   2.285   2.218
80873W        W47656  22.960  13.128   2.630
80874W        W47657  26.647  12.096  12.526
80875W        W47658  41.495  16.545  12.885
80876W        W47659  14.786  20.429   0.487
80877W        W47660  25.945  34.222   3.108
80878W        W47661  16.775  22.070  13.090
80879W        W47662  32.523  17.505   2.727
80880W        W47663  32.594  24.129   4.489
80881W        W47664  25.837  27.588  14.788
80882W        W47665   0.003  14.135   0.327
80883W        W47666  17.658   1.178   0.333
80884W        W47667   3.845   1.254  14.500
80885W        W47668  11.106  37.405   0.007
80886W        W47669  28.072  21.014  11.997
80887W        W47670   5.140  44.407   2.660
80888W        W47671  36.636  25.186  14.778
80889W        W47672   3.701  10.200  14.667
80890W        W47673   5.413  36.137   4.507
80891W        W47674  20.710   9.856   4.519
80892W        W47675   0.929   3.257   1.999
80893W        W47676  36.924   4.467  14.436
80894W        W47677  18.419  14.542   4.520
80895W        W47678  11.313  11.302   0.686
80896W        W47679   9.441  28.068   1.359
80897W        W47680  28.911   5.662  12.003
80898W        W47681  15.740  20.496  11.928
80899W        W47682  14.707  40.769   3.269
80900W        W47683  32.373  33.415   2.270
80901W        W47684  28.743  36.975  13.073
80902W        W47685  24.613  34.587  12.531
80903W        W47686  26.161  34.524  13.456
80904W        W47687   1.259  19.602   1.922
80905W        W47688  20.790  40.099  10.153
80906W        W47689  38.115  26.184   4.754
80907W        W47690  35.906  11.864   4.058
80908W        W47691  12.652   5.469  14.878
80909W        W47692   9.406  41.317  13.786
80910W        W47693  27.672  15.237   2.268
80911W        W47694  13.344  19.226  13.334
80912W        W47695   4.792  20.533   0.927
80913W        W47696   7.143  39.809  14.829
80914W        W47697  28.269   2.472  13.440
80915W        W47698  39.492  29.951  12.557
80916W        W47699  23.966  21.808  14.939
80917W        W47700  16.734  15.088  11.129
80918W        W47701  39.028  41.776   2.729
80919W        W47702  16.107  24.131   4.637
80920W        W47703  44.313   0.004   3.702
80921W        W47704   9.265  12.167   3.895
80922W        W47705   9.024  33.022   0.200
80923W        W47706   5.285   0.430  12.797
80924W        W47707  35.874  27.502   0.699
80925W        W47708  33.650  18.962   9.800
80926W        W47709  32.864  37.565  11.050
80927W        W47710  25.691   2.836   0.753
80928W        W47711  16.566  29.534   4.834
80929W        W47712  15.782   3.776  10.895
80930W        W47713  34.134  43.413   3.563
80931W        W47714  43.252  25.038  13.793
80932W        W47715  40.017  41.995  11.162
80933W        W47716  36.594  16.765  11.491
80934W        W47717  36.803   3.839  12.432
80935W        W47718  35.799  34.115   3.302
80936W        W47719   8.160  34.015  14.523
80937W        W47720  28.064   7.882  11.090
80938W        W47721   9.595   8.913  10.624
80939W        W47722  18.657  19.261  12.910
80940W        W47723   7.337  38.280   3.268
80941W        W47724  38.087  22.122  10.951
80942W        W47725  24.223  34.365  11.537
80943W        W47726  25.805   2.124   0.494
80944W        W47727  30.669  12.338   3.221
80945W        W47728   4.750  21.126  12.890
80946W        W47729   9.365  11.086  10.653
80947W        W47730  22.166  33.092   4.607
80948W        W47731   1.399  16.022   3.736
80949W        W47732  21.861   7.875  11.986
80950W        W47733   3.939  42.333  10.911
80951W        W47734  37.453  30.313  13.410
80952W        W47735  27.239  39.008  11.554
80953W        W47736  15.646  19.250   4.706
80954W        W47737  24.829   6.427   3.780
80955W        W47738   0.889  40.347  12.808
80956W        W47739  29.711  40.005   0.075
80957W        W47740   7.309   8.421   2.823
80958W        W47741  44.753  27.092  13.139
80959W        W47742  15.958  27.236  13.926
80960W        W47743  22.598  19.573   2.366
80961W        W47744   2.264  43.379  11.047
80962W        W47745  29.530  11.593   0.220
80963W        W47746  19.694  30.066   4.571
80964W        W47747  30.499  17.346  14.835
80965W        W47748  26.031  35.130   0.945
80966W        W47749  26.950  24.036   2.451
80967W        W47750  32.965  28.854  12.563
80968W        W47751   3.065  12.973   4.253
80969W        W47752  17.289  18.618   3.167
80970W        W47753  30.029   8.420   4.609
80971W        W47754  18.378  20.586   1.062
80972W        W47755  40.739  37.793   4.589
80973W        W47756  30.513  37.836  12.082
80974W        W47757  30.540  38.450   2.672
80975W        W47758  44.306   9.378   4.493
80976W        W47759   2.292  17.571   1.668
80977W        W47760  14.977  17.357   2.237
80978W        W47761  40.262  18.189  12.908
80979W        W47762  39.255  41.567   1.500
80980W        W47763  33.936  14.553   0.915
80981W        W47764  32.655  28.915   1.751
80982W        W47765   2.316  32.572  11.512
80983W        W47766  37.789  25.954   4.335
80984W        W47767  44.243  10.751   1.901
80985W        W47768   8.267  21.096   3.697
80986W        W47769  22.971  40.124   0.528
80987W        W47770   6.356  18.232  10.358
80988W        W47771   9.315  13.807   1.284
80989W        W47772  29.044  10.733  12.542
80990W        W47773   1.291  38.598   0.384
80991W        W47774  25.991  35.227   1.709
80992W        W47775  28.185  28.994   0.179
80993W        W47776  32.424  41.541  14.337
80994W        W47777  15.756  28.261   2.382
80995W        W47778  22.954   8.827  11.488
80996W        W47779  37.035  12.398  14.034
80997W        W47780  30.575  29.357  13.463
80998W        W47781  23.227  12.942   2.232
80999W        W47782  27.606   4.181  11.089
81000W        W47783   5.031  16.472   3.434
81001W        W47784  35.856  40.093  14.347
81002W        W47785  30.435  42.975   3.332
81003W        W47786  24.220  16.222   1.024
81004W        W47787  13.571   6.248   0.250
81005W        W47788  42.077  18.725   2.259
81006W        W47789  25.022   5.390  14.876
81007W        W47790  34.183   7.836   0.652
81008W        W47791   3.041  36.895  13.900
81009W        W47792  17.749   4.277   0.314
81010W        W47793  15.788  41.454   4.677
81011W        W47794   0.777  27.962   1.398
81012W        W47795  38.422   1.478   1.763
81013W        W47796  15.469   5.447   2.749
81014W        W47797  43.427   6.772  12.049
81015W        W47798  42.185  27.989   2.253
81016W        W47799  33.008  37.209   1.262
81017W        W47800  29.006   6.942  11.634
81018W        W47801  11.658  16.701  14.247
81019W        W47802  27.167   4.411  13.833
81020W        W47803  39.079  33.489   9.984
81021W        W47804  27.499  10.749   4.469
81022W        W47805   7.245  33.460   0.413
81023W        W47806  34.303  14.781  11.228
81024W        W47807  11.244   5.829   3.249
81025W        W47808  42.303   6.200   4.700
81026W        W47809  11.287  31.438  14.349
81027W        W47810  40.302   9.795  13.845
81028W        W47811   8.744  30.503   1.928
81029W        W47812  13.686   3.250  12.960
81030W        W47813  37.098  33.054  10.685
81031W        W47814  27.160   1.690  11.435
81032W        W47815  13.062  13.507  12.019
81033W        W47816  16.864  35.939   0.874
81034W        W47817  44.253  42.862   4.646
81035W        W47818  14.764  22.497  12.952
81036W        W47819  41.564  37.430  14.746
81037W        W47820   6.418  18.723  14.350
81038W        W47821  42.096  41.062   2.360
81039W        W47822   6.360   4.906   4.607
81040W        W47823  20.264  40.836   4.076
81041W        W47824  39.883  15.359   2.190
81042W        W47825  42.303  25.236  13.353
81043W        W47826  41.733  30.194  13.779
81044W        W47827  27.699  34.631  10.677
81045W        W47828  32.620   3.276  13.541
81046W        W47829  26.017  17.740  10.735
81047W        W47830   5.037  34.743  14.738
81048W        W47831  23.406   7.232  11.133
81049W        W47832  38.024  37.191   0.459
81050W        W47833  18.319  17.995  10.610
81051W        W47834   0.471   7.210  12.397
81052W        W47835  20.992   5.428   3.217
81053W        W47836  41.248  10.779   0.921
81054W        W47837  10.154  34.416   3.307
81055W        W47838  34.197  41.554  12.495
81056W        W47839  14.749  40.338  10.822
81057W        W47840  36.861  36.525   2.770
81058W        W47841  17.388   2.290  11.075
81059W        W47842  39.367  38.780  14.212
81060W        W47843  13.487  26.358   3.075
81061W        W47844  25.869  33.094  12.597
81062W        W47845  24.959  19.179   0.742
81063W        W47846  37.841  12.184   1.881
81064W        W47847  30.069   8.250   2.733
81065W        W47848  15.497  12.382  12.081
81066W        W47849  27.620   2.430   4.106
81067W        W47850   1.433  42.215   2.808
81068W        W47851  31.063  23.603   4.216
81069W        W47852  13.391  20.438   3.222
81070W        W47853  40.286   7.319  14.991
81071W        W47854  40.736  41.553   3.910
81072W        W47855  13.590  26.409   5.131
81073W        W47856  30.499  35.874   3.346
81074W        W47857   3.935  18.703   0.201
81075W        W47858  39.517  10.782   3.248
81076W        W47859  35.104  43.855  13.975
81077W        W47860  19.269  21.157  10.697
81078W        W47861  21.679  26.056   0.326
81079W        W47862  14.992  33.167   4.161
81080W        W47863   9.140  36.624   3.648
81081W        W47864  39.840  25.749   0.207
81082W        W47865  37.110   9.430   3.718
81083W        W47866   8.870  31.401   1.689
81084W        W47867  11.715  28.433   0.310
81085W        W47868  26.473   3.291   0.564
81086W        W47869   1.488  44.166  11.111
81087W        W47870  44.076  11.740   4.555
81088W        W47871  11.584  37.491  10.626
81089W        W47872   2.359  26.043   4.948
81090W        W47873  29.619  16.628  13.420
81091W        W47874  20.280   4.630  14.358
81092W        W47875  30.151  19.381   9.694
81093W        W47876   8.742   8.728  14.137
81094W        W47877  16.933   0.443  14.436
81095W        W47878   6.238  28.218   4.221
81096W        W47879  11.636  43.463  13.456
81097W        W47880  10.555  16.306   1.288
81098W        W47881  25.976  31.578   0.853
81099W        W47882  43.880  16.139  13.000
81100W        W47883   1.499  11.364  14.441
81101W        W47884  18.701   1.413  12.418
81102W        W47885  30.187   8.619   4.132
81103W        W47886   6.165  33.498   1.172
81104W        W47887  32.566  29.789   1.968
81105W        W47888   1.738  26.250  12.576
81106W        W47889   8.870  35.085  12.525
81107W        W47890  42.077  43.973  13.287
81108W        W47891  22.216  32.840  14.874
81109W        W47892  10.762   0.071   3.328
81110W        W47893   7.733   3.681  11.760
81111W        W47894  22.791  15.146  13.639
81112W        W47895  18.165  43.056  13.406
81113W        W47896  12.783  24.696   2.725
81114W        W47897  34.610   0.015   3.271
81115W        W47898  23.486  14.163  11.034
81116W        W47899  20.499  10.295  13.970
81117W        W47900  17.604   0.519   3.901
81118W        W47901  19.751  22.464  10.790
81119W        W47902  17.774  20.975   4.106
81120W        W47903   3.883  35.400   1.033
81121W        W47904  13.697   0.241   1.389
81122W        W47905  23.609  11.394  13.995
81123W        W47906   8.453   0.991  11.629
81124W        W47907   9.924   4.494  12.783
81125W        W47908   0.544   0.718   0.794
81126W        W47909  20.167  32.945   4.627
81127W        W47910  27.303  33.117  13.374
81128W        W47911  27.235   9.951   1.643
81129W        W47912   0.764  30.609  12.461
81130W        W47913  22.571  24.764   4.953
81131W        W47914  38.271   3.176  11.171
81132W        W47915  22.133  17.880   1.767
81133W        W47916  24.923  10.395   0.557
81134W        W47917  38.784   0.502  14.610
81135W        W47918  31.984   7.430  14.925
81136W        W47919  40.995  43.454   2.699
81137W        W47920  24.437  33.834   4.209
81138W        W47921  29.442   7.261  12.961
81139W        W47922  17.870   7.188  11.135
81140W        W47923  11.455  33.149   9.951
81141W        W47924  12.263  29.857   4.742
81142W        W47925  40.274  27.486   0.543
81143W        W47926   4.923  18.586  13.747
81144W        W47927  21.240  36.431  13.884
81145W        W47928  12.861  12.203  14.076
81146W        W47929  44.643  43.881  12.297
81147W        W47930  43.185   8.044  14.022
81148W        W47931  10.889  36.302  10.411
81149W        W47932  20.629  16.262  11.050
81150W        W47933  12.189   5.390   1.220
81151W        W47934  26.997   9.378   3.949
81152W        W47935   2.247  42.485   3.686
81153W        W47936  42.577   8.449  14.961
81154W        W47937  38.997  29.205  10.196
81155W        W47938  40.572  31.097  11.695
81156W        W47939   8.852  40.540  12.532
81157W        W47940  27.250  22.599  12.552
81158W        W47941  29.196  19.365   3.181
81159W        W47942  30.230  28.782  12.653
81160W        W47943  24.246  42.315  13.512
81161W        W47944  17.183   9.734  11.711
81162W        W47945   5.554   2.236  11.251
81163W        W47946  22.475   3.265   3.046
81164W        W47947   3.296  32.512   2.675
81165W        W47948  36.873   1.453   4.544
81166W        W47949  28.695   7.919  10.519
81167W        W47950  30.934   3.928   4.717
81168W        W47951   9.730  34.489   1.711
81169W        W47952  36.472  26.471   1.364
81170W        W47953  27.623  35.032   1.236
81171W        W47954  43.568  36.453   3.901
81172W        W47955  10.557  34.045   3.264
81173W        W47956  43.704   5.780  12.334
81174W        W47957  21.746  29.890  11.113
81175W        W47958  20.771  19.067   1.190
81176W        W47959   4.333  33.433   2.896
81177W        W47960   1.801   1.276   4.354
81178W        W47961  16.117  29.681  14.913
81179W        W47962  20.891  38.524   2.107
81180W        W47963   1.848  44.931  14.380
81181W        W47964   2.499  28.497  14.711
81182W        W47965   3.441  11.099   4.138
81183W        W47966  40.468   5.953   0.730
81184W        W47967  22.307  17.389   0.522
81185W        W47968   7.328  12.944   3.653
81186W        W47969  38.308   4.693  13.917
81187W        W47970  22.570   6.910  11.126
81188W        W47971  33.139  41.821   4.439
81189W        W47972  21.542   5.939   1.241
81190W        W47973   4.334   0.067   2.703
81191W        W47974  34.432  31.869   0.300
81192W        W47975  27.518  37.317  12.552
81193W        W47976  24.011  14.291   2.648
81194W        W47977  10.052  43.471   2.745
81195W        W47978  41.004  29.877   2.763
81196W        W47979  17.589   1.801   2.412
81197W        W47980   3.670  41.007  12.274
81198W        W47981   2.866  14.142  13.715
81199W        W47982  39.793  39.295   2.675
81200W        W47983  28.061  29.225   3.694
81201W        W47984  37.366  16.585   2.322
81202W        W47985  28.742  40.470  12.268
81203W        W47986   7.171   5.978  13.339
81204W        W47987  23.978   2.194  12.105
81205W        W47988  37.100   2.069  13.596
81206W        W47989  32.403   5.913  12.931
81207W        W47990  28.109  40.894  11.918
81208W        W47991  20.364  21.077   1.338
81209W        W47992  16.312  38.760   1.188
81210W        W47993  34.879  23.939   0.326
81211W        W47994  23.575  41.602   4.492
81212W        W47995  34.499  21.839   0.561
81213W        W47996  22.494  17.175  11.600
81214W        W47997  36.106  36.917  14.369
81215W        W47998  26.608   4.815  12.550
81216W        W47999   3.398  12.578   0.922
81217W        W48000  41.953  10.905   4.581
81218W        W48001  10.958   9.253   2.368
81219W        W48002  25.206   4.358  13.527
81220W        W48003  26.067  19.384   4.961
81221W        W48004   6.898  27.420   2.918
81222W        W48005  19.797  27.281  14.296
81223W        W48006  29.096  10.655   4.884
81224W        W48007  29.285  29.087   3.136
81225W        W48008  22.639  41.090  14.424
81226W        W48009  31.965  29.876   1.276
81227W        W48010  17.849   4.272  13.936
81228W        W48011  17.243  10.419  10.075
81229W        W48012   0.722  19.250  13.044
81230W        W48013  14.073   2.204  14.063
81231W        W48014  23.268  16.352   1.447
81232W        W48015  40.512  42.427  12.394
81233W        W48016  37.836  19.601  11.982
81234W        W48017   0.643  30.653   4.890
81235W        W48018  32.516  12.793   1.282
81236W        W48019  18.335  16.245   2.018
81237W        W48020  31.914  42.533  13.078
81238W        W48021  41.740   6.658  14.775
81239W        W48022  41.910   7.366   2.063
81240W        W48023  21.347  38.946  11.579
81241W        W48024  21.010  38.789  12.552
81242W        W48025  41.561  21.441  10.640
81243W        W48026   0.328  35.949   2.626
81244W        W48027  25.885  27.514  13.041
81245W        W48028  39.744  33.727  13.441
81246W        W48029  20.711  32.835  11.452
81247W        W48030  13.163  13.371  12.488
81248W        W48031  40.386   3.327  11.067
81249W        W48032  41.231  13.303   1.255
81250W        W48033  36.520   8.864   1.252
81251W        W48034  31.540  28.004  12.969
81252W        W48035  40.389  40.060   2.266
81253W        W48036   4.272  15.788   2.859
81254W        W48037  12.212  24.247   0.799
81255W        W48038  43.941   5.750   4.680
81256W        W48039  39.508  21.470   3.834
81257W        W48040  30.612  42.264  13.446
81258W        W48041  28.562   9.628  12.351
81259W        W48042   8.287  32.846  12.709
81260W        W48043  13.640  30.194  12.170
81261W        W48044  19.302  24.058  14.549
81262W        W48045  30.860  14.181   3.258
81263W        W48046  42.042  19.476  11.984
81264W        W48047   7.869  39.274   4.205
81265W        W48048  20.601  30.111   0.915
81266W        W48049  17.613  38.594  14.306
81267W        W48050  25.579  34.470  14.590
81268W        W48051  24.468  44.040   4.291
81269W        W48052  14.164  22.474  11.551
81270W        W48053  34.235  15.949   5.090
81271W        W48054   0.898  10.095   3.372
81272W        W48055  13.620  23.231   3.314
81273W        W48056  41.034  18.006  13.389
81274W        W48057  21.970   2.996  12.635
81275W        W48058  43.572  22.308  14.903
81276W        W48059   1.742  40.408  13.250
81277W        W48060   0.868  39.773   1.820
81278W        W48061   3.401  28.795  14.371
81279W        W48062  41.301  36.013  11.805
81280W        W48063  11.768  40.181   3.296
81281W        W48064  19.064  32.587  14.567
81282W        W48065  42.628   8.754   2.591
81283W        W48066  19.191  38.111  12.039
81284W        W48067   3.581  15.165   2.700
81285W        W48068  25.416  40.358  13.571
81286W        W48069  10.320  32.658   2.765
81287W        W48070  43.622  25.822  14.878
81288W        W48071  26.813  33.860   3.208
81289W        W48072   0.846  15.049  10.476
81290W        W48073  41.346  41.933   0.376
81291W        W48074  24.454  39.337  14.890
81292W        W48075  26.044  38.740  10.244
81293W        W48076  25.072  12.396   3.604
81294W        W48077   6.990  28.487  10.706
81295W        W48078  41.590  39.565   3.524
81296W        W48079  39.031   5.859  14.962
81297W        W48080  23.174  23.920   1.768
81298W        W48081   8.614   0.415   0.054
81299W        W48082  12.927  42.458   3.246
81300W        W48083  22.492  23.021   4.581
81301W        W48084   0.713  42.902   1.166
81302W        W48085   3.010   5.410   2.395
81303W        W48086   6.860  39.899  10.386
81304W        W48087  16.602  44.912  12.621
81305W        W48088  22.290  21.006  13.920
81306W        W48089   8.890  15.085  10.609
81307W        W48090  34.037   2.768  12.602
81308W        W48091  31.532  32.447   0.747
81309W        W48092  39.923  17.401   3.123
81310W        W48093   6.895  28.326  13.443
81311W        W48094  22.693  32.366  10.901
81312W        W48095  20.187  11.635  14.409
81313W        W48096  29.530  36.625  14.348
81314W        W48097   5.928  31.364  10.660
81315W        W48098  10.020  35.500  11.591
81316W        W48099   8.155  39.553  14.452
81317W        W48100  24.815  15.094  14.990
81318W        W48101   9.897  11.116   4.103
81319W        W48102   2.782  10.739   0.707
81320W        W48103  20.310  19.574  12.737
81321W        W48104  17.350  32.065   1.329
81322W        W48105  20.494   1.462  13.803
81323W        W48106  23.200  19.407   1.889
81324W        W48107  35.888  30.209  12.587
81325W        W48108  41.152  28.967  10.801
81326W        W48109  11.254  41.504   4.970
81327W        W48110   9.650   2.307   3.574
81328W        W48111  39.822  30.973  14.387
81329W        W48112  14.726   1.975   0.759
81330W        W48113  25.785  44.863   2.726
81331W        W48114   3.927  40.278   1.091
81332W        W48115  16.499   8.311   4.169
81333W        W48116  15.234  34.885   1.312
81334W        W48117  31.496  29.566   1.340
81335W        W48118  26.184   8.729  11.428
81336W        W48119  38.442  17.959  12.666
81337W        W48120  19.668  10.107  10.668
81338W        W48121   4.709  35.102   2.544
81339W        W48122   2.355  28.092  10.800
81340W        W48123  43.537   9.197  13.932
81341W        W48124  32.627  43.482   4.613
81342W        W48125   2.237   0.782  14.280
81343W        W48126  28.037  10.732   2.847
81344W        W48127  22.795  31.122  12.094
81345W        W48128  30.522  40.234   3.251
81346W        W48129  34.833  12.456  13.166
81347W        W48130  10.529   8.353   1.929
81348W        W48131  42.488  37.293  14.395
81349W        W48132  24.970  25.146  13.659
81350W        W48133  36.414   8.219   0.774
81351W        W48134  24.261   5.729   5.063
81352W        W48135  11.307  24.893   4.803
81353W        W48136  17.452  20.170   4.456
81354W        W48137  41.655   2.363  11.420
81355W        W48138  44.517  40.370  14.977
81356W        W48139  34.197   4.521   3.123
81357W        W48140  28.364  22.562   1.797
81358W        W48141  12.281  31.905  10.388
81359W        W48142   9.299  24.458  14.401
81360W        W48143  41.334  40.112  13.198
81361W        W48144  32.865   6.486   4.556
81362W        W48145  14.844  26.602   4.208
81363W        W48146  42.695  21.010   3.826
81364W        W48147  17.177   5.999  14.646
81365W        W48148  44.261  39.071  11.140
81366W        W48149  27.178   3.258  14.894
81367W        W48150  13.083  35.251  13.429
81368W        W48151   0.322   7.672   4.589
81369W        W48152  33.718  42.101  13.684
81370W        W48153   3.099  15.049  11.961
81371W        W48154  32.906  32.633   3.747
81372W        W48155  10.663  43.254  14.410
81373W        W48156  40.583  28.690   1.394
81374W        W48157   3.276  29.885  12.043
81375W        W48158  21.725  44.184  10.522
81376W        W48159  29.092   1.835  12.004
81377W        W48160  26.525  44.522  10.969
81378W        W48161   9.202  10.830   1.467
81379W        W48162  38.043  44.927   2.118
81380W        W48163  32.996  14.388   2.795
81381W        W48164  18.313  33.139   1.679
81382W        W48165  41.032  34.602   3.866
81383W        W48166  16.503  20.113  11.823
81384W        W48167  40.456  22.685   2.246
81385W        W48168  22.926   0.393  11.923
81386W        W48169  34.589  13.859   1.931
81387W        W48170  38.996  25.942   4.119
81388W        W48171   0.889  10.821   2.738
81389W        W48172  41.041  33.068   1.339
81390W        W48173  39.385   8.522  14.245
81391W        W48174  20.189  34.564   0.477
81392W        W48175   3.351   7.112   1.729
81393W        W48176  31.718  25.088  12.530
81394W        W48177   4.757  37.013  11.144
81395W        W48178   2.178  31.474  14.802
81396W        W48179  19.033  18.357  13.236
81397W        W48180  31.395  24.155  12.047
81398W        W48181  17.195  43.998   4.893
81399W        W48182   8.156  22.782   0.620
81400W        W48183  16.328   1.286  12.874
81401W        W48184  20.621  40.104   4.452
81402W        W48185   5.329   4.170   0.089
81403W        W48186  37.668  39.370   1.412
81404W        W48187  41.252  18.574   4.067
81405W        W48188  44.591  39.050   3.258
81406W        W48189  24.008  17.185   1.325
81407W        W48190  12.287  12.378  14.992
81408W        W48191  24.203   5.350  11.125
81409W        W48192  42.602  27.120  14.595
81410W        W48193  22.200  14.600   4.302
81411W        W48194   3.781  11.909  11.124
81412W        W48195  26.944  37.616  11.708
81413W        W48196  27.584  19.564   0.451
81414W        W48197  26.729  40.032   2.288
81415W        W48198  36.456   7.983   2.638
81416W        W48199  26.202   7.786  11.600
81417W        W48200  30.881  17.799   0.464
81418W        W48201  38.331  25.719   4.685
81419W        W48202  20.057  43.516  13.346
81420W        W48203   7.506  25.496   4.150
81421W        W48204  38.284  37.093  10.373
81422W        W48205  15.312  19.409   0.946
81423W        W48206  42.016  34.547   1.479
81424W        W48207  39.959  35.189   4.597
81425W        W48208  41.895   4.787   3.788
81426W        W48209   6.364  10.207  14.815
81427W        W48210  20.804  12.135  14.023
81428W        W48211  37.825  28.698   3.366
81429W        W48212  15.327  19.720  11.459
81430W        W48213  22.464  12.068   4.934
81431W        W48214  12.734   6.275   4.588
81432W        W48215  18.017  44.404   3.208
81433W        W48216  20.633  34.275   4.638
81434W        W48217  40.368  12.844  11.065
81435W        W48218  38.881  31.126  11.179
81436W        W48219  26.147  28.087  13.308
81437W        W48220  26.511   9.780   0.822
81438W        W48221  18.361   9.572  11.510
81439W        W48222   9.926   6.262  12.985
81440W        W48223  36.283  29.621  10.708
81441W        W48224  27.196  37.867   4.137
81442W        W48225  19.547  40.598  11.626
81443W        W48226  24.514   7.704  13.600
81444W        W48227  22.523  10.778  12.446
81445W        W48228  12.612  12.824   0.011
81446W        W48229  42.171  32.971  14.814
81447W        W48230  41.558  10.082   3.708
81448W        W48231  33.173  42.442  10.947
81449W        W48232  34.981  18.342  13.559
81450W        W48233  19.499  11.183  12.286
81451W        W48234  23.599   4.909  12.967
81452W        W48235  31.605   2.688   2.082
81453W        W48236  20.094   6.458  12.062
81454W        W48237  28.477  29.936   0.940
81455W        W48238  12.214  18.839   4.339
81456W        W48239   7.818  43.907  13.827
81457W        W48240  18.107  38.868   1.941
81458W        W48241  40.749  26.170  14.518
81459W        W48242  40.974  18.862  14.161
81460W        W48243  10.559  12.607  11.069
81461W        W48244  37.388  42.791  10.652
81462W        W48245  41.494   4.453  12.742
81463W        W48246  42.281  14.549   0.486
81464W        W48247  30.110  42.024   4.202
81465W        W48248  10.122  25.084   0.530
81466W        W48249  25.587  24.066  14.548
81467W        W48250  13.008  20.830   2.754
81468W        W48251  39.435  15.724   3.913
81469W        W48252  34.587  11.121  12.383
81470W        W48253  14.220  12.565  11.436
81471W        W48254   5.374  13.560  10.719
81472W        W48255  25.466  40.969   1.869
81473W        W48256  18.248  28.156  12.383
81474W        W48257  38.319   6.054   5.334
81475W        W48258  13.648  27.859   4.418
81476W        W48259  34.945  23.142   2.762
81477W        W48260   0.579  41.598  13.324
81478W        W48261  15.804  31.127  14.137
81479W        W48262  34.827  29.233  12.914
81480W        W48263  43.558  37.597   2.622
81481W        W48264  37.543   0.422  14.047
81482W        W48265  39.982  11.064  11.089
81483W        W48266   9.657  25.682   1.905
81484W        W48267   8.087  23.985  13.389
81485W        W48268  44.310  41.486   4.869
81486W        W48269   3.119   0.935   2.617
81487W        W48270  32.484  14.309   2.345
81488W        W48271   1.282   0.683   4.677
81489W        W48272  10.384  32.013   3.161
81490W        W48273  28.979  24.264  14.412
81491W        W48274  26.924  16.615   0.962
81492W        W48275  23.417   5.199  13.959
81493W        W48276   0.901  32.834  11.928
81494W        W48277  36.084  25.838  14.022
81495W        W48278  22.789  18.629   2.224
81496W        W48279  17.076  20.508   4.573
81497W        W48280  34.409  17.260   2.766
81498W        W48281   0.173  30.151  11.658
81499W        W48282   7.250   7.906  13.164
81500W        W48283  28.580  42.353   2.705
81501W        W48284  41.956  25.462  12.853
81502W        W48285   9.955   6.492   2.451
81503W        W48286  13.581   6.139   1.308
81504W        W48287  30.600  31.896   2.193
81505W        W48288  25.212  26.862   5.394
81506W        W48289  39.828  21.447  12.616
81507W        W48290  24.087   3.232  12.033
81508W        W48291  15.602  12.738   2.291
81509W        W48292   9.456  42.319   1.911
81510W        W48293  40.102  14.858  11.569
81511W        W48294   9.157  25.274  11.515
81512W        W48295  44.934  21.066   0.757
81513W        W48296  15.906  24.557   2.550
81514W        W48297  16.427   1.909   2.742
81515W        W48298  16.871  15.826  11.569
81516W        W48299  30.143  27.458  14.424
81517W        W48300  20.688   0.059   4.655
81518W        W48301  36.017  17.127  14.353
81519W        W48302  25.595  34.541  10.621
81520W        W48303  26.909  35.313  12.045
81521W        W48304  14.203   5.378   3.728
81522W        W48305  37.255   2.831   1.225
81523W        W48306  39.505  31.638   1.327
81524W        W48307  40.682  20.448  13.854
81525W        W48308  28.927  23.039  11.705
81526W        W48309   2.367  34.522   1.424
81527W        W48310  17.013   8.181   0.796
81528W        W48311  23.678  33.646   2.408
81529W        W48312   0.937  23.297   4.179
81530W        W48313  38.515   1.299   1.290
81531W        W48314  14.515  25.523   1.155
81532W        W48315   9.388  12.290  13.264
81533W        W48316  33.019   9.329  12.117
81534W        W48317  29.178  24.095  12.539
81535W        W48318  43.365  28.660  14.000
81536W        W48319  30.416  21.691  11.124
81537W        W48320  33.907  15.677  11.618
81538W        W48321   8.257   3.097  12.209
81539W        W48322   9.367   1.323   2.265
81540W        W48323  10.453  23.857  10.728
81541W        W48324  18.107  12.736  11.530
81542W        W48325   4.725  15.152   2.270
81543W        W48326   9.971  31.418   0.774
81544W        W48327  23.124  32.643   0.242
81545W        W48328  11.817  32.511   3.353
81546W        W48329   5.232  19.257  14.993
81547W        W48330  37.460  44.032   0.468
81548W        W48331  17.640   1.954  12.505
81549W        W48332  23.152  13.902   4.230
81550W        W48333   9.770  17.375  13.758
81551W        W48334  36.490  35.089   1.023
81552W        W48335  13.269   9.390   2.725
81553W        W48336   2.315   6.424   3.358
81554W        W48337  44.468  25.522  10.406
81555W        W48338  13.735  18.487   4.786
81556W        W48339  38.879  29.675   1.722
81557W        W48340  18.810   5.131  11.052
81558W        W48341  21.547  33.929   2.780
81559W        W48342  23.013  20.768  12.405
81560W        W48343  15.532  32.892  11.219
81561W        W48344  32.675  25.074   3.572
81562W        W48345  23.191  38.535  13.829
81563W        W48346   9.816  13.806  13.095
81564W        W48347  24.661  22.527   1.940
81565W        W48348  25.950  18.427   0.776
81566W        W48349   4.150  16.019  14.441
81567W        W48350   5.931  13.827   3.241
81568W        W48351   7.880  18.053  11.551
81569W        W48352   3.130  15.810  10.860
81570W        W48353   1.963   8.847  10.323
81571W        W48354  15.093  12.873   4.637
81572W        W48355  37.096  40.094   1.262
81573W        W48356  32.867  22.751   4.550
81574W        W48357  25.876  13.694  14.240
81575W        W48358  13.575  24.278  14.282
81576W        W48359  18.663  25.435  13.845
81577W        W48360  25.979   6.793   0.872
81578W        W48361  18.537   7.345  13.880
81579W        W48362   3.360   1.288  14.733
81580W        W48363  40.825  16.640  14.269
81581W        W48364  24.187   5.908  14.870
81582W        W48365  32.280  32.068   4.092
81583W        W48366  28.754  33.398  11.586
81584W        W48367  41.843  24.141  14.757
81585W        W48368  32.346  37.536  11.197
81586W        W48369  44.891   0.527   3.708
81587W        W48370   6.425  34.348   2.866
81588W        W48371   8.010   2.033  10.715
81589W        W48372  15.266   4.648   2.171
81590W        W48373  26.141  23.261  11.441
81591W        W48374  28.674  42.850   2.563
81592W        W48375  44.555   2.243  10.245
81593W        W48376  22.195  23.731   2.893
81594W        W48377  21.775   1.697  14.448
81595W        W48378  30.975  20.521   0.202
81596W        W48379  15.745  34.960   2.549
81597W        W48380   8.822   3.219  12.474
81598W        W48381  38.147  34.144   2.389
81599W        W48382   0.186  19.390  14.365
81600W        W48383  11.800  37.241   3.550
81601W        W48384  32.919   5.419   0.318
81602W        W48385  30.032  23.726   2.469
81603W        W48386   1.789   0.473   3.249
81604W        W48387  42.220  42.451   1.685
81605W        W48388  39.414  17.257   4.368
81606W        W48389  32.856  18.080  11.045
81607W        W48390  18.260   3.482   1.403
81608W        W48391  39.998  41.884   1.325
81609W        W48392  30.998  36.255   2.963
81610W        W48393  32.183  24.749  12.990
81611W        W48394   8.601  25.626  12.785
81612W        W48395  44.475  15.053   4.967
81613W        W48396  31.144   4.715  13.907
81614W        W48397  21.490   2.367  14.788
81615W        W48398  21.109  23.499  14.484
81616W        W48399  11.091  10.250   2.691
81617W        W48400   7.139  35.092   1.166
81618W        W48401  15.545   2.771   2.901
81619W        W48402  24.553  30.520  14.758
81620W        W48403  17.197  10.482   2.812
81621W        W48404  28.706  29.896  13.938
81622W        W48405  30.947  20.752  13.633
81623W        W48406  43.205  21.947  13.518
81624W        W48407  13.526  35.438   3.616
81625W        W48408  26.093  41.743   1.742
81626W        W48409  34.909   0.556  11.652
81627W        W48410   5.180   4.207  10.705
81628W        W48411  19.088  30.369   4.151
81629W        W48412   0.221  33.589  14.353
81630W        W48413  29.287   6.793   0.378
81631W        W48414  30.494  26.248   0.965
81632W        W48415  22.627  43.827  11.253
81633W        W48416  41.541  35.337   4.107
81634W        W48417   2.235  28.484   3.761
81635W        W48418  25.637  31.427  13.066
81636W        W48419  22.226  30.123   3.710
81637W        W48420  27.750  13.353   2.845
81638W        W48421  32.424  14.009  13.226
81639W        W48422  21.509   8.675   1.019
81640W        W48423   3.233   9.685  12.012
81641W        W48424  22.496  44.341   3.601
81642W        W48425  19.233  24.777   3.331
81643W        W48426   7.180  16.083  10.847
81644W        W48427  28.678  37.861   4.515
81645W        W48428  33.398   6.602   2.352
81646W        W48429  39.785  13.776   3.252
81647W        W48430  35.356  14.207  13.814
81648W        W48431  14.065   1.429   0.937
81649W        W48432  15.148  34.635   4.186
81650W        W48433  12.933  18.161  12.000
81651W        W48434   4.623   1.784   3.619
81652W        W48435  34.027  16.570  12.986
81653W        W48436  42.235  34.380  10.802
81654W        W48437  32.359   5.646  14.749
81655W        W48438  14.175  35.345  12.974
81656W        W48439   1.796  10.599  11.533
81657W        W48440  34.603  43.938  12.443
81658W        W48441  38.421  44.457   2.909
81659W        W48442  17.621  34.122  13.683
81660W        W48443  17.481  16.099   3.159
81661W        W48444   2.490  18.257   0.252
81662W        W48445   6.252  39.448   2.158
81663W        W48446  13.605  27.102   1.482
81664W        W48447  43.697  37.647  14.852
81665W        W48448  42.317   6.274  11.654
81666W        W48449   4.693  44.260  11.409
81667W        W48450   0.778  24.254   3.292
81668W        W48451  23.899   8.704   0.414
81669W        W48452  34.123  18.446  13.441
81670W        W48453  11.778  28.850   4.170
81671W        W48454  42.536  29.420   0.823
81672W        W48455  27.209  36.137  14.420
81673W        W48456  37.532  22.772   2.280
81674W        W48457  38.475  13.259   2.866
81675W        W48458   7.359  26.207  10.798
81676W        W48459   9.887  30.302   4.619
81677W        W48460   0.336  39.319   3.347
81678W        W48461  30.759  34.279  11.121
81679W        W48462  25.555   5.044   1.962
81680W        W48463  26.104  37.302  10.099
81681W        W48464  23.687  12.175  12.880
81682W        W48465  31.394  25.478  11.534
81683W        W48466   6.911   9.875   4.622
81684W        W48467  26.970  18.793   3.612
81685W        W48468  26.251  38.876  14.926
81686W        W48469  23.667   9.215  14.898
81687W        W48470  15.667  23.318  11.935
81688W        W48471  35.142  40.482  10.764
81689W        W48472  23.234  33.444  11.161
81690W        W48473  14.716  33.802   4.162
81691W        W48474  21.250  41.717   3.667
81692W        W48475  36.886  15.231  12.919
81693W        W48476   9.595   1.402  12.977
81694W        W48477   7.616  37.294  14.501
81695W        W48478  23.489  20.729   1.359
81696W        W48479  38.038   4.414  12.364
81697W        W48480  26.955  15.017   1.053
81698W        W48481  41.942  38.110  14.373
81699W        W48482  23.725  19.748  13.422
81700W        W48483  15.119  31.235  10.713
81701W        W48484  30.370  18.833   2.615
81702W        W48485  17.124   8.256   3.173
81703W        W48486  34.120   4.006  10.903
81704W        W48487  30.461  22.656   0.085
81705W        W48488  22.148  42.296  10.486
81706W        W48489  25.715  20.440   2.444
81707W        W48490  38.551  28.923  14.796
81708W        W48491   4.363   5.222   3.439
81709W        W48492  23.745  17.106   0.780
81710W        W48493  25.083  18.302   2.265
81711W        W48494   8.337   9.373  10.205
81712W        W48495  27.138  15.236  14.803
81713W        W48496  12.957   7.294   2.126
81714W        W48497  42.539  14.609  13.923
81715W        W48498  22.521  27.487   4.588
81716W        W48499  33.523  12.436  12.371
81717W        W48500  19.456  28.943   1.795
81718W        W48501  43.483   0.770   0.770
81719W        W48502  36.765   2.902   1.340
81720W        W48503   8.872  13.781   2.359
81721W        W48504  30.605  19.215  12.125
81722W        W48505  43.194  17.535   4.961
81723W        W48506  19.682  31.389   3.719
81724W        W48507  20.003  40.083   2.817
81725W        W48508  10.325  23.761   0.176
81726W        W48509   9.320  32.519  13.299
81727W        W48510  36.608   2.398  14.866
81728W        W48511  36.613  22.382  14.408
81729W        W48512  25.423   9.741  12.447
81730W        W48513   6.766  19.781   1.134
81731W        W48514  25.214  37.041   0.430
81732W        W48515  17.955   0.383   3.541
81733W        W48516  41.201  43.872  12.429
81734W        W48517  36.493  35.345  11.230
81735W        W48518  14.157  24.800   2.866
81736W        W48519  10.767   7.240   0.500
81737W        W48520  32.603   4.143  14.905
81738W        W48521  26.714  11.616   4.625
81739W        W48522  17.668   7.128  12.384
81740W        W48523  19.638  25.362  13.993
81741W        W48524  27.937  28.611   1.537
81742W        W48525  29.992  36.479   1.789
81743W        W48526  21.872  21.609   3.261
81744W        W48527   5.734   1.130   4.051
81745W        W48528   3.331   1.534   0.906
81746W        W48529  16.777  25.190   1.329
81747W        W48530  12.335  24.711   2.399
81748W        W48531  12.590  37.873  12.877
81749W        W48532  29.227  39.614   0.731
81750W        W48533   9.174  26.420   4.143
81751W        W48534  30.058  28.283   0.875
81752W        W48535   2.304  37.274  13.304
81753W        W48536  39.132  12.301   4.127
81754W        W48537  41.234  21.796  11.791
81755W        W48538  27.584  13.805  12.989
81756W        W48539  31.325  33.963   3.876
81757W        W48540   8.850  42.706   5.185
81758W        W48541  30.479  11.851   4.489
81759W        W48542   8.504  35.912   1.941
81760W        W48543  38.320  21.108  14.267
81761W        W48544   3.489   7.413  11.639
81762W        W48545  33.862  25.749  11.192
81763W        W48546  32.481  33.578   3.863
81764W        W48547  24.799  23.474  11.114
81765W        W48548   3.321  11.764  12.036
81766W        W48549  11.797  39.865  11.306
81767W        W48550  16.530  28.040  11.301
81768W        W48551  24.718  35.528   2.227
81769W        W48552  35.486  33.476   4.227
81770W        W48553   8.346  32.900   3.813
81771W        W48554  14.157  19.533  11.060
81772W        W48555  10.623  19.331   3.045
81773W        W48556   3.176   8.692   4.618
81774W        W48557  25.201  42.288   2.197
81775W        W48558  17.030  14.208   1.922
81776W        W48559  32.628  37.099  11.188
81777W        W48560  38.397  22.974  11.169
81778W        W48561  44.269   1.383   5.298
81779W        W48562  36.739   3.375  13.768
81780W        W48563  13.841  27.453  10.667
81781W        W48564  32.540  26.488   3.867
81782W        W48565  25.270  39.103  12.881
81783W        W48566  15.858  44.332   2.282
81784W        W48567  33.082  25.046   1.678
81785W        W48568  38.850   6.858  12.574
81786W        W48569  14.773   7.924  13.590
81787W        W48570  31.197   8.357  10.716
81788W        W48571  30.419  40.965   3.177
81789W        W48572  10.689  20.324  12.205
81790W        W48573  33.521  19.862  13.918
81791W        W48574   6.358  41.328  10.837
81792W        W48575   8.374   3.435   0.441
81793W        W48576  23.689   7.101  10.724
81794W        W48577  39.984  44.270  12.069
81795W        W48578  22.141  29.949  14.007
81796W        W48579   7.194   7.367   2.795
81797W        W48580  38.357  26.579   2.494
81798W        W48581  24.016  28.951   4.024
81799W        W48582  18.673  26.144   0.775
81800W        W48583  22.705  15.229  13.140
81801W        W48584  18.231  34.455   4.558
81802W        W48585  37.295  17.552   3.244
81803W        W48586  28.862  35.871   2.602
81804W        W48587  16.786  18.012  10.639
81805W        W48588  28.543  34.821  12.421
81806W        W48589  25.685  10.322  10.680
81807W        W48590  14.121  19.141   1.907
81808W        W48591  16.669  43.070  11.967
81809W        W48592  25.994  34.024  12.240
81810W        W48593  32.508  40.943   1.953
81811W        W48594  29.437  43.956  12.437
81812W        W48595  33.341  25.969   4.228
81813W        W48596  38.933   6.085   1.853
81814W        W48597  32.573  15.352  10.266
81815W        W48598  37.576   7.253   3.706
81816W        W48599   4.039  26.426  12.888
81817W        W48600  15.259  29.654   3.530
81818W        W48601  37.184  44.857   3.783
81819W        W48602  24.660  24.162   0.769
81820W        W48603  26.705   7.897  11.628
81821W        W48604  15.792  36.159   1.745
81822W        W48605  43.274  39.104   2.831
81823W        W48606   8.666   9.275   1.834
81824W        W48607  42.365  30.939  12.575
81825W        W48608  23.641  31.150   3.822
81826W        W48609  28.992  10.835   3.271
81827W        W48610  19.988  15.732   1.743
81828W        W48611  20.672  35.433   1.244
81829W        W48612  43.338  37.786   4.230
81830W        W48613  35.411  37.778  12.140
81831W        W48614  12.354  17.164  14.683
81832W        W48615  18.327  38.382   1.815
81833W        W48616  39.025  26.498  13.969
81834W        W48617  14.952  38.037   2.027
81835W        W48618  15.071  37.517   1.175
81836W        W48619  24.512   5.547  13.448
81837W        W48620  27.726  20.279  11.542
81838W        W48621  13.035  21.161   2.373
81839W        W48622  17.513   6.882   4.691
81840W        W48623  21.070  36.356   4.101
81841W        W48624  39.854  36.338   4.563
81842W        W48625  38.998  31.948  14.868
81843W        W48626   0.033  32.631  13.925
81844W        W48627  11.652  21.970   0.400
81845W        W48628  38.523   9.813  11.145
81846W        W48629  29.229  16.224   0.847
81847W        W48630  11.913  31.137   0.413
81848W        W48631   0.188  39.421   2.828
81849W        W48632   3.583  41.370   4.622
81850W        W48633  43.280  29.889  11.151
81851W        W48634  21.213  40.813  11.071
81852W        W48635  18.624  37.349  12.424
81853W        W48636  44.863  20.694   4.119
81854W        W48637  32.943  30.243   3.605
81855W        W48638   9.390   9.637   2.556
81856W        W48639   3.878  19.639  13.986
81857W        W48640  11.160  41.539   2.272
81858W        W48641  36.476  28.132   0.065
81859W        W48642   0.979  25.740  13.422
81860W        W48643   9.190  20.279   2.964
81861W        W48644   7.841  15.261  14.502
81862W        W48645  20.148  30.081  11.952
81863W        W48646  12.701  27.833   1.937
81864W        W48647  20.993  23.667  11.662
81865W        W48648  27.881   8.403  11.970
81866W        W48649   6.630  28.736   0.732
81867W        W48650  34.956  29.437  12.470
81868W        W48651  15.812  35.082   3.884
81869W        W48652  14.707  29.717  14.045
81870W        W48653  38.093  15.383   2.859
81871W        W48654  39.300  12.719   1.975
81872W        W48655  42.354   2.219   1.698
81873W        W48656  24.576  15.741   3.723
81874W        W48657  19.204  29.608   4.603
81875W        W48658  28.414  25.531   1.202
81876W        W48659  43.409  10.321   0.834
81877W        W48660  10.234  42.429  11.601
81878W        W48661  44.347   2.929   2.735
81879W        W48662  16.603  12.343   1.159
81880W        W48663  30.609  28.742   1.841
81881W        W48664  13.282  29.520  14.271
81882W        W48665  33.579  31.094   0.424
81883W        W48666   3.563  11.728  11.568
81884W        W48667  26.501  13.666   3.291
81885W        W48668   9.503  41.934  11.974
81886W        W48669  43.807  20.574  14.713
81887W        W48670  44.115  36.398  14.849
81888W        W48671  40.449  44.254   2.841
81889W        W48672  40.011  10.608   1.251
81890W        W48673  27.038   8.906   1.934
81891W        W48674  28.931  22.605   3.369
81892W        W48675   6.759  22.587   4.280
81893W        W48676  21.234  39.322   3.701
81894W        W48677  33.062   5.471  10.426
81895W        W48678  19.982  22.010   0.349
81896W        W48679   7.477   7.331   9.886
81897W        W48680  19.053  11.310   4.361
81898W        W48681  22.480   7.107  12.443
81899W        W48682  18.159  25.628   3.197
81900W        W48683  20.172  35.100   0.422
81901W        W48684  40.622  34.359   2.448
81902W        W48685  12.859  30.396   4.256
81903W        W48686  12.231  30.614  12.814
81904W        W48687   9.167  13.117   3.524
81905W        W48688   5.937  21.501  11.151
81906W        W48689  18.827  27.254  13.584
81907W        W48690  40.479  37.496   1.425
81908W        W48691   3.866  27.004   3.924
81909W        W48692  16.150  16.221  12.744
81910W        W48693  10.084   4.461  13.372
81911W        W48694  15.262  25.947  13.471
81912W        W48695   6.005  36.746  13.594
81913W        W48696  13.734  12.596   0.356
81914W        W48697  24.532   4.788   3.134
81915W        W48698   5.712  17.688   1.269
81916W        W48699  36.471  34.023  12.535
81917W        W48700  32.513  33.021  13.147
81918W        W48701  30.487   7.683   4.657
81919W        W48702   5.424   3.163   0.892
81920W        W48703  20.738  37.434   2.695
81921W        W48704  39.094  24.468   2.428
81922W        W48705  26.277  34.019  12.678
81923W        W48706  35.578  14.867  11.578
81924W        W48707  33.051  15.048  12.058
81925W        W48708  40.561  37.930   0.241
81926W        W48709  22.400   6.713   1.623
81927W        W48710  34.411  38.002   0.349
81928W        W48711  10.451  19.525  14.835
81929W        W48712  43.334  16.920  11.927
81930W        W48713  34.816  37.057   0.351
81931W        W48714  20.971   8.709   3.571
81932W        W48715  23.571  24.396  11.353
81933W        W48716  39.100  20.990  11.102
81934W        W48717  37.102   9.057   0.349
81935W        W48718  14.685  21.198   4.083
81936W        W48719  35.998  24.015   0.785
81937W        W48720  22.278  38.663   1.617
81938W        W48721  14.990  43.939   2.820
81939W        W48722  26.146  39.534  11.933
81940W        W48723  25.052  15.548  14.931
81941W        W48724  41.238  11.859   2.899
81942W        W48725  13.609  30.149   3.645
81943W        W48726  38.366   1.661  11.168
81944W        W48727  28.614  34.438  11.485
81945W        W48728   8.904  35.828   2.789
81946W        W48729  33.547  19.069   4.309
81947W        W48730  25.193  42.771   3.925
81948W        W48731  40.393  21.165  10.611
81949W        W48732  21.082  44.789  12.085
81950W        W48733  38.486   8.279  10.318
81951W        W48734  20.623   7.600   1.180
81952W        W48735  37.405  33.648  13.038
81953W        W48736  23.805  20.101   1.816
81954W        W48737  44.004  19.811   2.287
81955W        W48738  43.830   3.323  12.443
81956W        W48739  32.488   5.290   3.539
81957W        W48740  40.607  23.498  11.063
81958W        W48741  38.811   6.895  12.030
81959W        W48742  39.338  30.102  11.005
81960W        W48743  18.333  22.776   2.329
81961W        W48744  44.442  26.963  10.915
81962W        W48745  23.625  27.547  11.733
81963W        W48746  17.626  16.629  12.207
81964W        W48747  30.221   2.734   4.912
81965W        W48748  19.613  25.516   4.616
81966W        W48749  40.929  44.269   2.267
81967W        W48750  42.794   7.800  12.125
81968W        W48751  28.640   4.922   4.175
81969W        W48752   6.919   3.922   3.947
81970W        W48753  38.752  10.904  11.085
81971W        W48754   9.594  40.870  13.948
81972W        W48755  15.329  21.045  13.569
81973W        W48756  34.160  27.562  13.071
81974W        W48757   6.022   8.420  13.463
81975W        W48758  27.446  22.065  14.135
81976W        W48759  30.740   2.925   2.728
81977W        W48760  43.072  30.588  11.213
81978W        W48761  36.059   5.373  10.686
81979W        W48762  43.827  32.035  11.717
81980W        W48763  25.720   0.811  13.892
81981W        W48764  17.164  16.678  13.400
81982W        W48765  20.012  29.534  11.131
81983W        W48766  39.074  27.880  12.499
81984W        W48767  40.875  30.235   4.168
81985W        W48768  40.193  10.510   4.210
81986W        W48769  40.832  24.117  11.941
81987W        W48770  28.632  43.360  11.646
81988W        W48771  23.177  41.676  14.521
81989W        W48772  40.895  42.778   4.159
81990W        W48773  31.893  20.500  13.463
81991W        W48774  26.742  39.279  11.129
81992W        W48775  12.763  21.138  12.375
81993W        W48776  24.117  33.370   1.736
81994W        W48777   1.795  35.116   1.762
81995W        W48778  43.347  27.927  11.800
81996W        W48779  10.876   4.342   1.981
81997W        W48780  20.578   1.803   0.058
81998W        W48781  12.861  17.579   1.729
81999W        W48782  38.679  28.062   1.322
82000W        W48783   8.019  16.271  11.230
82001W        W48784  38.826   9.404   2.556
82002W        W48785  38.480  11.624   2.939
82003W        W48786  26.597  35.775   1.096
82004W        W48787  40.064  29.215  11.525
82005W        W48788  16.259  19.282   2.104
82006W        W48789  25.098  29.184  10.520
82007W        W48790   9.636  39.917   4.179
82008W        W48791  18.773  21.790   4.131
82009W        W48792  22.064   5.567  14.531
82010W        W48793  20.340  27.384  12.032
82011W        W48794  39.285  42.886  12.431
82012W        W48795  43.879  36.349  10.744
82013W        W48796   6.697  38.851  13.710
82014W        W48797  11.139   6.755  13.868
82015W        W48798  10.521  20.365   2.420
82016W        W48799  12.641   8.407  14.076
82017W        W48800  33.931  38.278   0.387
82018W        W48801  19.646   0.673  13.523
82019W        W48802  37.393  26.120  14.419
82020W        W48803  20.912  19.181   2.698
82021W        W48804  14.055  32.487  14.087
82022W        W48805  20.707  26.818   2.620
82023W        W48806  11.341   8.326  13.452
82024W        W48807   4.223  13.642  10.629
82025W        W48808  39.009  35.448  11.719
82026W        W48809   4.966  41.225  13.938
82027W        W48810  44.473  38.786  10.761
82028W        W48811  23.046  44.276   1.083
82029W        W48812  37.304  11.449   2.671
82030W        W48813  14.145  34.614  13.383
82031W        W48814  12.804  22.132  12.431
82032W        W48815  19.110  13.147  12.995
82033W        W48816  38.797  12.191  11.448
82034W        W48817  37.921  15.770   0.649
82035W        W48818  15.358  37.546   0.755
82036W        W48819  31.110  12.617   5.192
82037W        W48820  44.154   2.758   0.105
82038W        W48821  36.618  22.242  11.495
82039W        W48822  43.259  32.826  12.623
82040W        W48823  11.236   8.714   2.378
82041W        W48824  25.048  17.123   1.342
82042W        W48825   0.899  20.036   3.659
82043W        W48826   3.157   6.588   0.780
82044W        W48827  22.656  11.235   4.827
82045W        W48828  38.359  21.507  13.898
82046W        W48829   2.478  35.737   0.839
82047W        W48830  39.241  43.096   3.586
82048W        W48831  36.894   0.924  11.765
82049W        W48832  15.717  38.483  14.539
82050W        W48833  29.198  38.572  13.561
82051W        W48834  25.115  23.965  11.160
82052W        W48835  27.102   4.549   3.227
82053W        W48836  18.442  37.754  12.081
82054W        W48837   2.449  25.180   3.763
82055W        W48838  40.747  34.391   2.944
82056W        W48839  36.062  38.461   1.296
82057W        W48840   5.808  22.511   1.753
82058W        W48841  39.365  25.891   0.700
82059W        W48842  22.012  13.838  13.384
82060W        W48843  34.938  41.429   1.274
82061W        W48844  12.749  11.066  10.058
82062W        W48845  43.951  24.106   1.738
82063W        W48846  18.189  13.354  11.375
82064W        W48847  31.488  14.594  11.646
82065W        W48848  40.815  43.156  13.408
82066W        W48849   0.853   8.164   1.445
82067W        W48850  20.689  24.216  12.466
82068W        W48851   4.431  30.195  14.368
82069W        W48852  13.140  32.936  11.580
82070W        W48853  31.491  15.833   2.147
82071W        W48854  18.910   0.591   2.408
82072W        W48855  32.969  22.541   1.938
82073W        W48856  18.511  37.173  13.791
82074W        W48857  25.804  41.994   4.724
82075W        W48858  40.885  31.972  11.074
82076W        W48859  22.987   1.743   4.098
82077W        W48860   4.616   7.171   1.203
82078W        W48861  18.185  42.625   4.614
82079W        W48862  27.639  39.368   4.598
82080W        W48863  37.555   9.979   4.105
82081W        W48864   3.115  13.675  12.585
82082W        W48865   3.385  36.411   4.764
82083W        W48866  34.525  37.449   1.493
82084W        W48867  24.086   5.893  13.891
82085W        W48868  40.584   0.357  14.193
82086W        W48869  28.239   4.719   0.426
82087W        W48870   4.723  29.732  14.343
82088W        W48871  24.735   0.889  14.834
82089W        W48872   1.259  15.591  11.010
82090W        W48873  42.004  24.440   2.843
82091W        W48874  22.237   8.275  12.836
82092W        W48875   3.262  11.790  11.114
82093W        W48876  16.782  27.552  13.835
82094W        W48877  32.870  24.712  12.024
82095W        W48878  14.876  33.870  13.778
82096W        W48879   4.739  15.615  13.521
82097W        W48880  19.581  13.191   4.577
82098W        W48881  19.157   1.331   3.179
82099W        W48882  19.500  37.845  12.363
82100W        W48883  36.506  21.613  13.912
82101W        W48884   9.323  21.397   0.023
82102W        W48885  26.578   6.511  12.488
82103W        W48886  23.426  29.963   3.233
82104W        W48887  24.893  23.992   3.263
82105W        W48888  25.285  29.567  12.329
82106W        W48889  22.668  20.952   2.682
82107W        W48890  31.615  27.103  13.497
82108W        W48891   3.305  37.251  10.960
82109W        W48892  32.015  37.447   1.315
82110W        W48893  35.417  12.352  12.090
82111W        W48894  38.567  43.277  12.534
82112W        W48895   3.429  34.670   3.916
82113W        W48896  39.268  20.698   1.926
82114W        W48897  17.147  18.398   4.565
82115W        W48898   2.163   4.410  14.957
82116W        W48899  24.537  16.001   2.978
82117W        W48900   3.352  34.855   4.396
82118W        W48901   4.358  34.294  13.931
82119W        W48902  38.438  37.542   2.746
82120W        W48903  16.413  44.264  13.019
82121W        W48904   2.455  20.705   0.832
82122W        W48905  32.957  20.168  11.328
82123W        W48906  31.011  16.604  11.919
82124W        W48907   6.625  23.681   1.436
82125W        W48908  42.242  30.915   1.739
82126W        W48909   8.263   6.819   3.177
82127W        W48910  22.447   5.373   1.943
82128W        W48911  43.442  28.992   0.460
82129W        W48912   3.948  12.747   3.263
82130W        W48913   6.274  24.483   3.834
82131W        W48914  42.318   2.481  10.653
82132W        W48915   9.906  35.003   1.391
82133W        W48916  10.878  23.254   2.425
82134W        W48917  42.905  24.987   3.316
82135W        W48918   1.033  32.543  11.128
82136W        W48919  14.199   5.359  14.888
82137W        W48920   1.674  27.226   4.119
82138W        W48921  26.908  29.161   2.147
82139W        W48922   4.302  17.010  14.403
82140W        W48923  39.830   1.152  11.446
82141W        W48924  30.182   0.952   4.582
82142W        W48925  28.459  15.377  10.981
82143W        W48926  22.038   6.177   1.275
82144W        W48927   6.943   6.181   0.832
82145W        W48928  22.526  41.426   3.601
82146W        W48929   9.846   9.471  14.953
82147W        W48930  25.621  43.826  12.423
82148W        W48931   7.687  30.941   0.929
82149W        W48932  34.013  22.181  14.039
82150W        W48933   0.404   8.241  13.597
82151W        W48934  25.899  24.893  12.243
82152W        W48935  34.066  41.988  14.514
82153W        W48936   7.297  12.411  14.877
82154W        W48937  40.696  23.794  12.527
82155W        W48938  18.569  12.752   2.351
82156W        W48939  11.535  13.140   1.834
82157W        W48940  35.504  28.897   1.866
82158W        W48941  17.327  23.328  11.264
82159W        W48942  15.926  26.571  11.510
82160W        W48943  34.982  18.827   2.753
82161W        W48944  24.747   5.887   2.221
82162W        W48945  25.925  40.504  13.359
82163W        W48946  25.017  15.220   4.778
82164W        W48947  23.503  41.477  10.513
82165W        W48948  19.235  39.433   2.933
82166W        W48949  31.077  27.450  13.671
82167W        W48950  31.193   3.614   2.378
82168W        W48951  12.859   7.171  14.054
82169W        W48952  26.024  26.830   3.697
82170W        W48953  18.697  44.853  12.093
82171W        W48954  21.702  28.049  13.953
82172W        W48955  39.373   0.550  13.338
82173W        W48956  23.443  42.324   1.720
82174W        W48957  19.872  18.672   0.351
82175W        W48958  12.615  44.848  12.905
82176W        W48959   0.162  39.425   0.948
82177W        W48960  15.588  37.859  12.703
82178W        W48961  17.566  43.895  10.579
82179W        W48962   8.201  43.427  10.657
82180W        W48963  38.888  13.590   2.221
82181W        W48964  10.966  23.653  14.630
82182W        W48965  39.373  34.414   1.317
82183W        W48966  39.067   9.856   1.802
82184W        W48967  32.566  30.774  11.481
82185W        W48968  14.696   2.296   4.430
82186W        W48969  12.130   2.354   1.056
82187W        W48970  10.117  43.483  11.225
82188W        W48971  40.580   3.663  12.760
82189W        W48972   8.148   3.224  13.310
82190W        W48973  43.144  20.645   3.822
82191W        W48974  28.202  35.431   1.383
82192W        W48975  43.704  26.290   4.123
82193W        W48976  29.139  25.247  11.985
82194W        W48977  19.483  34.966   3.114
82195W        W48978  34.932  15.947   5.251
82196W        W48979  26.026  15.622  12.944
82197W        W48980  22.155  42.343  11.844
82198W        W48981  42.079   0.989   4.002
82199W        W48982  25.117   7.880  12.511
82200W        W48983  39.065  37.051   0.332
82201W        W48984  30.089  41.549   1.382
82202W        W48985   9.276  37.864   4.155
82203W        W48986  38.878  16.627   4.747
82204W        W48987   8.482  26.743   1.864
82205W        W48988  27.746  29.142  11.025
82206W        W48989  27.149  24.643   2.152
82207W        W48990  25.677   1.350   4.408
82208W        W48991  28.581  27.271  11.655
82209W        W48992  32.957  38.860   0.570
82210W        W48993  15.047  36.374  14.299
82211W        W48994   2.850  16.726   4.662
82212W        W48995  22.346  40.074  10.596
82213W        W48996   0.338  37.057   2.646
82214W        W48997  20.042  20.076  14.825
82215W        W48998   4.225   0.808   0.003
82216W        W48999   1.769  17.098  11.216
82217W        W49000  19.826   0.055   4.104
82218W        W49001   2.272  16.143  10.391
82219W        W49002  34.645  23.228   2.352
82220W        W49003  27.007  11.430   1.619
82221W        W49004  42.818  37.668  10.328
82222W        W49005  17.722  16.684   0.503
82223W        W49006  14.182  27.545   0.910
82224W        W49007  37.991   2.991  13.420
82225W        W49008   5.635  30.562   3.313
82226W        W49009  43.991  11.324  14.294
82227W        W49010   6.349  38.126  14.463
82228W        W49011  30.508  32.232   0.765
82229W        W49012   4.775  14.005  12.451
82230W        W49013  15.729   3.229   0.872
82231W        W49014   2.803  33.021   3.802
82232W        W49015  26.077   0.313   2.844
82233W        W49016   5.418  23.759   2.254
82234W        W49017  38.307  34.518  12.883
82235W        W49018  31.618  42.780   3.868
82236W        W49019  44.915  42.214  14.342
82237W        W49020  15.042  22.079   2.225
82238W        W49021  31.335  28.888  13.895
82239W        W49022  44.850  29.452   1.193
82240W        W49023  21.960  30.761  11.064
82241W        W49024  32.620   5.163   2.721
82242W        W49025  19.011  10.170  13.513
82243W        W49026  27.982  13.267   1.263
82244W        W49027  27.178  43.366  13.927
82245W        W49028  40.154  32.162  13.112
82246W        W49029  10.883   4.565  11.612
82247W        W49030  10.752  19.148  12.969
82248W        W49031   1.379  24.266   1.399
82249W        W49032  13.328  32.055   0.249
82250W        W49033  20.156  25.000   1.340
82251W        W49034  23.749  37.536  14.853
82252W        W49035  31.140  30.631   0.905
82253W        W49036  22.183  24.237  13.852
82254W        W49037  36.033  25.901  12.568
82255W        W49038  33.922  25.417   0.251
82256W        W49039  32.810  14.726  12.449
82257W        W49040  30.100  32.833   4.346
82258W        W49041  35.342  21.619   3.312
82259W        W49042  27.689  33.055   2.241
82260W        W49043  30.680  17.767   3.886
82261W        W49044  21.034  23.153  12.399
82262W        W49045  36.528   7.332   1.829
82263W        W49046  12.117  43.206   1.904
82264W        W49047  26.616  38.281  12.002
82265W        W49048  16.525   0.273  12.975
82266W        W49049  36.926  24.043  12.326
82267W        W49050   4.902  36.369   0.046
82268W        W49051   3.972  14.872  11.930
82269W        W49052  42.896   9.919  12.183
82270W        W49053  31.971  10.561   0.587
82271W        W49054  37.287  34.912  12.485
82272W        W49055  26.869  26.677  13.581
82273W        W49056  39.743  15.495  12.360
82274W        W49057  12.181   4.323   0.696
82275W        W49058  13.695   6.733   4.069
82276W        W49059  24.931  28.950   2.370
82277W        W49060  17.227  28.549  12.984
82278W        W49061  21.100  24.851   3.377
82279W        W49062  25.342   7.921   2.257
82280W        W49063   9.939  35.984   3.673
82281W        W49064  12.747  33.124  10.684
82282W        W49065  25.688   4.311   4.857
82283W        W49066  31.710  18.191  10.556
82284W        W49067  18.325  32.199   2.826
82285W        W49068  44.921  32.418  14.780
82286W        W49069   4.011  34.987  11.954
82287W        W49070   9.136  22.611   1.742
82288W        W49071  12.203   7.162   2.761
82289W        W49072  39.354   5.301   3.194
82290W        W49073  41.287  39.439   3.127
82291W        W49074  37.549   1.089  14.407
82292W        W49075  35.917  24.740   3.126
82293W        W49076  19.764   9.695   2.861
82294W        W49077  24.454   7.314   0.420
82295W        W49078  22.990  28.088   4.416
82296W        W49079  37.155  23.912   2.788
82297W        W49080   6.974  14.905  12.951
82298W        W49081  33.841   0.332   0.423
82299W        W49082   6.917  30.085   0.398
82300W        W49083  38.459  25.054  14.766
82301W        W49084   3.455  29.181   3.852
82302W        W49085   9.007   7.241   3.720
82303W        W49086   0.721  41.367  10.457
82304W        W49087  36.875  36.848   0.380
82305W        W49088  36.317   6.250  12.583
82306W        W49089   4.452  30.240   4.203
82307W        W49090   0.826  39.725  14.807
82308W        W49091  30.198  42.024   1.621
82309W        W49092  30.075  29.432   2.236
82310W        W49093  10.521   8.467  11.175
82311W        W49094  23.452  10.377  12.542
82312W        W49095  20.883   5.637  14.003
82313W        W49096  27.585  16.442  14.430
82314W        W49097   4.350  37.617   3.084
82315W        W49098  17.580  26.761   3.224
82316W        W49099   0.912  16.194   4.894
82317W        W49100  19.058  43.526  11.189
82318W        W49101  34.423  38.495  11.594
82319W        W49102   1.251  41.238   0.287
82320W        W49103  41.009   1.010   0.517
82321W        W49104  13.362  33.534   0.424
82322W        W49105  10.100   6.790  12.553
82323W        W49106  23.081  13.352   1.412
82324W        W49107  17.332  17.614  14.809
82325W        W49108  36.585  24.918  14.337
82326W        W49109  29.814  16.155   0.045
82327W        W49110  25.608  24.293  13.473
82328W        W49111  14.289  35.632  10.225
82329W        W49112  39.926  14.118   2.841
82330W        W49113  41.913  44.940  13.189
82331W        W49114  15.744  34.038  11.512
82332W        W49115  21.722  44.396  13.932
82333W        W49116  39.238  42.386   1.184
82334W        W49117   9.224  39.016   1.040
82335W        W49118  35.906  20.000  14.477
82336W        W49119  36.364   8.631  14.786
82337W        W49120  28.399   6.023  14.840
82338W        W49121  17.771   6.838   3.716
82339W        W49122  37.317  20.969   0.940
82340W        W49123  38.448  25.678   1.920
82341W        W49124   7.735   9.762   1.858
82342W        W49125  33.907  42.929   0.935
82343W        W49126   5.654  44.321   1.786
82344W        W49127  41.789  13.878   2.682
82345W        W49128  35.037  12.309  13.612
82346W        W49129  40.344  44.322  10.732
82347W        W49130  29.215  33.454   4.469
82348W        W49131  43.032  41.233   3.549
82349W        W49132  41.880  24.951   1.951
82350W        W49133  11.781  39.334   4.860
82351W        W49134  43.463  29.036  14.416
82352W        W49135  21.265  11.159   0.456
82353W        W49136   5.588  41.402   1.819
82354W        W49137  26.407  21.199  12.433
82355W        W49138  36.427  15.314  14.404
82356W        W49139  27.667  26.933  13.899
82357W        W49140  44.987  40.959  12.497
82358W        W49141  42.285   2.861  11.105
82359W        W49142  27.697  36.592  13.863
82360W        W49143  25.038  11.297   0.359
82361W        W49144  42.466   0.993   3.240
82362W        W49145   8.073  24.048  10.724
82363W        W49146  39.429  43.968   2.240
82364W        W49147  10.381  14.286  14.808
82365W        W49148  19.720   1.755  10.665
82366W        W49149  41.778  34.076  10.725
82367W        W49150  43.884  30.878   1.317
82368W        W49151  11.373   3.382  12.183
82369W        W49152  17.597  11.915   4.099
82370W        W49153  33.444   5.659   5.102
82371W        W49154  24.123  35.319  11.544
82372W        W49155   9.330  18.745  10.710
82373W        W49156  26.147  20.076   1.172
82374W        W49157   6.329   4.061  14.357
82375W        W49158  41.095  26.532   2.376
82376W        W49159  25.272  27.141   4.531
82377W        W49160  12.787  18.331  12.976
82378W        W49161  38.828  13.704  14.796
82379W        W49162  11.311  38.554   3.207
82380W        W49163  34.079  16.016  12.058
82381W        W49164  24.146  34.520   3.150
82382W        W49165  36.990   6.871   3.304
82383W        W49166  13.135   7.867   1.093
82384W        W49167   8.430  12.959   1.585
82385W        W49168   0.952   0.408   2.409
82386W        W49169  37.341  37.906  12.999
82387W        W49170  31.052  23.467  14.271
82388W        W49171  39.027  34.976  13.159
82389W        W49172  39.801  28.074  12.057
82390W        W49173  42.009  12.209  13.860
82391W        W49174  34.386  34.039   4.431
82392W        W49175   2.178  36.041   3.041
82393W        W49176  39.023  35.983  13.338
82394W        W49177   9.675  22.190   0.155
82395W        W49178   8.210  17.833  12.516
82396W        W49179  18.204  18.917  14.784
82397W        W49180  35.870  35.171  11.633
82398W        W49181  32.001   5.387  14.438
82399W        W49182  30.117  11.711  11.646
82400W        W49183  12.852   2.858  11.824
82401W        W49184  35.901  39.793   0.737
82402W        W49185  31.749  15.268   0.293
82403W        W49186  16.628  41.965  14.293
82404W        W49187  16.240  25.078   2.091
82405W        W49188   0.249  11.361   1.314
82406W        W49189   9.640  35.304   2.247
82407W        W49190  26.749  38.050  13.120
82408W        W49191  43.495   7.669  13.877
82409W        W49192  14.002  40.257  11.574
82410W        W49193  29.859  38.332   3.623
82411W        W49194  32.397  18.716   5.022
82412W        W49195  36.964  43.091   3.238
82413W        W49196  44.419  15.119   0.977
82414W        W49197   6.361  10.390   2.271
82415W        W49198  32.050  16.837   1.828
82416W        W49199  34.960  20.697   2.217
82417W        W49200  43.265  32.883   3.489
82418W        W49201  28.982  44.505  14.425
82419W        W49202  38.428  10.441  12.534
82420W        W49203  33.312  20.554   2.825
82421W        W49204   3.811   0.398  13.216
82422W        W49205  40.738   5.661   2.781
82423W        W49206  15.608  32.418  10.979
82424W        W49207  36.170  12.583   2.373
82425W        W49208  22.448  30.450   1.313
82426W        W49209   5.889  38.647  14.331
82427W        W49210  39.120  10.693  13.110
82428W        W49211  19.881  22.590   0.393
82429W        W49212  33.614  23.545  11.624
82430W        W49213   9.860  44.757  14.357
82431W        W49214   4.374  26.549  14.787
82432W        W49215  11.263  43.249  10.493
82433W        W49216   2.659  38.843  10.677
82434W        W49217   3.187  12.651   4.621
82435W        W49218  22.811  10.675  14.748
82436W        W49219  24.250  14.630  10.869
82437W        W49220  14.928  39.821   2.138
82438W        W49221  21.251  16.129   5.209
82439W        W49222  38.864  37.477  10.779
82440W        W49223  18.759  16.806   2.729
82441W        W49224  31.708  26.982   1.302
82442W        W49225  33.729  24.137   3.713
82443W        W49226   0.595  42.777  14.729
82444W        W49227  11.596  28.421  13.845
82445W        W49228  34.880  36.285   3.849
82446W        W49229   8.682  29.566   3.170
82447W        W49230  12.642   5.284  12.949
82448W        W49231  10.749   1.922  11.232
82449W        W49232  43.863  28.048  12.521
82450W        W49233  33.860  29.627   1.606
82451W        W49234  17.936  42.057  12.527
82452W        W49235   8.862   2.266  14.516
82453W        W49236  10.832  25.937  13.908
82454W        W49237   1.006  37.914   1.670
82455W        W49238  26.869  34.029  13.528
82456W        W49239  41.968  12.260   2.394
82457W        W49240  30.184  25.165   3.586
82458W        W49241  22.152   2.645  13.004
82459W        W49242   4.225  12.737   0.716
82460W        W49243  15.733  14.445  12.412
82461W        W49244   5.160  27.581   4.059
82462W        W49245  34.513  24.582   3.800
82463W        W49246  29.169   9.179   3.203
82464W        W49247   2.577  17.153   3.427
82465W        W49248  12.155  44.276  10.390
82466W        W49249   0.773  32.036   4.602
82467W        W49250  32.548  24.349  14.363
82468W        W49251   2.908  15.012   4.598
82469W        W49252  28.486  20.123  13.278
82470W        W49253  11.148   0.475  13.538
82471W        W49254  26.963  37.307   4.677
82472W        W49255  36.820  19.712  13.439
82473W        W49256  16.591  43.942  10.668
82474W        W49257  41.140  39.263  13.487
82475W        W49258   7.360  25.514  12.087
82476W        W49259  44.778   9.741  11.635
82477W        W49260  41.452   4.864  13.092
82478W        W49261   3.607   6.364   0.577
82479W        W49262  39.619  35.897   4.695
82480W        W49263  37.618  25.497   4.061
82481W        W49264  30.126  37.023   2.212
82482W        W49265  36.518  13.261   2.917
82483W        W49266  40.711  32.105   2.092
82484W        W49267  11.737  27.653  11.002
82485W        W49268   5.072   4.814   4.101
82486W        W49269  41.851  27.997   3.258
82487W        W49270   0.835  37.910   0.308
82488W        W49271  36.313   2.700  13.334
82489W        W49272   6.773   1.360   4.145
82490W        W49273   5.588  40.518   4.241
82491W        W49274  34.398  31.166  10.622
82492W        W49275  35.098  38.214  14.252
82493W        W49276  28.158   5.741  12.952
82494W        W49277  40.579   6.427   4.822
82495W        W49278  31.066  12.218   2.810
82496W        W49279  22.361  36.917   2.976
82497W        W49280  27.219  22.543   3.171
82498W        W49281   1.597  30.396  12.968
82499W        W49282   6.684  10.220   2.681
82500W        W49283  24.579   4.330  10.494
82501W        W49284   2.791  10.634  13.094
82502W        W49285  33.913  17.699   4.268
82503W        W49286  33.274  30.692  12.913
82504W        W49287  43.424  43.360   2.654
82505W        W49288  34.809  16.824  14.722
82506W        W49289  14.567  23.670   0.280
82507W        W49290   6.245  30.508   4.701
82508W        W49291  32.159  40.530   4.823
82509W        W49292  38.544  38.113  13.047
82510W        W49293  21.810   9.791   2.878
82511W        W49294  28.984  34.451  14.005
82512W        W49295   6.492  18.979  14.826
82513W        W49296   6.436  10.328   3.116
82514W        W49297   1.458  26.872   4.434
82515W        W49298  10.302  44.496   3.662
82516W        W49299  13.360   9.946  11.943
82517W        W49300  34.101   1.238   0.880
82518W        W49301   6.602  31.568  11.927
82519W        W49302  41.372  14.228   1.680
82520W        W49303  13.669  30.237  10.997
82521W        W49304  17.284  19.500  12.912
82522W        W49305  40.072  38.415  11.961
82523W        W49306  31.952  27.511  13.539
82524W        W49307  38.527  27.068  12.841
82525W        W49308  15.297  42.407   0.243
82526W        W49309   5.318  28.912  14.322
82527W        W49310  35.154  28.530  13.323
82528W        W49311  33.657  25.056   2.043
82529W        W49312   9.599   3.987   1.580
82530W        W49313  11.178   6.117   3.665
82531W        W49314   3.573   2.257  11.199
82532W        W49315  32.024  19.978  12.604
82533W        W49316  15.092  24.571  11.115
82534W        W49317  23.843  35.875  12.411
82535W        W49318  21.545  36.487  12.149
82536W        W49319  37.323  27.103  13.779
82537W        W49320  18.344  30.109  13.319
82538W        W49321  13.270  17.841  11.036
82539W        W49322  25.155  24.249  13.224
82540W        W49323  25.984  12.982  12.368
82541W        W49324  36.757  14.331  14.526
82542W        W49325  29.165  43.368   1.157
82543W        W49326  37.611  33.138  11.471
82544W        W49327   3.430  40.405   0.167
82545W        W49328  25.048  28.216  14.089
82546W        W49329  26.044  22.567   4.732
82547W        W49330  25.277  28.120   2.914
82548W        W49331   0.736  44.380   1.058
82549W        W49332  12.311  43.398   3.712
82550W        W49333  28.358  37.057   3.600
82551W        W49334  44.326  44.748  10.496
82552W        W49335  36.044  34.733  14.582
82553W        W49336  19.167  24.284  12.078
82554W        W49337  34.035  42.260   4.137
82555W        W49338  10.991  29.935   2.633
82556W        W49339  14.585  43.687   0.275
82557W        W49340  26.487  22.531   3.846
82558W        W49341  22.641  10.865   3.947
82559W        W49342  30.412  14.303   0.950
82560W        W49343  27.907  37.785   2.268
82561W        W49344  39.371  43.071  13.195
82562W        W49345  42.502  27.842   4.641
82563W        W49346  20.616  23.280   0.202
82564W        W49347  13.751  24.445   0.025
82565W        W49348  29.134  13.848   1.607
82566W        W49349  10.621  33.544   0.897
82567W        W49350   5.642   3.427  13.369
82568W        W49351  21.700   1.944  10.965
82569W        W49352   7.347   8.309   1.768
82570W        W49353  10.427   4.705  14.463
82571W        W49354  28.489  21.976  11.289
82572W        W49355  27.160  44.486  14.885
82573W        W49356  18.521  36.023   4.549
82574W        W49357  11.780  43.825  13.113
82575W        W49358  10.830   1.290  14.248
82576W        W49359  43.565   5.463   0.074
82577W        W49360  40.560   0.389   4.908
82578W        W49361   2.262  31.484   2.910
82579W        W49362  38.985   5.355   4.578
82580W        W49363  17.509   8.814   0.516
82581W        W49364  44.455  21.210  13.942
82582W        W49365  42.743  20.693   2.610
82583W        W49366  27.811  22.849   4.973
82584W        W49367  34.300  44.928  11.636
82585W        W49368  18.809  37.906   4.276
82586W        W49369  38.028  40.296   4.231
82587W        W49370   1.930  19.601  14.087
82588W        W49371   8.193  20.651  10.766
82589W        W49372  29.539  23.379   0.270
82590W        W49373   3.177  37.869  13.698
82591W        W49374   1.668  17.765   0.734
82592W        W49375  18.152  37.370  10.078
82593W        W49376  32.987  15.264  10.568
82594W        W49377  36.495  12.881  12.995
82595W        W49378  42.975  29.169  12.350
82596W        W49379  32.606  32.480  13.469
82597W        W49380  21.982  23.222  11.193
82598W        W49381   4.104  41.293  12.529
82599W        W49382  17.548  13.069   4.569
82600W        W49383  26.565  36.837   1.371
82601W        W49384  21.679  24.526  11.144
82602W        W49385  12.648  20.251  14.349
82603W        W49386  22.948  32.761  11.121
82604W        W49387  29.072  29.943  12.214
82605W        W49388  33.878  33.616  13.448
82606W        W49389  41.278  43.498   4.116
82607W        W49390  28.004  19.299   0.332
82608W        W49391   1.031  22.728  10.525
82609W        W49392  28.837   8.257  11.200
82610W        W49393  30.655  29.086   3.674
82611W        W49394  27.088  14.858  13.418
82612W        W49395   8.591  43.370  14.535
82613W        W49396  23.856   2.292  14.456
82614W        W49397   4.943   7.151   0.276
82615W        W49398  18.828  34.458  10.654
82616W        W49399  44.542  38.924  11.571
82617W        W49400  21.683  22.012  10.420
82618W        W49401  24.342   6.266   3.747
82619W        W49402  36.399  31.966   2.570
82620W        W49403  21.147  16.012  13.451
82621W        W49404  19.068  16.824  14.351
82622W        W49405  19.736  12.394   2.033
82623W        W49406   5.654  28.063  12.457
82624W        W49407  19.318   4.086   3.737
82625W        W49408   9.260  27.043   1.002
82626W        W49409  21.638  41.590   0.237
82627W        W49410  39.903  21.311  10.704
82628W        W49411  14.365   6.729   2.015
82629W        W49412  16.979   4.455   5.054
82630W        W49413  28.515   7.692   2.024
82631W        W49414   6.715   1.006   3.711
82632W        W49415  37.398   2.945  12.817
82633W        W49416  39.882   5.190  12.414
82634W        W49417  23.656   4.855   0.706
82635W        W49418   2.623  17.922  14.400
82636W        W49419  38.924  19.936   4.276
82637W        W49420  40.842  10.607   1.657
82638W        W49421  16.008   5.709  11.579
82639W        W49422  35.026   7.829   0.014
82640W        W49423  29.390  20.324  10.934
82641W        W49424  31.143  38.035   1.351
82642W        W49425  23.469  35.547  11.077
82643W        W49426  27.219  19.067   1.040
82644W        W49427  13.943   2.345  11.118
82645W        W49428  34.457   6.953   0.880
82646W        W49429  23.767  16.673   2.614
82647W        W49430  27.198  23.449   4.109
82648W        W49431  37.598   5.872   4.055
82649W        W49432   8.617  35.462   4.269
82650W        W49433   7.998  35.715   5.011
82651W        W49434   4.720   2.718   3.644
82652W        W49435  24.474   3.312  12.962
82653W        W49436   6.427  28.086  12.980
82654W        W49437  36.840  34.086  14.653
82655W        W49438   7.371  41.830  12.909
82656W        W49439   6.802  15.790  12.468
82657W        W49440  16.897   0.447  12.649
82658W        W49441   8.766  12.335   0.496
82659W        W49442  37.778   7.851   0.926
82660W        W49443  24.276  41.568   3.141
82661W        W49444  37.629   2.384  14.800
82662W        W49445   2.041   6.106  14.960
82663W        W49446  41.250  16.520  14.563
82664W        W49447  34.817  21.969  13.819
82665W        W49448  22.491   4.377   0.275
82666W        W49449  15.086  26.113   3.685
82667W        W49450  15.985   7.188  13.432
82668W        W49451  42.378  22.306  13.025
82669W        W49452   3.436  15.645  14.296
82670W        W49453  23.092   3.018   2.290
82671W        W49454  17.422  19.105   1.758
82672W        W49455  21.803  33.730   3.232
82673W        W49456   6.297  26.571   5.269
82674W        W49457  13.013  20.634  12.861
82675W        W49458  30.950  34.863   2.720
82676W        W49459  20.631  32.079   3.759
82677W        W49460  29.982  22.020  10.679
82678W        W49461  20.764   1.001  11.231
82679W        W49462  44.073  26.661  14.630
82680W        W49463  31.245  43.781   1.788
82681W        W49464  40.063  40.765   4.201
82682W        W49465  37.557  34.828   4.148
82683W        W49466  15.531  15.271   0.884
82684W        W49467  44.603   9.910  12.087
82685W        W49468  22.245   4.488   3.696
82686W        W49469  32.879  38.114   2.819
82687W        W49470  28.166  32.168  14.458
82688W        W49471  40.470  38.019  14.300
82689W        W49472   9.136   3.710  13.852
82690W        W49473  27.426  37.405  13.043
82691W        W49474  23.635  33.158  13.805
82692W        W49475  43.356  32.519  13.039
82693W        W49476  26.116  30.629   4.706
82694W        W49477  44.200  10.568  13.655
82695W        W49478  14.385  43.440  12.046
82696W        W49479  15.846   9.142  14.671
82697W        W49480  29.463  42.384  14.199
82698W        W49481  33.938  33.104  12.736
82699W        W49482  10.752   2.655  13.281
82700W        W49483  28.478  17.586   4.597
82701W        W49484  44.572  15.403   1.473
82702W        W49485  35.929  19.830   0.856
82703W        W49486  40.459  17.116   0.444
82704W        W49487  31.021   0.327   3.457
82705W        W49488  21.256  12.398  11.110
82706W        W49489   5.932  22.169  10.541
82707W        W49490  20.683  31.942  11.017
82708W        W49491  27.601   1.785  14.456
82709W        W49492  32.219   4.224   2.789
82710W        W49493   4.494   1.266  12.451
82711W        W49494   7.186  23.260  11.552
82712W        W49495  30.919   3.998   3.375
82713W        W49496  11.919   0.530   0.725
82714W        W49497  35.063  21.327  11.543
82715W        W49498  38.595   2.825   4.029
82716W        W49499   3.842  42.682   2.679
82717W        W49500  17.802  17.366   4.040
82718W        W49501  19.834  12.159  10.679
82719W        W49502  18.268  40.907  14.848
82720W        W49503   8.381  35.384  14.892
82721W        W49504  13.118  14.303  13.412
82722W        W49505  41.948  44.502   0.391
82723W        W49506  17.233  35.902  10.371
82724W        W49507   0.896  32.888  14.483
82725W        W49508  21.680   5.910  10.668
82726W        W49509  35.871   5.814   0.846
82727W        W49510  40.577  35.859  12.442
82728W        W49511  39.333  27.204   3.005
82729W        W49512   6.520   2.671   4.118
82730W        W49513   9.695   1.297  13.820
82731W        W49514  42.153  20.148  11.570
82732W        W49515  16.064   0.312   3.732
82733W        W49516  12.204  35.999   0.227
82734W        W49517  20.116  37.810  14.825
82735W        W49518  16.647  17.494   1.700
82736W        W49519   3.218  12.217   3.246
82737W        W49520  11.862  41.620  10.522
82738W        W49521  41.743  38.742   2.743
82739W        W49522  12.661  25.073   4.156
82740W        W49523  23.266  32.020   1.464
82741W        W49524  44.905  14.692  10.758
82742W        W49525  41.512  11.194   3.131
82743W        W49526  38.974  25.987  10.396
82744W        W49527   6.261  35.051  14.472
82745W        W49528   4.514  39.579  13.097
82746W        W49529  24.665  19.098  10.579
82747W        W49530   4.962  21.193   2.698
82748W        W49531  24.214  44.332   2.357
82749W        W49532   1.305  29.075   3.683
82750W        W49533  36.321  37.363   4.094
82751W        W49534   5.471  33.093  11.939
82752W        W49535  19.107  42.342   2.210
82753W        W49536  39.528   6.271   4.231
82754W        W49537   9.681  26.180   3.257
82755W        W49538  30.592  27.679   1.206
82756W        W49539  28.928  28.633   1.183
82757W        W49540  40.728  37.613   5.126
82758W        W49541  41.982  19.812   5.097
82759W        W49542  16.127  44.685   4.669
82760W        W49543  33.664  42.975  14.290
82761W        W49544  21.799  23.519   0.031
82762W        W49545  17.506  38.350   2.737
82763W        W49546  43.654  22.497  14.415
82764W        W49547  13.080  14.052   3.618
82765W        W49548  13.166  10.651  13.034
82766W        W49549  10.207  13.627   2.558
82767W        W49550   7.666  31.116   2.758
82768W        W49551   6.715  14.838  10.741
82769W        W49552  12.353   8.654   2.765
82770W        W49553  31.597  12.987   1.875
82771W        W49554  21.059   9.629   4.155
82772W        W49555  35.378  24.669  11.447
82773W        W49556  30.013  30.721  10.790
82774W        W49557  15.546   4.397   4.525
82775W        W49558  24.538  16.327   3.967
82776W        W49559  27.029  11.285  11.566
82777W        W49560  29.433  20.105   4.336
82778W        W49561  23.678  33.925  12.878
82779W        W49562   6.259   4.467  10.905
82780W        W49563  25.411  21.203  12.135
82781W        W49564  19.399  22.650   0.203
82782W        W49565  26.285  35.206  14.694
82783W        W49566  43.387  37.237  12.435
82784W        W49567  35.606  23.051   3.491
82785W        W49568   3.770   8.177   2.886
82786W        W49569  34.356  28.254   4.079
82787W        W49570  36.139  32.394   2.162
82788W        W49571  27.114  40.411   2.314
82789W        W49572  14.387  23.569   2.374
82790W        W49573  16.133  28.545  14.250
82791W        W49574  32.455  14.903  13.837
82792W        W49575  13.762  21.317   0.762
82793W        W49576  14.095  35.900   5.037
82794W        W49577  30.621   6.264   4.404
82795W        W49578   3.943  21.626   0.076
82796W        W49579   9.380  28.301   3.200
82797W        W49580  14.738  17.903   4.165
82798W        W49581  37.427   6.746  10.844
82799W        W49582   2.912  32.456  11.383
82800W        W49583   4.939   1.602  12.413
82801W        W49584  25.671  18.258  10.206
82802W        W49585  44.419  43.727  14.289
82803W        W49586   7.198  10.774   3.209
82804W        W49587   7.448  42.895   3.705
82805W        W49588   9.261  35.960   2.405
82806W        W49589  16.642  26.151   1.388
82807W        W49590  29.658  26.390   4.627
82808W        W49591  34.057  42.349  13.330
82809W        W49592  37.886  40.599   1.736
82810W        W49593   3.336   8.240   3.742
82811W        W49594  36.102  38.883   3.660
82812W        W49595  36.527  39.961   1.797
82813W        W49596  31.584  42.439  10.567
82814W        W49597  27.490  19.281  14.470
82815W        W49598  11.039  38.529  10.249
82816W        W49599  29.486  29.018   1.939
82817W        W49600  38.318  30.555  11.587
82818W        W49601  40.471   5.427   1.393
82819W        W49602  18.373  19.349   1.760
82820W        W49603  34.082  29.178   1.814
82821W        W49604  34.370   8.914  10.747
82822W        W49605  17.263  19.608   3.741
82823W        W49606   6.253   2.650  14.342
82824W        W49607   1.612  31.352  14.960
82825W        W49608   4.147  15.573  11.598
82826W        W49609  40.632  27.069  11.305
82827W        W49610  19.284  38.322  14.049
82828W        W49611   1.670  31.182  14.472
82829W        W49612  30.033  30.177   3.378
82830W        W49613   9.783  17.601  12.425
82831W        W49614  24.695  11.670  13.299
82832W        W49615  33.847  28.942   0.824
82833W        W49616  14.632  13.591  14.501
82834W        W49617  34.695  26.607  10.358
82835W        W49618  35.249  11.692   0.914
82836W        W49619  33.491  42.539   3.700
82837W        W49620  28.971  10.137  10.829
82838W        W49621  33.525   3.140  14.822
82839W        W49622  20.183  44.393  14.253
82840W        W49623  41.244   8.313  11.397
82841W        W49624  38.377  36.085   2.169
82842W        W49625  40.113  14.690  12.469
82843W        W49626   4.170  29.098   3.143
82844W        W49627   4.285  27.763  12.386
82845W        W49628  17.789   0.219   1.339
82846W        W49629  13.254  15.272   0.279
82847W        W49630   6.993  15.863  11.997
82848W        W49631  19.619  32.984  10.681
82849W        W49632   8.007  18.693  11.057
82850W        W49633  36.396  26.179   0.086
82851W        W49634   4.095  21.084   1.476
82852W        W49635   7.336  41.056  10.691
82853W        W49636   2.164  25.327   5.148
82854W        W49637  26.553  26.243   0.932
82855W        W49638  29.338  21.581  14.408
82856W        W49639  23.469  30.200   0.723
82857W        W49640   4.553   9.572  12.671
82858W        W49641  18.740  14.090   0.072
82859W        W49642  29.152  27.219  13.500
82860W        W49643  32.369  34.494  12.945
82861W        W49644  16.594  16.059  10.296
82862W        W49645   0.108  21.176  10.425
82863W        W49646   8.700  34.933   0.909
82864W        W49647  23.470  24.740   2.285
82865W        W49648  28.994  12.656  14.858
82866W        W49649   0.693  12.318   9.821
82867W        W49650  15.110  23.863   0.041
82868W        W49651  20.721   2.332  13.842
82869W        W49652  21.636   0.142  12.523
82870W        W49653   3.112  26.934   1.277
82871W        W49654  13.919  24.485   3.868
82872W        W49655  30.637  24.576  14.444
82873W        W49656   9.678  17.267  14.273
82874W        W49657  33.713  38.987   2.590
82875W        W49658  32.842   6.212   0.763
82876W        W49659  10.147  35.566  12.625
82877W        W49660   7.752  34.531  12.511
82878W        W49661   9.250  43.953  13.149
82879W        W49662  34.874  42.175   4.040
82880W        W49663   7.114  41.349  11.338
82881W        W49664  11.772  35.328  14.070
82882W        W49665  14.740   0.405   0.696
82883W        W49666  29.011  37.150  14.834
82884W        W49667   5.256  39.076   4.555
82885W        W49668  31.943  43.527  11.989
82886W        W49669  15.455  27.229  12.568
82887W        W49670  28.494   8.259   4.646
82888W        W49671  27.656  38.915  13.265
82889W        W49672  17.352  33.045   4.195
82890W        W49673  38.544  24.598   4.554
82891W        W49674  14.660  15.533   3.762
82892W        W49675  21.709  37.710   3.327
82893W        W49676  43.589   8.173  10.432
82894W        W49677   8.516  35.901   3.740
82895W        W49678  20.544  40.401  14.538
82896W        W49679   8.941  28.635   1.939
82897W        W49680   3.524  32.487   4.088
82898W        W49681  28.098   4.760  11.608
82899W        W49682   5.119  13.606   1.024
82900W        W49683  29.207  34.139   0.861
82901W        W49684   7.751  36.104  12.541
82902W        W49685  16.407  10.332  11.988
82903W        W49686  25.649   2.203  11.472
82904W        W49687  34.091  10.174  12.725
82905W        W49688  17.876   8.974   4.128
82906W        W49689  15.729  35.777   2.078
82907W        W49690  29.560  41.793  10.287
82908W        W49691  43.937  35.414  10.366
82909W        W49692  14.355   9.551  11.995
82910W        W49693  11.629  44.636   4.173
82911W        W49694  41.295  15.784  13.646
82912W        W49695  27.840  29.023   9.875
82913W        W49696  34.222   9.597   2.608
82914W        W49697  20.306   9.901   2.951
82915W        W49698  43.773  18.285   3.242
82916W        W49699  26.554  10.525   4.568
82917W        W49700   4.733  32.978  13.778
82918W        W49701  24.986  13.636  14.560
82919W        W49702   3.420   7.123  14.404
82920W        W49703  24.245  13.380   2.685
82921W        W49704  11.165   3.968  12.788
82922W        W49705  25.665  29.833  12.017
82923W        W49706  32.047  43.957   0.821
82924W        W49707  38.935  31.898  13.886
82925W        W49708  29.549  30.424  14.328
82926W        W49709  18.021  31.929   0.045
82927W        W49710  41.290  23.999   3.200
82928W        W49711  21.735  36.127   0.710
82929W        W49712  26.918  28.340   3.285
82930W        W49713  25.164  32.887   0.909
82931W        W49714   0.855  39.069   4.670
82932W        W49715  33.502   4.198  13.361
82933W        W49716  37.060  27.996   1.286
82934W        W49717  19.217  41.481  14.310
82935W        W49718  16.947  39.932   1.380
82936W        W49719  43.938  35.854  12.166
82937W        W49720  15.887  42.077  13.051
82938W        W49721  35.327   6.838   0.947
82939W        W49722  34.544   4.410  10.252
82940W        W49723  21.549   1.859   0.002
82941W        W49724  31.163  44.003  11.590
82942W        W49725  38.319  26.039   4.255
82943W        W49726  41.960  43.214   4.882
82944W        W49727  26.693  22.084   3.112
82945W        W49728  29.093  21.554   2.305
82946W        W49729   9.374  17.660  10.697
82947W        W49730  27.983   1.522   0.830
82948W        W49731  10.474  38.273  14.070
82949W        W49732  33.952  39.515  13.581
82950W        W49733  27.428  30.078   0.865
82951W        W49734  29.305  21.961  14.770
82952W        W49735  40.608  28.907  10.737
82953W        W49736  34.082   0.068   3.181
82954W        W49737  30.040  34.615   2.620
82955W        W49738  26.209  35.633  10.817
82956W        W49739  36.510  10.371  13.142
82957W        W49740  41.628  21.245  14.944
82958W        W49741  13.803  11.909  12.076
82959W        W49742  39.984  10.649  10.777
82960W        W49743  43.591  23.100   2.220
82961W        W49744   9.977  37.607  10.962
82962W        W49745  10.885   7.180  10.893
82963W        W49746  38.372   8.340   3.272
82964W        W49747  10.516  24.502  13.951
82965W        W49748   7.291  40.098  13.496
82966W        W49749  36.858  25.982   0.247
82967W        W49750   8.716  18.222  11.121
82968W        W49751  11.341   9.047  14.501
82969W        W49752  20.200   2.984  12.967
82970W        W49753  34.309  37.310  11.049
82971W        W49754  42.455  16.195   2.576
82972W        W49755  18.755   2.367  13.132
82973W        W49756   0.315  35.919  12.416
82974W        W49757  23.146  43.243   0.895
82975W        W49758  23.559  42.964  13.993
82976W        W49759   1.604  39.254   1.790
82977W        W49760   1.949  39.928   4.888
82978W        W49761   6.882  11.156  11.584
82979W        W49762  14.145  27.193  11.447
82980W        W49763  20.087  25.151   5.006
82981W        W49764  41.354  10.697  14.074
82982W        W49765  14.645   6.832  12.678
82983W        W49766  40.791  26.400  12.733
82984W        W49767  20.006  44.722   4.942
82985W        W49768  32.850  13.669  13.846
82986W        W49769  35.286  30.919  11.616
82987W        W49770   5.375  44.832  11.448
82988W        W49771  25.626  33.350   1.399
82989W        W49772   0.334  28.505  10.777
82990W        W49773  19.847  10.269   1.783
82991W        W49774  35.087  17.250  14.753
82992W        W49775  42.617   3.848   4.722
82993W        W49776  28.667  38.779   3.893
82994W        W49777   4.015  17.652  11.109
82995W        W49778  41.237   2.611  13.631
82996W        W49779  44.305  37.689   5.035
82997W        W49780  13.229   0.075   0.523
82998W        W49781  19.079   9.924   1.680
82999W        W49782  15.714  43.400  12.287
83000W        W49783  10.319  43.957  11.175
83001W        W49784   2.704  36.068  10.945
83002W        W49785  14.615   4.854   4.074
83003W        W49786  42.545  19.038  11.434
83004W        W49787  32.018  26.007   4.990
83005W        W49788  12.218   4.892   1.410
83006W        W49789  39.454   6.361  10.609
83007W        W49790   6.249  30.952  14.019
83008W        W49791  21.948   5.455   4.076
83009W        W49792  26.665   2.017  12.987
83010W        W49793  21.746  37.903   0.442
83011W        W49794  28.171   8.764   2.778
83012W        W49795  25.911  19.168   2.360
83013W        W49796  24.219  18.324   3.327
83014W        W49797  15.546  21.153  12.620
83015W        W49798  44.343  43.748   4.522
83016W        W49799   5.507  14.202   1.793
83017W        W49800  14.577  36.997  12.231
83018W        W49801  14.631  19.722  11.048
83019W        W49802  36.753  22.724   0.420
83020W        W49803   2.911  13.738   1.943
83021W        W49804  42.953  37.812   3.906
83022W        W49805  12.078  19.533  14.719
83023W        W49806  22.549  43.134  13.480
83024W        W49807   0.540  31.558   4.484
83025W        W49808   6.852  25.938   1.425
83026W        W49809  24.099  44.265  12.044
83027W        W49810  29.397   5.195   2.345
83028W        W49811  31.072  12.248  13.304
83029W        W49812  29.500  23.419   4.958
83030W        W49813  12.049  13.156  13.512
83031W        W49814  32.567  25.112  11.120
83032W        W49815  36.950   7.710  14.272
83033W        W49816  24.650  17.156   3.685
83034W        W49817  15.769   4.313   0.879
83035W        W49818  38.765  41.587  14.002
83036W        W49819   4.847  24.131  14.906
83037W        W49820  33.505   4.310   4.988
83038W        W49821  21.088  36.506  12.929
83039W        W49822  22.046  31.082  10.664
83040W        W49823  23.051   1.481   2.213
83041W        W49824   8.114  33.283   1.670
83042W        W49825  35.265  29.688  12.844
83043W        W49826  36.901  13.319  13.891
83044W        W49827  24.279  10.383  13.525
83045W        W49828  21.160  16.040  11.865
83046W        W49829  34.624  30.486  14.983
83047W        W49830  20.704  21.173   2.314
83048W        W49831  24.558  22.106  14.415
83049W        W49832  33.926   3.833   0.074
83050W        W49833  12.408  44.485   2.666
83051W        W49834  27.045   9.121  12.931
83052W        W49835  18.132  24.475   1.395
83053W        W49836  29.959   2.770  11.413
83054W        W49837  14.617  35.034   5.799
83055W        W49838  10.626  22.699  13.449
83056W        W49839   0.545  20.675   1.213
83057W        W49840  23.270   8.276  12.979
83058W        W49841  12.260  27.661  13.603
83059W        W49842  10.192  37.792  11.400
83060W        W49843  11.668  38.234   3.907
83061W        W49844  15.440  26.257  11.131
83062W        W49845  19.701  25.468  10.553
83063W        W49846  35.993  29.023  10.774
83064W        W49847  39.281  44.643   0.619
83065W        W49848  26.256  19.222   3.680
83066W        W49849  22.762  38.316  14.042
83067W        W49850  32.848   4.760  13.199
83068W        W49851  40.839  20.521  11.118
83069W        W49852   6.383  19.944  11.663
83070W        W49853  18.810  10.842   4.325
83071W        W49854  13.144  21.450  10.828
83072W        W49855  31.865  39.543   4.111
83073W        W49856  13.732  27.969  10.689
83074W        W49857  14.988  17.944   9.952
83075W        W49858  17.542   8.392  12.135
83076W        W49859  26.050  19.079  14.228
83077W        W49860  24.192  17.466   3.620
83078W        W49861  21.104  12.731   0.476
83079W        W49862  24.366  29.885   0.924
83080W        W49863  23.783  28.443   1.879
83081W        W49864  30.223   9.676  14.046
83082W        W49865  19.149  43.777  11.625
83083W        W49866  39.987  21.720  14.165
83084W        W49867  36.601  22.702   1.769
83085W        W49868  15.163   6.868  12.628
83086W        W49869   5.428  12.860   3.510
83087W        W49870  14.071  40.274   2.785
83088W        W49871  21.569  24.523   1.205
83089W        W49872   4.204  15.086  11.148
83090W        W49873   8.654  33.417  11.607
83091W        W49874  36.555  40.516   4.603
83092W        W49875  25.159  41.264   2.181
83093W        W49876  38.457  36.832  12.451
83094W        W49877   8.779  32.657   4.098
83095W        W49878  14.142  18.176   2.328
83096W        W49879  10.207  33.378   1.968
83097W        W49880  27.116  29.242  12.647
83098W        W49881  21.577  23.261  14.419
83099W        W49882  18.557  39.190   1.849
83100W        W49883  11.005  13.548   3.492
83101W        W49884  16.374  38.935   4.611
83102W        W49885  35.676   8.242   3.711
83103W        W49886  14.140  14.749  12.066
83104W        W49887  31.513  39.514  10.713
83105W        W49888   7.096  16.665  12.518
83106W        W49889   4.242  30.575   3.296
83107W        W49890  22.086  31.520  11.621
83108W        W49891  26.012   3.189   1.968
83109W        W49892  31.659  11.419  13.480
83110W        W49893   3.165  10.950   2.176
83111W        W49894   1.433   0.890   4.191
83112W        W49895  35.576  40.330  12.804
83113W        W49896  36.452  15.496  10.404
83114W        W49897   9.936   6.469  13.498
83115W        W49898  40.253  32.986  13.401
83116W        W49899  22.777   2.819  14.958
83117W        W49900  28.580   3.906   2.348
83118W        W49901  37.748  43.567   3.692
83119W        W49902   5.841   6.673  11.592
83120W        W49903  32.895  18.587  14.935
83121W        W49904   5.634   1.742  13.090
83122W        W49905  28.421  30.043   1.852
83123W        W49906  29.180  35.738  14.409
83124W        W49907   1.021  12.674  10.023
83125W        W49908  35.995  32.338   1.353
83126W        W49909  43.383   3.380   3.101
83127W        W49910  18.567  13.029   4.511
83128W        W49911   2.735  18.605   2.866
83129W        W49912  14.627   7.386  11.509
83130W        W49913  19.355  24.180   4.798
83131W        W49914   1.363  10.452   4.099
83132W        W49915  37.778  16.604  11.965
83133W        W49916  10.258  19.524  12.009
83134W        W49917  29.655  18.177  13.722
83135W        W49918  15.096  32.879  13.480
83136W        W49919   1.521  31.658  11.423
83137W        W49920   4.238  21.656   2.899
83138W        W49921  26.733  37.316  13.638
83139W        W49922  10.040  27.195  12.441
83140W        W49923  24.099  21.270  12.166
83141W        W49924  31.213   4.239   0.361
83142W        W49925  10.323  18.326   1.447
83143W        W49926  17.070  43.473   4.785
83144W        W49927  29.417   7.873   1.804
83145W        W49928   3.338  27.462   3.747
83146W        W49929  20.985  30.724   3.570
83147W        W49930  34.880   2.742  12.379
83148W        W49931  24.669   0.108   1.791
83149W        W49932  20.975  15.047  10.237
83150W        W49933  40.836   5.704   1.007
83151W        W49934   4.853  44.334  14.521
83152W        W49935  24.144  16.645   3.892
83153W        W49936   2.701   9.808   4.645
83154W        W49937   9.799  18.325   4.700
83155W        W49938  14.032   6.628  14.526
83156W        W49939  36.694   6.354  11.747
83157W        W49940   3.678  35.010   3.614
83158W        W49941  15.455  22.883  11.131
83159W        W49942  22.740  15.157   0.013
83160W        W49943  14.927  18.786   1.643
83161W        W49944  36.386  24.081  12.389
83162W        W49945   9.425  27.515   0.797
83163W        W49946  44.311   1.948  10.991
83164W        W49947  10.413   9.851   2.768
83165W        W49948  32.763  36.546  10.498
83166W        W49949  19.292  44.930   0.457
83167W        W49950   5.945  10.908   0.888
83168W        W49951  26.618  36.347  13.436
83169W        W49952  37.044   4.821  12.919
83170W        W49953  22.943  16.984  10.310
83171W        W49954  40.599  13.772  13.989
83172W        W49955  31.284   2.960  12.504
83173W        W49956  39.256  26.053  11.701
83174W        W49957  14.240  36.415   1.099
83175W        W49958  19.754  10.124   4.634
83176W        W49959  36.781   2.984   0.476
83177W        W49960  33.701  23.606  13.428
83178W        W49961   0.338  33.916  11.305
83179W        W49962  13.130   5.857  11.618
83180W        W49963  43.560  44.302  12.468
83181W        W49964  20.417  31.653  14.855
83182W        W49965  10.241   3.258   3.162
83183W        W49966  14.225   9.525  14.789
83184W        W49967  23.454  14.672   3.237
83185W        W49968   4.463  32.507   0.491
83186W        W49969  20.542  33.540  13.546
83187W        W49970   3.787  12.779  13.441
83188W        W49971  43.709   5.489  14.328
83189W        W49972  43.568   2.489   2.281
83190W        W49973  29.476  17.809   1.606
83191W        W49974  18.432  16.230  14.360
83192W        W49975  43.058  18.720   4.644
83193W        W49976  14.114  33.767   3.312
83194W        W49977  44.518  35.917   0.906
83195W        W49978  13.263   1.991   4.521
83196W        W49979  13.410   4.848  11.071
83197W        W49980  16.113  33.312  14.503
83198W        W49981  44.204  21.563   1.290
83199W        W49982  33.586  33.951   9.899
83200W        W49983  22.205   3.508   2.216
83201W        W49984  19.905  34.512  12.632
83202W        W49985   0.556  29.171  11.581
83203W        W49986  41.072  26.418   4.117
83204W        W49987  17.305   7.754   4.021
83205W        W49988  17.240  30.906  12.172
83206W        W49989  13.416  35.452   0.503
83207W        W49990  37.617   7.493  12.030
83208W        W49991   3.540  13.087   4.051
83209W        W49992   4.780  23.739  13.301
83210W        W49993   9.812  24.714   1.477
83211W        W49994  18.635  14.862   3.283
83212W        W49995  11.287  26.904   4.173
83213W        W49996  35.630  16.211   2.098
83214W        W49997  18.663  44.486   4.587
83215W        W49998  44.378  26.969   3.375
83216W        W49999  35.059  23.602  14.977
83217W        W50000  18.664  41.913  12.051
83218W        W50001   2.304  22.663   0.951
83219W        W50002  35.350   9.159   2.221
83220W        W50003  31.127   9.801  13.851
83221W        W50004  16.455  16.988   0.840
83222W        W50005  31.898  39.310  13.956
83223W        W50006  29.213  28.390   3.306
83224W        W50007  13.771  42.694   3.384
83225W        W50008  41.749  19.360  13.420
83226W        W50009   0.355  40.371   3.384
83227W        W50010   3.854  40.786   3.397
83228W        W50011  22.072   7.613  13.553
83229W        W50012  34.005   7.139  11.827
83230W        W50013  44.520  39.281  12.390
83231W        W50014  34.533   1.484  14.243
83232W        W50015  38.743  24.777  12.592
83233W        W50016   4.811   0.261   4.370
83234W        W50017  40.801  15.408   2.236
83235W        W50018  42.480  19.104  13.907
83236W        W50019  16.290  32.502  12.736
83237W        W50020   1.528  29.680  12.586
83238W        W50021  28.204  39.981  10.282
83239W        W50022  20.442  18.857   1.948
83240W        W50023  29.505  26.103   1.986
83241W        W50024   4.301   5.779   2.599
83242W        W50025   6.949  33.683  13.011
83243W        W50026   8.669  38.146  12.869
83244W        W50027  14.973  27.164  13.973
83245W        W50028  15.079  16.058   4.420
83246W        W50029  32.789  34.023  10.625
83247W        W50030  16.153  16.734  10.784
83248W        W50031  42.418  39.638  14.147
83249W        W50032   2.690  16.532   2.779
83250W        W50033  15.607  41.261   3.164
83251W        W50034   9.931   0.622  13.243
83252W        W50035  34.608   5.291  12.895
83253W        W50036  31.501  12.310  12.015
83254W        W50037   3.438  39.148   0.900
83255W        W50038  25.464   2.058  10.634
83256W        W50039   9.982  44.718   3.292
83257W        W50040  34.425   5.975   1.029
83258W        W50041  21.970  32.500  14.043
83259W        W50042  32.029  13.313   3.093
83260W        W50043  27.580   6.493   1.490
83261W        W50044  30.018  30.135   0.345
83262W        W50045  41.872   3.860   2.358
83263W        W50046  10.539   9.282  12.839
83264W        W50047  41.348  16.825  10.697
83265W        W50048  32.521  23.009   5.466
83266W        W50049  29.386  18.717   1.769
83267W        W50050  22.690  21.086   2.197
83268W        W50051  20.015   0.954  10.602
83269W        W50052  32.491  23.706  13.570
83270W        W50053  19.725  21.239  10.439
83271W        W50054  12.336  39.995   2.738
83272W        W50055  26.661   8.787  10.135
83273W        W50056  41.897  10.448  13.425
83274W        W50057  19.854  31.248  14.148
83275W        W50058  40.401  44.793   2.817
83276W        W50059   0.477  38.893  12.609
83277W        W50060  30.622  23.137   0.752
83278W        W50061  39.066   8.413  11.042
83279W        W50062  26.620  13.166   0.835
83280W        W50063  16.776  43.325   3.775
83281W        W50064  14.585   2.603  12.092
83282W        W50065  13.269   1.813  13.441
83283W        W50066  16.043  10.724  13.084
83284W        W50067  43.010  23.588  13.016
83285W        W50068  25.740   2.421   4.593
83286W        W50069  39.994  35.556   2.274
83287W        W50070  19.152  23.944  13.552
83288W        W50071  37.322  32.840  14.940
83289W        W50072  24.418   6.179   1.946
83290W        W50073  17.320  20.111   0.269
83291W        W50074   0.878  20.157  14.705
83292W        W50075  29.947  31.959  13.894
83293W        W50076  12.330   1.908   0.912
83294W        W50077   1.249   9.688  13.824
83295W        W50078  22.515  34.721  13.770
83296W        W50079  35.551  36.758  12.388
83297W        W50080  12.805  15.799  13.376
83298W        W50081  29.615  32.186  12.927
83299W        W50082  22.829  38.915  12.951
83300W        W50083  24.994  15.757   1.391
83301W        W50084  15.258  32.412  14.556
83302W        W50085  41.750  28.534  14.888
83303W        W50086  23.209  25.995  13.622
83304W        W50087  20.696  41.419  13.074
83305W        W50088   7.417   5.366  13.280
83306W        W50089  33.120  35.985   1.583
83307W        W50090  13.275  13.235  11.463
83308W        W50091  21.996  27.993  11.498
83309W        W50092  40.730  13.253   2.192
83310W        W50093  14.198  28.951   2.208
83311W        W50094  22.643  14.667  14.929
83312W        W50095  27.652  42.384  11.171
83313W        W50096  23.831  35.742   1.207
83314W        W50097  43.020  25.205  14.908
83315W        W50098  14.620  16.107   4.629
83316W        W50099   0.025  38.394  13.140
83317W        W50100  26.369  29.731  10.677
83318W        W50101  32.795   5.553   1.696
83319W        W50102  43.217   4.480  11.954
83320W        W50103  18.775  20.317   4.237
83321W        W50104  11.955  33.956  12.492
83322W        W50105  34.423  32.844  12.028
83323W        W50106   8.203   2.263   1.944
83324W        W50107  22.174  42.018   0.974
83325W        W50108  11.326  39.550  14.987
83326W        W50109  42.877  15.778   5.428
83327W        W50110  33.992  44.000  12.070
83328W        W50111  18.677  40.514   3.565
83329W        W50112  27.776  29.155   2.679
83330W        W50113  26.501  42.989  12.925
83331W        W50114  16.526  12.235   4.694
83332W        W50115  18.294  41.594  13.503
83333W        W50116  13.289  16.306  14.815
83334W        W50117   3.873  39.784  11.630
83335W        W50118  29.961  31.437  13.046
83336W        W50119  41.410  10.791   1.432
83337W        W50120  19.360  19.257   3.576
83338W        W50121  11.771  17.568   3.270
83339W        W50122  44.001  41.558   2.181
83340W        W50123  22.988   5.459   0.386
83341W        W50124   8.931  10.840   0.011
83342W        W50125   0.505   7.797   0.223
83343W        W50126  14.262   0.783  12.869
83344W        W50127   9.150  24.304  13.925
83345W        W50128   7.704  39.811  10.906
83346W        W50129  37.789  22.983  11.096
83347W        W50130  28.077  22.709   0.254
83348W        W50131  24.496  44.799   2.230
83349W        W50132  28.909  23.175   1.337
83350W        W50133  44.904  28.467   1.296
83351W        W50134  15.106  37.287  11.657
83352W        W50135  34.015  13.751  13.733
83353W        W50136  27.103  17.833   0.290
83354W        W50137  16.819  41.220  12.612
83355W        W50138  30.099  16.393  14.668
83356W        W50139  20.714  36.674   1.079
83357W        W50140   1.917   3.902  14.249
83358W        W50141  41.030  40.515  13.067
83359W        W50142  17.645  38.979   0.251
83360W        W50143  36.931   2.840   4.768
83361W        W50144   0.310  12.797   2.633
83362W        W50145  28.604  29.142   1.906
83363W        W50146  21.289   2.913  14.725
83364W        W50147  26.689  16.623   4.189
83365W        W50148   8.431  37.414  11.588
83366W        W50149   1.397   3.714  12.478
83367W        W50150  15.247  41.422  14.442
83368W        W50151  13.578  25.899   4.775
83369W        W50152   2.768  44.378   3.586
83370W        W50153   3.915  38.793  11.641
83371W        W50154  19.305  20.539   3.599
83372W        W50155  14.213   2.231   4.249
83373W        W50156  32.641  37.590   4.559
83374W        W50157  26.658  25.277  11.567
83375W        W50158   2.785  35.184  11.567
83376W        W50159  28.406  28.428  14.420
83377W        W50160  13.729  11.757  14.291
83378W        W50161   6.847  40.020   1.664
83379W        W50162   9.314  44.268   4.540
83380W        W50163  34.642   6.726   2.693
83381W        W50164  32.149   0.721   3.719
83382W        W50165  21.973  38.996  11.992
83383W        W50166   1.067   9.563   2.853
83384W        W50167  28.059  43.835   4.489
83385W        W50168  13.411   4.007  11.559
83386W        W50169  18.410  31.950   5.044
83387W        W50170  17.513  11.227   2.374
83388W        W50171   8.270  16.085  14.371
83389W        W50172  21.729  40.790  14.834
83390W        W50173  34.599  23.521  12.605
83391W        W50174  20.311   6.271  10.514
83392W        W50175  28.714  44.578  11.715
83393W        W50176  14.225  38.054  10.588
83394W        W50177  14.310   7.882  14.898
83395W        W50178  23.308  40.071   0.970
83396W        W50179   8.365  39.969  13.044
83397W        W50180  21.004  10.699   0.402
83398W        W50181  27.121  15.266   4.304
83399W        W50182  26.672   2.707  13.526
83400W        W50183  41.487  17.798   2.380
83401W        W50184  35.079  19.161   1.521
83402W        W50185  21.409  25.051   3.801
83403W        W50186  19.292  29.666  14.706
83404W        W50187  17.149  38.599   0.842
83405W        W50188  16.207  26.077  12.475
83406W        W50189  15.399   5.732   2.333
83407W        W50190  42.216   6.360   1.119
83408W        W50191  32.062  40.239  13.799
83409W        W50192  37.190  30.651   2.239
83410W        W50193  20.540   0.814   5.148
83411W        W50194  32.075  24.280   3.627
83412W        W50195  21.535  39.466  12.870
83413W        W50196  34.559  30.844  13.256
83414W        W50197  12.730  30.472   2.869
83415W        W50198  33.344   5.877   3.267
83416W        W50199  27.071  23.094   4.578
83417W        W50200   6.914  32.971  12.417
83418W        W50201  34.809  42.714   0.298
83419W        W50202  23.234  11.613  11.079
83420W        W50203   3.829   1.900  13.883
83421W        W50204  17.264  37.898   2.842
83422W        W50205  14.852  19.259  11.212
83423W        W50206  18.531  14.772  13.330
83424W        W50207  37.876   6.618   0.645
83425W        W50208   8.610  28.546   2.902
83426W        W50209  13.764  16.950  14.850
83427W        W50210  34.838   7.426   1.410
83428W        W50211  20.001  15.238   2.322
83429W        W50212   5.588  26.956  12.502
83430W        W50213  18.974  34.462   2.304
83431W        W50214  23.158  34.148   4.012
83432W        W50215  30.404   0.396   0.353
83433W        W50216  25.545  44.304  13.250
83434W        W50217  37.456  23.475  11.756
83435W        W50218   4.517  35.632  13.080
83436W        W50219  17.653  28.519  12.527
83437W        W50220  39.279  28.467   2.290
83438W        W50221  34.319  33.025  13.072
83439W        W50222  42.360  11.477   2.952
83440W        W50223  12.712  23.893  11.857
83441W        W50224  29.084  12.626   1.288
83442W        W50225  24.008   8.407  12.032
83443W        W50226  25.505  21.544   1.890
83444W        W50227  43.608   4.964   2.287
83445W        W50228  11.192  14.323   1.036
83446W        W50229   3.697  14.134  13.317
83447W        W50230  17.733  39.923   2.014
83448W        W50231   4.469  44.796   2.223
83449W        W50232  24.231  32.582   4.409
83450W        W50233   7.313  40.271   2.192
83451W        W50234  35.452   2.222   0.389
83452W        W50235  33.782  30.590  12.882
83453W        W50236   1.966  42.554  13.531
83454W        W50237  27.957   5.385  13.514
83455W        W50238   2.498  37.657   5.124
83456W        W50239  20.689  42.205   0.859
83457W        W50240  11.809   6.739   1.435
83458W        W50241  12.512  25.963  14.438
83459W        W50242   8.728   3.363   1.468
83460W        W50243   0.848  22.311  13.590
83461W        W50244  14.525  14.175  10.101
83462W        W50245   6.261  17.511   4.393
83463W        W50246   9.708  23.162  11.390
83464W        W50247   0.869  33.377  13.060
83465W        W50248  20.532  10.836   0.154
83466W        W50249  38.010  10.325   1.720
83467W        W50250  27.930   6.867  13.298
83468W        W50251  23.259  40.009   3.323
83469W        W50252  11.579  42.877  11.695
83470W        W50253  21.808  28.802  12.969
83471W        W50254  20.659  11.272  10.634
83472W        W50255   6.867   7.265   3.367
83473W        W50256  21.109  33.158  14.001
83474W        W50257  27.592  31.367  13.816
83475W        W50258  30.442  39.949   2.366
83476W        W50259   8.792  20.943   1.057
83477W        W50260  40.826   3.346  10.762
83478W        W50261  27.990  21.692   1.758
83479W        W50262   4.775  32.397   0.877
83480W        W50263   8.509  16.682  11.685
83481W        W50264  13.102  11.967   4.140
83482W        W50265  18.568  29.124  13.966
83483W        W50266   4.436  23.266   3.175
83484W        W50267  18.693  31.701  11.980
83485W        W50268  40.919   1.611   0.656
83486W        W50269  34.099  39.868   2.115
83487W        W50270  37.374  20.955  11.214
83488W        W50271  30.523  29.459  10.564
83489W        W50272   3.273  11.330  10.755
83490W        W50273  12.286  36.098  14.728
83491W        W50274   7.791  14.077  11.584
83492W        W50275  19.062  43.526  12.070
83493W        W50276  10.791  30.606   0.165
83494W        W50277  18.641  15.638   2.787
83495W        W50278  37.569   0.028   2.382
83496W        W50279  20.495  12.786  11.051
83497W        W50280  36.059  38.908  12.401
83498W        W50281  36.870  15.624  12.534
83499W        W50282  20.045  40.241   1.571
83500W        W50283  42.731  21.146  11.015
83501W        W50284   5.089  11.603  13.367
83502W        W50285  31.061  34.159   3.223
83503W        W50286  16.089  11.352   4.553
83504W        W50287  11.140  34.585   2.700
83505W        W50288  15.640  35.844   3.101
83506W        W50289  39.531   8.651  11.112
83507W        W50290  44.949   8.029   1.896
83508W        W50291  30.166  20.286   1.260
83509W        W50292  23.828  38.405   0.762
83510W        W50293   9.958   4.768   1.289
83511W        W50294  17.060  42.349  10.665
83512W        W50295   4.837  20.020   0.862
83513W        W50296  41.813   2.981   0.680
83514W        W50297  10.147  27.101  11.465
83515W        W50298  33.092  37.409  11.472
83516W        W50299   3.966  32.850  13.440
83517W        W50300  36.972  24.062   1.009
83518W        W50301  17.619   5.869   2.560
83519W        W50302  32.716   7.297  14.283
83520W        W50303  26.256  21.260   2.693
83521W        W50304  31.421  26.135   4.160
83522W        W50305  18.142  36.611   2.817
83523W        W50306  29.603  11.889  13.803
83524W        W50307  16.647  21.613  13.329
83525W        W50308   9.137  20.520  13.936
83526W        W50309  14.658  38.025  13.781
83527W        W50310   7.398  33.887  12.788
83528W        W50311  24.223  35.501   3.195
83529W        W50312   4.564  44.453  13.847
83530W        W50313  36.679  19.023  12.190
83531W        W50314  37.573  44.260  12.131
83532W        W50315  31.032  41.362  14.756
83533W        W50316  43.781  42.908   3.702
83534W        W50317  27.447   1.488  12.052
83535W        W50318  22.185   8.427   4.481
83536W        W50319  31.565  22.615  13.474
83537W        W50320  38.583   8.465   1.831
83538W        W50321   2.401  36.755   2.346
83539W        W50322  22.300  25.030   4.448
83540W        W50323   1.885  32.586  12.308
83541W        W50324  12.808  24.073  10.621
83542W        W50325   9.092  29.019   3.637
83543W        W50326  34.561  42.986   2.180
83544W        W50327  35.373  29.628   2.005
83545W        W50328  33.108  38.883   4.662
83546W        W50329   1.883   1.089   3.896
83547W        W50330  19.250  21.058   3.795
83548W        W50331   6.279  12.293   0.770
83549W        W50332  35.691  19.572   2.267
83550W        W50333  16.039  31.934  12.619
83551W        W50334  37.861  42.332  13.821
83552W        W50335   4.415  32.677  11.542
83553W        W50336  30.884  16.926  13.074
83554W        W50337  38.121   9.474   1.307
83555W        W50338  10.762  38.346  12.509
83556W        W50339   6.770  25.393   3.631
83557W        W50340   0.543  13.443  11.556
83558W        W50341  20.776  35.989  11.601
83559W        W50342  19.126  23.476   3.692
83560W        W50343  29.153   8.999   1.965
83561W        W50344  10.278   0.846   1.346
83562W        W50345  32.297   0.296   1.865
83563W        W50346   6.010  32.030  12.431
83564W        W50347  25.074  44.946  13.410
83565W        W50348  32.721   8.473   3.215
83566W        W50349  16.822  22.869  11.917
83567W        W50350   2.438   2.698  11.701
83568W        W50351  17.329  35.684   0.892
83569W        W50352  36.962  20.961   0.553
83570W        W50353   4.787  16.135   0.225
83571W        W50354  37.950  18.584   0.722
83572W        W50355  12.217  40.626  14.533
83573W        W50356  28.653  10.398  14.553
83574W        W50357  16.148  27.985   2.630
83575W        W50358  20.485  31.897  14.388
83576W        W50359  44.009  44.967  11.960
83577W        W50360  38.361  14.784   2.650
83578W        W50361  34.906   7.008  11.282
83579W        W50362  16.947   2.655   3.565
83580W        W50363   6.912  25.155   0.805
83581W        W50364  33.496  15.800  12.910
83582W        W50365  15.786  14.732   3.100
83583W        W50366   8.675   9.202   4.558
83584W        W50367  42.991  43.963  14.459
83585W        W50368   3.143   0.852  12.523
83586W        W50369  15.751  16.502  10.506
83587W        W50370   6.297  11.136  12.214
83588W        W50371   0.804  15.744  13.508
83589W        W50372   2.953  39.109   3.701
83590W        W50373  43.103  31.646  11.201
83591W        W50374  32.378  11.740  12.989
83592W        W50375   5.688   7.190  12.538
83593W        W50376  12.559   4.808  14.554
83594W        W50377  16.601  32.524   4.298
83595W        W50378  12.239  38.925  14.296
83596W        W50379  41.777  17.163   3.137
83597W        W50380  29.305  43.939  11.059
83598W        W50381  10.365  30.403  14.342
83599W        W50382  23.474  25.494  11.697
83600W        W50383  17.118  23.055  10.358
83601W        W50384   3.274  32.188  11.082
83602W        W50385   6.843  43.502  11.480
83603W        W50386  13.427  44.963   2.688
83604W        W50387  16.983   6.744   0.887
83605W        W50388  27.405  39.483  12.924
83606W        W50389  35.852  41.863  13.829
83607W        W50390  32.536  27.575   0.457
83608W        W50391  40.324  10.700  11.160
83609W        W50392  13.634  33.555   4.584
83610W        W50393  34.037  30.941   2.836
83611W        W50394  16.779  23.995   0.392
83612W        W50395  32.021   2.423   3.466
83613W        W50396  37.132  32.648   3.769
83614W        W50397  21.653  25.050   1.380
83615W        W50398  35.771  12.774   2.698
83616W        W50399  27.957   7.378  10.971
83617W        W50400  21.912  36.210  12.399
83618W        W50401  11.749   1.732  10.272
83619W        W50402   9.396  39.344   3.829
83620W        W50403  31.483   6.120   0.769
83621W        W50404  25.760  37.501   3.008
83622W        W50405  26.367  42.081  14.368
83623W        W50406  39.335   6.736  13.097
83624W        W50407   3.442  29.260  14.589
83625W        W50408  21.060  36.330   2.307
83626W        W50409  44.349  33.829  12.393
83627W        W50410  37.288  41.571   1.021
83628W        W50411   0.332   6.420  13.344
83629W        W50412  12.735  32.755  14.427
83630W        W50413   3.982  34.541  14.459
83631W        W50414  25.192  17.277  10.468
83632W        W50415  31.020  37.953  12.154
83633W        W50416   4.386  34.939   3.349
83634W        W50417  39.398  17.998   3.207
83635W        W50418  17.049  32.612   4.041
83636W        W50419  26.717  13.698   3.786
83637W        W50420  34.677  39.742   0.851
83638W        W50421   2.008  30.961   2.912
83639W        W50422  14.311  44.799  12.049
83640W        W50423  12.264  40.428   1.921
83641W        W50424  10.761   2.274  14.288
83642W        W50425  20.134  12.766   2.358
83643W        W50426  35.337  17.137   0.693
83644W        W50427  40.054  21.317   3.103
83645W        W50428   4.876   2.629  12.496
83646W        W50429  34.816   5.836   5.524
83647W        W50430  21.525  41.310   4.932
83648W        W50431  28.624  14.779  13.175
83649W        W50432  10.211   3.364  14.784
83650W        W50433  12.659  40.291   0.635
83651W        W50434  19.068  30.913  10.647
83652W        W50435  14.450  32.288  11.516
83653W        W50436  33.369   3.296   5.081
83654W        W50437  28.745  38.926  11.413
83655W        W50438  34.500  17.110  12.416
83656W        W50439  39.567  19.503  14.335
83657W        W50440  38.461  31.611   3.545
83658W        W50441  25.288  40.468   0.870
83659W        W50442  16.687   0.359  11.044
83660W        W50443   9.660   3.735   0.357
83661W        W50444  32.594  33.484   2.808
83662W        W50445  26.926   3.873  13.197
83663W        W50446  44.900   2.795   1.524
83664W        W50447  12.717  27.630   0.734
83665W        W50448  34.807   9.048  13.604
83666W        W50449  33.187  18.463  10.991
83667W        W50450  25.525  16.459  12.863
83668W        W50451  11.257  36.110  11.634
83669W        W50452  26.182  17.270   3.558
83670W        W50453  41.730  17.797  14.896
83671W        W50454  44.119  12.561   1.918
83672W        W50455  15.815  38.988  14.750
83673W        W50456  36.619   4.819   3.188
83674W        W50457  23.529  13.777   0.757
83675W        W50458  21.160  44.725   1.200
83676W        W50459  29.329  18.270   0.099
83677W        W50460  25.819  36.826  13.819
83678W        W50461  33.689  24.414  10.623
83679W        W50462  28.603  41.095   0.474
83680W        W50463  24.619  13.066  11.451
83681W        W50464   5.931  22.519  10.921
83682W        W50465  30.706   5.168   0.337
83683W        W50466   5.530  21.830  11.896
83684W        W50467  19.500  30.462   2.728
83685W        W50468  18.940  19.705  13.027
83686W        W50469   5.419   3.734   3.689
83687W        W50470  33.302   4.494  11.594
83688W        W50471  15.257   2.793   2.448
83689W        W50472  26.439   7.694   0.941
83690W        W50473   5.663  11.491   3.269
83691W        W50474  39.934  33.746  14.767
83692W        W50475   1.286  40.012   3.124
83693W        W50476  37.372   3.414  13.003
83694W        W50477   1.818  29.016  10.707
83695W        W50478  40.626  14.672  12.502
83696W        W50479   3.150   0.241   3.361
83697W        W50480  32.140   4.873   4.669
83698W        W50481  14.748  24.459   4.569
83699W        W50482   5.326  39.864   2.251
83700W        W50483  34.886   4.941   3.700
83701W        W50484  20.680  34.140  14.833
83702W        W50485   3.380  12.233  10.849
83703W        W50486  25.128  16.796   2.498
83704W        W50487  11.035   1.431   4.165
83705W        W50488  44.785  21.242  11.479
83706W        W50489   7.265  20.693  13.637
83707W        W50490   4.988  38.800   4.200
83708W        W50491  18.064   6.267   4.667
83709W        W50492  36.611   5.015  12.012
83710W        W50493   0.496  43.741   4.513
83711W        W50494  14.151  15.049  12.495
83712W        W50495  39.454  41.849   2.419
83713W        W50496  41.086  23.970   4.190
83714W        W50497   1.965  40.958  14.427
83715W        W50498  23.487  38.188   0.389
83716W        W50499   4.438   5.428   4.327
83717W        W50500  36.097  26.054   0.531
83718W        W50501  34.487   0.683  12.984
83719W        W50502  18.343  26.144  11.639
83720W        W50503  26.965  19.580  14.261
83721W        W50504   1.040  22.722   3.280
83722W        W50505  39.968  25.178  13.456
83723W        W50506  28.647  34.963  11.514
83724W        W50507  14.189  13.674  13.787
83725W        W50508  25.883  40.184  13.769
83726W        W50509   6.852  11.241   2.901
83727W        W50510  19.166   4.692  12.031
83728W        W50511  25.709  16.491  11.008
83729W        W50512   8.762  25.687   3.126
83730W        W50513  16.209  11.415  10.970
83731W        W50514  27.210  10.089   1.115
83732W        W50515  36.430   2.418   1.259
83733W        W50516   3.406  32.117  14.556
83734W        W50517  25.229   3.989   3.759
83735W        W50518  20.422   4.069  10.786
83736W        W50519   6.898   0.975   1.397
83737W        W50520  19.925  17.649  11.429
83738W        W50521  38.016  36.854   4.575
83739W        W50522   8.885  21.109   1.531
83740W        W50523  14.298  23.004  10.429
83741W        W50524  13.842  24.489   2.388
83742W        W50525  36.539  37.609  10.698
83743W        W50526  15.743  39.373   4.132
83744W        W50527  34.494  18.525   4.617
83745W        W50528  18.815  13.690  14.659
83746W        W50529   2.307  16.296  10.913
83747W        W50530  32.159  43.998   3.960
83748W        W50531  34.184  14.090   0.050
83749W        W50532  30.866  33.467  13.036
83750W        W50533  26.475  27.104   2.792
83751W        W50534  14.335  26.702   4.121
83752W        W50535  14.878  36.311   3.745
83753W        W50536   3.269  42.781  12.145
83754W        W50537   1.922   1.284   0.839
83755W        W50538  24.590  17.931   0.809
83756W        W50539  12.963  35.045  13.897
83757W        W50540  12.799  30.723  13.455
83758W        W50541  34.437  18.195   2.362
83759W        W50542  26.533  37.579  13.052
83760W        W50543  41.719  10.239  12.002
83761W        W50544  30.492  11.408  12.560
83762W        W50545  20.958  26.577   0.416
83763W        W50546  37.863  10.361  13.412
83764W        W50547  24.978   9.471   0.423
83765W        W50548  28.343  29.449   4.080
83766W        W50549  28.275  41.820   1.759
83767W        W50550  23.607  35.141  11.354
83768W        W50551  35.518   1.252  11.932
83769W        W50552   4.641  36.126  12.997
83770W        W50553   0.728  42.747  11.087
83771W        W50554  26.616  11.375   3.301
83772W        W50555  31.443   0.632  11.541
83773W        W50556  27.665  37.871   1.665
83774W        W50557  15.041  13.298   1.632
83775W        W50558  42.052  21.463   2.754
83776W        W50559  43.321  11.345  12.066
83777W        W50560  33.156  25.040  12.376
83778W        W50561  21.770  44.046  14.308
83779W        W50562  20.814  42.342   3.015
83780W        W50563  24.998  28.083   0.439
83781W        W50564  14.397   2.217  12.494
83782W        W50565  11.330  31.206  12.495
83783W        W50566  32.591  39.956  10.618
83784W        W50567  22.660  36.069   4.771
83785W        W50568  32.911  27.801   4.116
83786W        W50569   8.601  36.085   1.445
83787W        W50570   5.217  42.289   4.833
83788W        W50571  11.458  32.895   1.258
83789W        W50572  40.950   3.310   0.774
83790W        W50573  16.077   1.506  13.305
83791W        W50574  22.990  19.849   3.803
83792W        W50575  33.803  35.458  12.852
83793W        W50576  10.903  17.641   1.478
83794W        W50577  15.516  42.089   2.467
83795W        W50578  32.579  23.482   1.845
83796W        W50579  21.611  43.545   1.462
83797W        W50580  26.662  13.219  13.178
83798W        W50581   2.631  25.166   5.092
83799W        W50582  19.032  27.162  11.080
83800W        W50583  30.222   9.778   1.124
83801W        W50584  34.139  35.248   3.524
83802W        W50585   5.156  41.146  12.996
83803W        W50586  31.854   2.889   3.665
83804W        W50587  10.742  17.157  12.097
83805W        W50588   6.541  14.900  12.520
83806W        W50589   0.784  37.279   2.831
83807W        W50590  36.453  37.587  14.611
83808W        W50591  18.644   9.190  12.426
83809W        W50592  27.560   8.836   5.006
83810W        W50593  42.919   6.622   3.262
83811W        W50594   8.277  39.073   1.241
83812W        W50595  11.719  15.403   4.539
83813W        W50596   0.836  13.091  11.285
83814W        W50597  35.459   4.484  13.553
83815W        W50598   6.286  32.570  11.196
83816W        W50599  32.095  20.223  13.052
83817W        W50600   9.327  34.971   3.253
83818W        W50601  31.123  29.316   1.031
83819W        W50602   0.008  40.883  14.045
83820W        W50603  41.872   0.005   0.409
83821W        W50604  42.492   8.337  13.581
83822W        W50605  39.433  15.215   1.015
83823W        W50606  15.594  34.326   4.273
83824W        W50607  25.030   6.990  11.498
83825W        W50608  13.294  19.644  11.541
83826W        W50609  12.481   5.869  14.597
83827W        W50610  12.518   0.349  13.973
83828W        W50611  14.985  37.362   9.638
83829W        W50612  43.844  27.627  13.402
83830W        W50613  35.393   5.331  13.868
83831W        W50614  24.018  43.986  13.887
83832W        W50615  33.679  12.680  11.960
83833W        W50616  13.063  42.125   3.749
83834W        W50617  17.619   0.777  13.053
83835W        W50618  19.276  21.995   2.592
83836W        W50619  37.182  36.348   0.416
83837W        W50620  39.867  35.916   0.815
83838W        W50621  23.299  24.707   1.491
83839W        W50622  44.494  19.040   0.892
83840W        W50623  24.001  39.334  13.474
83841W        W50624  39.330  41.951  14.394
83842W        W50625  29.654  11.948  10.749
83843W        W50626  15.662  41.757  13.423
83844W        W50627  30.575  43.247  10.513
83845W        W50628  41.965  13.282   3.507
83846W        W50629  15.436  21.519  10.627
83847W        W50630  36.883  39.556  11.590
83848W        W50631  13.696  20.942   1.708
83849W        W50632   4.934  26.289  14.440
83850W        W50633  25.125  30.607   3.329
83851W        W50634  13.614   5.910   3.725
83852W        W50635  43.927  30.884   4.663
83853W        W50636  19.808  34.667   2.844
83854W        W50637  14.839   9.194   3.587
83855W        W50638   4.717  41.819  10.873
83856W        W50639  40.058  20.555  14.728
83857W        W50640  10.680   8.765  13.912
83858W        W50641  21.297   4.490  14.375
83859W        W50642  11.338  36.347   1.779
83860W        W50643  14.146  19.196   0.420
83861W        W50644  21.754  19.191   0.567
83862W        W50645  29.489  21.084   2.899
83863W        W50646  25.662  12.601  10.260
83864W        W50647  42.499  25.992   2.109
83865W        W50648  43.417  36.011   4.146
83866W        W50649   4.396  32.905   2.718
83867W        W50650  14.043   4.833  14.521
83868W        W50651  36.798  34.996   0.215
83869W        W50652  27.720   6.686  12.022
83870W        W50653  12.790  24.134   1.859
83871W        W50654   1.691  28.703  12.495
83872W        W50655  31.500  18.191  13.331
83873W        W50656   5.126   6.148  14.057
83874W        W50657  31.871  17.196   2.179
83875W        W50658  32.567  30.433   4.828
83876W        W50659  30.444  39.054   0.444
83877W        W50660   3.940   8.781   3.414
83878W        W50661  34.971  44.869  13.090
83879W        W50662  14.129  34.598   2.744
83880W        W50663  36.605  33.178   3.627
83881W        W50664  13.763  21.543   4.815
83882W        W50665   5.924  33.112  14.839
83883W        W50666  43.898   6.745   2.779
83884W        W50667  19.340  25.549   2.779
83885W        W50668   3.699   0.449  11.154
83886W        W50669  27.338  32.955  14.322
83887W        W50670   9.786  20.665   1.365
83888W        W50671  17.508  36.336  10.232
83889W        W50672  23.662  32.015  14.029
83890W        W50673  36.444  30.754  12.089
83891W        W50674  10.601   5.425  11.047
83892W        W50675  27.460   1.425   3.211
83893W        W50676  41.758  43.811  12.916
83894W        W50677  40.141  18.445   0.412
83895W        W50678   8.393  25.868  11.556
83896W        W50679  16.616  21.087   0.924
83897W        W50680  18.589   0.280   4.099
83898W        W50681  33.552   9.609  12.116
83899W        W50682  13.835  37.070   3.989
83900W        W50683  31.398  18.077  13.852
83901W        W50684   3.972  30.496  13.880
83902W        W50685  32.071   3.710   1.923
83903W        W50686  44.495  26.550  11.731
83904W        W50687  27.510  30.136   2.742
83905W        W50688  35.331   6.304   3.711
83906W        W50689  38.855  42.025   0.444
83907W        W50690  42.524  32.478  10.787
83908W        W50691  39.802  41.222   0.011
83909W        W50692  42.580  40.229  14.939
83910W        W50693   0.015  32.556   2.401
83911W        W50694   4.289  22.203   1.640
83912W        W50695  40.389  12.820   5.144
83913W        W50696  24.059  42.769  11.117
83914W        W50697  39.855  28.991   4.316
83915W        W50698  41.537  13.167   0.825
83916W        W50699  11.116  23.805  13.782
83917W        W50700  38.988  37.298  12.090
83918W        W50701  29.366  38.445  14.200
83919W        W50702  18.593   3.464   3.590
83920W        W50703  40.030  17.505  12.519
83921W        W50704  26.582  21.037  13.484
83922W        W50705  24.636  22.994  12.675
83923W        W50706  43.813   4.535   0.321
83924W        W50707  16.524  26.198  12.878
83925W        W50708   6.017  41.438   3.279
83926W        W50709  35.340   7.443  10.692
83927W        W50710   1.374  23.634  13.460
83928W        W50711  34.926  15.301   2.185
83929W        W50712  20.081   2.915   5.064
83930W        W50713   8.430  17.985   0.357
83931W        W50714  10.904  15.111  14.882
83932W        W50715  35.224  20.034   3.972
83933W        W50716  34.590   3.256   3.832
83934W        W50717  28.876   0.696   0.507
83935W        W50718   8.422  24.656  11.919
83936W        W50719  41.314   8.899  13.512
83937W        W50720   7.374  34.310   2.540
83938W        W50721  27.711  40.817  11.606
83939W        W50722  17.297  43.801  14.478
83940W        W50723  12.105  29.083  12.448
83941W        W50724  27.729  26.670   0.026
83942W        W50725  11.204  38.753   5.902
83943W        W50726   5.394  39.207   1.714
83944W        W50727  30.134   7.393  11.540
83945W        W50728  15.601  19.358  11.699
83946W        W50729  21.821  25.360   3.778
83947W        W50730  17.606  22.933   1.850
83948W        W50731  36.270  41.163  13.462
83949W        W50732  19.702  31.728   4.843
83950W        W50733  12.759  37.559   1.693
83951W        W50734   6.684  20.509   2.721
83952W        W50735  12.761  25.186   1.797
83953W        W50736  25.941   8.429   0.433
83954W        W50737  41.540  14.134   0.764
83955W        W50738  20.953  29.338   4.193
83956W        W50739  26.401  18.554  14.962
83957W        W50740  37.455  34.131  12.115
83958W        W50741   7.825   9.079   0.000
83959W        W50742  20.984  42.390  14.977
83960W        W50743  34.407  40.970  11.877
83961W        W50744  35.601  24.712   0.938
83962W        W50745  29.071  17.339  12.556
83963W        W50746  16.497  33.051   0.429
83964W        W50747   6.980   9.192  12.841
83965W        W50748  44.396  44.553   3.463
83966W        W50749  17.159  39.935   0.347
83967W        W50750  23.346  41.846   2.295
83968W        W50751  17.824  12.142  14.098
83969W        W50752  32.663  25.164  14.928
83970W        W50753  34.125  34.606  14.387
83971W        W50754  35.788  34.898   2.341
83972W        W50755   9.818  14.432   4.725
83973W        W50756  24.704   7.853  12.232
83974W        W50757  17.121  42.472  14.973
83975W        W50758  13.694  41.733   0.395
83976W        W50759  32.147  29.442   4.931
83977W        W50760  20.531  15.846   3.613
83978W        W50761  24.717  36.995   4.208
83979W        W50762   5.013  31.948   0.762
83980W        W50763  35.332  26.008   4.211
83981W        W50764  30.661  43.009   3.781
83982W        W50765  30.470   9.161  11.171
83983W        W50766  10.909  22.718   2.397
83984W        W50767  44.512  40.482  13.013
83985W        W50768   5.520   2.441   0.016
83986W        W50769  12.064  18.660   0.067
83987W        W50770  36.117  39.605  11.999
83988W        W50771  39.079  30.806   9.972
83989W        W50772  39.088  22.953   4.838
83990W        W50773  40.213   5.922  14.327
83991W        W50774  39.805  36.838   2.176
83992W        W50775   5.231  38.290  12.154
83993W        W50776  15.352  13.871  12.879
83994W        W50777  38.901  22.677   3.859
83995W        W50778  17.136  20.573   2.840
83996W        W50779  31.011   6.193   2.756
83997W        W50780  14.204  30.957  13.638
83998W        W50781  16.690  24.535   0.316
83999W        W50782  41.589  29.763  12.070
84000W        W50783  22.630   3.774   2.382
84001W        W50784  12.211  28.099   3.013
84002W        W50785  35.846  11.297  11.051
84003W        W50786  10.937  39.434  11.137
84004W        W50787  44.273  11.701  12.496
84005W        W50788   4.511  41.298  10.219
84006W        W50789   5.363  38.349   2.458
84007W        W50790   8.283  42.954  10.856
84008W        W50791  11.757  27.719   0.690
84009W        W50792  13.388  29.480   2.547
84010W        W50793  10.958  27.565  14.347
84011W        W50794  35.962   0.508   2.875
84012W        W50795  14.769   7.676  12.132
84013W        W50796   2.631  19.778  14.227
84014W        W50797  33.700  19.383  14.009
84015W        W50798  20.248  16.265  12.117
84016W        W50799  21.170  43.820   3.673
84017W        W50800  31.355  36.568  11.188
84018W        W50801  39.111  25.750   2.399
84019W        W50802  32.334  34.815   1.686
84020W        W50803   7.711  17.681  13.846
84021W        W50804  20.445  16.303   2.724
84022W        W50805  13.235  21.057   1.913
84023W        W50806  25.733   0.801  12.497
84024W        W50807  21.885  39.340   4.270
84025W        W50808  22.213  10.191  12.000
84026W        W50809  23.009   6.412   0.494
84027W        W50810  31.348  33.880   2.883
84028W        W50811  34.594  29.269   0.477
84029W        W50812   5.662  43.426  13.883
84030W        W50813  27.376  26.566  11.461
84031W        W50814  30.680  38.827   1.408
84032W        W50815  16.206  17.601  13.116
84033W        W50816  43.418  27.654  14.767
84034W        W50817  13.402   2.773   2.649
84035W        W50818   1.876  17.524  14.337
84036W        W50819  39.348  33.693   2.736
84037W        W50820   7.801  22.529   0.920
84038W        W50821  32.567  37.715  14.303
84039W        W50822  16.337  32.984   4.376
84040W        W50823  32.680  43.921  14.346
84041W        W50824  12.670  35.978  10.769
84042W        W50825  15.290  41.041   1.847
84043W        W50826  17.113  19.939  10.701
84044W        W50827  32.218  13.036  11.819
84045W        W50828   7.177  21.072  14.793
84046W        W50829  12.596  41.877  13.854
84047W        W50830   3.804  18.035  11.400
84048W        W50831  14.189  33.498  14.991
84049W        W50832   7.347  42.535   3.360
84050W        W50833  39.966  20.472  12.629
84051W        W50834  17.544  32.801  12.990
84052W        W50835   6.948  25.396  10.745
84053W        W50836  31.528  23.061   2.722
84054W        W50837  22.128  42.424   2.721
84055W        W50838   8.595  19.547  13.437
84056W        W50839  10.771  16.706  11.572
84057W        W50840  32.055   1.443   1.915
84058W        W50841   6.308   1.730  12.679
84059W        W50842  41.776   3.449   1.531
84060W        W50843  42.337  10.184  14.545
84061W        W50844   8.163  30.472  13.875
84062W        W50845  36.798  10.889   0.686
84063W        W50846  42.774  27.006   4.541
84064W        W50847  40.445  32.842   4.729
84065W        W50848   5.649  12.300   4.722
84066W        W50849  21.971   7.920   2.891
84067W        W50850  29.253  19.752  12.123
84068W        W50851  23.982   8.745   5.019
84069W        W50852   3.719  31.116   4.653
84070W        W50853  23.693  16.535   3.667
84071W        W50854  41.736   7.652   1.247
84072W        W50855  39.847  15.788   3.623
84073W        W50856   2.401  12.831   3.321
84074W        W50857  18.072   2.189   4.683
84075W        W50858  10.634  21.232   2.479
84076W        W50859  25.606  16.413  14.251
84077W        W50860  38.552   3.369  14.310
84078W        W50861  32.800  14.123  13.586
84079W        W50862  27.978  30.050   0.793
84080W        W50863  20.027  37.764  12.929
84081W        W50864  27.412  24.563  14.284
84082W        W50865   7.431  37.055  13.627
84083W        W50866  33.934  36.449  12.916
84084W        W50867  29.846  22.415   1.774
84085W        W50868   9.105  24.212   3.770
84086W        W50869   4.290  35.596   0.759
84087W        W50870  15.325  24.309  12.795
84088W        W50871  13.227  43.009  10.396
84089W        W50872  38.092  18.290   0.293
84090W        W50873  13.069  40.052  11.323
84091W        W50874  30.712  20.897  11.196
84092W        W50875  43.129   2.180   4.997
84093W        W50876  34.656  36.035   2.232
84094W        W50877  11.639  39.720   3.119
84095W        W50878  34.864  26.896   4.254
84096W        W50879   0.889  40.072  12.359
84097W        W50880   6.658  44.808  13.020
84098W        W50881  33.552  33.419   3.646
84099W        W50882  41.864   0.765  11.490
84100W        W50883  10.408  13.115  12.884
84101W        W50884  44.775  28.346  12.053
84102W        W50885   8.914  15.306  14.500
84103W        W50886  10.271  20.550  12.006
84104W        W50887  31.658  36.916   1.201
84105W        W50888   8.346  11.392  12.468
84106W        W50889   3.533  38.547  10.449
84107W        W50890  29.651   3.812   1.450
84108W        W50891  28.349  17.745  14.828
84109W        W50892   7.415  22.053  12.557
84110W        W50893  13.043  25.581  13.076
84111W        W50894   5.521  36.427   3.830
84112W        W50895  40.859  37.601   0.505
84113W        W50896   1.300  38.772  14.507
84114W        W50897   3.657   3.815  11.974
84115W        W50898  15.023  38.538   0.339
84116W        W50899  33.682  35.842  12.011
84117W        W50900  40.814  30.386   2.884
84118W        W50901  10.799   2.501  11.897
84119W        W50902  19.298  32.275   1.769
84120W        W50903  30.413  27.045  13.956
84121W        W50904  36.842  10.681  11.667
84122W        W50905  40.519   1.365   1.392
84123W        W50906   1.051  12.604   0.008
84124W        W50907  35.481  28.632   3.655
84125W        W50908  25.218  22.782  12.804
84126W        W50909   9.642  17.603  13.313
84127W        W50910  25.557  40.368  12.536
84128W        W50911  10.684   0.407  14.398
84129W        W50912  31.941  32.535   2.015
84130W        W50913  34.342  24.727   0.474
84131W        W50914  19.111  41.770   0.457
84132W        W50915  29.521  32.886   2.263
84133W        W50916   4.397  17.233   2.740
84134W        W50917  33.423  13.861  12.949
84135W        W50918  17.069  11.311   0.431
84136W        W50919  13.856  34.246   1.758
84137W        W50920  30.108  27.263   4.497
84138W        W50921  32.051  18.630   0.270
84139W        W50922  13.688  32.695   3.735
84140W        W50923  43.351   1.351  10.644
84141W        W50924   0.810   2.272  13.454
84142W        W50925  37.872  23.814   4.441
84143W        W50926  24.014  22.157   2.870
84144W        W50927  38.225  11.669  10.283
84145W        W50928  36.434  29.832   1.187
84146W        W50929  37.833   2.345  11.281
84147W        W50930   5.127  13.618   4.563
84148W        W50931   8.919  10.609  12.062
84149W        W50932   7.151  30.939  10.682
84150W        W50933   4.878  43.574   0.944
84151W        W50934  44.784  31.089   2.793
84152W        W50935  17.543  28.565  11.481
84153W        W50936  43.089  41.363  10.741
84154W        W50937  27.444  14.230   0.360
84155W        W50938  27.687   0.773  13.446
84156W        W50939   8.668  37.485  11.129
84157W        W50940  14.826  33.103   3.235
84158W        W50941  40.568  32.964   2.894
84159W        W50942  26.980  28.578   1.465
84160W        W50943   4.501  43.215  10.570
84161W        W50944  21.626   5.821  14.494
84162W        W50945  43.395   5.127   2.765
84163W        W50946  41.890   0.406   3.330
84164W        W50947  36.595   6.290   5.450
84165W        W50948  37.395  32.675  12.896
84166W        W50949  22.008   6.377   1.763
84167W        W50950  19.487  19.198   1.941
84168W        W50951  40.428   4.685  14.043
84169W        W50952  11.501  38.479   1.811
84170W        W50953   6.363  43.697  11.455
84171W        W50954   8.170  18.764  12.473
84172W        W50955  33.874  42.835   1.979
84173W        W50956  34.294  20.082  13.309
84174W        W50957  42.382  38.473   0.343
84175W        W50958  38.429  31.119   3.681
84176W        W50959   4.060  21.164   2.270
84177W        W50960  22.512   1.432   0.528
84178W        W50961   9.005  29.597   1.715
84179W        W50962  10.578  39.630  13.572
84180W        W50963  38.513  25.071  11.446
84181W        W50964  39.138  36.894  12.929
84182W        W50965  14.403  35.039   2.626
84183W        W50966  36.453  23.220   2.685
84184W        W50967  22.025   6.961   4.590
84185W        W50968  29.920  43.761  12.555
84186W        W50969  37.390  13.386   2.334
84187W        W50970  34.785  28.748   1.357
84188W        W50971  13.472  26.172   4.101
84189W        W50972  16.489  22.802  10.082
84190W        W50973  26.581  31.402  13.500
84191W        W50974  34.396   6.067   4.486
84192W        W50975  26.736  27.371   2.410
84193W        W50976   2.860  14.053  12.038
84194W        W50977  34.152  29.519   0.276
84195W        W50978  18.316  38.822   0.945
84196W        W50979  42.335  11.589  12.883
84197W        W50980  10.642  16.652  12.071
84198W        W50981  10.742  27.725  12.363
84199W        W50982  37.238  36.318   4.621
84200W        W50983  36.609   3.697  13.381
84201W        W50984  12.181  26.855   4.062
84202W        W50985  15.017   7.943  13.135
84203W        W50986  27.129  15.352  12.507
84204W        W50987   7.135   9.271  13.328
84205W        W50988  33.585  34.918  12.133
84206W        W50989  42.784  33.060   3.408
84207W        W50990   9.416  21.276  11.032
84208W        W50991  30.665  37.886   3.380
84209W        W50992  39.944  16.327   4.100
84210W        W50993  37.014  30.684  12.798
84211W        W50994   3.854  32.331  11.072
84212W        W50995  20.152  18.774   4.364
84213W        W50996  24.634  32.472   1.683
84214W        W50997  29.354  11.830   0.689
84215W        W50998   8.623   7.429  12.441
84216W        W50999  38.933  30.587   4.559
84217W        W51000   6.481  44.281  14.400
84218W        W51001  43.070   0.455   0.708
84219W        W51002   6.485  43.808   0.525
84220W        W51003   8.470  28.637  10.826
84221W        W51004  19.680  18.564   5.094
84222W        W51005  29.327  29.896   1.816
84223W        W51006  12.349  40.739  12.515
84224W        W51007  14.663  17.685   0.877
84225W        W51008  25.983  21.598   4.097
84226W        W51009  29.440  34.382  12.420
84227W        W51010  19.227  27.045   2.652
84228W        W51011  32.986   9.381  14.933
84229W        W51012   9.512  24.681  13.962
84230W        W51013   5.235   2.704  13.673
84231W        W51014   5.563  11.829   2.823
84232W        W51015  31.794  31.925   4.078
84233W        W51016  22.489  20.015  13.890
84234W        W51017  10.265  38.730  11.657
84235W        W51018  42.282  31.982   4.664
84236W        W51019  43.933   9.420  12.087
84237W        W51020  14.915  23.188   1.695
84238W        W51021  30.217   0.646   0.800
84239W        W51022   2.435  23.429   3.437
84240W        W51023  28.984   7.228   2.749
84241W        W51024  25.742  32.299  13.053
84242W        W51025   1.222   4.669  10.633
84243W        W51026  22.488   6.889  13.872
84244W        W51027  24.602  31.639  11.831
84245W        W51028  13.861  24.483   1.476
84246W        W51029  39.822  28.118  12.929
84247W        W51030  39.037  17.132  13.497
84248W        W51031   5.615  11.436   4.229
84249W        W51032   2.510  29.449  12.943
84250W        W51033  13.287  21.060  12.661
84251W        W51034   3.684   8.599  14.008
84252W        W51035  13.075  28.224   3.652
84253W        W51036  36.794  27.104  12.509
84254W        W51037  15.359  18.891   0.859
84255W        W51038   7.853  36.853  13.322
84256W        W51039   5.732  19.218   4.172
84257W        W51040  17.721   5.383   0.471
84258W        W51041   3.444  14.789  14.786
84259W        W51042  24.548   9.320   2.643
84260W        W51043   2.000  19.215   0.170
84261W        W51044   0.287  22.742   2.412
84262W        W51045  27.030  21.928  13.883
84263W        W51046  30.124  18.580   1.694
84264W        W51047  15.205  36.551   2.521
84265W        W51048  44.962  19.585  13.930
84266W        W51049  28.007  13.541  13.855
84267W        W51050   1.006   8.861  13.027
84268W        W51051   0.829   6.348  11.018
84269W        W51052   0.735   2.447  14.372
84270W        W51053  14.134   5.972  10.859
84271W        W51054  26.190  38.777  13.082
84272W        W51055   6.364  42.826   4.676
84273W        W51056  18.630  40.544  10.503
84274W        W51057  38.476  40.367   2.821
84275W        W51058  34.238  15.197   0.365
84276W        W51059  31.560  28.754   1.721
84277W        W51060  19.725  28.599   3.222
84278W        W51061   5.013  21.432   0.673
84279W        W51062   5.946   0.814  14.287
84280W        W51063  17.468   7.410  13.386
84281W        W51064  35.043  19.179  14.838
84282W        W51065  17.667   2.892  10.666
84283W        W51066  11.344  21.275   0.697
84284W        W51067  23.206  15.459   4.113
84285W        W51068  15.128  23.383  14.817
84286W        W51069   0.809  34.853  10.708
84287W        W51070  44.817  29.497   4.109
84288W        W51071  36.025  24.788   1.234
84289W        W51072  21.307  15.718  11.473
84290W        W51073  43.463  15.439  13.827
84291W        W51074  17.566   7.951  11.429
84292W        W51075  13.780  26.725   2.806
84293W        W51076  33.050  22.854  12.015
84294W        W51077  38.496  21.499  12.470
84295W        W51078  12.184  40.915  12.058
84296W        W51079   1.930  40.430  11.951
84297W        W51080  37.508  24.680  12.403
84298W        W51081  40.824  12.325   4.818
84299W        W51082   5.981  31.380  11.570
84300W        W51083  40.407   0.348   1.145
84301W        W51084   8.821  42.424   4.673
84302W        W51085  24.437   0.738  14.413
84303W        W51086  11.534  27.517   1.454
84304W        W51087  41.119  13.728  14.060
84305W        W51088  15.611   8.449  14.461
84306W        W51089  25.023  17.070  12.840
84307W        W51090  21.636  44.872  11.098
84308W        W51091  40.055  38.424  11.052
84309W        W51092  40.903  33.727   1.327
84310W        W51093  16.810  40.106   3.231
84311W        W51094  23.433  24.308  10.618
84312W        W51095  14.380  37.982  13.363
84313W        W51096  35.417  35.055   3.205
84314W        W51097  38.520  38.954   4.313
84315W        W51098  32.371  36.321  13.175
84316W        W51099  16.994  44.579  11.912
84317W        W51100   8.515  17.770  14.879
84318W        W51101  43.484  27.174  11.267
84319W        W51102  25.447  15.790  10.276
84320W        W51103   6.160  35.883  13.314
84321W        W51104  30.517  14.698  11.563
84322W        W51105  23.233  30.956  13.826
84323W        W51106  16.147  40.314   4.023
84324W        W51107  22.097   1.405  12.435
84325W        W51108  28.158  41.048   1.112
84326W        W51109  10.199  31.663   3.536
84327W        W51110  19.463  41.079   2.747
84328W        W51111  25.979  22.282   2.660
84329W        W51112  10.098  33.315   0.938
84330W        W51113   5.779   5.352  11.190
84331W        W51114  23.892  21.289  14.536
84332W        W51115  25.151  24.455  14.380
84333W        W51116  36.548  41.591  13.356
84334W        W51117  36.258  31.599  11.984
84335W        W51118  11.663  14.339  11.878
84336W        W51119  24.657  31.255   1.269
84337W        W51120  39.261  23.123  14.325
84338W        W51121  30.442   0.678  12.335
84339W        W51122  30.501  32.610  11.682
84340W        W51123  29.524  41.561  13.482
84341W        W51124   2.957  29.714  13.499
84342W        W51125  11.984  15.349  13.433
84343W        W51126   4.049  38.626  14.678
84344W        W51127   4.354  30.778  14.875
84345W        W51128   0.301  33.360   0.549
84346W        W51129   1.502   2.908   3.646
84347W        W51130  10.084  12.702  10.391
84348W        W51131  14.529  41.355   0.784
84349W        W51132  12.310  37.205  12.343
84350W        W51133  31.663  11.268  12.905
84351W        W51134  42.739  37.023  13.272
84352W        W51135  20.009  44.892   1.443
84353W        W51136  23.493  13.735   2.109
84354W        W51137  29.543   2.718  13.806
84355W        W51138  41.834  35.799   2.672
84356W        W51139  18.740  24.676  11.618
84357W        W51140  35.337   3.152   0.833
84358W        W51141  27.152  36.287  12.037
84359W        W51142  36.808  25.059   1.420
84360W        W51143  42.568  39.082  14.970
84361W        W51144  25.991   1.976  14.526
84362W        W51145   2.434  44.949  10.971
84363W        W51146  44.902  23.244  11.700
84364W        W51147  17.803   1.941   0.812
84365W        W51148  11.411   2.748   1.263
84366W        W51149   7.081  42.042   4.625
84367W        W51150  24.191  43.397   4.707
84368W        W51151  19.167  36.784  13.104
84369W        W51152   5.634  37.896  14.891
84370W        W51153  40.544  14.902   1.729
84371W        W51154  36.064  21.653  13.610
84372W        W51155  11.644  26.502  10.755
84373W        W51156  32.469   9.859  10.702
84374W        W51157  41.278  43.408  11.158
84375W        W51158  33.030  27.715   3.594
84376W        W51159  27.539  37.334   3.054
84377W        W51160   0.816  26.937   3.306
84378W        W51161  31.174  27.609   1.348
84379W        W51162  31.864  13.781   2.912
84380W        W51163   0.887  40.228   0.828
84381W        W51164  35.983   4.436   0.820
84382W        W51165  21.218  41.922   1.870
84383W        W51166  23.405  43.132   9.858
84384W        W51167  31.899  25.698  11.454
84385W        W51168   9.861   9.233   0.504
84386W        W51169  40.911  43.898   1.878
84387W        W51170   8.342  16.257   4.198
84388W        W51171  39.182  10.691  13.632
84389W        W51172  28.308  13.966  13.879
84390W        W51173  12.244  10.972  14.718
84391W        W51174  18.274  36.455  11.372
84392W        W51175  21.410  31.939   4.062
84393W        W51176  43.404  15.624  10.592
84394W        W51177   4.517  16.294   4.675
84395W        W51178   9.909  12.535  14.316
84396W        W51179  32.017   4.872  14.570
84397W        W51180  18.584  40.315  11.864
84398W        W51181  36.405  19.295   1.752
84399W        W51182  36.058  40.774   4.516
84400W        W51183  43.962   7.433  13.923
84401W        W51184  31.827  24.982  10.212
84402W        W51185  40.605   6.924   5.031
84403W        W51186  19.107  44.826  14.370
84404W        W51187  35.486  31.506  14.859
84405W        W51188  14.894  25.092  11.148
84406W        W51189  24.008  43.305   4.173
84407W        W51190  35.431  10.730  14.724
84408W        W51191  40.943   9.192  12.557
84409W        W51192  27.988  26.636   0.491
84410W        W51193  31.644  14.760   0.363
84411W        W51194   4.175  29.053   2.258
84412W        W51195  35.564   6.257  13.966
84413W        W51196  22.221  37.613   4.086
84414W        W51197  11.339  13.119  12.983
84415W        W51198   0.300  14.218   0.898
84416W        W51199  40.554  44.335   0.350
84417W        W51200  12.975  19.210  11.419
84418W        W51201  21.038  25.622   1.949
84419W        W51202  28.003  14.337   4.742
84420W        W51203   5.774  29.578  14.222
84421W        W51204  20.268  40.982  12.464
84422W        W51205  24.066  42.800   4.225
84423W        W51206  32.880   1.953   3.847
84424W        W51207  13.774  29.966   3.173
84425W        W51208  32.757  14.027   4.555
84426W        W51209   8.272  24.544   1.333
84427W        W51210  28.663  13.833   2.884
84428W        W51211  40.930   1.049   1.338
84429W        W51212   6.729   3.715  14.368
84430W        W51213  20.231  26.116   2.270
84431W        W51214   5.407  15.083  13.038
84432W        W51215  16.702  41.028   3.180
84433W        W51216  18.069  36.019  11.592
84434W        W51217  26.628  25.986  13.460
84435W        W51218  39.570  17.207  13.565
84436W        W51219  44.522  25.929  11.170
84437W        W51220  22.087  32.876  10.697
84438W        W51221  11.067  39.873  13.674
84439W        W51222  15.893   5.222  10.721
84440W        W51223  12.184  25.972   2.777
84441W        W51224   0.484  14.669   3.162
84442W        W51225  12.684  26.227   3.630
84443W        W51226  34.839   2.296   1.226
84444W        W51227  25.930  36.049  10.785
84445W        W51228  32.363  35.556   1.277
84446W        W51229  29.530  24.777   1.036
84447W        W51230  36.937  23.067  10.629
84448W        W51231  15.000   7.554   3.344
84449W        W51232  22.605  23.578   0.905
84450W        W51233  15.761  44.843   3.548
84451W        W51234   0.858  19.537   4.659
84452W        W51235  15.886  18.435   0.239
84453W        W51236  13.355  30.380  13.396
84454W        W51237  13.120  34.403   0.832
84455W        W51238  11.102   8.410   2.789
84456W        W51239  13.691  16.985   0.765
84457W        W51240  37.602  39.927   3.565
84458W        W51241  17.572  44.334   0.115
84459W        W51242   8.669  29.518  12.171
84460W        W51243  24.594  43.967  12.923
84461W        W51244  17.259  18.984  12.979
84462W        W51245  44.820  43.545   3.327
84463W        W51246  10.138  33.860   4.188
84464W        W51247  13.670  23.253   0.885
84465W        W51248  10.076   5.642  10.601
84466W        W51249  38.776  34.951   1.927
84467W        W51250  19.792  38.349  14.023
84468W        W51251  38.870  21.751   4.095
84469W        W51252  28.914  38.610  14.466
84470W        W51253  16.280  28.036  14.056
84471W        W51254   0.645  15.422   9.803
84472W        W51255  19.281  28.233  10.582
84473W        W51256  18.571  15.071   0.116
84474W        W51257  10.685  25.343   3.538
84475W        W51258  18.284   1.707   0.751
84476W        W51259  33.899  12.603  13.813
84477W        W51260  27.464  36.331  11.456
84478W        W51261  11.907   4.203   4.125
84479W        W51262   7.349   5.313   3.179
84480W        W51263   5.794  36.482  10.585
84481W        W51264  13.890   5.283  14.290
84482W        W51265  24.002  29.866  11.852
84483W        W51266   1.336  20.104  11.659
84484W        W51267  33.123  11.845  12.474
84485W        W51268  19.200  40.737  13.033
84486W        W51269  10.919  44.539  14.566
84487W        W51270  18.758  20.108  11.123
84488W        W51271  12.782  39.102  10.588
84489W        W51272  35.169  20.227   1.795
84490W        W51273   8.904  35.725   1.233
84491W        W51274   6.358  32.718   0.378
84492W        W51275  44.088  28.548  13.384
84493W        W51276  37.781  41.448   1.125
84494W        W51277  35.859  10.697  10.554
84495W        W51278  19.256  42.850  14.454
84496W        W51279  17.726  27.978  11.639
84497W        W51280  15.297  14.220   2.977
84498W        W51281  14.085  14.753  13.885
84499W        W51282   3.996  41.330   2.866
84500W        W51283  30.059  35.638   0.211
84501W        W51284  20.075  37.282   2.318
84502W        W51285  13.222  23.192   1.174
84503W        W51286   8.985  23.441  13.984
84504W        W51287  15.355  14.078  12.409
84505W        W51288  12.233  16.650   3.410
84506W        W51289   3.509  17.658   1.258
84507W        W51290  44.732  43.881  11.424
84508W        W51291   3.899  39.273  10.751
84509W        W51292  28.113  24.629   1.629
84510W        W51293  34.330  36.599  13.806
84511W        W51294   4.835  35.744   3.160
84512W        W51295  43.298  10.073   2.257
84513W        W51296  15.545   7.716   0.779
84514W        W51297  13.716  32.113  14.487
84515W        W51298   3.930  29.530  13.873
84516W        W51299  20.308  23.920   2.415
84517W        W51300  44.663   7.708   2.198
84518W        W51301   3.378   1.059   3.387
84519W        W51302  33.285  39.467   4.202
84520W        W51303  16.301  22.794  12.556
84521W        W51304  42.080  35.879  14.753
84522W        W51305  40.792  10.910  11.112
84523W        W51306  39.161  30.476  13.961
84524W        W51307  32.273  18.901  10.917
84525W        W51308  22.130  35.110  14.511
84526W        W51309  14.823  23.759  12.425
84527W        W51310  35.483   5.985   3.304
84528W        W51311  35.860  23.358   2.173
84529W        W51312  24.971  12.672   0.646
84530W        W51313  35.099  27.991   2.421
84531W        W51314  41.741  33.396   4.260
84532W        W51315  18.188  35.933  13.454
84533W        W51316  34.404  14.579   2.303
84534W        W51317  21.819  13.375   1.935
84535W        W51318  29.499  39.986   5.911
84536W        W51319   0.759  20.231   3.181
84537W        W51320  15.680  26.213   2.245
84538W        W51321   3.704   6.858  12.437
84539W        W51322  14.989   2.759  13.955
84540W        W51323  26.497   9.546   2.170
84541W        W51324  26.529  17.155   0.558
84542W        W51325  31.623   8.834  12.883
84543W        W51326   9.313  21.722   1.797
84544W        W51327  23.696  12.261  11.964
84545W        W51328  11.300  15.218  13.996
84546W        W51329   0.339  19.974  14.008
84547W        W51330   6.722  23.478  13.584
84548W        W51331  23.430  14.269  12.124
84549W        W51332  35.808   2.832  10.683
84550W        W51333  43.001  20.287   1.243
84551W        W51334  25.787  13.742   2.799
84552W        W51335  21.673  22.732   0.260
84553W        W51336  32.483  17.002   2.657
84554W        W51337  41.266   0.249   1.227
84555W        W51338  26.285  41.896   0.983
84556W        W51339  36.106  23.709   5.095
84557W        W51340  34.965  13.706   0.453
84558W        W51341  40.822  15.258   3.285
84559W        W51342  14.502  37.530  13.166
84560W        W51343  11.494  13.315  14.538
84561W        W51344  41.037  35.622  14.795
84562W        W51345  42.404  12.366  11.949
84563W        W51346  38.428  40.546  12.182
84564W        W51347  40.944  30.084   2.266
84565W        W51348   7.701   3.859   2.496
84566W        W51349  26.790  10.349   4.115
84567W        W51350   1.452  43.455   3.985
84568W        W51351   3.576  34.802  12.827
84569W        W51352   4.906   7.652   2.517
84570W        W51353  36.117  44.521  14.961
84571W        W51354  17.495  34.552  12.857
84572W        W51355  33.096  16.882   0.374
84573W        W51356  40.799   8.114  11.526
84574W        W51357   3.896  12.642  14.977
84575W        W51358  19.730  26.437  10.370
84576W        W51359  19.297  37.237  14.824
84577W        W51360  31.595  31.419  11.553
84578W        W51361  21.229   5.744   2.870
84579W        W51362   6.112  37.545   3.686
84580W        W51363   0.523  25.946  12.333
84581W        W51364  33.948   9.595   2.037
84582W        W51365  24.620  13.111   2.920
84583W        W51366  37.096  41.851   2.651
84584W        W51367  16.575  11.881  14.010
84585W        W51368   1.902  27.263  11.181
84586W        W51369  27.033   1.420   3.527
84587W        W51370  42.497  13.871  12.893
84588W        W51371   9.785  42.479  14.006
84589W        W51372  25.721  35.518  10.700
84590W        W51373  10.390  18.750   0.972
84591W        W51374  25.896  28.473   0.822
84592W        W51375   8.719  32.888  13.164
84593W        W51376  31.018  25.023  13.425
84594W        W51377  19.716  32.182  14.021
84595W        W51378  12.414  11.033   5.095
84596W        W51379  17.710  10.835   0.716
84597W        W51380  19.201  35.289  13.063
84598W        W51381  38.777  43.840  14.336
84599W        W51382  41.716  36.518   3.210
84600W        W51383  32.577  32.808   2.234
84601W        W51384   3.898   8.630   0.412
84602W        W51385   3.254  23.636  14.293
84603W        W51386   4.419   8.824  10.449
84604W        W51387  42.204   1.986   2.602
84605W        W51388  43.892  16.029   3.236
84606W        W51389  15.700  39.966  13.675
84607W        W51390  35.665  24.811   4.889
84608W        W51391  26.950   7.482  11.446
84609W        W51392   3.196   5.453  14.541
84610W        W51393  20.619  35.396   0.438
84611W        W51394  44.515  18.094  12.125
84612W        W51395  30.390   1.128  13.190
84613W        W51396  24.035  16.575   4.903
84614W        W51397  30.868   5.132   3.885
84615W        W51398  19.822   5.406  10.084
84616W        W51399  33.859   0.327   1.328
84617W        W51400  15.964   0.570   1.688
84618W        W51401  42.918  27.505   4.601
84619W        W51402   0.735   6.781   0.865
84620W        W51403  10.149  17.302  10.591
84621W        W51404   6.697   4.407  10.605
84622W        W51405  19.032  12.802   4.265
84623W        W51406   9.882  30.178  12.846
84624W        W51407  29.407  27.098   1.800
84625W        W51408  38.363  43.494   4.561
84626W        W51409  39.042  14.228   4.951
84627W        W51410  14.093  41.198   2.713
84628W        W51411  15.857   8.110  14.874
84629W        W51412  20.001  12.806   2.857
84630W        W51413  22.111  39.446  11.764
84631W        W51414  40.858   9.557  10.362
84632W        W51415   8.669   4.899   3.649
84633W        W51416  27.877  22.779   1.775
84634W        W51417  23.672   2.425  13.570
84635W        W51418   4.337  40.025   3.144
84636W        W51419   6.189  13.701  11.059
84637W        W51420   6.534  37.945   0.743
84638W        W51421  40.613  39.829  14.904
84639W        W51422  15.738  21.775  14.998
84640W        W51423  24.101  17.351   3.116
84641W        W51424   4.424  24.763   2.800
84642W        W51425  27.657  36.082  13.915
84643W        W51426  27.234  29.068  13.910
84644W        W51427   4.657  18.941   4.116
84645W        W51428  14.078  26.992  13.009
84646W        W51429   4.144  42.899  11.739
84647W        W51430  36.797  25.727  11.185
84648W        W51431  24.415   7.895  14.907
84649W        W51432  18.419   6.236   5.047
84650W        W51433   8.036   0.646   4.990
84651W        W51434  15.341  28.423  12.103
84652W        W51435  36.071  22.702  11.430
84653W        W51436  13.071  40.049  12.825
84654W        W51437   1.447  34.537   1.298
84655W        W51438  31.925  26.101  13.035
84656W        W51439  24.772  35.577   0.292
84657W        W51440  29.438  37.281   0.705
84658W        W51441  11.288  25.907  12.347
84659W        W51442  33.556  15.212  14.818
84660W        W51443   6.190  22.464  14.535
84661W        W51444  24.567  38.978  12.185
84662W        W51445   8.045  32.491   1.755
84663W        W51446  38.948  23.783  14.836
84664W        W51447  36.427   2.322  10.727
84665W        W51448  37.868   3.455   2.239
84666W        W51449   6.574  32.410  14.008
84667W        W51450  27.471  40.329   3.143
84668W        W51451  29.625  29.424   2.875
84669W        W51452  29.410  16.768   0.700
84670W        W51453  20.659   1.702   0.553
84671W        W51454  39.553  19.068   3.222
84672W        W51455  10.014  24.600  13.879
84673W        W51456  24.696  33.816  13.103
84674W        W51457   7.356  30.584  14.400
84675W        W51458  19.799   7.609  12.431
84676W        W51459  13.730   7.557   2.769
84677W        W51460  39.345   6.205  11.987
84678W        W51461  17.753  11.224  10.528
84679W        W51462  36.328  40.569  13.713
84680W        W51463  32.172  16.137  13.087
84681W        W51464  38.549   2.339   4.284
84682W        W51465  21.999  41.575   1.770
84683W        W51466  30.970  18.706   4.957
84684W        W51467  25.359  32.817  12.500
84685W        W51468   6.783  22.248  11.134
84686W        W51469   0.529  10.291   4.631
84687W        W51470  23.662  32.526  11.616
84688W        W51471  10.928  28.195   1.672
84689W        W51472  15.673  31.748   0.294
84690W        W51473   6.304   0.007  13.582
84691W        W51474  23.887  28.555   4.796
84692W        W51475  26.876  24.705   4.574
84693W        W51476  42.328  29.470  12.680
84694W        W51477  28.348  43.055   4.339
84695W        W51478  41.743  28.378   1.051
84696W        W51479   2.400   9.634   2.594
84697W        W51480  38.771   3.263  13.828
84698W        W51481   5.665  44.999   2.840
84699W        W51482  42.231   7.707  12.906
84700W        W51483  31.884  34.796  10.715
84701W        W51484  26.922  16.875  12.589
84702W        W51485  23.189  29.138   1.172
84703W        W51486  37.622   3.461   4.562
84704W        W51487  36.798  31.401   0.193
84705W        W51488  42.564  29.532   2.788
84706W        W51489  34.902  29.664   1.750
84707W        W51490  15.978  40.903  12.528
84708W        W51491  30.202  41.908   2.127
84709W        W51492   5.019  35.394  12.566
84710W        W51493  36.168  41.077   4.088
84711W        W51494  24.696   0.588  11.175
84712W        W51495  11.575  21.573   3.513
84713W        W51496  41.953  32.943   0.453
84714W        W51497   3.780   9.281  13.492
84715W        W51498   1.016  40.092  13.994
84716W        W51499  11.361  17.578   1.266
84717W        W51500   0.328  43.173  11.814
84718W        W51501  31.599  42.909   1.330
84719W        W51502  23.906  41.469  10.860
84720W        W51503  17.274  12.619   4.677
84721W        W51504  20.514  38.797   3.823
84722W        W51505  11.723  32.138  14.962
84723W        W51506  44.925  14.609   2.716
84724W        W51507  15.479  16.371  13.210
84725W        W51508   8.323   5.867  11.445
84726W        W51509  22.094  20.126   1.920
84727W        W51510   6.819  13.474   4.876
84728W        W51511  20.105  43.783   3.549
84729W        W51512  38.434  24.320  10.968
84730W        W51513   9.341  14.351  10.945
84731W        W51514  12.946   0.260  14.833
84732W        W51515  17.712  35.614   4.935
84733W        W51516  11.707   8.211  12.111
84734W        W51517   6.418  10.660  12.098
84735W        W51518  44.460  24.151  11.980
84736W        W51519   0.314   7.394   0.578
84737W        W51520  12.789  14.595  12.634
84738W        W51521  13.267  27.319   3.189
84739W        W51522  42.890  29.521  10.433
84740W        W51523  25.677  10.213  13.487
84741W        W51524  13.759  10.856   4.137
84742W        W51525  31.679  29.887   0.340
84743W        W51526  41.288   4.454  14.232
84744W        W51527  43.616  13.050   4.765
84745W        W51528   7.787  41.854  12.047
84746W        W51529  17.731  16.364  12.638
84747W        W51530  28.911  38.581   5.014
84748W        W51531  14.665  16.541   2.328
84749W        W51532  42.113  23.149  14.452
84750W        W51533   3.352  34.552   4.828
84751W        W51534  21.019  41.569  10.573
84752W        W51535  29.618  38.454  14.690
84753W        W51536  44.286   3.482   3.637
84754W        W51537  34.560  34.512  11.090
84755W        W51538   9.315  28.681   0.018
84756W        W51539   4.706  38.387   1.783
84757W        W51540  14.343  11.236  12.538
84758W        W51541  13.853  26.070  12.277
84759W        W51542  27.209  22.115  11.956
84760W        W51543  37.880   4.293   2.702
84761W        W51544  41.800   8.448   2.339
84762W        W51545   0.436  27.185   2.107
84763W        W51546  23.516   8.376  13.433
84764W        W51547  19.077  25.995   2.750
84765W        W51548  26.007  14.855  11.611
84766W        W51549  18.806  10.844   2.770
84767W        W51550  35.521  18.116  14.401
84768W        W51551  13.827  23.603   3.691
84769W        W51552  12.258  13.442   1.336
84770W        W51553   8.304   8.383   3.177
84771W        W51554  18.349  20.403  11.912
84772W        W51555   2.050  34.580  10.414
84773W        W51556  14.531  16.336   3.159
84774W        W51557  22.140  32.519   2.409
84775W        W51558  29.673  35.550  12.036
84776W        W51559   8.858  19.404  11.601
84777W        W51560  28.451   6.741   4.831
84778W        W51561  17.737  39.361  11.643
84779W        W51562  15.225  30.856  12.493
84780W        W51563  21.022  32.357   5.003
84781W        W51564  22.726  36.683  12.136
84782W        W51565  26.263  17.937  12.925
84783W        W51566  37.118  24.174  13.339
84784W        W51567  26.853   0.208  13.296
84785W        W51568   8.142   6.142   1.935
84786W        W51569   1.733  29.176   2.841
84787W        W51570   9.343  44.275  11.456
84788W        W51571   2.522   5.562   2.425
84789W        W51572   4.775  15.601  14.053
84790W        W51573  31.222  28.011   1.693
84791W        W51574  16.285  15.090   3.956
84792W        W51575   7.710  39.798  11.434
84793W        W51576  16.229  26.526   0.790
84794W        W51577   1.137   9.289  12.571
84795W        W51578  21.225  22.618  13.103
84796W        W51579  32.129  14.789   3.147
84797W        W51580  12.296   4.166  11.154
84798W        W51581   6.831  31.881  12.300
84799W        W51582  34.824   4.819  11.542
84800W        W51583   3.107  16.138   1.933
84801W        W51584  41.263   5.650  10.272
84802W        W51585  14.033  20.450  12.255
84803W        W51586  29.892  24.605   2.845
84804W        W51587  12.337  13.183  13.095
84805W        W51588   5.262  28.949   0.745
84806W        W51589  11.331  37.384   1.822
84807W        W51590  34.394  29.187   3.704
84808W        W51591  14.723  43.255   3.308
84809W        W51592   8.082  14.407  10.240
84810W        W51593  30.895  14.038   0.894
84811W        W51594   3.101  39.941   2.401
84812W        W51595  33.516  22.517  12.663
84813W        W51596  29.721  38.391  10.673
84814W        W51597  43.034  23.240   1.350
84815W        W51598  37.716   0.457  12.302
84816W        W51599  10.740   0.564   4.268
84817W        W51600   7.165  44.894  12.081
84818W        W51601  27.997  15.858  12.348
84819W        W51602  42.050  24.847  12.054
84820W        W51603   8.403   8.013   0.432
84821W        W51604  38.428  33.435   3.550
84822W        W51605  22.705   5.468   1.283
84823W        W51606  22.109  42.460   4.386
84824W        W51607  14.724  13.798   2.925
84825W        W51608  16.404  27.101  11.665
84826W        W51609  12.659  43.707   0.313
84827W        W51610   9.831  17.226   3.212
84828W        W51611   1.339  17.689  13.498
84829W        W51612  38.860   3.804  14.816
84830W        W51613  23.162  18.855   3.839
84831W        W51614  17.155  10.103   0.909
84832W        W51615  33.936  28.079  13.489
84833W        W51616  30.009   7.905   4.609
84834W        W51617  12.324  25.721  10.792
84835W        W51618  44.733  34.548   2.376
84836W        W51619  27.515  17.538  14.317
84837W        W51620  36.547  14.980   4.445
84838W        W51621  18.812  22.644   2.160
84839W        W51622  18.684  37.607  12.854
84840W        W51623  23.195   3.893   0.263
84841W        W51624  25.726   4.459  13.373
84842W        W51625  40.669   9.681   1.765
84843W        W51626  21.436  14.205  14.511
84844W        W51627   9.594  33.410  13.782
84845W        W51628   1.759   4.319   3.870
84846W        W51629  39.559  38.460  13.836
84847W        W51630  43.315  33.116   2.536
84848W        W51631   5.276   1.962  10.493
84849W        W51632  11.337  10.733   0.434
84850W        W51633  34.888  39.332  11.492
84851W        W51634  26.052  40.297   3.563
84852W        W51635  28.189  26.936  11.585
84853W        W51636  29.627  27.439  14.071
84854W        W51637  29.981  36.506  12.939
84855W        W51638  15.599  10.179  14.369
84856W        W51639   5.889  41.606   2.237
84857W        W51640  11.483  12.591   2.639
84858W        W51641   5.484   0.991  14.117
84859W        W51642  11.216  20.226   0.300
84860W        W51643   9.827  27.061  11.861
84861W        W51644  18.273   5.865   2.410
84862W        W51645   9.692  33.564  11.605
84863W        W51646  19.610   3.082  11.086
84864W        W51647  30.691   6.695   4.666
84865W        W51648  44.206  20.776  12.042
84866W        W51649  24.138  29.909   2.820
84867W        W51650  21.505  34.248  11.781
84868W        W51651   6.248  39.283   1.654
84869W        W51652  43.570  15.120   1.330
84870W        W51653  24.470  29.486   2.743
84871W        W51654  18.987  31.319   0.059
84872W        W51655  23.013  44.532   4.638
84873W        W51656  28.505  18.207  11.033
84874W        W51657   2.548   3.456  10.204
84875W        W51658  25.613   9.018   5.380
84876W        W51659  26.182  18.178  11.004
84877W        W51660  35.766   3.426  14.941
84878W        W51661  31.829  41.420   1.199
84879W        W51662  20.651   0.739  11.683
84880W        W51663   1.315   5.517  12.437
84881W        W51664   7.859  23.755   0.242
84882W        W51665  25.674  27.786  13.457
84883W        W51666  21.661   0.167   4.214
84884W        W51667  41.005  26.230   0.398
84885W        W51668  43.770  31.877  13.452
84886W        W51669  12.006  23.096   1.119
84887W        W51670   5.021  38.906  13.329
84888W        W51671   2.157  42.415  11.201
84889W        W51672  20.749  22.556  13.264
84890W        W51673   7.849  26.841  11.161
84891W        W51674  29.994  33.968   1.435
84892W        W51675  42.086  43.569  14.006
84893W        W51676  16.917  11.836  11.292
84894W        W51677  21.152  39.940   3.157
84895W        W51678  19.715  32.018  14.979
84896W        W51679  14.866   1.465   0.730
84897W        W51680  22.665  24.463  13.873
84898W        W51681   9.691  14.003  10.740
84899W        W51682   0.319  26.928   3.993
84900W        W51683  27.126   9.247  14.922
84901W        W51684  15.885  20.047  13.807
84902W        W51685  33.811  23.181  13.086
84903W        W51686  35.529  26.383  13.603
84904W        W51687  24.244   1.862  12.403
84905W        W51688   8.255  42.573  11.903
84906W        W51689  20.468  44.522   2.173
84907W        W51690  31.395   5.676   0.500
84908W        W51691  10.641  44.370  11.143
84909W        W51692  23.074  21.659   2.234
84910W        W51693  33.428  13.870  11.957
84911W        W51694  13.337   3.153  12.589
84912W        W51695  18.640  33.836   0.024
84913W        W51696   6.739  26.349   3.674
84914W        W51697   3.427  24.556  13.908
84915W        W51698  29.631   0.390  11.060
84916W        W51699   2.467  25.614   1.207
84917W        W51700  11.759  38.800   0.117
84918W        W51701  20.119  29.399   3.258
84919W        W51702  29.347  22.041  13.845
84920W        W51703  25.107   3.639  10.409
84921W        W51704  16.261  21.593  14.087
84922W        W51705  25.754  26.071  11.371
84923W        W51706  28.990   7.999   4.644
84924W        W51707  18.246  23.634   0.276
84925W        W51708  36.865  11.620   0.230
84926W        W51709  35.466  24.724  10.560
84927W        W51710   6.799  38.356  14.418
84928W        W51711  13.968  34.858  11.954
84929W        W51712  17.507   6.475  11.571
84930W        W51713  17.686   3.220   4.528
84931W        W51714  31.460  44.054  14.933
84932W        W51715  23.542   3.950  14.406
84933W        W51716  12.836   4.100   1.460
84934W        W51717  27.608   2.243   0.722
84935W        W51718  39.924  32.839   1.755
84936W        W51719  29.094  31.457   1.942
84937W        W51720  39.956  31.199  11.558
84938W        W51721  32.401  31.964  13.413
84939W        W51722  25.573   3.834   1.445
84940W        W51723  21.179   6.867   4.170
84941W        W51724  26.916  25.731   0.353
84942W        W51725  30.679  21.822   0.137
84943W        W51726   9.589  34.075  14.469
84944W        W51727  38.519  10.175   4.135
84945W        W51728  21.634  24.462   3.287
84946W        W51729  32.994  40.955   1.744
84947W        W51730  38.335  39.993   0.929
84948W        W51731  29.572  14.026   4.708
84949W        W51732  30.897  37.199   0.902
84950W        W51733  24.863  33.082   4.846
84951W        W51734   8.032   6.557   4.593
84952W        W51735  11.574  26.946   2.436
84953W        W51736  11.575  13.689   0.458
84954W        W51737  37.327  42.744  10.122
84955W        W51738  28.974  21.228  14.299
84956W        W51739  37.403   1.342  14.860
84957W        W51740  27.549   4.757  14.003
84958W        W51741   8.453  31.144  14.025
84959W        W51742   3.776  16.554  13.011
84960W        W51743   1.146  24.575  12.611
84961W        W51744  18.889  22.108   3.579
84962W        W51745  39.358  31.063   4.548
84963W        W51746  37.487  11.768  12.031
84964W        W51747   5.872  11.156  12.777
84965W        W51748  28.715  37.961  14.582
84966W        W51749  44.147   3.983   3.767
84967W        W51750  30.501   8.417   3.229
84968W        W51751  36.829   2.719   4.262
84969W        W51752  28.429  17.153   2.478
84970W        W51753  21.345  38.541   3.025
84971W        W51754  29.351   8.819   4.581
84972W        W51755  40.477   1.285   2.421
84973W        W51756  34.786  38.484   0.582
84974W        W51757  29.683  21.447   1.525
84975W        W51758  41.615   6.387  13.657
84976W        W51759   4.123   1.809   1.704
84977W        W51760  14.695  27.735   0.301
84978W        W51761  14.789  25.223  12.643
84979W        W51762  34.191  23.914   0.042
84980W        W51763  33.899  26.829   4.109
84981W        W51764  33.076  34.475  10.681
84982W        W51765  16.299  32.305   0.823
84983W        W51766  33.148  21.260  12.989
84984W        W51767   7.184  11.321   1.881
84985W        W51768  28.269  42.827   3.417
84986W        W51769   9.627  24.224   1.377
84987W        W51770  40.223  37.552   3.269
84988W        W51771  42.152  13.547   1.879
84989W        W51772  17.787  19.241  14.800
84990W        W51773  25.791  34.519  11.519
84991W        W51774  28.104   6.268   0.242
84992W        W51775  27.139  16.155   2.554
84993W        W51776   7.883  31.953   0.041
84994W        W51777   7.426  21.415  11.635
84995W        W51778  30.532  34.196  11.603
84996W        W51779   3.375  33.867   2.721
84997W        W51780   3.087  28.580   2.695
84998W        W51781  42.534  33.949   4.860
84999W        W51782   8.194  39.160   2.659
85000W        W51783  17.681  38.393  10.586
85001W        W51784   7.787  33.702   0.419
85002W        W51785   9.761  31.951   3.601
85003W        W51786   1.658  42.132  11.146
85004W        W51787  20.727  32.881  11.978
85005W        W51788  30.084  26.528  12.848
85006W        W51789  20.671  26.420   0.821
85007W        W51790  12.687  41.306   2.426
85008W        W51791  24.209  21.236   0.863
85009W        W51792  36.726   3.175  10.684
85010W        W51793  32.825  11.816  11.600
85011W        W51794  37.466   5.865  11.678
85012W        W51795   1.077  41.806   2.721
85013W        W51796  37.648  25.564  11.600
85014W        W51797  36.987  15.846  14.411
85015W        W51798   4.456  42.514   1.251
85016W        W51799  37.660   8.790  12.541
85017W        W51800  19.187   0.388  10.668
85018W        W51801  41.103  18.132   0.331
85019W        W51802  37.054  13.610   3.304
85020W        W51803  34.421  26.505  13.071
85021W        W51804  10.082  26.268  12.045
85022W        W51805  22.313   9.850  10.694
85023W        W51806   2.904  21.707  13.774
85024W        W51807  14.077  23.458   0.347
85025W        W51808   6.906  33.629   2.929
85026W        W51809  25.165  22.159   0.778
85027W        W51810  29.981  33.006   0.003
85028W        W51811  31.622   0.807   1.041
85029W        W51812  36.148  11.627  11.276
85030W        W51813  20.557  32.371   1.175
85031W        W51814  23.458  14.991   3.815
85032W        W51815  33.620  22.132   0.337
85033W        W51816  12.605  17.839  14.875
85034W        W51817  15.993  30.531   0.865
85035W        W51818  38.771  17.580  13.443
85036W        W51819  18.912   7.356   4.540
85037W        W51820   7.425  22.063  10.631
85038W        W51821  25.971  15.167  14.375
85039W        W51822   0.455  15.659  14.995
85040W        W51823  44.944  37.106   0.228
85041W        W51824  12.079  10.222  12.977
85042W        W51825   5.474  19.494   3.675
85043W        W51826   3.764  21.012  10.971
85044W        W51827  34.411  15.267  14.786
85045W        W51828  33.092  39.899  11.428
85046W        W51829  34.573  42.521   3.763
85047W        W51830   0.276  32.980   2.278
85048W        W51831  32.945  38.156  11.003
85049W        W51832  16.659  30.528  14.923
85050W        W51833   2.378  12.141  11.046
85051W        W51834   9.152  19.051  12.353
85052W        W51835  32.419   7.539   0.384
85053W        W51836   4.000   4.680  14.698
85054W        W51837  31.109  14.751  10.944
85055W        W51838   0.469  14.386   3.615
85056W        W51839  25.483  30.437   1.860
85057W        W51840  21.001  40.248   0.060
85058W        W51841  19.105  44.853   3.332
85059W        W51842  33.788  15.815  12.479
85060W        W51843  10.664  16.798   1.435
85061W        W51844  34.891  11.314   3.186
85062W        W51845  23.969  30.952   1.522
85063W        W51846  26.579  42.735   2.111
85064W        W51847  10.470  25.703   3.195
85065W        W51848  33.363   1.915  12.218
85066W        W51849   0.363  20.952   4.110
85067W        W51850   3.209  25.670  12.015
85068W        W51851  32.912   9.823  10.438
85069W        W51852   0.711   9.306   0.800
85070W        W51853   0.187  38.469   0.566
85071W        W51854  44.719  16.782  10.976
85072W        W51855   1.015  16.044   3.332
85073W        W51856   6.729  13.215   2.877
85074W        W51857  13.057  12.212  12.390
85075W        W51858  31.973  29.578  13.981
85076W        W51859  40.404  38.095  13.778
85077W        W51860  15.596  34.369   2.449
85078W        W51861  28.173  20.336  10.641
85079W        W51862  43.576  11.152  11.646
85080W        W51863  16.192  38.542  11.251
85081W        W51864  13.002   0.550  13.988
85082W        W51865  25.999   6.191   4.439
85083W        W51866  25.184  13.138  10.641
85084W        W51867  27.667   0.004   4.355
85085W        W51868  36.785  43.536   0.940
85086W        W51869  23.475  20.755   4.627
85087W        W51870  41.306  18.832  11.542
85088W        W51871  17.823  18.988   4.070
85089W        W51872  19.521  42.823  10.873
85090W        W51873  38.635  43.433  11.160
85091W        W51874   3.594  33.398   2.836
85092W        W51875   7.312  16.051  13.153
85093W        W51876  15.496  15.849   0.229
85094W        W51877  20.120  32.057   4.739
85095W        W51878   6.864  35.948  13.857
85096W        W51879  38.788   4.624  10.255
85097W        W51880   5.344   5.947  12.809
85098W        W51881  35.061  44.185  12.426
85099W        W51882  19.079  37.535  11.038
85100W        W51883   5.841  18.798   4.806
85101W        W51884   5.460  21.221   1.890
85102W        W51885   7.665  44.105  12.532
85103W        W51886   4.755  21.662  10.725
85104W        W51887  43.605  34.550   4.046
85105W        W51888  20.109   6.388   3.654
85106W        W51889  14.436  37.591   4.239
85107W        W51890  41.264  24.496   0.800
85108W        W51891  13.251  21.085  11.184
85109W        W51892  27.163  30.878   0.728
85110W        W51893  14.727   3.864   0.190
85111W        W51894  30.158   2.764   0.916
85112W        W51895  29.401   8.890   0.971
85113W        W51896  43.540   5.392  10.131
85114W        W51897   4.068  30.863   2.899
85115W        W51898   4.703  30.915  11.521
85116W        W51899  16.111  28.725  12.273
85117W        W51900   1.394  38.552  13.136
85118W        W51901  41.414   5.423   4.025
85119W        W51902  31.063  24.667   1.632
85120W        W51903   8.059  38.404   3.968
85121W        W51904  30.531  37.856  14.043
85122W        W51905  23.895  28.873   3.532
85123W        W51906   0.857  28.044  12.598
85124W        W51907  22.104  12.937  14.396
85125W        W51908  15.609  30.056  12.455
85126W        W51909  18.684  31.760  12.954
85127W        W51910  22.898  23.060  13.583
85128W        W51911  30.471  16.974  13.899
85129W        W51912  40.131  35.577   3.690
85130W        W51913  36.638  28.082  12.707
85131W        W51914  37.215   7.727   4.273
85132W        W51915   1.945  26.563  10.659
85133W        W51916  36.118  21.284   3.206
85134W        W51917  12.980  15.291   4.315
85135W        W51918  42.079  25.570  11.459
85136W        W51919   7.544  16.446  12.551
85137W        W51920  44.346  11.302  12.060
85138W        W51921  19.166  20.129  12.828
85139W        W51922  10.192   1.666   0.489
85140W        W51923  38.809  33.868  11.276
85141W        W51924  44.369  35.842  13.426
85142W        W51925  27.557  39.151   4.102
85143W        W51926  41.045   7.973   3.306
85144W        W51927  10.706  31.662  13.995
85145W        W51928  38.507  29.640   1.345
85146W        W51929  23.051  31.026   2.734
85147W        W51930  12.706  36.829  14.961
85148W        W51931  21.452  40.597   3.648
85149W        W51932  21.735  13.403   3.553
85150W        W51933  29.914  34.930  13.881
85151W        W51934  10.904  19.521  12.570
85152W        W51935  39.557  41.795  13.064
85153W        W51936  31.118  29.154  12.629
85154W        W51937  39.504   6.300   4.922
85155W        W51938  25.470  15.402  10.640
85156W        W51939  28.384  13.357  12.814
85157W        W51940  42.328  19.384   0.397
85158W        W51941  42.942   2.554  13.391
85159W        W51942  29.868  26.285  11.926
85160W        W51943  34.465  26.023   4.727
85161W        W51944  42.234  10.155  13.155
85162W        W51945  13.841  32.513   4.628
85163W        W51946  33.496  32.819  12.772
85164W        W51947   2.968   6.998   4.176
85165W        W51948   7.854  31.849   3.280
85166W        W51949  38.476   1.408  11.601
85167W        W51950  19.965  38.105   0.751
85168W        W51951  16.383  34.851  12.412
85169W        W51952  17.788   0.518   2.292
85170W        W51953   3.869  19.568   0.874
85171W        W51954  43.007  11.281   3.059
85172W        W51955   9.822  33.876  13.806
85173W        W51956  22.174  21.982   4.030
85174W        W51957   0.796  44.929   2.233
85175W        W51958  43.430  42.976  10.759
85176W        W51959  10.430  15.077  14.617
85177W        W51960  44.522  12.313   2.830
85178W        W51961  44.164   4.495  11.980
85179W        W51962  22.258  36.852   4.796
85180W        W51963  40.482  21.731  14.284
85181W        W51964  38.132  11.900   3.188
85182W        W51965  35.844  33.192   1.817
85183W        W51966   7.848   8.401   3.450
85184W        W51967   2.214  44.275  12.646
85185W        W51968  29.497  28.406  11.155
85186W        W51969  37.656  25.911   4.840
85187W        W51970  14.998  21.434  13.565
85188W        W51971  41.363  29.143   3.215
85189W        W51972  18.539  19.591   2.222
85190W        W51973  26.147  35.090   4.668
85191W        W51974  11.884  39.428   1.763
85192W        W51975  11.037  42.495   1.362
85193W        W51976  27.313  25.124   1.351
85194W        W51977  30.961   1.513   3.046
85195W        W51978   0.228  10.172   2.246
85196W        W51979  22.644  37.313   4.182
85197W        W51980  30.590   8.303   0.484
85198W        W51981  43.313  25.602   1.620
85199W        W51982  29.700  25.973   3.741
85200W        W51983  38.609  35.876   1.756
85201W        W51984   9.652  10.193  12.828
85202W        W51985  18.913  31.127   4.675
85203W        W51986  34.693  20.983   1.867
85204W        W51987   2.955  40.857   2.254
85205W        W51988  24.669  13.645  13.548
85206W        W51989  44.012  35.021  11.667
85207W        W51990   3.307  39.251  14.341
85208W        W51991  34.066  27.618   0.272
85209W        W51992  43.039   7.177   4.070
85210W        W51993   7.774  39.967   3.600
85211W        W51994  19.772  13.821  14.954
85212W        W51995  37.595   3.246   1.359
85213W        W51996  36.902   7.907   2.888
85214W        W51997  26.663  41.374   2.187
85215W        W51998  14.764   7.471  14.852
85216W        W51999  38.059  36.945  14.570
85217W        W52000  36.115  40.850   2.664
85218W        W52001  43.931   0.301  11.547
85219W        W52002   9.484  11.815   2.803
85220W        W52003  39.343   3.819  11.652
85221W        W52004  17.834   9.883  10.845
85222W        W52005  20.583   5.525   0.304
85223W        W52006  18.092   6.771  13.571
85224W        W52007  43.492   4.099   4.606
85225W        W52008  43.763   4.014   0.325
85226W        W52009  25.692   0.282  12.525
85227W        W52010  33.944  43.896  11.071
85228W        W52011  24.182  35.010  13.270
85229W        W52012  37.043  35.127   4.191
85230W        W52013  32.013   6.653   2.914
85231W        W52014  43.374  37.023  11.580
85232W        W52015  13.627  41.727   2.309
85233W        W52016  30.619   0.455   3.165
85234W        W52017  29.944   5.338   0.410
85235W        W52018  31.697  42.086  13.829
85236W        W52019  27.370  11.593  10.515
85237W        W52020  23.994  13.822   2.858
85238W        W52021  34.588   8.752   0.032
85239W        W52022  11.260  25.058  14.284
85240W        W52023  26.676  24.966   0.770
85241W        W52024   9.505  19.495  12.337
85242W        W52025  34.402  24.606  12.519
85243W        W52026  35.438   4.799  11.543
85244W        W52027   7.751  40.195  13.278
85245W        W52028  24.131  23.012  12.914
85246W        W52029  36.829  40.669  13.790
85247W        W52030  17.111  36.095  12.485
85248W        W52031  44.722  26.141  12.031
85249W        W52032  25.098  14.652  14.770
85250W        W52033   6.215  35.458  13.588
85251W        W52034  29.857  26.622   3.789
85252W        W52035  23.224  19.301  12.479
85253W        W52036  23.638  26.916  14.770
85254W        W52037  10.119  32.181  11.099
85255W        W52038  19.824  10.361  14.990
85256W        W52039  23.223  30.211  14.469
85257W        W52040  25.314  31.061   3.224
85258W        W52041  44.419   3.155  11.632
85259W        W52042  32.484   6.666  12.566
85260W        W52043  26.625  28.398  12.110
85261W        W52044  44.432   0.852   4.681
85262W        W52045  25.527   3.443   0.129
85263W        W52046  32.427   0.167  13.553
85264W        W52047  35.264   4.982  10.702
85265W        W52048   2.878  29.434  14.974
85266W        W52049  43.902  29.868   1.416
85267W        W52050  38.138  44.031   1.944
85268W        W52051  36.407  11.622   3.887
85269W        W52052  15.858  33.952  12.320
85270W        W52053  35.426  31.346  14.372
85271W        W52054   2.232  11.169  12.989
85272W        W52055  43.091   9.301  11.648
85273W        W52056   5.299  27.898   0.790
85274W        W52057  40.522   2.826   3.749
85275W        W52058  30.242   4.596  12.725
85276W        W52059  36.845  29.125  13.832
85277W        W52060  42.374  11.415  14.242
85278W        W52061  10.633   9.369  10.687
85279W        W52062  30.631  28.759  14.605
85280W        W52063  27.855   9.230   2.901
85281W        W52064  14.307   0.741   4.170
85282W        W52065  32.178   3.442  13.027
85283W        W52066  20.030   8.954   2.626
85284W        W52067  37.516  19.309  10.461
85285W        W52068  16.217   5.013   4.213
85286W        W52069  27.970   4.382  10.291
85287W        W52070  24.449  37.557   4.076
85288W        W52071   0.223  30.948   3.113
85289W        W52072  11.285  36.426  12.998
85290W        W52073  33.500   7.513  12.118
85291W        W52074  36.267  21.165  12.501
85292W        W52075  29.108  34.619  12.114
85293W        W52076   9.437  22.490  13.865
85294W        W52077  15.584   6.695   4.314
85295W        W52078  42.435  37.965   0.423
85296W        W52079  22.017  33.915   2.572
85297W        W52080  30.115   1.046   2.869
85298W        W52081  44.385  14.665   1.851
85299W        W52082  42.980  19.100  14.082
85300W        W52083  27.627  32.837   1.743
85301W        W52084   8.647   5.245  14.073
85302W        W52085   7.432   1.228  11.533
85303W        W52086  30.736  33.121   3.626
85304W        W52087  31.593  21.275  11.578
85305W        W52088  34.315  31.937   1.155
85306W        W52089  43.145   6.721  13.014
85307W        W52090  36.217  35.139  12.491
85308W        W52091  11.418  27.249   2.848
85309W        W52092  20.154   0.755  12.841
85310W        W52093  20.977  27.128   1.328
85311W        W52094   0.968   3.413  12.601
85312W        W52095  12.897   8.194   9.995
85313W        W52096  40.424  11.156  11.361
85314W        W52097  29.507   5.606   0.362
85315W        W52098  40.420  12.104   3.503
85316W        W52099   8.730  14.849  11.879
85317W        W52100  43.668  33.825   3.709
85318W        W52101  10.265  41.877   2.093
85319W        W52102  23.769  21.703  13.054
85320W        W52103  39.866  15.543   2.644
85321W        W52104  12.041   9.152  12.098
85322W        W52105   7.953  26.300  14.428
85323W        W52106  30.082   3.282   0.858
85324W        W52107  38.921  12.699  13.404
85325W        W52108  14.877  16.329   3.549
85326W        W52109  40.413   6.384   4.308
85327W        W52110  24.746   3.744   5.083
85328W        W52111  24.563  14.599  12.625
85329W        W52112   0.956   3.771  10.798
85330W        W52113  11.114   9.854   4.965
85331W        W52114  41.468  12.529   9.928
85332W        W52115  14.275  25.411  14.243
85333W        W52116  29.397  32.660  12.960
85334W        W52117   4.414  37.816  14.371
85335W        W52118   5.836  12.814  10.626
85336W        W52119  12.867  43.274   4.390
85337W        W52120   0.546  33.734  10.372
85338W        W52121  10.433   5.011   2.439
85339W        W52122  34.391   1.971   4.187
85340W        W52123   2.696  10.408  11.160
85341W        W52124  20.657   3.236  12.885
85342W        W52125  21.525  10.207  14.779
85343W        W52126  16.140  35.994   1.389
85344W        W52127  10.054  27.094   4.601
85345W        W52128  17.636   7.322   2.889
85346W        W52129   2.851  38.082   3.796
85347W        W52130  28.946  37.060  10.739
85348W        W52131  10.373  24.023   4.125
85349W        W52132  13.798  16.649  11.225
85350W        W52133  18.758  16.609  14.871
85351W        W52134  44.644  21.425  13.464
85352W        W52135   0.411   6.415   0.202
85353W        W52136   4.730  36.227   5.014
85354W        W52137  42.306  32.855   3.427
85355W        W52138  14.709   9.145  12.565
85356W        W52139  27.086  27.738  12.415
85357W        W52140   2.838  27.427   4.137
85358W        W52141  41.535  37.351  12.854
85359W        W52142  42.082  35.525  14.088
85360W        W52143  23.724  44.997  11.566
85361W        W52144  21.561  35.920   0.228
85362W        W52145  34.659  22.300   2.341
85363W        W52146  24.270  16.017  12.886
85364W        W52147  32.516  17.334  13.382
85365W        W52148  19.608  18.749  13.943
85366W        W52149  31.419  36.092   5.028
85367W        W52150  38.438  29.754   3.048
85368W        W52151   9.670   8.454  13.972
85369W        W52152  13.907   4.946   3.606
85370W        W52153  42.166  11.660   4.180
85371W        W52154  40.871  34.440  14.743
85372W        W52155  22.250  26.557  12.453
85373W        W52156   5.923  34.374  14.248
85374W        W52157   5.444  10.829   0.759
85375W        W52158   0.270  18.621  13.774
85376W        W52159   9.800  28.880  14.968
85377W        W52160  41.016   1.330   4.081
85378W        W52161  34.029   8.422  10.637
85379W        W52162  27.614  38.114   0.691
85380W        W52163  35.337  30.560  13.032
85381W        W52164  12.677  33.966   2.374
85382W        W52165   9.584  43.634  12.965
85383W        W52166  15.679  27.328   0.938
85384W        W52167  21.049  41.878   1.380
85385W        W52168  23.635  17.693   2.830
85386W        W52169  22.281  40.622   2.020
85387W        W52170  13.093  14.593  10.743
85388W        W52171  14.738  35.073  11.637
85389W        W52172   8.381  37.366  10.143
85390W        W52173  36.277   6.235  14.696
85391W        W52174  16.755  40.258  12.328
85392W        W52175  33.084  27.669   0.369
85393W        W52176  33.692  26.669  14.969
85394W        W52177   6.346  14.400   2.405
85395W        W52178  10.613   5.973   3.753
85396W        W52179  30.876   6.724   1.764
85397W        W52180  18.219  31.466   4.897
85398W        W52181  19.285  38.168   2.114
85399W        W52182  29.505  22.758   1.008
85400W        W52183  40.363  39.597   0.386
85401W        W52184  19.422  12.136  14.408
85402W        W52185  31.699  43.026  13.801
85403W        W52186  10.105  31.941  14.407
85404W        W52187  41.031   6.534   3.219
85405W        W52188  32.942   9.447  13.828
85406W        W52189   6.140  23.580   3.366
85407W        W52190   7.810   8.894  10.929
85408W        W52191  14.380  31.668   0.897
85409W        W52192  41.280  36.311   0.299
85410W        W52193  36.573  24.132  14.004
85411W        W52194  15.129  39.937   0.598
85412W        W52195  26.610   9.738  10.696
85413W        W52196  30.746  27.274   0.944
85414W        W52197   5.642  38.114  11.394
85415W        W52198  26.471  12.778  12.392
85416W        W52199  28.408  27.432  12.495
85417W        W52200  44.270   5.262   3.547
85418W        W52201  22.576  40.411  14.449
85419W        W52202  28.370  26.629  13.470
85420W        W52203  16.102  37.914  12.825
85421W        W52204  13.011  41.088   1.656
85422W        W52205  18.665  38.248   2.462
85423W        W52206  42.510   3.928  13.886
85424W        W52207  41.376  35.650  11.138
85425W        W52208  28.343  28.048  14.031
85426W        W52209   1.891  44.391  14.385
85427W        W52210   5.606   6.384  14.851
85428W        W52211  37.020  20.137  11.216
85429W        W52212  14.340  23.523   4.666
85430W        W52213  24.662   8.159  10.890
85431W        W52214   3.198  41.461   1.081
85432W        W52215  18.720  42.850   0.010
85433W        W52216   5.336   7.897   1.252
85434W        W52217   8.654  40.267  10.781
85435W        W52218  19.171  30.809   2.965
85436W        W52219  44.371   0.382   1.485
85437W        W52220  20.231  40.007  14.387
85438W        W52221  16.175  30.849   3.309
85439W        W52222   0.820   9.566  13.513
85440W        W52223  37.334   2.978   1.702
85441W        W52224  36.209   7.948   4.998
85442W        W52225  43.555  14.116   3.556
85443W        W52226  26.128  10.634   0.831
85444W        W52227  44.474  23.676  13.871
85445W        W52228  10.851  35.109  14.864
85446W        W52229  23.534  13.447  14.858
85447W        W52230  26.124  28.556  12.771
85448W        W52231  22.419  22.471  13.792
85449W        W52232  11.935  23.504  14.803
85450W        W52233  21.194  29.899  14.832
85451W        W52234  30.345   4.671   0.955
85452W        W52235  22.241  44.425  14.858
85453W        W52236  13.969  43.941   4.198
85454W        W52237  25.977  10.554   4.504
85455W        W52238  24.946  42.022   0.295
85456W        W52239  23.907  18.618  10.827
85457W        W52240   8.891  33.816  12.825
85458W        W52241  24.686  21.991   0.802
85459W        W52242  31.037  18.825  14.245
85460W        W52243   2.423  38.528   3.251
85461W        W52244   5.602   3.247   0.266
85462W        W52245  34.533  37.030   0.847
85463W        W52246  17.174  25.963  10.587
85464W        W52247  16.976  42.446  11.572
85465W        W52248  16.244   5.934  13.964
85466W        W52249   2.410  12.094   0.197
85467W        W52250  34.523  35.651  13.984
85468W        W52251   8.427  37.391  12.520
85469W        W52252  21.066  43.309  13.398
85470W        W52253  44.553  33.057  11.152
85471W        W52254  17.243   4.276  13.984
85472W        W52255  11.623   3.288  14.770
85473W        W52256   7.394  43.284  12.788
85474W        W52257  43.456  38.107   2.736
85475W        W52258  18.449  44.782  11.615
85476W        W52259  44.411   0.197  13.233
85477W        W52260   1.335  43.905   4.232
85478W        W52261  13.658   9.693   4.858
85479W        W52262  24.760  31.440  13.253
85480W        W52263  44.017  42.004   3.741
85481W        W52264   9.692   6.058   2.601
85482W        W52265  34.766  42.065  12.545
85483W        W52266  33.985  16.567   2.648
85484W        W52267  30.387  26.045   4.151
85485W        W52268   8.778  24.147   2.240
85486W        W52269   4.734  11.765   4.787
85487W        W52270  19.077  11.991   0.050
85488W        W52271   5.723  13.853   2.771
85489W        W52272  30.153  37.894  13.395
85490W        W52273  37.495  27.947   0.881
85491W        W52274   1.970   2.481   1.238
85492W        W52275  17.186  35.358  11.461
85493W        W52276  25.590  25.508   3.194
85494W        W52277  39.447   7.196   2.662
85495W        W52278  44.755  44.881   3.091
85496W        W52279  15.301   1.434   4.594
85497W        W52280  44.330  43.977   2.125
85498W        W52281  13.381   3.956   4.599
85499W        W52282  35.613  14.229  12.387
85500W        W52283  36.631  11.100  14.305
85501W        W52284  39.904  16.850  14.337
85502W        W52285  40.443  27.467  11.937
85503W        W52286  13.370  13.851   3.164
85504W        W52287   4.640  38.881  11.020
85505W        W52288  22.670   5.319   4.456
85506W        W52289  18.000  41.805   2.351
85507W        W52290  40.023   3.230   1.070
85508W        W52291   2.415  29.713   2.303
85509W        W52292  40.925  35.617   4.737
85510W        W52293  38.261  27.592   0.964
85511W        W52294  15.641  39.940  11.762
85512W        W52295  10.047  38.878  13.833
85513W        W52296  29.628  18.317   1.514
85514W        W52297  24.323   4.084   5.192
85515W        W52298  42.307  20.824  12.023
85516W        W52299  24.751  13.848   1.233
85517W        W52300   9.140  30.324   4.206
85518W        W52301  37.303   2.439  10.694
85519W        W52302   3.725  31.229   2.555
85520W        W52303  11.183  10.986   4.405
85521W        W52304  30.425  17.380  11.884
85522W        W52305  32.626  23.596  11.745
85523W        W52306  31.548  23.973  13.885
85524W        W52307   5.554  41.714  11.190
85525W        W52308  16.251  24.273  11.036
85526W        W52309  30.897   2.033  12.506
85527W        W52310  20.723   2.890  12.097
85528W        W52311  38.071   4.186   4.537
85529W        W52312  33.069  38.228  11.974
85530W        W52313   6.849   6.868   1.798
85531W        W52314   4.309  17.246  13.277
85532W        W52315  22.826  17.650   3.328
85533W        W52316  44.966  41.529   4.087
85534W        W52317  39.573  29.989  10.534
85535W        W52318  37.626  29.138  11.493
85536W        W52319  13.860  17.616  11.855
85537W        W52320  19.620  42.009   0.401
85538W        W52321  20.217  20.255  14.370
85539W        W52322  25.591  44.779  12.562
85540W        W52323   1.963  26.155  13.925
85541W        W52324  36.053  35.100  10.762
85542W        W52325  44.198   2.444   2.801
85543W        W52326  23.882  38.642  10.282
85544W        W52327  41.810  26.569  14.426
85545W        W52328  19.090  31.094   1.389
85546W        W52329  41.951  20.113  14.452
85547W        W52330   8.362  39.093  14.365
85548W        W52331  19.317  13.834   3.701
85549W        W52332  32.586  21.659  12.499
85550W        W52333  22.767  34.310  13.958
85551W        W52334  35.748  20.097   3.892
85552W        W52335   1.066   2.914   2.961
85553W        W52336  31.590  28.857   0.339
85554W        W52337  38.933  35.149  12.693
85555W        W52338  15.102   2.821  14.587
85556W        W52339  31.875  35.747   4.765
85557W        W52340  30.379  30.886   3.908
85558W        W52341   3.941  27.434  13.104
85559W        W52342  21.633  30.498   2.923
85560W        W52343  30.968  11.787   4.659
85561W        W52344  38.476  20.109  12.441
85562W        W52345  30.577   7.251  14.519
85563W        W52346  20.665  19.127  14.373
85564W        W52347  29.879  16.942   0.432
85565W        W52348  13.318  15.268  14.774
85566W        W52349  32.836  17.329   0.523
85567W        W52350  40.672  35.542   2.902
85568W        W52351  19.270  15.804   3.226
85569W        W52352  34.744   8.988   3.298
85570W        W52353  14.901  35.391   1.753
85571W        W52354   8.342  38.566   1.378
85572W        W52355   2.776  20.777   2.881
85573W        W52356  24.672  17.410  14.536
85574W        W52357  30.765  21.721  10.722
85575W        W52358  15.062  34.977  11.222
85576W        W52359  29.033  12.317  10.891
85577W        W52360  28.088  28.140   1.378
85578W        W52361  10.958  10.094   0.477
85579W        W52362  44.823   9.284   4.504
85580W        W52363  40.030  20.421  11.719
85581W        W52364  26.374  42.989  10.124
85582W        W52365  39.991  34.463  12.390
85583W        W52366   9.738   2.212  10.701
85584W        W52367  39.052  29.258   3.336
85585W        W52368  37.866  39.797  14.262
85586W        W52369  12.250  10.091   3.396
85587W        W52370  25.242  27.411   3.100
85588W        W52371   4.815  34.529  14.057
85589W        W52372  11.722  22.196  10.443
85590W        W52373  44.296  19.727  12.052
85591W        W52374  31.423  43.427  12.053
85592W        W52375  39.473  44.404   2.757
85593W        W52376   6.670   3.663  10.368
85594W        W52377  20.938   6.677   0.225
85595W        W52378  25.405   5.394  13.082
85596W        W52379  30.676  24.901   3.236
85597W        W52380  38.266  10.337   2.892
85598W        W52381  12.831  39.023  13.479
85599W        W52382  23.099   8.620  13.625
85600W        W52383  18.064  18.298  12.731
85601W        W52384  36.148   1.483   0.353
85602W        W52385  18.327  42.399  13.997
85603W        W52386  19.408  29.097   4.628
85604W        W52387   7.684  43.696   4.145
85605W        W52388   1.496  43.967  10.402
85606W        W52389  12.345  37.952   3.616
85607W        W52390  14.197  28.606   4.495
85608W        W52391  34.427  13.922  12.927
85609W        W52392  42.693  14.057  13.949
85610W        W52393   2.318   5.914   3.312
85611W        W52394  10.368  24.457   4.946
85612W        W52395  38.578  31.265  13.259
85613W        W52396  13.820  10.234   3.054
85614W        W52397  13.752   0.318   2.366
85615W        W52398  10.809   7.939  12.799
85616W        W52399   1.572  26.281   0.555
85617W        W52400  41.458  34.752   4.243
85618W        W52401  33.477  31.336   4.907
85619W        W52402  19.507  25.877  14.646
85620W        W52403   2.533   9.408  13.726
85621W        W52404  12.277  13.666  14.767
85622W        W52405  18.716  19.324   4.214
85623W        W52406  32.068  30.510   5.025
85624W        W52407  28.055  23.065  12.159
85625W        W52408   6.688  28.120  11.939
85626W        W52409   4.507  25.162  14.084
85627W        W52410   1.507  23.526   3.284
85628W        W52411  33.954   2.353  10.978
85629W        W52412   2.163   8.704   4.563
85630W        W52413  27.929  29.860   1.814
85631W        W52414  31.889   0.315  14.774
85632W        W52415  36.298  16.813  12.001
85633W        W52416  43.798   4.669  12.835
85634W        W52417   5.232   6.906   0.822
85635W        W52418  15.065  26.917   4.577
85636W        W52419   4.219  13.424   2.834
85637W        W52420   1.151   2.984  11.430
85638W        W52421  16.393  43.487   2.881
85639W        W52422   4.146  43.563   2.634
85640W        W52423  16.037  34.971   1.989
85641W        W52424  10.239  44.811   0.019
85642W        W52425  13.041  12.914  12.665
85643W        W52426  27.988  40.332  12.949
85644W        W52427   4.879   4.435   3.160
85645W        W52428  15.305   0.931   2.751
85646W        W52429  30.456  22.079  10.475
85647W        W52430  17.406  16.267   4.576
85648W        W52431   7.434   2.868  12.122
85649W        W52432  16.524  35.025   4.538
85650W        W52433  15.163  28.094  10.945
85651W        W52434   4.673  36.741   5.036
85652W        W52435  42.049  19.360  13.004
85653W        W52436  31.637   4.434  10.521
85654W        W52437  16.620  26.417   4.976
85655W        W52438  23.804   8.956   1.771
85656W        W52439  13.900  39.372  13.908
85657W        W52440  14.857   9.801   2.177
85658W        W52441  35.415  35.092   0.221
85659W        W52442  12.119  30.924  11.015
85660W        W52443  43.048  23.225   2.227
85661W        W52444   3.079   7.162  11.888
85662W        W52445  14.877  40.451   1.041
85663W        W52446  32.662  20.483   1.884
85664W        W52447  40.904  10.206   2.610
85665W        W52448  19.246   6.421   1.571
85666W        W52449   9.408  36.895   2.703
85667W        W52450  20.326  16.344  13.499
85668W        W52451  22.974  23.916   4.094
85669W        W52452  22.528  19.754   1.361
85670W        W52453  33.099  24.162   0.194
85671W        W52454   9.298  18.358  13.909
85672W        W52455  30.452  26.694  13.560
85673W        W52456  41.994  25.642  13.519
85674W        W52457  31.481   7.439  14.721
85675W        W52458  11.441  24.965   0.747
85676W        W52459   6.158   9.522  14.041
85677W        W52460  30.317  24.984  14.535
85678W        W52461   1.153   0.155  11.135
85679W        W52462  41.938  25.674   3.680
85680W        W52463  42.211  20.622  10.790
85681W        W52464   0.524  38.081   1.726
85682W        W52465   5.285  20.384  11.971
85683W        W52466   2.731  19.249   1.398
85684W        W52467  12.652  33.013   4.317
85685W        W52468  21.973  21.469   3.769
85686W        W52469  22.872   1.583  13.033
85687W        W52470  19.651  38.060  14.912
85688W        W52471   7.631  35.834  14.330
85689W        W52472  20.753  34.539   4.180
85690W        W52473  28.995   5.438  13.804
85691W        W52474  17.861   1.226  12.180
85692W        W52475  13.312  24.116   0.097
85693W        W52476  28.363  26.760   4.875
85694W        W52477  15.739  17.306   1.506
85695W        W52478  23.733   3.774   1.376
85696W        W52479   0.671  29.652   4.647
85697W        W52480  33.981  24.675  14.715
85698W        W52481  13.059  18.146   1.214
85699W        W52482  11.636  32.298   4.289
85700W        W52483   0.451  18.129   1.871
85701W        W52484   3.312  22.277  13.445
85702W        W52485  24.133  28.926  14.474
85703W        W52486  38.606  21.116  11.124
85704W        W52487  15.733   8.136  11.580
85705W        W52488  35.679  12.674   0.877
85706W        W52489   8.261   4.187  13.754
85707W        W52490  42.955  28.349  14.073
85708W        W52491  33.644  12.123   4.095
85709W        W52492   0.676  18.176   4.711
85710W        W52493  22.110   8.299  11.368
85711W        W52494  32.936  39.110  12.534
85712W        W52495   4.838  31.663  13.581
85713W        W52496  11.936  16.323  10.932
85714W        W52497  44.137  23.164  14.737
85715W        W52498  13.527  12.851  14.955
85716W        W52499  27.652  19.302  11.627
85717W        W52500   9.451   3.846  14.873
85718W        W52501  11.721  31.881   4.583
85719W        W52502  32.303  26.416   0.897
85720W        W52503  29.227   7.931  11.516
85721W        W52504  18.390  35.468  14.449
85722W        W52505  44.725   2.927  13.914
85723W        W52506  23.550  42.972  11.016
85724W        W52507  32.615   9.660  14.638
85725W        W52508  29.885  20.810   2.301
85726W        W52509  41.845  37.959   4.788
85727W        W52510  39.736  23.258  14.491
85728W        W52511  43.708  28.121  11.075
85729W        W52512  35.476  34.974   0.746
85730W        W52513  29.916   5.108   1.341
85731W        W52514   3.292  18.641  11.024
85732W        W52515  34.407  40.039  10.825
85733W        W52516   6.763   6.778  14.333
85734W        W52517  13.351  26.551  14.909
85735W        W52518  16.792  39.986  12.949
85736W        W52519  42.625  25.996  12.023
85737W        W52520  43.309  41.603   1.309
85738W        W52521  32.029  31.397   3.628
85739W        W52522  20.563  16.827   1.823
85740W        W52523   7.905  28.413   3.209
85741W        W52524   7.132  40.158   4.144
85742W        W52525  43.882  17.855  12.509
85743W        W52526  42.901   1.010   3.729
85744W        W52527  40.523   4.907  11.055
85745W        W52528   0.281  40.985  11.108
85746W        W52529   3.413  19.290   0.820
85747W        W52530  10.609  11.136  10.096
85748W        W52531   6.300  18.475  14.835
85749W        W52532  14.879  19.118   0.927
85750W        W52533  42.478  25.091   0.772
85751W        W52534  15.157   2.592   0.126
85752W        W52535  24.595  38.676   4.170
85753W        W52536  10.140  40.358   3.767
85754W        W52537  19.290   8.955  13.967
85755W        W52538   6.229  40.417  14.755
85756W        W52539  28.140   8.765   3.321
85757W        W52540  13.943  18.477   3.810
85758W        W52541  13.626  30.470   3.126
85759W        W52542  27.781  40.008  10.594
85760W        W52543  10.667  36.493  14.920
85761W        W52544  19.432  34.534  12.782
85762W        W52545   9.477   7.613  12.275
85763W        W52546   1.241  12.032  13.330
85764W        W52547   8.182  15.344   2.049
85765W        W52548  18.541  27.693  13.614
85766W        W52549  30.444  39.043   2.702
85767W        W52550  25.110  13.878  13.790
85768W        W52551  16.619  44.716   2.158
85769W        W52552  25.688  27.349   1.782
85770W        W52553  29.899  19.677  14.457
85771W        W52554  37.061  30.463  14.346
85772W        W52555   3.191  43.442  13.866
85773W        W52556  42.600   6.837   4.136
85774W        W52557  19.490  10.489  14.112
85775W        W52558  43.197   3.510   1.483
85776W        W52559  20.289  40.032  12.443
85777W        W52560  30.940  29.217  13.816
85778W        W52561  23.207  38.910  10.662
85779W        W52562  35.929  44.681   1.761
85780W        W52563   3.181  26.749  13.449
85781W        W52564  11.067   9.190  11.584
85782W        W52565   3.115  41.106   1.817
85783W        W52566  10.864  29.233   1.860
85784W        W52567  33.402  27.645  14.060
85785W        W52568  27.102  42.459  11.183
85786W        W52569  44.995  15.846  10.683
85787W        W52570  31.109  34.337  13.466
85788W        W52571  18.264  42.262  13.017
85789W        W52572  29.233  16.196  14.004
85790W        W52573  40.374  18.749  13.774
85791W        W52574  13.864  11.203  14.029
85792W        W52575  18.294  23.328   2.216
85793W        W52576   9.914   6.721   4.592
85794W        W52577   2.315  30.937   4.443
85795W        W52578  34.905  41.167   3.254
85796W        W52579  38.182  33.702   0.296
85797W        W52580  31.233   2.787  12.009
85798W        W52581  27.447  40.132   0.893
85799W        W52582  42.991  13.930   2.220
85800W        W52583  44.347   0.316   0.968
85801W        W52584  37.463  12.103   0.627
85802W        W52585  28.759  39.845  13.059
85803W        W52586  13.209  11.720  12.476
85804W        W52587  34.138  23.601   2.806
85805W        W52588  17.560  31.195  10.752
85806W        W52589  16.084  32.469   2.164
85807W        W52590  28.731  40.973   2.961
85808W        W52591  11.196  19.196  10.458
85809W        W52592  12.634  32.430  11.850
85810W        W52593   5.667  27.432   2.337
85811W        W52594  44.409  24.480   3.433
85812W        W52595  38.811  20.075  13.971
85813W        W52596   6.829  21.812  14.313
85814W        W52597  30.743  20.286  12.866
85815W        W52598  42.397  17.986   0.851
85816W        W52599  21.599  15.269  11.613
85817W        W52600  19.805  35.453   4.373
85818W        W52601  32.129   6.314   1.934
85819W        W52602  37.641  29.393   5.369
85820W        W52603  22.985  35.916   3.390
85821W        W52604  12.090   4.589   3.190
85822W        W52605  10.332  15.265  11.774
85823W        W52606   3.633   4.308  10.749
85824W        W52607   3.964  13.673  14.850
85825W        W52608  14.290  17.755  12.122
85826W        W52609   8.893  17.229  12.633
85827W        W52610  37.424   0.310  14.966
85828W        W52611   5.044  42.977  12.634
85829W        W52612  11.313  21.819  11.040
85830W        W52613   5.455   2.312   3.148
85831W        W52614  19.462  14.084  11.009
85832W        W52615   1.762   6.504   0.184
85833W        W52616  14.301   6.479   5.111
85834W        W52617  21.741  12.636   2.210
85835W        W52618  30.848  25.095  14.557
85836W        W52619   3.686   8.611   4.556
85837W        W52620  15.322  22.538   2.240
85838W        W52621  22.656  33.921   0.267
85839W        W52622  39.862   8.372   0.992
85840W        W52623  16.180   5.115   3.440
85841W        W52624  16.354  42.848   0.493
85842W        W52625  40.252  10.069   3.967
85843W        W52626  24.471   7.634   0.858
85844W        W52627  13.788  10.342  10.360
85845W        W52628  35.834   5.255  11.163
85846W        W52629  41.580  13.702  12.598
85847W        W52630  38.567  10.686   4.774
85848W        W52631  41.112  32.440  11.111
85849W        W52632  15.635  31.416   3.970
85850W        W52633   6.920  27.628   3.792
85851W        W52634  22.683  14.004  10.676
85852W        W52635  30.597  28.397  11.688
85853W        W52636  13.826  39.597  10.199
85854W        W52637  14.167   2.703   3.173
85855W        W52638  33.660  12.630   4.151
85856W        W52639  26.669  41.043  10.747
85857W        W52640  42.003  42.770   4.170
85858W        W52641  37.725  10.374   1.208
85859W        W52642  40.551  24.548  12.094
85860W        W52643   2.390  34.332  13.188
85861W        W52644  30.122  34.582   3.602
85862W        W52645  16.794   6.224   4.139
85863W        W52646   3.734  11.676   3.575
85864W        W52647  43.753  12.176  14.166
85865W        W52648  12.856  39.866  13.381
85866W        W52649  43.291  26.135   2.656
85867W        W52650  13.779   0.874  12.681
85868W        W52651  11.236  23.508   2.889
85869W        W52652  38.390  26.089  11.530
85870W        W52653  14.842  30.088   2.393
85871W        W52654  37.254  38.817  13.802
85872W        W52655  11.532  38.885   4.541
85873W        W52656  11.321  15.616  12.375
85874W        W52657   0.846  17.098   0.448
85875W        W52658  21.293  14.269   5.395
85876W        W52659  10.947  43.043  12.484
85877W        W52660  21.783  14.221  11.568
85878W        W52661  10.155  35.638   2.404
85879W        W52662   0.776   6.862   3.325
85880W        W52663  18.358   2.291   3.732
85881W        W52664  32.608  34.159   4.229
85882W        W52665  21.716  21.903  11.314
85883W        W52666  29.671   3.284   0.517
85884W        W52667   0.426  43.666  11.908
85885W        W52668  16.576  37.408  13.543
85886W        W52669  13.603  18.898  13.769
85887W        W52670  29.636   3.204  11.682
85888W        W52671  28.006  19.857  10.700
85889W        W52672  43.759   7.465   1.435
85890W        W52673  32.341  12.817  12.313
85891W        W52674  11.868  15.869   3.770
85892W        W52675  22.975  13.814   0.739
85893W        W52676  41.638  21.767  13.820
85894W        W52677  43.759  31.920   4.367
85895W        W52678  35.050  12.781  11.542
85896W        W52679  23.055   0.243   1.531
85897W        W52680  12.836   5.636   2.400
85898W        W52681  25.684  26.300   1.823
85899W        W52682  12.209  29.673  13.236
85900W        W52683  35.525   8.015   3.254
85901W        W52684   2.420  21.473   3.115
85902W        W52685  39.778   7.856  13.795
85903W        W52686   5.704  30.713  13.302
85904W        W52687  30.438  44.325  12.893
85905W        W52688  37.151  36.678  11.155
85906W        W52689  38.328   5.943   4.835
85907W        W52690  33.569  22.661   3.702
85908W        W52691   1.073  17.825  11.451
85909W        W52692  22.303  33.484   9.930
85910W        W52693  35.825  31.945  12.679
85911W        W52694  14.141  43.762  11.181
85912W        W52695  18.897  37.616   3.312
85913W        W52696  22.499  16.597  12.097
85914W        W52697  39.484  11.792  11.695
85915W        W52698  22.677  33.910  14.755
85916W        W52699  17.982  38.903  11.645
85917W        W52700  34.497  35.591  11.351
85918W        W52701  29.437   9.418   1.791
85919W        W52702   2.555  32.138   4.098
85920W        W52703   5.415   3.556  14.362
85921W        W52704  36.337  38.312   0.409
85922W        W52705  44.692   7.154   5.430
85923W        W52706   6.263  15.553   0.786
85924W        W52707  17.117  26.910   4.730
85925W        W52708  41.523  37.919   2.184
85926W        W52709  28.460  19.656   0.473
85927W        W52710  38.617  19.847   3.622
85928W        W52711  32.324  38.167   1.674
85929W        W52712  38.850  39.991   0.294
85930W        W52713  41.106  18.633   0.141
85931W        W52714  20.193  11.418  12.887
85932W        W52715  21.472  40.896   1.757
85933W        W52716  21.648  41.528   3.928
85934W        W52717  18.611  40.262   1.935
85935W        W52718  27.652  24.357   3.678
85936W        W52719  43.836  13.749  14.592
85937W        W52720  41.199  42.998   4.515
85938W        W52721  17.321  11.053   1.925
85939W        W52722  43.752  22.204   4.050
85940W        W52723  11.453   4.331   2.953
85941W        W52724   1.405  30.099   1.835
85942W        W52725   7.433  33.593  11.186
85943W        W52726  44.988  13.479  12.307
85944W        W52727  38.849  19.260  10.042
85945W        W52728  35.205  14.455  10.299
85946W        W52729  28.780  19.266  11.470
85947W        W52730   9.665  16.637  12.600
85948W        W52731  25.948  25.402  12.129
85949W        W52732  35.620   3.443  11.434
85950W        W52733  14.124  37.921  11.533
85951W        W52734  28.487   3.660  13.516
85952W        W52735  43.994  40.116  14.829
85953W        W52736  14.689  26.088   1.844
85954W        W52737  21.068  32.570   1.723
85955W        W52738  30.986  30.844   1.393
85956W        W52739  42.519   5.566   1.252
85957W        W52740  32.697   6.950  12.081
85958W        W52741  11.141  30.205  12.365
85959W        W52742   4.447  25.154  14.970
85960W        W52743  33.933  10.881   2.309
85961W        W52744  38.771  39.543  11.619
85962W        W52745  15.524  41.606   1.366
85963W        W52746  31.680  25.694  11.918
85964W        W52747  34.242  41.305  11.125
85965W        W52748  27.422  39.100   3.585
85966W        W52749  32.508  13.482  13.057
85967W        W52750  21.669   1.670  10.533
85968W        W52751   3.463   9.641   2.634
85969W        W52752  35.075  43.417   4.632
85970W        W52753  36.156  25.607   0.797
85971W        W52754  23.534  44.390  10.877
85972W        W52755  10.048  19.771   3.547
85973W        W52756  44.754  14.699   2.215
85974W        W52757  26.162  17.428  13.797
85975W        W52758   2.493  25.213  12.613
85976W        W52759  20.763  26.233   2.930
85977W        W52760  12.699  19.141   4.657
85978W        W52761   8.700  39.998  13.422
85979W        W52762  27.568  27.908   0.386
85980W        W52763  18.122  44.552  12.379
85981W        W52764   2.718  35.562   4.334
85982W        W52765   8.442   4.913  12.137
85983W        W52766   9.133   1.403  11.155
85984W        W52767  10.614  33.628   2.891
85985W        W52768  43.560  25.041   1.837
85986W        W52769  25.986   2.420   2.513
85987W        W52770  11.071  30.951  14.374
85988W        W52771  36.583  44.738  14.902
85989W        W52772  26.262  36.868   4.284
85990W        W52773  38.824  37.980  11.852
85991W        W52774  22.297   9.961  11.561
85992W        W52775  42.544  41.459  12.137
85993W        W52776  38.470   0.610  11.440
85994W        W52777  35.577  35.192  11.007
85995W        W52778  22.740   8.243  10.708
85996W        W52779  40.846  25.500   1.364
85997W        W52780  24.731  37.877   4.811
85998W        W52781  15.673   1.468   1.370
85999W        W52782   8.454   9.453  10.696
86000W        W52783   8.638  28.108   0.802
86001W        W52784  24.529  16.907  11.954
86002W        W52785  23.281  16.742   4.073
86003W        W52786  43.876   1.560  12.130
86004W        W52787  32.842   3.683  14.750
86005W        W52788  25.210   0.326  11.893
86006W        W52789   4.163  18.237  11.757
86007W        W52790   1.016  34.107   3.763
86008W        W52791   5.114   4.332   4.301
86009W        W52792  23.430  36.867   4.008
86010W        W52793   3.956   3.337  14.746
86011W        W52794  22.618  41.365  10.563
86012W        W52795  38.526  38.000   2.095
86013W        W52796  29.245  13.903   0.225
86014W        W52797   9.343  37.391  14.414
86015W        W52798  39.427  36.373  12.541
86016W        W52799  20.399   3.393  13.867
86017W        W52800  37.662  10.076   0.777
86018W        W52801  28.548  24.449  13.392
86019W        W52802  12.678   2.390   1.677
86020W        W52803  26.237  19.698  13.247
86021W        W52804  39.078  20.597  10.732
86022W        W52805  16.441  26.574  11.514
86023W        W52806  38.099  42.296  11.599
86024W        W52807  41.455  38.832  10.644
86025W        W52808   6.947  34.336  12.048
86026W        W52809  17.309  17.522   4.201
86027W        W52810  27.459  29.377   0.444
86028W        W52811  25.123   6.249  12.626
86029W        W52812  37.782  29.608   0.763
86030W        W52813  16.769  38.865  14.998
86031W        W52814  39.264  20.719  13.359
86032W        W52815  35.569   2.774  13.932
86033W        W52816  25.111   7.914  10.787
86034W        W52817  36.591   8.590   1.773
86035W        W52818   2.330  31.018  10.675
86036W        W52819   2.326  44.052  10.466
86037W        W52820  28.685  20.059   0.865
86038W        W52821  18.331  38.097  11.714
86039W        W52822  19.765  27.623   1.288
86040W        W52823  33.526   0.791   0.381
86041W        W52824  23.085  12.739   0.933
86042W        W52825  39.101  15.854  11.954
86043W        W52826  38.377  32.470  13.619
86044W        W52827  12.340  24.823  14.044
86045W        W52828   0.781  23.520   3.698
86046W        W52829   6.258  37.104   2.774
86047W        W52830  43.851  16.587  12.643
86048W        W52831  40.164  21.347  14.619
86049W        W52832  29.900  14.410   1.490
86050W        W52833  26.006  43.241   2.759
86051W        W52834   6.154   3.182   1.295
86052W        W52835  28.039   8.837  13.805
86053W        W52836   5.668  26.160  14.809
86054W        W52837  36.374   2.779   0.204
86055W        W52838  15.714   9.458  11.974
86056W        W52839  17.351   6.794   1.251
86057W        W52840   7.046   6.359  12.519
86058W        W52841  12.073   1.037   0.585
86059W        W52842   8.827  30.400   4.710
86060W        W52843  17.586  41.071   0.320
86061W        W52844  17.216  40.477  14.956
86062W        W52845  27.040  28.257  12.391
86063W        W52846  14.704  44.955  12.943
86064W        W52847  15.621  33.436  13.033
86065W        W52848   1.382  19.988   0.284
86066W        W52849   5.037   4.664  11.700
86067W        W52850  31.729   9.375  14.447
86068W        W52851  18.713  21.392   2.404
86069W        W52852  19.903  42.795   2.257
86070W        W52853  17.807  22.991  12.901
86071W        W52854  20.506   0.288   2.713
86072W        W52855  39.375  31.347  14.520
86073W        W52856   1.472   7.195  13.058
86074W        W52857  32.118   8.787  12.125
86075W        W52858  40.910  23.456  13.455
86076W        W52859  30.596  10.554   2.398
86077W        W52860  17.234  25.995   2.332
86078W        W52861   6.083  11.735   3.582
86079W        W52862  23.049   0.073  10.593
86080W        W52863  33.887  38.020  10.825
86081W        W52864  15.180  42.598   4.918
86082W        W52865  25.001   8.274  13.396
86083W        W52866  41.642  18.577  12.840
86084W        W52867  25.036  30.520  14.456
86085W        W52868  38.311  43.107  13.906
86086W        W52869   1.844  22.240  13.468
86087W        W52870  18.183  33.663   1.895
86088W        W52871  15.025  21.037  12.888
86089W        W52872  37.485  28.081   2.604
86090W        W52873   7.348  35.186   2.067
86091W        W52874   7.296  21.771  13.516
86092W        W52875  28.655   8.388  10.728
86093W        W52876  29.559  37.507  11.419
86094W        W52877  12.679  22.041   0.452
86095W        W52878  32.245  18.061  14.407
86096W        W52879  11.182  15.913  14.539
86097W        W52880  28.763  32.948  13.564
86098W        W52881  32.087  30.490  11.525
86099W        W52882   2.065  13.361   0.906
86100W        W52883  28.683  38.437   3.123
86101W        W52884  16.767  41.993  12.880
86102W        W52885  37.520  27.887   2.129
86103W        W52886   0.872  35.128   2.758
86104W        W52887  35.150  14.041  12.353
86105W        W52888   4.208   2.822  10.871
86106W        W52889  14.816  26.594  13.120
86107W        W52890  44.748   8.970   1.650
86108W        W52891  39.752  15.441   1.325
86109W        W52892   9.175   3.899   0.337
86110W        W52893  23.345   3.651  10.726
86111W        W52894  14.032  34.970   5.352
86112W        W52895  10.607  37.244  10.654
86113W        W52896   3.307  16.232  11.103
86114W        W52897  20.521  13.134   2.410
86115W        W52898   2.254  22.370   3.845
86116W        W52899   3.956  32.566   4.381
86117W        W52900  23.622  29.080  14.939
86118W        W52901  42.491  32.224  12.075
86119W        W52902  14.414  37.164   1.560
86120W        W52903   7.770  16.838   0.408
86121W        W52904  41.873  37.176   1.937
86122W        W52905  18.097  18.127  14.281
86123W        W52906  32.612  16.984   0.181
86124W        W52907  42.509  25.284  12.864
86125W        W52908  21.539   1.770   3.329
86126W        W52909  40.338  24.145   2.343
86127W        W52910  42.331  40.551   1.371
86128W        W52911   1.631  41.880   1.273
86129W        W52912  33.042   7.441  11.806
86130W        W52913  34.104  29.386   0.777
86131W        W52914  30.708   1.248   1.423
86132W        W52915   9.087  28.233   4.745
86133W        W52916  26.136   8.376   2.687
86134W        W52917  25.201  31.641   0.468
86135W        W52918  32.020  10.872   3.708
86136W        W52919  35.178  42.556  11.171
86137W        W52920  19.803  15.807  12.882
86138W        W52921  10.166  10.374   0.938
86139W        W52922  21.012  21.526  12.995
86140W        W52923  27.612   8.911  11.376
86141W        W52924  22.584  44.472   9.957
86142W        W52925  36.607  43.952   1.867
86143W        W52926  11.696  11.398  13.518
86144W        W52927  38.399   8.927   4.667
86145W        W52928   7.500   2.147  10.900
86146W        W52929  34.397   1.922   2.427
86147W        W52930   8.106  33.833   4.107
86148W        W52931  37.866  38.061   0.005
86149W        W52932  30.458  12.665  12.893
86150W        W52933  10.561   3.940   1.902
86151W        W52934  22.189  17.220  14.514
86152W        W52935   1.045  28.450   1.303
86153W        W52936  23.059  16.224   4.806
86154W        W52937   3.226  38.247   2.852
86155W        W52938  31.133   8.623   3.260
86156W        W52939  10.450  28.908   3.262
86157W        W52940  33.530  25.462  14.798
86158W        W52941  27.949  19.440   1.269
86159W        W52942  36.461  38.397  13.941
86160W        W52943  26.837  11.274   0.721
86161W        W52944  28.910  24.676  13.054
86162W        W52945  41.537  26.444   2.724
86163W        W52946  37.937  14.713   2.317
86164W        W52947  24.077   3.883   1.875
86165W        W52948  30.141  22.963   3.584
86166W        W52949  24.452   7.251   4.124
86167W        W52950  24.039  22.460  10.598
86168W        W52951  39.371  35.997   2.400
86169W        W52952   5.352   7.702  12.488
86170W        W52953   0.703  34.252  12.049
86171W        W52954  37.751  27.488   0.888
86172W        W52955  29.077   9.238  13.800
86173W        W52956   5.039  35.836   4.901
86174W        W52957  25.587  32.709  14.409
86175W        W52958  13.331  34.641   2.239
86176W        W52959  21.099  26.944  12.090
86177W        W52960  37.102  26.688   4.195
86178W        W52961  13.555  34.556   3.717
86179W        W52962  40.895  31.688  14.836
86180W        W52963   5.355  10.190  10.524
86181W        W52964  10.703  34.457   4.051
86182W        W52965  34.534  32.172  10.255
86183W        W52966  38.688   5.514   3.733
86184W        W52967  43.996   4.290  12.446
86185W        W52968   7.909  44.445  11.958
86186W        W52969  23.584  20.638  10.699
86187W        W52970  14.560  16.673   3.769
86188W        W52971  25.920   9.376   3.771
86189W        W52972  42.452  32.464   3.747
86190W        W52973  31.957  43.342   1.268
86191W        W52974  14.168   7.570  11.870
86192W        W52975   2.965  28.133   2.441
86193W        W52976  33.495  29.000  10.830
86194W        W52977  14.912  13.509   0.921
86195W        W52978  41.711   4.688  13.569
86196W        W52979  12.360  23.688  14.248
86197W        W52980  22.095   7.842  11.072
86198W        W52981  42.460  39.143  12.065
86199W        W52982  27.653  21.122   0.688
86200W        W52983  18.724  41.234  11.184
86201W        W52984  34.416   2.061   2.918
86202W        W52985  11.153  16.776  12.005
86203W        W52986  30.353  39.548   3.705
86204W        W52987   6.927   3.238   1.784
86205W        W52988  39.338  37.781   3.490
86206W        W52989  28.941  42.329   4.555
86207W        W52990  30.906  26.710   4.143
86208W        W52991   5.482  43.534  10.393
86209W        W52992   3.737   5.692   1.327
86210W        W52993  27.317  25.057  10.520
86211W        W52994  22.582   6.898   4.191
86212W        W52995  34.897  13.721  13.076
86213W        W52996  10.947  43.444  11.503
86214W        W52997  17.076  30.642  13.551
86215W        W52998  13.129  44.430   1.853
86216W        W52999  22.560  33.020   2.573
86217W        W53000  36.660  22.167  10.591
86218W        W53001  38.522   6.117   1.290
86219W        W53002   6.132   2.770  11.200
86220W        W53003  36.492   4.488   1.905
86221W        W53004  33.928  20.991   1.286
86222W        W53005  36.322  44.890   2.448
86223W        W53006  21.414  30.162  14.428
86224W        W53007  36.383   8.635  12.895
86225W        W53008   9.250  34.689   1.669
86226W        W53009  29.895   2.294  12.391
86227W        W53010   2.493   5.764  10.610
86228W        W53011  31.527  39.160  11.095
86229W        W53012  35.052  12.739  12.060
86230W        W53013  12.147  30.607   0.203
86231W        W53014  20.134  23.638   3.211
86232W        W53015   3.972  36.516   2.918
86233W        W53016  28.019  10.176   1.316
86234W        W53017  29.583  17.098   4.389
86235W        W53018  31.671  31.570   0.741
86236W        W53019  27.199  26.051   4.858
86237W        W53020  30.601  28.773  11.335
86238W        W53021  25.900  31.887   5.131
86239W        W53022  37.108  14.574  13.375
86240W        W53023   9.588   6.862  13.403
86241W        W53024   1.511  43.697  14.452
86242W        W53025  34.158  20.287  13.811
86243W        W53026  27.083  12.144   4.639
86244W        W53027   4.195  13.356  12.038
86245W        W53028   4.114  21.222  13.439
86246W        W53029  40.518   6.438   3.319
86247W        W53030  37.315  42.739   2.282
86248W        W53031   9.140  39.954  11.047
86249W        W53032  31.409   1.925   3.866
86250W        W53033  18.518  34.144   1.812
86251W        W53034  32.194   4.282  13.480
86252W        W53035  38.239  40.306   0.530
86253W        W53036  11.055  31.565  11.989
86254W        W53037  13.844  32.638  12.487
86255W        W53038   9.138  33.022   4.074
86256W        W53039  32.389  44.863   4.668
86257W        W53040  37.520   5.122  10.085
86258W        W53041  38.201  21.418   0.674
86259W        W53042  39.287  30.643   3.398
86260W        W53043  28.835  22.079  13.807
86261W        W53044   4.428  28.490  10.981
86262W        W53045  28.546   1.099   4.566
86263W        W53046  28.707  28.423  14.873
86264W        W53047  21.259  23.982   3.708
86265W        W53048   8.466  19.626  12.511
86266W        W53049  38.947  27.188  13.098
86267W        W53050  37.121   5.406   2.395
86268W        W53051   3.883  36.109  11.355
86269W        W53052  27.204  23.144  10.306
86270W        W53053  36.994  39.367  14.264
86271W        W53054  44.298   4.385   4.627
86272W        W53055  40.399  24.948  13.283
86273W        W53056  23.420  23.852   4.986
86274W        W53057  28.620   6.994   2.414
86275W        W53058   9.773  42.185  11.601
86276W        W53059  22.627  32.508  13.423
86277W        W53060  22.079  13.876   0.947
86278W        W53061   0.846  16.081  10.327
86279W        W53062  24.558  36.844  12.421
86280W        W53063  35.919  38.644   3.225
86281W        W53064  19.613  12.251   3.533
86282W        W53065   6.695  29.949   1.971
86283W        W53066   9.743  33.322  10.699
86284W        W53067   4.910  40.482  13.398
86285W        W53068  15.509  37.990   3.330
86286W        W53069  23.059  38.123   0.042
86287W        W53070  44.572   1.951  12.874
86288W        W53071   5.851  42.960  14.869
86289W        W53072  22.677   2.704   2.203
86290W        W53073   9.620   2.293   1.039
86291W        W53074  43.169  23.500   3.894
86292W        W53075   1.955  14.131   0.440
86293W        W53076   1.219  29.637  13.590
86294W        W53077  26.214  26.843   1.848
86295W        W53078  26.400   0.378  11.163
86296W        W53079  30.329  27.098   0.712
86297W        W53080  11.649  41.555   2.907
86298W        W53081  24.095  11.141   3.886
86299W        W53082   3.100  41.865   4.991
86300W        W53083  43.927  35.240   2.356
86301W        W53084  27.966   6.489   4.627
86302W        W53085  28.123  40.929   1.643
86303W        W53086  14.500   2.998  13.883
86304W        W53087  32.010  28.547   0.224
86305W        W53088  16.236   4.776   2.098
86306W        W53089  22.870  44.424   0.637
86307W        W53090   1.725  12.358   0.976
86308W        W53091  35.118  34.839   3.595
86309W        W53092  35.928  43.668  12.347
86310W        W53093  39.071  44.283  13.571
86311W        W53094  15.085  26.987  12.812
86312W        W53095  17.317  42.747  14.356
86313W        W53096   0.864  34.617   2.707
86314W        W53097  12.136  15.091   4.552
86315W        W53098   2.422  15.088  14.976
86316W        W53099  10.289  34.653  12.051
86317W        W53100   6.034  30.391  14.932
86318W        W53101   5.049  33.298  11.010
86319W        W53102  37.278  17.778  11.919
86320W        W53103   7.887  40.860   1.278
86321W        W53104   6.887   1.414  10.628
86322W        W53105   0.432  24.296   4.689
86323W        W53106  39.508  27.012   1.455
86324W        W53107  15.725   7.654   2.267
86325W        W53108   9.417  17.579   3.336
86326W        W53109  29.713  23.596   4.106
86327W        W53110  31.469  19.670   9.995
86328W        W53111  19.589  44.895  12.677
86329W        W53112  18.363  14.158   9.880
86330W        W53113   5.223  38.835   3.336
86331W        W53114  20.104   2.388  11.063
86332W        W53115  28.365   5.872  12.476
86333W        W53116  21.976  37.451   0.290
86334W        W53117   7.658  15.310   0.862
86335W        W53118  22.902   7.291  11.026
86336W        W53119  30.673  25.626   4.133
86337W        W53120  19.207  18.193   3.796
86338W        W53121  30.746  33.613   0.352
86339W        W53122  37.685  38.587   2.326
86340W        W53123  15.559   0.327   3.588
86341W        W53124  15.018  39.214   9.869
86342W        W53125   1.616  40.171   1.924
86343W        W53126  38.641  31.607  11.110
86344W        W53127  42.361  38.070   3.805
86345W        W53128  26.130  25.512   3.241
86346W        W53129  40.765  11.087   4.076
86347W        W53130  37.265  35.101  14.353
86348W        W53131  17.739  10.858  12.312
86349W        W53132  11.763   3.268   0.282
86350W        W53133  12.156  21.988   0.482
86351W        W53134  27.777   2.924   3.308
86352W        W53135  17.800   6.372   2.719
86353W        W53136  22.994  43.468   1.345
86354W        W53137   8.872  36.065  13.837
86355W        W53138  12.112  17.151   2.187
86356W        W53139  33.836  10.884  13.399
86357W        W53140  20.161  36.809   2.533
86358W        W53141  33.384  22.427  11.997
86359W        W53142  43.779  10.659   4.187
86360W        W53143  36.650  20.541   0.641
86361W        W53144  44.366  41.444   1.783
86362W        W53145  35.764  12.610   4.075
86363W        W53146  43.929  25.440  11.775
86364W        W53147  22.612   8.728   2.819
86365W        W53148  31.926  39.140   0.365
86366W        W53149  15.837   8.644  11.085
86367W        W53150   5.359   8.424   2.257
86368W        W53151   8.287   2.750   1.013
86369W        W53152  32.538  22.798  12.135
86370W        W53153  24.499  26.761   4.676
86371W        W53154  30.972  22.366  12.097
86372W        W53155   7.459  12.178   1.798
86373W        W53156  34.599  33.761   4.826
86374W        W53157   5.923   4.772   2.264
86375W        W53158  33.984  15.521  12.094
86376W        W53159  20.566   6.136  12.849
86377W        W53160  34.197  44.215  12.598
86378W        W53161  38.417  11.628   0.415
86379W        W53162  15.909   0.485  12.378
86380W        W53163   0.802  20.887   3.804
86381W        W53164   6.894  27.070   4.196
86382W        W53165  43.927  41.566   4.058
86383W        W53166  12.696  41.756   1.462
86384W        W53167  41.865   0.604  10.993
86385W        W53168  24.731  26.038  11.654
86386W        W53169  26.156  37.159   0.460
86387W        W53170  44.177  38.821   0.672
86388W        W53171  30.237  18.117  12.585
86389W        W53172  36.909   9.136  11.106
86390W        W53173  19.329   8.422   0.753
86391W        W53174  15.545  37.593  14.381
86392W        W53175   5.905  29.588   5.069
86393W        W53176  29.685  19.187  10.526
86394W        W53177  15.661  33.557   4.604
86395W        W53178  32.912  31.675   4.590
86396W        W53179   0.089  10.931   1.578
86397W        W53180  44.353  14.381   1.428
86398W        W53181   2.315  33.496  11.461
86399W        W53182  21.501  27.689  13.061
86400W        W53183  25.929   9.132  14.261
86401W        W53184  37.537  41.540   3.962
86402W        W53185   1.961  30.896  11.503
86403W        W53186   6.406   9.668   4.415
86404W        W53187  25.649  24.206   2.755
86405W        W53188   4.417  17.719   3.585
86406W        W53189  14.679   5.887  11.673
86407W        W53190  17.139  33.398   4.526
86408W        W53191  34.089  38.813   2.264
86409W        W53192  30.610   9.637  14.914
86410W        W53193  18.680  40.082   4.853
86411W        W53194  17.783  34.958  13.093
86412W        W53195   8.774  30.653   2.423
86413W        W53196  12.261  23.045  13.993
86414W        W53197   3.711  19.957  12.317
86415W        W53198  44.772   3.230   2.712
86416W        W53199  10.391  18.861   1.477
86417W        W53200   2.442   7.311   4.129
86418W        W53201  23.910  18.001  13.509
86419W        W53202  38.174   4.747   0.988
86420W        W53203   2.633   0.301   2.166
86421W        W53204  22.510  23.928  12.986
86422W        W53205  11.969  29.910  13.884
86423W        W53206  34.036  30.268   5.000
86424W        W53207  14.272  24.554   4.728
86425W        W53208   1.642  22.049   1.077
86426W        W53209  24.546  14.256  10.665
86427W        W53210  33.850  31.069   0.856
86428W        W53211  32.918  32.672  13.068
86429W        W53212  32.862  19.257  13.385
86430W        W53213  10.433  21.027  11.893
86431W        W53214  14.905  33.576   2.109
86432W        W53215   9.668  28.708   1.384
86433W        W53216   6.909  11.826   0.026
86434W        W53217   5.838  41.144   4.806
86435W        W53218   7.354  42.383  13.494
86436W        W53219   5.679  43.965  13.080
86437W        W53220  33.507  41.519  12.979
86438W        W53221  20.982  10.378  13.748
86439W        W53222  31.178   4.220   3.827
86440W        W53223  37.919  41.921   0.851
86441W        W53224  24.541   4.062  13.534
86442W        W53225  15.868  19.310   2.446
86443W        W53226  29.549  30.611   0.711
86444W        W53227  41.973  16.054   2.220
86445W        W53228  25.003   7.929   3.111
86446W        W53229  15.788  40.972   0.030
86447W        W53230   4.457   9.680   0.928
86448W        W53231  35.198  40.347  11.264
86449W        W53232   7.302   2.563  10.686
86450W        W53233  27.646  23.738   1.322
86451W        W53234  26.795   8.582   2.337
86452W        W53235  38.130   8.830  12.299
86453W        W53236  15.652   0.456  10.498
86454W        W53237  13.868  16.351  14.381
86455W        W53238  25.109  17.523   3.590
86456W        W53239  41.316  18.035  12.955
86457W        W53240  23.475  13.267  10.592
86458W        W53241  19.799   6.318   4.847
86459W        W53242   4.670   7.166   3.752
86460W        W53243  13.378   5.405  14.324
86461W        W53244   0.323  26.388   2.239
86462W        W53245  17.940  37.164  11.496
86463W        W53246  37.484  33.140  13.087
86464W        W53247   9.417  15.692  13.978
86465W        W53248  44.042  20.818  10.215
86466W        W53249  20.087  10.334   4.979
86467W        W53250   2.094  14.652  13.810
86468W        W53251   0.670  37.274   0.910
86469W        W53252  43.900  21.938   0.090
86470W        W53253  27.944  26.159  13.156
86471W        W53254  34.869  14.782   2.204
86472W        W53255  34.135  29.894   0.654
86473W        W53256  10.620   1.446   0.830
86474W        W53257  22.344  18.236  10.271
86475W        W53258  40.801  44.008  14.541
86476W        W53259  43.409  26.641   0.025
86477W        W53260  40.279  44.780   0.422
86478W        W53261  35.915  27.976  12.129
86479W        W53262  27.719  18.126   2.712
86480W        W53263  36.635   5.348  11.608
86481W        W53264  12.396  39.406  10.788
86482W        W53265  40.874   4.060  11.063
86483W        W53266  20.330  24.528  12.651
86484W        W53267  22.184  28.159  10.538
86485W        W53268  43.921  31.846   0.213
86486W        W53269  41.085  10.060   0.327
86487W        W53270  23.734   0.998   0.791
86488W        W53271  37.378   3.670  14.253
86489W        W53272  31.894   2.384   4.595
86490W        W53273  44.904  32.134  13.933
86491W        W53274  14.146   9.916   2.739
86492W        W53275  23.741  14.196  11.641
86493W        W53276  13.677  27.170  12.131
86494W        W53277  27.213  41.541  13.990
86495W        W53278  25.467   3.099   3.658
86496W        W53279  12.165  10.225   4.263
86497W        W53280  20.017  15.272   3.226
86498W        W53281   2.346   2.280   1.978
86499W        W53282  30.028  37.644  12.127
86500W        W53283  41.235   5.522  13.559
86501W        W53284  10.598  21.236   4.172
86502W        W53285   6.148  19.831  13.515
86503W        W53286  42.345  30.656   2.344
86504W        W53287  15.360  11.914   1.966
86505W        W53288   0.973  16.621  12.793
86506W        W53289   2.929  28.660  14.214
86507W        W53290  44.192  20.201  10.692
86508W        W53291  22.794  10.421  10.266
86509W        W53292   3.028   6.154  12.894
86510W        W53293  17.746   9.896   4.025
86511W        W53294  20.486   5.300  14.115
86512W        W53295  30.404   9.245   1.433
86513W        W53296  35.449  29.576  12.393
86514W        W53297   1.808   7.047   3.805
86515W        W53298   7.193   0.796  11.696
86516W        W53299   2.442  26.112   3.950
86517W        W53300   7.206  23.019  10.728
86518W        W53301  40.422  24.047  11.095
86519W        W53302  22.697  11.577   0.789
86520W        W53303   0.936  44.771  14.389
86521W        W53304   2.793  13.405   4.425
86522W        W53305   1.816   2.828   0.868
86523W        W53306   3.805  34.280   3.043
86524W        W53307  31.185  27.936  13.859
86525W        W53308   2.484  16.723  10.673
86526W        W53309  42.908   1.788   1.921
86527W        W53310   7.054  16.186  12.715
86528W        W53311  29.947   4.624  11.563
86529W        W53312  12.134  16.639   1.958
86530W        W53313   2.073   7.365   1.850
86531W        W53314  21.888  19.064  10.859
86532W        W53315  10.232  12.690   0.250
86533W        W53316  39.770  36.044  12.839
86534W        W53317  25.032   4.954  14.383
86535W        W53318  35.326   4.012   0.395
86536W        W53319  17.776  36.160  13.216
86537W        W53320   9.087  34.035  14.466
86538W        W53321   6.894   7.294   0.660
86539W        W53322  12.656  13.885  14.098
86540W        W53323  11.766   1.476  13.924
86541W        W53324  31.430  17.663  12.977
86542W        W53325  11.394  30.153  12.848
86543W        W53326  41.063  36.052   4.487
86544W        W53327  26.971   1.253  12.977
86545W        W53328   1.542  17.739  11.682
86546W        W53329  25.904   0.355  11.142
86547W        W53330  28.567  23.585  11.429
86548W        W53331  27.651  16.356   3.846
86549W        W53332  20.199  27.665  14.999
86550W        W53333  30.505  18.082   1.859
86551W        W53334  27.266   9.297  12.494
86552W        W53335  16.640   8.881   2.702
86553W        W53336  13.275  15.134  12.956
86554W        W53337  37.706   9.184   1.476
86555W        W53338  15.574   1.917   3.672
86556W        W53339  23.534  43.549   3.556
86557W        W53340  18.627   3.689   4.082
86558W        W53341  34.813  12.619   5.335
86559W        W53342  30.730  12.754   4.223
86560W        W53343   1.087  25.657  11.970
86561W        W53344  10.177   4.465   3.318
86562W        W53345   2.938  24.455  14.324
86563W        W53346  26.701  33.987   0.826
86564W        W53347  41.789  30.113  14.307
86565W        W53348  14.130  33.652  12.269
86566W        W53349  44.447  33.170   1.879
86567W        W53350  36.703   4.431  11.673
86568W        W53351  10.659  34.115  13.843
86569W        W53352  18.157  16.690  12.367
86570W        W53353  18.298  31.560  11.663
86571W        W53354  25.310  33.924  14.944
86572W        W53355  27.895  10.497  14.516
86573W        W53356  15.241  11.907   4.902
86574W        W53357  18.181  19.407  12.009
86575W        W53358  40.960   7.384   2.334
86576W        W53359  35.602  27.363  13.693
86577W        W53360  41.278  17.283   4.704
86578W        W53361  21.637   3.159   2.740
86579W        W53362   9.169  42.828   4.014
86580W        W53363  23.570  21.468  14.900
86581W        W53364   7.371  40.376  12.029
86582W        W53365   9.146  36.464   2.274
86583W        W53366  19.742  43.935  13.442
86584W        W53367  22.293   2.036  10.304
86585W        W53368  23.179  39.279   1.388
86586W        W53369  22.166   3.422  11.873
86587W        W53370   3.841  25.520   0.369
86588W        W53371   3.167  30.576  12.337
86589W        W53372   5.464  24.284  13.419
86590W        W53373  24.926  13.539   0.866
86591W        W53374   0.866  21.200   0.258
86592W        W53375   3.862   3.431  13.720
86593W        W53376  43.527  20.643  14.267
86594W        W53377   6.282  29.226  14.987
86595W        W53378  21.319   2.290   0.335
86596W        W53379  22.213   6.922   2.618
86597W        W53380  21.505   3.814  11.516
86598W        W53381   9.660   9.961  10.690
86599W        W53382  17.252   1.425  14.431
86600W        W53383  26.997  33.415   3.886
86601W        W53384  41.242  32.489   2.945
86602W        W53385  15.856  35.435   2.773
86603W        W53386  32.579  43.798  12.959
86604W        W53387  39.105  29.643   4.613
86605W        W53388  36.259  30.611   2.585
86606W        W53389   5.886  16.609  13.150
86607W        W53390   3.426  21.903   1.846
86608W        W53391  20.751  13.751   1.214
86609W        W53392   2.478  12.206   0.694
86610W        W53393  31.493  37.377   2.014
86611W        W53394  39.512  15.171   2.609
86612W        W53395  39.010  12.859  12.382
86613W        W53396  36.313  12.903  11.385
86614W        W53397  17.689  15.092  13.028
86615W        W53398  42.999   8.346  12.926
86616W        W53399  32.092   5.920  12.493
86617W        W53400  37.398   7.581  13.494
86618W        W53401  37.644  40.387  12.896
86619W        W53402  14.575   3.754   0.669
86620W        W53403  44.104   5.329   5.408
86621W        W53404  44.253  26.216   1.371
86622W        W53405  14.890  28.838   3.182
86623W        W53406  23.589   4.707  10.817
86624W        W53407  43.542  34.618   1.630
86625W        W53408  31.548   5.219  10.925
86626W        W53409  41.451  37.911  12.097
86627W        W53410  35.865  10.458   3.423
86628W        W53411  19.264   1.581  13.264
86629W        W53412  29.876  18.725   0.249
86630W        W53413  24.533  23.191   0.203
86631W        W53414  33.538  44.932  13.455
86632W        W53415  42.485  17.598  11.091
86633W        W53416  19.174   7.460   2.858
86634W        W53417  33.122  30.235  14.038
86635W        W53418  41.978  42.298   3.934
86636W        W53419  15.391  25.168  12.948
86637W        W53420  38.593   6.536   4.372
86638W        W53421  10.888  36.832  12.186
86639W        W53422  26.655   4.456   2.439
86640W        W53423  20.486  33.657  14.055
86641W        W53424  12.778  36.322  10.404
86642W        W53425  18.059  18.292   0.906
86643W        W53426  27.828  44.674   0.827
86644W        W53427  24.843  22.072  13.825
86645W        W53428  24.624  20.197   1.359
86646W        W53429   4.890  38.348   0.795
86647W        W53430   5.408  30.335   2.806
86648W        W53431   5.207  19.303   4.218
86649W        W53432   4.200  12.545   3.710
86650W        W53433  12.910  39.075   3.671
86651W        W53434  41.755  13.278   1.282
86652W        W53435  40.730  36.008   0.784
86653W        W53436  24.325  11.333  11.604
86654W        W53437  18.062  42.140  14.371
86655W        W53438   4.937  11.239   0.272
86656W        W53439   9.832  43.818  12.560
86657W        W53440  25.833  16.257   1.394
86658W        W53441   5.872  10.637   2.682
86659W        W53442  27.474  41.765   2.205
86660W        W53443   5.806  36.084   3.228
86661W        W53444  44.367  38.398  14.771
86662W        W53445   7.837   3.924  13.581
86663W        W53446  20.186  11.788  12.480
86664W        W53447   2.509  25.992   2.637
86665W        W53448  43.554   3.475   4.605
86666W        W53449  28.445  17.122  14.378
86667W        W53450   6.765  14.170   4.114
86668W        W53451  17.868  26.442  11.466
86669W        W53452   6.134  35.495   3.699
86670W        W53453  44.899  41.742  10.770
86671W        W53454   7.620  33.399  11.708
86672W        W53455  24.541  43.607   1.829
86673W        W53456   9.277  11.575   0.301
86674W        W53457   1.336  29.111   4.582
86675W        W53458  25.463  12.676  13.329
86676W        W53459  13.695  44.996   0.270
86677W        W53460   5.812   9.902  10.595
86678W        W53461   6.838   7.145  12.978
86679W        W53462  12.145  20.813  12.352
86680W        W53463  44.380  37.496  10.306
86681W        W53464   0.149  32.576  10.695
86682W        W53465  44.885  10.371  11.106
86683W        W53466   2.363  25.041  14.960
86684W        W53467  43.314   3.064   2.711
86685W        W53468   5.660  26.930  11.650
86686W        W53469  17.622  27.064   4.766
86687W        W53470  23.588  35.814  12.862
86688W        W53471  15.032  36.355  13.379
86689W        W53472  10.546   4.101  12.631
86690W        W53473  12.303  40.256   1.434
86691W        W53474  10.864  38.928   2.355
86692W        W53475  28.867  23.064   3.704
86693W        W53476  18.826  42.794  10.303
86694W        W53477  32.238  25.215   1.332
86695W        W53478  39.283  26.577   1.264
86696W        W53479   0.415  12.217  11.114
86697W        W53480   5.482   7.862   4.607
86698W        W53481  18.295   2.790  14.897
86699W        W53482  31.118  31.349   1.461
86700W        W53483   7.314   1.708   4.083
86701W        W53484  40.495  40.347   4.562
86702W        W53485  43.295   2.868  10.817
86703W        W53486  16.400  38.050   4.180
86704W        W53487  16.673  22.752   3.694
86705W        W53488   3.915  39.323   2.880
86706W        W53489  36.844  24.525   3.199
86707W        W53490  16.701   6.739  14.570
86708W        W53491  16.268  10.736  11.576
86709W        W53492  18.257   2.780   3.714
86710W        W53493   8.373  17.336  12.509
86711W        W53494  26.970  35.933   1.462
86712W        W53495   7.706  28.578   0.770
86713W        W53496  43.973  11.416  13.762
86714W        W53497  29.901   3.878  14.476
86715W        W53498   4.837  25.177  12.501
86716W        W53499  11.233  39.814   2.445
86717W        W53500  42.400  36.823  11.618
86718W        W53501  35.385   8.799  12.084
86719W        W53502  44.320  25.133   4.649
86720W        W53503  38.570  22.149   4.219
86721W        W53504  43.718  25.473   3.624
86722W        W53505  38.470  12.543  12.906
86723W        W53506  32.381   3.737   2.790
86724W        W53507   5.299  41.391   2.391
86725W        W53508  18.581  24.156   3.105
86726W        W53509  42.391  37.067  14.884
86727W        W53510   3.161  23.719  12.541
86728W        W53511  11.831  42.887  12.144
86729W        W53512   2.448   0.521   9.640
86730W        W53513   5.215   8.128  10.966
86731W        W53514  18.295  11.967  14.352
86732W        W53515   2.365  15.701   0.388
86733W        W53516  29.104  41.960   0.321
86734W        W53517  37.007  26.954  13.390
86735W        W53518  21.037  42.860   4.359
86736W        W53519  30.126  20.996  12.437
86737W        W53520  41.234   2.773   4.901
86738W        W53521  16.325  14.825  10.248
86739W        W53522  27.613  31.408   3.315
86740W        W53523  23.221  24.029   4.527
86741W        W53524  21.422  43.110   1.685
86742W        W53525  31.888  15.840  14.272
86743W        W53526  10.106  23.105   0.882
86744W        W53527  39.773  31.268  12.254
86745W        W53528  12.336   2.873  13.484
86746W        W53529  28.193  35.805   9.748
86747W        W53530  22.086   2.157  11.855
86748W        W53531  42.621  10.726   5.051
86749W        W53532  10.389  29.466  12.436
86750W        W53533  37.866  31.188   2.631
86751W        W53534   8.649   6.180  14.131
86752W        W53535  12.095  11.367   5.377
86753W        W53536   5.741  18.211   4.106
86754W        W53537  14.817  34.566  12.990
86755W        W53538   5.429  25.736  13.497
86756W        W53539  38.295  18.597  12.276
86757W        W53540  11.361  12.169  13.943
86758W        W53541  31.578  15.093   3.460
86759W        W53542  10.269  39.983   3.432
86760W        W53543   8.107  11.661  12.858
86761W        W53544  26.708  26.086   3.598
86762W        W53545  39.434  10.239  12.163
86763W        W53546  34.670  44.996   1.482
86764W        W53547  18.141   1.964   1.198
86765W        W53548   3.313  25.985   3.028
86766W        W53549  37.759  37.038   4.152
86767W        W53550  25.652   1.232  11.574
86768W        W53551  43.335  12.422  13.966
86769W        W53552  27.834  36.775  11.507
86770W        W53553  13.573  23.109   4.611
86771W        W53554  28.345  37.642   4.165
86772W        W53555  11.399  10.357  10.286
86773W        W53556  29.906  44.997  14.493
86774W        W53557  17.242   9.077  11.061
86775W        W53558  29.065  40.273   2.316
86776W        W53559  38.483   1.359  12.128
86777W        W53560  39.847  13.711  12.940
86778W        W53561  10.136  28.729  13.771
86779W        W53562  37.146  34.398   1.946
86780W        W53563  38.958   4.309   4.790
86781W        W53564   5.870   1.567   4.289
86782W        W53565   6.130  30.910  14.940
86783W        W53566  16.263   6.484  14.068
86784W        W53567  32.438  18.057   2.297
86785W        W53568  37.923  39.486  14.896
86786W        W53569  29.690  19.629   4.385
86787W        W53570   9.925  15.369  11.441
86788W        W53571  24.125  22.960  10.583
86789W        W53572  14.813   1.530  13.909
86790W        W53573  35.520  43.935   3.956
86791W        W53574  13.003  18.300  13.461
86792W        W53575  30.666  37.814   1.226
86793W        W53576  34.439  24.228   0.365
86794W        W53577  19.002  27.792  12.961
86795W        W53578  13.896   1.493   0.435
86796W        W53579  31.178  30.417   3.131
86797W        W53580  43.908  22.428   4.791
86798W        W53581  25.502   1.032  10.684
86799W        W53582  33.881  36.526   3.160
86800W        W53583  15.207  14.575  11.585
86801W        W53584  44.858  34.085   0.216
86802W        W53585  31.237   4.348  12.461
86803W        W53586  28.251  20.208  11.542
86804W        W53587  35.326  43.475   3.770
86805W        W53588  30.126   5.883   3.835
86806W        W53589  13.122   7.748  12.418
86807W        W53590  22.118  15.147   1.236
86808W        W53591  16.504  43.272  11.158
86809W        W53592  25.834  16.095  13.014
86810W        W53593  12.610  22.011   2.489
86811W        W53594  14.068  27.429  11.944
86812W        W53595  32.661  43.430  13.527
86813W        W53596  23.987  17.472  12.426
86814W        W53597   0.293  17.353   0.205
86815W        W53598  36.104   5.306   4.546
86816W        W53599  31.370   5.381   4.750
86817W        W53600   4.307  23.701   4.400
86818W        W53601  25.048  31.124   2.767
86819W        W53602  28.641  31.125   4.670
86820W        W53603   8.262   5.312   1.811
86821W        W53604   6.450  13.208   4.287
86822W        W53605  14.406  20.087   3.711
86823W        W53606  36.087  29.441  12.067
86824W        W53607  35.469  41.431   2.184
86825W        W53608  14.385   5.260   3.148
86826W        W53609  40.036  30.645   0.325
86827W        W53610   0.536   9.593  10.611
86828W        W53611   2.214   8.137  11.252
86829W        W53612   2.880  28.902  11.105
86830W        W53613  20.757  43.782  14.508
86831W        W53614   8.274  17.197   4.182
86832W        W53615   0.227  38.083  14.413
86833W        W53616   2.709  38.910  12.893
86834W        W53617  19.729  42.372  10.632
86835W        W53618   8.484  24.894   3.424
86836W        W53619  17.606   6.625   1.825
86837W        W53620  25.047  37.841   1.926
86838W        W53621  35.465  22.726  13.990
86839W        W53622  12.719  43.763  14.730
86840W        W53623   0.917  37.882  11.633
86841W        W53624  42.788  34.373  11.127
86842W        W53625  20.624  12.866   1.795
86843W        W53626  12.808  42.849  12.456
86844W        W53627  44.307  30.999   2.956
86845W        W53628  24.770   6.815   4.131
86846W        W53629  17.955  31.180  11.574
86847W        W53630   6.430   7.824  12.020
86848W        W53631  30.002  20.611  11.771
86849W        W53632  39.920  13.370   1.875
86850W        W53633   9.275  25.322  12.470
86851W        W53634  18.290  28.743  11.285
86852W        W53635  33.886  14.141  10.436
86853W        W53636  38.329  12.297   0.336
86854W        W53637  38.099  24.716   4.842
86855W        W53638  42.301   7.399  13.747
86856W        W53639  17.340   5.359  11.998
86857W        W53640  24.940  14.301  12.904
86858W        W53641  23.526  16.371  12.006
86859W        W53642  43.084  41.490  11.579
86860W        W53643  28.655  44.776   0.432
86861W        W53644  24.429  33.169  12.408
86862W        W53645  10.205  18.690   3.340
86863W        W53646  12.838  38.091   2.798
86864W        W53647  18.170  43.472  12.446
86865W        W53648   6.848  25.738  14.820
86866W        W53649  33.256  28.524   2.191
86867W        W53650  10.460  33.651  12.736
86868W        W53651   9.608   2.997  12.015
86869W        W53652   1.122  32.412  10.643
86870W        W53653   2.151  43.819  11.937
86871W        W53654  18.436  39.576   4.070
86872W        W53655   8.389   6.844   4.351
86873W        W53656  23.517   5.701   2.312
86874W        W53657  30.983  11.810   1.434
86875W        W53658  19.257  29.948   1.513
86876W        W53659  13.754  17.766  14.399
86877W        W53660  25.515  34.671  11.965
86878W        W53661   9.805  37.853   2.314
86879W        W53662  10.109  42.449   4.262
86880W        W53663  20.174  34.998   3.700
86881W        W53664   6.414  43.863   1.539
86882W        W53665  38.813  14.159  12.439
86883W        W53666  11.100   9.400   0.869
86884W        W53667  34.152  19.763  14.774
86885W        W53668  14.754  12.552  11.103
86886W        W53669  25.527  43.111   4.137
86887W        W53670  41.417   2.683   2.426
86888W        W53671  15.322  13.856  11.117
86889W        W53672  31.905  37.924   1.513
86890W        W53673   5.630  23.931   1.258
86891W        W53674  11.303   9.879  11.183
86892W        W53675   5.903  16.176  11.771
86893W        W53676  21.614  11.863  11.761
86894W        W53677   7.785  22.783   2.405
86895W        W53678  26.302  44.886   0.841
86896W        W53679  17.366  26.730  11.567
86897W        W53680  28.117  25.750  12.884
86898W        W53681  20.814  36.947  12.442
86899W        W53682  36.353   7.307   3.155
86900W        W53683  13.730  12.763  11.524
86901W        W53684  19.287   8.061   0.385
86902W        W53685  31.366  35.975  11.633
86903W        W53686  39.022  34.486  10.637
86904W        W53687  25.003  42.210   3.097
86905W        W53688  13.794   3.711   2.303
86906W        W53689   4.901  19.742   1.313
86907W        W53690  15.758  42.868  13.677
86908W        W53691  31.031   7.193  14.793
86909W        W53692  27.780   8.693   2.047
86910W        W53693  26.558  44.117   3.531
86911W        W53694  26.704  20.664   4.714
86912W        W53695  40.503   9.304  11.646
86913W        W53696  10.274  11.240   2.299
86914W        W53697   3.869  16.113   2.929
86915W        W53698   5.961  26.068   1.391
86916W        W53699   7.243  19.691   4.121
86917W        W53700   8.445  34.018  13.523
86918W        W53701  32.962  43.253   0.340
86919W        W53702  32.336  27.112   2.136
86920W        W53703  32.568  12.058  14.424
86921W        W53704   8.364  35.687  14.468
86922W        W53705   1.347   9.787   1.458
86923W        W53706  44.521  41.594   2.266
86924W        W53707   5.231  17.725   1.092
86925W        W53708  12.388   5.306   1.708
86926W        W53709  30.476  34.164   4.673
86927W        W53710  42.070  41.964  11.522
86928W        W53711  11.180  33.895  10.714
86929W        W53712  17.039  21.480   2.389
86930W        W53713  40.398  34.821   2.312
86931W        W53714  13.728  34.899   4.928
86932W        W53715   1.700  20.673   4.713
86933W        W53716  31.444  43.438   3.764
86934W        W53717  16.841   2.834   3.099
86935W        W53718  40.367   7.676  14.286
86936W        W53719  10.600   7.647   2.671
86937W        W53720  29.892  18.470  13.365
86938W        W53721  37.792  14.617  10.973
86939W        W53722   6.876  26.978  14.442
86940W        W53723  20.259   4.419  12.587
86941W        W53724  14.019   0.458   3.044
86942W        W53725   0.853  35.305   4.170
86943W        W53726  29.587  43.518  12.063
86944W        W53727   4.709  40.345   1.643
86945W        W53728  35.684  17.203   0.318
86946W        W53729  20.506   1.265  10.676
86947W        W53730   0.307  14.806   9.887
86948W        W53731  41.506   5.912  10.645
86949W        W53732  25.054  18.912  13.742
86950W        W53733  11.373  34.060  14.978
86951W        W53734  27.713  12.216  12.595
86952W        W53735  19.559  31.648   4.361
86953W        W53736  30.474   6.734  14.519
86954W        W53737  27.560  32.058   0.469
86955W        W53738  42.708   0.688  14.315
86956W        W53739  12.058  38.415  14.966
86957W        W53740   0.420  14.179   4.626
86958W        W53741  19.138  35.605  12.174
86959W        W53742  25.039  28.630  10.849
86960W        W53743  37.542  32.615   4.102
86961W        W53744  14.750  27.816  10.710
86962W        W53745  14.298  32.710  11.896
86963W        W53746  13.242  27.609   4.224
86964W        W53747  44.575  29.131   3.444
86965W        W53748  24.680   3.655  12.556
86966W        W53749   4.717  34.355  14.945
86967W        W53750  12.343  37.349  11.843
86968W        W53751  38.943   6.432  11.224
86969W        W53752  44.079  15.840   0.289
86970W        W53753  17.282  21.673  14.979
86971W        W53754  37.560   5.535  13.955
86972W        W53755  44.595  12.795  13.094
86973W        W53756  14.563  27.960   3.680
86974W        W53757  41.297  20.617   2.438
86975W        W53758   9.873  11.748   4.576
86976W        W53759  28.430  14.188  10.639
86977W        W53760  21.753  14.702  10.603
86978W        W53761  37.580   8.277   0.663
86979W        W53762  11.622  10.973   4.728
86980W        W53763   8.839  24.119   5.078
86981W        W53764  23.414  16.620   1.037
86982W        W53765  26.183   2.881  13.480
86983W        W53766  14.240   0.267  12.949
86984W        W53767  17.394   8.584  11.115
86985W        W53768  39.038   9.004   1.465
86986W        W53769  44.745  27.104  12.610
86987W        W53770  35.390   3.228   2.911
86988W        W53771   4.560   7.827   0.957
86989W        W53772  34.996  31.141   3.114
86990W        W53773   9.075  38.794   2.987
86991W        W53774  10.645  35.812  10.433
86992W        W53775  10.199  10.609  14.495
86993W        W53776  27.936   7.619  13.805
86994W        W53777  11.241  37.086  10.537
86995W        W53778  15.621  26.170  11.616
86996W        W53779  35.415  18.545   3.667
86997W        W53780   1.400   7.459  14.045
86998W        W53781  30.527  32.558   4.204
86999W        W53782  17.267  30.406  13.984
87000W        W53783  10.257  17.841   2.914
87001W        W53784  20.259  37.991  10.583
87002W        W53785  39.111  35.386   1.260
87003W        W53786   5.754  32.523   2.334
87004W        W53787  25.557  12.225   3.544
87005W        W53788   5.460  18.893  14.693
87006W        W53789  14.169  15.232   0.751
87007W        W53790  33.085  37.548  10.580
87008W        W53791  25.390  17.610   4.833
87009W        W53792  35.165  19.291   3.235
87010W        W53793  26.057  27.684   3.843
87011W        W53794   8.412  15.308  11.544
87012W        W53795  31.133  26.950  13.461
87013W        W53796  33.352  31.116  12.621
87014W        W53797  41.821  15.790   4.194
87015W        W53798  12.977   9.330  12.483
87016W        W53799  44.401  28.648  11.396
87017W        W53800  39.295  15.877  11.481
87018W        W53801  20.379   2.787  10.690
87019W        W53802  24.873  43.751   4.164
87020W        W53803  44.270  12.745  14.602
87021W        W53804  37.081  13.723   4.746
87022W        W53805  18.273  16.210   3.825
87023W        W53806  39.547  14.701   1.880
87024W        W53807  42.278   9.845   0.866
87025W        W53808  33.183  24.652   3.333
87026W        W53809  28.503  28.913  14.232
87027W        W53810  40.298  15.162   0.413
87028W        W53811  38.389  24.692   3.090
87029W        W53812  36.382  24.571   2.921
87030W        W53813   2.200   4.287   4.715
87031W        W53814  34.222  36.288   2.427
87032W        W53815  42.288  26.923  11.354
87033W        W53816  35.993  13.148  14.052
87034W        W53817  13.102  18.834  13.620
87035W        W53818  14.199  30.154  12.987
87036W        W53819   7.738  23.789  12.954
87037W        W53820  36.933  12.069  14.431
87038W        W53821  34.515  44.274   0.636
87039W        W53822  29.129  35.342   4.120
87040W        W53823  24.547  40.872  13.480
87041W        W53824  23.077  11.352   0.191
87042W        W53825  18.142  36.391  13.719
87043W        W53826  34.995  12.045  14.642
87044W        W53827  33.463  13.798   3.240
87045W        W53828   7.416  31.197   2.205
87046W        W53829  33.476   9.037   2.325
87047W        W53830  42.216  15.840  11.214
87048W        W53831  12.295  25.012   1.687
87049W        W53832  32.572  20.745   2.297
87050W        W53833   4.314  17.532  10.691
87051W        W53834   9.676  11.079  12.274
87052W        W53835  39.538  36.521  13.632
87053W        W53836  35.140  12.282   4.588
87054W        W53837  43.066  12.618   4.074
87055W        W53838  33.021  39.545   2.686
87056W        W53839  16.747   9.078  13.340
87057W        W53840  31.138  11.276  13.456
87058W        W53841  10.026  30.708  12.172
87059W        W53842  28.207  16.366  10.009
87060W        W53843  19.215  44.835  12.324
87061W        W53844  35.484  41.335  11.712
87062W        W53845  16.159  17.350   1.829
87063W        W53846  44.547  30.077  13.831
87064W        W53847  12.442  40.874   2.295
87065W        W53848  25.686  43.462   0.801
87066W        W53849  23.933  19.384  13.102
87067W        W53850  43.208  30.169   2.141
87068W        W53851  22.543  43.135   3.286
87069W        W53852  43.953   9.604   4.203
87070W        W53853   2.862  14.504   1.312
87071W        W53854  40.274  44.811  12.438
87072W        W53855  20.229  38.425  12.320
87073W        W53856  18.744   5.936   3.720
87074W        W53857  43.592   7.703   2.744
87075W        W53858  31.450  39.434   1.810
87076W        W53859  40.737  25.103  13.727
87077W        W53860   1.398  12.617  12.113
87078W        W53861  23.070   1.984   2.333
87079W        W53862  25.599  23.092  12.551
87080W        W53863   4.328   8.258   2.727
87081W        W53864  13.228   0.403  14.436
87082W        W53865   9.737  30.162   0.437
87083W        W53866  12.575  19.115   0.314
87084W        W53867   9.637   5.996  14.739
87085W        W53868  40.419  31.494  13.444
87086W        W53869  10.535   2.847  10.223
87087W        W53870  17.257  13.861  11.600
87088W        W53871  27.394  40.077   3.595
87089W        W53872   2.054   6.982  14.542
87090W        W53873   6.981  30.079   3.224
87091W        W53874  17.809   5.238  11.121
87092W        W53875  38.846   6.778  10.872
87093W        W53876  14.270  25.046   4.980
87094W        W53877  44.346   5.760  11.573
87095W        W53878   4.858  25.678   4.206
87096W        W53879  36.869  37.760   4.631
87097W        W53880  24.136  17.155  14.834
87098W        W53881  30.286  41.270  13.808
87099W        W53882  24.763   4.274   5.006
87100W        W53883  24.636  30.005  11.987
87101W        W53884  19.667  26.546  12.897
87102W        W53885  20.972  34.331   3.221
87103W        W53886  34.102  33.105  14.362
87104W        W53887   5.796   7.932   2.145
87105W        W53888  35.549  18.948  14.796
87106W        W53889   9.288  31.446   0.335
87107W        W53890  11.804   6.157   2.669
87108W        W53891  17.729  25.248   2.275
87109W        W53892  26.997  27.573   0.820
87110W        W53893  15.554   7.357  12.923
87111W        W53894  42.069  18.977   1.799
87112W        W53895  40.397  23.451  12.898
87113W        W53896   0.681  28.406  11.821
87114W        W53897  43.348  35.567   0.379
87115W        W53898   2.014   6.860   4.810
87116W        W53899  19.074  10.396   2.882
87117W        W53900   7.872  11.340  12.193
87118W        W53901   7.898  14.190   3.178
87119W        W53902  23.297  44.378   1.509
87120W        W53903  28.500  17.174  11.121
87121W        W53904   3.917  23.763  12.873
87122W        W53905  18.101  20.660  11.543
87123W        W53906  18.702  22.387   0.807
87124W        W53907  11.183   0.230   0.292
87125W        W53908  33.192   9.293   3.973
87126W        W53909  42.482  20.134  10.622
87127W        W53910  10.812  40.783  11.448
87128W        W53911   0.782  35.744   5.161
87129W        W53912  31.219   5.920   1.245
87130W        W53913   1.766  27.383   3.317
87131W        W53914  44.012   6.178  12.458
87132W        W53915  34.251   5.274   0.362
87133W        W53916  40.781  43.233   0.787
87134W        W53917  22.820  29.406   0.268
87135W        W53918  26.943  31.611   0.919
87136W        W53919   7.759  36.608  12.543
87137W        W53920   3.342   4.226   1.210
87138W        W53921  41.451  36.106   2.914
87139W        W53922   7.270   7.975   3.741
87140W        W53923  30.459  25.773  12.480
87141W        W53924  15.189  12.823  14.340
87142W        W53925   4.209  36.931  13.017
87143W        W53926  28.691  18.042  14.001
87144W        W53927  16.875  38.358  12.629
87145W        W53928   2.057  27.513  13.416
87146W        W53929  32.244  15.412   0.271
87147W        W53930  16.244   1.510  14.212
87148W        W53931  16.653  13.624  13.709
87149W        W53932  15.397  30.108  11.904
87150W        W53933   6.551  18.262   2.617
87151W        W53934  37.079  33.610  10.283
87152W        W53935  26.170  19.115  12.454
87153W        W53936  28.237  38.693   1.277
87154W        W53937   4.973  20.252  13.365
87155W        W53938   4.235  17.763  13.917
87156W        W53939  42.059  22.444   3.645
87157W        W53940  28.466   4.410  10.580
87158W        W53941  43.353  42.462  10.595
87159W        W53942   2.215  34.027  14.001
87160W        W53943  30.893  29.098   3.212
87161W        W53944   8.353  10.589   0.726
87162W        W53945   9.745  42.035  14.801
87163W        W53946  32.988   9.586   3.622
87164W        W53947   8.748  16.793  11.144
87165W        W53948  26.083   5.941  12.279
87166W        W53949  14.606  23.069   4.654
87167W        W53950  10.157  15.247  10.828
87168W        W53951  32.885  19.514  10.082
87169W        W53952  12.111   1.238   2.803
87170W        W53953   1.861  40.332   4.301
87171W        W53954  42.182  15.062  12.942
87172W        W53955  28.364  26.521  12.007
87173W        W53956  13.175  26.352   0.709
87174W        W53957  22.195  20.402  14.288
87175W        W53958  20.621  12.113  12.599
87176W        W53959  44.864  11.679  10.606
87177W        W53960  40.910   0.965  13.729
87178W        W53961  43.717   3.893   2.151
87179W        W53962  34.698  23.086   3.719
87180W        W53963  33.537   4.273   2.389
87181W        W53964  23.203   7.184  13.104
87182W        W53965  27.757  23.193  13.640
87183W        W53966  28.572  36.083   4.026
87184W        W53967   1.090  20.003  11.142
87185W        W53968  13.806  38.473   2.760
87186W        W53969  28.620   7.442  12.658
87187W        W53970  26.766  24.034  14.666
87188W        W53971   2.482   2.871   2.642
87189W        W53972  32.345   9.719   4.832
87190W        W53973  35.388   9.973   0.286
87191W        W53974   9.286   9.538  12.740
87192W        W53975  33.320  14.315   3.212
87193W        W53976  11.554  43.410   0.560
87194W        W53977  38.169  35.992  12.081
87195W        W53978  41.234   7.409  14.812
87196W        W53979  33.892  21.039   0.328
87197W        W53980  36.417  19.683   0.807
87198W        W53981   4.319  13.511   1.419
87199W        W53982   9.677  21.715   1.409
87200W        W53983  24.950  17.824  14.369
87201W        W53984  43.494  37.059   0.339
87202W        W53985  24.642  33.519   4.579
87203W        W53986  21.184   0.476  10.648
87204W        W53987  10.828  28.986   4.257
87205W        W53988   1.819  20.997  14.208
87206W        W53989  22.935   5.232   4.021
87207W        W53990  39.511   7.597  14.502
87208W        W53991  27.275  28.047  11.201
87209W        W53992  12.435   1.643  10.736
87210W        W53993  33.675  22.192  11.574
87211W        W53994   6.421   4.833   4.096
87212W        W53995  36.491   3.216   3.211
87213W        W53996   5.919  28.338   1.377
87214W        W53997  30.143  34.504   1.114
87215W        W53998  20.295  42.796  12.047
87216W        W53999  33.999  28.655   1.768
87217W        W54000  17.573   4.780   1.716
87218W        W54001  17.538  43.877   2.763
87219W        W54002  15.023  15.866  11.065
87220W        W54003  14.801  16.536  13.925
87221W        W54004  36.858  38.169   3.179
87222W        W54005  12.870  24.630   0.425
87223W        W54006  20.225  43.459  12.492
87224W        W54007  15.477  30.557   0.796
87225W        W54008  13.346   0.667   3.243
87226W        W54009  44.116  32.898   0.978
87227W        W54010  26.081   2.173  14.040
87228W        W54011  16.738  28.948  13.435
87229W        W54012  10.469  35.348  11.395
87230W        W54013  28.713  14.044  11.087
87231W        W54014  14.098  18.188   0.432
87232W        W54015   7.847  23.054   3.287
87233W        W54016  18.681  25.521   4.721
87234W        W54017  16.192  10.938   1.349
87235W        W54018  44.475   3.050   2.252
87236W        W54019  20.275   2.251  10.192
87237W        W54020  31.600  22.504  11.160
87238W        W54021  10.852  16.180   4.653
87239W        W54022  41.849  26.973  10.744
87240W        W54023   4.886  20.764   4.885
87241W        W54024   6.488  19.780   4.605
87242W        W54025  19.225  30.916  12.031
87243W        W54026  16.069  28.376  13.752
87244W        W54027  41.752   7.959   2.107
87245W        W54028   0.811   9.050  13.462
87246W        W54029  14.686  40.546   1.547
87247W        W54030  16.405  33.863   4.691
87248W        W54031  35.968  32.146  14.407
87249W        W54032  23.504  26.179   3.113
87250W        W54033  36.043   1.605  13.100
87251W        W54034  22.673  32.832  10.682
87252W        W54035  35.048  18.506  12.045
87253W        W54036  19.321  18.296   1.096
87254W        W54037  44.452  43.237   4.238
87255W        W54038  40.899  25.288   3.234
87256W        W54039  29.823   5.402   4.649
87257W        W54040  15.274  19.523  13.377
87258W        W54041  19.161  37.489  12.568
87259W        W54042  22.042  38.326   0.347
87260W        W54043  26.054  26.413  11.988
87261W        W54044  19.762   8.165  12.909
87262W        W54045  34.100  18.106   2.772
87263W        W54046  31.372  42.731  12.498
87264W        W54047   6.888  16.669  10.878
87265W        W54048   0.704  28.022   4.614
87266W        W54049  25.678   5.411   9.815
87267W        W54050  31.370  31.152  11.174
87268W        W54051  40.410  29.873  13.800
87269W        W54052  42.028  22.726   4.129
87270W        W54053  43.537   3.495   9.918
87271W        W54054  10.111  29.697  12.852
87272W        W54055  29.243   4.912  12.911
87273W        W54056  24.522   1.504  13.007
87274W        W54057  40.636  16.716   1.767
87275W        W54058   3.741  13.389  13.870
87276W        W54059  41.902  17.343   4.077
87277W        W54060  25.425  30.076  13.356
87278W        W54061   0.258  15.378   0.772
87279W        W54062   4.881  14.610   2.702
87280W        W54063  23.728  33.999  14.864
87281W        W54064  27.746   3.851   1.818
87282W        W54065   9.844  29.055  12.940
87283W        W54066  26.639  20.831   0.919
87284W        W54067  20.284  43.254   0.578
87285W        W54068  39.815   0.066  12.497
87286W        W54069  35.917  37.677  11.884
87287W        W54070  14.205   7.707  13.546
87288W        W54071  20.244  42.410   4.537
87289W        W54072   3.304   2.827  11.078
87290W        W54073   0.726  22.503  14.457
87291W        W54074   8.493  39.003   5.064
87292W        W54075  17.658   8.641   3.749
87293W        W54076  10.802  21.335  13.564
87294W        W54077   6.237  36.731  13.035
87295W        W54078   2.958  39.269  10.726
87296W        W54079   7.677  11.372  14.853
87297W        W54080  39.068  23.663   2.842
87298W        W54081  35.532  43.410   2.723
87299W        W54082  41.351  15.719  13.151
87300W        W54083  39.041   7.983   2.386
87301W        W54084  20.160  21.259  10.134
87302W        W54085  28.198   5.372   0.936
87303W        W54086  17.199  14.618  12.639
87304W        W54087  31.144  11.330   2.310
87305W        W54088  14.842   4.823   1.858
87306W        W54089   2.379  43.668   2.400
87307W        W54090  30.749   5.440  13.599
87308W        W54091  27.502  12.267   3.724
87309W        W54092  35.186  34.969  10.701
87310W        W54093  22.544  21.331  13.567
87311W        W54094  21.509   3.978  12.030
87312W        W54095  42.338  14.920  11.979
87313W        W54096  14.124  10.323  11.502
87314W        W54097  21.241  28.197   3.665
87315W        W54098   6.915  28.605   4.580
87316W        W54099  10.703  24.934   1.305
87317W        W54100  18.317  21.196   0.396
87318W        W54101  32.787  31.966   4.155
87319W        W54102   8.843   0.624  11.519
87320W        W54103  25.259  27.076   1.668
87321W        W54104  13.556   0.920  11.104
87322W        W54105  35.710  34.049  11.489
87323W        W54106  43.355  21.973  11.389
87324W        W54107   2.751  11.931   5.035
87325W        W54108  13.388  41.307  12.109
87326W        W54109  43.353   2.568   2.786
87327W        W54110  20.175  23.512   2.704
87328W        W54111   4.640   8.481  14.774
87329W        W54112   2.399  30.720  14.505
87330W        W54113  29.395  35.056  12.077
87331W        W54114  32.429  32.171  14.951
87332W        W54115  13.719  25.913  11.540
87333W        W54116   7.422  29.419  11.296
87334W        W54117  35.396  44.874   2.775
87335W        W54118  11.112  20.309  11.047
87336W        W54119  38.922   7.110   1.891
87337W        W54120  44.968  16.963  14.620
87338W        W54121   0.869  21.512   4.444
87339W        W54122  38.505  15.187   1.432
87340W        W54123   9.758  23.009   4.662
87341W        W54124   7.562   8.378  14.347
87342W        W54125   4.184  33.604   1.513
87343W        W54126  40.470  23.172   4.405
87344W        W54127  32.199  17.578   2.326
87345W        W54128  26.558  37.947  10.527
87346W        W54129  22.818  17.077   3.600
87347W        W54130  15.126   6.820   4.623
87348W        W54131  15.175  11.611  13.857
87349W        W54132   0.613  26.025   0.317
87350W        W54133  28.679  26.547  14.817
87351W        W54134  36.911  11.751   0.820
87352W        W54135   9.694  36.380  12.534
87353W        W54136  32.806  39.375   0.569
87354W        W54137   1.696   6.590   9.732
87355W        W54138  39.060  38.127   3.227
87356W        W54139   1.926  40.797   4.063
87357W        W54140  31.572  19.027   1.470
87358W        W54141  22.746   5.174  10.599
87359W        W54142  26.395  21.331   0.342
87360W        W54143  23.342  13.773  11.979
87361W        W54144  23.280   9.627   0.870
87362W        W54145  42.327   3.817  14.388
87363W        W54146  41.910  14.421  14.550
87364W        W54147  17.011  22.056   0.327
87365W        W54148  12.910  41.435  14.010
87366W        W54149  18.277  29.257  13.527
87367W        W54150  15.834  33.904   3.378
87368W        W54151  29.396   4.609  11.104
87369W        W54152   4.044  20.969   4.600
87370W        W54153  38.356  38.530   0.563
87371W        W54154  12.869   8.133   1.466
87372W        W54155  13.249  29.670  12.879
87373W        W54156  30.134  37.517  10.747
87374W        W54157  16.805   5.945  13.607
87375W        W54158   3.496  19.933  13.071
87376W        W54159  32.409  37.482  12.661
87377W        W54160  21.930  26.454  14.525
87378W        W54161  16.683   7.449  12.144
87379W        W54162  26.573  44.710  11.547
87380W        W54163  19.041   9.266  12.734
87381W        W54164   9.616  11.552  13.650
87382W        W54165  34.225  20.703   0.935
87383W        W54166  24.773  33.933   3.804
87384W        W54167  37.604   1.973  14.480
87385W        W54168  21.610  28.448  10.683
87386W        W54169  35.840  16.675   1.221
87387W        W54170  19.593  43.000   4.039
87388W        W54171  10.264  34.376   1.621
87389W        W54172  41.586   4.479   2.787
87390W        W54173  37.558  42.957   0.873
87391W        W54174  41.628   8.075   2.674
87392W        W54175  10.717  10.451  11.589
87393W        W54176  14.681   3.429   2.002
87394W        W54177  24.517  41.240   4.589
87395W        W54178  28.920   1.357   2.166
87396W        W54179  10.357  12.294  13.066
87397W        W54180  36.071  35.987  12.936
87398W        W54181  13.281  27.456   0.016
87399W        W54182  17.551   7.346  11.948
87400W        W54183   8.629  32.077   2.983
87401W        W54184  28.197   4.774   4.372
87402W        W54185  10.316   9.240   3.217
87403W        W54186  27.090  30.976  13.364
87404W        W54187   7.970  39.489   4.671
87405W        W54188   5.946   7.983  12.073
87406W        W54189  12.080  31.009   2.312
87407W        W54190  30.866  16.107   1.893
87408W        W54191  42.458   6.043  10.706
87409W        W54192  24.437  22.241  11.116
87410W        W54193  31.408  29.636   2.807
87411W        W54194  25.359  19.169   2.266
87412W        W54195  14.088   1.791   3.359
87413W        W54196  23.648  17.200   3.354
87414W        W54197  12.288   8.791  14.072
87415W        W54198  42.743  17.887   4.954
87416W        W54199  27.261  36.087   3.839
87417W        W54200  33.704  33.992   0.683
87418W        W54201  15.125  29.048  12.954
87419W        W54202  39.924  22.748   3.418
87420W        W54203  20.682  14.954   4.656
87421W        W54204   2.917  14.103  12.814
87422W        W54205  29.731  34.379   3.316
87423W        W54206  30.332   5.314   4.732
87424W        W54207  13.317  36.929   3.780
87425W        W54208   9.321  22.634   0.846
87426W        W54209  15.446   9.326   0.399
87427W        W54210  36.360  36.045  12.492
87428W        W54211  30.844   1.898  13.344
87429W        W54212   2.507  21.468  11.203
87430W        W54213  28.084  43.038   3.859
87431W        W54214   8.799  26.944  11.955
87432W        W54215  33.481  32.158   5.044
87433W        W54216  40.874  37.731   1.667
87434W        W54217  34.566  35.389   1.253
87435W        W54218  41.320  12.864   5.107
87436W        W54219  17.725   7.597   2.200
87437W        W54220  16.630  23.726   3.516
87438W        W54221   9.795   8.397   3.388
87439W        W54222  38.520  38.368   1.021
87440W        W54223  17.972  37.475  13.344
87441W        W54224  14.990   0.466   4.618
87442W        W54225  17.797  27.826   4.109
87443W        W54226  29.857   7.405   4.602
87444W        W54227  28.128  19.654  13.925
87445W        W54228   9.816   0.209   4.052
87446W        W54229  12.551   2.452   4.075
87447W        W54230  40.597  36.808   4.584
87448W        W54231  11.838  41.424  14.070
87449W        W54232  22.280  33.696  14.463
87450W        W54233  36.408  21.088  14.795
87451W        W54234  29.883   2.007   2.648
87452W        W54235  28.506   9.432  12.862
87453W        W54236  34.946  33.379  11.578
87454W        W54237  13.876  17.531  14.850
87455W        W54238  17.592  24.504  12.868
87456W        W54239  16.512  31.015  10.653
87457W        W54240  20.069  15.514  13.804
87458W        W54241  17.458  43.431   1.095
87459W        W54242  17.092   8.947  14.437
87460W        W54243  26.078   3.770  10.250
87461W        W54244   6.353   7.972   3.918
87462W        W54245  42.426  15.214  10.731
87463W        W54246  42.522  11.698  11.148
87464W        W54247   7.964  42.885   3.743
87465W        W54248  33.922  28.864   3.873
87466W        W54249  13.526  22.585   4.106
87467W        W54250  42.301  42.160  13.377
87468W        W54251  36.632  23.933  11.575
87469W        W54252   3.689  40.913   4.919
87470W        W54253  38.428  20.634  12.041
87471W        W54254  17.770  38.632  12.906
87472W        W54255  28.509   3.288   0.090
87473W        W54256   5.881   4.868  10.498
87474W        W54257  25.163   0.716  10.922
87475W        W54258   9.820  29.671  11.600
87476W        W54259  22.588  41.575  12.014
87477W        W54260  30.018  31.986  14.855
87478W        W54261  10.626  16.281   2.575
87479W        W54262  42.323  17.080  12.751
87480W        W54263  41.337  23.524   4.090
87481W        W54264  25.024   4.819  12.033
87482W        W54265  26.741  25.550   2.601
87483W        W54266  29.042  38.598   0.891
87484W        W54267  40.786  31.502  10.471
87485W        W54268  33.386  24.650  12.115
87486W        W54269  17.639   5.152   3.196
87487W        W54270  44.990  10.764  14.379
87488W        W54271   1.988   4.411   0.455
87489W        W54272  22.640   3.217   2.150
87490W        W54273   2.267  12.738  14.404
87491W        W54274  31.595  27.496  12.909
87492W        W54275  16.123  19.125   3.446
87493W        W54276  36.850  19.075   3.659
87494W        W54277  23.522  42.245  12.245
87495W        W54278   6.164  30.901  13.102
87496W        W54279  24.276  11.699   1.737
87497W        W54280   1.020  20.033   1.725
87498W        W54281  28.899  27.957  12.097
87499W        W54282  14.658   0.224  13.419
87500W        W54283  32.471  32.315  14.442
87501W        W54284  39.525  22.074  10.966
87502W        W54285  23.694  36.006   4.699
87503W        W54286   1.725  21.821   3.360
87504W        W54287  42.306  25.181   1.685
87505W        W54288  31.866   9.429   3.604
87506W        W54289  34.173  25.028   2.210
87507W        W54290  10.337   7.156   1.381
87508W        W54291  43.896  20.779  11.610
87509W        W54292  39.870  24.875   4.260
87510W        W54293  44.797  18.614  14.388
87511W        W54294  18.509   6.223  14.270
87512W        W54295   9.635   9.246   2.784
87513W        W54296  31.129  11.663   0.945
87514W        W54297  31.534  13.346  13.643
87515W        W54298  11.347  35.001  14.946
87516W        W54299  13.083  16.638  14.458
87517W        W54300  32.479  38.069   4.719
87518W        W54301  20.488  21.295  14.006
87519W        W54302   8.342  21.087  14.903
87520W        W54303  29.439   1.330  12.932
87521W        W54304  14.184  15.621   3.595
87522W        W54305   8.540  39.899  14.412
87523W        W54306  40.237   8.550  13.799
87524W        W54307  40.909  19.628   2.680
87525W        W54308  24.406  18.663   4.200
87526W        W54309  23.618  34.025   3.805
87527W        W54310  10.768   1.063  10.453
87528W        W54311  12.133  37.928  14.290
87529W        W54312  42.021  43.148   3.372
87530W        W54313  37.955  14.065   4.305
87531W        W54314  13.664  31.901   2.479
87532W        W54315  12.075  34.888  14.206
87533W        W54316   0.197  44.538   2.889
87534W        W54317  35.955  26.121  13.561
87535W        W54318   6.201  19.503   3.031
87536W        W54319  13.950  20.576   0.353
87537W        W54320   3.981  14.631  11.080
87538W        W54321   7.279  39.854   3.266
87539W        W54322  42.977   2.419  12.873
87540W        W54323   1.209   7.435   4.607
87541W        W54324   2.820   1.402   0.785
87542W        W54325   0.932  40.822   0.161
87543W        W54326   9.721  31.612  13.023
87544W        W54327  37.143  13.267   4.183
87545W        W54328  11.315   9.170   3.301
87546W        W54329   5.881  27.125  12.096
87547W        W54330   0.050  36.829  14.770
87548W        W54331  37.100   8.262  12.134
87549W        W54332   1.742  20.842   2.953
87550W        W54333   7.223  10.731  12.533
87551W        W54334  17.841  11.669   3.200
87552W        W54335  23.023  16.563  12.053
87553W        W54336  10.178  13.219  10.533
87554W        W54337   4.833  17.156  13.370
87555W        W54338   2.711  17.646  10.731
87556W        W54339   0.593  15.630   1.556
87557W        W54340  41.368  12.906   2.741
87558W        W54341  34.637  38.955   1.356
87559W        W54342   1.891   6.479  10.199
87560W        W54343  29.804  28.514   4.689
87561W        W54344  35.593  28.605  14.017
87562W        W54345   6.912  41.513  14.502
87563W        W54346   4.397   3.529  10.549
87564W        W54347  27.577  22.182  12.620
87565W        W54348  19.361  36.572   0.917
87566W        W54349  16.040  25.581  12.445
87567W        W54350  19.024  17.061   1.400
87568W        W54351  37.259  38.039  10.891
87569W        W54352   7.161   9.365  13.835
87570W        W54353  41.982  40.005   3.204
87571W        W54354  42.931   5.962   0.883
87572W        W54355  17.116   8.380  13.488
87573W        W54356   9.303  25.116   0.237
87574W        W54357  36.584  33.522   3.227
87575W        W54358  19.252  21.660  12.979
87576W        W54359  31.846  19.361  10.211
87577W        W54360  15.637  19.024   2.100
87578W        W54361  11.283  33.972  12.926
87579W        W54362  18.165   5.256   0.764
87580W        W54363  33.162  43.841  14.517
87581W        W54364   8.644  31.684   1.208
87582W        W54365  13.773  26.426  11.511
87583W        W54366  27.896   8.424   2.477
87584W        W54367  25.742  42.335   3.721
87585W        W54368  36.374  10.586  12.672
87586W        W54369  27.211   6.727  12.063
87587W        W54370  21.041  17.047   4.374
87588W        W54371  36.834  15.363   4.666
87589W        W54372  42.999  21.117  10.559
87590W        W54373  43.303  33.190  14.457
87591W        W54374  15.187  44.242   3.245
87592W        W54375  41.773  20.818   0.200
87593W        W54376   9.377  10.604  12.954
87594W        W54377  28.265  27.218   3.237
87595W        W54378  34.038  16.237  13.386
87596W        W54379  23.979  32.366  13.797
87597W        W54380   8.786  31.433  12.584
87598W        W54381  44.468  42.709   4.167
87599W        W54382  23.542  21.465  12.648
87600W        W54383  19.527  36.970  12.153
87601W        W54384  18.601   5.217   2.502
87602W        W54385   4.286  17.111  10.984
87603W        W54386  28.474  38.403  14.723
87604W        W54387   0.630   5.222  11.800
87605W        W54388   9.547  18.938  11.139
87606W        W54389   1.308  27.603  12.926
87607W        W54390  39.148  30.996   1.949
87608W        W54391  14.163   7.081   0.270
87609W        W54392  25.693   7.226   0.878
87610W        W54393  18.520   0.764  11.658
87611W        W54394  14.200  29.357   2.580
87612W        W54395  35.141  16.718   3.771
87613W        W54396   9.154  22.949  14.111
87614W        W54397  27.988  36.045   4.539
87615W        W54398  40.298  20.977  11.991
87616W        W54399  27.607  20.990   3.734
87617W        W54400   1.690  37.757   4.198
87618W        W54401  38.785  22.191  13.911
87619W        W54402  19.134  26.100   1.345
87620W        W54403   6.317  31.276   1.329
87621W        W54404   2.500  35.972  11.644
87622W        W54405   3.728   0.253  12.420
87623W        W54406  33.668   8.098  12.073
87624W        W54407  10.392  36.817  11.443
87625W        W54408   1.060  29.512  14.539
87626W        W54409  21.489  19.496   4.546
87627W        W54410  22.036  22.288  10.706
87628W        W54411  41.791  31.881   0.945
87629W        W54412  28.446   1.054   1.968
87630W        W54413  36.041  21.508   2.743
87631W        W54414  28.989   5.234  10.692
87632W        W54415  27.223  31.952  12.068
87633W        W54416  12.256  28.135   2.522
87634W        W54417  31.216  20.658   9.944
87635W        W54418   4.849  29.412   4.130
87636W        W54419  35.465   5.935   0.397
87637W        W54420   1.709  21.720   0.097
87638W        W54421  10.241  34.357   4.263
87639W        W54422  25.156  23.780  12.488
87640W        W54423   1.183  43.016   3.734
87641W        W54424   9.263  28.815  12.179
87642W        W54425  43.850   6.666  10.990
87643W        W54426   7.895  11.304  10.717
87644W        W54427  29.173   5.871   0.050
87645W        W54428  29.028  21.654  14.023
87646W        W54429   9.222  22.471  10.212
87647W        W54430   5.909  24.638   2.837
87648W        W54431   1.530  35.346   0.719
87649W        W54432  11.439  19.489   2.420
87650W        W54433  11.911  25.754  14.254
87651W        W54434   2.919  17.077  10.726
87652W        W54435  44.740  29.672   1.659
87653W        W54436  33.591  17.895   1.845
87654W        W54437  25.237  23.038   3.632
87655W        W54438   0.450  32.349  13.872
87656W        W54439  33.138  44.389   4.554
87657W        W54440   1.219  12.161   2.401
87658W        W54441  38.334  30.973   1.885
87659W        W54442   7.927  44.928  13.185
87660W        W54443  28.433  36.618   2.797
87661W        W54444  33.641  16.146   3.185
87662W        W54445  41.262  18.002  14.809
87663W        W54446  14.149  21.268  14.592
87664W        W54447  36.261  16.674  14.330
87665W        W54448  23.972  27.169   0.366
87666W        W54449  12.036  10.725  12.852
87667W        W54450   6.760  40.501  13.964
87668W        W54451   2.093  12.868  13.931
87669W        W54452  30.584  29.258   1.790
87670W        W54453  17.260  41.425  10.909
87671W        W54454  41.111  27.728  11.172
87672W        W54455  41.763  31.317   3.661
87673W        W54456  16.072  42.976   4.207
87674W        W54457  31.019   1.464   1.805
87675W        W54458  36.923   6.652  14.307
87676W        W54459  12.503  12.361   1.711
87677W        W54460  34.911  18.024  13.180
87678W        W54461   8.835   0.831   3.996
87679W        W54462  37.290  31.924   5.215
87680W        W54463  26.042  17.199  11.411
87681W        W54464  19.533  40.743  13.462
87682W        W54465  19.600  26.327   4.929
87683W        W54466  10.625  23.603  12.462
87684W        W54467   0.640  40.405  11.941
87685W        W54468  36.403  14.268  12.964
87686W        W54469  13.192  17.147   0.307
87687W        W54470  43.185  31.813  12.438
87688W        W54471  25.479  34.256  14.121
87689W        W54472   6.855  10.598  11.132
87690W        W54473  36.537   3.993   1.722
87691W        W54474   1.683  13.985  12.449
87692W        W54475  36.194  39.771   2.250
87693W        W54476  42.034  15.178   2.816
87694W        W54477  25.590  20.209   4.187
87695W        W54478  44.853   5.290  11.086
87696W        W54479   5.939  18.188   1.320
87697W        W54480  34.418  16.818   2.437
87698W        W54481   8.974   1.721  13.557
87699W        W54482  21.648  29.172   0.939
87700W        W54483  28.107  16.782   2.656
87701W        W54484   8.868   3.406   1.955
87702W        W54485  37.817  16.230   4.523
87703W        W54486  14.851  43.019  11.407
87704W        W54487  19.408  31.296  14.755
87705W        W54488   2.221  37.431  10.537
87706W        W54489  21.545   7.711   1.865
87707W        W54490  16.804  31.188   1.733
87708W        W54491  14.697  11.299   2.448
87709W        W54492   7.338  14.850   4.262
87710W        W54493  18.048  30.998  12.888
87711W        W54494   4.672  38.990   0.913
87712W        W54495  14.813  38.219   0.697
87713W        W54496  37.709  11.011   2.654
87714W        W54497  34.033   2.438   4.091
87715W        W54498  41.451   1.984  14.306
87716W        W54499  25.507  23.543  12.776
87717W        W54500  10.626  41.874   4.187
87718W        W54501  31.466  33.985  12.046
87719W        W54502   4.417  24.165  13.326
87720W        W54503  13.346   3.012  11.199
87721W        W54504  35.933  20.250   1.207
87722W        W54505   3.188  10.698  13.922
87723W        W54506   4.230  21.494  11.574
87724W        W54507  31.911   7.062   5.103
87725W        W54508  42.484   7.111   1.381
87726W        W54509   3.920  42.082   0.480
87727W        W54510  41.734  10.777  12.541
87728W        W54511  30.905  31.145   0.427
87729W        W54512   2.481  27.659  12.477
87730W        W54513  23.752  30.384  13.010
87731W        W54514  38.363   0.275   1.311
87732W        W54515  37.007  14.235   4.909
87733W        W54516  10.381  14.380  11.833
87734W        W54517  33.486   9.109  12.137
87735W        W54518  27.063  26.322  11.124
87736W        W54519  21.791   3.810  14.890
87737W        W54520   9.826  34.173   0.896
87738W        W54521  34.956  15.322  10.583
87739W        W54522  40.825   3.435   1.270
87740W        W54523   1.782  32.246  11.341
87741W        W54524  28.053   3.919  11.221
87742W        W54525  26.922   3.662   1.367
87743W        W54526  17.388  19.479  10.863
87744W        W54527   4.933  29.558  14.773
87745W        W54528  17.389  13.028  11.868
87746W        W54529  20.118  15.680  11.526
87747W        W54530  10.751  31.064   1.020
87748W        W54531  13.684  26.994  14.354
87749W        W54532   7.518  20.146  13.294
87750W        W54533  35.704  14.083   1.961
87751W        W54534  34.791  41.455   5.206
87752W        W54535  39.388  33.482  12.619
87753W        W54536  16.256   0.679   1.266
87754W        W54537  22.923  21.573   4.100
87755W        W54538  35.940  26.021  10.636
87756W        W54539  43.780  22.240  11.999
87757W        W54540  23.739  22.489  13.739
87758W        W54541   3.826  19.951  11.027
87759W        W54542  25.901  33.659   0.802
87760W        W54543  22.250  36.502  14.876
87761W        W54544  25.233  22.646  14.783
87762W        W54545  32.649  43.921   1.211
87763W        W54546  13.113  20.059   1.649
87764W        W54547  13.193  40.518   2.360
87765W        W54548  44.734  26.349   1.173
87766W        W54549   0.549  31.339   3.149
87767W        W54550  14.282  35.137  13.902
87768W        W54551  41.560  34.849  12.000
87769W        W54552  32.338  39.784  14.424
87770W        W54553   0.841  32.044  13.956
87771W        W54554  33.322  19.510  10.538
87772W        W54555  35.501  14.028   0.281
87773W        W54556  39.272  17.597  13.456
87774W        W54557  38.149  10.146  11.080
87775W        W54558   9.357  31.961   2.776
87776W        W54559  24.982  32.906  12.156
87777W        W54560  22.959  17.011  11.778
87778W        W54561  10.476  40.668  10.914
87779W        W54562  19.811  32.150  11.054
87780W        W54563  36.585  16.701  12.851
87781W        W54564  32.502  20.423   0.366
87782W        W54565  35.549  19.820  11.186
87783W        W54566  10.047  41.498   3.833
87784W        W54567   3.517  41.420  12.511
87785W        W54568  32.545   9.134  13.939
87786W        W54569  42.311  14.239  14.255
87787W        W54570   0.958  26.502  13.897
87788W        W54571  30.592  21.506   1.196
87789W        W54572  15.350   3.027  12.359
87790W        W54573  22.244   8.355  14.715
87791W        W54574   7.228  34.667   3.284
87792W        W54575  30.077  35.568  13.036
87793W        W54576  32.160  37.483  12.208
87794W        W54577  13.541  35.584  11.394
87795W        W54578   6.266  25.433   3.691
87796W        W54579   3.989  30.476   4.192
87797W        W54580  10.096   8.129   1.686
87798W        W54581  19.034   6.139   1.963
87799W        W54582  14.752  40.756  11.169
87800W        W54583  32.540  12.374  14.896
87801W        W54584   6.886  27.200  12.713
87802W        W54585  26.732  38.918  13.967
87803W        W54586  26.264  35.093   3.655
87804W        W54587  19.558  18.568   0.731
87805W        W54588  35.650  20.021   5.192
87806W        W54589   5.296  24.212   2.437
87807W        W54590  38.109  29.764  11.199
87808W        W54591  42.363   0.524  14.889
87809W        W54592  11.527  34.344   3.705
87810W        W54593  35.346  17.764   2.777
87811W        W54594   5.224  31.591   3.666
87812W        W54595   3.888  22.784  12.129
87813W        W54596  30.483   2.808  11.568
87814W        W54597  27.521   5.640   0.225
87815W        W54598  40.041  22.583   3.914
87816W        W54599  44.783  26.061  14.551
87817W        W54600  14.598  18.225   0.460
87818W        W54601  26.321  12.696  11.041
87819W        W54602   2.448  17.479   1.188
87820W        W54603   8.678  19.892   2.092
87821W        W54604   5.051  27.783   0.327
87822W        W54605  16.875   0.464   4.973
87823W        W54606  37.011  17.667   4.185
87824W        W54607  43.051  34.565  11.549
87825W        W54608  44.393  24.681  12.097
87826W        W54609  15.023  18.583   1.170
87827W        W54610  25.141  33.632  13.278
87828W        W54611  14.544  21.680   3.893
87829W        W54612  40.048  18.165   3.963
87830W        W54613  30.472  13.093  10.700
87831W        W54614   4.644  16.012  14.348
87832W        W54615   7.301   1.385   1.945
87833W        W54616  37.497  13.842   3.270
87834W        W54617  16.140  39.818  11.847
87835W        W54618  31.617   5.156   0.792
87836W        W54619   9.215  30.074   1.283
87837W        W54620  34.324  38.040   2.710
87838W        W54621  40.001  29.963   4.207
87839W        W54622  34.237  24.129   3.834
87840W        W54623   2.904  39.791  10.725
87841W        W54624  25.185  15.747   0.411
87842W        W54625   2.504  17.661   3.610
87843W        W54626  31.667  14.264   2.828
87844W        W54627  10.915  28.733   1.756
87845W        W54628   6.769   4.107   4.439
87846W        W54629  15.911  42.033   4.639
87847W        W54630  19.021  27.614  14.526
87848W        W54631  13.373   6.327   3.929
87849W        W54632   4.278  12.374  14.764
87850W        W54633  19.822  43.726   3.116
87851W        W54634  36.029  17.799  12.986
87852W        W54635  10.192  26.425  14.188
87853W        W54636  38.610   5.866  10.025
87854W        W54637  21.500  24.609  10.257
87855W        W54638  21.465  17.074  14.300
87856W        W54639  16.271  40.075  14.845
87857W        W54640  41.861  31.394  14.653
87858W        W54641   0.015   2.653  12.850
87859W        W54642  34.501  13.937  10.384
87860W        W54643   7.311  35.358  12.464
87861W        W54644  29.438  35.974  11.677
87862W        W54645  42.784  18.228   4.575
87863W        W54646  26.207  11.270  11.093
87864W        W54647  12.624  25.221   3.672
87865W        W54648  35.688  29.378   4.150
87866W        W54649  41.755  18.578   1.889
87867W        W54650  25.984  21.788  14.469
87868W        W54651  25.911   3.555  11.127
87869W        W54652   5.415  12.263   1.783
87870W        W54653  41.989  29.516   0.904
87871W        W54654  32.655   6.497  13.949
87872W        W54655  25.684  16.488   1.872
87873W        W54656  36.341  27.547   0.944
87874W        W54657  21.793  38.371   0.823
87875W        W54658  29.604  22.191  12.483
87876W        W54659  10.816  24.976  14.881
87877W        W54660  37.333   9.778  12.362
87878W        W54661  26.384  13.955  10.204
87879W        W54662  42.907  40.142   4.786
87880W        W54663   1.362  23.275   4.624
87881W        W54664  18.517   7.293  12.910
87882W        W54665   6.655  10.659   0.442
87883W        W54666  12.394   8.466  11.687
87884W        W54667  25.162   8.616   4.618
87885W        W54668  19.242  37.096  13.505
87886W        W54669  41.007  14.195   2.286
87887W        W54670   7.333  39.292   0.995
87888W        W54671   6.458  40.853   1.784
87889W        W54672   0.939  40.036   2.708
87890W        W54673  27.985   1.527  11.111
87891W        W54674  34.703   1.455  10.796
87892W        W54675   6.309  11.431  13.346
87893W        W54676  20.221   9.233  13.901
87894W        W54677  17.292   0.255   0.203
87895W        W54678  27.891  42.535  12.517
87896W        W54679   8.912  20.981   2.886
87897W        W54680  32.451  28.905  14.932
87898W        W54681  41.754  25.088  11.689
87899W        W54682  10.373  31.581   4.575
87900W        W54683  23.493  12.068  11.103
87901W        W54684   6.777  27.534   4.404
87902W        W54685  31.882  14.116  10.565
87903W        W54686  12.334  11.371  10.144
87904W        W54687  18.283   0.241   3.164
87905W        W54688  37.080   7.140  14.314
87906W        W54689  32.170  28.877   4.368
87907W        W54690   6.139  17.633  12.534
87908W        W54691   9.234  14.249   3.596
87909W        W54692  32.318  43.359  13.145
87910W        W54693  10.687  39.380  10.657
87911W        W54694   7.165  22.304   1.812
87912W        W54695  12.806   1.577  13.038
87913W        W54696  35.212  14.554  12.459
87914W        W54697  18.501  23.768  12.701
87915W        W54698  44.627  18.539   1.897
87916W        W54699  16.842   9.227  10.791
87917W        W54700  18.339   7.709   1.396
87918W        W54701  43.219  22.464  13.453
87919W        W54702  30.016  10.139  14.866
87920W        W54703   8.653  40.576   0.069
87921W        W54704  19.656   5.788  10.407
87922W        W54705   5.126   0.846   1.786
87923W        W54706   0.530   0.828  11.645
87924W        W54707  17.600  24.429  13.775
87925W        W54708   4.479  38.778   4.235
87926W        W54709  40.888  23.012   0.778
87927W        W54710  16.080  25.181  13.441
87928W        W54711  11.362  23.604   3.819
87929W        W54712  42.014  44.473  13.436
87930W        W54713   1.321  22.707  13.982
87931W        W54714   4.442  27.237  13.119
87932W        W54715  32.638  16.281  11.751
87933W        W54716  12.614  39.859  13.909
87934W        W54717   7.796  10.751  10.515
87935W        W54718  24.193  41.885  11.641
87936W        W54719   4.288  21.592   1.415
87937W        W54720  14.774  39.416  10.612
87938W        W54721  31.573  16.553  10.710
87939W        W54722   3.053  19.564   0.441
87940W        W54723  38.935  23.628  10.620
87941W        W54724  25.050  26.137  13.686
87942W        W54725   4.216   3.398  12.497
87943W        W54726  16.216  22.230   1.517
87944W        W54727  15.769  40.595  10.595
87945W        W54728  11.896  43.074   2.778
87946W        W54729  31.381  42.888   1.868
87947W        W54730   8.774  33.060   0.801
87948W        W54731  25.992   8.145   4.843
87949W        W54732   7.432  20.571   4.599
87950W        W54733   6.314   4.261  12.381
87951W        W54734   2.198  40.691   1.944
87952W        W54735  32.049  43.385  11.496
87953W        W54736  43.458  35.020   2.315
87954W        W54737  29.661  10.321  14.460
87955W        W54738  36.614   7.752  12.985
87956W        W54739  12.716  44.963  11.188
87957W        W54740  11.046  38.058  11.614
87958W        W54741  12.308  15.626  10.882
87959W        W54742  19.149  26.850   4.134
87960W        W54743  21.650   1.010   4.430
87961W        W54744  35.188  14.056   1.920
87962W        W54745  14.809  20.727   4.301
87963W        W54746  21.402  28.945  11.290
87964W        W54747   3.744  33.941   4.463
87965W        W54748   5.198   3.755  13.082
87966W        W54749  13.666  37.445  13.823
87967W        W54750   6.691  35.918  13.347
87968W        W54751  30.408  19.553  14.474
87969W        W54752  37.355   8.102   2.703
87970W        W54753   8.473  22.222  13.916
87971W        W54754   9.280  16.164  11.825
87972W        W54755  32.705  43.817   2.232
87973W        W54756   6.739  29.367  13.472
87974W        W54757  34.291  26.289   0.406
87975W        W54758  40.916  40.702   1.860
87976W        W54759  25.733   8.811  12.686
87977W        W54760  35.118  19.769   3.074
87978W        W54761  42.847  16.656   3.749
87979W        W54762  37.393  31.159   2.326
87980W        W54763  42.506   9.729  10.952
87981W        W54764  13.538   5.725   1.006
87982W        W54765  44.714  29.961  10.691
87983W        W54766  42.412   5.646   4.708
87984W        W54767  41.544  43.407   4.559
87985W        W54768   5.932  17.276   0.983
87986W        W54769  15.799  41.085  10.030
87987W        W54770  32.922  19.804   0.451
87988W        W54771  42.407  39.042   1.354
87989W        W54772  27.147  34.452  12.461
87990W        W54773   2.970  39.521  11.172
87991W        W54774  14.137   7.623   3.505
87992W        W54775  21.409  16.151  12.565
87993W        W54776  14.687  33.689   1.229
87994W        W54777  34.686  41.980  11.677
87995W        W54778  41.140   0.918   1.785
87996W        W54779  10.642  11.650   0.846
87997W        W54780   2.972   6.414  14.832
87998W        W54781  37.105  21.520  13.377
87999W        W54782  19.098  30.021  10.992
88000W        W54783   6.833   2.338   4.390
88001W        W54784  22.614  42.576   2.596
88002W        W54785  41.040  18.014  10.775
88003W        W54786   0.977  12.853  14.545
88004W        W54787  20.723  37.970  10.826
88005W        W54788  22.661  28.219  13.574
88006W        W54789  14.156  14.212   0.885
88007W        W54790  12.607   5.674   2.898
88008W        W54791  15.840   5.404   3.082
88009W        W54792   6.337  36.568  14.524
88010W        W54793  23.016  29.224   4.324
88011W        W54794  28.100   7.726   1.686
88012W        W54795  29.738   6.673   3.617
88013W        W54796  42.740   9.300   0.222
88014W        W54797  34.022  37.431   5.087
88015W        W54798  15.872  13.689   1.895
88016W        W54799  39.928   2.841  13.617
88017W        W54800  24.593  38.569   1.515
88018W        W54801  30.079  10.399   0.325
88019W        W54802  12.311  42.908  14.257
88020W        W54803  22.012   1.902  12.291
88021W        W54804  27.051   8.709  14.963
88022W        W54805   3.326  44.331  13.416
88023W        W54806  12.907  23.204  11.312
88024W        W54807  22.491  43.380  11.514
88025W        W54808   1.101  37.981   2.295
88026W        W54809   5.861   2.082   4.245
88027W        W54810  29.620  13.309  12.519
88028W        W54811  35.432  11.847   0.448
88029W        W54812   8.351  13.414  14.637
88030W        W54813  24.020  44.290  13.405
88031W        W54814  18.491  22.281   2.352
88032W        W54815   0.964   4.962  10.286
88033W        W54816  28.093  31.947  13.155
88034W        W54817  21.853  39.355  12.395
88035W        W54818  30.946  20.046   3.158
88036W        W54819  12.186  15.923   0.555
88037W        W54820  34.023  11.712  13.787
88038W        W54821  24.433   7.941   3.877
88039W        W54822  29.113   4.155   0.710
88040W        W54823  19.973   8.029  14.621
88041W        W54824  16.972  22.591  10.163
88042W        W54825  32.414  36.827   0.469
88043W        W54826   7.682  14.212  13.814
88044W        W54827  18.782  30.956   1.819
88045W        W54828  43.146  42.043   3.293
88046W        W54829   6.189  23.470   3.858
88047W        W54830  40.873  17.330   0.852
88048W        W54831  19.228   9.818  10.533
88049W        W54832  24.230   5.871   2.347
88050W        W54833  18.460  20.077  14.994
88051W        W54834  39.291  30.574   3.909
88052W        W54835  13.058  28.026   2.824
88053W        W54836   1.834  37.255   0.544
88054W        W54837  10.348  29.549  13.289
88055W        W54838   9.437  42.041   3.059
88056W        W54839   6.336  29.696  13.465
88057W        W54840  15.262  25.438  11.082
88058W        W54841  29.144  10.319  12.263
88059W        W54842  21.842  17.280   4.378
88060W        W54843  23.621  36.938   3.512
88061W        W54844   4.228  42.794  14.949
88062W        W54845   1.031  19.647   2.388
88063W        W54846  43.516  19.994  11.425
88064W        W54847  40.538  31.738   1.773
88065W        W54848  40.648  19.591  11.051
88066W        W54849  36.058   1.336  11.178
88067W        W54850  16.757   2.802  11.173
88068W        W54851  27.545  26.438  10.983
88069W        W54852  43.777  23.725   2.814
88070W        W54853  16.884  29.948  13.308
88071W        W54854  28.004  37.003   2.592
88072W        W54855  18.592   1.168   1.155
88073W        W54856  42.303  13.648   2.350
88074W        W54857  37.898  37.495   3.923
88075W        W54858   4.759  14.404   3.738
88076W        W54859  20.040   6.896   2.807
88077W        W54860  11.023   0.352  14.822
88078W        W54861   8.783  20.813   4.435
88079W        W54862   2.684  37.008  13.528
88080W        W54863  16.682   1.810   4.705
88081W        W54864   4.980  13.073  14.293
88082W        W54865   1.170   4.423   2.584
88083W        W54866  32.210  34.401   0.686
88084W        W54867  24.265  13.410   0.433
88085W        W54868  28.911   0.529   4.439
88086W        W54869  18.084  44.387  11.507
88087W        W54870  11.398   1.027  14.364
88088W        W54871  36.088  18.980   0.321
88089W        W54872  26.103  12.070   1.731
88090W        W54873  27.060   9.096   1.414
88091W        W54874   0.813  25.246   3.096
88092W        W54875  43.466  40.511  12.389
88093W        W54876  42.303  40.082  11.969
88094W        W54877  36.730  29.544   2.792
88095W        W54878  38.785  41.306  14.868
88096W        W54879  22.090  33.085  13.110
88097W        W54880   7.629  37.486   2.173
88098W        W54881  17.880  34.577  13.434
88099W        W54882  18.236  25.647  13.103
88100W        W54883   7.127  44.903  13.934
88101W        W54884  18.705  25.012   1.819
88102W        W54885  13.927  24.138  12.911
88103W        W54886  26.117  40.695  12.895
88104W        W54887  20.089  35.649  10.683
88105W        W54888  11.063  27.222   3.736
88106W        W54889  29.869  34.430  13.807
88107W        W54890  20.585   6.689   3.344
88108W        W54891  10.934  24.267  12.209
88109W        W54892  38.568   2.754  11.069
88110W        W54893  30.890  21.959   3.270
88111W        W54894  14.747  42.824   4.810
88112W        W54895   8.190  27.151   1.762
88113W        W54896  15.611  42.093  12.613
88114W        W54897  17.269  37.340   1.471
88115W        W54898  15.203  39.944  10.333
88116W        W54899  39.326   6.135  11.058
88117W        W54900  38.363   2.982   0.565
88118W        W54901  39.934  26.569   0.893
88119W        W54902  33.859  44.437   2.266
88120W        W54903  10.332  22.249  12.514
88121W        W54904  25.537  43.289   3.641
88122W        W54905  22.369   8.577   4.963
88123W        W54906  27.728  21.051  10.137
88124W        W54907  15.852  40.064   2.192
88125W        W54908   1.164  37.007  13.003
88126W        W54909  22.427  31.621   0.987
88127W        W54910   8.924   4.317   2.830
88128W        W54911  34.964   4.450  13.863
88129W        W54912   5.841  21.612  14.868
88130W        W54913  21.287  15.752   2.167
88131W        W54914  26.002  41.098  11.116
88132W        W54915  26.930  24.647   3.207
88133W        W54916  21.607   3.744  14.422
88134W        W54917   8.131  43.918  13.415
88135W        W54918  11.258  22.970  12.092
88136W        W54919  41.895   0.463  12.890
88137W        W54920  15.790  21.708  11.450
88138W        W54921   0.306  43.794  10.602
88139W        W54922   8.930  37.478   1.703
88140W        W54923   5.749  35.073   1.423
88141W        W54924   2.843  33.109  10.746
88142W        W54925   3.435   8.680   0.689
88143W        W54926  15.729   1.468   4.889
88144W        W54927  43.346   9.875  12.483
88145W        W54928  31.122  23.726  10.708
88146W        W54929  25.599  28.884   4.741
88147W        W54930  44.734  13.101   1.461
88148W        W54931  20.947   2.790   3.286
88149W        W54932   9.651   3.158   2.213
88150W        W54933  32.638  42.281   3.890
88151W        W54934  28.066  41.963   4.773
88152W        W54935   8.140  14.978  11.084
88153W        W54936   0.668  16.536  11.820
88154W        W54937  42.260  36.522   2.386
88155W        W54938  32.354  33.119   4.107
88156W        W54939  40.235  26.989   0.737
88157W        W54940   1.808  29.014   4.357
88158W        W54941  12.368  28.539   3.213
88159W        W54942  13.656  20.051  12.861
88160W        W54943  11.141  14.369  13.545
88161W        W54944  44.003  12.382  11.718
88162W        W54945  15.820  12.152  11.583
88163W        W54946   5.478   3.328  12.896
88164W        W54947  33.921  22.065   4.097
88165W        W54948  26.653  12.301   3.276
88166W        W54949  39.497  13.635  14.922
88167W        W54950  44.287  22.323   0.120
88168W        W54951  30.537   8.368  14.095
88169W        W54952   8.161  32.897   0.445
88170W        W54953  37.580  25.662   1.446
88171W        W54954  34.567  25.240  11.456
88172W        W54955  31.571  24.484  11.684
88173W        W54956  34.859  13.230  13.235
88174W        W54957  40.946  16.877   2.168
88175W        W54958  20.233  11.292  14.008
88176W        W54959   4.298  15.900  13.530
88177W        W54960   1.915  38.657   3.179
88178W        W54961  31.488  15.857  11.511
88179W        W54962  30.598  12.452  12.446
88180W        W54963  20.542   1.148   2.153
88181W        W54964  11.221  42.504  11.592
88182W        W54965   7.842  24.139   2.183
88183W        W54966  21.047  37.846   4.543
88184W        W54967  15.812  34.345  10.221
88185W        W54968  20.659   4.666  12.916
88186W        W54969  24.038  24.951   3.064
88187W        W54970  34.466  29.655   3.919
88188W        W54971  25.023  12.546  12.085
88189W        W54972  28.088  36.506   1.455
88190W        W54973  18.888  16.104  13.286
88191W        W54974  13.098  25.140  10.682
88192W        W54975   0.530  35.410  14.121
88193W        W54976  26.959  22.998   3.240
88194W        W54977  32.832   5.137   3.185
88195W        W54978  10.697  13.070   4.697
88196W        W54979  37.928  22.813  13.888
88197W        W54980  21.776  14.784   1.360
88198W        W54981  42.231  33.963  10.492
88199W        W54982  25.584  37.441   2.532
88200W        W54983  41.571  14.250  12.070
88201W        W54984  35.292  15.211   1.263
88202W        W54985  34.017   4.981  11.188
88203W        W54986  26.460  30.604  12.854
88204W        W54987  22.208  28.874  11.080
88205W        W54988  34.552   3.417  10.545
88206W        W54989  16.232  41.363  14.231
88207W        W54990  30.836   8.077   0.952
88208W        W54991  14.572  44.689  11.187
88209W        W54992  41.430  40.650   4.195
88210W        W54993  10.131  36.515  13.377
88211W        W54994  40.445  18.551   3.224
88212W        W54995  44.731  43.782   2.879
88213W        W54996   4.790  35.601   2.649
88214W        W54997  16.550   4.649  10.751
88215W        W54998  32.030  43.428  14.159
88216W        W54999  15.126  29.456  12.605
88217W        W55000   9.707  25.931   1.404
88218W        W55001  10.781  33.790   1.329
88219W        W55002  15.600  31.698   3.096
88220W        W55003   6.366  24.221  11.123
88221W        W55004  35.650   9.700  10.493
88222W        W55005  19.961   3.075   0.403
88223W        W55006  11.175  22.655   1.194
88224W        W55007  41.355  28.441  12.462
88225W        W55008  33.617  32.935  14.225
88226W        W55009   0.476  33.658   0.957
88227W        W55010   6.380  21.265   1.686
88228W        W55011   5.480  31.722  14.062
88229W        W55012  15.263   7.630  14.005
88230W        W55013  44.448  30.249  11.145
88231W        W55014  24.237   4.437  11.326
88232W        W55015   3.354  19.947  11.450
88233W        W55016  32.170  18.112   0.234
88234W        W55017   4.353  25.570   0.211
88235W        W55018  23.605  25.574   0.289
88236W        W55019  26.376  33.939   1.271
88237W        W55020  11.886  33.996   3.669
88238W        W55021  30.009   7.380   3.794
88239W        W55022  13.355   0.717  10.673
88240W        W55023  37.364  11.982   2.724
88241W        W55024  12.147  32.877   3.529
88242W        W55025   9.316  41.054   3.231
88243W        W55026  28.174  30.450  14.798
88244W        W55027   3.928   0.889   1.327
88245W        W55028  27.026   9.022  10.991
88246W        W55029  10.435   3.914  13.631
88247W        W55030  32.876  15.722   0.961
88248W        W55031  30.613   1.528  14.098
88249W        W55032  37.488  22.516  14.960
88250W        W55033  44.494  36.502   2.900
88251W        W55034  20.307  19.147   1.480
88252W        W55035   3.797  42.013  13.620
88253W        W55036  44.903   1.802  13.246
88254W        W55037  14.592   3.896   3.363
88255W        W55038  14.393   8.903   3.530
88256W        W55039  40.387  10.672   1.892
88257W        W55040   6.432  10.175   4.242
88258W        W55041  39.537  42.699   0.880
88259W        W55042  12.536   7.625   3.346
88260W        W55043  41.982  15.689   2.798
88261W        W55044  28.577  42.849  11.892
88262W        W55045  31.342  33.947   0.878
88263W        W55046  38.122  37.404  13.081
88264W        W55047   4.544  38.066   3.287
88265W        W55048  30.981  18.732   4.061
88266W        W55049  17.826  30.001   1.090
88267W        W55050  23.721  43.260   4.945
88268W        W55051   2.398   9.327  14.256
88269W        W55052  34.981  24.816  13.947
88270W        W55053  34.652   5.397   0.651
88271W        W55054  12.148  20.517   3.453
88272W        W55055  25.210  37.583  13.435
88273W        W55056  14.136  27.885  14.128
88274W        W55057  30.205   1.367  12.312
88275W        W55058  44.382  22.463  12.793
88276W        W55059  36.611  27.978  11.232
88277W        W55060  16.216  29.623  14.403
88278W        W55061  30.633  21.153  13.464
88279W        W55062  30.619   2.833   4.100
88280W        W55063  31.900   1.998  10.510
88281W        W55064  13.824  11.655   3.671
88282W        W55065   4.496  22.049   4.550
88283W        W55066   3.989  21.624   0.947
88284W        W55067  43.551  35.386   0.813
88285W        W55068  40.396  28.387   4.131
88286W        W55069  28.728  17.786   0.798
88287W        W55070  31.881  15.070   2.776
88288W        W55071  37.933  27.301   4.130
88289W        W55072  29.766  14.591   0.051
88290W        W55073  16.248  21.761  11.176
88291W        W55074  11.139  20.724  11.459
88292W        W55075  32.935  19.309   3.155
88293W        W55076  10.901  27.451  11.380
88294W        W55077  13.712  23.071   1.371
88295W        W55078  24.047  36.411   4.738
88296W        W55079  43.089  32.410   4.843
88297W        W55080  10.847   2.754  11.463
88298W        W55081  11.781  19.190  14.307
88299W        W55082  11.175  30.557  11.881
88300W        W55083  38.102   4.001   1.472
88301W        W55084  28.179  11.747  13.773
88302W        W55085   4.876  43.491   3.181
88303W        W55086   2.387  35.111  14.770
88304W        W55087  28.154  26.948   0.118
88305W        W55088   5.133  26.489  11.361
88306W        W55089  19.119   7.781  14.767
88307W        W55090  41.917   5.176  11.834
88308W        W55091  34.934  34.833   1.844
88309W        W55092  30.874  44.942  11.640
88310W        W55093  31.063   2.861   2.322
88311W        W55094  25.450  42.453   3.099
88312W        W55095  43.379  37.615  11.587
88313W        W55096   0.387  14.971   4.855
88314W        W55097  29.062  16.400   2.359
88315W        W55098  25.264   3.090  14.861
88316W        W55099   7.348  23.423  12.031
88317W        W55100  33.990   9.831  14.574
88318W        W55101  21.356  27.782   3.128
88319W        W55102   6.877  31.393   1.849
88320W        W55103  12.093  44.909  11.987
88321W        W55104  16.888   2.098   2.780
88322W        W55105  22.789  35.611  11.525
88323W        W55106  28.516  21.132  14.003
88324W        W55107  29.907  23.794   2.978
88325W        W55108  44.915  28.939   3.104
88326W        W55109  41.917   0.510   3.865
88327W        W55110  19.726  11.553  12.593
88328W        W55111  15.265  43.758   4.156
88329W        W55112  15.061  33.556  10.566
88330W        W55113  35.166  42.326  14.887
88331W        W55114  25.362  17.233  11.962
88332W        W55115   6.424   9.449   2.146
88333W        W55116   5.808  18.106  13.619
88334W        W55117  33.056   2.259  14.937
88335W        W55118  15.060  27.088   1.304
88336W        W55119  42.819   9.403  12.104
88337W        W55120  10.610   1.895   3.372
88338W        W55121  17.673   7.366  14.030
88339W        W55122  25.709   0.595   4.530
88340W        W55123  39.878  32.606  12.450
88341W        W55124  43.414   0.529   3.328
88342W        W55125  13.391  34.293  11.027
88343W        W55126  15.619  40.255  10.970
88344W        W55127  40.523  34.545  10.665
88345W        W55128  18.277   5.852  11.233
88346W        W55129  43.446   3.950  14.883
88347W        W55130  38.340  15.457  11.694
88348W        W55131  40.987   0.377  14.505
88349W        W55132  31.427  32.221   3.868
88350W        W55133  16.118  42.922  11.209
88351W        W55134  22.222  19.138   1.441
88352W        W55135  19.521  35.044   2.621
88353W        W55136  31.895  11.456  13.949
88354W        W55137   7.243  27.717   4.588
88355W        W55138  14.155  31.859  11.574
88356W        W55139  10.724  43.892   0.145
88357W        W55140  16.632  17.884   1.186
88358W        W55141  22.934  14.820   3.268
88359W        W55142  36.757  33.584  14.444
88360W        W55143  31.010  44.325  14.204
88361W        W55144  37.430  27.201   2.817
88362W        W55145  36.868  35.697  13.359
88363W        W55146  18.419   7.151  13.424
88364W        W55147  34.995  13.602  14.824
88365W        W55148  17.872  13.717   1.206
88366W        W55149   7.253  15.176  11.935
88367W        W55150   8.456  29.801   2.290
88368W        W55151  36.390  44.307  11.990
88369W        W55152  30.136  10.885   4.504
88370W        W55153   8.806   8.264  13.851
88371W        W55154  19.175   7.128  13.534
88372W        W55155  25.238   4.239  14.901
88373W        W55156  38.468  30.233   2.843
88374W        W55157  43.260   4.949  12.157
88375W        W55158  38.390  31.993   0.408
88376W        W55159  39.502  42.393  11.495
88377W        W55160  20.907  38.891   2.919
88378W        W55161  38.674   1.761   3.143
88379W        W55162  19.209  19.775  14.476
88380W        W55163  26.092  17.111   1.302
88381W        W55164   8.648  15.546  12.392
88382W        W55165  20.939   1.696  13.990
88383W        W55166  19.601  13.186  14.398
88384W        W55167  10.797   1.288   4.732
88385W        W55168   0.379  21.493  10.735
88386W        W55169  10.212  26.091   1.380
88387W        W55170  14.383  43.880   0.702
88388W        W55171  21.767  40.728   1.309
88389W        W55172  20.105  37.280  14.770
88390W        W55173  35.142  27.017   1.458
88391W        W55174  22.196  36.038  14.270
88392W        W55175  12.645  39.780  11.431
88393W        W55176  43.852  20.790  13.437
88394W        W55177  18.019  16.998  13.163
88395W        W55178   3.339  40.985   0.940
88396W        W55179  10.890  25.443   1.344
88397W        W55180  31.887   0.598  13.402
88398W        W55181  21.618  24.849  10.708
88399W        W55182  38.508   0.527  13.710
88400W        W55183  30.436   6.484  14.967
88401W        W55184  25.714  12.365   3.076
88402W        W55185  29.593  16.424  11.108
88403W        W55186   4.633  23.221   2.499
88404W        W55187  40.869  28.073  12.884
88405W        W55188  42.257  28.212  10.950
88406W        W55189  28.441  28.643   3.185
88407W        W55190  17.211  15.149   4.082
88408W        W55191   5.240  40.843  14.492
88409W        W55192   4.679  29.213  11.026
88410W        W55193   8.675  22.690   3.168
88411W        W55194  40.299  20.420  10.975
88412W        W55195  40.980  12.763  10.703
88413W        W55196  43.216  16.702  13.377
88414W        W55197  11.704  32.017   2.434
88415W        W55198   1.883  13.196   1.367
88416W        W55199   3.494   3.602   1.831
88417W        W55200  18.016   4.203  12.456
88418W        W55201  25.874  18.697  14.966
88419W        W55202  18.273   2.454  14.490
88420W        W55203  43.188  12.320  11.254
88421W        W55204  43.880   2.654   1.374
88422W        W55205   3.800   9.825  12.859
88423W        W55206  14.641  26.485   2.846
88424W        W55207  25.989  14.537   3.127
88425W        W55208  27.223  43.941   5.088
88426W        W55209  38.828  35.413   0.830
88427W        W55210  14.719  41.644  10.722
88428W        W55211  20.138  32.153  12.050
88429W        W55212   7.997  28.464  12.385
88430W        W55213  21.552  36.837  11.126
88431W        W55214  11.305  12.062  13.032
88432W        W55215  44.454   0.414  12.778
88433W        W55216  23.225  41.909  12.807
88434W        W55217  37.306  39.055  10.718
88435W        W55218  13.241  32.052   1.309
88436W        W55219  33.752  44.390  12.764
88437W        W55220  39.020  21.489   9.992
88438W        W55221  18.573  40.764   2.221
88439W        W55222   6.184   5.318  10.425
88440W        W55223   9.803  44.744   1.888
88441W        W55224   5.586  34.808   0.006
88442W        W55225  36.500  38.858  12.182
88443W        W55226  34.602  37.987  11.578
88444W        W55227  36.475  42.542  13.389
88445W        W55228  33.959  41.234   4.100
88446W        W55229  39.108  40.742   1.608
88447W        W55230  43.496  24.192   2.803
88448W        W55231  16.903  23.329  12.921
88449W        W55232  10.289  35.789   4.614
88450W        W55233  39.838  21.174  12.181
88451W        W55234   4.434  41.858  14.921
88452W        W55235   5.780   8.989   4.108
88453W        W55236  19.930  33.952  14.896
88454W        W55237  23.137   1.215   2.650
88455W        W55238  17.636   3.740   4.442
88456W        W55239  24.562  13.297  13.004
88457W        W55240   3.720  22.759   2.885
88458W        W55241  39.572  13.740   2.788
88459W        W55242  11.743  31.764  13.069
88460W        W55243   0.152  42.585   3.164
88461W        W55244  38.808   1.213   0.110
88462W        W55245  13.863   9.356  13.641
88463W        W55246  19.763  36.115  11.647
88464W        W55247  26.837  16.474   4.664
88465W        W55248  28.181  27.106  11.101
88466W        W55249  44.919  42.271  10.925
88467W        W55250  25.585  35.038  13.399
88468W        W55251  33.619  33.074  10.972
88469W        W55252  38.439   8.129  13.957
88470W        W55253  21.840  34.162   1.316
88471W        W55254   1.841   0.493  10.748
88472W        W55255   9.074  43.232  14.372
88473W        W55256  43.650   4.998   4.527
88474W        W55257   7.235  21.042  10.912
88475W        W55258  29.533   0.237  14.829
88476W        W55259   8.790   1.405   3.052
88477W        W55260  16.163   2.029  14.175
88478W        W55261  36.327  42.451  10.433
88479W        W55262  10.332  39.586  14.168
88480W        W55263  37.854   9.777   2.242
88481W        W55264   8.878  23.597   1.731
88482W        W55265   3.542  36.068   2.676
88483W        W55266  40.807  10.097   1.204
88484W        W55267  12.113  28.459   4.102
88485W        W55268  33.344  38.486  12.948
88486W        W55269   4.870   1.378   1.919
88487W        W55270  20.096  37.953   1.214
88488W        W55271  28.575  39.587   4.141
88489W        W55272  11.323  40.639  12.022
88490W        W55273  39.931   9.448   3.745
88491W        W55274  18.823  18.084  11.969
88492W        W55275  11.852   2.460   2.917
88493W        W55276   3.811  22.482  13.460
88494W        W55277  19.580  38.366   1.726
88495W        W55278   3.914  33.162   1.491
88496W        W55279  11.924  23.283  14.332
88497W        W55280  36.442  39.396   3.090
88498W        W55281  44.811   9.266  13.113
88499W        W55282  11.168   0.713  13.061
88500W        W55283   2.499  42.833   2.379
88501W        W55284  24.552  22.298   0.398
88502W        W55285  30.714  14.366  13.367
88503W        W55286  44.871  34.819  12.964
88504W        W55287  24.720  36.001   1.303
88505W        W55288  37.003  16.014  11.626
88506W        W55289  24.928   7.614   2.205
88507W        W55290  38.281  23.578   3.246
88508W        W55291  29.484   2.731  11.639
88509W        W55292  25.375  32.370   1.396
88510W        W55293  41.017  40.094   0.846
88511W        W55294  40.369  12.041   4.757
88512W        W55295  22.309  17.387   1.820
88513W        W55296  18.546   0.715   3.212
88514W        W55297  29.995  44.497   2.566
88515W        W55298  35.870  28.422   4.176
88516W        W55299   0.394   4.604  12.296
88517W        W55300   7.291  12.229   0.840
88518W        W55301  19.339   3.927   4.632
88519W        W55302  39.965   1.418   2.398
88520W        W55303  33.623  18.088  10.748
88521W        W55304   5.409  24.721  11.186
88522W        W55305  33.539  33.654   4.988
88523W        W55306  30.343  15.080  12.871
88524W        W55307  30.562  35.410  14.924
88525W        W55308  27.986   2.441   3.621
88526W        W55309  19.281   5.323  11.102
88527W        W55310  33.179  24.519   4.110
88528W        W55311   8.950  29.644   2.259
88529W        W55312  15.194   0.204  10.643
88530W        W55313  42.512   5.820   5.215
88531W        W55314  25.027  12.626   3.077
88532W        W55315   2.337  26.332  11.228
88533W        W55316  21.149  10.866  13.949
88534W        W55317  16.615   2.185   2.302
88535W        W55318  39.760  23.819  14.423
88536W        W55319  43.898  42.527  10.604
88537W        W55320  36.331  20.360  10.683
88538W        W55321  18.320  11.812   3.428
88539W        W55322   8.087  37.544   4.080
88540W        W55323  26.610  15.507  13.435
88541W        W55324  30.912  13.144   1.274
88542W        W55325  16.313  30.919   0.898
88543W        W55326  39.406  33.503  10.591
88544W        W55327  32.815  19.562  12.535
88545W        W55328  38.490   3.015   1.860
88546W        W55329   0.442  15.534  11.555
88547W        W55330   5.577  12.313  12.092
88548W        W55331   2.351   8.248   4.180
88549W        W55332  26.734  14.175   3.214
88550W        W55333   4.483  42.713   5.127
88551W        W55334  24.956   0.856   0.369
88552W        W55335  30.785   0.754  10.711
88553W        W55336  41.970   6.719   3.273
88554W        W55337  12.443  32.561   2.365
88555W        W55338  17.315  30.379  12.187
88556W        W55339   9.205  39.249   1.507
88557W        W55340   2.979  38.888   0.927
88558W        W55341  42.944  21.318   1.985
88559W        W55342  35.212  27.136  11.423
88560W        W55343  18.631   4.977   0.892
88561W        W55344  31.524   9.194   4.479
88562W        W55345  20.989   5.849  11.705
88563W        W55346  23.612  22.703   2.798
88564W        W55347   3.746   4.719   0.429
88565W        W55348   1.213  17.874   4.102
88566W        W55349  24.444   0.210  13.491
88567W        W55350  21.732  14.769   4.525
88568W        W55351  20.057  34.951   3.179
88569W        W55352   4.620  20.244   1.416
88570W        W55353  18.284  29.061   4.580
88571W        W55354   8.290  44.247   1.333
88572W        W55355  25.078  44.337   0.230
88573W        W55356  32.617   9.326   1.878
88574W        W55357  22.217  35.890   2.185
88575W        W55358  10.698  16.610   4.925
88576W        W55359  43.819  30.478  14.947
88577W        W55360  19.683  39.171  11.511
88578W        W55361   2.512   6.996   4.935
88579W        W55362   4.246  37.682   2.588
88580W        W55363  12.870   1.909   1.451
88581W        W55364  43.428   4.609   2.695
88582W        W55365  31.645  11.187   2.105
88583W        W55366  33.035  30.453   0.535
88584W        W55367  29.347  44.928  12.595
88585W        W55368  42.425  37.056   3.720
88586W        W55369  11.744  20.792   2.220
88587W        W55370  40.919  39.779  11.929
88588W        W55371   6.355  37.618  14.450
88589W        W55372  44.534   9.971  13.062
88590W        W55373  16.122  42.158  11.432
88591W        W55374  10.091   9.201  12.572
88592W        W55375  18.669   3.143   1.615
88593W        W55376  25.163  32.185   2.712
88594W        W55377  43.887  10.317   0.029
88595W        W55378  15.185  33.861   1.264
88596W        W55379  34.107  11.328  13.340
88597W        W55380  38.470  35.401  14.845
88598W        W55381  21.190  30.017  11.951
88599W        W55382  36.249  39.523   4.099
88600W        W55383  39.485  22.409   2.196
88601W        W55384  16.878  18.955   1.799
88602W        W55385   3.857  29.477   4.074
88603W        W55386  19.561   8.512  13.949
88604W        W55387   0.887  38.550  13.888
88605W        W55388  32.722   5.877  14.419
88606W        W55389   3.782   1.558  14.916
88607W        W55390   7.136  18.187   0.801
88608W        W55391  16.479  19.231   1.237
88609W        W55392  39.917  20.256  13.101
88610W        W55393  30.735  35.517  14.038
88611W        W55394  38.899  30.845  14.920
88612W        W55395  28.964  22.667   0.351
88613W        W55396  28.114   6.949  14.318
88614W        W55397   1.494  23.166   0.606
88615W        W55398   7.124  37.466   3.555
88616W        W55399  38.561  33.339   0.263
88617W        W55400  16.740  44.115   3.658
88618W        W55401  37.557  15.965   0.945
88619W        W55402  34.535  40.076   0.451
88620W        W55403  21.231   8.686   4.024
88621W        W55404  34.496  42.195  10.711
88622W        W55405  15.180  25.745  12.413
88623W        W55406  37.529  15.572   2.728
88624W        W55407  32.520  10.174   2.225
88625W        W55408  44.941  23.272   0.185
88626W        W55409   2.821   0.021  13.535
88627W        W55410   2.932  13.663  14.879
88628W        W55411  26.145  22.113  10.642
88629W        W55412  39.585  11.116  13.590
88630W        W55413  32.888  35.273   2.720
88631W        W55414  20.755  26.443  10.698
88632W        W55415  41.851   9.816  10.557
88633W        W55416  20.000  26.422  12.451
88634W        W55417  13.806   3.001   0.438
88635W        W55418   0.367  33.828  13.546
88636W        W55419  35.226   2.757   2.798
88637W        W55420  17.492  40.775  11.041
88638W        W55421  16.163  19.604   1.508
88639W        W55422  12.155  31.198  11.516
88640W        W55423  15.532   8.225  11.123
88641W        W55424   6.392  21.499   1.186
88642W        W55425   4.125  24.525   2.430
88643W        W55426  30.049   5.367  12.022
88644W        W55427  43.564  43.725  13.317
88645W        W55428  18.197   5.534   1.748
88646W        W55429  43.429   7.658   0.451
88647W        W55430  16.119  41.380  11.906
88648W        W55431  42.049  20.387  14.006
88649W        W55432  34.622   0.458  13.907
88650W        W55433  32.740   9.814   2.847
88651W        W55434  19.067  11.208   2.422
88652W        W55435   9.818  39.154   3.200
88653W        W55436  42.112  25.232  10.069
88654W        W55437  17.235  33.467   2.574
88655W        W55438  14.130  10.111   4.757
88656W        W55439  17.707  42.876   2.732
88657W        W55440  37.007  14.762   2.864
88658W        W55441  23.720  44.911   0.304
88659W        W55442   1.045  41.232  11.713
88660W        W55443  12.093  26.348   3.113
88661W        W55444  35.609  18.253   4.091
88662W        W55445  32.926  20.679   3.142
88663W        W55446  11.989   9.759   0.643
88664W        W55447  25.987   2.402  11.868
88665W        W55448  18.527  36.584  14.779
88666W        W55449  39.511  11.491   4.659
88667W        W55450  40.382   4.726   3.662
88668W        W55451   9.167  39.097   0.530
88669W        W55452  27.994  32.976  13.948
88670W        W55453  27.884  38.391   1.511
88671W        W55454  13.575  34.573   2.700
88672W        W55455   5.296  22.965   1.922
88673W        W55456   7.378  11.324  13.949
88674W        W55457   7.047  34.257   0.431
88675W        W55458  22.684  11.145   0.496
88676W        W55459  23.499  33.064  13.303
88677W        W55460  23.167  43.358  14.968
88678W        W55461  25.716  21.283  13.623
88679W        W55462  20.724  13.254  11.166
88680W        W55463  38.021  31.573  12.423
88681W        W55464  43.321  35.597  13.625
88682W        W55465  37.435  10.195   2.561
88683W        W55466  25.531  23.572   1.653
88684W        W55467  19.788  16.724  13.963
88685W        W55468  30.920  13.670   3.949
88686W        W55469  41.808   3.393  14.862
88687W        W55470  35.520  14.093   0.801
88688W        W55471  20.760  42.381  10.892
88689W        W55472   5.335  16.068  11.202
88690W        W55473   4.544  20.092   2.396
88691W        W55474  17.570  40.903   2.392
88692W        W55475  35.032  31.432   0.245
88693W        W55476  36.390  18.813  13.637
88694W        W55477  14.824  36.618   0.445
88695W        W55478  28.051   0.479   0.895
88696W        W55479  44.515  10.211   4.413
88697W        W55480  35.342  27.530   0.754
88698W        W55481  43.372  28.657   3.236
88699W        W55482  29.916   1.493   4.609
88700W        W55483  32.832  34.506  12.731
88701W        W55484  43.085  35.388  14.036
88702W        W55485  40.876  29.623  12.966
88703W        W55486  11.353  37.535   3.618
88704W        W55487  13.619  38.021  12.445
88705W        W55488  31.989   3.646   4.288
88706W        W55489  40.895  12.288   3.625
88707W        W55490  16.719  23.194  13.412
88708W        W55491  34.695  38.428   1.093
88709W        W55492   2.249  16.118   0.107
88710W        W55493  30.190   1.944   4.663
88711W        W55494  15.290  33.192   4.604
88712W        W55495  41.489  37.471   3.208
88713W        W55496  41.440   8.674  13.077
88714W        W55497  13.632  41.565  11.149
88715W        W55498  17.911  12.318   4.010
88716W        W55499   4.251   3.131   0.535
88717W        W55500  12.998  27.904   1.474
88718W        W55501  21.444  40.892  11.511
88719W        W55502   4.678   0.034   0.905
88720W        W55503  18.212  42.267   2.318
88721W        W55504  37.516   0.388   1.989
88722W        W55505  24.708  42.641  11.478
88723W        W55506  38.518  21.686   3.477
88724W        W55507  42.194   1.730  14.881
88725W        W55508   8.230  42.677   0.587
88726W        W55509  10.371  13.322  11.514
88727W        W55510  26.451  36.502  12.975
88728W        W55511   4.880   3.911   0.266
88729W        W55512  41.322  31.052  13.550
88730W        W55513  41.848  28.754  14.393
88731W        W55514  36.367  16.176  12.356
88732W        W55515  42.351  20.289  12.100
88733W        W55516  27.963   5.826   0.982
88734W        W55517  20.907  35.716  12.024
88735W        W55518   4.355  10.515  12.873
88736W        W55519  16.826   6.809   1.366
88737W        W55520  35.414   6.823  13.068
88738W        W55521  13.346   9.132  10.884
88739W        W55522  44.827   2.282  10.698
88740W        W55523  16.896   4.907  13.419
88741W        W55524   5.637   1.781   3.864
88742W        W55525   0.925  24.540   1.448
88743W        W55526   7.643  13.726  10.667
88744W        W55527   4.668  22.041  11.058
88745W        W55528  22.551  13.714  12.153
88746W        W55529  11.694   2.976  12.912
88747W        W55530  34.867  29.827   2.367
88748W        W55531  20.204  21.110   4.572
88749W        W55532   8.935  26.738   0.738
88750W        W55533  21.162  20.713   4.698
88751W        W55534  19.755  25.010  14.384
88752W        W55535  37.917  39.554  13.014
88753W        W55536  11.472  26.259   1.845
88754W        W55537   0.079  41.475  12.457
88755W        W55538  30.677  43.477   1.665
88756W        W55539  12.593  31.111   3.707
88757W        W55540  31.435  26.510   4.551
88758W        W55541  37.972   7.650  10.524
88759W        W55542  21.937  29.524   1.254
88760W        W55543  24.137   1.551   5.253
88761W        W55544  29.375  38.871  14.489
88762W        W55545  23.452  11.183  14.455
88763W        W55546   9.693  11.150  11.091
88764W        W55547  26.681  31.201  11.988
88765W        W55548  30.843  24.166  10.671
88766W        W55549  41.879  33.970   3.642
88767W        W55550   9.594  18.727   2.115
88768W        W55551  23.844  38.350   3.667
88769W        W55552  44.862  24.585  11.273
88770W        W55553  38.434  33.296  13.931
88771W        W55554   5.973  27.526   3.718
88772W        W55555  16.787  43.141   2.887
88773W        W55556  22.022  16.880   0.661
88774W        W55557   9.837  34.661   4.172
88775W        W55558   1.260   2.713  12.245
88776W        W55559  33.022  30.652   4.629
88777W        W55560   7.215  22.321   3.670
88778W        W55561  38.238  21.302   2.746
88779W        W55562  38.879  26.704   3.735
88780W        W55563   1.059  28.620  13.359
88781W        W55564  25.570  14.611   2.182
88782W        W55565  20.985  21.711  12.442
88783W        W55566  26.718  27.973  13.356
88784W        W55567  23.880  24.205   0.816
88785W        W55568  26.180  31.194   4.698
88786W        W55569   7.122  41.906  13.414
88787W        W55570   2.370  22.332  11.996
88788W        W55571   0.301   9.763   1.953
88789W        W55572  25.534  20.580  14.695
88790W        W55573  24.203  33.175  14.386
88791W        W55574  28.834   0.240   1.339
88792W        W55575  12.323  21.512   4.649
88793W        W55576   5.957  38.854  14.833
88794W        W55577   0.460  22.088   2.275
88795W        W55578  22.512   5.056  13.989
88796W        W55579  41.293  15.586   2.007
88797W        W55580  37.022  15.108   3.276
88798W        W55581  35.072  27.462  12.606
88799W        W55582  27.226  27.515  14.512
88800W        W55583  26.606  13.687  11.020
88801W        W55584  18.772  34.599   1.856
88802W        W55585  22.273  33.934  11.206
88803W        W55586  40.067  32.049  14.490
88804W        W55587  35.902   6.237   3.029
88805W        W55588  24.246   6.808   0.424
88806W        W55589  15.895  33.929  14.886
88807W        W55590  33.472  13.023  11.664
88808W        W55591   6.035  35.962   9.933
88809W        W55592  34.128   8.677  12.799
88810W        W55593  20.085  22.957  12.610
88811W        W55594  38.489  44.016  13.026
88812W        W55595  25.950  29.221  11.491
88813W        W55596  18.337  17.748  14.858
88814W        W55597  28.975  35.662   2.120
88815W        W55598   1.902  37.497   4.608
88816W        W55599  12.266  34.112   4.170
88817W        W55600   3.672   7.146   1.309
88818W        W55601  24.534  22.986  14.248
88819W        W55602  33.122   8.233   1.343
88820W        W55603   5.764  39.686  12.330
88821W        W55604  18.714   4.937  13.153
88822W        W55605   6.439  21.152  11.721
88823W        W55606  35.524  32.422   0.885
88824W        W55607  14.327  11.179   4.139
88825W        W55608  26.660  28.949   1.119
88826W        W55609   6.730  24.039  10.798
88827W        W55610  23.460  20.712  12.630
88828W        W55611   4.882  16.359   2.082
88829W        W55612   1.852  13.794   2.627
88830W        W55613   9.082  23.643  13.428
88831W        W55614  11.693  19.803   0.672
88832W        W55615  22.794   9.391   1.709
88833W        W55616  36.177   6.939   3.607
88834W        W55617  28.143  14.279   0.896
88835W        W55618  28.206   2.761   4.588
88836W        W55619   0.796  40.369  13.313
88837W        W55620   7.249  28.429  12.621
88838W        W55621  36.343  42.372   4.130
88839W        W55622   7.398  19.721  12.926
88840W        W55623  35.028  25.238  12.070
88841W        W55624  12.634  33.229  13.518
88842W        W55625  22.032  14.218   1.383
88843W        W55626  33.141  20.879   4.187
88844W        W55627  35.865  18.085   3.635
88845W        W55628  18.254  32.933   4.267
88846W        W55629  36.984  44.769  12.405
88847W        W55630  33.478  43.212  12.442
88848W        W55631  34.664  26.480   4.551
88849W        W55632  24.557   4.193   0.222
88850W        W55633   1.425  22.300   4.924
88851W        W55634  30.159  17.009   3.244
88852W        W55635  34.144  19.472  11.829
88853W        W55636  38.936  27.149  11.183
88854W        W55637   2.005   8.114   0.399
88855W        W55638  37.414  11.779  13.408
88856W        W55639   5.840  41.848  11.581
88857W        W55640  16.346  14.039   2.844
88858W        W55641   9.912  42.906  10.773
88859W        W55642  39.445   2.674   4.419
88860W        W55643  14.113   8.108   3.394
88861W        W55644   5.830  20.694   4.617
88862W        W55645   1.019  10.888  13.568
88863W        W55646  20.462  32.177   0.715
88864W        W55647  41.914  22.342  13.263
88865W        W55648  23.994  16.075   5.064
88866W        W55649  31.986  40.452  14.291
88867W        W55650  30.221  13.131   1.911
88868W        W55651  42.988  43.370   3.375
88869W        W55652   8.894   8.676  12.153
88870W        W55653  43.364  44.997  12.481
88871W        W55654  20.182   4.835   1.801
88872W        W55655   4.132   2.012   3.658
88873W        W55656  24.580   9.404   1.644
88874W        W55657  38.209   1.077  11.273
88875W        W55658  35.636  20.857  11.977
88876W        W55659  16.031  19.270  14.328
88877W        W55660  22.817  13.115   1.783
88878W        W55661  20.600  24.709   0.409
88879W        W55662   4.438   2.345  12.548
88880W        W55663  20.696  14.206   0.522
88881W        W55664  17.067   7.186  11.949
88882W        W55665  43.737  24.045   3.234
88883W        W55666  10.959  28.112   4.283
88884W        W55667  10.748  44.353   1.965
88885W        W55668  15.696  36.558   3.865
88886W        W55669  43.838  27.271  12.065
88887W        W55670   9.452   4.951   4.071
88888W        W55671  44.841  21.131   1.982
88889W        W55672  10.020  23.734   3.311
88890W        W55673  44.621  25.554  13.896
88891W        W55674  15.044  11.102  12.103
88892W        W55675  19.763   2.058   3.319
88893W        W55676  35.318   4.470  10.603
88894W        W55677   1.373  26.944  11.805
88895W        W55678  21.335  23.772  10.090
88896W        W55679  28.995   7.554   1.728
88897W        W55680  15.776   7.498   1.718
88898W        W55681  41.504  43.144  11.532
88899W        W55682  40.281  17.850   3.616
88900W        W55683  43.363   7.231  14.723
88901W        W55684   9.675  40.408  10.677
88902W        W55685  44.918  43.775   0.033
88903W        W55686   1.009  43.792   4.646
88904W        W55687  27.479   5.810   0.781
88905W        W55688  12.760   4.654  13.706
88906W        W55689  31.128   2.006   4.440
88907W        W55690  20.840  36.094  13.789
88908W        W55691  19.153  18.766   1.948
88909W        W55692  15.745   6.711   2.272
88910W        W55693  14.586   7.360   0.921
88911W        W55694  36.697   3.772   0.916
88912W        W55695  42.269   4.525  13.085
88913W        W55696  14.795   0.940  10.151
88914W        W55697  42.033  23.035  12.065
88915W        W55698  25.126  33.359  10.981
88916W        W55699  32.516   7.851   4.063
88917W        W55700  35.303  30.395   2.814
88918W        W55701  12.022  11.276   4.886
88919W        W55702   9.485  18.287   2.415
88920W        W55703  43.935   1.059  12.077
88921W        W55704   1.883  11.273  10.818
88922W        W55705  44.274  42.426  13.076
88923W        W55706  18.259  10.388   4.867
88924W        W55707  28.875  13.465  14.391
88925W        W55708   6.152  30.549   5.203
88926W        W55709   1.467  14.674  12.041
88927W        W55710  21.577  41.224  13.116
88928W        W55711  22.114  42.492   3.864
88929W        W55712  18.622  25.730   2.235
88930W        W55713  37.084   7.924  13.798
88931W        W55714  32.756  20.830  13.897
88932W        W55715  33.793  40.857  13.896
88933W        W55716  41.979  30.530   0.497
88934W        W55717  11.390   6.910  12.097
88935W        W55718  19.831  41.484   2.743
88936W        W55719  15.333  37.457   1.632
88937W        W55720   4.831  13.891   3.652
88938W        W55721  32.515  39.960  13.768
88939W        W55722   5.664  33.566  12.604
88940W        W55723  11.557  18.822  10.381
88941W        W55724  12.353  41.980   0.392
88942W        W55725  17.607   6.350  13.977
88943W        W55726  22.679  15.461  14.378
88944W        W55727  11.810  21.605  13.124
88945W        W55728  23.580  28.078  12.572
88946W        W55729  43.037  37.880   1.968
88947W        W55730  34.187  27.485  12.002
88948W        W55731   3.461  18.306   0.157
88949W        W55732   8.342  31.619  12.372
88950W        W55733  15.522  14.272  11.974
88951W        W55734  42.430  26.895  11.847
88952W        W55735  31.984  16.016   2.335
88953W        W55736  18.735  11.084   3.250
88954W        W55737   7.709  30.032   1.894
88955W        W55738   4.722   8.981  14.573
88956W        W55739  18.166  24.919   2.280
88957W        W55740  15.810  28.604  10.797
88958W        W55741  35.903  39.052  12.859
88959W        W55742   6.852  13.156   2.337
88960W        W55743  27.961   1.018  11.092
88961W        W55744   5.762  10.920  10.720
88962W        W55745   3.358  22.194  10.619
88963W        W55746  33.719   2.890  11.828
88964W        W55747  15.340  24.080  11.863
88965W        W55748  28.470   6.023  12.003
88966W        W55749  24.704   9.046  13.091
88967W        W55750  30.543  36.279  10.728
88968W        W55751  40.591  15.781  12.289
88969W        W55752  35.535   6.852  12.141
88970W        W55753  37.266  10.765   0.959
88971W        W55754  42.323   0.238   0.332
88972W        W55755  38.471  17.992  10.704
88973W        W55756  33.379  12.190  11.147
88974W        W55757   8.125   1.629  14.027
88975W        W55758   8.658  37.396  13.017
88976W        W55759  14.570  44.351   0.915
88977W        W55760  34.914  31.790  12.464
88978W        W55761  19.172  26.281   0.817
88979W        W55762  36.074  11.160  11.542
88980W        W55763  23.832  20.427   2.224
88981W        W55764  34.638  19.046  14.065
88982W        W55765  35.014  13.359  13.713
88983W        W55766  44.243   5.303  14.278
88984W        W55767  39.559  28.068   0.814
88985W        W55768  39.194  31.399   0.385
88986W        W55769  33.947   5.356   0.804
88987W        W55770  12.285  35.835   3.553
88988W        W55771  23.945  15.573   2.317
88989W        W55772  11.312   5.460   0.266
88990W        W55773  32.642  24.239  12.164
88991W        W55774  36.420   2.845   4.607
88992W        W55775   4.253   1.942  11.967
88993W        W55776  20.038   1.529  14.052
88994W        W55777  41.697  44.931  10.453
88995W        W55778  17.448  20.121  14.755
88996W        W55779  24.143  17.029  12.982
88997W        W55780  39.174  33.083   1.301
88998W        W55781  38.152  10.191  14.927
88999W        W55782  38.906  24.191  10.772
89000W        W55783  37.075  22.586  11.461
89001W        W55784  43.985   1.933  14.069
89002W        W55785   4.335   5.359   0.986
89003W        W55786  10.272  44.246  13.817
89004W        W55787   2.326   3.135  14.468
89005W        W55788  34.474  15.815  11.054
89006W        W55789   9.868  12.604   4.391
89007W        W55790  32.987  12.518   0.555
89008W        W55791  13.584  32.664  14.142
89009W        W55792  19.812  40.782   3.241
89010W        W55793  10.437   0.960   4.519
89011W        W55794  36.434  27.378  13.590
89012W        W55795   5.410   1.155  11.226
89013W        W55796  19.742   7.332  13.578
89014W        W55797  21.571  22.592   4.684
89015W        W55798  38.794  22.080   3.693
89016W        W55799  31.857  28.474  11.961
89017W        W55800   8.803  38.856  14.249
89018W        W55801  44.829   8.896  14.798
89019W        W55802   5.770  18.217  14.503
89020W        W55803   8.613  22.682  11.501
89021W        W55804  32.815  22.280  11.325
89022W        W55805  11.702  28.540  10.670
89023W        W55806   4.908  33.017   1.964
89024W        W55807   5.308  16.894  13.360
89025W        W55808  14.568   2.479   1.746
89026W        W55809  29.037  13.441   0.278
89027W        W55810  12.859  34.059   1.888
89028W        W55811  27.975  39.613  11.193
89029W        W55812  16.270  38.568  13.421
89030W        W55813  21.929   8.756   0.389
89031W        W55814  43.779  42.545   0.732
89032W        W55815  20.247   0.406   3.154
89033W        W55816  44.884   0.057  13.411
89034W        W55817  41.459  37.808   1.210
89035W        W55818   7.298  42.868   2.782
89036W        W55819  29.143  37.642  10.110
89037W        W55820   0.783  35.501   3.692
89038W        W55821  40.957  44.273   3.136
89039W        W55822  41.361  22.009  14.502
89040W        W55823   1.732  16.149  12.008
89041W        W55824  13.110  31.688  12.944
89042W        W55825  39.407  21.010  11.976
89043W        W55826  27.945  18.635   0.026
89044W        W55827  39.369  13.776  13.113
89045W        W55828  32.197   3.964  13.076
89046W        W55829  31.825  16.729  14.762
89047W        W55830  36.577  26.335  12.776
89048W        W55831   7.023  18.336   4.965
89049W        W55832  26.694  19.652   2.326
89050W        W55833  41.863  16.477   2.499
89051W        W55834  19.111  20.026  14.925
89052W        W55835  15.768   7.587  14.830
89053W        W55836  31.361  40.257  11.790
89054W        W55837   7.791  44.318  13.459
89055W        W55838  32.016  13.286   4.523
89056W        W55839  20.383  20.600   4.643
89057W        W55840  12.368  14.631  12.318
89058W        W55841   2.002   2.314  11.013
89059W        W55842  21.037  32.923   2.846
89060W        W55843   1.911  35.964  14.975
89061W        W55844   2.610  40.026   2.256
89062W        W55845  30.452  30.656  14.776
89063W        W55846  13.644  10.249  11.353
89064W        W55847  20.552  13.803  14.176
89065W        W55848  34.527  29.694   3.407
89066W        W55849  25.194  19.184   0.270
89067W        W55850   2.808  23.735  14.766
89068W        W55851  10.376  38.737   5.036
89069W        W55852  21.177   9.678  12.948
89070W        W55853   7.160  25.289  13.931
89071W        W55854  19.786  13.525  10.984
89072W        W55855   3.178   9.190   2.746
89073W        W55856  26.314   2.941   3.829
89074W        W55857  37.821  43.506  14.723
89075W        W55858  39.295  14.809  12.045
89076W        W55859  17.694   7.246  14.970
89077W        W55860  40.478  41.495   0.912
89078W        W55861  40.435  12.333  10.945
89079W        W55862   8.232  31.770  11.060
89080W        W55863  42.753  15.859   4.919
89081W        W55864  21.823  27.167  10.616
89082W        W55865  12.673   2.328   2.721
89083W        W55866   0.135  10.874   0.668
89084W        W55867  40.143  33.046  12.423
89085W        W55868  17.768  15.249  13.548
89086W        W55869   4.605  36.895   2.784
89087W        W55870  42.011  27.511   2.123
89088W        W55871  12.933  31.278   2.361
89089W        W55872  35.938   9.472   1.658
89090W        W55873  28.140   8.213   1.507
89091W        W55874  27.864  44.461  13.097
89092W        W55875  36.970  27.833  14.332
89093W        W55876   8.181   8.975  14.434
89094W        W55877  12.369  21.887   3.211
89095W        W55878  27.679  12.260   3.244
89096W        W55879  38.914   5.336  14.890
89097W        W55880  32.376   1.787   3.708
89098W        W55881  40.452  37.342   3.677
89099W        W55882  27.360  15.755  14.986
89100W        W55883  27.232   3.822   2.710
89101W        W55884  19.318  27.092  13.457
89102W        W55885  24.233  26.850   1.740
89103W        W55886  42.326   5.659   3.749
89104W        W55887  15.187  12.367  12.514
89105W        W55888  16.204   8.226  13.579
89106W        W55889  39.773  42.469  11.073
89107W        W55890  34.497  33.368  12.025
89108W        W55891  35.048  21.927   4.982
89109W        W55892  38.822  24.704  13.861
89110W        W55893  34.963  18.654  13.953
89111W        W55894  18.050  14.821   2.645
89112W        W55895  38.092  41.037   0.011
89113W        W55896  32.456  25.009   1.778
89114W        W55897  18.028  38.802   3.417
89115W        W55898  26.578   4.290   4.386
89116W        W55899  39.002  35.576   4.314
89117W        W55900   8.037  37.241  14.810
89118W        W55901  27.233   1.778   5.150
89119W        W55902  18.019  23.753  14.815
89120W        W55903  37.000  23.158   3.348
89121W        W55904  11.215  18.537   4.250
89122W        W55905   5.820  29.500   4.345
89123W        W55906  41.821   5.247  12.335
89124W        W55907  36.531  21.585  14.846
89125W        W55908  25.548  12.112   2.234
89126W        W55909   8.093  14.250   4.692
89127W        W55910  15.854  43.254  14.003
89128W        W55911   5.246  43.510  14.522
89129W        W55912  29.869   3.480  13.492
89130W        W55913  30.879  26.734  11.279
89131W        W55914  33.147  19.652  13.548
89132W        W55915  26.700  19.604   0.406
89133W        W55916   4.777   1.351  13.577
89134W        W55917  21.274  33.113   0.219
89135W        W55918   8.436  12.871   2.171
89136W        W55919   9.397  37.025  11.472
89137W        W55920  20.504  20.316  14.802
89138W        W55921  36.759  40.594   3.682
89139W        W55922  23.746  30.149   1.492
89140W        W55923  42.285  27.097   0.778
89141W        W55924  30.453   3.484  11.989
89142W        W55925  13.164  24.467   1.977
89143W        W55926  17.623  22.416   1.898
89144W        W55927   6.908  16.298  11.233
89145W        W55928  22.647  16.394   4.552
89146W        W55929  36.410  38.751  13.533
89147W        W55930  27.314  33.048  12.523
89148W        W55931  16.213  17.301   4.473
89149W        W55932  37.144  11.259  14.252
89150W        W55933  23.817  43.821  13.444
89151W        W55934  25.171  37.906  10.777
89152W        W55935  27.181  44.602   0.400
89153W        W55936  20.674  33.841  10.778
89154W        W55937  13.227  20.269  14.701
89155W        W55938   3.845  10.116  11.620
89156W        W55939  43.364  23.984   3.820
89157W        W55940   1.063  21.615  14.269
89158W        W55941   5.704  15.992   1.708
89159W        W55942  23.244  31.257  11.182
89160W        W55943  26.121   3.705  12.895
89161W        W55944   1.848  23.555   0.688
89162W        W55945  13.203  16.852  12.467
89163W        W55946  20.554  13.906  13.320
89164W        W55947  36.309  34.789   0.036
89165W        W55948  33.858  19.371   0.782
89166W        W55949  28.396  13.042  14.093
89167W        W55950  26.929  37.096  11.672
89168W        W55951  15.807  41.615  12.797
89169W        W55952  15.260  42.308   3.847
89170W        W55953  11.823  36.283  10.193
89171W        W55954  16.699   7.761  12.543
89172W        W55955   4.207  23.060   2.233
89173W        W55956  14.979  14.346  13.027
89174W        W55957   2.972  33.574  10.937
89175W        W55958  23.759  31.050   4.714
89176W        W55959  44.615  34.966  13.418
89177W        W55960  44.590  27.687  14.327
89178W        W55961  16.185   4.700  11.521
89179W        W55962  34.451   1.377   4.569
89180W        W55963  37.710  35.593   2.237
89181W        W55964   8.439   9.250   3.485
89182W        W55965  12.584  33.400   2.032
89183W        W55966   4.910  25.449   1.758
89184W        W55967  14.331  42.330  13.287
89185W        W55968  18.982  22.454  11.166
89186W        W55969  32.578   6.411  13.002
89187W        W55970  19.286  27.017  10.646
89188W        W55971  10.930  11.203  14.604
89189W        W55972  26.485   9.954   3.236
89190W        W55973  30.905  40.264   0.900
89191W        W55974  19.560   1.916  11.543
89192W        W55975  14.328  34.855   4.031
89193W        W55976   3.099  13.127  12.364
89194W        W55977   2.338   2.871  10.818
89195W        W55978  11.204  18.377   1.014
89196W        W55979   0.063  42.847  13.608
89197W        W55980  18.173  10.802   3.160
89198W        W55981   8.428  42.803   3.414
89199W        W55982  18.209  29.643  13.173
89200W        W55983   1.626  14.704   4.909
89201W        W55984  14.778  26.751  11.807
89202W        W55985  44.949  20.044   2.821
89203W        W55986  31.226  28.836   1.158
89204W        W55987   7.863   2.855  11.501
89205W        W55988  26.192  31.301   0.412
89206W        W55989  14.179  41.520   3.115
89207W        W55990  21.009  12.749  12.946
89208W        W55991  40.572   0.530   4.393
89209W        W55992  11.367  21.965  14.943
89210W        W55993  44.939  15.112  12.226
89211W        W55994   5.395  10.891   0.043
89212W        W55995   1.718  34.066  11.131
89213W        W55996  12.573  20.649   0.213
89214W        W55997  10.351  26.658  11.326
89215W        W55998  39.309  10.196   2.611
89216W        W55999  12.428  16.499   2.857
89217W        W56000  41.495  44.842   4.329
89218W        W56001  27.417   9.617   2.234
89219W        W56002  27.564  20.494  14.966
89220W        W56003  43.078  22.125   4.833
89221W        W56004  23.566  34.132   3.314
89222W        W56005  24.952  12.269   1.445
89223W        W56006  38.734  21.246   4.136
89224W        W56007  43.366  28.896  12.111
89225W        W56008  15.756   9.694   1.424
89226W        W56009  36.326  14.587  11.999
89227W        W56010  25.728  37.574  13.448
89228W        W56011  38.088  39.969  11.538
89229W        W56012  21.268  19.777  12.372
89230W        W56013  37.796  19.283  12.913
89231W        W56014  40.572   0.532  11.101
89232W        W56015   2.871  14.306   0.844
89233W        W56016  43.986   0.204  12.415
89234W        W56017   6.287  40.262  12.111
89235W        W56018  21.958   7.261  12.515
89236W        W56019  10.665  32.562  11.900
89237W        W56020  10.981   2.669  12.328
89238W        W56021  29.416  17.176   2.130
89239W        W56022   4.369  18.963   4.538
89240W        W56023  34.417  15.223   3.905
89241W        W56024  17.859  14.615   1.678
89242W        W56025  19.762  26.098   2.023
89243W        W56026  14.355  28.364  11.062
89244W        W56027   1.545  13.238   0.932
89245W        W56028  24.130   5.763  11.965
89246W        W56029  29.422  12.890   2.170
89247W        W56030   9.318  32.665   3.726
89248W        W56031   1.561  26.050  11.417
89249W        W56032  25.071  11.451   2.304
89250W        W56033  31.114   1.886   2.116
89251W        W56034  39.795   8.320  14.005
89252W        W56035  15.838  16.621   2.790
89253W        W56036  19.228  44.403   0.216
89254W        W56037  14.089  15.740  10.839
89255W        W56038  14.623  12.202  13.401
89256W        W56039   6.914  38.793  14.157
89257W        W56040   0.321  39.658  13.566
89258W        W56041  20.016  37.926  13.769
89259W        W56042   5.123  17.168   3.742
89260W        W56043  27.146  26.400  14.413
89261W        W56044  16.869  19.492  10.762
89262W        W56045  26.730  18.176  13.386
89263W        W56046   8.369   3.249   3.349
89264W        W56047   0.684  11.756  11.092
89265W        W56048  23.963  34.813  11.498
89266W        W56049  26.125  20.590   0.961
89267W        W56050   5.305  22.066   2.875
89268W        W56051  37.959   6.680  10.647
89269W        W56052   6.480  30.052  12.569
89270W        W56053   1.922  20.235  14.761
89271W        W56054  17.329   6.340   0.901
89272W        W56055   3.256  10.782   1.684
89273W        W56056   1.295  21.547   3.132
89274W        W56057  35.366   1.388  10.787
89275W        W56058  17.236  11.522  11.505
89276W        W56059   3.058  39.890  14.958
89277W        W56060  31.703   8.299  10.768
89278W        W56061   3.495  43.843   1.473
89279W        W56062   6.732   3.756   4.817
89280W        W56063  20.978  22.960  13.848
89281W        W56064  15.831  22.498   1.302
89282W        W56065   9.886  42.287  13.535
89283W        W56066  18.771  33.904   2.279
89284W        W56067  19.389   4.240   1.714
89285W        W56068  12.703  41.769  11.572
89286W        W56069  27.132   3.469  11.032
89287W        W56070  17.094  26.519   3.178
89288W        W56071  21.249  36.923   0.371
89289W        W56072  23.576   8.676   0.942
89290W        W56073   1.682   0.777   2.755
89291W        W56074   7.303  40.012   0.334
89292W        W56075  19.304  34.434  14.485
89293W        W56076  40.644  16.243  13.953
89294W        W56077  19.247  32.143  10.381
89295W        W56078  40.380  38.930  13.233
89296W        W56079  44.852  43.044  12.146
89297W        W56080  15.825   2.864  11.447
89298W        W56081  25.199  26.608   0.902
89299W        W56082  15.276  17.094   1.370
89300W        W56083  21.121  12.746  13.999
89301W        W56084  13.984  30.873   2.909
89302W        W56085  26.187   5.448   3.835
89303W        W56086   2.992   4.794   3.715
89304W        W56087   8.098  35.965   1.435
89305W        W56088  27.402  37.566  14.376
89306W        W56089  25.940  41.015  12.458
89307W        W56090  27.634  27.023  12.868
89308W        W56091   7.017  21.627  14.767
89309W        W56092  18.358  31.442   2.303
89310W        W56093  20.189  27.952   1.299
89311W        W56094  44.012  18.075   2.801
89312W        W56095   0.914  22.884  13.554
89313W        W56096   6.979  42.366  11.721
89314W        W56097  13.541  36.126   4.177
89315W        W56098  41.264  30.291   2.627
89316W        W56099   5.231  12.774   2.622
89317W        W56100  36.798  32.509  14.508
89318W        W56101   0.935  23.903  14.770
89319W        W56102   4.834   2.367  12.927
89320W        W56103  32.678  34.833   0.423
89321W        W56104   2.243  26.713  12.457
89322W        W56105   7.105  16.223   2.299
89323W        W56106  15.736  31.987  11.256
89324W        W56107   8.109  26.632   4.674
89325W        W56108  41.223   9.142   0.240
89326W        W56109  27.974  13.846  13.445
89327W        W56110  42.269  41.888   2.875
89328W        W56111  41.381  15.386   0.944
89329W        W56112  11.862  29.624   0.961
89330W        W56113   3.265  17.865  14.953
89331W        W56114   7.279  12.277  10.714
89332W        W56115   4.096  22.073   1.186
89333W        W56116  27.543  15.566  13.737
89334W        W56117  15.595   1.226  12.559
89335W        W56118  35.885  12.623  11.493
89336W        W56119  19.679  11.730   2.690
89337W        W56120  10.504  12.237   1.623
89338W        W56121  10.581  13.848  12.107
89339W        W56122  42.098   8.082  14.816
89340W        W56123  15.134  13.412  13.343
89341W        W56124  17.816  10.306   1.945
89342W        W56125   9.150   9.401  13.792
89343W        W56126   1.312   9.285   3.580
89344W        W56127  16.313   6.796   1.456
89345W        W56128  14.112   1.447  14.583
89346W        W56129  42.949  25.336   0.713
89347W        W56130  33.213  10.263  13.637
89348W        W56131  33.490  39.455  13.988
89349W        W56132   5.526  38.384   3.399
89350W        W56133  16.194  23.992  12.991
89351W        W56134  41.938  40.536   3.196
89352W        W56135  11.321  33.127  11.906
89353W        W56136  21.275  13.555   3.715
89354W        W56137  26.628  24.733   5.023
89355W        W56138   0.685  37.744   4.110
89356W        W56139  19.642  38.191   1.218
89357W        W56140  34.903  37.395  14.022
89358W        W56141  14.749  16.638   1.814
89359W        W56142  10.239  32.190   3.622
89360W        W56143  18.226   0.237  10.528
89361W        W56144  16.816  37.780   0.881
89362W        W56145  40.851  16.510   1.335
89363W        W56146  37.268  39.832   2.659
89364W        W56147  36.701  22.398   0.832
89365W        W56148  16.044  26.522  10.576
89366W        W56149  36.415  23.958  14.489
89367W        W56150  27.179  28.125  13.550
89368W        W56151  28.543  14.303   2.706
89369W        W56152  37.224   9.388   5.053
89370W        W56153  16.861  29.967  11.657
89371W        W56154   8.738  30.523  11.991
89372W        W56155  36.878   8.046   0.614
89373W        W56156  19.452  17.845   2.248
89374W        W56157  14.654   4.833  13.501
89375W        W56158   5.471  22.145   2.378
89376W        W56159  41.457  39.536  13.808
89377W        W56160  28.651  32.766   2.582
89378W        W56161  38.970  29.092  12.077
89379W        W56162   5.964  42.459  13.991
89380W        W56163  23.961  38.070   4.182
89381W        W56164  40.980  23.227   0.300
89382W        W56165  36.539  21.710  11.498
89383W        W56166  36.548  10.250   4.877
89384W        W56167  22.780   9.135   0.847
89385W        W56168  16.726  36.930  14.723
89386W        W56169  36.002  27.570  13.392
89387W        W56170  41.948  22.182  13.945
89388W        W56171  21.413  37.081   0.850
89389W        W56172  35.050   8.242  13.902
89390W        W56173  15.049  26.489   0.883
89391W        W56174  28.436   5.991   3.238
89392W        W56175  36.543  10.768  11.239
89393W        W56176  37.326  31.990  14.064
89394W        W56177  10.129   5.979   2.329
89395W        W56178  25.302   6.197  13.495
89396W        W56179  20.652  21.500   0.765
89397W        W56180  14.763   0.493   4.121
89398W        W56181  24.684   0.585   2.229
89399W        W56182  21.614  38.807   1.241
89400W        W56183  25.052  10.215  12.233
89401W        W56184  25.932   8.881   1.244
89402W        W56185  15.543  21.228   3.690
89403W        W56186   4.801   4.533  10.357
89404W        W56187  23.340  40.525  11.664
89405W        W56188  15.309   1.988  14.323
89406W        W56189   3.876  37.045   2.269
89407W        W56190  10.034   6.259  14.513
89408W        W56191  28.923  16.677   3.880
89409W        W56192  44.478   6.165  12.842
89410W        W56193  30.024   2.752  13.950
89411W        W56194  13.684  28.074   0.411
89412W        W56195  43.953   0.247   0.225
89413W        W56196   9.258  37.148   3.668
89414W        W56197  27.898  37.291  11.621
89415W        W56198  35.131   9.191   2.800
89416W        W56199  26.533  34.481   0.673
89417W        W56200  25.238   5.502   0.324
89418W        W56201  12.667  26.428  11.824
89419W        W56202  16.178  24.250  13.942
89420W        W56203   1.263  42.113  13.993
89421W        W56204  21.069  22.574   4.835
89422W        W56205  11.708   8.405  10.195
89423W        W56206  17.201  29.046  14.769
89424W        W56207  14.689  37.501  14.643
89425W        W56208  13.251  33.236  13.130
89426W        W56209  33.932   7.228   0.963
89427W        W56210  17.566  21.697  10.409
89428W        W56211   0.370  12.109   3.392
89429W        W56212   8.042  36.511  12.970
89430W        W56213   5.318  15.701   3.700
89431W        W56214  29.011  21.210  14.821
89432W        W56215  13.111  31.150   4.872
89433W        W56216  21.006  17.612  10.422
89434W        W56217  35.766  26.572   0.797
89435W        W56218  36.064   6.292   5.419
89436W        W56219  14.640  42.429   2.700
89437W        W56220  36.360  29.957   3.687
89438W        W56221  37.468  42.895   4.842
89439W        W56222  42.103   0.702   1.558
89440W        W56223  30.211  35.622  13.527
89441W        W56224  39.951  16.337  13.437
89442W        W56225  27.732   6.906   1.199
89443W        W56226  43.402  14.615  13.404
89444W        W56227   2.947   8.418   5.002
89445W        W56228  17.807  38.128   2.348
89446W        W56229   5.815  38.540   0.654
89447W        W56230   0.371  40.554  11.365
89448W        W56231  21.765  22.613   1.771
89449W        W56232  27.447  36.102   1.241
89450W        W56233   8.197  22.441   0.196
89451W        W56234  42.550  30.220  12.059
89452W        W56235  30.117  33.482  13.873
89453W        W56236  11.600  41.131   1.873
89454W        W56237  10.297  11.783   1.781
89455W        W56238  23.467  23.131   1.656
89456W        W56239  23.680   7.777   0.449
89457W        W56240  18.371   0.703   0.825
89458W        W56241  20.748  13.525   3.685
89459W        W56242  21.147  26.912   2.880
89460W        W56243  22.263  40.138   0.434
89461W        W56244  27.907  26.552   4.704
89462W        W56245  30.701   0.765   3.651
89463W        W56246  20.960  41.996   2.306
89464W        W56247   7.426   7.784  14.945
89465W        W56248  39.831  37.054  11.843
89466W        W56249   5.316  28.696   1.945
89467W        W56250  12.137  13.657   2.771
89468W        W56251  43.329   1.520   1.327
89469W        W56252  29.695  27.721  14.479
89470W        W56253  34.125  39.290   0.393
89471W        W56254  39.561  36.963   0.403
89472W        W56255  37.353  21.983   2.779
89473W        W56256  19.156  12.724   0.643
89474W        W56257  40.414   2.991  11.958
89475W        W56258  41.791  18.615  13.568
89476W        W56259  29.622   6.321  12.494
89477W        W56260  20.202  26.157   1.730
89478W        W56261  23.120   7.867  10.596
89479W        W56262  33.582  38.798  10.772
89480W        W56263  17.669  38.128   1.343
89481W        W56264  17.617  28.006   0.916
89482W        W56265  20.799  27.667  12.118
89483W        W56266  36.087   5.744  14.792
89484W        W56267  22.508   1.898  11.733
89485W        W56268  19.809   9.295   1.796
89486W        W56269  23.047  23.992   2.862
89487W        W56270  40.223  30.466  10.044
89488W        W56271   8.365   1.971  12.902
89489W        W56272  38.989  31.948  12.455
89490W        W56273   0.483  33.991   3.082
89491W        W56274  22.239   6.347   9.959
89492W        W56275  17.130   5.746  12.275
89493W        W56276  30.448   5.449   3.821
89494W        W56277  42.977  15.310  13.609
89495W        W56278  16.227  26.058  10.794
89496W        W56279  30.891  21.959  11.158
89497W        W56280  24.111  41.518   1.356
89498W        W56281  39.668   0.519   4.569
89499W        W56282   9.778  36.894   4.527
89500W        W56283  13.786   6.204  14.295
89501W        W56284  37.227  21.493   1.848
89502W        W56285   4.124  20.410  11.737
89503W        W56286   4.321  44.602   4.116
89504W        W56287   2.810  44.494  12.078
89505W        W56288  36.873  43.288  14.611
89506W        W56289  11.928  33.131   3.131
89507W        W56290  26.582  37.061   3.346
89508W        W56291  16.207  24.199   2.302
89509W        W56292   9.301  23.410  10.956
89510W        W56293  10.850  16.388   1.718
89511W        W56294   1.878   6.415  10.716
89512W        W56295  28.596  24.511  10.759
89513W        W56296  39.312  36.546   2.869
89514W        W56297  42.299  15.571  12.509
89515W        W56298  21.602   7.153   4.060
89516W        W56299  25.153  14.610  10.610
89517W        W56300  13.015  36.359   0.480
89518W        W56301   0.484  29.457   1.883
89519W        W56302  36.931   1.202   1.786
89520W        W56303  43.703  15.814  13.490
89521W        W56304  24.657  23.996   4.498
89522W        W56305  16.993  11.721  13.077
89523W        W56306  22.767  35.215   4.849
89524W        W56307   7.811  43.117  14.852
89525W        W56308   0.248  33.408  11.906
89526W        W56309  19.157   2.899   3.876
89527W        W56310  19.483  27.619  12.893
89528W        W56311  27.956  21.809   1.244
89529W        W56312  22.088  20.010   3.951
89530W        W56313   9.722  30.024  10.644
89531W        W56314   1.583  26.780  11.029
89532W        W56315  22.119   4.779   4.125
89533W        W56316  29.057  22.586   4.960
89534W        W56317   5.805   3.260  11.621
89535W        W56318   4.862   6.807  12.467
89536W        W56319  12.309  27.356  14.913
89537W        W56320  10.801  36.240  11.387
89538W        W56321  17.567   2.952  13.561
89539W        W56322  16.734   0.246   2.163
89540W        W56323  24.447  41.430   1.890
89541W        W56324  25.133  31.189   3.722
89542W        W56325  33.061  18.599   3.816
89543W        W56326  36.445  39.749   1.337
89544W        W56327  41.513  36.464  11.632
89545W        W56328  34.994   4.407   0.280
89546W        W56329   6.464  17.546  11.131
89547W        W56330  31.954  18.076  11.984
89548W        W56331  28.660   3.483  11.486
89549W        W56332  34.346   3.453   2.955
89550W        W56333  22.996  10.063  11.223
89551W        W56334  27.640   1.436  11.555
89552W        W56335  19.062  26.111  14.925
89553W        W56336   7.112  35.071  14.256
89554W        W56337  25.994  25.071  13.130
89555W        W56338  26.597  38.088   2.173
89556W        W56339  11.752  18.616   2.649
89557W        W56340  16.687  18.100  11.154
89558W        W56341  21.041  23.692   3.320
89559W        W56342  23.237   7.867  11.566
89560W        W56343  21.680   4.112  11.115
89561W        W56344  30.464   3.665   0.895
89562W        W56345   6.820   9.967   0.751
89563W        W56346   0.429  22.490   0.283
89564W        W56347  38.901  28.819  11.147
89565W        W56348  16.541  38.394  11.674
89566W        W56349  43.886   0.715   1.690
89567W        W56350  41.903  26.569   3.618
89568W        W56351  43.250  10.437  13.488
89569W        W56352  27.032  32.345  10.851
89570W        W56353  13.530  42.085  11.130
89571W        W56354  16.326  27.130  14.320
89572W        W56355  28.762  33.320   4.692
89573W        W56356  32.547  33.061   4.583
89574W        W56357  13.500  13.164  13.431
89575W        W56358  25.524  19.937   5.066
89576W        W56359  23.370   8.551   0.491
89577W        W56360  34.611  37.399  10.620
89578W        W56361  41.449  41.752  14.346
89579W        W56362  10.758   9.233  13.734
89580W        W56363  37.115  13.791   0.235
89581W        W56364  35.115  19.509  10.754
89582W        W56365  40.261  10.074   4.504
89583W        W56366  35.767   9.422  14.355
89584W        W56367   8.631  23.577  11.493
89585W        W56368  14.032  11.660   1.397
89586W        W56369  43.026  17.625  11.150
89587W        W56370  42.074  12.303   1.464
89588W        W56371  29.433  19.770  10.903
89589W        W56372   1.514  41.216  11.525
89590W        W56373  36.685  32.322  11.125
89591W        W56374  14.516  25.639  12.843
89592W        W56375  12.895  39.595  12.615
89593W        W56376  14.959   5.426  11.559
89594W        W56377  26.646   9.624  11.212
89595W        W56378  15.146   8.801  12.309
89596W        W56379  36.811  27.904  11.918
89597W        W56380  20.741  37.607   1.794
89598W        W56381  38.138  13.800  12.011
89599W        W56382  33.943  27.111  12.953
89600W        W56383  21.652  28.023   4.026
89601W        W56384  11.631  42.008  10.778
89602W        W56385  37.965  15.804  11.631
89603W        W56386  42.362  10.140   2.241
89604W        W56387  23.879  14.649   4.616
89605W        W56388  42.411  28.687  10.733
89606W        W56389  42.904   1.218   1.188
89607W        W56390   5.051  31.539   4.703
89608W        W56391  12.369   5.431  11.644
89609W        W56392  41.349  40.082   1.242
89610W        W56393  37.602  19.808  10.642
89611W        W56394  40.000  21.301  13.104
89612W        W56395  19.732  23.136   1.032
89613W        W56396  33.080   8.403  11.028
89614W        W56397  16.551   7.353  11.263
89615W        W56398  12.153  12.648   2.358
89616W        W56399  36.576  28.632  13.994
89617W        W56400  30.680   8.411   4.116
89618W        W56401  17.999  37.860   5.004
89619W        W56402  28.024  32.248  11.640
89620W        W56403  35.156  24.000  11.681
89621W        W56404  33.605   5.659   4.610
89622W        W56405  24.257  40.019  13.072
89623W        W56406  23.199  18.438  11.492
89624W        W56407  22.674  25.915   1.228
89625W        W56408  28.896  35.403  14.128
89626W        W56409  32.775   7.935   0.311
89627W        W56410  37.037  35.897   3.285
89628W        W56411  25.424  37.773   3.295
89629W        W56412  29.000  23.976   4.562
89630W        W56413  26.035  24.002  11.997
89631W        W56414  16.687   3.262  13.815
89632W        W56415  35.253  42.957   3.736
89633W        W56416  30.001  12.782   3.573
89634W        W56417  14.240  39.893  10.304
89635W        W56418  15.005  40.358   3.290
89636W        W56419  43.745   0.308   4.277
89637W        W56420  37.831  29.084  13.800
89638W        W56421   7.883  19.814   4.826
89639W        W56422  20.342  33.563   0.206
89640W        W56423  15.142   6.083   3.207
89641W        W56424  38.851  24.004   2.341
89642W        W56425  35.063  19.607  11.262
89643W        W56426   9.940  10.656  14.028
89644W        W56427  22.551  34.662  13.245
89645W        W56428  44.901  30.200   4.206
89646W        W56429   7.857  16.691  14.869
89647W        W56430  11.874  15.101   4.101
89648W        W56431  43.750  33.569   0.311
89649W        W56432  31.459  36.805   0.317
89650W        W56433   4.715  14.675  11.655
89651W        W56434  44.433  16.248  12.165
89652W        W56435  19.748  21.539   4.148
89653W        W56436  35.109  42.433   3.663
89654W        W56437   2.663  32.040  12.163
89655W        W56438  39.168  19.732   3.587
89656W        W56439  24.853   0.993   1.944
89657W        W56440  16.210  27.597   0.302
89658W        W56441   0.541  11.209   3.330
89659W        W56442  28.025  30.041  10.738
89660W        W56443  25.166  30.052   2.686
89661W        W56444  14.686   2.990  12.971
89662W        W56445  28.662  31.155  14.776
89663W        W56446  17.294  17.165  13.565
89664W        W56447  36.129  42.443  10.903
89665W        W56448   7.725   6.418  10.941
89666W        W56449  43.745   1.936   0.127
89667W        W56450  12.885   4.785   4.965
89668W        W56451   2.583   4.365  10.749
89669W        W56452  16.891   2.340  11.001
89670W        W56453  42.256  36.330  10.718
89671W        W56454  40.748  20.260   0.949
89672W        W56455  44.600  20.297   0.347
89673W        W56456  44.310  13.191  14.891
89674W        W56457   2.167   2.291  13.465
89675W        W56458   4.762  38.042  12.071
89676W        W56459  34.923  12.270  12.233
89677W        W56460  13.697  42.079  14.962
89678W        W56461  33.223   5.929  14.591
89679W        W56462  10.102   7.086  11.626
89680W        W56463   6.724  19.705   5.059
89681W        W56464  43.827  38.856  12.561
89682W        W56465   8.408  26.841  11.493
89683W        W56466  24.551  30.469   2.324
89684W        W56467  36.104   9.703  10.776
89685W        W56468  18.685   2.895   5.031
89686W        W56469  37.840  15.775  12.556
89687W        W56470  33.104  38.069   1.003
89688W        W56471  44.316  37.786  10.737
89689W        W56472  18.106  18.066  13.196
89690W        W56473  21.054  23.777   4.169
89691W        W56474  43.648  17.555   9.885
89692W        W56475   2.762  10.477  14.912
89693W        W56476  19.757  20.629   3.843
89694W        W56477   8.293  29.312  13.810
89695W        W56478  17.405  11.946  14.333
89696W        W56479   0.569   7.385   1.901
89697W        W56480  20.157  38.487   3.604
89698W        W56481   2.918  41.528  13.537
89699W        W56482  29.487  30.182  12.045
89700W        W56483  36.954  29.573  13.522
89701W        W56484  31.407  22.446  13.001
89702W        W56485  37.889  23.493   2.306
89703W        W56486  36.340  21.517  12.890
89704W        W56487  36.766  33.937   3.474
89705W        W56488  26.479   1.541   1.946
89706W        W56489  31.059  28.629  12.450
89707W        W56490   0.227  37.593  11.441
89708W        W56491  14.498  36.471   0.052
89709W        W56492  31.087  40.755  13.896
89710W        W56493   4.189  41.069   2.074
89711W        W56494  42.763  38.731  13.442
89712W        W56495  34.795   8.651  10.710
89713W        W56496  21.940  12.837  12.871
89714W        W56497   5.131  26.601   0.977
89715W        W56498   7.921   7.883  14.202
89716W        W56499   3.426   2.965   3.686
89717W        W56500  39.857   0.930   0.792
89718W        W56501   2.479  41.036   2.212
89719W        W56502  42.788  24.136   2.292
89720W        W56503  15.218   7.904   3.851
89721W        W56504  12.633   2.443  11.580
89722W        W56505   7.866  18.482  10.616
89723W        W56506  24.221  37.642   0.053
89724W        W56507  31.489  42.400  14.350
89725W        W56508  38.814  16.256  12.696
89726W        W56509  18.318  24.210   1.816
89727W        W56510  36.615  16.630   3.706
89728W        W56511  23.890  10.724   3.611
89729W        W56512  15.310  18.580   4.119
89730W        W56513  35.739  27.020   1.795
89731W        W56514  40.830  42.374   4.595
89732W        W56515  26.194   7.437  13.429
89733W        W56516  16.330  22.976  11.436
89734W        W56517  38.333  34.296  13.840
89735W        W56518   4.407   6.747   0.312
89736W        W56519   2.428  23.298  12.201
89737W        W56520  29.113  12.048   2.394
89738W        W56521  34.354   3.309   4.271
89739W        W56522  25.232  11.298  13.822
89740W        W56523  17.277   4.244  13.076
89741W        W56524  13.825  35.554   5.474
89742W        W56525   3.393  11.671  14.480
89743W        W56526  26.876   0.901   2.649
89744W        W56527   4.318  12.920   2.836
89745W        W56528   1.529   6.780   4.583
89746W        W56529  31.656  41.479   2.972
89747W        W56530  43.112  22.124  10.983
89748W        W56531  35.942  11.237   3.344
89749W        W56532   2.386   3.413   1.423
89750W        W56533  44.845  10.645  11.556
89751W        W56534  14.567   2.285   4.926
89752W        W56535  32.912  22.710  12.917
89753W        W56536  12.961  41.068  14.416
89754W        W56537  25.833   5.408   4.213
89755W        W56538  28.780  40.392   3.632
89756W        W56539   8.296  25.820  10.580
89757W        W56540   6.482  18.020  12.491
89758W        W56541   7.721  31.916  12.200
89759W        W56542  12.801  28.731  13.585
89760W        W56543  21.166  19.251  12.450
89761W        W56544  15.231   1.242  14.757
89762W        W56545  43.828  31.553  13.896
89763W        W56546   6.264  10.187  10.476
89764W        W56547  12.311  27.134  12.807
89765W        W56548  22.924  16.421   1.825
89766W        W56549   5.351   9.766  12.282
89767W        W56550  44.655   0.962   0.402
89768W        W56551  13.906  16.005   3.854
89769W        W56552  19.177   1.189  12.409
89770W        W56553  21.011   8.957   4.979
89771W        W56554  18.295  27.117  12.569
89772W        W56555  32.108   8.868  13.940
89773W        W56556   5.425  39.317  12.123
89774W        W56557  23.153  19.575  11.826
89775W        W56558   0.810   9.194  12.180
89776W        W56559  31.563   9.690   2.227
89777W        W56560   1.608  29.375  11.648
89778W        W56561  25.453  32.335  12.609
89779W        W56562  30.452  39.855  14.105
89780W        W56563   4.641  10.242  11.134
89781W        W56564   7.565  44.972   1.512
89782W        W56565  24.002   0.762   0.374
89783W        W56566  24.060  28.640   1.452
89784W        W56567  19.659   6.256  11.546
89785W        W56568   8.838  13.215  10.936
89786W        W56569  29.163  43.212  11.162
89787W        W56570  32.612  28.209  13.728
89788W        W56571   1.041  25.882   1.754
89789W        W56572  29.967   6.247  14.954
89790W        W56573  21.340  15.312   2.773
89791W        W56574   3.011  25.595   1.921
89792W        W56575   0.566  22.733   1.653
89793W        W56576   8.517  36.876  11.525
89794W        W56577   9.664  17.305   0.200
89795W        W56578  42.110   5.706   2.003
89796W        W56579   2.828  33.939   2.764
89797W        W56580  36.501  14.731   2.783
89798W        W56581  43.550  28.951  10.435
89799W        W56582  34.486  34.619   1.021
89800W        W56583  40.017  12.863  12.394
89801W        W56584  33.698  17.191  13.993
89802W        W56585  20.162  30.351  12.428
89803W        W56586  19.593  25.577   2.088
89804W        W56587   1.069   8.597   3.147
89805W        W56588  28.488  35.852  10.787
89806W        W56589   4.978  15.144  11.729
89807W        W56590   2.730   6.887   0.863
89808W        W56591  15.620   8.642  12.443
89809W        W56592   9.398  20.435   3.635
89810W        W56593  27.952  24.491  12.141
89811W        W56594  15.636   1.738  13.469
89812W        W56595  23.093  15.886   2.675
89813W        W56596   8.133  31.562   1.246
89814W        W56597  33.110  33.847  13.936
89815W        W56598  12.147   5.131  12.025
89816W        W56599  21.035  19.349  11.071
89817W        W56600  43.469   9.053   0.625
89818W        W56601  21.444  26.568   2.242
89819W        W56602  26.489  14.493   4.462
89820W        W56603  25.915  35.378  11.154
89821W        W56604  18.459  17.326  13.076
89822W        W56605   8.201   3.918   0.429
89823W        W56606  42.360  37.869  10.449
89824W        W56607   7.305  42.912  13.498
89825W        W56608   2.070  35.474  13.767
89826W        W56609  17.591  44.853  14.962
89827W        W56610   3.372  39.912   1.526
89828W        W56611  30.550   7.853  11.120
89829W        W56612  25.045  37.392   4.169
89830W        W56613  14.161  24.940   3.730
89831W        W56614  12.392  31.154   1.277
89832W        W56615  33.516  42.508   1.369
89833W        W56616  26.257   2.282  13.174
89834W        W56617  40.045  12.343  13.981
89835W        W56618   3.656  33.609   1.642
89836W        W56619  41.308  17.494   0.012
89837W        W56620   6.668  10.808   3.154
89838W        W56621  28.560  23.959  14.249
89839W        W56622  34.073  10.454   3.644
89840W        W56623  23.099  13.172   0.022
89841W        W56624  11.080  29.427  10.700
89842W        W56625   2.556  39.725  14.932
89843W        W56626  38.971  37.807  14.321
89844W        W56627  16.365  30.386   4.243
89845W        W56628   8.703  17.755  13.841
89846W        W56629   5.240   3.803  11.213
89847W        W56630   6.026  40.958  13.188
89848W        W56631  43.281  17.586   3.677
89849W        W56632  36.051  10.152   4.769
89850W        W56633   5.397  31.154   4.850
89851W        W56634  19.963  42.776   4.309
89852W        W56635  39.513  27.470  14.564
89853W        W56636   1.298  13.600  12.037
89854W        W56637   6.856  37.148  12.526
89855W        W56638  33.773  13.257  13.513
89856W        W56639   9.089  25.674  14.984
89857W        W56640  25.225  29.013   1.937
89858W        W56641   2.896   8.480   0.811
89859W        W56642  34.371   7.618  13.880
89860W        W56643   9.598  41.584  12.403
89861W        W56644  39.304  12.242  11.529
89862W        W56645  24.397  13.352   4.427
89863W        W56646   7.392  26.003   4.636
89864W        W56647  19.460   3.666  10.507
89865W        W56648  27.441   8.251  12.206
89866W        W56649  34.528  10.503   5.450
89867W        W56650   3.954  24.254  13.586
89868W        W56651  42.731  10.814   4.211
89869W        W56652  18.444  24.614  14.496
89870W        W56653  40.748  32.854  13.317
89871W        W56654  44.438  25.924   3.703
89872W        W56655  17.858   6.415  10.691
89873W        W56656  40.882   2.498  12.829
89874W        W56657   5.281   0.051   0.190
89875W        W56658  41.804  24.818  12.569
89876W        W56659  45.000   6.682   4.789
89877W        W56660  25.525  15.250   4.984
89878W        W56661  23.552   9.176   2.488
89879W        W56662  22.648  12.348   2.871
89880W        W56663  44.026  16.535   3.256
89881W        W56664  16.343  24.799   3.371
89882W        W56665  26.429  41.287  13.633
89883W        W56666  34.547   1.427   1.683
89884W        W56667  22.152  23.361  10.717
89885W        W56668  20.056  39.489  14.458
89886W        W56669  43.387  32.592  10.696
89887W        W56670  37.245  24.179   3.221
89888W        W56671  35.631  32.750   0.502
89889W        W56672  28.509  40.637   9.785
89890W        W56673  23.622  38.481   3.215
89891W        W56674  11.069  24.632   4.150
89892W        W56675  27.923   4.136  12.194
89893W        W56676  44.886  10.115  12.504
89894W        W56677   7.698  42.411   3.706
89895W        W56678  36.633  32.539   3.906
89896W        W56679  38.413  27.655   1.465
89897W        W56680  28.240   2.358  10.349
89898W        W56681  15.344  17.315   1.850
89899W        W56682  22.627  30.240  13.305
89900W        W56683  37.102  12.799   2.803
89901W        W56684  30.713  26.063   1.456
89902W        W56685   6.771   2.320   0.359
89903W        W56686  28.490  15.732   2.620
89904W        W56687   6.351  24.547  10.744
89905W        W56688   8.309   9.763   4.124
89906W        W56689  13.845   0.942  10.684
89907W        W56690  21.501  10.054   1.873
89908W        W56691  26.676  12.700   3.598
89909W        W56692  26.582  17.167   3.012
89910W        W56693  10.208   2.348   2.694
89911W        W56694   5.402  22.394  14.956
89912W        W56695  26.523   1.495  12.885
89913W        W56696  40.821   3.799  14.211
89914W        W56697  25.627  30.417   4.617
89915W        W56698  19.060  13.733   3.273
89916W        W56699  39.794  24.037   4.674
89917W        W56700  27.842  34.431   3.337
89918W        W56701  22.739  22.671  11.282
89919W        W56702  36.331  26.693  14.863
89920W        W56703  12.157   7.392  14.777
89921W        W56704  42.391  12.004   3.114
89922W        W56705  30.634  33.213   1.039
89923W        W56706  20.108  39.259   4.176
89924W        W56707  21.865  41.126   3.047
89925W        W56708  15.897  41.407  13.805
89926W        W56709  29.993  44.735  13.375
89927W        W56710  34.212  28.181  10.719
89928W        W56711  23.175  18.241  10.742
89929W        W56712   3.301  11.691   3.298
89930W        W56713   8.732   8.791  13.116
89931W        W56714  34.485   9.616   0.305
89932W        W56715  18.388  14.631   0.795
89933W        W56716  16.984  18.955   1.282
89934W        W56717  17.038  12.269   0.218
89935W        W56718  36.751  18.070  13.797
89936W        W56719  42.854   8.337   2.213
89937W        W56720  16.432  20.695   2.335
89938W        W56721  21.756  23.332   1.894
89939W        W56722  11.390  42.912   0.658
89940W        W56723  33.063   5.856  13.556
89941W        W56724  29.537  16.436   1.190
89942W        W56725  27.562   4.682  14.528
89943W        W56726  15.672  40.516   4.991
89944W        W56727  14.591  21.697  13.406
89945W        W56728  16.224   1.105  10.157
89946W        W56729  14.714  32.661  13.093
89947W        W56730   2.727   2.185   2.830
89948W        W56731  29.379  23.248  11.579
89949W        W56732  24.528   3.520  12.067
89950W        W56733   9.821  35.972  11.359
89951W        W56734  30.707   1.868   0.738
89952W        W56735  23.040   8.344  12.512
89953W        W56736   0.401  41.225   4.110
89954W        W56737  38.960  37.852   2.368
89955W        W56738  18.746  26.884  12.939
89956W        W56739  23.296  34.008  10.542
89957W        W56740   8.143   2.179   1.415
89958W        W56741  12.780   9.150   0.399
89959W        W56742  20.689  16.570  11.466
89960W        W56743   1.403  15.527   1.209
89961W        W56744  21.819  30.243   5.187
89962W        W56745  12.434  43.975   2.780
89963W        W56746   5.844  44.346   0.351
89964W        W56747  14.643   9.858   4.772
89965W        W56748  16.285  38.491   0.728
89966W        W56749  10.414  41.783   3.627
89967W        W56750   1.750   9.784  13.990
89968W        W56751  33.176  20.765  10.766
89969W        W56752   8.674   9.885  14.764
89970W        W56753  14.580  11.186  11.261
89971W        W56754   0.894  30.029   2.227
89972W        W56755  26.425  41.287  12.622
89973W        W56756  23.723   8.627  13.924
89974W        W56757  32.575  21.983   3.621
89975W        W56758  21.180   5.946   2.091
89976W        W56759   8.265  41.794  12.557
89977W        W56760  32.062  42.210  12.417
89978W        W56761  23.694   7.114   3.190
89979W        W56762   0.042  18.758  14.826
89980W        W56763  20.110   2.279  12.457
89981W        W56764  34.101  15.722   0.458
89982W        W56765   5.709  40.310  11.530
89983W        W56766  37.914  25.962  11.427
89984W        W56767   7.420  17.822   1.923
89985W        W56768  12.536   6.809   2.644
89986W        W56769  30.952  13.793  13.459
89987W        W56770  19.274  26.294   3.233
89988W        W56771  31.632  35.470  14.931
89989W        W56772   4.741  27.918  12.614
89990W        W56773  25.400  28.482  11.615
89991W        W56774   9.996  42.440   1.386
89992W        W56775  24.506  21.265   0.341
89993W        W56776  11.669  28.197   3.577
89994W        W56777  22.552  15.652  13.461
89995W        W56778  11.069  31.710  14.727
89996W        W56779  33.586  37.528  10.116
89997W        W56780   2.900  16.636   1.948
89998W        W56781  39.801   5.644  14.524
89999W        W56782   1.955  21.645  12.881
90000W        W56783  33.475  13.877   4.070
90001W        W56784  40.351  17.171  13.972
90002W        W56785  38.444  34.566  13.405
90003W        W56786  34.065  21.266  13.827
90004W        W56787  17.026  30.157  14.977
90005W        W56788  13.330   6.227  10.516
90006W        W56789   8.221  19.152  10.918
90007W        W56790  12.720  21.181   1.945
90008W        W56791  20.306  30.608   0.014
90009W        W56792   9.081  10.917   1.961
90010W        W56793  39.945  15.141  12.697
90011W        W56794  24.114  43.463  10.462
90012W        W56795  24.593  33.536   0.975
90013W        W56796  24.183   0.102   0.938
90014W        W56797  35.490  27.678  10.875
90015W        W56798   5.143  37.351   0.852
90016W        W56799  39.418  29.595  12.981
90017W        W56800  35.062  21.655  14.731
90018W        W56801  28.779  37.213   3.283
90019W        W56802   9.279   3.196  13.962
90020W        W56803  44.778  24.201   3.234
90021W        W56804  31.064   5.225  12.060
90022W        W56805  32.313  10.549  11.500
90023W        W56806   5.429  27.058  13.354
90024W        W56807   4.294  17.273  11.469
90025W        W56808  42.061  16.791  14.955
90026W        W56809  27.089  13.365  12.926
90027W        W56810  23.286  16.835   3.561
90028W        W56811   8.854  11.040  11.772
90029W        W56812  31.567  26.611  12.096
90030W        W56813  42.965  18.719   3.168
90031W        W56814  17.733  32.194   4.592
90032W        W56815  29.409  14.435   3.327
90033W        W56816  26.629   2.420  11.669
90034W        W56817  14.640   8.682  10.612
90035W        W56818  41.506  34.383   3.725
90036W        W56819  24.229  15.729  14.402
90037W        W56820  16.942  38.081   4.160
90038W        W56821  35.012  36.868  14.011
90039W        W56822   1.448  34.556  13.552
90040W        W56823   0.302  17.665  10.322
90041W        W56824  41.632  16.424   2.015
90042W        W56825   2.244  20.618  13.366
90043W        W56826  39.956   9.878   0.589
90044W        W56827   7.229  19.092   4.890
90045W        W56828  42.884   6.808  12.532
90046W        W56829   2.248  20.618   2.796
90047W        W56830  17.841  29.032   0.796
90048W        W56831   7.830   5.271  12.447
90049W        W56832  43.774  14.168   3.107
90050W        W56833  42.618   1.846  13.310
90051W        W56834   8.845  20.036  14.832
90052W        W56835   9.730   3.194   3.237
90053W        W56836   1.684  29.130  13.939
90054W        W56837  13.988   8.350   5.438
90055W        W56838   6.357  44.018  11.880
90056W        W56839  19.482  35.382   3.411
90057W        W56840  31.805  19.107  10.949
90058W        W56841  41.750  37.479   2.313
90059W        W56842  22.163  44.238  10.204
90060W        W56843   3.406   9.770   4.321
90061W        W56844   6.364  21.599   2.100
90062W        W56845  26.674  34.930   3.189
90063W        W56846  37.821   9.659  12.458
90064W        W56847  20.641  40.953  12.839
90065W        W56848  22.665  29.024   2.316
90066W        W56849  39.832  24.678  11.630
90067W        W56850  22.595  38.465  11.742
90068W        W56851  24.265  36.874  13.850
90069W        W56852   1.801  24.335  11.205
90070W        W56853   3.724  39.117  13.957
90071W        W56854   8.077  21.733  12.012
90072W        W56855  25.118   9.572   1.744
90073W        W56856  15.847  31.899   5.169
90074W        W56857  23.028  24.664   3.675
90075W        W56858  30.945  14.597  12.904
90076W        W56859  34.316   7.649   0.185
90077W        W56860   3.544  12.916   2.342
90078W        W56861  38.605  25.686   3.291
90079W        W56862  38.851  19.756   0.282
90080W        W56863  28.807  43.769  13.309
90081W        W56864  36.352  26.548  11.289
90082W        W56865  33.356  29.566   1.705
90083W        W56866   7.249  44.740   2.759
90084W        W56867  44.864  17.572   1.313
90085W        W56868  13.335  43.464  12.872
90086W        W56869   4.473  31.230  12.416
90087W        W56870  14.314  25.399   4.576
90088W        W56871   2.771   2.936   2.204
90089W        W56872   3.490  23.667  13.834
90090W        W56873  36.422  38.981   2.491
90091W        W56874  10.653  33.523   1.756
90092W        W56875  11.838  44.452  10.745
90093W        W56876   1.491  32.353   0.471
90094W        W56877  20.692  18.024   3.732
90095W        W56878  26.998  32.566  14.525
90096W        W56879  14.236  17.967   0.874
90097W        W56880  18.468   8.559  13.094
90098W        W56881  10.903  14.799  12.909
90099W        W56882  32.010  29.341   4.439
90100W        W56883  28.186  31.751  11.737
90101W        W56884  19.067  33.417   4.529
90102W        W56885  11.137  38.306  12.042
90103W        W56886  29.400   8.968  14.528
90104W        W56887  16.141  10.408  11.128
90105W        W56888  21.482  24.576  13.451
90106W        W56889  18.062  35.773   3.306
90107W        W56890  29.740  16.534  14.311
90108W        W56891   0.454  34.646  14.902
90109W        W56892  19.076  18.181  11.285
90110W        W56893  23.959  12.579   0.815
90111W        W56894  40.150  43.586   3.296
90112W        W56895  39.322  41.991  12.244
90113W        W56896  29.168  42.456   4.085
90114W        W56897  18.189  32.716   0.828
90115W        W56898  12.895  29.881   4.180
90116W        W56899  30.548   9.924   1.694
90117W        W56900  39.483  43.256   1.794
90118W        W56901   2.336  31.241   4.030
90119W        W56902  20.724  28.685   0.678
90120W        W56903  11.671   1.656  12.453
90121W        W56904  21.121  42.739   0.339
90122W        W56905  28.017  37.398   1.902
90123W        W56906   5.138  28.120  10.374
90124W        W56907  10.578  34.209  11.553
90125W        W56908  12.654  26.968  14.400
90126W        W56909  37.161  22.054  10.515
90127W        W56910  16.701   8.372   2.907
90128W        W56911  33.267   5.925  10.609
90129W        W56912  34.353  35.226  11.695
90130W        W56913  22.745  29.589   4.792
90131W        W56914  37.230   6.761   4.351
90132W        W56915  34.131  10.870   3.983
90133W        W56916  33.601  40.639  11.545
90134W        W56917  31.580  27.107  11.856
90135W        W56918  19.887  22.031  11.931
90136W        W56919   4.740   3.164  12.499
90137W        W56920  17.675  37.896   4.584
90138W        W56921  37.574  37.067   0.698
90139W        W56922   4.797   6.416   1.910
90140W        W56923   5.199  21.233  14.265
90141W        W56924  11.399  38.718  11.959
90142W        W56925   9.586  26.989   2.365
90143W        W56926  40.022  37.413   0.028
90144W        W56927  12.643  19.523  13.904
90145W        W56928  26.903  24.109  13.850
90146W        W56929   7.417  12.190   4.750
90147W        W56930  27.605  16.169   3.363
90148W        W56931  28.222  21.779  12.437
90149W        W56932  19.649   2.732   2.222
90150W        W56933  21.634   3.136   3.612
90151W        W56934  37.932   1.823  11.962
90152W        W56935   2.731  23.721  11.097
90153W        W56936  26.532  14.219   3.710
90154W        W56937   3.317  28.127   2.803
90155W        W56938  22.055  30.387   4.734
90156W        W56939  16.567  33.324   4.038
90157W        W56940  42.474  43.376  10.605
90158W        W56941  20.805   6.204  10.408
90159W        W56942  35.238   4.750  12.419
90160W        W56943  27.994  28.631   0.490
90161W        W56944  28.027  37.835   0.813
90162W        W56945  27.548   9.016   0.632
90163W        W56946  41.522   3.961   3.680
90164W        W56947  42.078  39.886  11.490
90165W        W56948  25.030   8.861   1.208
90166W        W56949  18.810  14.395  13.529
90167W        W56950  37.919  42.830  13.668
90168W        W56951  38.707  23.162   0.389
90169W        W56952  18.620  38.295   3.689
90170W        W56953  39.486  16.145   4.209
90171W        W56954   5.718   9.902   4.610
90172W        W56955  26.609  12.723  11.907
90173W        W56956   6.050  14.083  11.570
90174W        W56957  13.361  37.913  13.318
90175W        W56958  28.097   8.437   3.779
90176W        W56959   8.381  40.292  12.628
90177W        W56960  39.895  39.952  14.431
90178W        W56961  15.302   9.153  11.987
90179W        W56962  29.283  20.599  13.075
90180W        W56963  23.937  23.146   3.423
90181W        W56964  11.897  37.023   4.528
90182W        W56965  20.163  34.827  12.948
90183W        W56966  17.129  10.417   1.390
90184W        W56967   9.231  24.275  10.807
90185W        W56968  24.082   8.027   1.719
90186W        W56969  28.677   1.820  12.947
90187W        W56970  35.340   1.227  12.886
90188W        W56971  29.444  29.658   4.680
90189W        W56972  42.898  31.397   4.268
90190W        W56973  15.839  26.606  13.384
90191W        W56974   1.203  29.002  13.818
90192W        W56975   6.377   6.895  12.912
90193W        W56976  27.746  22.702  12.421
90194W        W56977  39.977  37.497  13.169
90195W        W56978  40.918   7.857   0.565
90196W        W56979  21.811  18.230   1.072
90197W        W56980  13.696  10.088   9.907
90198W        W56981  12.823  21.168  12.881
90199W        W56982  13.814   0.984   0.839
90200W        W56983  40.480  35.300  13.039
90201W        W56984  40.849  13.145   5.175
90202W        W56985  24.738  18.259   1.237
90203W        W56986  33.091  15.429   1.890
90204W        W56987  29.088   9.575   1.369
90205W        W56988  19.479  12.161   1.644
90206W        W56989  43.992  29.168   1.685
90207W        W56990  39.012  43.388  14.494
90208W        W56991  34.581   1.569   2.774
90209W        W56992  21.271  37.402   5.147
90210W        W56993  29.158   3.016  14.483
90211W        W56994   9.099  18.725  11.906
90212W        W56995   1.117  36.122  11.988
90213W        W56996   4.700  39.575  12.210
90214W        W56997   8.433  26.057   0.411
90215W        W56998  12.321  11.616   2.346
90216W        W56999  36.822  37.497   0.965
90217W        W57000   8.709  35.399   1.805
90218W        W57001  17.819   4.188  13.055
90219W        W57002   2.977  36.842   3.213
90220W        W57003  39.929  40.350   3.109
90221W        W57004  10.239  17.609   3.368
90222W        W57005  43.312  11.146   1.197
90223W        W57006  18.260  14.069  13.992
90224W        W57007  18.285  43.780  12.863
90225W        W57008  19.304  34.858   0.767
90226W        W57009  29.632  12.557  11.562
90227W        W57010  40.740  21.839  11.607
90228W        W57011  15.765  10.612  10.449
90229W        W57012   1.990   7.689  11.197
90230W        W57013  12.359  23.209  13.521
90231W        W57014  41.240  23.193  11.130
90232W        W57015   6.253  36.321   3.131
90233W        W57016  16.083  20.188  12.686
90234W        W57017   4.103   1.069   2.695
90235W        W57018  29.628   6.143   4.976
90236W        W57019  30.543  35.979  13.347
90237W        W57020  29.694  44.202   1.297
90238W        W57021   4.729  26.932   3.727
90239W        W57022  15.761  43.498   2.468
90240W        W57023  44.833  16.327   0.820
90241W        W57024  33.755   5.618   1.681
90242W        W57025  29.621  39.922   0.562
90243W        W57026  31.057  24.141   0.495
90244W        W57027  27.452  28.571   2.225
90245W        W57028  20.465  18.752  12.681
90246W        W57029  26.557  28.052  12.484
90247W        W57030  13.883  37.565  12.468
90248W        W57031  27.620   1.071   4.611
90249W        W57032   2.250  29.707   4.454
90250W        W57033  10.093  38.905  11.156
90251W        W57034  30.511   0.843   5.017
90252W        W57035  30.906   8.921  14.294
90253W        W57036   5.344  30.675   0.463
90254W        W57037  43.403  39.873   3.511
90255W        W57038  30.955   6.294  10.257
90256W        W57039  40.042  40.155   1.836
90257W        W57040  14.748  21.747   0.881
90258W        W57041  33.159  10.145   2.745
90259W        W57042  19.959   2.677   3.123
90260W        W57043  16.621  11.085  13.325
90261W        W57044  13.597   0.917   3.654
90262W        W57045  22.808  39.944   0.986
90263W        W57046   8.184  38.182   3.537
90264W        W57047  38.894  43.037  10.247
90265W        W57048  30.047   8.330   0.684
90266W        W57049  19.766   9.564   3.381
90267W        W57050   5.821   9.154  14.765
90268W        W57051  36.074   1.716  10.309
90269W        W57052  16.827  37.047  12.521
90270W        W57053  37.540  26.815  11.875
90271W        W57054  23.684  17.894  12.239
90272W        W57055   2.760  13.190   3.413
90273W        W57056  18.593  13.238  13.065
90274W        W57057  11.227  43.854  11.659
90275W        W57058   9.157  38.688  13.888
90276W        W57059  37.775   0.099  11.911
90277W        W57060  34.126  31.437   4.102
90278W        W57061  39.386  14.258   1.661
90279W        W57062  25.163  19.844  14.077
90280W        W57063  12.546  41.177   2.891
90281W        W57064   3.893  13.131  10.571
90282W        W57065  28.722  11.988   1.941
90283W        W57066  21.293  37.978  12.067
90284W        W57067   4.375  26.715   3.209
90285W        W57068   5.671  19.763   2.388
90286W        W57069  35.500  31.148   0.552
90287W        W57070  10.384  35.069  12.388
90288W        W57071   5.023  35.064   2.031
90289W        W57072  12.381  27.408   1.865
90290W        W57073  13.692  30.181   0.267
90291W        W57074   7.530  18.587   2.246
90292W        W57075  14.425   6.427  13.859
90293W        W57076  18.770   9.673  14.388
90294W        W57077  44.165  19.650   1.399
90295W        W57078   9.428  41.473   1.757
90296W        W57079   8.153   6.817   0.978
90297W        W57080   5.454  23.742   0.737
90298W        W57081  42.885  13.265  13.685
90299W        W57082  20.052  38.789  13.892
90300W        W57083   2.016   3.394   0.338
90301W        W57084  10.095  35.376   3.243
90302W        W57085  33.493  44.006   4.544
90303W        W57086   2.957  35.135   4.173
90304W        W57087  33.431  38.920   0.757
90305W        W57088   7.743   3.822   3.036
90306W        W57089   5.471   1.912   0.315
90307W        W57090  43.260  25.470  11.143
90308W        W57091   8.827   9.300  14.212
90309W        W57092  19.407  37.957   3.697
90310W        W57093  19.092  34.928   4.713
90311W        W57094  33.979  31.937  13.582
90312W        W57095  18.687  19.634  11.402
90313W        W57096   8.752  31.417   3.510
90314W        W57097   1.707  26.555  14.821
90315W        W57098  10.247  41.385  13.992
90316W        W57099  38.919  37.967   0.805
90317W        W57100  39.391  32.453  11.275
90318W        W57101   6.424  32.053   3.582
90319W        W57102  32.756  15.508   0.288
90320W        W57103  26.000  13.077   1.643
90321W        W57104  11.101   2.678   1.677
90322W        W57105  44.900  30.431   2.252
90323W        W57106  30.861  12.248   4.411
90324W        W57107   0.696   7.324   4.643
90325W        W57108  17.592   3.412  12.437
90326W        W57109  16.612  20.018   3.243
90327W        W57110  11.731  18.283   1.668
90328W        W57111  32.330  11.748  14.060
90329W        W57112  19.550  41.139   4.144
90330W        W57113  42.804  30.943   2.438
90331W        W57114  29.190  10.229   2.320
90332W        W57115  38.815  25.751  13.358
90333W        W57116  30.930  11.139  12.533
90334W        W57117  18.393  44.308  10.661
90335W        W57118  40.500  29.533   0.924
90336W        W57119  21.775  30.603   0.483
90337W        W57120   1.294  16.040   1.922
90338W        W57121  29.458  20.995   0.458
90339W        W57122  14.231  27.680   3.278
90340W        W57123   9.391  42.809   2.560
90341W        W57124   6.893   7.852   4.080
90342W        W57125  37.771  29.964  11.557
90343W        W57126  15.568   7.372  14.350
90344W        W57127  12.724   5.182   3.082
90345W        W57128  21.753  34.300  10.683
90346W        W57129  21.671  18.750   4.206
90347W        W57130   7.355  33.674   3.181
90348W        W57131  23.566  34.640  10.590
90349W        W57132  20.197   7.033  14.454
90350W        W57133   0.119  32.479   3.374
90351W        W57134  33.162   8.197   2.804
90352W        W57135  15.812  10.950  14.933
90353W        W57136  16.874  38.978   1.271
90354W        W57137   1.668  32.605   4.273
90355W        W57138  13.557  14.148   0.869
90356W        W57139  30.236   5.996   2.342
90357W        W57140  34.627  27.137  14.836
90358W        W57141  38.285   7.993  13.442
90359W        W57142  34.797  32.563   0.830
90360W        W57143  34.605  11.224  13.201
90361W        W57144  15.270   8.858   3.921
90362W        W57145  11.875   5.728   2.379
90363W        W57146  24.118  34.057  11.939
90364W        W57147  30.508  25.905  14.903
90365W        W57148   7.629  34.927   4.229
90366W        W57149   5.925  37.887  10.538
90367W        W57150  21.458  23.768   1.931
90368W        W57151  14.902  29.745  11.268
90369W        W57152  22.472  37.316  13.840
90370W        W57153  41.434  34.892   0.276
90371W        W57154  37.328   6.347  12.566
90372W        W57155  43.197  31.536  12.858
90373W        W57156  37.491  17.306   0.192
90374W        W57157   1.038  22.261   4.151
90375W        W57158  21.555  21.605   0.943
90376W        W57159  41.830  31.366   1.754
90377W        W57160   2.987  17.141  12.052
90378W        W57161  22.762  24.713   0.219
90379W        W57162  25.230  44.264  12.813
90380W        W57163  44.984   1.329   0.539
90381W        W57164  19.545  11.884  13.963
90382W        W57165   9.198  42.205   0.936
90383W        W57166  21.564  38.967  14.230
90384W        W57167  10.993  16.552   2.868
90385W        W57168   6.485  42.028  12.346
90386W        W57169  41.032   1.780  11.669
90387W        W57170  27.437  33.635  13.024
90388W        W57171  16.536  43.930   0.824
90389W        W57172   6.351  19.733   1.567
90390W        W57173   8.200   7.906  12.954
90391W        W57174  20.481  11.839   1.774
90392W        W57175   8.605  43.378   2.699
90393W        W57176  14.550   3.421  14.991
90394W        W57177  42.836  19.786   4.786
90395W        W57178  32.987  20.088  13.880
90396W        W57179  44.902  14.123  10.591
90397W        W57180  29.733  33.047   4.067
90398W        W57181  32.184   7.790  12.880
90399W        W57182  39.007  14.804   2.109
90400W        W57183  13.701  12.410  13.497
90401W        W57184  36.843  37.052   1.268
90402W        W57185  19.055  28.085  14.763
90403W        W57186  22.752  43.963   1.397
90404W        W57187   1.888  13.010   3.463
90405W        W57188  17.372  41.106  11.712
90406W        W57189  16.808  33.868  12.404
90407W        W57190  44.389  42.370  12.193
90408W        W57191  42.275  39.434  13.182
90409W        W57192   4.454  14.911   2.687
90410W        W57193  21.288  32.696  14.863
90411W        W57194   7.441  37.009   4.586
90412W        W57195  20.679  34.290   1.902
90413W        W57196  33.021  13.308  12.468
90414W        W57197  23.562  24.885   3.812
90415W        W57198  29.448  33.925   3.405
90416W        W57199  35.459   1.516   1.588
90417W        W57200   9.368  43.904   1.832
90418W        W57201  29.846  41.995  14.787
90419W        W57202  19.103  19.726  10.633
90420W        W57203  28.220  35.001   1.869
90421W        W57204  18.755  33.623  12.887
90422W        W57205  12.299   0.563   1.913
90423W        W57206  43.746  12.562   4.597
90424W        W57207   1.870  20.113   0.319
90425W        W57208   6.317  10.634   4.485
90426W        W57209  34.589  12.938  10.493
90427W        W57210   7.081  12.694   0.916
90428W        W57211   7.288  26.591   4.533
90429W        W57212   1.469  16.696  13.364
90430W        W57213  15.542  15.101  13.048
90431W        W57214  21.526  27.894  12.554
90432W        W57215  40.717  36.372   1.484
90433W        W57216  43.941  33.405   0.818
90434W        W57217  35.150  23.927  10.794
90435W        W57218  33.639  22.986  13.920
90436W        W57219  33.815  22.907   5.606
90437W        W57220  23.096   5.890  12.643
90438W        W57221  19.524  16.242  12.740
90439W        W57222  24.215  15.742  13.771
90440W        W57223  41.839  13.112  12.089
90441W        W57224  33.518  16.752   0.919
90442W        W57225   6.322  43.822   3.351
90443W        W57226  43.836  32.927  14.343
90444W        W57227  24.667  16.085  13.723
90445W        W57228  18.485  21.699   2.766
90446W        W57229  29.140  13.249  11.241
90447W        W57230  11.078  24.061   3.614
90448W        W57231  33.848  15.187   3.272
90449W        W57232  14.148  40.919   4.111
90450W        W57233  33.763  42.285   3.313
90451W        W57234  19.828  14.413   2.191
90452W        W57235  13.786  33.581  10.927
90453W        W57236  20.253   8.203   0.782
90454W        W57237   3.798  16.651  12.119
90455W        W57238  33.802  22.778  10.658
90456W        W57239   0.284   8.288  14.598
90457W        W57240  25.401   1.493   2.437
90458W        W57241   9.810  41.128  12.471
90459W        W57242  32.884  32.098  14.714
90460W        W57243  32.934  24.115   0.687
90461W        W57244  12.065  20.104   1.826
90462W        W57245  27.886  36.953  12.028
90463W        W57246  37.117   1.288  12.052
90464W        W57247  26.665  14.811  12.154
90465W        W57248  15.125  13.335  14.526
90466W        W57249  24.487  44.073  11.118
90467W        W57250  25.679  38.082   9.610
90468W        W57251  26.268   9.230  12.520
90469W        W57252  23.103  11.311  14.000
90470W        W57253  24.519  21.547   4.219
90471W        W57254  20.246  34.929  11.105
90472W        W57255  11.310   5.703  13.928
90473W        W57256  17.187  44.884  12.398
90474W        W57257  44.920  44.845   2.039
90475W        W57258   9.710  44.846   2.880
90476W        W57259   8.674  12.494  14.898
90477W        W57260  21.189  18.435  13.098
90478W        W57261  38.876  19.738  12.354
90479W        W57262  42.081   2.286  13.487
90480W        W57263   3.837  40.288   2.580
90481W        W57264  41.917  24.390  11.861
90482W        W57265  23.055  12.425   3.191
90483W        W57266   3.286  38.983   1.853
90484W        W57267  25.315  15.643   4.714
90485W        W57268  42.508   9.391  13.875
90486W        W57269  14.324  32.667  13.681
90487W        W57270  29.889  15.065   1.455
90488W        W57271  10.738  31.383  14.453
90489W        W57272  39.904  30.959  11.058
90490W        W57273  25.657   5.107  12.687
90491W        W57274   7.898  13.849   2.767
90492W        W57275  12.110  25.134   1.226
90493W        W57276  19.433  37.451  12.031
90494W        W57277  30.406  14.488  12.945
90495W        W57278  30.454   5.806   4.624
90496W        W57279  40.895  13.279  12.359
90497W        W57280   1.443  33.500   1.562
90498W        W57281  20.874  14.652   2.146
90499W        W57282  14.734   6.893  11.659
90500W        W57283  15.198  19.581  11.975
90501W        W57284  34.791  34.574  14.750
90502W        W57285  10.830  19.324  12.068
90503W        W57286  24.421  14.564   3.352
90504W        W57287  17.714  37.379  11.057
90505W        W57288  43.817  25.246   0.303
90506W        W57289   9.161  12.070   0.310
90507W        W57290  13.931   7.166   4.263
90508W        W57291  32.649  35.897   3.271
90509W        W57292  31.949  32.096   0.841
90510W        W57293  38.651  19.183  13.859
90511W        W57294   7.142  29.713   0.057
90512W        W57295   8.619  13.795  14.875
90513W        W57296  41.373  20.148   1.784
90514W        W57297  33.402  19.044  11.697
90515W        W57298  29.666  29.745   2.418
90516W        W57299  17.330  20.787   3.252
90517W        W57300  20.852  26.633   1.252
90518W        W57301  41.425   2.675  10.496
90519W        W57302  15.813  36.365   2.365
90520W        W57303  44.539  22.685   4.249
90521W        W57304  16.762  22.231   3.687
90522W        W57305  17.244  31.862   0.841
90523W        W57306  15.517  21.169   2.264
90524W        W57307  18.716  22.761   1.190
90525W        W57308  19.732   1.689   2.360
90526W        W57309  26.663  41.965  12.928
90527W        W57310  14.848  39.348  11.993
90528W        W57311  13.872  32.600  14.572
90529W        W57312  19.787  19.187   1.422
90530W        W57313  42.410  18.284   4.218
90531W        W57314  30.536  17.208  12.782
90532W        W57315  21.816   8.462   1.393
90533W        W57316  35.825   0.271   4.503
90534W        W57317  25.416  18.133   2.624
90535W        W57318   1.465  33.891  14.963
90536W        W57319   8.303   4.705  13.895
90537W        W57320  39.635  31.872   4.163
90538W        W57321   8.180   4.002  11.638
90539W        W57322  20.613  11.385   4.204
90540W        W57323  22.541  42.591  12.068
90541W        W57324  34.482  23.084  13.293
90542W        W57325   4.926  40.653   3.277
90543W        W57326  35.483  18.651  14.364
90544W        W57327  29.685  33.376  12.502
90545W        W57328  39.712  26.046   1.798
90546W        W57329   8.573  22.160  10.739
90547W        W57330  28.040   2.927   1.830
90548W        W57331  36.666  27.525   3.937
90549W        W57332   8.853  13.546  12.850
90550W        W57333  26.298  31.512  11.871
90551W        W57334   8.375  11.138  10.633
90552W        W57335  26.565  42.515   1.650
90553W        W57336  43.639  33.963  14.877
90554W        W57337  21.979   7.335  13.087
90555W        W57338   2.920   6.225  11.653
90556W        W57339  15.541  41.683   2.795
90557W        W57340  36.458   5.448   1.648
90558W        W57341  19.680  25.033   3.362
90559W        W57342  43.999  14.213  14.328
90560W        W57343  44.943  36.472   4.768
90561W        W57344  21.745  15.690  14.376
90562W        W57345  25.714  18.207   4.113
90563W        W57346  35.365  30.468  11.153
90564W        W57347  36.595  20.317   1.626
90565W        W57348  16.307  42.950   2.752
90566W        W57349  16.409  34.837  11.536
90567W        W57350  27.921  36.165   2.840
90568W        W57351   5.272  35.530   0.986
90569W        W57352  31.630  41.565  13.934
90570W        W57353  12.831  17.982  12.523
90571W        W57354  39.493  27.577   0.104
90572W        W57355  25.875  12.312   1.343
90573W        W57356  38.043  30.986  11.504
90574W        W57357  16.767  30.588   3.295
90575W        W57358   5.202  15.805   0.002
90576W        W57359  17.741  13.032   1.850
90577W        W57360  17.833   3.724   3.416
90578W        W57361   8.761  20.933   2.370
90579W        W57362  37.146   8.842  10.676
90580W        W57363  35.537   8.303  14.609
90581W        W57364  34.385  15.209  13.255
90582W        W57365  16.213  41.146   4.794
90583W        W57366  11.928   9.305   1.254
90584W        W57367  31.021  21.975  14.317
90585W        W57368   0.753  36.783  14.432
90586W        W57369   6.078  43.908  10.615
90587W        W57370  25.960  29.493  11.014
90588W        W57371  15.849  27.468   2.758
90589W        W57372  24.573  37.487  10.156
90590W        W57373  38.852  33.987   0.977
90591W        W57374  18.661  32.576   1.009
90592W        W57375  16.529  12.151   0.290
90593W        W57376  44.505  21.635  11.062
90594W        W57377   4.211  10.991  14.299
90595W        W57378   3.931  29.514  12.805
90596W        W57379  10.417  37.452  12.306
90597W        W57380  25.994  33.113   4.067
90598W        W57381  41.498   4.478  10.620
90599W        W57382  39.810  27.675  11.279
90600W        W57383  18.361   6.202  11.591
90601W        W57384  36.574  41.402  12.896
90602W        W57385   3.735  32.225   0.417
90603W        W57386   1.876   3.741   4.572
90604W        W57387  32.793  20.002  13.402
90605W        W57388  10.326  23.690   0.736
90606W        W57389  11.103  10.449  12.006
90607W        W57390  16.588  15.814   0.389
90608W        W57391   6.891  41.423   1.001
90609W        W57392   8.899  27.070   2.922
90610W        W57393   7.916  19.287  11.998
90611W        W57394  29.947   1.425  13.030
90612W        W57395  27.742  30.593   2.743
90613W        W57396  37.084  10.778  14.868
90614W        W57397  22.215  31.520   4.827
90615W        W57398  10.055  44.331   0.841
90616W        W57399   1.965  18.321  14.945
90617W        W57400  26.434  42.747  12.416
90618W        W57401  27.042  43.254   4.610
90619W        W57402  10.506   2.403   0.722
90620W        W57403  31.824  35.961  13.782
90621W        W57404   5.950   1.374   3.628
90622W        W57405  12.973  22.191   4.618
90623W        W57406  20.386  39.295  10.838
90624W        W57407   1.859   5.911  13.357
90625W        W57408  34.505  42.524  12.552
90626W        W57409  25.738  37.903  13.063
90627W        W57410  28.129  10.681  10.232
90628W        W57411  44.443  22.362  13.295
90629W        W57412  41.771  44.003   3.036
90630W        W57413  11.189  23.022  12.971
90631W        W57414   6.051  22.691  11.932
90632W        W57415  44.314   2.420   0.468
90633W        W57416  26.002  10.413   0.299
90634W        W57417  25.544  19.712  12.016
90635W        W57418  13.398   9.659   3.630
90636W        W57419  36.462  23.853  12.851
90637W        W57420  25.957   4.912  14.983
90638W        W57421  38.544  25.295   0.231
90639W        W57422  20.541  30.653   0.829
90640W        W57423  43.368   6.811  11.149
90641W        W57424  21.392   4.497   4.084
90642W        W57425  17.438   4.400  14.949
90643W        W57426  13.865  16.752  11.736
90644W        W57427  29.579  32.515  14.288
90645W        W57428   0.299  18.360   3.192
90646W        W57429  33.414   0.209  12.764
90647W        W57430  19.199   2.404  10.187
90648W        W57431   7.935  27.596   1.798
90649W        W57432  26.104  39.832   2.772
90650W        W57433  23.929   4.154  12.959
90651W        W57434  23.055   2.220  12.393
90652W        W57435  33.560  28.581   2.632
90653W        W57436  10.845   5.339  10.584
90654W        W57437   6.957  40.827   4.025
90655W        W57438  43.627  16.056   0.448
90656W        W57439  34.041  40.978  12.439
90657W        W57440   6.124  44.314   2.827
90658W        W57441   6.810  21.566   3.889
90659W        W57442  19.541  18.060   5.046
90660W        W57443  16.809  27.569   1.429
90661W        W57444  20.862  10.868   1.809
90662W        W57445  29.655  37.434   3.690
90663W        W57446  19.879  28.946   0.876
90664W        W57447  20.280   1.791  10.652
90665W        W57448  32.325  11.629   0.340
90666W        W57449  40.971  20.661   0.675
90667W        W57450  10.789  38.515   2.704
90668W        W57451  41.932  32.850  10.977
90669W        W57452   3.271  10.404  14.871
90670W        W57453  41.420  22.483   0.241
90671W        W57454  20.816   8.404  11.216
90672W        W57455  41.405  24.674   1.754
90673W        W57456   6.184  29.903  12.035
90674W        W57457  43.329  43.567  11.494
90675W        W57458  14.703  38.608  11.055
90676W        W57459  14.217  22.760  11.974
90677W        W57460   7.149  16.212   0.429
90678W        W57461  33.539  32.592   3.144
90679W        W57462  39.343  15.614   0.310
90680W        W57463  24.955   3.350   3.292
90681W        W57464   3.007  11.401   4.068
90682W        W57465   6.681   5.848  13.448
90683W        W57466  30.021   7.106   4.223
90684W        W57467  22.031  11.297   2.223
90685W        W57468  42.197   5.778   4.252
90686W        W57469  28.658  36.669  13.485
90687W        W57470  18.504  26.529   1.541
90688W        W57471  35.483  44.772   0.905
90689W        W57472   6.881  38.803  14.660
90690W        W57473   0.314  29.853  11.257
90691W        W57474  26.709   0.910   0.748
90692W        W57475  14.726  24.136  13.592
90693W        W57476  13.665  11.814   3.212
90694W        W57477   2.833  26.061   1.678
90695W        W57478   1.029  38.267   0.761
90696W        W57479  28.963  22.610   4.395
90697W        W57480  39.350  30.619   0.869
90698W        W57481   9.278   3.407  12.616
90699W        W57482  25.734  36.368   4.652
90700W        W57483  27.102  16.875   1.775
90701W        W57484  42.325  33.228   0.230
90702W        W57485   7.184   5.230  11.739
90703W        W57486   7.236  19.635  10.691
90704W        W57487  27.890  23.746  11.468
90705W        W57488   2.375  14.420   0.923
90706W        W57489  36.507  25.512   2.206
90707W        W57490  23.462  42.752  13.530
90708W        W57491  20.367  20.682   0.994
90709W        W57492  34.479  38.408   2.117
90710W        W57493  15.907  43.975  14.415
90711W        W57494  19.248  21.928   3.994
90712W        W57495  31.923   0.017   2.078
90713W        W57496  33.565  33.120  12.373
90714W        W57497  18.667  17.263  11.359
90715W        W57498  44.239  20.046   3.386
90716W        W57499  34.042  43.666  13.124
90717W        W57500  21.016  12.540  14.970
90718W        W57501  41.443   2.951  10.925
90719W        W57502   7.408  15.953   2.754
90720W        W57503   8.883  24.044   0.744
90721W        W57504  18.969  17.749  14.063
90722W        W57505   6.479  35.399  14.902
90723W        W57506  20.795   2.374   4.303
90724W        W57507  25.087  44.440   2.639
90725W        W57508  31.937  32.417   4.249
90726W        W57509  26.433  12.924  14.554
90727W        W57510  27.028  14.656  14.811
90728W        W57511  31.863   8.329   0.888
90729W        W57512  38.609  34.057  12.938
90730W        W57513  34.993  21.108   3.721
90731W        W57514  44.292  31.136   1.586
90732W        W57515   4.317  11.449   4.907
90733W        W57516  21.585  21.041  12.178
90734W        W57517  19.698  24.588  11.988
90735W        W57518   8.428  17.204  11.218
90736W        W57519  13.669   6.909   0.343
90737W        W57520  29.635  23.722  14.802
90738W        W57521  36.059   8.845   3.270
90739W        W57522  18.601  14.170   0.598
90740W        W57523  41.499  40.551   4.771
90741W        W57524  34.925  17.658  10.500
90742W        W57525  28.977   8.272   2.745
90743W        W57526  18.106   7.075  14.008
90744W        W57527   5.807  39.474   1.884
90745W        W57528  18.655  33.054   2.802
90746W        W57529  12.803   6.412  13.441
90747W        W57530  12.804  37.269  12.052
90748W        W57531  32.440   2.823  11.557
90749W        W57532  29.576  35.773   0.424
90750W        W57533  18.095   0.475   4.025
90751W        W57534  17.710  35.976   1.286
90752W        W57535  16.289   7.406   4.578
90753W        W57536   0.220  41.525   0.461
90754W        W57537   7.863  22.295   2.195
90755W        W57538  24.284  23.315   1.954
90756W        W57539  12.560  43.220  10.783
90757W        W57540  20.239  15.298   1.825
90758W        W57541  12.888  41.646  12.425
90759W        W57542   0.370   2.731   0.786
90760W        W57543  26.824  14.703  11.075
90761W        W57544  39.566  29.207   3.857
90762W        W57545   0.562  23.777   3.253
90763W        W57546  30.577   6.112   1.283
90764W        W57547   9.246  28.533  13.786
90765W        W57548  36.156  24.256  10.742
90766W        W57549  31.867  10.435  12.613
90767W        W57550  17.517   3.834  13.968
90768W        W57551  21.229  43.316  11.086
90769W        W57552  44.263  24.652  13.417
90770W        W57553  25.472  38.508  11.522
90771W        W57554  36.627  37.963  11.498
90772W        W57555  30.203  44.778  12.305
90773W        W57556  36.997  33.935  11.934
90774W        W57557  27.553   8.198   2.168
90775W        W57558  30.524   9.425   0.913
90776W        W57559   7.196   2.201  12.378
90777W        W57560   6.075  18.943  13.998
90778W        W57561   8.419   4.874  10.699
90779W        W57562  24.195  30.152  14.578
90780W        W57563   0.254  42.063  14.742
90781W        W57564  16.585  28.140   3.605
90782W        W57565  12.338  29.803  12.707
90783W        W57566  15.696  31.071  12.632
90784W        W57567  42.257  41.864   3.813
90785W        W57568  14.011   0.580  11.102
90786W        W57569  29.557  42.286   1.611
90787W        W57570  23.065  30.449  14.893
90788W        W57571  37.390  23.831  13.622
90789W        W57572  24.832  40.285   3.796
90790W        W57573   7.052  29.686   4.400
90791W        W57574  30.060  22.170  13.383
90792W        W57575  23.015  24.841   5.227
90793W        W57576  43.547  17.776   2.426
90794W        W57577  38.935  40.751   4.059
90795W        W57578  20.519   3.711   1.361
90796W        W57579  17.348   3.680  14.434
90797W        W57580  42.020   5.870  11.588
90798W        W57581  38.778   8.238   0.388
90799W        W57582  40.386  11.157   2.306
90800W        W57583  17.258  36.841   1.511
90801W        W57584  32.920   4.656   0.591
90802W        W57585  11.148  20.782   1.363
90803W        W57586  13.113   4.867   4.062
90804W        W57587  39.938  23.227  10.724
90805W        W57588  32.915  18.723  11.556
90806W        W57589  15.058  17.102  14.502
90807W        W57590   4.771  16.693  12.146
90808W        W57591  24.337   5.887   3.208
90809W        W57592   3.931  17.058  11.768
90810W        W57593  31.149  39.347   3.221
90811W        W57594  31.157   7.364  10.572
90812W        W57595  21.204  25.960  14.343
90813W        W57596  25.034  29.950   0.434
90814W        W57597  19.094  18.723   3.753
90815W        W57598  25.837  15.188  14.944
90816W        W57599  22.543  11.728  10.510
90817W        W57600  19.334  11.425  11.178
90818W        W57601  13.666  42.042  12.036
90819W        W57602   7.185   6.676   0.332
90820W        W57603  16.560   4.912  13.024
90821W        W57604  19.612   9.145   4.602
90822W        W57605  37.578   4.782  11.560
90823W        W57606  33.470  43.661  13.726
90824W        W57607  20.550  16.805  13.305
90825W        W57608  15.897  36.740  13.421
90826W        W57609  35.031  30.092  14.891
90827W        W57610  28.575  21.472   0.041
90828W        W57611  18.217  41.517   4.582
90829W        W57612  36.935  44.855  12.915
90830W        W57613   3.198  20.129   1.837
90831W        W57614  42.600  31.407  11.206
90832W        W57615  44.733   7.138  14.366
90833W        W57616  30.505   0.907   4.130
90834W        W57617  28.651  10.198   2.997
90835W        W57618  30.615   0.318  11.973
90836W        W57619   2.245  10.055  12.086
90837W        W57620  42.259  24.152  13.985
90838W        W57621  14.933  42.191  14.942
90839W        W57622  32.305  23.730   0.516
90840W        W57623  44.419  35.583   9.995
90841W        W57624  37.453  42.878   3.221
90842W        W57625  14.815  25.312   0.029
90843W        W57626  13.010  26.107  11.991
90844W        W57627   0.318  12.474  11.592
90845W        W57628  10.315  32.875  11.547
90846W        W57629   3.027  16.868   1.482
90847W        W57630  26.261   1.920   0.335
90848W        W57631  38.021  17.702  10.588
90849W        W57632  12.246  33.422  10.566
90850W        W57633  13.669  26.198   3.608
90851W        W57634  29.907   3.256  14.995
90852W        W57635  34.445  42.217   1.783
90853W        W57636  34.540  12.807   0.722
90854W        W57637  30.256  41.163  10.329
90855W        W57638  28.954  30.318   3.789
90856W        W57639  13.922  40.042  14.396
90857W        W57640  43.938  37.771   2.976
90858W        W57641  20.988   3.906  10.187
90859W        W57642  40.610   9.072   4.621
90860W        W57643  41.324  17.040  12.954
90861W        W57644   8.138  24.778   0.879
90862W        W57645  19.762   2.271  13.305
90863W        W57646  44.122  37.012   0.930
90864W        W57647   4.209   2.942   0.054
90865W        W57648   3.334  22.280  12.493
90866W        W57649  28.710  26.888   2.350
90867W        W57650  41.295  24.922   3.602
90868W        W57651  30.146  26.607   0.776
90869W        W57652  19.074  34.069   0.243
90870W        W57653  35.297  18.662   1.491
90871W        W57654  30.941   1.558   4.613
90872W        W57655  40.101   9.145   4.558
90873W        W57656  44.464  28.222  13.678
90874W        W57657  36.690  16.031  12.818
90875W        W57658  44.650  38.511   3.324
90876W        W57659  26.700  16.969   4.738
90877W        W57660   1.673   8.222  12.063
90878W        W57661  31.100  34.256  14.365
90879W        W57662   9.186  41.041   4.690
90880W        W57663  29.480  14.580   0.678
90881W        W57664  37.084  26.248  12.880
90882W        W57665  15.184   5.116  14.968
90883W        W57666  42.219  43.456  13.488
90884W        W57667   9.064   1.164   2.694
90885W        W57668  26.263  15.296  11.701
90886W        W57669  34.067   3.919  12.628
90887W        W57670  17.375   4.553  11.192
90888W        W57671  11.200   2.550  14.429
90889W        W57672   1.775  40.008   2.895
90890W        W57673  16.679   5.206   3.292
90891W        W57674  36.103  33.974  11.800
90892W        W57675  27.373  41.871  11.992
90893W        W57676  34.773  15.779  12.518
90894W        W57677   0.988  12.328  14.563
90895W        W57678  15.234  39.536  12.350
90896W        W57679  21.746  26.563  12.471
90897W        W57680   6.952   1.692   4.533
90898W        W57681   1.693  42.435  13.956
90899W        W57682  43.259  25.126   1.422
90900W        W57683  39.749  44.373   2.287
90901W        W57684  44.750  29.302  10.260
90902W        W57685  33.436  38.294  10.835
90903W        W57686   8.269   8.949  12.875
90904W        W57687  14.218   8.665   2.507
90905W        W57688  13.335  21.114  14.135
90906W        W57689  37.861   3.713   1.805
90907W        W57690  40.012  22.327  14.822
90908W        W57691  16.978  11.399  13.515
90909W        W57692  38.384  10.004   4.894
90910W        W57693  37.836  43.747  13.396
90911W        W57694  27.108   0.745  10.674
90912W        W57695  38.686   6.416   0.744
90913W        W57696  41.266  35.538  14.350
90914W        W57697  15.283  42.920   0.389
90915W        W57698  21.495  35.152  10.918
90916W        W57699   5.143  21.023   0.083
90917W        W57700  22.687  26.048  12.998
90918W        W57701  32.568  25.147  11.971
90919W        W57702  33.516  37.574   4.027
90920W        W57703   0.487  16.553  12.609
90921W        W57704  27.466  12.364   1.384
90922W        W57705  32.550  28.516  12.575
90923W        W57706   8.441  18.511   3.224
90924W        W57707  14.105   7.956   9.766
90925W        W57708  32.389  42.512   3.422
90926W        W57709  41.552  44.420  13.610
90927W        W57710  14.610   4.341   1.787
90928W        W57711  10.099  24.997   2.930
90929W        W57712  27.139  41.855   1.793
90930W        W57713  15.054   8.598  14.000
90931W        W57714  29.278  42.010   4.319
90932W        W57715   6.067   3.870   2.461
90933W        W57716  27.073  28.989   3.302
90934W        W57717   9.292  37.444   2.056
90935W        W57718  11.172  18.448  12.099
90936W        W57719  10.718   8.947  14.700
90937W        W57720  44.519  44.066   3.270
90938W        W57721  25.845  40.300   2.633
90939W        W57722  43.454  13.863  11.923
90940W        W57723  19.531  12.568   2.887
90941W        W57724  12.138  10.076  10.621
90942W        W57725   2.228   9.853   4.353
90943W        W57726  25.253   3.257   1.935
90944W        W57727  25.183  37.929  13.811
90945W        W57728  34.026  43.612   2.569
90946W        W57729  44.510  11.155  11.526
90947W        W57730  16.637   0.994   0.394
90948W        W57731  10.863  43.398   2.326
90949W        W57732  10.592  32.548  13.758
90950W        W57733  24.054  20.807   4.899
90951W        W57734  17.508  29.631   4.743
90952W        W57735  23.989  23.549  13.029
90953W        W57736  23.345  39.926  10.822
90954W        W57737  22.726   1.216  10.603
90955W        W57738   0.762  26.033   0.868
90956W        W57739   5.671  25.042   2.599
90957W        W57740  17.088  44.736  11.429
90958W        W57741  15.104  13.025   0.927
90959W        W57742  35.070  43.773  10.529
90960W        W57743  44.253  32.844  12.462
90961W        W57744  38.095  37.785  10.982
90962W        W57745  36.327  44.081   1.173
90963W        W57746  42.802  30.681  12.416
90964W        W57747  20.497  28.083  12.462
90965W        W57748   5.732   6.022   0.791
90966W        W57749   3.789  16.117  13.476
90967W        W57750  44.406  27.581   4.076
90968W        W57751  36.433  11.992   3.510
90969W        W57752  24.347   6.305  13.729
90970W        W57753   0.302  13.237   4.993
90971W        W57754   6.853  34.096   0.887
90972W        W57755  39.305  32.862   4.127
90973W        W57756  34.950  32.135   1.971
90974W        W57757   6.718  43.574   3.138
90975W        W57758  24.527   0.985  12.035
90976W        W57759  11.817  43.150   4.513
90977W        W57760  13.174  43.909  13.101
90978W        W57761  40.051  41.690   1.826
90979W        W57762  43.618  23.236   3.114
90980W        W57763  33.280  32.600   0.790
90981W        W57764  14.664  39.432  14.952
90982W        W57765  43.820  37.459   2.164
90983W        W57766  38.829  12.116  12.830
90984W        W57767  24.304  24.328  13.520
90985W        W57768  36.026  39.282  11.065
90986W        W57769  43.037  41.607  13.992
90987W        W57770  37.468  12.490   2.621
90988W        W57771  21.547  31.262   0.145
90989W        W57772  29.621  14.597  11.700
90990W        W57773  37.570   0.809   1.060
90991W        W57774  21.110  10.408   1.902
90992W        W57775  19.821  17.604   1.933
90993W        W57776   7.820  43.510  13.034
90994W        W57777   1.450  32.072  11.707
90995W        W57778  13.791  10.597  12.401
90996W        W57779  40.725  21.664   1.057
90997W        W57780   2.525   0.707  11.419
90998W        W57781  27.991  35.969  13.526
90999W        W57782  13.945  29.915   4.242
91000W        W57783   4.432  33.314  12.383
91001W        W57784  16.863  25.071  11.073
91002W        W57785  34.307  11.356   1.622
91003W        W57786  43.263  21.004  14.515
91004W        W57787   1.568  19.600   4.570
91005W        W57788  18.253   6.020   1.854
91006W        W57789  12.753   7.168   5.471
91007W        W57790  12.945  41.492  11.934
91008W        W57791   5.922  26.402   2.425
91009W        W57792  27.679   5.949   3.915
91010W        W57793  18.979   1.409   1.415
91011W        W57794  43.790  30.910   0.691
91012W        W57795  15.815  44.981  12.246
91013W        W57796   1.910  32.126   0.779
91014W        W57797   3.854   5.741   0.435
91015W        W57798  15.817  28.982  14.055
91016W        W57799  20.282   5.298   2.633
91017W        W57800  11.510  35.946   2.586
91018W        W57801  28.395  38.367   1.685
91019W        W57802  19.676  12.511  11.034
91020W        W57803  26.254  17.006  13.486
91021W        W57804   4.692  22.815   4.046
91022W        W57805  34.120  26.029  11.553
91023W        W57806  24.172  30.446   4.568
91024W        W57807  12.144  11.874   4.083
91025W        W57808   2.747  31.314   0.848
91026W        W57809  35.153  37.373  10.748
91027W        W57810   5.849  34.716  12.568
91028W        W57811  10.472  11.828   2.921
91029W        W57812  10.702  44.710   1.599
91030W        W57813  41.802  22.140   0.431
91031W        W57814   0.252  36.054   0.400
91032W        W57815  19.559  19.717   2.232
91033W        W57816   8.718  17.152   3.898
91034W        W57817  21.973  21.438  13.034
91035W        W57818  34.013   5.412   3.802
91036W        W57819  13.196  11.408  11.057
91037W        W57820  22.131  39.370   3.755
91038W        W57821   5.480  30.752   5.154
91039W        W57822  28.580   1.857  14.165
91040W        W57823  18.255  44.293  12.804
91041W        W57824   2.367  10.354  12.509
91042W        W57825  10.570  28.965   4.719
91043W        W57826  30.226  43.390  13.956
91044W        W57827  11.933   7.534   2.962
91045W        W57828  28.631  24.802  12.607
91046W        W57829  44.904  11.284  10.981
91047W        W57830   2.293  14.934  10.683
91048W        W57831  21.079  14.752  12.925
91049W        W57832  28.845  42.782   4.326
91050W        W57833  37.964  21.261   1.938
91051W        W57834   7.898   6.953  10.830
91052W        W57835   6.589   7.648  13.758
91053W        W57836   1.981  32.919   3.098
91054W        W57837  27.932  24.871   2.490
91055W        W57838   6.228  13.159  13.429
91056W        W57839  16.286  18.209   3.704
91057W        W57840   3.642   4.198   2.876
91058W        W57841  31.005  36.467   1.869
91059W        W57842   5.716  25.609   3.204
91060W        W57843  11.672  14.160   0.966
91061W        W57844  42.776  12.523   4.483
91062W        W57845  15.105  15.367  11.160
91063W        W57846   6.665   3.632   4.271
91064W        W57847   4.564  17.287   1.780
91065W        W57848   2.973  29.187   1.521
91066W        W57849  29.903  17.188  11.263
91067W        W57850  30.406  43.869   1.911
91068W        W57851   2.260  14.900   0.815
91069W        W57852   6.237  27.587  12.902
91070W        W57853  42.759  16.823  13.889
91071W        W57854  42.714  36.777   1.197
91072W        W57855   1.801  37.242   4.163
91073W        W57856  29.510  13.438   1.458
91074W        W57857  42.179  35.321  10.901
91075W        W57858   3.829  40.794   2.321
91076W        W57859   0.521  30.635  13.338
91077W        W57860  34.819  32.085   2.790
91078W        W57861   1.828  31.003   4.224
91079W        W57862  10.688  16.155   3.102
91080W        W57863  16.324  24.551   0.685
91081W        W57864  11.968  15.302   2.203
91082W        W57865  21.194  44.956   2.314
91083W        W57866  10.205  11.852  12.810
91084W        W57867  26.184   5.523   0.227
91085W        W57868  31.718   5.458  13.238
91086W        W57869  25.028  38.296   1.386
91087W        W57870  44.750   5.057   2.296
91088W        W57871  26.230  22.077   2.211
91089W        W57872  35.843   7.665   1.339
91090W        W57873   8.244  35.174  10.660
91091W        W57874  35.400  24.130   2.951
91092W        W57875  32.643   4.887   4.488
91093W        W57876  44.426  38.115  14.329
91094W        W57877  10.786   0.335   3.786
91095W        W57878   1.285  13.067   0.234
91096W        W57879  13.656   4.422  12.819
91097W        W57880  44.913  19.313  13.484
91098W        W57881   7.261  36.826   0.821
91099W        W57882  11.594  11.912   3.238
91100W        W57883   5.390  44.097   4.455
91101W        W57884  30.091  42.581   4.162
91102W        W57885  41.165  26.975  11.518
91103W        W57886  43.412  39.025   4.579
91104W        W57887  22.234   0.839   5.461
91105W        W57888  35.958  21.100   2.230
91106W        W57889  42.218  18.138   2.372
91107W        W57890  32.917   6.089   1.813
91108W        W57891  26.355   5.006   0.909
91109W        W57892  18.260  29.542  10.680
91110W        W57893  23.353  43.458   3.069
91111W        W57894  42.497  20.987  11.572
91112W        W57895  26.964  10.153  11.837
91113W        W57896  22.616  28.245  12.575
91114W        W57897  40.973  22.838  11.786
91115W        W57898  11.344  27.202  14.951
91116W        W57899  20.641  39.286  13.765
91117W        W57900  28.550   1.810  11.902
91118W        W57901   4.849   1.694   4.085
91119W        W57902  16.540  17.770   0.202
91120W        W57903  11.662  31.914   1.940
91121W        W57904  18.326  21.479  12.335
91122W        W57905  18.108   4.931   3.182
91123W        W57906  11.656  37.316   2.203
91124W        W57907   3.256   1.129  13.930
91125W        W57908  38.595   3.985   1.604
91126W        W57909  37.851   5.480   2.676
91127W        W57910  15.891  36.999   3.601
91128W        W57911  38.443   9.215   2.241
91129W        W57912  33.076   9.393  10.701
91130W        W57913  14.688  32.965   2.017
91131W        W57914  38.209  28.461   4.875
91132W        W57915  11.920  30.295   2.834
91133W        W57916  41.089  32.441  12.012
91134W        W57917  13.147   1.995   2.362
91135W        W57918  28.547  28.072   2.599
91136W        W57919   5.785  29.196  13.315
91137W        W57920   1.990  25.622   1.989
91138W        W57921  33.530  41.877   3.084
91139W        W57922  13.987  31.541   3.687
91140W        W57923   5.950   3.829  13.448
91141W        W57924  44.367  13.882   9.950
91142W        W57925  28.464   4.934   0.848
91143W        W57926  40.809  36.046  11.589
91144W        W57927  23.499   7.585   3.246
91145W        W57928  38.458  26.159   1.676
91146W        W57929  33.789  38.378  12.482
91147W        W57930   6.908  12.341   3.702
91148W        W57931  40.137  30.711  14.034
91149W        W57932  26.095  31.010   0.832
91150W        W57933  15.039  34.097   5.103
91151W        W57934   9.957  42.462   0.474
91152W        W57935  28.214  30.552   2.571
91153W        W57936  18.588  25.514   1.766
91154W        W57937   1.413  21.406   2.255
91155W        W57938  16.319  13.751   1.671
91156W        W57939  17.388  28.051   1.384
91157W        W57940  21.089   5.865  11.200
91158W        W57941   1.346   5.865  13.397
91159W        W57942  32.307  28.501  10.677
91160W        W57943  34.875  15.100   4.100
91161W        W57944  41.876  40.357   1.554
91162W        W57945  27.158  31.528   4.626
91163W        W57946  35.580  39.972   4.564
91164W        W57947  10.178  23.457   2.222
91165W        W57948  29.461   4.898   3.600
91166W        W57949   5.678  35.501   2.404
91167W        W57950   9.080  19.421   0.257
91168W        W57951  38.047  38.815   2.787
91169W        W57952   8.424  36.042   2.772
91170W        W57953  44.692  13.133  12.037
91171W        W57954  14.212   1.236   0.076
91172W        W57955  25.393  25.568  11.148
91173W        W57956   5.486  42.185   3.316
91174W        W57957  24.211  18.160   2.407
91175W        W57958  32.061  17.181  14.813
91176W        W57959  28.886  19.725  14.517
91177W        W57960  34.885  42.899   4.552
91178W        W57961  22.004  38.239  14.336
91179W        W57962  40.899  31.053   2.132
91180W        W57963  27.175   7.810   0.492
91181W        W57964  23.601   9.220  13.871
91182W        W57965  16.094  15.915   5.060
91183W        W57966  19.516  28.850  11.646
91184W        W57967  22.420  24.677  14.821
91185W        W57968  38.720  36.631   0.418
91186W        W57969  26.614  29.453   3.263
91187W        W57970  17.547  19.667   0.067
91188W        W57971   5.746   9.513  12.056
91189W        W57972   7.612  30.649   3.629
91190W        W57973  19.131   8.447   1.234
91191W        W57974  16.604  29.572   4.316
91192W        W57975  39.218  38.749   2.217
91193W        W57976  39.741   7.015  13.848
91194W        W57977   2.153  32.063   0.311
91195W        W57978  35.436   1.287  14.024
91196W        W57979  27.245  30.011   4.482
91197W        W57980   0.402  42.443   4.666
91198W        W57981  14.819  35.827   2.903
91199W        W57982  44.403  15.319  10.621
91200W        W57983  39.042  23.424   4.616
91201W        W57984  14.348  36.187  13.909
91202W        W57985  35.038   5.513  11.051
91203W        W57986   9.239   8.183   2.357
91204W        W57987   2.347   2.378  10.587
91205W        W57988   2.438   8.882   1.169
91206W        W57989   7.315   7.726   4.374
91207W        W57990   6.116  32.035   2.673
91208W        W57991   3.903  37.302  13.163
91209W        W57992  17.845  20.667   3.204
91210W        W57993   2.275  40.942  11.143
91211W        W57994  34.812   7.716  13.179
91212W        W57995  12.864  20.437   1.896
91213W        W57996  26.133  31.638   4.153
91214W        W57997   0.532  38.350   3.650
91215W        W57998  33.371   6.047  12.838
91216W        W57999  24.804  43.533  13.177
91217W        W58000  10.906   4.449  14.436
91218W        W58001   5.110   2.314  14.468
91219W        W58002   4.177  39.323  13.482
91220W        W58003  43.962  25.609  10.552
91221W        W58004  21.269  28.351  11.951
91222W        W58005  44.303  19.847   1.859
91223W        W58006  24.637  35.667  14.326
91224W        W58007  25.187   8.023  11.633
91225W        W58008  21.073  15.278  11.574
91226W        W58009   7.462  39.368  13.887
91227W        W58010  13.199  39.504   0.995
91228W        W58011  20.729  37.098   1.896
91229W        W58012  39.752   3.513  13.812
91230W        W58013  42.084  36.067  10.277
91231W        W58014   6.709   7.782   0.697
91232W        W58015   0.843   9.681   1.330
91233W        W58016  44.217  17.190  14.273
91234W        W58017  26.687   6.223  13.504
91235W        W58018  32.536  23.078   1.347
91236W        W58019  22.847  44.514  11.930
91237W        W58020  43.520   4.101   2.630
91238W        W58021  44.983  29.517   2.155
91239W        W58022  33.577  18.593   4.517
91240W        W58023  17.276  31.961  12.191
91241W        W58024  42.948  25.962  14.417
91242W        W58025  42.263  24.266   3.408
91243W        W58026  22.034  27.923   1.810
91244W        W58027  16.168  28.130   1.620
91245W        W58028  21.264  43.840   1.237
91246W        W58029  13.283   4.667   2.789
91247W        W58030  11.386  18.787   4.648
91248W        W58031  41.510  12.287  14.025
91249W        W58032  34.048  21.138  12.928
91250W        W58033  25.571  25.729   2.121
91251W        W58034  35.191  39.802  13.854
91252W        W58035  18.524   3.234  13.435
91253W        W58036  20.511  17.031  11.520
91254W        W58037   0.800  38.760  14.351
91255W        W58038  24.208   9.050  11.520
91256W        W58039  33.123  34.100   2.471
91257W        W58040  10.346  40.962  11.626
91258W        W58041  44.377  20.525   3.244
91259W        W58042  28.113  26.555   3.613
91260W        W58043   3.283  14.360   4.048
91261W        W58044   1.799  17.437   3.102
91262W        W58045  25.843  33.107   0.089
91263W        W58046  32.377  19.957   0.618
91264W        W58047  17.445  13.855  11.068
91265W        W58048  33.956   2.815  14.834
91266W        W58049  35.351  21.734  11.691
91267W        W58050  19.862  42.494  12.475
91268W        W58051  12.578   0.577  13.011
91269W        W58052   8.911  42.884   2.756
91270W        W58053  22.222   5.541  11.728
91271W        W58054  30.457  44.254   2.697
91272W        W58055   2.021  31.540   0.274
91273W        W58056  21.294   9.342  12.521
91274W        W58057  14.304  16.300   0.053
91275W        W58058  44.842  16.443   5.547
91276W        W58059   6.338  14.343  14.009
91277W        W58060  27.150  26.748  12.314
91278W        W58061  32.916   3.483   1.014
91279W        W58062  21.153   1.007   4.609
91280W        W58063  16.583  15.796   4.148
91281W        W58064   3.332  27.618   2.788
91282W        W58065   1.744  44.921   2.162
91283W        W58066  20.074  14.632  13.272
91284W        W58067  44.779  24.108   0.404
91285W        W58068  36.081  34.609   4.229
91286W        W58069   3.372  15.359  10.792
91287W        W58070  10.275  18.013   0.431
91288W        W58071   3.874  26.558  10.620
91289W        W58072  36.849  37.890  14.761
91290W        W58073  19.450  10.824   3.623
91291W        W58074  30.478  27.378  14.864
91292W        W58075   6.685  10.917  10.698
91293W        W58076  27.904   5.598   4.342
91294W        W58077   8.280   5.156  13.403
91295W        W58078  41.453  23.556  13.926
91296W        W58079  26.727  22.579  12.999
91297W        W58080  41.659  44.797   2.370
91298W        W58081   4.203  32.567   3.123
91299W        W58082  33.574  30.488   4.269
91300W        W58083  15.076  27.011  14.901
91301W        W58084  42.974  41.764  14.489
91302W        W58085   0.850  13.839   0.435
91303W        W58086  19.592  23.239  12.555
91304W        W58087  42.810  40.773   1.300
91305W        W58088   9.809  31.058  10.665
91306W        W58089  20.579  18.245  14.408
91307W        W58090  37.471  24.225  12.899
91308W        W58091   1.853  12.205  11.114
91309W        W58092  28.449  35.979   2.158
91310W        W58093   5.616  33.435  10.261
91311W        W58094  37.128  22.787  13.718
91312W        W58095   5.031  37.606  12.007
91313W        W58096   3.465  24.924  11.054
91314W        W58097  25.046  11.665  14.461
91315W        W58098  32.248  38.393   3.445
91316W        W58099   6.687  23.113  10.619
91317W        W58100   3.231  24.983  13.135
91318W        W58101  36.066  22.428  14.906
91319W        W58102  11.346  34.163  12.057
91320W        W58103   5.721  31.149   1.974
91321W        W58104   4.008   5.910   4.453
91322W        W58105  14.590  11.476  12.930
91323W        W58106   1.936  21.989  13.978
91324W        W58107  42.032  25.430   0.912
91325W        W58108  23.733   7.429  11.622
91326W        W58109  39.072  33.513  11.007
91327W        W58110  16.266   3.158   4.690
91328W        W58111  18.081  42.053  13.440
91329W        W58112  30.418   3.286  12.502
91330W        W58113   6.401  21.593  13.528
91331W        W58114  43.867  23.366  10.726
91332W        W58115  39.958   2.733   2.901
91333W        W58116  19.494  22.159  12.955
91334W        W58117  43.697  35.851   2.333
91335W        W58118  38.907  33.530   1.258
91336W        W58119  11.658  28.002  11.961
91337W        W58120  20.105  10.427   4.376
91338W        W58121  30.487   3.902   3.685
91339W        W58122  34.363  29.509  12.635
91340W        W58123  26.742  44.917  13.936
91341W        W58124   7.757  34.983   1.287
91342W        W58125  23.375  23.972   3.275
91343W        W58126  31.165  27.733  12.760
91344W        W58127   7.099  22.994  14.415
91345W        W58128   9.043  25.057   4.134
91346W        W58129   5.798  21.988   1.649
91347W        W58130  13.687  35.066  10.711
91348W        W58131  16.834  44.230   2.101
91349W        W58132  15.105  21.246   0.263
91350W        W58133  29.633   8.737  11.172
91351W        W58134  10.866  26.188  12.432
91352W        W58135  39.189  12.530  11.963
91353W        W58136  23.115  34.402  10.836
91354W        W58137  37.961  10.595  13.887
91355W        W58138  30.023   3.992  13.557
91356W        W58139   8.869  10.765  12.995
91357W        W58140   0.549  12.545   4.606
91358W        W58141   6.453  20.777  11.345
91359W        W58142  35.946  40.905  13.913
91360W        W58143  19.718  43.783   0.312
91361W        W58144  38.431  42.837   1.242
91362W        W58145  11.131  20.694   2.896
91363W        W58146   9.036  24.420   1.849
91364W        W58147  39.111  18.223  14.467
91365W        W58148  18.755  28.169   3.182
91366W        W58149  36.537  41.652  14.751
91367W        W58150  21.414  41.083  14.521
91368W        W58151  10.730  42.192   0.866
91369W        W58152  43.981  11.675  12.925
91370W        W58153  43.660   5.684   2.680
91371W        W58154  18.543  11.654  11.672
91372W        W58155   1.257  11.875  14.530
91373W        W58156  13.679  34.700  11.486
91374W        W58157  14.167  26.047   0.046
91375W        W58158   6.347  41.210  12.512
91376W        W58159   3.962  43.789  12.629
91377W        W58160  33.491  27.669   1.848
91378W        W58161  18.251   1.281  13.409
91379W        W58162  44.682  42.460   0.378
91380W        W58163  30.954  14.340  11.665
91381W        W58164  14.606  41.926   2.721
91382W        W58165  11.247   8.742  11.702
91383W        W58166  12.010  27.227  10.673
91384W        W58167   6.631  23.208   0.713
91385W        W58168   8.846  25.606   1.615
91386W        W58169   3.864  38.773  10.760
91387W        W58170  39.583   4.895   2.287
91388W        W58171   7.195  13.614   1.664
91389W        W58172  20.108  18.995  10.667
91390W        W58173  28.483  40.236  11.876
91391W        W58174  21.119  43.062  11.540
91392W        W58175  17.870  39.766  12.400
91393W        W58176  29.890   3.963   0.323
91394W        W58177  28.104  41.123   3.582
91395W        W58178   5.242  22.184  13.892
91396W        W58179  35.295  30.998   4.065
91397W        W58180  34.417  26.186   4.228
91398W        W58181   3.030  29.409  12.548
91399W        W58182  39.484  12.537  10.666
91400W        W58183  26.556  15.668   2.648
91401W        W58184  25.126   1.257  11.634
91402W        W58185   1.239  35.652   3.446
91403W        W58186  24.191  26.752  10.837
91404W        W58187  28.547  28.822  10.570
91405W        W58188  14.777   1.482   3.814
91406W        W58189  27.445   2.900   1.451
91407W        W58190   6.215   0.381  12.662
91408W        W58191  18.138  35.921  13.977
91409W        W58192  10.969   7.857   1.746
91410W        W58193  30.549  14.405   2.260
91411W        W58194  25.199  14.546  11.968
91412W        W58195  27.586   2.890   2.456
91413W        W58196  35.820  32.875  12.949
91414W        W58197   2.451  23.011   0.044
91415W        W58198  42.342   6.440  13.171
91416W        W58199   0.467  25.745  13.337
91417W        W58200  15.126  40.263   1.435
91418W        W58201  16.994   7.759   3.036
91419W        W58202   2.176  41.985   1.262
91420W        W58203  12.319   7.222  12.813
91421W        W58204  14.612  33.155  11.622
91422W        W58205  22.732   4.391   4.624
91423W        W58206  11.724  10.707   3.706
91424W        W58207   2.107  30.550   4.161
91425W        W58208  26.393  10.723   3.695
91426W        W58209   5.322  44.535   4.086
91427W        W58210   7.628  35.860   4.160
91428W        W58211  43.732  11.761   2.456
91429W        W58212  43.384  37.740  12.668
91430W        W58213  21.245  19.254   2.276
91431W        W58214   3.340  22.187   4.503
91432W        W58215  24.229  11.940  11.077
91433W        W58216  16.230  24.767  13.916
91434W        W58217  31.939  28.216  11.071
91435W        W58218   2.487  39.416  11.497
91436W        W58219  27.889  42.294  13.853
91437W        W58220  20.065  18.648   2.789
91438W        W58221   6.828  24.748   1.902
91439W        W58222  25.046  41.044  14.340
91440W        W58223   8.258  20.790  11.599
91441W        W58224   6.017  24.285  11.495
91442W        W58225  12.768  11.600   4.693
91443W        W58226   7.720  23.315  13.120
91444W        W58227  30.984  43.392  10.824
91445W        W58228  34.844   9.906  13.708
91446W        W58229  11.488  32.903  12.327
91447W        W58230  12.608   5.917  11.545
91448W        W58231   3.819   5.320   3.601
91449W        W58232  40.378  24.902   0.300
91450W        W58233   5.157  39.933  14.158
91451W        W58234  36.478  18.932  13.117
91452W        W58235  10.459   3.792   0.016
91453W        W58236  41.985   3.367   0.378
91454W        W58237  29.794   4.711   0.979
91455W        W58238  19.452  14.141  14.292
91456W        W58239  11.563  33.905  14.484
91457W        W58240  44.742  22.588   2.967
91458W        W58241  39.094  17.067   2.189
91459W        W58242  37.566  38.817  10.330
91460W        W58243  23.063  41.987  12.313
91461W        W58244  15.337  22.043   4.057
91462W        W58245  25.642   5.260   3.767
91463W        W58246  40.922  36.427   4.793
91464W        W58247  12.756  19.322   1.159
91465W        W58248  17.711  28.223  14.972
91466W        W58249  19.667   2.052   9.802
91467W        W58250  10.311  38.452  10.644
91468W        W58251   5.430  21.363   4.370
91469W        W58252  32.576  39.494   1.874
91470W        W58253  38.954  17.940   1.695
91471W        W58254  30.382   5.992  14.085
91472W        W58255  39.898  34.431   1.330
91473W        W58256  39.537  37.459   2.628
91474W        W58257  16.022  32.970  14.138
91475W        W58258  44.634  32.336   2.127
91476W        W58259  41.439  10.329   0.655
91477W        W58260  33.937  12.794   4.551
91478W        W58261   8.255   8.126   2.250
91479W        W58262  25.550   2.641   3.413
91480W        W58263  30.499  37.437  11.106
91481W        W58264   3.928  31.462  14.250
91482W        W58265  20.765  19.532   0.922
91483W        W58266  18.978  41.895   1.495
91484W        W58267   5.287  30.471   3.681
91485W        W58268  41.321  22.522   1.221
91486W        W58269  32.201  20.514   3.582
91487W        W58270   9.626  20.658   0.355
91488W        W58271  11.996   3.991  12.131
91489W        W58272  30.560  30.606  12.962
91490W        W58273  30.135  12.398  13.277
91491W        W58274   8.839  41.065  12.473
91492W        W58275   5.333  26.710   1.716
91493W        W58276  34.992  38.563   3.177
91494W        W58277   2.336   1.425  12.493
91495W        W58278  22.453  44.075  13.506
91496W        W58279  33.863   1.776  10.799
91497W        W58280  27.219  26.767  14.047
91498W        W58281  17.041  35.036   4.631
91499W        W58282  11.259  28.186   3.870
91500W        W58283  31.071  21.243   1.308
91501W        W58284  44.366  37.742  11.639
91502W        W58285  25.184  22.655   3.288
91503W        W58286  30.504  19.091  13.400
91504W        W58287  42.261  14.039   1.788
91505W        W58288   4.628  41.350  11.077
91506W        W58289  23.283  17.776   2.410
91507W        W58290   5.468  23.636  14.487
91508W        W58291  19.076  20.548  14.900
91509W        W58292  20.794  41.441  14.960
91510W        W58293  23.124  32.436   4.073
91511W        W58294  24.721  13.993  11.507
91512W        W58295  30.120   2.978   2.818
91513W        W58296  40.983   1.563   1.192
91514W        W58297  34.629  34.628  14.255
91515W        W58298  34.276  15.738  12.487
91516W        W58299  15.233  26.232  12.540
91517W        W58300  44.507  31.451   4.586
91518W        W58301   0.504  30.026  14.946
91519W        W58302  26.061   2.875   4.302
91520W        W58303  25.206  40.435   3.467
91521W        W58304   0.886  22.310  12.012
91522W        W58305  14.353  23.946   1.821
91523W        W58306   1.278  34.125   0.392
91524W        W58307  21.714   4.430  10.717
91525W        W58308   9.943  18.731   2.580
91526W        W58309  25.193  22.516  11.419
91527W        W58310  31.097  23.653  11.638
91528W        W58311  36.525  28.533  11.928
91529W        W58312  14.285   9.562  13.948
91530W        W58313  43.537   7.605   1.901
91531W        W58314  34.904  32.509  12.913
91532W        W58315  13.991  34.408   9.645
91533W        W58316  17.895  36.166   1.809
91534W        W58317  13.794  19.185  11.116
91535W        W58318  42.382   6.869  10.242
91536W        W58319   9.853  30.197  14.414
91537W        W58320  17.362  17.356   2.150
91538W        W58321  22.652  35.367   2.840
91539W        W58322   4.178  42.235  13.891
91540W        W58323  34.884  11.396  12.712
91541W        W58324  27.536   3.480  12.312
91542W        W58325   1.042  42.297   3.668
91543W        W58326  27.577  44.990  13.585
91544W        W58327  36.102  26.049   4.743
91545W        W58328   8.266  41.244  12.473
91546W        W58329  30.192  33.244   3.736
91547W        W58330  23.713  12.658  13.131
91548W        W58331  10.732  13.352   1.006
91549W        W58332  12.131  44.785   4.089
91550W        W58333   9.163  13.076  14.471
91551W        W58334  22.985   5.909   0.119
91552W        W58335  36.412  26.203  13.915
91553W        W58336  20.668   7.306   3.618
91554W        W58337  24.078   8.214  11.201
91555W        W58338  20.989  33.140  14.782
91556W        W58339  27.588  13.301  12.920
91557W        W58340  16.352  24.133   1.345
91558W        W58341   9.893  21.216   4.561
91559W        W58342  18.980  18.529  11.686
91560W        W58343  23.773  26.086   0.297
91561W        W58344  24.949  23.425   2.829
91562W        W58345   0.772  16.819  13.865
91563W        W58346  23.108   0.026   2.245
91564W        W58347   1.519  30.240  11.853
91565W        W58348  39.976  26.263   0.199
91566W        W58349   7.829  40.460   2.272
91567W        W58350   2.668  32.879  11.177
91568W        W58351   1.400  16.625  14.236
91569W        W58352  21.694  12.443   4.591
91570W        W58353  39.116   4.260  14.900
91571W        W58354  33.597  16.771   4.328
91572W        W58355  16.798  41.139   0.021
91573W        W58356  24.533  44.199   4.813
91574W        W58357  36.029  26.571   1.867
91575W        W58358  42.516  29.472  10.980
91576W        W58359  18.519  29.445   1.959
91577W        W58360  24.681  43.530   2.591
91578W        W58361  20.551  43.239   4.592
91579W        W58362  12.077  30.967   2.834
91580W        W58363  42.569  39.155  13.976
91581W        W58364   0.500  10.844  12.426
91582W        W58365  17.350   2.436   4.480
91583W        W58366  43.282  23.581  13.449
91584W        W58367  31.686  16.230  11.113
91585W        W58368  18.725  36.863  13.450
91586W        W58369  20.991  39.601  13.996
91587W        W58370  21.923  14.366  14.460
91588W        W58371  41.728  16.654   0.352
91589W        W58372  18.327  36.787  12.808
91590W        W58373  23.636   0.937  13.979
91591W        W58374  15.375   4.186  13.056
91592W        W58375  29.453  13.299   4.110
91593W        W58376  27.931   7.662  11.529
91594W        W58377  20.553  15.155  12.679
91595W        W58378  35.553   5.147  14.368
91596W        W58379  15.619  21.276  14.917
91597W        W58380  16.239  21.652  12.035
91598W        W58381   7.293  14.415   1.015
91599W        W58382  10.114   1.622  14.966
91600W        W58383  39.171  26.688   4.155
91601W        W58384  32.728   2.227   1.158
91602W        W58385  13.803  12.573   1.339
91603W        W58386  43.538  23.258   1.262
91604W        W58387  36.689  32.092  12.897
91605W        W58388   2.746   3.249   0.998
91606W        W58389   8.459  29.969  10.956
91607W        W58390  40.766   2.736  14.342
91608W        W58391  43.206   8.990  13.462
91609W        W58392  30.055  43.860  11.543
91610W        W58393  23.084  33.081   2.411
91611W        W58394  34.904  40.262  13.860
91612W        W58395   7.737   5.963   0.494
91613W        W58396  23.011  29.445  13.192
91614W        W58397  41.992  26.430  11.594
91615W        W58398  28.612  43.762  12.004
91616W        W58399  36.581  23.766   1.680
91617W        W58400  19.743  19.600   3.692
91618W        W58401  19.222  41.265   0.946
91619W        W58402  27.459  40.535   2.682
91620W        W58403  42.544  35.482   0.017
91621W        W58404   1.517  36.519  12.598
91622W        W58405  35.387  24.960   3.580
91623W        W58406  23.372  12.464   2.181
91624W        W58407  43.548  42.876  13.371
91625W        W58408  12.854  19.784  12.547
91626W        W58409  11.222  27.961  12.223
91627W        W58410  31.102   9.795  10.823
91628W        W58411   3.693  26.218   1.129
91629W        W58412  40.368  17.099  11.651
91630W        W58413  44.950  13.283  12.899
91631W        W58414  22.940  12.325  13.342
91632W        W58415  37.441  22.680   1.308
91633W        W58416   0.658   5.766  11.299
91634W        W58417   0.097  22.685   4.142
91635W        W58418  12.784  11.050   1.868
91636W        W58419   6.253  41.257  13.534
91637W        W58420   6.084  11.713   4.960
91638W        W58421   3.943  26.431   2.457
91639W        W58422  26.240   6.709  12.953
91640W        W58423  12.209  40.918   0.821
91641W        W58424  44.763  34.821  10.204
91642W        W58425   1.492  24.006   3.489
91643W        W58426  36.943  18.634  10.494
91644W        W58427  26.236  21.919  14.016
91645W        W58428  38.503  17.785   4.352
91646W        W58429  36.550  43.945   2.379
91647W        W58430  23.977  40.391  13.314
91648W        W58431  11.928  12.618   4.702
91649W        W58432  21.657   1.814   5.090
91650W        W58433  35.356   0.306   1.540
91651W        W58434  19.027  29.075  14.959
91652W        W58435  41.699   9.843  12.399
91653W        W58436  38.472  11.633  11.604
91654W        W58437  18.162  31.059  14.767
91655W        W58438  12.687  14.477  14.960
91656W        W58439  18.022  10.015  14.716
91657W        W58440  42.375  16.683   4.020
91658W        W58441  36.299  43.583   2.065
91659W        W58442  29.269  37.013   1.948
91660W        W58443  27.215  40.036   2.666
91661W        W58444  41.502   4.881  14.020
91662W        W58445  22.704  21.279  14.065
91663W        W58446   1.539  36.816  14.862
91664W        W58447  33.661  17.752   5.218
91665W        W58448   9.745  24.465  13.471
91666W        W58449  39.587   0.332   3.676
91667W        W58450  12.524  24.192  11.492
91668W        W58451  42.728  44.243   2.845
91669W        W58452  19.175  34.878  12.168
91670W        W58453  35.468  34.343   2.978
91671W        W58454  25.481  15.714   2.708
91672W        W58455   7.201  44.748  14.936
91673W        W58456  30.983   7.983  10.431
91674W        W58457  35.959  35.434   3.678
91675W        W58458  22.573  25.423   2.669
91676W        W58459   5.669   3.955   2.078
91677W        W58460  25.997   9.176  11.168
91678W        W58461  21.957  20.526  14.728
91679W        W58462   6.752   8.411  12.475
91680W        W58463  22.080  33.503   4.267
91681W        W58464  43.518  11.257   3.153
91682W        W58465  31.080  35.152   3.137
91683W        W58466   0.542  41.298   3.187
91684W        W58467   8.486  10.946   9.709
91685W        W58468   0.950  35.143  12.033
91686W        W58469  44.339  25.621  11.535
91687W        W58470  38.230  12.397   3.097
91688W        W58471  41.301  16.808   1.369
91689W        W58472   1.873   9.160  11.301
91690W        W58473  36.859   3.142   3.689
91691W        W58474  33.046  38.976   3.201
91692W        W58475  35.764  18.263  13.014
91693W        W58476  22.905  26.573   0.244
91694W        W58477  20.740  38.325   3.707
91695W        W58478  39.127  35.898   1.958
91696W        W58479  31.665  26.004  12.583
91697W        W58480  19.555  27.005  11.073
91698W        W58481  22.132  32.122  12.896
91699W        W58482  33.053  35.959   1.089
91700W        W58483  38.109  23.732   4.896
91701W        W58484  28.130  21.724  14.935
91702W        W58485  26.227   7.310  14.821
91703W        W58486   8.168  12.517  14.960
91704W        W58487  38.879  14.836   2.611
91705W        W58488  28.099  22.904  10.345
91706W        W58489   2.756  15.094   0.389
91707W        W58490  36.434  18.318  11.515
91708W        W58491   9.149  15.735   3.131
91709W        W58492  24.357  43.224   0.412
91710W        W58493  43.392  30.646   1.380
91711W        W58494  15.848  23.190  14.007
91712W        W58495  28.899   7.751  12.383
91713W        W58496  36.845  37.493  11.537
91714W        W58497  26.002   0.290   0.673
91715W        W58498  27.262  35.591   4.012
91716W        W58499  14.271  29.976   3.819
91717W        W58500  36.175   5.298   3.235
91718W        W58501  13.509  40.550   4.603
91719W        W58502  43.262  42.006   0.317
91720W        W58503   0.385   0.946   2.070
91721W        W58504  23.748  11.861  14.135
91722W        W58505  42.021   8.861   3.179
91723W        W58506   9.217  41.705  10.823
91724W        W58507  24.219  17.646  14.686
91725W        W58508  11.124  12.007  14.409
91726W        W58509   9.229  28.239  10.691
91727W        W58510   4.230   4.839  12.917
91728W        W58511  30.611  30.645   4.606
91729W        W58512   5.669  24.615  11.616
91730W        W58513   1.422  25.366  14.903
91731W        W58514   0.903  38.514   2.980
91732W        W58515  41.435  27.321   2.982
91733W        W58516  36.629  44.948   3.439
91734W        W58517  39.606  42.428  12.496
91735W        W58518   5.707  17.250  10.964
91736W        W58519  28.796  40.019  11.515
91737W        W58520  20.066  16.134   3.280
91738W        W58521   9.560  37.005   0.993
91739W        W58522  34.271   4.325  12.895
91740W        W58523  10.926  35.440  13.030
91741W        W58524   0.373  13.270   0.411
91742W        W58525  20.284   3.606  14.340
91743W        W58526  26.703  38.533   1.801
91744W        W58527  38.804   5.596   1.967
91745W        W58528   2.769  42.495   0.456
91746W        W58529  10.717  38.940   4.138
91747W        W58530  17.433   8.106  10.960
91748W        W58531  42.435  13.728  14.287
91749W        W58532  37.552  35.920   4.774
91750W        W58533   1.460  36.019  12.356
91751W        W58534  11.900  42.204   4.499
91752W        W58535  21.226  22.542  13.623
91753W        W58536  18.148  17.311  11.810
91754W        W58537  22.257  20.950  11.133
91755W        W58538  32.452  14.728   1.729
91756W        W58539   0.652  34.469   2.252
91757W        W58540  21.336  17.213   0.284
91758W        W58541  19.223  23.000   2.302
91759W        W58542  19.107  17.320   3.126
91760W        W58543  14.309  18.343   0.002
91761W        W58544  17.586  14.261  11.500
91762W        W58545  18.986  41.931  11.221
91763W        W58546  18.200  32.418   4.624
91764W        W58547  36.741  30.668   2.801
91765W        W58548   5.664  19.149  14.259
91766W        W58549  38.234  24.228  13.273
91767W        W58550   3.959  27.239   2.630
91768W        W58551  12.370   4.411  12.431
91769W        W58552  17.602  43.234  11.076
91770W        W58553  32.045  34.916  12.982
91771W        W58554  27.277  26.127   9.810
91772W        W58555   2.485  34.980   1.681
91773W        W58556  19.576  10.497   3.092
91774W        W58557   9.402  41.843   2.124
91775W        W58558  42.496   3.332  14.533
91776W        W58559   1.304  41.974  12.647
91777W        W58560  18.085  28.811   4.166
91778W        W58561   6.480   5.772  10.434
91779W        W58562  23.682  17.126  13.410
91780W        W58563  37.640  37.917  13.997
91781W        W58564   6.090   8.779   2.623
91782W        W58565  21.149  12.084  11.628
91783W        W58566  40.016  11.433  13.747
91784W        W58567  40.054  14.570  13.371
91785W        W58568  30.711  32.148   3.248
91786W        W58569  43.868   5.501  11.522
91787W        W58570  41.785  34.814   5.203
91788W        W58571  26.038  44.457   0.954
91789W        W58572   2.386  21.193  14.013
91790W        W58573  38.149  31.978  13.825
91791W        W58574   6.225  28.984  12.007
91792W        W58575  28.900  10.842  14.417
91793W        W58576  16.767  33.194  11.591
91794W        W58577   5.713   4.727   2.785
91795W        W58578   6.792  37.080   3.396
91796W        W58579  22.891   0.920  13.448
91797W        W58580  44.318   2.950   3.616
91798W        W58581  35.498  25.249  10.594
91799W        W58582  21.933  43.568  12.934
91800W        W58583  44.396  36.145  12.919
91801W        W58584   3.914  34.038   1.474
91802W        W58585   9.855   8.951   0.050
91803W        W58586  23.248  25.479   0.905
91804W        W58587  22.557  39.899   1.458
91805W        W58588  39.667  30.912   3.191
91806W        W58589  10.226   9.132  11.631
91807W        W58590  18.691  43.830  13.320
91808W        W58591   8.439  32.932  10.393
91809W        W58592  34.077  17.787   2.325
91810W        W58593  16.482  40.468  11.108
91811W        W58594  24.465   8.715   0.510
91812W        W58595  14.331  32.187   0.947
91813W        W58596   0.040   3.789  13.076
91814W        W58597  37.205  14.236  14.289
91815W        W58598  37.996  39.636  12.448
91816W        W58599  18.041  25.741   1.801
91817W        W58600  21.564  44.678   4.370
91818W        W58601  29.937  40.215   4.453
91819W        W58602   2.768  20.372  13.444
91820W        W58603  36.268  19.182   2.690
91821W        W58604   5.223   9.261  13.595
91822W        W58605  40.992  19.290   0.378
91823W        W58606  32.765  26.703   2.382
91824W        W58607  26.423   9.394   3.949
91825W        W58608  24.900  13.535   2.801
91826W        W58609   9.886  34.089  14.887
91827W        W58610   5.780  14.871   2.857
91828W        W58611  36.013  30.626  13.508
91829W        W58612   2.693  38.719  12.396
91830W        W58613   9.910  37.993  12.143
91831W        W58614  30.293  27.478   2.855
91832W        W58615  26.326  12.821   4.543
91833W        W58616  30.422  19.672  13.120
91834W        W58617  43.690  40.432  12.875
91835W        W58618  37.790  27.881  14.291
91836W        W58619  29.245   6.474  13.494
91837W        W58620  38.320  22.717   3.805
91838W        W58621  20.654  33.553  12.670
91839W        W58622  14.401  27.973   2.616
91840W        W58623  38.173  22.031  10.319
91841W        W58624  19.323  11.255  12.780
91842W        W58625  27.556   9.997  10.396
91843W        W58626  14.575  30.102  10.952
91844W        W58627   4.208  29.743  14.458
91845W        W58628  12.727  40.073   4.515
91846W        W58629  12.279  16.831  13.957
91847W        W58630  31.673   6.342  10.647
91848W        W58631   8.712  10.595   5.290
91849W        W58632  36.529  31.063  11.658
91850W        W58633  38.495   2.571   2.841
91851W        W58634  27.539  21.840  14.599
91852W        W58635   4.169  37.309   3.591
91853W        W58636  24.218   7.971  12.180
91854W        W58637   7.803  40.487   3.439
91855W        W58638  32.857  35.036  14.524
91856W        W58639  30.154  41.596  12.976
91857W        W58640  34.530   3.429   1.811
91858W        W58641  26.647  36.656   2.345
91859W        W58642  26.585  22.101  13.138
91860W        W58643   4.488  17.323  13.764
91861W        W58644  33.604  29.071  13.514
91862W        W58645  32.724   5.983  13.920
91863W        W58646  30.403  12.636  12.005
91864W        W58647  27.811  23.102  14.992
91865W        W58648  36.101   8.754  13.337
91866W        W58649  14.325  34.562   1.478
91867W        W58650  44.746  24.516  13.425
91868W        W58651  28.403  11.790  13.295
91869W        W58652  23.514  33.280   0.393
91870W        W58653   8.704  11.688  14.523
91871W        W58654  40.466  42.833   2.361
91872W        W58655  41.521  38.301   0.516
91873W        W58656  10.247  31.677  11.120
91874W        W58657  12.138  12.024   1.380
91875W        W58658  36.904  19.158  11.173
91876W        W58659   8.215  10.199  11.645
91877W        W58660  29.080  42.152  12.394
91878W        W58661  10.817   2.743   3.658
91879W        W58662   7.419   4.746   0.324
91880W        W58663   8.609  10.383   0.279
91881W        W58664  29.695   0.064   3.538
91882W        W58665  24.827  14.103   4.228
91883W        W58666   5.153   6.563   1.418
91884W        W58667  42.509   2.274  13.057
91885W        W58668  12.395   0.837  14.661
91886W        W58669  30.660  40.433  14.843
91887W        W58670   9.801   0.953  12.824
91888W        W58671  28.160  26.186   1.800
91889W        W58672  32.082  39.548   3.619
91890W        W58673   2.537  26.804  11.989
91891W        W58674  21.342  27.024   5.775
91892W        W58675  12.710  12.154   4.611
91893W        W58676  13.076  20.102  12.895
91894W        W58677  30.820  33.999   0.842
91895W        W58678  36.349  43.463   0.687
91896W        W58679  44.529  21.729   2.607
91897W        W58680  20.640  30.631  11.231
91898W        W58681  30.009  11.901   4.273
91899W        W58682  20.107  37.454   3.644
91900W        W58683   2.495  27.605  10.666
91901W        W58684  15.832  23.302   4.039
91902W        W58685  24.988  15.127   3.372
91903W        W58686  14.770  29.233  13.928
91904W        W58687  29.862  12.406   4.226
91905W        W58688  20.061   2.913   3.604
91906W        W58689  36.458   2.213  14.399
91907W        W58690  16.058  23.495  14.419
91908W        W58691  32.071   3.186   0.484
91909W        W58692  21.721  11.217   1.835
91910W        W58693  14.728  36.609  11.612
91911W        W58694   6.824  10.770   4.494
91912W        W58695   3.604  13.558   4.296
91913W        W58696  40.589  35.935   4.314
91914W        W58697  42.580  13.679   0.506
91915W        W58698   3.633  23.114   4.483
91916W        W58699  18.863  21.112   2.836
91917W        W58700  11.071  35.862  10.129
91918W        W58701  10.609  15.436  13.474
91919W        W58702  41.982  12.124  14.377
91920W        W58703  17.360  44.785   0.428
91921W        W58704  40.415  20.144   0.266
91922W        W58705  11.965  21.933   4.883
91923W        W58706  23.458  43.100  13.146
91924W        W58707  44.921  17.040   0.430
91925W        W58708  31.798  30.937  11.599
91926W        W58709  33.511  21.646   0.193
91927W        W58710   2.540  17.409   4.120
91928W        W58711  22.699  10.838  10.728
91929W        W58712  28.737  11.100   4.146
91930W        W58713  27.373  42.237   2.372
91931W        W58714   1.997  18.222  10.693
91932W        W58715   4.967   3.337  12.929
91933W        W58716  34.307  21.192   1.620
91934W        W58717  16.961   2.416  13.397
91935W        W58718  36.330  37.047   2.183
91936W        W58719  31.184  18.107   0.187
91937W        W58720  22.913   7.471   1.339
91938W        W58721  15.220   1.730  12.995
91939W        W58722  42.360  11.669  12.374
91940W        W58723   7.378  39.572  11.879
91941W        W58724  10.252   4.352  13.839
91942W        W58725  33.866  16.345   3.605
91943W        W58726  27.663   6.695  14.303
91944W        W58727  21.046  26.178   1.188
91945W        W58728  41.419  37.957  12.978
91946W        W58729  15.337  11.656  11.058
91947W        W58730  35.476  13.617  12.440
91948W        W58731  12.340  21.175   0.976
91949W        W58732  27.693  34.920   3.195
91950W        W58733  19.583  36.076  12.992
91951W        W58734   2.415   8.902   4.141
91952W        W58735  16.233   0.865   2.906
91953W        W58736  27.900  28.994  14.739
91954W        W58737   8.111   2.902  12.904
91955W        W58738   1.040  31.933  12.598
91956W        W58739  26.961  28.688   2.919
91957W        W58740  21.350   6.906   2.297
91958W        W58741   9.149  14.635   0.248
91959W        W58742  38.122   8.652  10.450
91960W        W58743  33.829  21.156   1.788
91961W        W58744  36.096  33.438  12.046
91962W        W58745  25.573   2.801  13.696
91963W        W58746   3.286  34.369  10.832
91964W        W58747  21.741  35.207  12.319
91965W        W58748   2.765   3.405   3.682
91966W        W58749  14.108  37.652  14.023
91967W        W58750  19.413  31.706   3.388
91968W        W58751  33.037   1.042  11.466
91969W        W58752  43.131  21.814   4.382
91970W        W58753  31.424  26.692  14.288
91971W        W58754  40.854  17.778   0.030
91972W        W58755  19.451  18.301  13.582
91973W        W58756  23.127  29.234   4.836
91974W        W58757  30.909  23.562   4.720
91975W        W58758  39.594   7.839   1.183
91976W        W58759  16.118  42.304  12.155
91977W        W58760   6.295  34.128   3.786
91978W        W58761   5.808  30.979  14.540
91979W        W58762  19.286  36.472   1.813
91980W        W58763  31.342   3.316  12.060
91981W        W58764  26.893  25.732  11.793
91982W        W58765   4.789  40.768   1.307
91983W        W58766  24.706   8.365  13.897
91984W        W58767  37.595  32.878   3.664
91985W        W58768  18.798   9.151  10.607
91986W        W58769  21.815  24.930  12.537
91987W        W58770  28.411  17.135  10.617
91988W        W58771   0.223  31.501   4.071
91989W        W58772  29.600  22.059   3.798
91990W        W58773   0.692  20.403  13.409
91991W        W58774  20.018  20.596  14.036
91992W        W58775  17.375  13.368  11.500
91993W        W58776  22.592  24.549   4.487
91994W        W58777  10.039  21.271   0.479
91995W        W58778  10.458  22.263   1.562
91996W        W58779   1.013  21.523   2.660
91997W        W58780  14.101   5.789  14.260
91998W        W58781   7.325   2.407   1.713
91999W        W58782  44.477  15.987   0.707
92000W        W58783  30.455   6.687  13.576
92001W        W58784  24.318  32.888   1.726
92002W        W58785   8.642  33.973   0.843
92003W        W58786  17.409  21.506   2.019
92004W        W58787  35.022  34.625   2.926
92005W        W58788  23.435  40.499  13.171
92006W        W58789  41.019  29.730  11.180
92007W        W58790  16.088   5.007   9.940
92008W        W58791  39.933  28.082  14.943
92009W        W58792   9.892  32.709   1.712
92010W        W58793  34.636   8.242   5.021
92011W        W58794  26.276  24.055  14.850
92012W        W58795  43.354  25.562  10.615
92013W        W58796   6.740  18.524   1.641
92014W        W58797   1.804   7.906  12.655
92015W        W58798   7.205   9.213  14.333
92016W        W58799  10.907   6.437   2.869
92017W        W58800  19.239  44.247   3.681
92018W        W58801  27.983  27.402  12.831
92019W        W58802  11.908  14.834   3.661
92020W        W58803  25.080  28.713  12.548
92021W        W58804  33.678  37.442   2.823
92022W        W58805  12.285  22.826  10.521
92023W        W58806  12.601   9.506   3.999
92024W        W58807  40.621   7.660  13.337
92025W        W58808  33.546  30.213   3.525
92026W        W58809   6.928   3.945  10.724
92027W        W58810  18.640  24.529   4.436
92028W        W58811  39.542  23.911   4.104
92029W        W58812  26.364  15.570   1.703
92030W        W58813  34.361  33.366  13.459
92031W        W58814  39.183  10.864   4.188
92032W        W58815  43.341   0.574   2.323
92033W        W58816  11.043  12.738  11.016
92034W        W58817  26.585  16.743  14.416
92035W        W58818   1.912  21.136   2.108
92036W        W58819  12.977  32.459  12.229
92037W        W58820   8.116   9.165   0.908
92038W        W58821   1.499  23.956   0.979
92039W        W58822  39.880  31.540  14.442
92040W        W58823  17.586  26.685   0.524
92041W        W58824  39.500  29.284  13.930
92042W        W58825  25.467  16.017   3.186
92043W        W58826  28.155  44.458   4.082
92044W        W58827  16.857  35.106  12.735
92045W        W58828  26.705  18.166   0.736
92046W        W58829  44.596   1.828  10.560
92047W        W58830  43.837  11.255  12.097
92048W        W58831  19.586   3.284   2.232
92049W        W58832   5.940   6.286   1.217
92050W        W58833   1.259  20.664   2.890
92051W        W58834  44.406  42.379  14.138
92052W        W58835  37.328  34.337  13.944
92053W        W58836  35.956  20.240   4.354
92054W        W58837  15.245  14.703   3.182
92055W        W58838  14.788  41.325  12.102
92056W        W58839  14.650  14.114  14.435
92057W        W58840   5.532  13.514   4.137
92058W        W58841   1.415  26.420  10.697
92059W        W58842  29.903  20.721   0.004
92060W        W58843   8.809   9.786   4.131
92061W        W58844  35.439   2.876   1.249
92062W        W58845   7.720  42.411   0.263
92063W        W58846   5.693  33.381   0.985
92064W        W58847  35.998   6.129   1.473
92065W        W58848  26.106  43.992  13.639
92066W        W58849  31.346   7.334   4.534
92067W        W58850  33.852  39.023   1.785
92068W        W58851  38.299  31.061   0.198
92069W        W58852   0.409  22.122  12.125
92070W        W58853   5.913  34.378   0.814
92071W        W58854  31.067  44.548   1.109
92072W        W58855  28.557  20.563   2.591
92073W        W58856  24.676   6.865  13.389
92074W        W58857   4.926  10.824  14.023
92075W        W58858  32.322  32.142   2.802
92076W        W58859  14.150  38.997   3.876
92077W        W58860   0.391  16.169  13.780
92078W        W58861  29.980  41.557  11.200
92079W        W58862  37.134  35.849  12.919
92080W        W58863  34.518   2.271  13.860
92081W        W58864  14.748  16.086  13.148
92082W        W58865   3.999  24.225   3.538
92083W        W58866  24.402  39.833   9.881
92084W        W58867   9.525  27.119  12.474
92085W        W58868  27.994  17.111   2.179
92086W        W58869   5.186  12.804   0.778
92087W        W58870   0.835  19.100   4.341
92088W        W58871  43.521   0.530  13.126
92089W        W58872  11.101   4.273   3.313
92090W        W58873   6.880  44.319  13.070
92091W        W58874  21.606  29.412  12.489
92092W        W58875  30.429  40.482  13.076
92093W        W58876   7.529  38.352  11.603
92094W        W58877   7.832  42.418   4.569
92095W        W58878  24.613  10.385   2.667
92096W        W58879  40.333  20.716   3.476
92097W        W58880  28.812  17.573   4.198
92098W        W58881  28.630  42.516   1.336
92099W        W58882  12.924  29.800   5.207
92100W        W58883  17.168  29.409   2.684
92101W        W58884  41.579   5.690  12.522
92102W        W58885  11.835   5.033   1.039
92103W        W58886  28.642  37.812  11.273
92104W        W58887  16.844   2.368  14.346
92105W        W58888  23.536  32.286   9.777
92106W        W58889   7.199  21.803   1.732
92107W        W58890  20.612  41.726  13.538
92108W        W58891   2.380  11.691  13.829
92109W        W58892  43.337  36.485  13.034
92110W        W58893  24.629  22.063  12.871
92111W        W58894  40.881  39.374   1.652
92112W        W58895  29.671   5.814  14.919
92113W        W58896   5.020   9.630   2.730
92114W        W58897  44.225  39.775  10.647
92115W        W58898  23.549  29.683   0.799
92116W        W58899  35.581  22.636   4.522
92117W        W58900  25.294  23.147  14.542
92118W        W58901  14.257  32.122   2.844
92119W        W58902  12.251  26.999   0.364
92120W        W58903  20.753   9.794   3.197
92121W        W58904  23.073  22.265  11.211
92122W        W58905  21.037  20.995  12.937
92123W        W58906   4.413  37.435   9.892
92124W        W58907  34.005  20.179   2.696
92125W        W58908  29.215   1.510  13.758
92126W        W58909  37.139  43.789   1.244
92127W        W58910  24.258  42.424  11.611
92128W        W58911  43.036  19.289   4.808
92129W        W58912  21.667  19.970   2.229
92130W        W58913  23.026   1.083  14.454
92131W        W58914   2.237  15.798   4.235
92132W        W58915  11.942  12.570  10.117
92133W        W58916  17.129  25.992   3.361
92134W        W58917  30.875  17.345   4.074
92135W        W58918  39.220  43.474   2.188
92136W        W58919  11.554  33.845  11.518
92137W        W58920  14.674  19.019   3.788
92138W        W58921  11.573   8.556  11.317
92139W        W58922  35.044  42.193   2.396
92140W        W58923   7.364  26.846   0.348
92141W        W58924  40.577  18.418  12.000
92142W        W58925  38.272  15.308   3.591
92143W        W58926  16.568  39.514  11.899
92144W        W58927  13.590  14.797   2.438
92145W        W58928  15.850  38.558   3.615
92146W        W58929  44.011   6.522   4.115
92147W        W58930   6.802  27.691   4.906
92148W        W58931  17.105  41.079  11.269
92149W        W58932   9.147  15.269   2.193
92150W        W58933  26.990  42.336   1.898
92151W        W58934  22.998  36.567   4.029
92152W        W58935   8.492  26.782   1.032
92153W        W58936  26.198   3.807   0.633
92154W        W58937  38.576  28.371   1.729
92155W        W58938   6.789  40.124   2.175
92156W        W58939  12.295  33.089   2.326
92157W        W58940  11.892  13.365   2.396
92158W        W58941  37.339   9.133   1.835
92159W        W58942   4.091   2.816   1.818
92160W        W58943  12.169   6.366   3.794
92161W        W58944  43.668  20.982  12.027
92162W        W58945  30.794  18.720   2.321
92163W        W58946  32.044  44.792   3.286
92164W        W58947  11.766  21.852   1.275
92165W        W58948  20.996  27.947  12.534
92166W        W58949   4.234  21.672  10.637
92167W        W58950  12.723  33.631  10.698
92168W        W58951  43.971   7.675   3.108
92169W        W58952  34.412  31.069   2.084
92170W        W58953  30.499  38.472  11.266
92171W        W58954  22.652  31.922  14.108
92172W        W58955  40.645  37.448  10.323
92173W        W58956  16.368  36.794   1.134
92174W        W58957  12.376  41.526   3.391
92175W        W58958   8.621  23.651   2.195
92176W        W58959   4.405  19.556  10.698
92177W        W58960  20.698   4.664   0.167
92178W        W58961  42.494   6.601   1.475
92179W        W58962   3.531   4.752   3.628
92180W        W58963   8.914  12.941   2.023
92181W        W58964  20.662   7.205   3.130
92182W        W58965  21.348  24.101   4.566
92183W        W58966  21.339  11.343  13.943
92184W        W58967  27.824  27.884  14.036
92185W        W58968  20.044   5.899  10.712
92186W        W58969  14.909   9.370   0.420
92187W        W58970   1.881  18.770   1.759
92188W        W58971  36.320  20.840  11.935
92189W        W58972  13.395  30.663  11.091
92190W        W58973  25.579  29.064   3.311
92191W        W58974  36.109  21.947   3.777
92192W        W58975   7.681  14.852  14.226
92193W        W58976  31.550  18.147   1.867
92194W        W58977  34.509  36.704   2.373
92195W        W58978  27.529  29.616   4.341
92196W        W58979  29.511  10.873  13.790
92197W        W58980  18.765  32.268  13.082
92198W        W58981  32.789  42.341  12.902
92199W        W58982   4.453  40.712  10.293
92200W        W58983  12.610  32.155   3.715
92201W        W58984  38.376  12.741   2.261
92202W        W58985  39.529  43.349   0.408
92203W        W58986  19.107  32.416  14.069
92204W        W58987  41.227  32.474   2.419
92205W        W58988  22.828   4.184  14.891
92206W        W58989  37.010  17.602  11.515
92207W        W58990  18.311   4.011   0.299
92208W        W58991  12.172  30.652  11.438
92209W        W58992  11.876  41.888   2.321
92210W        W58993   7.658  21.845  12.942
92211W        W58994  19.180   5.051   1.297
92212W        W58995   0.327  35.053  10.690
92213W        W58996  17.858   2.360   3.691
92214W        W58997   1.457  44.738   1.708
92215W        W58998  40.393  26.452   3.717
92216W        W58999  23.275   2.804  14.847
92217W        W59000  40.343  34.118   0.674
92218W        W59001   2.975   5.617   3.841
92219W        W59002  34.035   5.469   2.876
92220W        W59003  11.467  29.635   2.662
92221W        W59004   7.112  29.203  14.850
92222W        W59005  43.007   8.262  13.603
92223W        W59006   1.879  17.599  13.465
92224W        W59007  34.107   8.714  13.323
92225W        W59008   0.328  32.412   3.879
92226W        W59009   3.467  20.927   4.967
92227W        W59010   3.990   1.760   4.190
92228W        W59011   2.447  27.883  13.435
92229W        W59012  18.839  25.241   2.275
92230W        W59013  28.906  33.145   1.369
92231W        W59014  12.117  11.870  11.553
92232W        W59015  31.560  34.022   0.414
92233W        W59016   5.182  11.633   3.411
92234W        W59017   5.229  11.906  12.938
92235W        W59018   4.762  19.041   0.836
92236W        W59019  43.675  34.797  10.925
92237W        W59020  42.819  19.325  12.666
92238W        W59021  11.918  40.405   4.553
92239W        W59022   5.010  33.600   3.859
92240W        W59023   8.206   2.959   0.397
92241W        W59024   2.769  31.382   2.701
92242W        W59025  33.298  37.800   2.779
92243W        W59026   2.683   1.495  12.086
92244W        W59027  18.756  33.096   4.231
92245W        W59028  36.346  11.458   0.206
92246W        W59029  36.823   5.488   4.100
92247W        W59030   9.569  34.216   4.241
92248W        W59031  38.185  22.836   4.515
92249W        W59032  19.733  40.121   1.997
92250W        W59033  18.267  11.715   2.909
92251W        W59034  26.938  12.658  14.973
92252W        W59035  25.141   7.203   2.465
92253W        W59036   2.883  42.988  14.617
92254W        W59037   4.349  33.828  12.480
92255W        W59038  12.833  35.321  14.789
92256W        W59039  18.365  18.208   0.493
92257W        W59040  15.585   1.201  14.355
92258W        W59041  34.947  29.340   2.154
92259W        W59042  10.581   1.685  13.087
92260W        W59043   6.523   2.904   3.174
92261W        W59044   1.472  34.821   0.008
92262W        W59045   2.642   1.626   0.308
92263W        W59046  27.404  16.744  14.851
92264W        W59047   2.964  27.945   1.423
92265W        W59048  36.446  12.037  13.511
92266W        W59049  43.364  32.120  11.064
92267W        W59050   3.720   0.505   2.153
92268W        W59051   5.748   3.334  10.763
92269W        W59052  44.674  25.106   4.095
92270W        W59053  23.834  33.970  12.371
92271W        W59054  37.025   0.452  13.376
92272W        W59055  37.510  29.648  14.393
92273W        W59056   0.495  40.781   1.118
92274W        W59057  35.621   6.924  14.479
92275W        W59058  37.163   9.956   0.834
92276W        W59059   9.554  36.345   3.743
92277W        W59060  22.066  20.492  11.002
92278W        W59061  24.559  30.924  14.444
92279W        W59062  13.318  33.497  12.658
92280W        W59063  43.082  41.692   2.644
92281W        W59064  14.189  17.090   0.601
92282W        W59065  33.079  33.672   2.832
92283W        W59066   2.303   7.782   3.931
92284W        W59067   2.186  30.188   0.168
92285W        W59068  21.272  26.446   3.082
92286W        W59069  13.254  32.237  10.359
92287W        W59070  38.797   4.445   1.503
92288W        W59071  43.512  14.472   1.883
92289W        W59072  29.112   4.113   1.817
92290W        W59073  44.912   4.048   1.634
92291W        W59074  12.901  28.573   2.418
92292W        W59075  23.237  12.567  12.932
92293W        W59076  13.542  42.326  11.584
92294W        W59077  25.059  21.301  12.514
92295W        W59078  44.932  27.369  14.115
92296W        W59079   0.515  28.938   1.834
92297W        W59080  44.793  18.273  12.551
92298W        W59081   1.285  36.568  12.156
92299W        W59082  43.782  24.385  10.873
92300W        W59083  10.327   4.215   2.827
92301W        W59084  29.833   7.720   0.958
92302W        W59085  14.769  30.090  12.591
92303W        W59086  26.476  24.457  13.928
92304W        W59087  20.252  44.553  11.073
92305W        W59088  14.162  20.445   1.094
92306W        W59089  31.406  39.522  13.870
92307W        W59090   4.056  36.366   3.916
92308W        W59091  37.865  43.724   0.513
92309W        W59092  13.603  29.354   1.669
92310W        W59093  17.020  32.383  11.044
92311W        W59094  31.564  19.779  14.440
92312W        W59095   8.635   2.066   1.755
92313W        W59096  30.782  18.656   9.908
92314W        W59097  21.780  36.017   3.694
92315W        W59098   6.097   8.642   0.376
92316W        W59099  37.448  11.197   1.205
92317W        W59100  18.822  13.309   4.138
92318W        W59101   8.810   1.901  12.535
92319W        W59102  37.851   2.952  11.409
92320W        W59103   0.178   4.199  12.050
92321W        W59104  38.612  24.020   4.175
92322W        W59105  15.752  25.425   3.179
92323W        W59106   1.885  39.214   2.218
92324W        W59107  31.921  18.074  14.788
92325W        W59108   6.096  34.957  14.943
92326W        W59109  25.561  45.000  12.096
92327W        W59110  13.848  24.712  14.040
92328W        W59111   2.171  16.082   1.030
92329W        W59112  35.650   7.490  12.862
92330W        W59113  39.431   8.109   2.053
92331W        W59114  27.813  14.625  11.060
92332W        W59115  21.301  18.519   0.406
92333W        W59116  37.074  28.214   3.624
92334W        W59117   0.791  25.690   2.155
92335W        W59118   0.375  37.624   0.326
92336W        W59119  30.978  23.489  11.153
92337W        W59120  26.213   3.178   5.182
92338W        W59121  34.104  10.325  14.030
92339W        W59122  34.313  19.216  10.672
92340W        W59123  37.968   1.525  13.380
92341W        W59124  13.131  35.888   1.703
92342W        W59125  28.267  16.760   1.649
92343W        W59126  39.012  35.644  12.637
92344W        W59127   5.397  24.553  12.043
92345W        W59128   6.433  41.693  12.733
92346W        W59129  10.921   6.270   4.066
92347W        W59130  38.859  39.045   1.807
92348W        W59131  21.138  22.336  10.596
92349W        W59132   8.123  30.117   3.698
92350W        W59133   1.911  11.148   3.145
92351W        W59134  38.330  35.149  11.657
92352W        W59135  29.397  27.933  13.991
92353W        W59136  20.339  40.844  13.805
92354W        W59137  12.223  11.936  12.519
92355W        W59138  25.683  27.443   0.518
92356W        W59139  40.940   4.416   2.358
92357W        W59140  27.159  12.170   2.356
92358W        W59141  36.187  30.933   1.140
92359W        W59142  10.236  19.558   0.312
92360W        W59143  23.596  42.437   0.245
92361W        W59144  33.825  29.570  13.394
92362W        W59145  23.167  21.635   3.660
92363W        W59146  40.532  18.145  12.463
92364W        W59147   4.192  36.330  14.269
92365W        W59148  35.053  26.472   0.274
92366W        W59149  13.293  25.685  14.353
92367W        W59150  23.064  34.881   2.343
92368W        W59151  11.693  29.628  12.004
92369W        W59152  43.501   6.642   1.471
92370W        W59153  10.684   4.837   3.834
92371W        W59154  22.688  18.247  11.603
92372W        W59155  10.809  21.728   4.146
92373W        W59156  37.052   8.364  13.504
92374W        W59157  10.325  19.671   0.803
92375W        W59158  15.689  42.946  12.061
92376W        W59159   5.935   1.706   0.355
92377W        W59160  38.035   8.885  13.541
92378W        W59161  29.088  29.266   1.742
92379W        W59162  40.294  17.960  10.224
92380W        W59163   1.362  10.957   4.148
92381W        W59164  41.205  29.177   4.070
92382W        W59165  13.291   8.845  14.314
92383W        W59166  36.500  43.822   4.998
92384W        W59167  14.744  31.928   1.640
92385W        W59168  14.334  17.849  13.117
92386W        W59169   5.884   7.463   4.155
92387W        W59170   4.235  18.617  11.108
92388W        W59171   1.712   9.287   4.956
92389W        W59172   2.017  33.064  12.521
92390W        W59173  36.580  12.447  14.355
92391W        W59174  14.853  25.731   3.383
92392W        W59175  10.113  13.414   4.984
92393W        W59176   7.455  17.274  11.962
92394W        W59177  25.705   9.672  14.337
92395W        W59178  36.866   6.406   4.121
92396W        W59179   3.394  30.059   4.450
92397W        W59180  11.758  41.390  11.491
92398W        W59181  10.161  28.038   0.828
92399W        W59182  12.863  35.535   2.606
92400W        W59183  29.028   9.139  10.689
92401W        W59184   8.378  15.674  11.904
92402W        W59185  32.614  12.774   2.341
92403W        W59186  30.282  37.254  14.726
92404W        W59187  43.947  20.560   1.262
92405W        W59188  20.627  32.868  10.915
92406W        W59189  28.807  17.560  14.753
92407W        W59190  33.177  38.306   3.345
92408W        W59191   8.710  35.344   2.664
92409W        W59192   3.770  10.055   2.745
92410W        W59193   3.931  14.726   4.253
92411W        W59194  43.363   1.305  12.102
92412W        W59195  40.362  36.260  11.464
92413W        W59196  23.963  15.317   0.935
92414W        W59197  39.263  38.863  12.073
92415W        W59198   2.524  41.334   2.897
92416W        W59199  12.393  23.731  14.842
92417W        W59200  11.425  35.559  10.701
92418W        W59201   7.602  38.376   3.709
92419W        W59202  37.939  37.593  13.540
92420W        W59203  22.101  27.746   0.515
92421W        W59204  18.976   8.616  13.218
92422W        W59205  42.969   9.438  14.773
92423W        W59206  13.791  14.135  14.415
92424W        W59207  20.094   1.214   3.554
92425W        W59208   6.239  10.685  10.725
92426W        W59209  20.968  17.974  10.004
92427W        W59210  13.121  22.411   1.620
92428W        W59211  11.179  18.473  14.478
92429W        W59212   0.718  42.983  13.005
92430W        W59213  34.379   4.373   3.967
92431W        W59214  11.867   9.502   5.294
92432W        W59215  18.678  20.220  14.074
92433W        W59216   1.462  15.787   3.269
92434W        W59217  18.889  17.316   0.460
92435W        W59218  17.165   4.855   3.179
92436W        W59219  36.357  33.539  11.623
92437W        W59220  13.504  16.576   2.152
92438W        W59221  34.358  40.503  13.460
92439W        W59222  29.935   9.345  12.011
92440W        W59223  15.821  17.715  10.242
92441W        W59224   1.637  27.188  13.429
92442W        W59225  42.938  15.225   3.520
92443W        W59226  12.890  34.280  14.580
92444W        W59227  44.649  16.128   4.608
92445W        W59228   3.931  42.472  14.278
92446W        W59229  38.469   0.707  10.933
92447W        W59230  23.304   9.107   0.854
92448W        W59231  38.419  34.137  11.979
92449W        W59232  27.351  22.706  10.641
92450W        W59233  29.846   8.871   4.452
92451W        W59234   3.169  18.174   2.149
92452W        W59235   3.432  36.297  12.027
92453W        W59236  15.050  35.557  12.412
92454W        W59237  11.061  43.570  14.218
92455W        W59238  25.533  22.092   5.070
92456W        W59239   1.413  10.621  13.323
92457W        W59240  43.275   2.000  11.010
92458W        W59241   2.842  13.739   3.323
92459W        W59242  23.135  38.889  14.957
92460W        W59243  33.584  44.787  14.271
92461W        W59244  35.385  36.927   3.539
92462W        W59245  22.191  22.084  12.501
92463W        W59246  32.642   2.437   4.148
92464W        W59247  25.058  36.511  10.970
92465W        W59248  29.946  31.830   2.831
92466W        W59249  35.089  28.486  11.118
92467W        W59250  15.894  15.398  12.347
92468W        W59251  43.480  39.532  12.453
92469W        W59252  23.144  12.660  14.898
92470W        W59253  18.598  38.608   2.815
92471W        W59254  12.039  39.763  12.581
92472W        W59255  30.412  29.027   2.250
92473W        W59256  43.991  24.132   4.090
92474W        W59257  25.226  15.081  13.229
92475W        W59258  39.570  17.684  11.501
92476W        W59259  15.062  16.768   3.755
92477W        W59260   8.301  43.304  13.007
92478W        W59261  30.150   6.756   3.289
92479W        W59262  21.291   9.848  12.452
92480W        W59263  30.468  29.469   1.312
92481W        W59264  14.248  41.822  13.448
92482W        W59265  20.153  18.963   2.372
92483W        W59266  12.333   7.316   3.799
92484W        W59267  31.624  23.691  12.498
92485W        W59268  35.581  25.897  12.857
92486W        W59269   7.367   8.218   0.244
92487W        W59270  20.989  42.875   1.501
92488W        W59271  40.889   4.774   3.635
92489W        W59272  19.253   7.380  14.407
92490W        W59273  30.415  16.792   2.104
92491W        W59274  16.742   3.780   4.261
92492W        W59275   4.217  31.178  11.599
92493W        W59276  27.858  43.881  10.373
92494W        W59277  38.295  23.976  14.190
92495W        W59278  37.020   7.896   4.708
92496W        W59279  15.261  38.493   0.798
92497W        W59280  39.732  42.978  10.614
92498W        W59281  10.276  33.404   3.361
92499W        W59282   1.915  30.652   1.313
92500W        W59283  41.632  16.209  14.367
92501W        W59284   4.368   6.126   1.810
92502W        W59285  26.748  28.216   0.228
92503W        W59286  31.618  39.757  14.829
92504W        W59287  31.483  33.023  13.430
92505W        W59288  34.350  13.158   3.823
92506W        W59289  28.504   8.777   4.552
92507W        W59290  12.155  42.988  11.744
92508W        W59291  18.853   0.981  13.935
92509W        W59292  16.611  27.759  10.851
92510W        W59293  22.037  27.956   0.971
92511W        W59294  40.946  32.951  13.789
92512W        W59295  35.123   5.193  11.688
92513W        W59296  32.930  15.145  13.876
92514W        W59297  39.750  18.778   0.599
92515W        W59298  33.683  15.749  10.600
92516W        W59299  42.350  40.073   2.366
92517W        W59300  21.159  36.901   4.600
92518W        W59301  32.201   6.865  12.954
92519W        W59302  11.506  21.251   2.230
92520W        W59303  28.752   8.033   0.242
92521W        W59304  34.568  29.444  14.536
92522W        W59305  44.288   7.485  11.659
92523W        W59306  12.842  25.182  11.109
92524W        W59307  31.383  24.107   1.402
92525W        W59308  33.911   9.123  11.365
92526W        W59309  44.495  15.758  11.981
92527W        W59310   8.329   7.397  13.085
92528W        W59311  25.140   2.082  12.518
92529W        W59312   2.034  37.374  12.855
92530W        W59313  34.598  38.536   3.562
92531W        W59314  41.512  23.963   4.488
92532W        W59315  33.477  18.625   3.523
92533W        W59316   3.956  18.217   5.056
92534W        W59317   4.648  19.574  12.478
92535W        W59318  13.176  10.057  12.884
92536W        W59319   8.873  28.434   0.130
92537W        W59320   2.664  24.725  12.539
92538W        W59321  17.836  30.105  13.409
92539W        W59322   5.710  37.428  14.685
92540W        W59323  24.693  10.663   2.234
92541W        W59324   2.480  17.838  12.028
92542W        W59325  17.225   6.170  10.184
92543W        W59326   5.230   1.347  13.825
92544W        W59327  36.019  33.354  12.964
92545W        W59328   9.191  33.595   2.740
92546W        W59329  12.607  12.840   2.489
92547W        W59330  12.802  29.578  13.996
92548W        W59331  42.848  38.344  14.543
92549W        W59332  27.230  25.378   2.603
92550W        W59333  33.915  26.235   1.873
92551W        W59334  24.672  36.690  13.367
92552W        W59335   3.857  19.034   0.907
92553W        W59336  35.348  36.440   1.836
92554W        W59337   7.770   2.475   4.220
92555W        W59338  41.400  19.169  12.289
92556W        W59339  33.363  29.073  14.820
92557W        W59340   1.570   6.908  14.395
92558W        W59341  26.195  43.505   2.331
92559W        W59342  41.399  14.420  13.833
92560W        W59343  18.524  33.416  10.277
92561W        W59344  30.279  18.151   2.727
92562W        W59345   5.298   5.349  10.959
92563W        W59346   5.740  39.840   0.015
92564W        W59347  10.431   5.546  13.863
92565W        W59348   4.555  32.579  10.420
92566W        W59349  27.443   1.493  13.006
92567W        W59350  10.781  23.200  10.675
92568W        W59351  25.554  23.528   4.932
92569W        W59352  35.149   6.654   2.704
92570W        W59353  26.780  14.094   4.165
92571W        W59354  38.337  28.962  12.910
92572W        W59355  18.850   2.279  10.566
92573W        W59356  20.466  29.145   1.969
92574W        W59357  44.712  30.966   1.224
92575W        W59358  33.064   2.653   2.895
92576W        W59359  26.769   9.364  12.416
92577W        W59360  35.010  39.294   3.595
92578W        W59361  21.023  29.423  13.857
92579W        W59362  41.008  42.461  14.522
92580W        W59363   0.284   9.703  11.494
92581W        W59364  40.288   7.994  12.028
92582W        W59365   4.842  19.548  10.408
92583W        W59366  31.573  37.743   1.178
92584W        W59367  18.215  23.798  11.641
92585W        W59368   3.843  35.662   2.480
92586W        W59369  15.067  43.704   3.302
92587W        W59370  37.986   0.603  11.236
92588W        W59371  26.098   5.749  10.578
92589W        W59372  33.612  19.838   0.771
92590W        W59373  38.988   2.443   2.357
92591W        W59374   2.463  37.564  10.081
92592W        W59375   7.881  25.031  11.593
92593W        W59376  44.907   4.792  14.696
92594W        W59377  40.238  16.175   0.504
92595W        W59378  19.094  44.474  10.622
92596W        W59379  39.451  28.113   1.800
92597W        W59380  28.374  19.127   4.157
92598W        W59381  29.017  43.505   4.612
92599W        W59382  32.967  36.872   2.064
92600W        W59383  17.740  38.794   2.614
92601W        W59384  43.368  15.805   3.311
92602W        W59385  38.374  16.184   3.784
92603W        W59386   3.782   1.918   3.275
92604W        W59387  32.452  10.124   1.189
92605W        W59388  35.907  20.759   4.238
92606W        W59389   3.421  26.998  11.741
92607W        W59390  19.515  32.160   4.645
92608W        W59391   7.307  28.968   3.608
92609W        W59392  24.644  44.735  13.594
92610W        W59393  22.434  12.413  13.466
92611W        W59394   3.290  21.203  11.220
92612W        W59395  44.926  34.556  13.433
92613W        W59396  14.101  31.549  11.174
92614W        W59397  30.046  23.035   0.027
92615W        W59398   4.226  41.073  13.022
92616W        W59399  44.080  38.917   1.690
92617W        W59400  29.411  24.290   4.689
92618W        W59401   5.793  10.375  12.280
92619W        W59402  35.057   7.374   9.814
92620W        W59403  36.461  41.416  14.273
92621W        W59404  35.079  44.395  11.636
92622W        W59405  43.469  38.223  11.973
92623W        W59406  20.822  39.844   1.251
92624W        W59407  35.992   2.501  14.313
92625W        W59408  16.246  21.560  12.542
92626W        W59409  21.371   9.001  11.207
92627W        W59410  43.389  38.520   1.235
92628W        W59411  23.571  33.468   4.667
92629W        W59412   1.596  25.694   2.756
92630W        W59413   7.889  44.834   4.350
92631W        W59414  30.341  13.822  11.148
92632W        W59415  39.306   6.667   2.595
92633W        W59416  25.075  10.568  14.445
92634W        W59417  13.650  33.248   0.776
92635W        W59418  23.956  15.557  10.555
92636W        W59419  30.014  22.187  10.196
92637W        W59420  30.362  44.369  10.934
92638W        W59421  39.501  40.314  11.411
92639W        W59422   0.277  41.085   4.855
92640W        W59423  38.463  28.957   4.357
92641W        W59424   3.189  22.972   1.353
92642W        W59425  31.632  43.381   2.041
92643W        W59426   3.928   2.705   3.690
92644W        W59427  37.760  41.292  12.045
92645W        W59428  10.352   4.448   4.210
92646W        W59429  23.438   7.160  11.994
92647W        W59430  27.219  12.729  14.542
92648W        W59431  24.849  21.891  11.900
92649W        W59432   4.922  21.624   3.456
92650W        W59433  16.506  12.814  12.776
92651W        W59434  16.192  13.323   2.407
92652W        W59435  19.869  19.565  12.389
92653W        W59436  39.616  17.371   0.227
92654W        W59437  41.831  40.228  11.746
92655W        W59438   9.772  21.919   1.898
92656W        W59439  33.081  40.794  11.548
92657W        W59440  20.561   8.581   0.999
92658W        W59441  27.899  24.113  13.534
92659W        W59442  36.439  21.160   2.795
92660W        W59443  42.311  34.890   2.733
92661W        W59444   4.900  16.171   1.143
92662W        W59445  27.047  27.061   0.721
92663W        W59446   4.737  43.798  11.202
92664W        W59447   6.291  14.603  14.566
92665W        W59448  32.931  33.004   0.855
92666W        W59449  28.443  24.223   2.330
92667W        W59450   6.381  43.970   1.016
92668W        W59451  25.794  21.986  12.185
92669W        W59452  43.215  42.059   4.143
92670W        W59453  40.561  11.866  11.236
92671W        W59454  33.600  21.139  13.207
92672W        W59455   4.935  18.050   1.521
92673W        W59456   7.318   0.795   0.940
92674W        W59457  41.789  13.084   3.051
92675W        W59458  19.093  28.547  11.558
92676W        W59459  13.130  28.639  14.030
92677W        W59460   3.331   0.009  11.494
92678W        W59461  11.393  35.372   0.382
92679W        W59462  34.541  12.821   0.222
92680W        W59463  28.630  21.012   0.957
92681W        W59464  23.797   2.918  11.756
92682W        W59465   2.675  21.677  11.724
92683W        W59466  13.615  35.215   1.610
92684W        W59467  10.635   2.278  12.351
92685W        W59468  40.091  38.786   0.498
92686W        W59469   0.955   7.842   3.460
92687W        W59470  22.763   5.686   2.766
92688W        W59471  13.765  31.951   1.419
92689W        W59472  27.547  35.779   4.642
92690W        W59473   0.720  30.447   2.495
92691W        W59474  12.765  37.642  13.313
92692W        W59475  36.120   8.790  11.568
92693W        W59476  42.924  42.418   4.376
92694W        W59477   9.774  16.058   0.953
92695W        W59478  40.645   5.452   4.530
92696W        W59479  34.886  11.916   2.662
92697W        W59480  10.488  35.360   4.060
92698W        W59481  14.240   5.086   5.018
92699W        W59482  32.531   5.662   2.615
92700W        W59483  26.642  21.317   0.787
92701W        W59484  12.222  34.003   0.201
92702W        W59485  32.409   4.983  10.300
92703W        W59486   0.065  31.034  12.192
92704W        W59487  27.048  29.399   4.227
92705W        W59488  26.020   3.213  12.866
92706W        W59489  10.968   7.971  13.379
92707W        W59490  33.822  44.952   2.195
92708W        W59491   9.443  30.918   3.454
92709W        W59492  30.854  38.832  13.051
92710W        W59493  43.484  32.021   1.841
92711W        W59494  22.171  26.090  11.193
92712W        W59495  31.611  40.300   3.922
92713W        W59496  26.044   3.964  12.440
92714W        W59497  36.420   0.547  11.545
92715W        W59498   0.403  15.172  10.245
92716W        W59499  14.248  38.349  11.011
92717W        W59500  43.590  29.555  14.461
92718W        W59501  22.151  26.725  13.962
92719W        W59502  38.475   1.403  10.725
92720W        W59503  14.561  13.308   0.274
92721W        W59504   1.795   9.746  12.119
92722W        W59505  36.506  26.707  13.960
92723W        W59506  28.426  29.607   3.154
92724W        W59507  40.829  30.780   0.764
92725W        W59508  43.827  21.323  13.362
92726W        W59509   2.557  13.712  13.925
92727W        W59510  11.744  17.379   3.753
92728W        W59511   9.811  17.730   3.092
92729W        W59512  16.598  34.671  14.072
92730W        W59513  34.453  14.769   0.884
92731W        W59514  32.021  28.176  12.903
92732W        W59515  12.552  13.385  13.511
92733W        W59516  19.662   2.520  12.341
92734W        W59517  44.215   6.790   0.057
92735W        W59518  26.140  20.797   1.864
92736W        W59519  29.056  14.850   0.773
92737W        W59520  41.902  42.203  13.746
92738W        W59521  18.117  31.573  14.123
92739W        W59522  38.982  23.488  12.180
92740W        W59523  37.464   0.268   0.953
92741W        W59524  25.489  34.005   5.009
92742W        W59525  28.553  14.872   1.948
92743W        W59526  11.643  44.313  13.166
92744W        W59527  40.552  19.662   2.208
92745W        W59528  20.935   7.661  13.840
92746W        W59529  35.733  13.185  12.637
92747W        W59530   3.485  43.834  14.896
92748W        W59531  13.635  44.097   0.510
92749W        W59532  14.134  25.913   0.542
92750W        W59533  43.352  24.475   4.040
92751W        W59534  38.347   1.646  13.828
92752W        W59535   2.896  30.142  14.308
92753W        W59536  25.829  31.154   3.206
92754W        W59537  38.948  42.823  13.394
92755W        W59538  15.205   9.295  12.504
92756W        W59539  23.426  15.392   4.615
92757W        W59540   9.761  42.566   2.272
92758W        W59541  24.891   4.818   2.765
92759W        W59542  15.183  22.280   3.096
92760W        W59543  43.194  24.462   1.862
92761W        W59544  14.697  26.593   4.726
92762W        W59545  24.664  44.301  11.543
92763W        W59546  10.785   1.983   2.881
92764W        W59547   8.164  35.649   4.073
92765W        W59548  31.853  41.098  10.956
92766W        W59549   1.761  33.952   4.654
92767W        W59550  10.761  42.414   3.180
92768W        W59551  27.211  20.784   4.670
92769W        W59552  30.558  10.349   0.483
92770W        W59553  27.226  16.674  11.028
92771W        W59554  35.267  43.182   5.051
92772W        W59555  20.726  37.942  14.418
92773W        W59556   5.924  38.816  11.929
92774W        W59557  35.901  18.597  12.436
92775W        W59558  22.977  35.832  10.514
92776W        W59559   7.220   8.227  14.722
92777W        W59560  26.595  21.006   1.747
92778W        W59561   7.346  15.625   3.689
92779W        W59562  16.354  16.624  11.721
92780W        W59563  11.879  20.304   2.264
92781W        W59564  42.976   5.788   5.017
92782W        W59565  11.896  39.420  10.655
92783W        W59566   8.659  24.615  12.399
92784W        W59567  38.341  44.014   4.705
92785W        W59568  13.584  11.540  13.745
92786W        W59569  23.664  24.498  12.808
92787W        W59570  37.714  37.514   4.398
92788W        W59571  27.263  26.983   3.243
92789W        W59572   5.820   3.416  14.767
92790W        W59573  32.379  15.167   2.883
92791W        W59574   0.319  41.737  12.050
92792W        W59575  13.952  36.011  10.265
92793W        W59576  28.924  18.543   1.650
92794W        W59577  10.835  41.904  13.291
92795W        W59578  29.703   1.086   0.310
92796W        W59579   9.192  17.642   2.310
92797W        W59580  30.707   1.327  11.525
92798W        W59581  38.838  27.448  13.955
92799W        W59582  10.320  37.403  13.788
92800W        W59583  22.790   0.793  10.260
92801W        W59584   9.833  16.413  14.502
92802W        W59585  42.037  34.423  10.327
92803W        W59586  22.745   8.993   4.119
92804W        W59587   9.741  44.922  14.856
92805W        W59588  32.079   4.193   0.220
92806W        W59589  28.298   5.763  11.565
92807W        W59590  26.625   2.937  11.574
92808W        W59591  29.530  42.907   4.966
92809W        W59592   4.311  43.269   3.026
92810W        W59593  24.475   0.105  11.165
92811W        W59594   8.699  40.863  13.696
92812W        W59595  17.194  44.755  14.423
92813W        W59596   5.685  34.379   4.545
92814W        W59597  31.184  31.516   0.947
92815W        W59598  35.027   6.274   0.343
92816W        W59599  13.958   0.387  14.891
92817W        W59600  34.359   5.920   3.987
92818W        W59601  14.159  10.365  14.391
92819W        W59602   1.416  32.541  12.012
92820W        W59603  31.681  21.834   4.474
92821W        W59604  10.838  35.941  12.389
92822W        W59605  39.384   9.723  14.790
92823W        W59606  18.715   0.457   1.105
92824W        W59607  41.846  10.108  14.758
92825W        W59608  40.375  11.717   3.829
92826W        W59609  37.083  26.177   2.100
92827W        W59610  18.162  22.357  14.692
92828W        W59611  16.802  14.684   1.744
92829W        W59612  13.731  20.036  11.655
92830W        W59613   9.461  41.622  11.516
92831W        W59614  25.646  41.596  14.025
92832W        W59615   6.517   2.423  11.083
92833W        W59616   1.625  36.910   2.570
92834W        W59617  33.717  44.308   3.283
92835W        W59618  44.606  33.663   0.050
92836W        W59619   6.457  33.013  12.106
92837W        W59620   4.503   9.275   1.809
92838W        W59621   1.027  18.076  10.532
92839W        W59622   7.838  30.561   2.204
92840W        W59623  37.384  39.419  14.971
92841W        W59624  40.691  19.951  13.358
92842W        W59625   3.465  16.575  14.327
92843W        W59626  31.241  29.615  11.143
92844W        W59627  13.472  22.739  13.397
92845W        W59628  11.185  42.451   0.857
92846W        W59629  14.832  16.894  12.079
92847W        W59630  26.678  32.134  14.584
92848W        W59631   2.990  40.385   2.097
92849W        W59632  44.363  20.701  10.713
92850W        W59633  12.451   2.798   1.323
92851W        W59634  18.679  41.921   2.864
92852W        W59635   7.005  34.690  12.948
92853W        W59636  15.868   5.006   0.761
92854W        W59637  31.414  33.341  11.160
92855W        W59638  41.864  44.473  11.642
92856W        W59639   1.916  27.606   3.774
92857W        W59640  34.138  12.650  14.289
92858W        W59641  28.486  19.717  10.577
92859W        W59642  27.535   7.217  10.703
92860W        W59643  25.232  38.135   3.633
92861W        W59644  15.039  36.170   0.595
92862W        W59645  31.079   5.662   3.406
92863W        W59646  33.874  27.886  13.977
92864W        W59647  27.887   7.214  12.445
92865W        W59648  15.722  44.896   2.138
92866W        W59649  32.069  30.881   3.656
92867W        W59650  26.084  35.879  11.254
92868W        W59651  10.763  25.782   2.212
92869W        W59652  24.755   5.364  11.065
92870W        W59653  26.189  18.306   3.380
92871W        W59654  16.697  21.696  10.362
92872W        W59655  33.816  24.751   9.832
92873W        W59656  33.591  27.086   4.498
92874W        W59657  34.669  17.581  13.305
92875W        W59658   8.621  44.353   2.663
92876W        W59659  27.387  32.588  11.126
92877W        W59660   6.311   7.950  10.695
92878W        W59661  44.238  44.906   1.272
92879W        W59662  36.011  36.549   2.303
92880W        W59663   3.398  29.185  11.354
92881W        W59664   3.781  31.009  12.418
92882W        W59665   7.449  27.685   3.728
92883W        W59666   5.624  27.376   1.486
92884W        W59667  21.060   9.381   3.069
92885W        W59668  20.672  18.538   0.977
92886W        W59669  14.620  14.361   1.774
92887W        W59670   7.987  28.503  11.871
92888W        W59671  40.040  14.184  14.136
92889W        W59672  34.670  21.659   0.097
92890W        W59673  42.859  10.236   3.596
92891W        W59674  18.537  17.291   4.579
92892W        W59675   0.242  25.933  11.525
92893W        W59676  41.289  29.705   2.352
92894W        W59677  38.339   9.570  12.575
92895W        W59678   3.899   5.785  10.932
92896W        W59679  41.539  29.336  10.806
92897W        W59680  44.327  30.433  11.620
92898W        W59681  38.739  40.069  10.452
92899W        W59682  24.648  28.517  13.949
92900W        W59683  13.327  28.597  11.735
92901W        W59684   5.237  33.156   3.233
92902W        W59685  21.677  43.521  12.128
92903W        W59686  35.384   1.935   2.374
92904W        W59687  31.670  26.806   1.793
92905W        W59688  14.796  37.494   1.609
92906W        W59689   5.442  23.948   2.867
92907W        W59690  29.060  41.660  13.275
92908W        W59691  35.527   0.940  10.552
92909W        W59692  20.792  22.507   3.117
92910W        W59693   5.137   0.520   4.086
92911W        W59694  21.185   2.169   2.628
92912W        W59695  22.614  29.256  12.897
92913W        W59696   2.433  12.792   4.143
92914W        W59697  31.318   0.125   1.367
92915W        W59698  31.893  31.629  12.876
92916W        W59699  32.472   0.288   3.761
92917W        W59700   6.721  33.398   4.297
92918W        W59701   3.185   1.412   2.383
92919W        W59702  17.462  21.051   1.771
92920W        W59703  21.466   9.080   4.758
92921W        W59704  20.831  44.819   1.925
92922W        W59705  26.023  42.544  12.661
92923W        W59706  28.586   7.867   1.551
92924W        W59707  40.456  23.663  13.375
92925W        W59708  42.998   6.779   1.448
92926W        W59709  29.701   6.862  12.028
92927W        W59710  17.018  42.852   3.868
92928W        W59711  42.914   5.219   4.171
92929W        W59712  38.544  24.831  10.990
92930W        W59713  30.838   1.289  10.722
92931W        W59714  40.583  22.463   2.720
92932W        W59715  38.027  40.255   2.098
92933W        W59716   0.469  33.117   0.020
92934W        W59717  25.655  17.475  13.960
92935W        W59718  23.540  44.785   4.968
92936W        W59719  30.843   5.779  13.972
92937W        W59720   8.390  24.029  11.535
92938W        W59721  32.345   1.888  10.745
92939W        W59722   6.360  36.735  10.680
92940W        W59723  15.739   5.288   2.323
92941W        W59724  14.232  12.142  10.587
92942W        W59725  11.561   5.012   0.534
92943W        W59726  39.746  27.946   3.195
92944W        W59727  16.668  22.906  13.820
92945W        W59728  25.364  44.684   3.693
92946W        W59729  34.789  44.956   0.983
92947W        W59730  25.362  21.714  11.954
92948W        W59731   9.399   5.372   4.383
92949W        W59732  34.145  25.511  11.559
92950W        W59733  22.155  43.876  10.580
92951W        W59734  11.896  16.467  13.876
92952W        W59735  41.450  43.368   2.374
92953W        W59736  38.400  26.081   1.165
92954W        W59737  41.838   7.325  13.986
92955W        W59738   3.969  43.673   1.478
92956W        W59739   2.995   2.505  13.944
92957W        W59740  26.529  37.745  12.006
92958W        W59741  24.283  38.142  12.834
92959W        W59742   5.138  22.541   0.425
92960W        W59743  27.250  41.027  11.608
92961W        W59744   2.766  41.252  11.576
92962W        W59745  19.690  22.200  12.436
92963W        W59746  44.348  17.042   4.541
92964W        W59747   0.499  11.104   4.222
92965W        W59748  36.383  20.925   4.081
92966W        W59749  38.038  32.697   0.482
92967W        W59750   5.637  25.504  14.539
92968W        W59751  26.495  38.866   4.506
92969W        W59752  19.351  14.461   2.629
92970W        W59753   0.574  30.848  11.082
92971W        W59754  28.694  36.087   1.720
92972W        W59755   8.103  10.254  13.076
92973W        W59756  42.111  25.918  14.821
92974W        W59757  44.745  41.512   3.620
92975W        W59758  41.611  44.549   1.768
92976W        W59759  20.961  14.060  14.384
92977W        W59760  28.896   4.319   1.364
92978W        W59761  30.877   2.391   2.751
92979W        W59762  39.391   8.625  12.033
92980W        W59763  19.489  41.548  13.771
92981W        W59764  28.987  44.002   3.733
92982W        W59765  30.941   7.953  13.310
92983W        W59766  42.402  14.206  12.504
92984W        W59767  44.369  21.419  13.029
92985W        W59768  22.386   3.720  11.503
92986W        W59769   7.270  44.010   2.150
92987W        W59770  33.474   2.439   2.664
92988W        W59771  23.443  33.790   4.251
92989W        W59772  43.355   4.051  10.600
92990W        W59773  43.036  32.962  11.931
92991W        W59774  11.380  12.287   4.320
92992W        W59775  44.444  33.019  12.024
92993W        W59776  39.048   9.613   1.273
92994W        W59777  44.282   9.144  13.001
92995W        W59778   3.504  42.938   0.429
92996W        W59779  10.470  23.005   1.264
92997W        W59780   3.698  29.656   4.518
92998W        W59781   0.039   0.183   4.101
92999W        W59782  19.076  40.120  12.025
93000W        W59783   9.721  21.205   3.623
93001W        W59784  23.575   9.332  11.727
93002W        W59785   3.082  13.734  13.970
93003W        W59786  39.794  35.599  13.293
93004W        W59787  14.317   9.448  11.132
93005W        W59788  16.599  35.186  13.167
93006W        W59789  44.744  12.244   4.544
93007W        W59790  15.356  43.353  10.766
93008W        W59791  43.041  38.582  12.542
93009W        W59792  29.820  31.319   2.838
93010W        W59793   8.823   3.541   0.262
93011W        W59794   7.762  11.381   2.756
93012W        W59795  14.256  36.884  11.489
93013W        W59796  43.229   9.879   3.260
93014W        W59797   7.779  30.120  14.002
93015W        W59798  40.307  18.802   2.792
93016W        W59799  34.068   3.532  12.968
93017W        W59800  15.818  27.183  14.432
93018W        W59801   6.312   3.939   4.074
93019W        W59802   0.520  19.078   3.678
93020W        W59803  19.772  35.124   2.183
93021W        W59804   6.087  39.187   3.291
93022W        W59805  14.329  11.360  14.265
93023W        W59806  21.226  44.971   4.028
93024W        W59807  19.317  21.213  11.656
93025W        W59808  13.604  41.391   2.711
93026W        W59809  15.530  13.141   4.576
93027W        W59810  30.001  11.104   3.897
93028W        W59811  30.781  40.447   3.650
93029W        W59812  40.716  22.001   1.927
93030W        W59813  42.783   2.721  13.927
93031W        W59814   6.206  17.833  13.424
93032W        W59815  13.712   4.452   3.596
93033W        W59816  22.285   8.289   0.656
93034W        W59817   7.751   7.808   4.689
93035W        W59818   7.353  42.788  11.604
93036W        W59819   0.844   3.798   3.675
93037W        W59820  10.869  20.175  13.081
93038W        W59821  29.968   6.593  14.479
93039W        W59822  40.264  39.714  12.611
93040W        W59823  24.899  30.080  13.512
93041W        W59824  16.136   1.507   0.171
93042W        W59825  30.466  20.290  14.989
93043W        W59826  26.305  24.685   4.611
93044W        W59827  18.484  42.840  12.472
93045W        W59828  43.848  36.994   2.418
93046W        W59829  36.494   5.689  13.342
93047W        W59830  11.712  37.063   2.740
93048W        W59831   0.197  19.504   3.680
93049W        W59832   1.362   2.820   2.195
93050W        W59833   6.261  43.304   3.387
93051W        W59834   0.536   9.394   1.673
93052W        W59835  24.264  40.168   4.977
93053W        W59836  10.304  21.726  12.501
93054W        W59837   5.338  17.595   2.150
93055W        W59838  27.553  31.560  12.776
93056W        W59839  19.570   7.893  10.778
93057W        W59840   7.134  41.874  11.551
93058W        W59841  24.970  27.312  11.132
93059W        W59842  36.916  10.205  13.562
93060W        W59843  38.887  36.583  10.884
93061W        W59844  13.678  33.508  13.044
93062W        W59845   9.986  18.101   4.145
93063W        W59846  28.180  38.082   4.462
93064W        W59847   1.473  39.339  12.484
93065W        W59848   2.701  18.176   3.897
93066W        W59849  29.913  28.807   3.687
93067W        W59850   9.595  22.682  11.165
93068W        W59851   1.413   2.749   4.664
93069W        W59852   3.736  21.733   4.274
93070W        W59853   5.840  31.575   2.830
93071W        W59854   8.785  44.599  12.927
93072W        W59855  32.533  13.674   3.635
93073W        W59856   0.944  16.120  10.879
93074W        W59857  35.613   9.873   1.688
93075W        W59858  11.729  27.681  13.482
93076W        W59859  27.945  18.525   1.930
93077W        W59860  31.493  43.367  14.408
93078W        W59861  28.922  30.169   2.707
93079W        W59862  14.393   4.597  14.073
93080W        W59863  19.146  20.936   4.307
93081W        W59864  42.149   9.756   1.673
93082W        W59865  24.164   2.372   1.816
93083W        W59866  31.674  43.779   1.238
93084W        W59867  38.417  29.176   3.715
93085W        W59868   1.650  40.358   4.828
93086W        W59869  16.247  23.728  13.990
93087W        W59870  27.511  41.535  11.557
93088W        W59871  16.277  32.147   1.390
93089W        W59872  20.531   6.299  12.290
93090W        W59873  34.315  21.852   2.367
93091W        W59874   3.623  40.517  12.424
93092W        W59875  26.589  22.977  14.468
93093W        W59876  36.000  10.670  12.107
93094W        W59877  28.564   8.247   1.909
93095W        W59878  41.846  16.320  12.589
93096W        W59879   1.329   4.386   3.568
93097W        W59880  38.053  43.149   2.976
93098W        W59881  38.199  12.844   3.960
93099W        W59882   6.695  24.761   3.218
93100W        W59883  18.799  32.054  10.645
93101W        W59884  24.456   7.431   2.829
93102W        W59885  29.513   3.877  13.610
93103W        W59886  19.076   7.239   2.396
93104W        W59887  35.257  16.277  11.552
93105W        W59888  35.497  25.463  11.890
93106W        W59889  27.659  24.629   2.152
93107W        W59890   3.397  19.798  10.746
93108W        W59891  17.495  40.718  13.895
93109W        W59892  32.318  34.059  14.877
93110W        W59893  29.987  14.540  14.461
93111W        W59894   0.325  14.801  12.039
93112W        W59895  30.533  42.101   3.840
93113W        W59896  12.199  35.528  14.985
93114W        W59897  21.780  21.082  13.964
93115W        W59898  13.186  31.906  10.760
93116W        W59899   7.079  28.759   2.811
93117W        W59900  38.330  25.053  12.321
93118W        W59901   5.334   5.827   3.700
93119W        W59902  23.691  20.018  14.910
93120W        W59903  18.697   2.976  13.919
93121W        W59904   5.965  38.783   4.134
93122W        W59905  10.103   4.168   3.821
93123W        W59906  34.102   3.400   0.382
93124W        W59907  33.866  32.140   2.797
93125W        W59908  17.107  10.307   2.337
93126W        W59909  10.684  11.869  13.000
93127W        W59910  28.879  41.303   4.725
93128W        W59911  42.548  38.519  12.331
93129W        W59912  20.268  40.334  13.940
93130W        W59913   6.225   4.279  11.391
93131W        W59914  36.053  39.318   2.756
93132W        W59915  42.786  44.320   3.787
93133W        W59916   9.203  12.358   4.974
93134W        W59917  23.137   3.534  10.218
93135W        W59918  20.769  43.726   1.342
93136W        W59919  18.741   6.391   4.632
93137W        W59920  27.360  19.032  11.264
93138W        W59921   1.877  22.186  12.538
93139W        W59922  13.760  16.988   2.322
93140W        W59923  22.192  34.366   2.363
93141W        W59924  23.330   4.827   0.259
93142W        W59925  29.023  32.109   1.405
93143W        W59926  11.642  24.479   0.835
93144W        W59927  18.898  25.585  12.413
93145W        W59928  14.107  19.097  10.732
93146W        W59929  18.082  44.569  13.446
93147W        W59930  40.768  11.917  12.042
93148W        W59931  19.659  20.812  10.735
93149W        W59932  36.062  42.021   3.204
93150W        W59933  42.593  35.461  14.068
93151W        W59934   5.728  32.362  10.593
93152W        W59935  32.565  40.884   4.831
93153W        W59936  32.326   4.057  11.043
93154W        W59937  44.595  43.591   1.085
93155W        W59938   0.007   0.384   4.904
93156W        W59939  28.664   5.695   2.038
93157W        W59940   6.665   7.973  14.159
93158W        W59941   4.972  30.567   1.858
93159W        W59942   8.297  37.999   4.228
93160W        W59943   3.210  30.570  13.402
93161W        W59944  34.112   6.244   1.350
93162W        W59945   3.773   9.201  14.810
93163W        W59946  33.407  17.679  10.104
93164W        W59947  27.919  23.827  10.705
93165W        W59948  27.900   6.924   2.143
93166W        W59949  14.342  25.565   5.072
93167W        W59950  11.380  30.936   1.274
93168W        W59951  33.994  19.729   2.922
93169W        W59952  20.980  30.063   4.702
93170W        W59953  18.723  11.869  10.216
93171W        W59954   6.272  18.328   1.692
93172W        W59955  33.990  35.013  12.999
93173W        W59956  29.998  37.272   4.889
93174W        W59957   8.374  14.266  14.943
93175W        W59958  33.436  42.693  10.432
93176W        W59959  19.010  21.429  11.055
93177W        W59960   6.733  44.523  11.617
93178W        W59961  29.875  25.497   3.845
93179W        W59962  43.584  17.361   4.641
93180W        W59963  32.706  25.101   3.056
93181W        W59964  15.811  41.641  10.586
93182W        W59965   5.357  33.810   1.899
93183W        W59966  28.243  20.146   2.606
93184W        W59967  40.053  18.056   1.419
93185W        W59968  18.161  34.277  11.575
93186W        W59969  43.401  31.557   1.648
93187W        W59970   3.938  23.403   1.544
93188W        W59971  41.384  20.961  10.718
93189W        W59972  30.301  44.352   1.739
93190W        W59973  27.427  14.759   2.267
93191W        W59974   2.707  30.277   0.192
93192W        W59975   6.809  27.075  10.693
93193W        W59976  16.843  20.444  12.021
93194W        W59977  27.097   6.483  14.804
93195W        W59978  32.771  26.303   4.978
93196W        W59979  27.655   1.267   0.494
93197W        W59980  23.033  21.035  14.383
93198W        W59981   8.695  39.966   3.771
93199W        W59982  18.098  38.468  13.826
93200W        W59983   5.322  14.271   2.696
93201W        W59984  24.285  39.850   4.532
93202W        W59985  13.086  19.219  13.962
93203W        W59986  41.561  21.917  13.223
93204W        W59987  20.062  28.043   3.580
93205W        W59988  20.607  44.671  11.898
93206W        W59989  27.471   6.914  11.643
93207W        W59990   2.839  20.078  12.003
93208W        W59991  28.379  13.522  13.476
93209W        W59992  30.520  25.066  13.612
93210W        W59993  11.398  42.934  14.780
93211W        W59994   4.283   7.330  12.395
93212W        W59995  42.526   3.725  14.884
93213W        W59996   7.429   2.665  14.840
93214W        W59997  14.221  17.688  10.642
93215W        W59998  26.135  41.586   3.547
93216W        W59999  17.767  33.415   3.288
93217W        W60000  11.613  15.132   0.678
93218W        W60001  17.166  37.145  12.085
93219W        W60002  30.182  24.708  11.197
93220W        W60003  18.656  25.593  14.937
93221W        W60004  32.955  39.442  13.973
93222W        W60005   5.976  42.000  11.100
93223W        W60006  25.336  28.097  14.984
93224W        W60007  26.410  23.401  11.970
93225W        W60008  22.024   3.133   3.249
93226W        W60009  10.909  44.333  12.180
93227W        W60010  15.240  35.913  13.585
93228W        W60011   8.815  39.439  14.258
93229W        W60012  13.560  21.454   1.677
93230W        W60013  23.208  31.484   1.402
93231W        W60014  22.314  24.268  14.379
93232W        W60015  10.931   0.848  14.550
93233W        W60016  22.764  25.588   0.791
93234W        W60017  30.996  42.252   0.799
93235W        W60018  40.317  32.172  13.991
93236W        W60019  32.345  18.225  11.111
93237W        W60020  20.523  40.523  11.121
93238W        W60021  34.317  22.666   0.387
93239W        W60022  40.471  17.514  14.763
93240W        W60023  14.188  35.920   9.811
93241W        W60024  42.533   5.200  10.213
93242W        W60025  39.215  40.975  12.011
93243W        W60026  21.641  40.690   2.223
93244W        W60027  44.145   4.821   3.756
93245W        W60028  15.557  24.835   9.975
93246W        W60029  10.389  33.260  13.813
93247W        W60030   2.649  20.253   2.810
93248W        W60031  12.216   2.106   2.785
93249W        W60032  11.039   3.121  10.539
93250W        W60033  10.929  12.508  14.529
93251W        W60034  41.944  42.586  13.398
93252W        W60035  21.894  15.382  12.041
93253W        W60036  33.028  33.933  11.412
93254W        W60037  32.408  13.603  13.554
93255W        W60038   2.973  18.679  14.818
93256W        W60039   0.440  21.137  14.948
93257W        W60040   9.668  21.222  13.006
93258W        W60041  15.232  34.355  14.324
93259W        W60042  35.047  38.939   0.455
93260W        W60043  10.070  29.862   0.721
93261W        W60044  34.371  23.671   2.325
93262W        W60045  40.428   1.649   0.873
93263W        W60046  34.718  19.314   1.877
93264W        W60047  10.536  42.409   1.381
93265W        W60048  13.887   8.529  11.471
93266W        W60049  44.728  19.559   1.792
93267W        W60050  33.114  29.133   4.301
93268W        W60051   3.439  41.610   3.780
93269W        W60052   3.769  42.927  12.107
93270W        W60053  15.688  22.189  11.582
93271W        W60054   7.211  10.337   4.560
93272W        W60055  12.094  18.140   0.207
93273W        W60056  44.703   8.213   2.336
93274W        W60057  36.320  44.439   0.806
93275W        W60058  10.984  24.743  13.863
93276W        W60059  43.585   7.778  11.186
93277W        W60060  41.338  27.967  10.778
93278W        W60061  44.895   0.821   1.955
93279W        W60062   6.324  13.594   0.301
93280W        W60063   9.929   0.966   4.620
93281W        W60064  22.904  16.126  13.603
93282W        W60065  33.573  16.234  14.685
93283W        W60066   4.153  34.140  14.752
93284W        W60067  33.831  24.057  13.674
93285W        W60068   6.135   4.816   5.069
93286W        W60069  26.770  44.918   1.757
93287W        W60070  10.682  17.083   4.084
93288W        W60071  19.065  21.710  13.468
93289W        W60072  16.628  20.537   2.842
93290W        W60073  28.111   9.687   2.759
93291W        W60074  23.073  24.428  12.099
93292W        W60075   0.686  18.581   0.392
93293W        W60076   1.785   1.382   2.929
93294W        W60077  29.568   1.472   1.523
93295W        W60078  13.723  18.494   2.377
93296W        W60079  31.134   9.112  12.957
93297W        W60080  35.844  15.520   4.924
93298W        W60081  24.068  20.315  12.885
93299W        W60082  26.044  20.302   2.852
93300W        W60083  43.169  26.646   4.603
93301W        W60084  40.908  44.752  13.471
93302W        W60085  12.771  39.103   2.720
93303W        W60086  28.569  44.730  11.235
93304W        W60087  28.806  24.120   4.107
93305W        W60088  44.183   2.769  12.678
93306W        W60089   9.815  21.040  14.613
93307W        W60090  30.906  26.276   1.888
93308W        W60091   2.723  44.244  12.518
93309W        W60092  43.022   6.828   2.383
93310W        W60093   0.898   1.848  13.097
93311W        W60094  41.520  42.965  10.204
93312W        W60095  24.109   0.339  11.469
93313W        W60096  18.170  44.323   4.483
93314W        W60097  15.787  14.650  11.130
93315W        W60098   7.856  10.720  11.016
93316W        W60099  26.610  34.927   0.947
93317W        W60100   6.338   6.711   4.354
93318W        W60101  12.205  33.192  11.016
93319W        W60102   3.770  23.222  13.937
93320W        W60103   8.635  35.015   4.522
93321W        W60104  14.735  30.548   1.732
93322W        W60105  12.357  24.976  13.347
93323W        W60106  12.244  43.849   0.729
93324W        W60107  18.694  19.103   2.299
93325W        W60108   1.887  36.796  14.429
93326W        W60109  32.502  24.634  14.996
93327W        W60110  21.777  14.424   3.620
93328W        W60111   4.735   3.177  13.374
93329W        W60112  40.379  20.680   2.430
93330W        W60113  15.907  13.317  12.092
93331W        W60114  37.948  28.901  14.306
93332W        W60115  13.369  24.508   0.406
93333W        W60116  29.016  17.206  11.171
93334W        W60117  40.446   3.228   4.751
93335W        W60118  18.768   5.419   3.632
93336W        W60119  33.450   4.006   0.351
93337W        W60120  13.283   7.383   1.182
93338W        W60121  28.242  28.404  10.650
93339W        W60122  21.314  18.346   0.889
93340W        W60123  17.056  32.425  10.506
93341W        W60124  24.737   4.482   4.515
93342W        W60125  14.092  16.487   3.860
93343W        W60126  20.649   9.729   1.705
93344W        W60127  36.823  24.248   1.881
93345W        W60128  15.708   4.930   5.081
93346W        W60129   5.690  41.353  11.567
93347W        W60130  17.650  39.885  11.908
93348W        W60131  34.109  43.994  14.892
93349W        W60132   5.950  43.941   1.348
93350W        W60133  28.731  35.427  10.568
93351W        W60134   7.475   7.604   2.425
93352W        W60135  11.097  13.405  14.223
93353W        W60136  34.228  31.438   2.841
93354W        W60137   7.705  37.930   2.412
93355W        W60138  42.835  26.671   3.582
93356W        W60139  19.227   5.122   0.372
93357W        W60140  11.303  16.850   3.160
93358W        W60141   3.261  30.122   1.334
93359W        W60142  20.252   2.251   3.095
93360W        W60143  38.606   3.395  12.423
93361W        W60144   1.190  31.871   2.354
93362W        W60145   8.699  35.058   5.015
93363W        W60146  15.348  34.031  12.411
93364W        W60147  17.180   4.867   0.756
93365W        W60148  34.979  15.065  13.401
93366W        W60149   5.814  10.258  12.770
93367W        W60150  35.511   5.805  13.750
93368W        W60151   3.965   3.405  12.046
93369W        W60152  39.584  36.057  11.130
93370W        W60153  38.890   7.995  14.906
93371W        W60154  26.071  22.841   2.716
93372W        W60155  42.161  17.402  10.129
93373W        W60156  20.930  20.713  11.017
93374W        W60157   9.919  10.668  11.151
93375W        W60158  39.255  13.260  11.032
93376W        W60159  33.620  11.365   4.716
93377W        W60160  33.231  34.601   0.877
93378W        W60161  26.763  13.074   4.378
93379W        W60162  30.076  33.703  12.725
93380W        W60163  34.544  10.573   4.116
93381W        W60164  29.515  23.413   3.156
93382W        W60165  10.424  37.335   1.930
93383W        W60166   4.239   6.140  12.128
93384W        W60167  13.698  26.120   2.677
93385W        W60168  28.676   5.456  12.440
93386W        W60169  44.487  26.476  14.399
93387W        W60170  25.972  44.437  12.339
93388W        W60171  11.262  21.572  13.493
93389W        W60172  13.166  41.037   0.740
93390W        W60173  36.439  23.527   3.132
93391W        W60174  43.377  18.218  12.172
93392W        W60175  23.473  20.107  10.661
93393W        W60176  39.029   1.590  11.409
93394W        W60177  19.658  21.775   2.307
93395W        W60178  13.683  26.572  13.994
93396W        W60179  32.950   0.022  11.390
93397W        W60180   5.687  35.567   0.665
93398W        W60181  24.428   7.736   4.352
93399W        W60182  15.170  13.719   3.759
93400W        W60183  16.496  17.130  11.592
93401W        W60184  31.899  17.964   1.522
93402W        W60185   9.145  11.310  14.873
93403W        W60186  28.334  36.228   0.735
93404W        W60187  26.610  35.817   4.491
93405W        W60188  21.735  13.399   2.688
93406W        W60189  22.071  16.518   0.274
93407W        W60190  28.950  21.209  13.731
93408W        W60191   9.822   9.086  11.978
93409W        W60192  15.094  24.578   3.172
93410W        W60193  13.752   6.893  11.669
93411W        W60194  15.790  30.617   4.765
93412W        W60195  26.282  13.262  10.753
93413W        W60196   0.483   1.767   3.979
93414W        W60197  19.914   0.187  10.700
93415W        W60198   5.386  19.445   2.710
93416W        W60199  17.261  42.082  12.940
93417W        W60200  41.019   0.331   3.296
93418W        W60201  29.146  41.333  11.975
93419W        W60202  10.289  41.441   1.247
93420W        W60203  24.548  24.567  12.134
93421W        W60204  13.285  22.560  11.603
93422W        W60205   7.412  15.976   0.023
93423W        W60206   1.955   8.497   2.732
93424W        W60207  10.707   9.803  11.016
93425W        W60208  41.280  33.468   4.496
93426W        W60209  34.519  20.581  14.104
93427W        W60210  25.012  44.262   0.746
93428W        W60211  43.347  40.310   5.006
93429W        W60212   6.994  21.184   4.808
93430W        W60213  33.288  43.308  11.156
93431W        W60214  29.081  12.703  10.532
93432W        W60215  27.986  24.035  11.902
93433W        W60216  32.021  13.736   2.420
93434W        W60217  30.194  36.682  10.746
93435W        W60218  37.606   5.887   1.220
93436W        W60219  41.765  27.551   0.500
93437W        W60220  31.853   5.468  12.710
93438W        W60221  43.090  40.161  13.576
93439W        W60222  37.807   8.419   4.316
93440W        W60223   0.485  21.266   3.149
93441W        W60224  27.692   3.780   3.517
93442W        W60225  30.944  23.389  10.301
93443W        W60226   3.161  27.124   1.782
93444W        W60227  43.508  30.102   1.724
93445W        W60228  31.527   3.426  12.527
93446W        W60229  19.558  15.240   2.071
93447W        W60230  39.592  34.951   4.266
93448W        W60231  42.893  18.801  14.498
93449W        W60232  19.163  21.574  12.054
93450W        W60233  44.026  10.858  11.847
93451W        W60234  15.041  44.926  14.336
93452W        W60235  42.502  14.128   2.295
93453W        W60236  27.645  43.277  10.987
93454W        W60237   2.848   5.771   0.441
93455W        W60238   6.374  21.777   0.745
93456W        W60239  19.228  24.440  14.916
93457W        W60240  28.664  28.123  13.586
93458W        W60241   9.137   1.603   4.180
93459W        W60242  17.552  32.626   3.934
93460W        W60243  18.721   0.035  12.584
93461W        W60244  44.572  20.833  11.185
93462W        W60245  14.510  23.265   3.284
93463W        W60246  40.620  26.727  13.989
93464W        W60247  40.002  18.267  11.942
93465W        W60248  30.355  34.965  12.034
93466W        W60249  24.313  33.680  14.759
93467W        W60250   4.238  31.489  12.029
93468W        W60251  28.024  25.599  13.395
93469W        W60252  12.067  44.609   0.921
93470W        W60253   7.920  16.339   1.812
93471W        W60254  11.277  40.760  12.558
93472W        W60255  40.679  31.546  11.247
93473W        W60256  35.388  18.276   2.823
93474W        W60257  39.018  16.607  12.382
93475W        W60258  25.525  19.344   3.702
93476W        W60259  43.529   2.329  13.541
93477W        W60260   1.906  29.394   0.835
93478W        W60261   1.161  25.393   1.938
93479W        W60262  44.788  38.052   1.395
93480W        W60263   3.431  19.050   3.753
93481W        W60264  10.328  32.911   4.266
93482W        W60265  32.950  39.501   1.141
93483W        W60266  21.961  16.181  12.546
93484W        W60267  26.570  30.659  10.387
93485W        W60268  42.130  32.398  11.102
93486W        W60269   3.112  41.930  12.588
93487W        W60270  12.475  16.754  13.425
93488W        W60271  41.166  15.811   4.381
93489W        W60272  24.208  41.688  12.958
93490W        W60273  12.614  33.519  12.060
93491W        W60274  31.530  31.092   4.450
93492W        W60275  30.744  20.683   2.066
93493W        W60276  40.262   0.841   2.711
93494W        W60277  11.351  23.417  13.443
93495W        W60278  39.482   4.784   0.424
93496W        W60279  39.844  22.574  13.936
93497W        W60280  44.603  10.687  13.992
93498W        W60281   8.859  12.058   0.963
93499W        W60282   9.745  33.075  11.145
93500W        W60283  19.729  38.178   2.467
93501W        W60284  41.509  27.594   1.965
93502W        W60285  33.736  40.759   2.851
93503W        W60286  38.344   9.288   1.728
93504W        W60287   2.965   7.017  13.457
93505W        W60288  41.110   3.454   0.304
93506W        W60289  10.108  29.001  12.505
93507W        W60290   4.434  13.004   1.542
93508W        W60291   4.284  19.676   3.849
93509W        W60292   1.942  42.903   5.023
93510W        W60293   4.988   0.881  14.536
93511W        W60294  29.412  15.752   2.572
93512W        W60295  25.256   5.286   1.153
93513W        W60296  34.356  17.736  14.823
93514W        W60297  28.274   7.623  10.666
93515W        W60298  27.572   0.496   4.223
93516W        W60299  10.720   8.211   1.452
93517W        W60300  14.563   6.662   3.815
93518W        W60301  24.068   5.794   0.947
93519W        W60302  25.344  44.495   3.175
93520W        W60303  11.413   2.414   3.263
93521W        W60304   5.419  20.539  11.172
93522W        W60305  44.484   1.435  10.873
93523W        W60306   3.935  21.793  12.220
93524W        W60307   8.799  24.571  14.382
93525W        W60308  21.451  13.643   5.152
93526W        W60309  20.263   3.147  11.929
93527W        W60310  39.616   7.348  12.448
93528W        W60311  11.096  32.032  11.221
93529W        W60312  23.601  40.573  13.671
93530W        W60313   3.740  13.429   0.279
93531W        W60314  20.634   4.847  11.112
93532W        W60315   5.996  14.305   0.290
93533W        W60316  37.327   0.225   2.849
93534W        W60317  11.747  29.072  12.040
93535W        W60318  31.107  23.130   4.019
93536W        W60319  30.676   0.850   0.682
93537W        W60320   2.606   4.878  10.924
93538W        W60321  15.124  15.548  13.772
93539W        W60322  40.515  29.839   4.224
93540W        W60323  41.024  15.045  13.517
93541W        W60324  22.598   3.039  12.530
93542W        W60325   4.834  44.812  13.559
93543W        W60326  14.876   8.724  12.924
93544W        W60327  21.614  15.151   0.839
93545W        W60328  32.391  22.272  12.114
93546W        W60329   6.018  15.292  13.963
93547W        W60330  25.895  29.124  13.375
93548W        W60331  23.651  30.521  11.497
93549W        W60332  33.715  22.643   4.887
93550W        W60333  12.237   1.506   2.327
93551W        W60334  39.786  33.924  11.608
93552W        W60335   9.452   6.043  12.922
93553W        W60336  34.157  14.119  14.520
93554W        W60337   6.294  26.231  12.675
93555W        W60338   1.828   0.492   4.995
93556W        W60339  25.015   4.427  14.448
93557W        W60340  19.497  39.888   3.621
93558W        W60341  18.237  13.195  14.871
93559W        W60342  39.115  22.249   1.229
93560W        W60343  21.270  28.125  12.953
93561W        W60344  31.947  30.479  10.773
93562W        W60345  12.667  10.936   4.068
93563W        W60346   5.404  38.974  14.991
93564W        W60347  26.940  23.621  11.942
93565W        W60348  43.973  35.933  14.651
93566W        W60349  12.688  12.322  13.522
93567W        W60350  10.883   1.488   3.240
93568W        W60351  20.765  31.151   4.113
93569W        W60352  42.129  34.090  14.724
93570W        W60353  44.320  16.533   4.568
93571W        W60354  29.921  19.621   4.849
93572W        W60355  34.068  14.114   1.907
93573W        W60356  25.964  12.095  11.957
93574W        W60357  36.764  26.986   3.222
93575W        W60358   3.818  38.507   2.377
93576W        W60359   4.248  41.122   4.156
93577W        W60360   5.504  15.830  13.359
93578W        W60361   2.699   7.006  12.547
93579W        W60362  19.716  33.894   2.244
93580W        W60363  23.783  42.300  10.355
93581W        W60364  15.667  32.029  12.285
93582W        W60365  22.875   4.208  13.115
93583W        W60366  44.463  32.000   1.692
93584W        W60367   9.184   5.795  11.091
93585W        W60368  36.383  27.927   4.162
93586W        W60369   0.646  42.434   3.318
93587W        W60370   2.649  35.311  12.060
93588W        W60371  42.437  31.581  10.731
93589W        W60372  41.661   7.875   3.924
93590W        W60373   9.815  37.872   1.340
93591W        W60374   4.362  37.484  13.452
93592W        W60375  42.704  28.855   1.669
93593W        W60376   4.553  33.281   1.337
93594W        W60377  36.075  39.867   3.750
93595W        W60378  25.022  41.041  13.556
93596W        W60379  22.862   3.478  10.660
93597W        W60380  38.078   8.320  14.301
93598W        W60381  14.422  13.321   1.672
93599W        W60382  20.289  32.780  14.577
93600W        W60383  23.006  29.068   3.289
93601W        W60384  24.352   8.713   4.139
93602W        W60385  30.426  32.096   2.785
93603W        W60386   4.177  24.176   0.469
93604W        W60387  10.298  43.700  10.731
93605W        W60388  40.838  24.223  12.899
93606W        W60389  19.186  28.367  13.780
93607W        W60390  40.301  37.524   0.457
93608W        W60391  10.420  44.022  14.299
93609W        W60392  19.531  41.980  12.993
93610W        W60393  12.135  33.482   1.694
93611W        W60394  41.492  32.360  10.735
93612W        W60395  12.341  29.899  11.102
93613W        W60396   5.218  32.868  12.902
93614W        W60397  27.597   1.281  13.485
93615W        W60398  18.228  12.893  14.446
93616W        W60399  19.472  40.948  12.030
93617W        W60400   6.874  38.375  13.838
93618W        W60401  21.895  34.051   2.068
93619W        W60402  11.786  13.604   4.117
93620W        W60403  25.558   2.359   0.960
93621W        W60404   9.712  42.408   2.769
93622W        W60405  15.904  29.276  12.154
93623W        W60406  25.142  13.617  13.362
93624W        W60407  25.169   3.300  14.403
93625W        W60408  19.713  37.897   2.015
93626W        W60409  15.201  23.594   1.551
93627W        W60410  33.044   8.754  14.354
93628W        W60411  10.316  34.138  11.998
93629W        W60412   9.156  33.537  11.645
93630W        W60413  29.571  40.002  10.372
93631W        W60414  29.641  11.529   1.586
93632W        W60415  15.840  18.613   4.105
93633W        W60416  33.186   0.712   0.756
93634W        W60417  23.974  40.030   5.378
93635W        W60418  14.486  42.444  14.929
93636W        W60419  24.098  11.533  13.914
93637W        W60420  14.681  40.296   0.241
93638W        W60421  44.865  13.576  11.816
93639W        W60422   7.768  38.971   2.398
93640W        W60423  14.044  30.530  14.836
93641W        W60424  41.491  18.785   0.444
93642W        W60425  35.369  14.934   2.236
93643W        W60426  29.501  34.766  10.863
93644W        W60427  44.041  34.059   0.866
93645W        W60428  36.977  16.768   4.444
93646W        W60429   9.223  25.435   0.984
93647W        W60430   7.763   8.362   1.174
93648W        W60431  21.559  30.216   0.777
93649W        W60432  31.542  25.087   2.614
93650W        W60433  14.529  37.920   1.749
93651W        W60434   5.274  32.549   3.629
93652W        W60435  43.842  34.518  10.521
93653W        W60436  42.358  16.244  11.546
93654W        W60437  13.835   9.341   1.483
93655W        W60438   8.527   5.269   4.092
93656W        W60439  27.114  11.419   3.488
93657W        W60440   2.900  10.438  10.691
93658W        W60441  27.240  44.690   2.663
93659W        W60442  24.524   9.874   1.852
93660W        W60443   9.589  43.333  11.671
93661W        W60444  20.512  26.366   0.275
93662W        W60445   8.206  42.161  12.214
93663W        W60446   4.315  42.984   1.438
93664W        W60447  21.659  27.711  11.751
93665W        W60448  20.052   0.984   2.252
93666W        W60449   0.956  10.400  12.105
93667W        W60450  29.847  43.887  11.068
93668W        W60451  33.230  29.454   0.248
93669W        W60452  10.282   3.353   1.678
93670W        W60453  20.202   5.381  11.029
93671W        W60454   4.290   6.783   1.084
93672W        W60455  37.565  42.408   5.004
93673W        W60456  34.376  16.241   2.655
93674W        W60457  29.584   9.853  14.849
93675W        W60458  22.161  29.003  13.633
93676W        W60459  11.495  25.492   3.240
93677W        W60460  28.201  12.568  13.139
93678W        W60461   8.221  24.034   2.942
93679W        W60462  13.253  11.222  11.643
93680W        W60463  43.302   4.257   0.808
93681W        W60464   4.456  40.569   0.395
93682W        W60465  13.678  10.090  12.463
93683W        W60466  21.661  42.832  13.985
93684W        W60467  12.935  30.931   0.324
93685W        W60468   8.599  43.547   0.406
93686W        W60469  42.444  26.209  13.034
93687W        W60470  31.834   2.293   3.015
93688W        W60471   6.871  29.413  10.617
93689W        W60472  35.758  16.180   0.309
93690W        W60473   7.101  23.783   3.154
93691W        W60474  38.598   4.392  14.209
93692W        W60475  32.540  11.556  14.522
93693W        W60476  22.824  22.154  13.857
93694W        W60477   4.799   4.026  11.178
93695W        W60478  28.385   8.509   2.337
93696W        W60479  29.490  11.876  14.777
93697W        W60480   2.191   6.325   0.425
93698W        W60481  38.866  36.450  11.401
93699W        W60482  25.697  30.941   4.639
93700W        W60483  18.204   3.624  10.711
93701W        W60484  38.882   0.063  12.514
93702W        W60485  31.645  42.846   0.289
93703W        W60486  18.176  19.338  14.464
93704W        W60487  35.127  12.218   1.769
93705W        W60488  24.548   6.778   4.611
93706W        W60489  22.784  18.570   3.055
93707W        W60490  12.595  43.199   0.421
93708W        W60491   4.701  41.461  13.534
93709W        W60492   4.862  19.489   3.195
93710W        W60493   2.592  34.937   3.698
93711W        W60494   3.174  25.136  11.792
93712W        W60495   6.235  22.735   1.945
93713W        W60496  14.758  32.438   1.869
93714W        W60497  23.925  23.103  11.040
93715W        W60498  17.866  26.213   2.033
93716W        W60499  28.121  19.127  13.988
93717W        W60500  27.055  30.070  13.251
93718W        W60501  38.433   6.741  13.835
93719W        W60502  39.067   2.240  13.560
93720W        W60503  42.466  10.916   3.774
93721W        W60504  40.052   6.132   3.356
93722W        W60505  30.447  43.005   4.237
93723W        W60506  18.091  33.384   1.271
93724W        W60507  38.908  39.426   0.457
93725W        W60508   2.339   3.130  13.073
93726W        W60509  20.132  24.110  12.413
93727W        W60510  31.146   5.962  11.562
93728W        W60511  42.055   7.127  14.422
93729W        W60512   2.985   6.482  13.408
93730W        W60513  28.479  18.544   1.975
93731W        W60514   2.147  40.834   3.596
93732W        W60515  17.718  36.095  13.728
93733W        W60516   0.193  11.742  11.994
93734W        W60517  12.637   1.199  12.189
93735W        W60518   3.293  10.689   0.839
93736W        W60519   7.603  38.967   4.639
93737W        W60520  43.396  33.017   4.841
93738W        W60521  42.455  31.385   4.594
93739W        W60522  13.582  30.715  13.919
93740W        W60523  27.197  10.321   0.218
93741W        W60524   6.320  31.795  13.440
93742W        W60525  43.417  12.223   3.309
93743W        W60526  27.670  14.892   2.695
93744W        W60527   8.665  39.773   3.284
93745W        W60528  41.781  43.627   1.728
93746W        W60529  36.336  28.032  11.722
93747W        W60530   0.750  44.282   3.755
93748W        W60531   8.932  35.352   0.531
93749W        W60532  25.109  28.181  10.637
93750W        W60533  13.686  23.085   0.382
93751W        W60534  40.444  23.044  13.850
93752W        W60535   4.883  35.541  11.242
93753W        W60536  30.294  24.083  10.741
93754W        W60537  37.930  38.610  11.032
93755W        W60538  42.701   3.323   3.920
93756W        W60539  18.793  37.366   0.054
93757W        W60540  38.578   7.778  11.620
93758W        W60541  24.372  22.104  14.932
93759W        W60542  37.535  37.861   2.721
93760W        W60543  39.891  26.683  11.554
93761W        W60544  11.190  30.493  10.491
93762W        W60545  36.018  11.267   2.821
93763W        W60546  36.938  42.355   2.397
93764W        W60547  36.463  14.969   3.779
93765W        W60548  11.709  32.670  13.617
93766W        W60549  41.008  37.327   0.935
93767W        W60550   6.217  12.382  13.393
93768W        W60551  34.694  44.978  12.616
93769W        W60552  16.520  16.483   1.770
93770W        W60553  15.196  15.130   1.258
93771W        W60554  13.318  23.439  11.124
93772W        W60555  11.618   9.806  10.781
93773W        W60556   3.436  28.174  11.247
93774W        W60557  19.573   7.348   2.567
93775W        W60558  21.080  34.471  11.523
93776W        W60559  18.306  27.184  13.574
93777W        W60560  15.965   3.638   0.303
93778W        W60561  32.925   6.164   3.109
93779W        W60562  10.910  41.427   4.260
93780W        W60563   3.516  31.033   0.873
93781W        W60564  11.798   1.089   3.236
93782W        W60565  15.219  13.707   2.720
93783W        W60566  22.738  38.451   9.835
93784W        W60567  28.457  15.303  11.500
93785W        W60568  25.643  20.757   2.031
93786W        W60569   1.272  18.613  10.606
93787W        W60570  19.551  17.319  11.593
93788W        W60571  28.536   3.440   4.269
93789W        W60572  24.212  30.304   3.633
93790W        W60573  26.632  30.127   2.633
93791W        W60574  20.109  25.138  10.451
93792W        W60575  26.667  26.089   2.787
93793W        W60576   4.350   9.445   4.490
93794W        W60577  31.137  28.876  10.192
93795W        W60578  34.389  44.784   2.867
93796W        W60579   3.406   9.860  14.940
93797W        W60580  10.818  26.996  13.099
93798W        W60581  18.234  33.632   3.421
93799W        W60582  44.042  34.448   1.688
93800W        W60583  23.478  28.742  11.867
93801W        W60584   7.831  14.048   1.496
93802W        W60585   5.612  32.571   4.398
93803W        W60586   6.982  17.258   3.845
93804W        W60587  39.954  23.700  12.049
93805W        W60588  31.954   9.455   2.503
93806W        W60589  24.994   1.742  14.935
93807W        W60590  15.302  44.260  14.060
93808W        W60591  43.417  21.793  14.912
93809W        W60592   8.991  42.279  13.152
93810W        W60593  27.510   6.637   1.973
93811W        W60594  17.743  39.886  13.926
93812W        W60595  31.365   2.515  11.580
93813W        W60596  11.252   6.866   5.047
93814W        W60597  23.468  27.688  12.210
93815W        W60598  12.278  17.129  12.764
93816W        W60599  12.855  34.353  12.453
93817W        W60600  24.432  35.351   4.130
93818W        W60601  28.305  26.144  12.403
93819W        W60602  34.960  17.790   4.655
93820W        W60603   4.885  29.571  11.826
93821W        W60604  18.518  10.032  13.460
93822W        W60605  37.102  31.288  14.795
93823W        W60606   8.753  15.405  13.398
93824W        W60607  23.837  31.379   4.262
93825W        W60608  15.297  41.340   2.404
93826W        W60609  15.202  26.608   3.817
93827W        W60610  35.674  13.490  14.371
93828W        W60611  44.912  23.032  12.666
93829W        W60612   1.182   6.442  11.973
93830W        W60613  14.423  19.537   3.725
93831W        W60614  20.761   6.344   2.965
93832W        W60615  21.034  17.021  11.470
93833W        W60616  30.724  22.253  14.807
93834W        W60617  43.232  12.407  11.945
93835W        W60618  41.220   4.091  12.509
93836W        W60619  23.678   0.160   3.296
93837W        W60620  17.767  40.315  13.038
93838W        W60621   5.674   1.516  14.938
93839W        W60622  16.286  30.613   1.296
93840W        W60623   5.507   9.195   3.421
93841W        W60624  24.957  24.670  13.928
93842W        W60625  35.071  38.092   1.287
93843W        W60626  21.465  39.576   4.089
93844W        W60627  37.531   9.742   3.242
93845W        W60628  18.828   3.927   0.685
93846W        W60629  17.683  15.897  12.426
93847W        W60630  12.847  22.838   1.465
93848W        W60631   2.725  12.109   1.177
93849W        W60632  30.567  27.682   3.280
93850W        W60633  10.477  28.077   1.378
93851W        W60634  37.446  23.499  10.109
93852W        W60635  31.914   7.742  13.324
93853W        W60636   6.547   8.727   4.515
93854W        W60637  37.986  13.814  14.352
93855W        W60638  44.321   1.943   0.247
93856W        W60639   3.017   3.904   3.798
93857W        W60640  18.409  37.571   3.180
93858W        W60641  36.166  10.405  14.999
93859W        W60642  17.216   6.845  13.399
93860W        W60643  32.301  14.219   1.849
93861W        W60644  42.196   1.554  11.251
93862W        W60645  32.622  28.423   2.838
93863W        W60646   1.298   9.334   1.209
93864W        W60647   5.250   0.183  12.332
93865W        W60648  44.011  33.447   4.154
93866W        W60649  22.754  33.610   4.536
93867W        W60650  11.065  30.553   2.754
93868W        W60651  44.695   0.853  12.951
93869W        W60652   3.854  29.921  13.476
93870W        W60653  34.413  18.239   1.463
93871W        W60654   5.595  20.731  11.621
93872W        W60655  36.343   3.301   4.287
93873W        W60656  36.410   2.940  11.936
93874W        W60657   1.645  29.503  13.352
93875W        W60658  34.189  17.105  11.579
93876W        W60659  37.896  26.008  14.541
93877W        W60660  23.073  42.678  11.541
93878W        W60661  41.302   1.456  12.990
93879W        W60662  24.498   7.828   2.487
93880W        W60663  30.075  19.786  11.501
93881W        W60664   8.900  17.796  11.922
93882W        W60665  28.694  11.122   0.652
93883W        W60666   5.873  41.602  10.770
93884W        W60667   2.177  23.242   0.441
93885W        W60668   8.766  36.023   0.230
93886W        W60669  44.079  32.536   4.936
93887W        W60670   5.711  12.817   0.735
93888W        W60671  36.677  27.439  14.483
93889W        W60672  30.115  39.112  14.046
93890W        W60673  43.820  30.447   4.378
93891W        W60674   3.182   2.849  12.119
93892W        W60675  22.958  14.601   4.559
93893W        W60676   2.703  43.995  12.975
93894W        W60677   8.707  11.165   4.151
93895W        W60678   6.974  43.688  14.876
93896W        W60679  42.799  35.464  14.556
93897W        W60680  22.118  43.371   4.533
93898W        W60681  26.102  18.631  14.499
93899W        W60682  29.453  19.281  12.728
93900W        W60683  43.394  33.170  10.471
93901W        W60684  29.260  33.518   0.263
93902W        W60685   7.855  41.426   2.162
93903W        W60686  44.977  32.175   4.229
93904W        W60687   0.952  16.805  13.358
93905W        W60688  15.498  37.495   3.527
93906W        W60689  19.608  29.819  11.045
93907W        W60690  35.404  34.923  14.731
93908W        W60691  32.771  22.083  14.743
93909W        W60692   8.531  16.309  11.326
93910W        W60693   6.833  12.154  12.874
93911W        W60694  40.967  27.225   3.763
93912W        W60695  27.014  11.591   1.117
93913W        W60696  26.524  39.355  14.375
93914W        W60697  19.523   4.159  10.666
93915W        W60698  37.583  33.446   4.305
93916W        W60699  22.179  13.866  10.619
93917W        W60700  27.148  28.176   2.280
93918W        W60701  25.660  17.636   0.672
93919W        W60702   3.520   4.932  11.331
93920W        W60703  23.921  12.109   3.818
93921W        W60704  13.930   4.810  12.999
93922W        W60705  38.503  24.537   4.058
93923W        W60706  17.798  34.112   3.671
93924W        W60707  30.723   2.630   5.065
93925W        W60708  44.694  26.170   0.078
93926W        W60709  29.223  30.578  10.328
93927W        W60710  18.279  11.686   3.916
93928W        W60711  13.192   4.850  10.616
93929W        W60712   7.594  44.821  14.169
93930W        W60713  25.948  13.095  11.118
93931W        W60714   1.137   7.949   4.560
93932W        W60715  31.949  19.232  13.829
93933W        W60716   3.766  20.972   1.877
93934W        W60717   4.380   8.838  10.949
93935W        W60718  22.505  21.601   1.393
93936W        W60719   8.181  40.794   0.857
93937W        W60720  43.008  27.105  11.070
93938W        W60721  32.663  12.785  11.889
93939W        W60722   6.300  24.331  11.956
93940W        W60723  14.144  23.259   2.767
93941W        W60724  20.501  36.555  13.189
93942W        W60725  38.835  18.299   0.748
93943W        W60726  20.465   0.383  12.622
93944W        W60727  33.698  35.410   3.759
93945W        W60728  28.663  14.295  14.620
93946W        W60729  11.421  12.350   0.780
93947W        W60730  18.614  13.247  14.482
93948W        W60731  10.300  29.312  14.435
93949W        W60732   6.651  20.067  13.494
93950W        W60733  20.519  11.713  13.878
93951W        W60734  35.818  27.785  11.664
93952W        W60735   5.954  12.698  12.094
93953W        W60736  16.779   0.165  12.222
93954W        W60737  32.145  28.214   3.738
93955W        W60738  32.885  14.145  14.092
93956W        W60739  42.321  10.707   0.521
93957W        W60740  44.836  15.652  13.964
93958W        W60741  21.368  37.541  11.102
93959W        W60742  22.199  34.673   0.250
93960W        W60743   2.047  18.285   0.489
93961W        W60744  44.769  26.962   1.331
93962W        W60745   6.015  23.192   4.246
93963W        W60746  42.929  35.481  12.330
93964W        W60747  23.443  24.961  11.592
93965W        W60748  14.596  36.907   1.961
93966W        W60749  25.675   0.512  12.051
93967W        W60750  17.314  22.646  14.552
93968W        W60751  10.589  22.016  12.877
93969W        W60752  33.324   8.578   4.607
93970W        W60753  37.983  40.896  13.957
93971W        W60754   9.746  14.112   1.266
93972W        W60755  26.609   6.195  11.124
93973W        W60756  17.055   4.871  11.455
93974W        W60757  15.868  20.069   2.740
93975W        W60758  42.966  25.652   2.000
93976W        W60759  28.526  17.643  10.530
93977W        W60760   9.435  41.920   3.565
93978W        W60761   7.780  19.001  10.701
93979W        W60762  37.838  17.233   2.681
93980W        W60763   3.899  37.347  13.666
93981W        W60764  32.939  33.874  12.010
93982W        W60765  19.072  24.606   4.720
93983W        W60766  12.872  28.221  13.889
93984W        W60767  39.307  41.480  12.099
93985W        W60768   0.537  30.539  11.533
93986W        W60769  34.858  29.119  14.863
93987W        W60770  23.736   6.581   2.375
93988W        W60771  22.746  33.031  11.486
93989W        W60772  19.132  18.796  10.134
93990W        W60773   8.790  20.527   0.727
93991W        W60774  28.112   2.133   3.223
93992W        W60775  18.781  13.113   1.308
93993W        W60776  19.260  40.223  12.970
93994W        W60777  23.002   3.281  14.784
93995W        W60778  20.050  29.518   0.471
93996W        W60779  31.673  42.459   1.782
93997W        W60780   2.662  12.341  12.437
93998W        W60781  39.956  39.727  11.677
93999W        W60782  11.294  29.511   1.673
94000W        W60783  36.534  38.913  14.916
94001W        W60784  44.074  25.635   1.199
94002W        W60785  22.243  37.023   1.373
94003W        W60786  23.238  44.304  13.920
94004W        W60787  21.059   1.404  14.401
94005W        W60788  37.993   8.153  10.323
94006W        W60789  38.030   1.305  12.409
94007W        W60790  34.898  19.184   1.035
94008W        W60791  12.264  23.764   4.129
94009W        W60792  18.421  40.303   2.454
94010W        W60793  14.454  38.571   5.004
94011W        W60794  40.667  21.510  10.338
94012W        W60795  14.740  32.838   1.510
94013W        W60796  37.879   0.446   1.232
94014W        W60797  27.941  37.083   3.272
94015W        W60798  36.931  15.721   4.233
94016W        W60799  38.911  34.300   4.178
94017W        W60800  43.262  17.678  13.982
94018W        W60801  35.120  38.993   2.255
94019W        W60802  13.727   1.895   3.743
94020W        W60803  31.152   6.953  12.144
94021W        W60804  24.049  31.127  14.325
94022W        W60805  40.902  42.699  12.173
94023W        W60806  16.022  18.662   1.345
94024W        W60807  13.136  28.526   4.328
94025W        W60808   6.221   5.953  10.828
94026W        W60809   1.488  22.222  13.867
94027W        W60810  44.793  21.570  14.942
94028W        W60811  28.109  14.587  12.056
94029W        W60812  10.162  14.750   4.462
94030W        W60813   5.794  42.423  14.899
94031W        W60814  34.185  18.084   1.910
94032W        W60815  18.533  36.665   1.243
94033W        W60816  19.741  13.105  13.367
94034W        W60817  35.479  17.245  12.445
94035W        W60818   5.351  21.005   2.994
94036W        W60819  24.950  21.368  11.990
94037W        W60820  37.610  34.775  11.080
94038W        W60821  36.539  10.704  12.173
94039W        W60822   1.449  10.652  12.819
94040W        W60823  41.793  14.181   1.355
94041W        W60824  28.123  22.204   0.377
94042W        W60825  28.000  40.515   2.756
94043W        W60826  35.122   7.658   3.781
94044W        W60827  17.137  21.592  13.558
94045W        W60828  40.362  31.494   0.904
94046W        W60829  31.947   3.684  13.447
94047W        W60830  13.578  25.698   3.736
94048W        W60831  31.433  42.286   3.053
94049W        W60832  34.814  28.043   2.852
94050W        W60833   5.133  32.588  14.881
94051W        W60834  13.400  42.817  11.625
94052W        W60835   6.612  22.363  10.419
94053W        W60836  30.000  26.381   4.213
94054W        W60837  29.046  39.966   2.727
94055W        W60838   1.425  30.102   4.485
94056W        W60839  13.199  21.920   0.338
94057W        W60840  32.421  44.394  14.365
94058W        W60841  37.896  12.468  14.284
94059W        W60842   6.673   2.821   4.589
94060W        W60843  32.150  13.642  14.874
94061W        W60844  40.257  26.188   0.969
94062W        W60845   7.823  29.559   4.559
94063W        W60846  33.037  14.517   3.833
94064W        W60847  22.093  14.675  13.856
94065W        W60848  35.377   2.562   3.266
94066W        W60849  20.815  44.295   1.834
94067W        W60850  34.067  15.537  12.927
94068W        W60851  33.730  27.183  13.409
94069W        W60852  10.401  10.387   4.711
94070W        W60853  24.536  42.068  10.723
94071W        W60854  39.438  41.587  10.811
94072W        W60855  20.708   4.156  12.813
94073W        W60856   7.820  28.120  14.592
94074W        W60857   6.751  23.556  11.559
94075W        W60858   6.848  30.611   0.289
94076W        W60859  32.968   4.731  10.774
94077W        W60860  40.403   2.466  12.024
94078W        W60861  10.169  19.304   3.331
94079W        W60862  37.319  38.340   2.606
94080W        W60863  18.653  31.936  11.518
94081W        W60864  44.974   7.889   0.809
94082W        W60865  10.298  13.433   4.025
94083W        W60866  39.374  21.825   4.171
94084W        W60867  26.659  39.011   3.067
94085W        W60868  34.024  18.016   3.291
94086W        W60869  39.912   7.064   1.277
94087W        W60870  27.895  16.255  12.739
94088W        W60871  23.063  40.309   1.413
94089W        W60872  37.115  27.761   4.123
94090W        W60873  22.049  15.120  12.484
94091W        W60874  14.629  43.640   3.627
94092W        W60875   7.460  18.129  10.674
94093W        W60876  36.620   0.117  13.291
94094W        W60877  30.177  10.410  14.454
94095W        W60878  27.478  36.802   3.158
94096W        W60879   2.014  12.867   2.981
94097W        W60880   2.243  37.394  14.309
94098W        W60881  31.601  38.263   1.272
94099W        W60882  38.595   3.560   4.272
94100W        W60883  17.998  19.895   0.041
94101W        W60884  18.779   0.524  14.873
94102W        W60885   0.428  10.397   1.304
94103W        W60886  13.811   2.958  12.553
94104W        W60887   8.783  16.168   1.120
94105W        W60888  29.390  41.451   4.659
94106W        W60889  27.379   7.325   3.311
94107W        W60890  23.146  31.146   1.000
94108W        W60891  26.741  13.178   3.361
94109W        W60892  30.239  29.017   1.446
94110W        W60893  20.321  44.846   2.904
94111W        W60894  22.490  37.171  12.992
94112W        W60895   6.181  39.490   0.258
94113W        W60896  39.998  31.508  13.753
94114W        W60897   1.820  39.500   2.636
94115W        W60898  13.379  27.254   1.916
94116W        W60899   1.776  10.144   4.249
94117W        W60900  22.712  31.583  13.360
94118W        W60901   2.666  41.754  11.492
94119W        W60902  19.922  18.162   0.183
94120W        W60903  10.116  42.955   2.183
94121W        W60904  44.928  31.390   2.131
94122W        W60905  19.032   6.934  11.396
94123W        W60906   6.956  15.354   0.499
94124W        W60907  42.189  29.608   4.812
94125W        W60908  39.032  32.169   0.732
94126W        W60909  35.133  23.504  10.241
94127W        W60910  31.574  34.310   3.050
94128W        W60911  27.104   4.015   1.012
94129W        W60912  39.426  12.772  12.915
94130W        W60913  29.587   8.482  14.481
94131W        W60914  12.795  25.616   2.756
94132W        W60915  42.302  19.230   4.380
94133W        W60916  37.384  22.370  10.859
94134W        W60917  28.455  15.818  14.959
94135W        W60918  24.880  12.210   0.886
94136W        W60919  22.604  35.561  10.730
94137W        W60920  33.858  39.896   3.688
94138W        W60921  32.214   4.380  10.620
94139W        W60922   0.450  26.482  14.075
94140W        W60923  11.665  28.575  14.749
94141W        W60924  40.830  38.784   1.641
94142W        W60925  43.312   2.726  13.791
94143W        W60926   1.259  20.161   3.110
94144W        W60927   4.169  27.354  13.977
94145W        W60928  39.892   7.891  14.319
94146W        W60929   6.485   9.748  12.472
94147W        W60930  32.558   0.095   0.220
94148W        W60931   0.305  41.480   3.654
94149W        W60932  24.589  19.745   0.394
94150W        W60933  28.992   7.963   4.123
94151W        W60934  10.149  35.988   0.399
94152W        W60935   0.004  12.385   2.661
94153W        W60936   3.845  22.159  12.577
94154W        W60937  29.032  22.072  10.759
94155W        W60938  17.122  27.910  12.433
94156W        W60939   9.966  18.360   2.244
94157W        W60940  15.742  14.280   0.527
94158W        W60941  21.264  18.046   1.878
94159W        W60942  15.337  42.355  11.018
94160W        W60943  23.582  32.560   4.736
94161W        W60944  23.256  39.484  11.101
94162W        W60945  41.860  36.928  14.987
94163W        W60946  20.185  16.728   3.908
94164W        W60947  20.474  24.896   1.818
94165W        W60948   3.636   7.556   3.781
94166W        W60949   7.241   7.699   0.970
94167W        W60950  22.684  29.490  11.686
94168W        W60951  36.600  39.843   3.851
94169W        W60952  44.940  18.840   1.056
94170W        W60953   6.873   6.034  14.424
94171W        W60954  28.589  37.923   1.516
94172W        W60955  35.167  27.692  14.361
94173W        W60956  16.509   8.210   0.832
94174W        W60957   1.823   7.599   3.644
94175W        W60958  21.252  44.809   3.552
94176W        W60959  34.041  26.001  13.486
94177W        W60960  17.125  22.746   1.880
94178W        W60961  31.011   3.707  14.695
94179W        W60962   5.939  27.252   2.782
94180W        W60963  16.178  26.647  12.884
94181W        W60964  27.503  42.349   1.872
94182W        W60965   3.881  10.994   0.990
94183W        W60966  38.821   4.796  13.975
94184W        W60967  37.232   4.546   3.980
94185W        W60968  14.578  12.884   4.110
94186W        W60969  41.596  35.416  13.960
94187W        W60970  29.535  39.779   2.742
94188W        W60971   8.731  34.540  14.987
94189W        W60972  20.019  12.641   5.039
94190W        W60973  32.062  40.895  11.451
94191W        W60974  30.138  29.630   3.215
94192W        W60975  17.758  42.264   1.791
94193W        W60976  31.877  44.504   1.632
94194W        W60977  34.271   1.173   2.611
94195W        W60978  11.310  16.101  13.096
94196W        W60979  37.558  11.134  12.543
94197W        W60980   9.139  35.328   1.001
94198W        W60981  30.327  36.442  11.187
94199W        W60982  36.353   2.786   4.094
94200W        W60983  31.635  19.186  11.781
94201W        W60984  12.725  33.468   2.534
94202W        W60985  38.544  26.324   0.734
94203W        W60986  39.325   4.857  10.775
94204W        W60987  20.248  43.138  11.070
94205W        W60988  38.480  18.100   3.727
94206W        W60989  24.248  21.984   4.274
94207W        W60990  25.909  36.604   3.261
94208W        W60991  31.360  11.555   4.390
94209W        W60992  40.339  27.391   1.041
94210W        W60993   1.249  11.489  14.896
94211W        W60994   2.373  29.397  13.453
94212W        W60995   2.285  41.906   4.954
94213W        W60996  18.756   8.790   4.164
94214W        W60997  40.565  23.030  12.027
94215W        W60998  31.138  32.943  14.800
94216W        W60999   8.032  37.012  11.380
94217W        W61000   4.461  39.614   2.826
94218W        W61001  31.313  27.334  12.477
94219W        W61002  19.973  28.638  14.983
94220W        W61003  11.373  22.174  12.480
94221W        W61004   2.239  19.107  10.912
94222W        W61005  29.667  31.389   3.960
94223W        W61006   1.880  32.482  11.794
94224W        W61007   0.790  27.932  11.654
94225W        W61008   9.222  35.091   0.206
94226W        W61009  25.943  41.749  14.437
94227W        W61010  27.705  43.251  13.961
94228W        W61011  43.001   1.790   0.381
94229W        W61012  12.838  26.535   4.448
94230W        W61013   0.783   8.904   4.507
94231W        W61014  15.350  35.964   4.550
94232W        W61015  26.201  14.042   1.915
94233W        W61016   4.244  13.406  13.909
94234W        W61017   8.331  20.094  14.329
94235W        W61018   4.456   3.210   1.803
94236W        W61019   9.623  27.520  13.920
94237W        W61020  19.758  29.517   4.597
94238W        W61021  41.856  44.760  14.930
94239W        W61022  26.217  19.509  10.421
94240W        W61023   6.965  39.549  13.053
94241W        W61024   7.897   4.190   0.821
94242W        W61025  26.907  19.085  13.949
94243W        W61026  31.108  21.094  11.496
94244W        W61027  41.576  11.192   0.784
94245W        W61028  36.391  34.566   4.653
94246W        W61029  42.861  26.282   4.386
94247W        W61030  33.566  30.556  10.617
94248W        W61031  37.560   9.670   2.680
94249W        W61032  16.589  44.897  13.812
94250W        W61033  33.145  29.948   0.409
94251W        W61034  36.962  22.086   3.858
94252W        W61035  21.776  24.570  13.866
94253W        W61036  43.274   8.241  11.169
94254W        W61037  18.052   0.386  11.041
94255W        W61038  10.866  23.636  13.339
94256W        W61039  16.964  22.053   4.765
94257W        W61040   5.233  24.232   1.432
94258W        W61041  16.114  20.175   4.224
94259W        W61042  21.771   7.628  14.300
94260W        W61043   1.123   5.427   2.155
94261W        W61044  13.163  32.415  11.732
94262W        W61045  35.067  10.934  12.526
94263W        W61046  27.911  34.380  14.752
94264W        W61047  19.169  25.998  13.308
94265W        W61048  38.821  17.042  12.554
94266W        W61049  38.969   1.335   3.124
94267W        W61050   0.434   2.380   2.420
94268W        W61051  31.543  16.196   1.251
94269W        W61052   3.598  38.214   3.355
94270W        W61053  20.587  38.985  12.779
94271W        W61054  16.797   3.155  10.337
94272W        W61055  17.327  28.148  10.131
94273W        W61056  21.888  42.922   4.672
94274W        W61057  21.747   1.073   2.709
94275W        W61058  17.322   9.953   0.366
94276W        W61059  22.996  42.842  13.262
94277W        W61060   8.780   0.394   4.258
94278W        W61061  32.548   1.267   3.606
94279W        W61062  12.251  44.467   0.045
94280W        W61063  40.392  33.612   1.703
94281W        W61064  17.775  28.240   3.200
94282W        W61065   6.686  34.655  11.713
94283W        W61066  16.495  39.506  12.749
94284W        W61067  36.023  34.926   3.823
94285W        W61068  43.858  10.698   4.977
94286W        W61069  17.671  24.767   1.398
94287W        W61070  36.028  38.328   4.683
94288W        W61071   1.333  16.850   4.125
94289W        W61072  23.250  26.816   3.657
94290W        W61073  22.933  23.062   3.388
94291W        W61074  29.230   9.649   0.859
94292W        W61075  13.857  23.529   4.415
94293W        W61076  32.978  14.894  10.939
94294W        W61077  30.222  43.264   1.288
94295W        W61078  28.647  42.976   3.063
94296W        W61079   1.760  10.363   3.785
94297W        W61080   7.683  31.492  11.903
94298W        W61081  11.200  25.951   4.510
94299W        W61082  19.271  41.249   0.426
94300W        W61083  13.591  30.966  11.671
94301W        W61084  22.438   9.391   1.161
94302W        W61085  39.847  15.752  10.672
94303W        W61086  17.277  32.361   0.899
94304W        W61087  11.305  36.477   0.726
94305W        W61088  29.266   4.574   1.061
94306W        W61089  23.129  28.300   0.989
94307W        W61090   2.203  35.068  12.523
94308W        W61091   0.549   4.973   3.807
94309W        W61092   6.954  14.021  13.048
94310W        W61093  36.482  31.791  13.428
94311W        W61094  32.613  31.118  13.306
94312W        W61095   5.862  42.588   4.602
94313W        W61096  15.710  28.826  13.048
94314W        W61097  27.716  40.090   2.728
94315W        W61098  22.290  28.669  14.365
94316W        W61099  33.505  21.269   0.585
94317W        W61100  23.219   7.066   1.791
94318W        W61101  30.002  18.757  12.964
94319W        W61102  13.782  13.829   3.810
94320W        W61103  38.402  44.755   0.367
94321W        W61104  40.258  16.645   0.280
94322W        W61105   4.573  17.691  12.426
94323W        W61106  38.273  11.704   0.914
94324W        W61107  16.200   4.019  12.076
94325W        W61108   4.850  30.721   1.349
94326W        W61109  32.162  43.829   1.395
94327W        W61110  21.584  11.378  10.494
94328W        W61111   4.329   6.491  11.740
94329W        W61112  28.823   7.371  11.917
94330W        W61113  33.563  19.531   3.727
94331W        W61114  23.647  14.204   2.283
94332W        W61115  11.210  44.833  14.955
94333W        W61116  28.084  27.029  13.628
94334W        W61117  29.020  12.572   2.268
94335W        W61118  28.259  17.404   4.144
94336W        W61119   9.236  29.297  13.098
94337W        W61120  30.995  18.182  13.434
94338W        W61121  19.086  12.286  10.293
94339W        W61122   7.544   5.802  12.047
94340W        W61123  22.215   6.021   4.632
94341W        W61124  16.247  18.742   0.451
94342W        W61125  33.182  37.929  11.418
94343W        W61126  13.816   7.648  14.904
94344W        W61127  32.931   7.778   2.629
94345W        W61128  16.280  10.278  12.967
94346W        W61129  27.447  26.838  11.898
94347W        W61130   2.718   2.931  14.755
94348W        W61131  21.310  41.192   3.685
94349W        W61132   9.875  18.636  14.508
94350W        W61133  28.414   5.208   0.376
94351W        W61134  43.347  16.754  10.318
94352W        W61135  14.392  24.730  12.514
94353W        W61136  28.476  10.812  12.342
94354W        W61137  43.064  40.409  10.809
94355W        W61138  32.368  22.124  13.976
94356W        W61139  35.550  29.972   2.620
94357W        W61140  26.021  35.378   0.482
94358W        W61141  10.420  16.110  10.982
94359W        W61142  12.825  17.806  13.463
94360W        W61143  34.591  33.440   1.766
94361W        W61144  12.632  14.780  11.893
94362W        W61145   6.769  19.694  14.347
94363W        W61146  15.552  15.731  12.006
94364W        W61147  34.667  14.856   3.150
94365W        W61148  38.583  25.305   0.778
94366W        W61149  38.723  36.887  14.947
94367W        W61150  36.583   8.334  14.412
94368W        W61151  32.820   1.432  11.202
94369W        W61152   6.102  36.402  11.000
94370W        W61153  39.295  34.567  12.907
94371W        W61154  37.919  33.116   4.627
94372W        W61155  13.093   9.157  12.946
94373W        W61156  14.658  31.978   2.127
94374W        W61157  16.795  18.766  12.987
94375W        W61158  23.764  11.487   3.679
94376W        W61159   5.491  23.462   2.684
94377W        W61160   9.599  34.322  13.946
94378W        W61161  28.640  19.401   1.922
94379W        W61162   8.682  34.610  12.458
94380W        W61163  40.371  41.963   2.640
94381W        W61164   7.418  28.512   2.364
94382W        W61165   4.450  20.729   1.696
94383W        W61166  10.597  26.718   4.157
94384W        W61167  28.240  37.392   2.366
94385W        W61168   2.446  23.608  13.924
94386W        W61169  18.573  39.742  13.644
94387W        W61170  16.555  18.217   0.810
94388W        W61171  36.473  27.669   0.426
94389W        W61172  21.158  11.143  10.741
94390W        W61173  10.180  17.164  14.040
94391W        W61174  41.450   2.733   1.921
94392W        W61175  21.658  21.955   2.916
94393W        W61176  16.574  44.979   2.622
94394W        W61177  16.652  24.646   4.577
94395W        W61178  32.831  37.942  13.566
94396W        W61179  38.087  25.717  11.876
94397W        W61180  29.914  41.003  14.946
94398W        W61181  42.796  26.915  11.478
94399W        W61182  40.709  27.914   2.245
94400W        W61183   2.452  22.483   1.410
94401W        W61184  19.757   6.649  12.572
94402W        W61185  42.798  24.841  10.639
94403W        W61186  35.373   4.474   1.229
94404W        W61187  33.390  22.213   2.181
94405W        W61188   1.775   1.528  12.178
94406W        W61189  26.356  31.527   2.996
94407W        W61190  42.809  37.884   2.915
94408W        W61191  37.775  19.756   1.698
94409W        W61192  16.115  29.809   4.843
94410W        W61193  36.068  41.098  10.771
94411W        W61194  32.407  32.120   1.431
94412W        W61195  27.941  21.598   3.167
94413W        W61196  28.428   0.466   2.196
94414W        W61197   8.445  18.732  14.037
94415W        W61198  12.267   6.301  14.365
94416W        W61199  38.322   6.841  10.968
94417W        W61200  34.151  13.598   0.249
94418W        W61201  29.017  35.616   1.617
94419W        W61202  42.553   6.554  10.757
94420W        W61203  40.753  38.599  11.559
94421W        W61204  37.848  26.506   0.145
94422W        W61205   8.358  21.839  11.603
94423W        W61206  16.111  10.118  12.465
94424W        W61207  11.208  19.562   1.427
94425W        W61208  36.200  18.277  13.788
94426W        W61209  33.836  35.434   4.560
94427W        W61210  16.870  23.095  11.418
94428W        W61211  41.292  38.538  11.629
94429W        W61212  13.027  22.528   4.177
94430W        W61213  21.169  37.312  12.441
94431W        W61214  18.233  37.519   0.769
94432W        W61215  36.914  16.141  12.375
94433W        W61216  22.653  12.690   4.233
94434W        W61217   7.113   7.303   1.621
94435W        W61218  44.341  31.759  11.019
94436W        W61219  28.433   8.314   2.825
94437W        W61220  18.510  29.423   2.755
94438W        W61221  36.501  44.420  12.504
94439W        W61222  44.723   3.031   4.772
94440W        W61223  31.556  38.750  13.272
94441W        W61224  21.742  43.816  10.886
94442W        W61225   2.512   2.859   0.738
94443W        W61226  34.115  37.611   2.997
94444W        W61227  21.541   8.770  10.754
94445W        W61228   8.343   5.445   0.838
94446W        W61229   9.400   6.755   4.502
94447W        W61230  44.475  38.616  14.254
94448W        W61231  15.691  29.805   1.221
94449W        W61232  38.368  27.743  14.050
94450W        W61233  40.393  12.051  11.691
94451W        W61234   6.513  15.139  14.026
94452W        W61235  11.347  15.075  11.009
94453W        W61236  27.661  44.563  12.602
94454W        W61237   7.582  10.449   0.273
94455W        W61238  34.977  32.572  11.996
94456W        W61239   3.910  37.435   1.263
94457W        W61240  26.025  16.001  13.994
94458W        W61241   3.791  11.388   2.766
94459W        W61242  33.022  11.232  10.740
94460W        W61243  13.801  29.556   2.851
94461W        W61244   3.848   1.999   2.152
94462W        W61245  27.732  20.460  13.006
94463W        W61246  42.765  22.776   4.594
94464W        W61247  17.151  33.031   0.015
94465W        W61248   5.354   8.914   1.340
94466W        W61249   1.442  14.059  13.434
94467W        W61250  38.947  15.960   0.217
94468W        W61251  18.223  21.416   1.436
94469W        W61252  10.734  38.692   0.125
94470W        W61253  15.285  34.028  10.713
94471W        W61254  25.108  10.940   2.327
94472W        W61255  42.540  10.146   1.740
94473W        W61256   1.361  33.067  13.306
94474W        W61257  18.838  30.125  14.068
94475W        W61258  35.243   3.170  13.820
94476W        W61259  33.371  42.475  11.541
94477W        W61260   8.720  14.400   3.668
94478W        W61261  32.571  34.485   4.623
94479W        W61262  34.877   9.797   1.196
94480W        W61263   7.522  34.611  13.862
94481W        W61264  21.712  33.124   2.275
94482W        W61265  44.837  10.209   0.331
94483W        W61266  40.289  41.429  12.405
94484W        W61267  15.678  33.669   0.375
94485W        W61268   5.310  23.172  14.340
94486W        W61269   4.772  19.193  10.773
94487W        W61270   5.908  37.837  11.047
94488W        W61271   2.393   0.547   0.849
94489W        W61272  12.915  11.124   2.763
94490W        W61273  17.110  24.282  11.135
94491W        W61274  17.110  27.158   1.233
94492W        W61275  36.801  22.059   3.246
94493W        W61276  33.185  27.195  11.616
94494W        W61277  25.143  23.636  13.953
94495W        W61278   8.615  17.195  13.055
94496W        W61279  24.728   9.724  13.122
94497W        W61280   2.399  30.221   2.315
94498W        W61281  34.229   5.346  10.125
94499W        W61282  22.349  44.800  13.519
94500W        W61283  29.380   8.194  11.954
94501W        W61284  40.981   9.947   3.060
94502W        W61285  20.295  24.601  14.829
94503W        W61286   3.873  40.096  12.058
94504W        W61287  44.224  12.527  12.836
94505W        W61288  43.368  20.296  13.913
94506W        W61289  36.848  27.405  12.064
94507W        W61290  27.942  17.296   2.685
94508W        W61291  15.304  23.591   4.598
94509W        W61292   3.686  26.703  12.591
94510W        W61293  35.699   1.100   1.398
94511W        W61294   0.961  21.863   1.411
94512W        W61295  39.946  13.652  10.935
94513W        W61296  10.838  30.514  14.660
94514W        W61297  24.661   7.240  13.771
94515W        W61298  18.176  20.210  14.219
94516W        W61299  32.060   1.869   0.035
94517W        W61300  34.189  44.582   3.314
94518W        W61301  16.477   2.438   2.769
94519W        W61302  40.553   5.744  11.592
94520W        W61303  33.460  17.263  11.910
94521W        W61304  20.324  29.094   0.626
94522W        W61305   5.817  28.626  12.468
94523W        W61306   0.471  35.023   3.453
94524W        W61307   5.385  29.675  14.952
94525W        W61308  30.135  10.659   2.603
94526W        W61309  16.356  35.525   1.367
94527W        W61310  22.253   0.302  13.312
94528W        W61311   1.528  30.956  11.131
94529W        W61312  22.814   7.467  10.386
94530W        W61313  40.199   2.173  11.625
94531W        W61314  25.928  38.371  10.582
94532W        W61315  43.217   6.939   4.513
94533W        W61316  25.423  37.542   0.791
94534W        W61317  34.970  44.434   3.851
94535W        W61318   0.628  15.088   2.192
94536W        W61319  37.637  33.603  12.142
94537W        W61320  33.349  12.886  13.258
94538W        W61321  27.611  40.295   2.255
94539W        W61322  32.934   6.386   3.567
94540W        W61323   5.679   8.879   2.204
94541W        W61324  35.829  21.139  13.544
94542W        W61325  19.551  20.318  14.878
94543W        W61326  40.890  42.569  14.048
94544W        W61327  28.511  39.578   1.227
94545W        W61328  28.406  36.137   2.648
94546W        W61329  42.360  37.372   3.307
94547W        W61330  12.314  25.134  11.074
94548W        W61331  37.970  24.025   0.655
94549W        W61332  16.945  32.620  14.471
94550W        W61333   8.908  44.265  13.358
94551W        W61334  37.910   0.462  13.005
94552W        W61335  30.155  17.192  13.563
94553W        W61336  31.348  12.100  12.896
94554W        W61337  41.451  14.588  14.331
94555W        W61338   2.686  15.303  14.592
94556W        W61339  34.450  36.609  12.906
94557W        W61340   6.531  34.977   0.291
94558W        W61341   1.287  33.524   4.297
94559W        W61342  44.422  13.430   2.286
94560W        W61343  23.976  44.271   3.112
94561W        W61344  26.667   4.873   1.861
94562W        W61345  26.666  40.162   0.905
94563W        W61346   6.990   4.323  13.011
94564W        W61347  32.179  34.471  14.309
94565W        W61348  39.212  21.940  13.022
94566W        W61349  22.506  28.013   4.615
94567W        W61350   1.927  21.744   2.883
94568W        W61351  18.267  14.582  13.973
94569W        W61352  31.165  44.752  13.854
94570W        W61353  16.143   4.714   1.087
94571W        W61354  42.749  41.177  13.392
94572W        W61355  31.733  22.830   1.909
94573W        W61356   7.604  13.557  12.446
94574W        W61357  13.381  33.557   1.372
94575W        W61358   2.854  23.564   3.718
94576W        W61359  37.509   0.710   1.557
94577W        W61360  44.498  39.154  14.174
94578W        W61361  26.962  11.696  11.278
94579W        W61362   0.259  12.095  13.014
94580W        W61363  17.249  40.633  11.517
94581W        W61364   8.265  25.587  13.404
94582W        W61365   8.894  32.733  14.340
94583W        W61366  28.116   7.929   3.690
94584W        W61367  36.319  29.446   3.712
94585W        W61368  35.219  26.963   1.971
94586W        W61369  42.773  42.875   3.624
94587W        W61370   2.296  33.884   4.040
94588W        W61371   1.806  17.925   0.253
94589W        W61372  32.485  27.318  14.757
94590W        W61373  37.017   0.689   1.796
94591W        W61374  43.796  10.261  11.089
94592W        W61375  20.496  32.984   1.745
94593W        W61376  18.339  37.195   4.294
94594W        W61377  32.193  14.810   1.250
94595W        W61378   1.160  20.454   4.608
94596W        W61379  13.248  42.707   1.691
94597W        W61380  41.787   5.958   0.256
94598W        W61381  30.175  20.786  10.705
94599W        W61382  34.551  30.603   3.438
94600W        W61383   4.022  34.630  12.522
94601W        W61384  14.660   1.912   3.574
94602W        W61385  38.829  31.074   4.589
94603W        W61386  12.098   4.873   3.823
94604W        W61387  30.005  13.603   1.241
94605W        W61388  12.261  16.154  12.775
94606W        W61389   1.170  16.139   9.893
94607W        W61390  35.144  29.655   0.224
94608W        W61391  12.877  41.703   2.787
94609W        W61392   6.185  32.177   4.057
94610W        W61393  38.759  18.771   1.679
94611W        W61394  25.468  29.417   5.096
94612W        W61395  24.390  39.675   5.369
94613W        W61396  25.528  28.011  13.947
94614W        W61397  13.662  38.675  14.435
94615W        W61398  19.829  30.363   0.054
94616W        W61399  19.127  37.428   4.575
94617W        W61400   6.848   0.827  13.510
94618W        W61401  22.574  38.963  14.294
94619W        W61402  16.116  38.011   4.695
94620W        W61403  17.785  15.750  14.318
94621W        W61404  10.595  19.113  12.478
94622W        W61405  16.202  21.608  13.053
94623W        W61406  18.769  13.303  12.583
94624W        W61407  29.978  15.275  13.624
94625W        W61408  38.273  32.977  11.992
94626W        W61409  44.883  25.518   0.892
94627W        W61410  18.862  13.568   0.354
94628W        W61411  26.290  13.535   1.960
94629W        W61412  19.325  13.345   4.140
94630W        W61413  38.669   9.862  10.640
94631W        W61414  26.845  20.086   1.746
94632W        W61415  23.993  12.595  14.494
94633W        W61416  30.675   6.229  13.739
94634W        W61417   8.299   6.620  14.077
94635W        W61418   6.690  29.549  14.877
94636W        W61419  26.171  29.627  12.017
94637W        W61420  41.916  22.629  13.695
94638W        W61421   6.032   8.376  10.759
94639W        W61422  28.072  25.577   2.145
94640W        W61423  15.259  16.722  14.869
94641W        W61424  38.113  18.101  14.392
94642W        W61425  38.006  30.065   3.122
94643W        W61426  37.162   7.696  10.173
94644W        W61427   4.228  24.069   3.106
94645W        W61428  41.641  39.092  13.392
94646W        W61429  23.800  33.554   0.727
94647W        W61430  44.691  15.745   1.113
94648W        W61431  21.348  31.726   3.179
94649W        W61432  37.012   1.722   0.639
94650W        W61433  22.618  37.016   1.986
94651W        W61434  26.846   9.192  13.916
94652W        W61435  18.227  37.013  13.336
94653W        W61436  16.469  42.292  13.916
94654W        W61437  10.680  44.136   1.483
94655W        W61438  28.471   3.346   3.752
94656W        W61439  11.816  31.452  12.401
94657W        W61440  28.197  38.835   2.316
94658W        W61441   4.383  12.611   1.188
94659W        W61442   8.869  13.691   4.161
94660W        W61443  37.774  11.654   2.801
94661W        W61444  26.632  13.578  10.498
94662W        W61445  35.727  33.702   2.964
94663W        W61446  11.760  17.401   1.886
94664W        W61447  29.438  38.992   0.326
94665W        W61448   6.277  16.121  13.974
94666W        W61449  18.090  39.381   2.807
94667W        W61450  18.225  19.916  11.962
94668W        W61451   3.763  21.743  11.473
94669W        W61452  12.297  38.509  13.077
94670W        W61453  21.252  17.200   2.659
94671W        W61454   0.819  25.063  13.988
94672W        W61455  13.860  12.284   1.775
94673W        W61456  14.322  13.571   2.151
94674W        W61457  24.275  26.132   0.349
94675W        W61458  12.470   3.636  14.722
94676W        W61459  25.619  13.233   3.260
94677W        W61460  15.829  13.276  14.834
94678W        W61461  30.937  38.505   2.313
94679W        W61462   7.972  14.169  13.399
94680W        W61463  44.592  36.452   0.898
94681W        W61464  12.773  22.187  13.883
94682W        W61465  27.208  29.585   2.312
94683W        W61466  15.651   3.470  14.921
94684W        W61467  20.697  26.246  14.250
94685W        W61468  39.793  43.520   0.820
94686W        W61469  13.930  21.678   1.138
94687W        W61470  25.527  29.940   4.388
94688W        W61471  24.929  26.964   3.108
94689W        W61472  39.287  18.802  11.500
94690W        W61473  21.170  37.176   2.628
94691W        W61474  24.363   9.903  14.116
94692W        W61475  18.562  23.112   3.709
94693W        W61476  36.071  22.514  12.634
94694W        W61477  32.329  12.337   2.412
94695W        W61478  38.976  11.718  11.503
94696W        W61479  21.865  28.951  12.471
94697W        W61480  34.858  18.729   0.762
94698W        W61481  40.842   4.668  12.351
94699W        W61482  38.817  22.662   0.473
94700W        W61483  42.040  22.004   0.879
94701W        W61484  21.949  33.126   1.769
94702W        W61485  15.489   3.955  13.828
94703W        W61486  22.674  18.305   1.789
94704W        W61487  21.936  10.786   1.648
94705W        W61488  18.364  42.741   1.275
94706W        W61489   8.867   1.201   2.208
94707W        W61490   0.126  28.792  13.523
94708W        W61491  44.034  23.841  14.237
94709W        W61492  24.225   9.639  11.135
94710W        W61493   1.124  25.052   4.440
94711W        W61494  11.116  40.423  13.407
94712W        W61495  35.135  12.316   4.044
94713W        W61496  39.748  42.371   3.116
94714W        W61497  28.626  16.561  12.523
94715W        W61498   6.139  35.183  14.004
94716W        W61499  40.263  13.126  10.267
94717W        W61500   5.385   5.637   2.113
94718W        W61501   9.771  33.291   3.273
94719W        W61502  28.707  36.339   4.463
94720W        W61503   3.394  26.199   4.461
94721W        W61504  38.073   9.301   3.442
94722W        W61505   1.065  32.886   2.315
94723W        W61506  15.897  20.268  14.771
94724W        W61507  12.875  36.857   3.481
94725W        W61508  44.253  27.941   4.596
94726W        W61509  26.727  23.184   0.788
94727W        W61510  33.132  32.574  11.595
94728W        W61511   1.981  34.904   0.031
94729W        W61512  25.370  16.768   1.527
94730W        W61513  28.102  25.310   4.267
94731W        W61514  21.721   6.281  14.273
94732W        W61515  18.229  16.639   0.303
94733W        W61516  30.617  19.435   4.545
94734W        W61517  24.688  25.398  12.251
94735W        W61518  43.957  32.108  13.888
94736W        W61519  13.590   4.941  11.542
94737W        W61520  33.099  32.598   2.868
94738W        W61521  28.585  12.166  10.502
94739W        W61522   6.979  39.134   1.326
94740W        W61523  34.923  32.946   1.313
94741W        W61524  37.035   8.673  14.467
94742W        W61525  14.016  35.349   3.863
94743W        W61526  36.604  37.566  13.366
94744W        W61527   2.811  13.556   4.981
94745W        W61528  44.375  23.174   0.212
94746W        W61529  41.030  27.723   3.578
94747W        W61530  39.073  30.000  10.592
94748W        W61531  41.727  18.840   3.659
94749W        W61532  26.529  15.664  12.946
94750W        W61533   1.343  44.673  12.460
94751W        W61534  41.537  12.078  12.305
94752W        W61535  27.139  33.374   0.456
94753W        W61536  25.061  17.591   4.102
94754W        W61537  44.346   3.478  12.050
94755W        W61538  18.443  13.641   9.780
94756W        W61539  27.462   2.391   0.252
94757W        W61540  30.314  24.480  14.999
94758W        W61541  41.585  21.243   0.943
94759W        W61542  13.812   1.870   0.826
94760W        W61543  21.554   5.210  13.181
94761W        W61544  44.733  24.171   2.286
94762W        W61545  28.723  26.269  11.660
94763W        W61546  10.326  27.112  13.434
94764W        W61547  27.307   8.394   4.313
94765W        W61548  22.002   3.001  13.343
94766W        W61549   5.529   8.900   4.548
94767W        W61550   3.480   6.919  11.630
94768W        W61551  21.576  33.680   2.329
94769W        W61552   3.409  41.074  12.906
94770W        W61553   0.042  16.037   0.245
94771W        W61554  23.085  32.060  10.699
94772W        W61555  20.827   7.864  11.529
94773W        W61556   2.873  24.226   4.114
94774W        W61557  39.795  36.578  14.088
94775W        W61558  40.845  37.803   3.693
94776W        W61559  26.889  26.988  11.913
94777W        W61560  27.260  14.811   3.558
94778W        W61561   6.677  34.119   0.103
94779W        W61562  36.334  31.874  12.549
94780W        W61563  25.037  24.184   2.181
94781W        W61564  43.732   3.902  13.523
94782W        W61565   2.364   2.696   3.836
94783W        W61566  11.103  36.597   4.477
94784W        W61567  42.024  37.564  14.466
94785W        W61568  38.794  18.797   2.211
94786W        W61569  43.419  37.036  14.400
94787W        W61570  11.149  38.099   0.340
94788W        W61571   5.663  11.607  14.438
94789W        W61572  19.389  29.513   1.767
94790W        W61573  24.779  33.501  11.795
94791W        W61574  33.557  21.127   2.241
94792W        W61575  33.953  21.444   2.218
94793W        W61576  43.271  28.044   3.170
94794W        W61577  11.251   0.685  12.141
94795W        W61578   1.534  27.785   4.067
94796W        W61579  41.625  29.633   3.192
94797W        W61580  14.994   4.863  13.928
94798W        W61581  32.961  17.084  12.003
94799W        W61582  33.160  18.713  11.989
94800W        W61583  44.481  15.313   4.510
94801W        W61584   2.524  29.814   0.031
94802W        W61585  25.507   5.719  13.483
94803W        W61586  42.853  30.944   2.955
94804W        W61587  39.397   7.036   1.695
94805W        W61588   4.783   7.252  12.218
94806W        W61589  13.299  28.966  14.947
94807W        W61590  37.004   0.035  14.884
94808W        W61591   5.258  43.494  10.861
94809W        W61592  10.513  22.514   2.117
94810W        W61593  28.006   3.491  13.482
94811W        W61594  41.027  24.218  12.428
94812W        W61595   3.723   8.502   3.973
94813W        W61596  41.164   8.144  13.989
94814W        W61597   0.805  31.474  12.677
94815W        W61598   8.295  21.302  11.514
94816W        W61599  12.019  42.883  12.621
94817W        W61600  42.061  12.458  11.573
94818W        W61601  12.158   9.445  12.508
94819W        W61602   6.158  23.730   4.308
94820W        W61603  18.056  30.683   3.718
94821W        W61604   6.475   4.559  14.340
94822W        W61605  36.368  32.086   5.010
94823W        W61606   4.125   7.288   1.106
94824W        W61607   8.247  12.192   3.410
94825W        W61608  19.055   4.574  13.402
94826W        W61609  16.364  11.133   0.901
94827W        W61610   5.990   3.703   1.099
94828W        W61611  17.967   3.397  11.107
94829W        W61612  17.271  13.205   2.387
94830W        W61613  14.281  41.564   0.296
94831W        W61614  38.995  19.219   1.812
94832W        W61615   6.139  12.850   4.118
94833W        W61616  28.725  32.946  10.829
94834W        W61617  26.067   1.445   3.634
94835W        W61618  23.919  38.410  10.746
94836W        W61619  30.842  12.140   0.265
94837W        W61620   3.823   3.738  12.470
94838W        W61621  19.690  42.281   1.454
94839W        W61622  29.228  38.058   2.198
94840W        W61623  15.161   2.781  13.078
94841W        W61624  18.099   7.647  13.903
94842W        W61625  21.992  17.746   0.261
94843W        W61626  32.609  40.443  12.037
94844W        W61627  42.289  41.611  11.202
94845W        W61628  28.474  16.087   4.930
94846W        W61629  17.728  13.161  10.590
94847W        W61630   7.964  11.622   2.356
94848W        W61631  17.192  15.300  14.275
94849W        W61632  44.068  24.049  13.300
94850W        W61633  15.136  14.778   0.867
94851W        W61634   5.850  41.267   5.314
94852W        W61635  42.959   3.268   2.339
94853W        W61636   2.477  39.906  11.647
94854W        W61637  31.140  13.501  14.995
94855W        W61638  13.678   5.646  12.186
94856W        W61639  39.482  41.267  12.989
94857W        W61640  29.238  18.235   0.667
94858W        W61641   4.683  28.664   3.731
94859W        W61642   0.328   2.233   4.260
94860W        W61643  43.657  11.668   4.259
94861W        W61644  35.062  28.003   3.307
94862W        W61645  27.477   5.916   4.396
94863W        W61646  35.006  37.547  10.290
94864W        W61647   1.251   0.080   1.396
94865W        W61648  11.862  29.967  10.734
94866W        W61649  26.657  37.567  11.280
94867W        W61650   3.175  14.619   4.950
94868W        W61651   9.805   0.275  14.244
94869W        W61652  20.796  24.319   0.744
94870W        W61653  19.817  37.087   3.956
94871W        W61654  21.220  28.564  10.996
94872W        W61655  26.735   4.612  10.030
94873W        W61656  15.431   6.568  12.973
94874W        W61657  44.359  24.465  11.085
94875W        W61658  26.468  18.595  11.589
94876W        W61659  43.361  43.087  11.270
94877W        W61660  11.255  20.694   3.939
94878W        W61661  15.394   4.250   0.510
94879W        W61662  16.324  15.877  11.540
94880W        W61663  25.090  11.830  13.959
94881W        W61664  30.057  37.107   2.713
94882W        W61665  26.302  44.769   2.691
94883W        W61666  32.233   2.634   3.877
94884W        W61667  23.664   1.634   5.011
94885W        W61668   9.019   6.838   2.633
94886W        W61669  23.432  35.666   4.382
94887W        W61670  13.574  15.139   1.599
94888W        W61671   6.758  31.803   3.209
94889W        W61672  41.801  23.063  14.021
94890W        W61673   0.758  27.543   4.331
94891W        W61674  14.235  37.412   0.411
94892W        W61675   0.459  43.286   4.252
94893W        W61676  29.918  23.431  14.229
94894W        W61677  26.563  34.962  11.810
94895W        W61678   9.251  15.010  12.633
94896W        W61679   7.325  41.830  14.630
94897W        W61680  43.329   1.382   4.428
94898W        W61681  24.451  10.868   1.716
94899W        W61682  29.755  41.632   4.973
94900W        W61683  31.860  35.567   1.232
94901W        W61684  33.830   7.531  12.745
94902W        W61685  21.170  23.871  13.935
94903W        W61686   3.828  11.890   4.622
94904W        W61687  18.565  35.654  13.956
94905W        W61688  31.140   8.428   9.762
94906W        W61689  44.416  24.298   1.474
94907W        W61690   0.797  42.397  11.483
94908W        W61691  39.306  14.795  12.918
94909W        W61692  35.963  19.786  14.005
94910W        W61693  40.600  26.600   2.232
94911W        W61694  22.695  42.992   0.997
94912W        W61695  37.389   2.073  10.288
94913W        W61696   5.772   6.123   2.139
94914W        W61697  33.855   5.671   5.469
94915W        W61698  32.861  26.018   4.534
94916W        W61699  33.821  22.502  11.151
94917W        W61700  23.500   7.244  14.273
94918W        W61701  38.977   6.221   4.160
94919W        W61702   2.915  22.127   1.963
94920W        W61703  29.431  22.537   4.603
94921W        W61704   4.160   8.365   3.196
94922W        W61705  15.579   1.925  10.444
94923W        W61706  24.660  29.435  10.564
94924W        W61707   3.291   5.228   3.684
94925W        W61708   9.409   9.749   2.039
94926W        W61709  25.439  36.478  12.870
94927W        W61710   6.648  42.809   4.220
94928W        W61711  38.664  18.991   3.343
94929W        W61712  42.831  28.800  13.807
94930W        W61713  43.262  28.892  13.538
94931W        W61714  26.530  43.096   1.756
94932W        W61715  21.977  30.700  12.462
94933W        W61716   0.907   7.915   0.988
94934W        W61717  16.981  10.965  12.590
94935W        W61718  37.044  27.580  13.859
94936W        W61719  39.088   6.416   4.626
94937W        W61720  44.424  25.992   2.715
94938W        W61721   2.874  33.429   0.993
94939W        W61722  19.134   2.719   3.385
94940W        W61723  29.761  24.905  10.941
94941W        W61724   3.375  27.892  11.678
94942W        W61725  22.499  17.110   1.401
94943W        W61726   4.410  33.667  11.468
94944W        W61727  30.426  32.437   1.444
94945W        W61728   9.646   4.431   3.888
94946W        W61729  13.083  19.115   0.341
94947W        W61730   9.426  40.379  13.349
94948W        W61731  42.884  38.392   0.599
94949W        W61732  36.473  39.084   3.942
94950W        W61733   4.225  41.793   2.825
94951W        W61734  39.296  11.316  11.611
94952W        W61735   6.160  32.495   3.654
94953W        W61736   1.815  39.397  13.175
94954W        W61737   5.325  44.841  14.722
94955W        W61738  12.147   1.818  12.545
94956W        W61739  33.405  40.995   0.776
94957W        W61740  26.930  15.854  10.438
94958W        W61741  19.352  17.800  14.424
94959W        W61742  17.273  26.196  12.332
94960W        W61743  14.770   9.610  12.349
94961W        W61744  42.030   1.304   3.186
94962W        W61745  11.298   3.432   2.230
94963W        W61746  41.958  12.617  12.081
94964W        W61747  36.809   0.842  11.277
94965W        W61748  33.812  13.862   3.630
94966W        W61749  13.267  16.315  13.350
94967W        W61750   9.623  43.443   1.783
94968W        W61751  39.859   2.444  11.305
94969W        W61752  26.538  33.784  11.083
94970W        W61753  40.868  21.726   3.195
94971W        W61754  23.634  29.172   0.846
94972W        W61755  11.177  19.071   0.483
94973W        W61756  33.306   3.724  11.028
94974W        W61757   3.038  20.881  12.534
94975W        W61758  38.154  18.756  13.662
94976W        W61759  24.730  25.653   2.689
94977W        W61760  27.451   7.459  11.643
94978W        W61761   9.760  28.365  11.514
94979W        W61762  18.680  14.247   4.182
94980W        W61763  41.540  17.088  12.085
94981W        W61764  33.333  16.811  11.732
94982W        W61765  20.879  21.130  14.314
94983W        W61766  44.498  14.317  14.230
94984W        W61767  17.571  19.999  11.266
94985W        W61768  26.983  28.565   1.966
94986W        W61769  43.574  41.386  13.327
94987W        W61770  38.064  11.199  13.891
94988W        W61771  23.211  42.441  14.875
94989W        W61772  22.011   4.183  12.533
94990W        W61773  12.284   7.219   9.840
94991W        W61774   2.329  21.445  10.303
94992W        W61775  15.579  16.185  14.751
94993W        W61776  17.656  40.255  14.780
94994W        W61777   6.418   0.889   3.245
94995W        W61778  32.964  40.032   1.254
94996W        W61779   0.592  44.943  11.715
94997W        W61780   4.781   8.757   0.557
94998W        W61781  14.584   3.350   5.097
94999W        W61782  23.129  20.694   3.778
95000W        W61783   2.523  35.711  13.923
95001W        W61784   0.785  32.372   4.160
95002W        W61785  28.236  41.862   2.630
95003W        W61786   8.114  10.657   3.669
95004W        W61787  30.556  37.760   2.140
95005W        W61788  43.966  22.202  13.223
95006W        W61789   2.705  31.056   1.319
95007W        W61790  30.522  38.263   2.151
95008W        W61791   9.724   2.054  14.652
95009W        W61792  42.961  16.927   4.156
95010W        W61793  21.506   1.782   2.799
95011W        W61794   9.292  25.121  13.356
95012W        W61795  13.632  22.444   2.832
95013W        W61796  21.092  41.013   4.560
95014W        W61797  36.107  39.030   0.223
95015W        W61798  32.884  14.620  13.853
95016W        W61799  17.061  24.960  14.362
95017W        W61800   1.301  44.028  13.754
95018W        W61801  35.419  30.002  14.469
95019W        W61802  39.069  29.686   0.435
95020W        W61803   3.479   6.844   4.149
95021W        W61804  44.910  20.660   3.250
95022W        W61805   6.974   2.612  12.129
95023W        W61806   0.388  14.606  12.920
95024W        W61807   3.093  31.173   0.507
95025W        W61808   0.576   1.249   3.760
95026W        W61809  29.978  12.930  12.527
95027W        W61810  34.924  37.807   4.201
95028W        W61811  35.829  11.867   4.584
95029W        W61812  20.125   8.539  11.579
95030W        W61813   6.968   9.195   0.340
95031W        W61814  37.697  33.557   0.436
95032W        W61815   7.807   4.407  13.806
95033W        W61816  12.597  23.033  12.806
95034W        W61817  42.319  16.939   1.859
95035W        W61818  10.793  22.528   4.560
95036W        W61819  43.570  40.427   1.678
95037W        W61820  25.871  35.080   4.098
95038W        W61821  30.482  19.092  14.744
95039W        W61822  21.360   9.229   1.747
95040W        W61823  34.165  37.101   2.745
95041W        W61824  42.840  23.285   4.716
95042W        W61825   7.130  10.680   0.287
95043W        W61826  23.225  33.683  13.039
95044W        W61827  29.259  28.557  14.804
95045W        W61828  33.333  13.181   2.351
95046W        W61829  32.452  16.516   2.800
95047W        W61830  29.690  10.193   4.827
95048W        W61831  10.390  26.380  12.461
95049W        W61832  19.581  29.636  14.216
95050W        W61833  32.386   9.239   0.816
95051W        W61834   6.430   0.182  10.125
95052W        W61835  23.427   5.058   4.108
95053W        W61836   6.154   2.850   4.506
95054W        W61837   9.736   0.999  11.519
95055W        W61838  30.441  40.120   1.831
95056W        W61839  13.371  36.238   1.411
95057W        W61840  24.386  23.083   3.160
95058W        W61841  37.856  10.702   3.105
95059W        W61842  26.564  33.103  13.004
95060W        W61843  35.113  43.540   0.015
95061W        W61844  30.492  20.679   4.998
95062W        W61845  28.477  12.812  12.733
95063W        W61846  18.089  18.740   1.182
95064W        W61847  36.865  40.097   3.127
95065W        W61848   4.601  29.187   4.537
95066W        W61849   2.610  44.410  14.906
95067W        W61850   2.630   9.253  13.244
95068W        W61851  17.614  27.134   0.772
95069W        W61852   0.924  21.257   3.433
95070W        W61853  26.777  29.358  10.278
95071W        W61854  25.958  44.703   4.480
95072W        W61855  21.055   0.070  14.911
95073W        W61856  10.619  43.457  13.391
95074W        W61857  21.281  12.906   1.349
95075W        W61858  31.963  28.949   4.823
95076W        W61859  24.580  28.213   4.069
95077W        W61860  19.096  16.680   2.350
95078W        W61861   1.373  43.202   2.524
95079W        W61862   8.329  34.037  12.071
95080W        W61863  24.202  16.290   1.545
95081W        W61864   0.722  42.767   3.709
95082W        W61865  32.529   3.410   3.163
95083W        W61866  21.832  33.522  10.169
95084W        W61867   7.001  29.650  14.059
95085W        W61868  11.333  44.746  11.560
95086W        W61869   9.088  21.997   3.823
95087W        W61870   1.685   5.034   2.390
95088W        W61871   8.848  11.832   1.437
95089W        W61872   2.962  26.509   4.298
95090W        W61873   4.356   7.268  10.657
95091W        W61874  19.319   0.849   3.662
95092W        W61875  42.118   1.825   3.142
95093W        W61876  13.166   8.481   3.223
95094W        W61877  21.610   6.182  12.918
95095W        W61878  38.953   9.437   0.797
95096W        W61879  37.787  37.399  14.002
95097W        W61880  23.592   0.358  13.070
95098W        W61881   2.655   2.736   1.215
95099W        W61882  14.761  14.827  11.335
95100W        W61883  22.102  11.182  14.269
95101W        W61884  13.588  35.909  13.463
95102W        W61885  23.538   6.083  13.511
95103W        W61886  31.867  41.615  10.967
95104W        W61887  26.015  35.088  10.740
95105W        W61888  37.427  14.081   1.774
95106W        W61889  29.188   5.725   3.734
95107W        W61890  11.510  32.904  14.463
95108W        W61891  19.626  30.234  12.977
95109W        W61892   7.593  44.960   3.954
95110W        W61893  38.466  17.025  11.537
95111W        W61894  21.047  31.931  10.198
95112W        W61895  27.094  32.647  13.487
95113W        W61896   1.007  38.415   3.468
95114W        W61897  33.333  29.008   2.854
95115W        W61898  40.117  26.915  12.576
95116W        W61899  39.135   3.505   4.167
95117W        W61900   1.057  21.977   4.581
95118W        W61901  23.516  26.838  12.966
95119W        W61902  26.733   7.320   0.739
95120W        W61903  43.654  15.731  12.168
95121W        W61904  14.454  38.074   2.252
95122W        W61905  35.753   8.024  12.827
95123W        W61906  10.297   2.429  11.047
95124W        W61907  39.036  37.801   1.306
95125W        W61908  14.905  20.340   3.747
95126W        W61909  43.939  11.692   1.968
95127W        W61910   4.742  10.828  13.044
95128W        W61911  19.796  37.546  14.430
95129W        W61912  44.414   1.507  14.768
95130W        W61913  28.452  23.265  12.438
95131W        W61914  40.029  28.570  12.855
95132W        W61915  18.804  43.966   1.505
95133W        W61916   7.339  38.243   2.199
95134W        W61917  30.696  36.295   0.763
95135W        W61918  27.708  29.325  13.796
95136W        W61919   5.021  25.141   9.833
95137W        W61920  29.985  16.836   3.732
95138W        W61921  40.789   1.618  14.847
95139W        W61922   6.154  12.101   4.603
95140W        W61923  24.972  40.894   0.834
95141W        W61924  22.028  43.935  12.064
95142W        W61925  18.578  17.182   3.240
95143W        W61926  30.853  16.452   9.544
95144W        W61927  38.835  25.694   4.546
95145W        W61928  28.498  22.465   3.140
95146W        W61929   2.210  14.305   3.336
95147W        W61930  43.561  35.741  11.070
95148W        W61931  36.414  17.717   0.960
95149W        W61932  19.544   6.127   1.879
95150W        W61933  35.770  30.475   3.071
95151W        W61934  43.938   1.965   0.624
95152W        W61935   3.456  10.690   2.536
95153W        W61936  21.211  28.464   1.863
95154W        W61937  34.523   8.521  11.141
95155W        W61938  11.677  41.251   3.392
95156W        W61939   6.050  31.670  11.995
95157W        W61940  36.374   1.925  12.884
95158W        W61941  12.563  36.538  14.540
95159W        W61942  26.516   8.349  10.393
95160W        W61943   0.855  27.122  12.223
95161W        W61944  11.695  40.916   4.397
95162W        W61945  34.376   0.988   1.451
95163W        W61946  31.388  34.100   2.374
95164W        W61947  32.328  39.478   0.380
95165W        W61948  35.801   7.102  13.928
95166W        W61949  18.696  35.467   3.187
95167W        W61950  25.228  26.115   2.048
95168W        W61951  26.574  10.786  12.025
95169W        W61952   0.270  22.970  13.887
95170W        W61953  11.920  21.955   4.363
95171W        W61954  34.912  32.016   3.623
95172W        W61955  14.031   8.108   4.995
95173W        W61956  14.532  22.556  10.262
95174W        W61957  10.687  38.043  11.993
95175W        W61958  23.772  23.828   0.428
95176W        W61959  14.591  27.026   4.417
95177W        W61960  20.640  25.198   1.429
95178W        W61961  21.199  29.067  10.829
95179W        W61962   0.822  13.782   4.555
95180W        W61963  34.906  19.376   2.764
95181W        W61964   9.259  26.851  11.118
95182W        W61965  31.351  39.766  13.422
95183W        W61966   4.292  20.692  12.146
95184W        W61967  17.346  27.092   1.706
95185W        W61968  18.673  27.666   3.126
95186W        W61969   8.838  26.457   1.262
95187W        W61970  30.382  13.884  12.409
95188W        W61971  18.313  43.267  12.903
95189W        W61972  40.120  37.873  12.657
95190W        W61973  37.016  41.343   2.721
95191W        W61974  36.961  23.592   3.651
95192W        W61975  28.717   9.317   4.093
95193W        W61976  11.104  25.336  13.249
95194W        W61977  44.777  17.019   3.607
95195W        W61978   7.376   4.180  14.252
95196W        W61979  26.969  26.251   4.444
95197W        W61980  36.341   3.006  12.424
95198W        W61981  31.503  13.155   3.932
95199W        W61982   8.160  42.768   2.230
95200W        W61983  31.883  22.962  11.211
95201W        W61984   0.174  37.059  12.920
95202W        W61985  37.555  29.577   0.274
95203W        W61986  17.579  43.774  13.937
95204W        W61987  42.743  14.896   2.398
95205W        W61988  29.557   8.139   0.449
95206W        W61989   1.518   6.890   1.095
95207W        W61990  22.640  14.913  14.080
95208W        W61991  20.335  25.651   2.447
95209W        W61992  10.085  28.357   2.660
95210W        W61993  19.093  44.729  13.822
95211W        W61994  38.334  12.130   1.252
95212W        W61995  18.082  29.137  11.014
95213W        W61996   5.915  15.623  10.664
95214W        W61997   6.662   7.348  12.481
95215W        W61998   0.463  12.642  13.717
95216W        W61999   8.848  11.271   0.344
95217W        W62000  36.376  39.553   0.856
95218W        W62001  34.448  26.237  14.433
95219W        W62002  11.591  34.469  13.611
95220W        W62003  40.985  43.065   2.337
95221W        W62004  43.895  21.021  12.952
95222W        W62005   9.270   6.158  10.746
95223W        W62006   3.347  23.958   4.200
95224W        W62007  13.214  41.812  10.462
95225W        W62008   6.318   2.444   3.016
95226W        W62009  22.729  43.880  14.455
95227W        W62010  14.050  39.404   2.544
95228W        W62011  37.452  20.197  13.027
95229W        W62012  10.524  24.799  12.106
95230W        W62013   7.289   8.140   1.277
95231W        W62014  34.185  35.552  14.372
95232W        W62015  19.253  15.084  11.490
95233W        W62016  15.722  30.628   2.401
95234W        W62017  23.469   6.972  12.463
95235W        W62018  44.843  42.764   1.458
95236W        W62019  16.114  16.533   2.118
95237W        W62020  22.527  41.029   1.777
95238W        W62021  34.154  28.471  11.687
95239W        W62022  12.271  20.331  12.491
95240W        W62023  36.634  25.469  11.626
95241W        W62024  26.580  44.102   2.666
95242W        W62025  21.822  17.769   4.194
95243W        W62026  27.236  26.014   1.735
95244W        W62027  28.642   1.141  11.528
95245W        W62028  15.269  35.914  14.574
95246W        W62029  34.811  41.442  13.367
95247W        W62030  22.444  17.294  13.512
95248W        W62031  28.669   7.955   0.908
95249W        W62032   6.609   4.354   4.027
95250W        W62033  27.500  24.904   5.417
95251W        W62034  31.165  37.099   3.876
95252W        W62035  28.341   4.363   2.238
95253W        W62036  22.914  44.780   1.284
95254W        W62037  33.482  23.371   3.202
95255W        W62038   4.824  39.294  11.237
95256W        W62039  19.078   3.020  13.580
95257W        W62040   6.812  20.096  11.157
95258W        W62041  38.005  36.004   1.050
95259W        W62042  11.888  26.729   1.592
95260W        W62043  39.836  25.597   1.570
95261W        W62044  42.680  33.548   1.771
95262W        W62045  28.539  21.591  14.238
95263W        W62046   5.413   9.807  14.819
95264W        W62047  43.493  10.269   5.006
95265W        W62048  33.951  20.135  11.279
95266W        W62049  32.370  37.463  14.700
95267W        W62050   4.224  36.630   0.697
95268W        W62051  19.868  38.414  14.559
95269W        W62052  41.806  19.596  11.523
95270W        W62053  25.523   0.456   1.867
95271W        W62054   2.912  29.207  10.678
95272W        W62055  43.473  21.606   4.713
95273W        W62056   4.744  11.643   3.673
95274W        W62057  12.631  30.416  13.081
95275W        W62058   8.541   8.406  13.423
95276W        W62059  32.990  29.696  13.969
95277W        W62060  25.590  16.547   2.391
95278W        W62061   2.186  43.957  13.897
95279W        W62062   7.817  21.079  11.633
95280W        W62063   9.672  27.701  13.449
95281W        W62064  27.573  42.359  14.544
95282W        W62065   5.200  30.898  12.837
95283W        W62066  22.393  44.041  12.545
95284W        W62067  23.791  26.423  14.884
95285W        W62068  24.088  14.953   3.294
95286W        W62069  34.334   2.793   2.201
95287W        W62070   9.989  16.570  13.514
95288W        W62071  33.554  19.441   4.659
95289W        W62072  26.771   7.239   2.031
95290W        W62073  16.123  42.362  14.297
95291W        W62074  27.259  16.612  11.958
95292W        W62075   4.410  14.663  12.087
95293W        W62076  38.391  26.599   4.526
95294W        W62077  29.651  26.550  13.953
95295W        W62078  34.091  33.638   3.710
95296W        W62079  26.654  14.296   1.813
95297W        W62080  19.139  30.930   4.165
95298W        W62081   9.187   3.894   4.613
95299W        W62082  11.145   4.839   3.116
95300W        W62083  17.366  29.472  13.091
95301W        W62084  33.301  23.453   4.094
95302W        W62085  32.404  22.633  13.103
95303W        W62086  27.103  30.489   1.760
95304W        W62087   1.889   8.620   3.650
95305W        W62088   0.889   5.845  12.564
95306W        W62089  35.920  23.772   4.238
95307W        W62090  14.785  35.832   4.603
95308W        W62091  27.692  29.667  11.633
95309W        W62092  31.211  39.986  10.556
95310W        W62093   0.363  12.550   3.663
95311W        W62094   8.958   9.143   3.534
95312W        W62095  29.134  11.143   0.929
95313W        W62096  21.486  20.272  12.994
95314W        W62097   0.990  36.625  12.618
95315W        W62098   2.720   9.001  11.399
95316W        W62099  18.800  37.902  14.923
95317W        W62100  22.759  38.595   0.848
95318W        W62101  29.202   6.691  13.026
95319W        W62102   9.843   1.924   3.835
95320W        W62103  28.428   5.542  10.666
95321W        W62104  15.559  25.217   1.298
95322W        W62105  40.245  22.046   2.773
95323W        W62106  26.631  26.224   1.429
95324W        W62107   6.415  40.336  13.610
95325W        W62108  29.224  20.235   2.839
95326W        W62109  42.040   4.427  12.639
95327W        W62110  11.680  37.781  13.834
95328W        W62111  31.298  23.379   1.308
95329W        W62112   9.241  16.015   0.886
95330W        W62113  15.187  35.612  12.895
95331W        W62114  15.679  15.525   4.238
95332W        W62115  29.483  25.746   0.257
95333W        W62116  15.944  33.623   5.148
95334W        W62117   8.641  36.219  10.694
95335W        W62118  25.917  38.539   3.223
95336W        W62119  29.008  40.995   0.169
95337W        W62120  14.649  14.570  10.442
95338W        W62121  12.009  36.813   4.969
95339W        W62122  18.077   3.724  13.107
95340W        W62123  28.581  28.309   3.575
95341W        W62124  15.606  44.572   3.135
95342W        W62125   6.247  14.547  11.531
95343W        W62126   3.436  13.567   0.773
95344W        W62127  25.593  18.130   2.144
95345W        W62128  15.524  10.689  14.475
95346W        W62129  24.772  44.868   2.666
95347W        W62130  14.793  18.764  11.490
95348W        W62131   4.270  43.577   4.304
95349W        W62132  44.717  39.224   2.167
95350W        W62133  28.098  33.978   0.019
95351W        W62134  39.131  35.017   3.124
95352W        W62135  15.650  32.629   0.335
95353W        W62136   0.012  44.729   0.699
95354W        W62137  12.830  44.265  11.029
95355W        W62138   7.165  23.202   3.891
95356W        W62139  43.921  34.915   4.306
95357W        W62140  32.998  29.930  11.567
95358W        W62141  22.484  18.489  14.766
95359W        W62142  11.171  33.850   3.157
95360W        W62143  42.352   1.948   1.240
95361W        W62144  43.377  10.549   2.839
95362W        W62145   2.444  12.781  11.718
95363W        W62146  14.563   8.243  11.380
95364W        W62147  26.723  14.878   2.674
95365W        W62148  22.838   7.782   3.762
95366W        W62149   3.265  35.434   4.483
95367W        W62150  27.946  17.757   9.932
95368W        W62151   7.916  42.077  14.889
95369W        W62152  39.027  11.134   3.041
95370W        W62153  43.266  30.393  12.453
95371W        W62154   9.676  13.002  12.553
95372W        W62155  26.738  42.127   5.053
95373W        W62156  27.655  34.964  12.901
95374W        W62157   9.728  25.266  12.172
95375W        W62158  34.588  41.460   2.339
95376W        W62159  40.215  31.324  12.009
95377W        W62160  31.192  14.653  13.408
95378W        W62161   1.531   7.102   3.362
95379W        W62162   7.789   8.870   3.786
95380W        W62163  17.830  40.363  11.247
95381W        W62164  36.643  38.355  14.961
95382W        W62165  19.255  31.783  14.826
95383W        W62166  30.370   2.349   4.063
95384W        W62167   0.388  10.453  10.940
95385W        W62168   7.853  10.211   5.293
95386W        W62169  43.483  41.039  12.414
95387W        W62170  32.595  15.594   5.310
95388W        W62171  17.678   7.952  14.004
95389W        W62172  22.971  18.051  13.370
95390W        W62173   5.056  21.671   1.155
95391W        W62174  21.184  35.607   3.392
95392W        W62175   6.962   2.919  14.957
95393W        W62176  37.643  37.025   3.134
95394W        W62177  24.090  20.989  11.577
95395W        W62178  36.607   9.980   0.747
95396W        W62179   3.746  40.410   4.194
95397W        W62180   1.988  27.164  12.608
95398W        W62181   4.694   4.649  12.941
95399W        W62182   6.207   0.518   2.337
95400W        W62183  11.276  39.138   1.253
95401W        W62184   2.803  34.392  11.092
95402W        W62185  37.938  26.577   1.705
95403W        W62186  17.230  42.137   4.741
95404W        W62187  17.385  14.724   0.848
95405W        W62188  35.477   1.704   4.597
95406W        W62189  16.336  27.679  11.621
95407W        W62190  16.667  13.785  12.329
95408W        W62191  30.452  35.977   0.359
95409W        W62192  10.825  24.639  10.946
95410W        W62193  12.131  36.934   0.294
95411W        W62194  27.058  44.385  14.366
95412W        W62195  19.779  44.692  14.395
95413W        W62196   1.800  34.839  14.522
95414W        W62197  12.955   7.371   5.040
95415W        W62198  36.448  43.958  14.391
95416W        W62199  43.492  41.414   1.760
95417W        W62200   3.990  42.361   2.292
95418W        W62201  37.962   1.049  13.093
95419W        W62202  33.655  19.499   3.208
95420W        W62203  41.726   7.128  11.596
95421W        W62204  19.259  12.217  11.802
95422W        W62205  13.264   5.938  12.101
95423W        W62206  27.180   0.765   2.215
95424W        W62207  20.721  37.445  14.073
95425W        W62208  20.609  37.035   2.402
95426W        W62209  40.245  17.976   0.734
95427W        W62210  39.965  23.497   0.777
95428W        W62211   9.618   6.611  13.880
95429W        W62212  16.633   9.328  12.919
95430W        W62213  14.572  30.121  11.477
95431W        W62214  43.551  10.379   1.890
95432W        W62215  37.892  34.233  12.405
95433W        W62216  10.359  29.883   1.148
95434W        W62217  26.251  15.467   3.365
95435W        W62218  18.712  30.020   0.819
95436W        W62219   2.634  39.325   1.687
95437W        W62220   6.972  20.608  11.211
95438W        W62221   7.871  40.660   4.359
95439W        W62222  26.280  33.333  14.799
95440W        W62223  27.050  16.193  12.193
95441W        W62224  20.493   1.592   2.756
95442W        W62225  16.835  26.142  13.875
95443W        W62226  37.806   1.766  12.480
95444W        W62227  20.285  44.810  11.517
95445W        W62228  31.627  23.642   3.737
95446W        W62229  21.039   2.682  11.417
95447W        W62230  41.845  43.012  10.650
95448W        W62231  24.999  24.917   0.331
95449W        W62232  31.850   9.895   0.532
95450W        W62233  16.543  14.851   1.311
95451W        W62234  39.474  25.170   3.189
95452W        W62235  37.837  21.159  14.479
95453W        W62236   4.485  13.080  13.567
95454W        W62237  34.416  24.414   1.790
95455W        W62238  14.680  35.497  12.983
95456W        W62239  20.991  16.965  13.526
95457W        W62240  38.089  11.635   4.199
95458W        W62241   2.390  31.207   2.072
95459W        W62242  27.648  13.744   3.724
95460W        W62243  21.513  28.164  11.537
95461W        W62244  43.859  29.192   0.229
95462W        W62245   1.157  19.937   4.509
95463W        W62246  21.212   9.580  12.045
95464W        W62247   8.734  31.016  12.058
95465W        W62248  34.314  36.960  10.674
95466W        W62249  37.398  15.053  14.255
95467W        W62250  11.402  27.640   4.718
95468W        W62251  41.717  23.070  13.092
95469W        W62252  22.534  43.276  12.564
95470W        W62253   2.844  34.950   2.765
95471W        W62254  12.572  33.976   0.976
95472W        W62255  19.940   3.978   3.943
95473W        W62256  22.787  22.276   2.275
95474W        W62257  42.323   0.430  11.649
95475W        W62258  26.749   6.671   1.247
95476W        W62259  13.918  27.997   2.414
95477W        W62260  33.189  21.664  10.804
95478W        W62261   1.367   5.194  12.883
95479W        W62262  43.331   0.927   1.275
95480W        W62263  24.339   5.289  11.969
95481W        W62264  36.375  32.115   0.166
95482W        W62265   0.904   2.583   2.278
95483W        W62266  11.475   1.400  13.488
95484W        W62267  12.839  33.910   0.096
95485W        W62268  25.487   8.199  14.315
95486W        W62269  42.013  18.027  10.757
95487W        W62270  20.429   4.125   3.148
95488W        W62271  22.217  44.393   4.015
95489W        W62272  15.845  15.817   4.616
95490W        W62273  32.135  17.332   1.718
95491W        W62274  14.208  27.597   0.392
95492W        W62275  24.676  35.167  13.369
95493W        W62276  10.128  20.358  14.592
95494W        W62277  44.256  16.576  14.970
95495W        W62278  27.981  41.090  10.662
95496W        W62279   1.796  40.129  13.683
95497W        W62280  21.746  35.099   3.487
95498W        W62281  22.178  34.599   1.367
95499W        W62282  42.300  26.969   4.134
95500W        W62283  30.050  21.231   1.187
95501W        W62284  27.004  43.789  10.678
95502W        W62285   6.940  29.527  13.047
95503W        W62286   5.608   4.371   3.147
95504W        W62287  38.424  42.589   3.306
95505W        W62288  29.149   8.361   0.201
95506W        W62289  37.052  31.633   3.100
95507W        W62290  40.347  44.405   1.239
95508W        W62291   8.557   9.602   2.275
95509W        W62292  38.786  44.847   3.806
95510W        W62293  16.034   6.343   2.499
95511W        W62294  29.385   6.610   4.008
95512W        W62295  13.590  44.709  14.815
95513W        W62296  33.829  13.250   2.297
95514W        W62297   5.480  29.975   3.684
95515W        W62298  34.317  30.963   1.580
95516W        W62299  17.756   9.762   4.519
95517W        W62300   3.716  36.959   2.754
95518W        W62301  40.790  28.145   3.789
95519W        W62302   2.403  26.808   0.366
95520W        W62303  14.607  14.990   0.902
95521W        W62304   4.343  35.618   3.279
95522W        W62305  16.637   9.714  14.859
95523W        W62306  27.651  30.350  13.334
95524W        W62307  16.174  13.499  10.635
95525W        W62308   1.717   3.795   2.726
95526W        W62309  41.821   9.935   4.141
95527W        W62310  23.729  27.517   1.864
95528W        W62311  41.396   2.406  14.683
95529W        W62312  12.494   3.281   0.922
95530W        W62313  13.173  12.826  12.140
95531W        W62314  11.840  35.128   2.718
95532W        W62315  12.831   9.942   4.149
95533W        W62316   3.392  15.932   2.348
95534W        W62317   4.360  16.007   1.386
95535W        W62318   9.893  41.219  11.529
95536W        W62319  20.235   6.775   0.784
95537W        W62320   8.850  13.917  12.037
95538W        W62321  36.818  25.456   0.303
95539W        W62322  30.635  40.287   1.343
95540W        W62323  16.280  40.084   0.801
95541W        W62324  35.978  41.822   0.642
95542W        W62325  10.574   1.281  11.398
95543W        W62326  39.597  16.964  10.091
95544W        W62327  41.663   0.935   1.759
95545W        W62328  30.719  29.202   0.743
95546W        W62329  39.087  41.363  11.641
95547W        W62330  25.096   9.197   2.681
95548W        W62331  33.850   6.329   0.918
95549W        W62332  33.926  25.338   4.271
95550W        W62333  32.634  37.395  11.703
95551W        W62334   7.474  18.231   4.715
95552W        W62335  24.706  23.639   4.942
95553W        W62336  28.102  35.842  14.044
95554W        W62337   9.280   5.479   3.183
95555W        W62338   1.857  29.326   1.541
95556W        W62339  35.940  21.761  10.629
95557W        W62340  26.529  31.958  13.406
95558W        W62341   0.284   5.388  11.419
95559W        W62342  37.088   4.229  12.613
95560W        W62343  11.885   8.755   3.814
95561W        W62344  44.389  44.528  13.054
95562W        W62345  21.329  29.691   4.620
95563W        W62346  18.956  21.221   1.914
95564W        W62347  11.473  23.066   1.091
95565W        W62348  36.158  21.458   3.695
95566W        W62349  40.832  12.172   1.750
95567W        W62350  28.199   1.809  10.648
95568W        W62351  43.386  17.718   1.542
95569W        W62352  34.329  27.550   0.728
95570W        W62353  13.576  20.243  12.104
95571W        W62354  26.344   1.973   4.153
95572W        W62355  23.444  39.125   4.585
95573W        W62356  19.446  32.924  12.848
95574W        W62357  29.469  35.991  12.599
95575W        W62358  42.962  13.794  13.602
95576W        W62359  26.492  18.202   1.606
95577W        W62360  37.978  30.642  12.899
95578W        W62361  23.421   6.012   4.288
95579W        W62362  17.552  11.748  11.822
95580W        W62363  36.537  16.114   2.314
95581W        W62364   1.228  43.735  12.853
95582W        W62365   5.073  14.515   1.693
95583W        W62366  27.433  26.421   4.582
95584W        W62367  37.232   8.388   2.276
95585W        W62368  23.749  39.429  12.022
95586W        W62369   3.388  14.790  12.517
95587W        W62370   2.670   5.377  12.123
95588W        W62371  43.582   1.894   1.019
95589W        W62372  24.132  32.913  11.621
95590W        W62373  43.861   0.525   2.357
95591W        W62374  16.069  18.543  12.127
95592W        W62375  18.638   8.155   1.261
95593W        W62376   8.117  15.053   0.788
95594W        W62377  20.075   6.648   1.838
95595W        W62378  39.127  42.882   0.623
95596W        W62379  11.339  11.136  13.203
95597W        W62380   1.719  36.028   2.791
95598W        W62381  33.577  24.787  12.566
95599W        W62382  21.279  27.190  10.540
95600W        W62383  42.404  24.512  10.679
95601W        W62384   7.832  35.600   3.662
95602W        W62385  33.161  10.411  14.938
95603W        W62386  13.226  26.209   4.566
95604W        W62387  32.567  17.289  14.736
95605W        W62388  18.564   5.429  12.773
95606W        W62389  21.279  35.921   3.820
95607W        W62390  18.823  37.227   2.400
95608W        W62391   7.863  35.052  13.971
95609W        W62392   4.503   9.724  11.014
95610W        W62393   6.942  24.546   2.757
95611W        W62394  14.155  24.175  14.832
95612W        W62395  21.129  24.301   3.312
95613W        W62396  29.989  15.797   2.669
95614W        W62397  39.469  41.924   2.936
95615W        W62398   3.298  30.981  11.198
95616W        W62399   5.255  18.087  14.487
95617W        W62400  17.210  36.811  10.539
95618W        W62401   6.865   3.641  11.952
95619W        W62402  43.252  14.944  13.861
95620W        W62403   4.611   1.431   2.370
95621W        W62404   3.395  33.061   4.701
95622W        W62405  40.671   3.437  11.485
95623W        W62406  37.159  33.625  14.762
95624W        W62407  34.629  44.479  12.515
95625W        W62408  39.655  15.623   4.610
95626W        W62409  22.155  26.390   0.968
95627W        W62410  17.257  33.296  10.977
95628W        W62411  21.742  39.310  11.002
95629W        W62412   1.102   5.408  14.426
95630W        W62413  28.702  41.297  13.233
95631W        W62414   9.403   1.957   3.281
95632W        W62415   4.704  13.702   4.870
95633W        W62416  23.703  15.809   4.730
95634W        W62417  27.011  34.467   0.410
95635W        W62418  13.068   4.344   0.741
95636W        W62419   3.949  37.501   0.274
95637W        W62420  39.583  30.158   0.961
95638W        W62421   1.744  36.136   2.246
95639W        W62422  32.087  29.558   3.578
95640W        W62423   5.921  35.357  13.183
95641W        W62424  35.320  15.358   4.245
95642W        W62425  37.927  36.367   2.881
95643W        W62426  43.406  32.639  11.215
95644W        W62427  28.985  24.586   1.403
95645W        W62428   4.254  22.459  11.974
95646W        W62429  22.376  39.441   4.189
95647W        W62430  33.291  26.349   5.102
95648W        W62431  38.593  14.793   1.766
95649W        W62432  23.525  38.544  13.366
95650W        W62433  20.314  29.998  13.306
95651W        W62434  40.286  28.983  11.942
95652W        W62435  36.996  31.849  10.457
95653W        W62436  25.073  21.793  10.634
95654W        W62437  15.314  20.627  12.916
95655W        W62438  36.587  19.178   4.130
95656W        W62439  30.435  42.498   1.709
95657W        W62440  27.142  29.504   3.350
95658W        W62441  23.058  31.740   1.844
95659W        W62442  31.915  31.654   2.746
95660W        W62443   3.367  29.678   4.077
95661W        W62444  10.048   4.907  13.132
95662W        W62445  11.806  23.054  10.521
95663W        W62446  19.806   4.220  11.087
95664W        W62447  35.335  18.676   4.974
95665W        W62448  18.804  15.660  10.630
95666W        W62449  41.382   7.423  12.447
95667W        W62450  34.175  11.844  12.702
95668W        W62451  22.527   2.625   3.585
95669W        W62452  34.455  22.906  14.931
95670W        W62453  15.281  10.621  11.449
95671W        W62454  23.688  10.670  12.943
95672W        W62455  44.869  24.762  14.907
95673W        W62456  13.577  25.141   2.865
95674W        W62457  23.080  37.569  10.769
95675W        W62458  11.703   7.685  12.269
95676W        W62459   1.260   2.872  13.758
95677W        W62460  34.556   4.271   4.819
95678W        W62461  10.356  43.405   2.314
95679W        W62462  13.311  15.229   1.152
95680W        W62463   4.980  25.562  13.310
95681W        W62464   9.358  19.225  11.915
95682W        W62465  10.830  11.857   1.872
95683W        W62466  33.609  43.947  13.026
95684W        W62467  27.893  44.578  14.384
95685W        W62468   4.085  11.840  11.541
95686W        W62469  36.891  36.611   1.896
95687W        W62470   0.779  42.546  11.980
95688W        W62471   7.792  19.264  11.173
95689W        W62472  24.238  39.981  11.233
95690W        W62473  43.392   3.848  13.069
95691W        W62474   2.228  23.611  10.449
95692W        W62475   3.384  40.910   3.218
95693W        W62476  43.408  44.811   0.788
95694W        W62477  34.121  37.904   4.940
95695W        W62478   3.271   7.381  12.603
95696W        W62479   0.098  26.404   0.804
95697W        W62480  34.462  10.080   1.342
95698W        W62481  13.347  20.047   0.649
95699W        W62482  21.549  32.790  11.350
95700W        W62483  30.027  29.621   0.262
95701W        W62484  25.163   9.062  12.846
95702W        W62485   6.740   0.268  10.888
95703W        W62486  39.703   9.230   0.201
95704W        W62487  20.504   1.486  12.380
95705W        W62488  26.745  34.279   4.331
95706W        W62489  13.373  20.537   1.799
95707W        W62490   4.363  37.860  11.549
95708W        W62491   3.235  32.273   2.131
95709W        W62492  24.112   8.928   3.172
95710W        W62493  25.248  40.748  13.917
95711W        W62494   9.871  12.274   2.270
95712W        W62495   1.263  31.272  14.064
95713W        W62496   6.178  18.630   2.705
95714W        W62497  36.614  35.830  12.052
95715W        W62498  21.496  43.833  13.077
95716W        W62499  34.618  25.602   1.012
95717W        W62500  31.364  16.556   0.776
95718W        W62501   2.312  32.419  12.080
95719W        W62502  17.721   2.210   0.383
95720W        W62503  33.760   9.420  14.345
95721W        W62504  34.992  14.728   3.536
95722W        W62505  31.646   5.329   4.308
95723W        W62506  34.141   0.625   2.660
95724W        W62507   0.683  28.723   0.968
95725W        W62508  40.484   8.883  12.356
95726W        W62509  40.283  30.506  14.867
95727W        W62510  16.404  26.613   1.264
95728W        W62511   5.796  21.475   0.431
95729W        W62512   0.459  37.401  11.030
95730W        W62513  36.304  44.735  13.555
95731W        W62514  11.687   8.400   1.626
95732W        W62515  14.735  26.180   2.393
95733W        W62516  34.457  34.299   0.055
95734W        W62517  40.197  34.120  10.855
95735W        W62518   2.288   9.326   3.564
95736W        W62519  20.328  37.004   3.791
95737W        W62520  29.852  14.788  12.361
95738W        W62521  43.997  30.159  11.917
95739W        W62522   9.691  30.977   0.819
95740W        W62523  23.005  22.925   1.730
95741W        W62524   1.023   3.549  14.896
95742W        W62525   8.115  24.603  12.337
95743W        W62526  26.305  37.996   5.034
95744W        W62527  43.734   8.246  10.945
95745W        W62528  30.198   1.918   1.757
95746W        W62529   2.374  44.779  13.440
95747W        W62530  22.047  28.708  10.570
95748W        W62531  41.798   2.737  11.747
95749W        W62532  44.546  32.163  10.078
95750W        W62533  28.402  37.863  14.998
95751W        W62534  43.532   2.433  11.043
95752W        W62535  32.343  21.753  12.071
95753W        W62536   8.684   8.541  10.636
95754W        W62537  27.918  44.308  10.664
95755W        W62538  10.337  12.454  11.641
95756W        W62539  13.952  17.827   4.035
95757W        W62540  14.233  29.104  14.913
95758W        W62541  27.494  20.020  12.842
95759W        W62542   8.359  10.221  13.508
95760W        W62543   6.951  15.382  13.122
95761W        W62544  17.122  30.437   3.645
95762W        W62545   5.010   9.860   3.523
95763W        W62546  34.488  35.851  12.515
95764W        W62547  29.178   0.014   2.232
95765W        W62548   0.135  41.870   2.860
95766W        W62549  42.080  16.757   3.095
95767W        W62550  34.425   9.831   3.092
95768W        W62551  34.026  18.819   3.611
95769W        W62552   9.046  25.797   2.713
95770W        W62553  21.647  44.458   2.669
95771W        W62554  25.607   7.325   3.210
95772W        W62555   5.515   5.680  14.913
95773W        W62556  38.568  18.443  13.550
95774W        W62557  42.701  10.847   1.811
95775W        W62558   5.431  41.830   4.637
95776W        W62559  26.242  33.151  11.634
95777W        W62560  43.233  36.033   2.177
95778W        W62561  29.505  40.954   4.542
95779W        W62562  15.411  40.271   9.684
95780W        W62563  29.594   7.304  12.447
95781W        W62564  14.708  31.492   1.254
95782W        W62565  33.762   5.521   3.340
95783W        W62566   5.150   5.399   0.291
95784W        W62567  39.498  11.602   2.800
95785W        W62568  36.987  11.610  11.742
95786W        W62569  22.198  15.656  12.559
95787W        W62570   6.915  15.036  11.566
95788W        W62571  23.540  44.306   3.430
95789W        W62572  10.212   5.699  13.356
95790W        W62573  32.941  21.757  11.294
95791W        W62574  19.069   2.778   2.871
95792W        W62575  12.560   5.887  12.436
95793W        W62576   9.174  14.147   0.424
95794W        W62577  19.743  16.209  12.257
95795W        W62578   2.809  24.273   3.154
95796W        W62579  25.293   9.279   3.171
95797W        W62580  27.387  44.256  11.093
95798W        W62581  28.904   4.733  14.255
95799W        W62582  40.790  21.472   3.642
95800W        W62583  10.314  42.904  14.771
95801W        W62584   8.843   1.616   1.846
95802W        W62585  30.231  14.726   1.233
95803W        W62586  28.949  39.610  13.500
95804W        W62587  34.517  31.835  13.382
95805W        W62588  23.029  23.993  10.834
95806W        W62589   9.387  38.422  12.586
95807W        W62590  39.347  21.274  12.453
95808W        W62591   7.248   7.768  11.629
95809W        W62592   4.669  37.357   1.822
95810W        W62593  34.923  25.118   4.359
95811W        W62594  24.123   1.743  11.917
95812W        W62595  43.293  34.023   2.220
95813W        W62596  15.304   8.690  14.837
95814W        W62597  26.520  18.618   2.431
95815W        W62598  44.337  18.059   1.823
95816W        W62599   4.767   6.425  13.486
95817W        W62600  26.223  24.715   3.824
95818W        W62601   4.887  11.627  11.367
95819W        W62602   4.180  14.016  13.183
95820W        W62603  25.244   2.590  14.955
95821W        W62604  15.399  41.754  12.252
95822W        W62605  27.961  12.803   2.207
95823W        W62606   3.759  42.416  14.750
95824W        W62607  13.558   8.250   5.119
95825W        W62608  41.974  25.500  14.479
95826W        W62609  36.076  28.599  13.833
95827W        W62610  27.744   7.213   3.729
95828W        W62611   0.043   0.694   4.172
95829W        W62612   1.316  21.469  10.629
95830W        W62613  26.168  14.843   0.935
95831W        W62614   9.793  40.721  11.569
95832W        W62615   3.937  21.450   1.833
95833W        W62616  35.003  42.718   2.241
95834W        W62617  33.907  24.163   2.809
95835W        W62618  10.683  21.053  12.762
95836W        W62619  12.852  34.972   3.837
95837W        W62620  18.631  22.577  13.868
95838W        W62621   2.169  28.231   3.300
95839W        W62622  28.987  28.255   2.850
95840W        W62623  37.573   7.366   5.057
95841W        W62624  23.145  22.643  10.891
95842W        W62625  17.282  16.207   1.780
95843W        W62626   9.818  36.093  13.323
95844W        W62627  44.291  10.081  13.498
95845W        W62628   0.717  19.686   2.001
95846W        W62629  39.738  18.497  10.808
95847W        W62630  19.567  21.361  14.958
95848W        W62631   2.220  44.410   4.476
95849W        W62632  34.908  29.941  12.445
95850W        W62633  24.527  35.851   4.189
95851W        W62634  15.357  31.095  14.833
95852W        W62635  20.141   3.274   0.969
95853W        W62636  24.794  22.057   1.288
95854W        W62637  19.421   4.038  12.520
95855W        W62638  37.298   8.806  14.022
95856W        W62639  29.604  20.568  11.350
95857W        W62640  41.848  39.653   0.368
95858W        W62641  32.091  32.081   0.336
95859W        W62642  30.067  39.795   0.756
95860W        W62643  24.772  25.914   1.405
95861W        W62644  40.454   6.984   3.295
95862W        W62645   3.239  33.094   0.189
95863W        W62646  36.240   9.282   1.317
95864W        W62647  34.011  33.617   0.290
95865W        W62648  10.800   3.480   1.796
95866W        W62649  28.497   0.637  11.691
95867W        W62650  18.735   7.480  10.789
95868W        W62651  32.137  28.032  13.786
95869W        W62652  22.199  24.445   3.741
95870W        W62653   7.290   2.253   4.108
95871W        W62654  22.195   3.308   1.734
95872W        W62655   6.234  44.307  13.836
95873W        W62656  22.695   9.803  13.780
95874W        W62657  41.795  33.729  13.846
95875W        W62658  30.477   0.893  14.639
95876W        W62659  19.765   3.496   0.687
95877W        W62660   6.171   1.236  14.827
95878W        W62661  15.111   4.969   4.086
95879W        W62662  44.416  22.637   3.354
95880W        W62663   2.811  21.499   2.439
95881W        W62664  41.097  36.901  14.462
95882W        W62665  11.541  18.048   1.221
95883W        W62666  27.756  16.504  11.905
95884W        W62667  25.986  19.980   4.866
95885W        W62668  17.321  14.436  12.188
95886W        W62669  35.530  34.614  13.212
95887W        W62670  36.247  16.105  11.852
95888W        W62671  38.567  39.918  11.294
95889W        W62672  34.639  28.292  13.331
95890W        W62673  26.005  40.303  11.627
95891W        W62674  21.028  17.108   3.818
95892W        W62675  44.427   9.776   4.158
95893W        W62676  22.069  33.071  13.988
95894W        W62677   2.924  17.639  11.944
95895W        W62678  20.066  33.751   2.606
95896W        W62679   2.361  38.308   2.211
95897W        W62680   8.092  28.607   2.768
95898W        W62681  23.633  36.535  12.503
95899W        W62682  25.544  28.732   2.638
95900W        W62683   5.065  27.621  10.602
95901W        W62684  31.904   1.251  14.606
95902W        W62685  44.529  19.147  10.711
95903W        W62686  25.497  12.329  12.048
95904W        W62687  24.127  16.546  10.700
95905W        W62688  27.710  35.037   4.961
95906W        W62689  32.896   1.142  11.984
95907W        W62690  33.923  40.939  10.927
95908W        W62691  23.240   4.911   4.684
95909W        W62692   8.840  35.577  13.622
95910W        W62693   5.905   2.423  14.009
95911W        W62694  17.024  21.788   3.852
95912W        W62695  15.740  34.349  11.084
95913W        W62696   4.709   7.376  12.706
95914W        W62697  19.162   6.104  14.998
95915W        W62698  25.636  37.777  11.085
95916W        W62699  23.707  22.784   3.850
95917W        W62700  32.494  12.245  10.739
95918W        W62701  11.142   8.871  11.186
95919W        W62702  41.250  28.048   4.126
95920W        W62703  34.958  33.579   4.444
95921W        W62704  33.053  39.532   1.675
95922W        W62705   8.399  21.187   1.419
95923W        W62706   5.424  17.635  13.027
95924W        W62707  11.902   1.969  12.088
95925W        W62708   5.251  41.758   2.024
95926W        W62709  28.647  20.615   3.674
95927W        W62710   8.068  33.351   0.151
95928W        W62711  18.277  18.359  11.121
95929W        W62712   6.459  15.813   0.364
95930W        W62713  36.514  26.765   1.789
95931W        W62714  34.849   6.592   0.843
95932W        W62715   0.677  13.525  11.043
95933W        W62716  38.862  34.196   0.342
95934W        W62717   2.967  27.964   1.970
95935W        W62718  32.353  36.515   4.861
95936W        W62719  19.254  29.613  10.724
95937W        W62720  38.679   7.025   4.528
95938W        W62721  28.595  17.296   0.970
95939W        W62722  12.722   6.871  12.710
95940W        W62723  20.051  13.782  13.971
95941W        W62724  17.770  29.307   2.254
95942W        W62725  17.067  13.536   3.240
95943W        W62726  41.304  40.997  10.715
95944W        W62727  38.565  19.145   4.098
95945W        W62728  18.176  31.470  13.122
95946W        W62729  37.539  32.076   1.702
95947W        W62730  32.620  16.833  14.453
95948W        W62731   5.667  16.388   2.052
95949W        W62732  15.888  29.081  11.672
95950W        W62733  40.897  18.764   4.373
95951W        W62734  33.533  18.187   3.249
95952W        W62735   7.316  23.401  11.059
95953W        W62736  44.565  36.442  12.498
95954W        W62737  31.029   9.198  11.924
95955W        W62738   6.234   7.204  11.117
95956W        W62739  14.610   5.728  12.141
95957W        W62740   1.762   8.846  13.880
95958W        W62741  13.567  36.494   2.222
95959W        W62742  26.478   7.302   0.285
95960W        W62743  18.457   1.962  14.866
95961W        W62744   8.992  24.493   4.218
95962W        W62745   0.606   7.741  13.019
95963W        W62746   8.237  30.475  11.323
95964W        W62747  39.424  40.589  10.463
95965W        W62748  33.695   8.258   3.159
95966W        W62749  44.070  15.380   4.830
95967W        W62750  38.003  18.097  12.384
95968W        W62751  14.252  21.252  11.954
95969W        W62752  18.241  24.648  11.084
95970W        W62753  11.972  13.892   1.329
95971W        W62754   3.002   3.247  13.477
95972W        W62755  30.536  33.036   4.589
95973W        W62756  18.095   3.780  14.893
95974W        W62757  43.567  36.019  11.503
95975W        W62758  30.896  11.160   3.846
95976W        W62759   4.210  11.104  13.350
95977W        W62760  39.395  23.554  12.905
95978W        W62761  23.959  44.148   0.701
95979W        W62762   6.378  22.699   3.420
95980W        W62763  41.303  44.967  14.587
95981W        W62764  36.613  11.093  13.440
95982W        W62765  34.464  33.786   1.374
95983W        W62766  38.440  27.132   0.302
95984W        W62767   6.181  12.370   3.296
95985W        W62768  25.660  35.528  11.577
95986W        W62769   7.378  19.918  14.100
95987W        W62770  14.801   7.282  12.467
95988W        W62771   9.403  38.474  11.177
95989W        W62772  21.204   5.417   3.680
95990W        W62773  13.679  41.813  10.711
95991W        W62774  27.443  41.299   0.913
95992W        W62775  17.245  43.781  11.676
95993W        W62776  40.896  43.849  11.528
95994W        W62777  23.081   0.555  12.388
95995W        W62778  43.811  39.739  14.479
95996W        W62779  10.992   1.919   5.024
95997W        W62780   4.909  13.455  11.577
95998W        W62781   1.696  25.140   3.252
95999W        W62782  12.781  37.986   1.043
96000W        W62783  27.363  42.832   4.608
96001W        W62784  19.562  43.024   4.573
96002W        W62785  17.807  11.213  14.512
96003W        W62786  30.908  43.363   4.113
96004W        W62787  18.314  13.770  12.142
96005W        W62788  32.351  14.140  10.791
96006W        W62789   6.364  11.059   3.758
96007W        W62790  43.565   9.963   3.670
96008W        W62791  42.394  36.529   3.767
96009W        W62792  14.596  34.499   3.595
96010W        W62793  36.026  25.611   3.490
96011W        W62794  19.282  34.581   1.776
96012W        W62795  32.386  31.971  10.807
96013W        W62796   1.955   2.953  10.456
96014W        W62797  31.010  23.065   3.526
96015W        W62798  43.394  24.767   2.232
96016W        W62799  18.040  44.871   3.416
96017W        W62800  23.061  36.698  11.241
96018W        W62801   9.151  30.081  13.445
96019W        W62802  16.381   4.335   0.231
96020W        W62803   3.377  44.812   1.798
96021W        W62804  32.981   4.501   2.407
96022W        W62805  43.448   4.612  11.516
96023W        W62806  20.903  30.072  14.429
96024W        W62807  16.205   5.559  12.424
96025W        W62808  36.790  41.298  11.148
96026W        W62809  37.054  43.659  11.639
96027W        W62810   3.637  24.679   0.737
96028W        W62811   5.814   8.122   1.363
96029W        W62812   1.016  24.364   4.114
96030W        W62813  24.999  21.781  14.241
96031W        W62814  27.975   9.697  10.476
96032W        W62815   0.376  25.426   0.661
96033W        W62816  29.639  24.044   2.581
96034W        W62817  40.140  19.682  11.081
96035W        W62818  42.729  18.080   2.366
96036W        W62819  14.625  27.552  13.058
96037W        W62820  43.824  10.356   0.538
96038W        W62821  24.673  29.171  14.706
96039W        W62822   6.398   9.105  14.951
96040W        W62823   0.748  40.075   3.197
96041W        W62824  13.042  24.158  12.176
96042W        W62825  37.336  27.051   3.293
96043W        W62826  21.232  36.391   3.611
96044W        W62827  26.753  31.523   3.317
96045W        W62828   4.577   1.930   2.623
96046W        W62829  39.820   3.777  14.259
96047W        W62830  24.403  41.950  12.112
96048W        W62831   2.449  32.771  12.451
96049W        W62832  42.875   9.756  11.693
96050W        W62833  21.218  16.729   2.929
96051W        W62834  24.120  31.337   3.783
96052W        W62835  34.640  16.617   3.815
96053W        W62836  29.742   1.374  12.503
96054W        W62837  40.161  43.315   3.769
96055W        W62838  21.829  38.700   2.221
96056W        W62839  25.681  43.871  11.512
96057W        W62840  15.877  23.341   1.829
96058W        W62841  12.907  11.404   3.202
96059W        W62842  27.682  18.036  13.625
96060W        W62843  39.214  39.595   4.063
96061W        W62844  19.346  33.298   4.964
96062W        W62845   0.905  28.986   4.019
96063W        W62846   7.333  10.899   1.594
96064W        W62847  14.747  38.577   1.056
96065W        W62848  12.147  21.097   0.242
96066W        W62849   1.380  39.219   2.688
96067W        W62850  41.315  29.933   4.891
96068W        W62851  32.775  31.842  14.245
96069W        W62852  44.004  41.179  13.134
96070W        W62853   9.866  21.660  12.828
96071W        W62854   2.769   7.337   2.686
96072W        W62855   2.841  28.681  13.708
96073W        W62856  18.889   9.361  11.477
96074W        W62857  20.650  39.957  13.844
96075W        W62858  14.547   3.323  11.749
96076W        W62859  25.118  44.710  14.297
96077W        W62860   9.307  43.990  13.676
96078W        W62861  35.781  13.671   0.529
96079W        W62862  22.202  35.605   2.623
96080W        W62863  12.845  25.119  13.293
96081W        W62864  38.561  44.215  13.499
96082W        W62865  35.453   1.299   0.574
96083W        W62866  20.782  25.548  12.901
96084W        W62867   8.545  33.129  14.320
96085W        W62868   0.543  33.130   0.924
96086W        W62869  30.317   4.490  13.997
96087W        W62870  28.722  17.302  12.000
96088W        W62871   7.208   0.293   1.312
96089W        W62872  34.972  44.784  13.623
96090W        W62873   7.042  24.237  13.289
96091W        W62874  32.234   7.460   4.918
96092W        W62875  35.804   5.313   2.874
96093W        W62876  17.960  13.063   5.484
96094W        W62877  38.163  37.698   2.288
96095W        W62878  18.788  42.884   3.105
96096W        W62879  13.885  12.869  13.582
96097W        W62880  10.943  38.500  13.925
96098W        W62881  39.489   8.755  14.703
96099W        W62882  26.536   1.280   2.456
96100W        W62883  41.387  33.921   1.931
96101W        W62884  11.217  10.595  11.537
96102W        W62885  17.841  34.985   0.368
96103W        W62886   0.143  43.124   1.799
96104W        W62887  10.731  34.871   0.304
96105W        W62888  22.874  42.023  10.198
96106W        W62889  30.551  15.638  10.644
96107W        W62890  22.460  13.504   1.825
96108W        W62891  20.812  42.515   4.032
96109W        W62892   5.918   3.743  14.357
96110W        W62893   3.009  12.386  13.705
96111W        W62894  20.088  16.691   2.464
96112W        W62895   3.957  24.307   0.932
96113W        W62896  37.731  24.735  13.986
96114W        W62897  33.546  37.954  10.445
96115W        W62898  40.085  16.739   1.712
96116W        W62899   1.026   1.656   3.192
96117W        W62900  31.863   9.219   0.962
96118W        W62901  38.445  43.776  12.573
96119W        W62902  14.217   3.897   1.957
96120W        W62903  10.220  36.044  10.147
96121W        W62904   6.059   1.863   4.689
96122W        W62905  40.018   8.619  12.582
96123W        W62906  32.995  16.353   0.322
96124W        W62907  43.223  39.337   4.204
96125W        W62908  27.228  39.908  11.608
96126W        W62909  17.724   6.240   4.087
96127W        W62910  21.767   0.259  13.530
96128W        W62911  16.238  18.637  14.894
96129W        W62912  27.110   0.578   4.082
96130W        W62913  34.524  38.983   0.515
96131W        W62914   6.309  38.370  12.531
96132W        W62915  29.314   1.215  11.559
96133W        W62916  25.566  14.832  14.573
96134W        W62917  22.542  31.128  12.603
96135W        W62918  25.844   4.737   0.789
96136W        W62919  10.883  15.625   3.689
96137W        W62920  38.991   7.974   4.627
96138W        W62921  17.495  42.752  12.498
96139W        W62922  20.743  18.270  12.269
96140W        W62923  17.580  24.191   0.675
96141W        W62924  28.007   8.625  13.059
96142W        W62925  32.374  32.049  13.966
96143W        W62926  36.121  34.977   1.422
96144W        W62927  33.404  19.588   0.355
96145W        W62928  26.690   6.817  12.071
96146W        W62929   7.145  44.419  14.090
96147W        W62930   0.983  26.618  12.135
96148W        W62931   9.271  12.395   0.897
96149W        W62932  28.040  31.722  10.277
96150W        W62933   5.857   4.955  12.307
96151W        W62934  30.572  21.996   3.734
96152W        W62935   4.699  21.199   9.928
96153W        W62936  15.673  24.833  10.750
96154W        W62937  39.603   9.348   1.212
96155W        W62938  33.334  23.779   1.398
96156W        W62939  44.021  40.655   1.754
96157W        W62940   9.119  16.027  11.340
96158W        W62941  36.115  16.528  11.606
96159W        W62942   4.376   6.915   4.118
96160W        W62943  39.603  24.818  13.400
96161W        W62944  26.724  17.688   2.779
96162W        W62945   7.905  30.050   1.417
96163W        W62946  16.698  31.575  13.895
96164W        W62947  24.687  44.026   1.382
96165W        W62948  34.586   9.256  14.909
96166W        W62949   0.234  24.636  13.473
96167W        W62950   0.993  11.409  14.406
96168W        W62951  41.367   0.760   1.327
96169W        W62952  37.309  20.664  12.033
96170W        W62953  26.297   0.145  13.865
96171W        W62954  21.938  41.260  14.359
96172W        W62955  18.760  27.893   1.339
96173W        W62956  23.462  25.901   0.672
96174W        W62957  36.854  33.858   4.251
96175W        W62958   9.910  23.765   5.043
96176W        W62959   5.671  30.927  10.683
96177W        W62960  44.768  25.399   1.393
96178W        W62961  37.488  34.321   3.164
96179W        W62962  20.727  19.617   2.930
96180W        W62963   7.929  35.403  14.494
96181W        W62964  18.610  37.344  10.929
96182W        W62965  37.569  15.868   4.891
96183W        W62966   1.223  43.743  12.352
96184W        W62967   7.245  27.147  10.981
96185W        W62968  18.635  19.237  12.210
96186W        W62969  33.945  24.895   0.193
96187W        W62970  27.966  29.543   0.306
96188W        W62971   4.354  44.266   3.174
96189W        W62972  40.785  19.093   2.140
96190W        W62973  37.487  26.372   5.032
96191W        W62974  26.429  24.936   0.331
96192W        W62975   4.096  42.006  14.564
96193W        W62976  25.858  43.961   0.916
96194W        W62977  16.673  27.596   0.535
96195W        W62978  30.068  32.070   2.355
96196W        W62979  41.313  42.721   2.651
96197W        W62980   5.857  14.788  10.961
96198W        W62981   9.631  23.633  11.616
96199W        W62982  19.398  39.231   1.285
96200W        W62983  33.998  38.287   2.309
96201W        W62984  12.880  33.605   1.179
96202W        W62985  36.656  33.762  11.194
96203W        W62986  11.795  44.989  11.101
96204W        W62987  24.143   0.325   3.085
96205W        W62988  10.923  32.289   2.387
96206W        W62989  41.907  20.695   2.125
96207W        W62990  24.601  17.814  12.009
96208W        W62991   9.769  14.704   1.067
96209W        W62992   2.194  30.579  12.610
96210W        W62993  39.095  24.109   3.882
96211W        W62994  17.241   7.633  14.046
96212W        W62995  44.804  25.732  10.767
96213W        W62996  44.885  26.743  10.381
96214W        W62997  18.968  39.033  10.683
96215W        W62998  12.091  30.948  10.496
96216W        W62999  22.633   9.444  10.498
96217W        W63000  16.584   8.140   1.369
96218W        W63001  13.797   3.745   4.393
96219W        W63002  43.480  33.581   2.393
96220W        W63003  26.362  24.679  10.303
96221W        W63004  28.488  18.711   4.528
96222W        W63005  30.696  22.251   1.804
96223W        W63006  18.237   8.124  13.298
96224W        W63007  13.687  36.656  14.440
96225W        W63008  19.753  16.186   5.251
96226W        W63009  30.331  30.887   2.236
96227W        W63010  38.565  23.682   4.594
96228W        W63011  23.281  19.051  14.938
96229W        W63012  15.634  17.212  14.946
96230W        W63013  28.160  37.070  11.224
96231W        W63014  14.590   3.360   1.499
96232W        W63015  14.755  34.637  14.393
96233W        W63016  35.368   2.926   2.278
96234W        W63017  28.656   2.382   1.605
96235W        W63018  31.460  12.841  11.327
96236W        W63019  28.577   7.337  13.138
96237W        W63020  28.496   3.246  14.581
96238W        W63021  26.496  19.694   1.816
96239W        W63022  27.161  37.368  11.287
96240W        W63023  27.130   9.342  14.333
96241W        W63024  35.260  16.758   2.516
96242W        W63025   5.834  11.852  11.950
96243W        W63026  31.678  14.816   1.205
96244W        W63027  40.935   0.321   0.014
96245W        W63028  29.237  12.357   3.258
96246W        W63029  12.762  10.055   4.649
96247W        W63030  44.949  40.580   2.605
96248W        W63031  44.824  22.093   3.104
96249W        W63032  30.331   9.935   0.246
96250W        W63033  19.078  24.756   4.225
96251W        W63034  32.994  25.047   0.727
96252W        W63035   9.821  37.648  14.443
96253W        W63036  12.280  44.992  10.924
96254W        W63037  17.179  37.633  10.218
96255W        W63038  14.816  31.554   4.306
96256W        W63039  19.172  19.973  12.332
96257W        W63040  10.635  25.045   4.364
96258W        W63041   4.405  39.089   2.855
96259W        W63042   9.724  39.627   4.616
96260W        W63043  36.523  22.108  14.845
96261W        W63044  42.028  23.183  10.530
96262W        W63045  30.160  37.366   3.722
96263W        W63046   4.223  32.973  13.871
96264W        W63047  34.648  22.841   4.173
96265W        W63048  25.750  19.891  13.407
96266W        W63049  41.602  25.659   2.700
96267W        W63050  12.708  23.801   2.845
96268W        W63051  36.913  22.290  11.041
96269W        W63052   6.338  40.812  13.815
96270W        W63053  42.078   5.930   1.518
96271W        W63054   3.905  41.498  14.439
96272W        W63055  15.190  39.684   1.643
96273W        W63056  31.838  14.972  12.480
96274W        W63057  18.348  21.207   2.833
96275W        W63058  15.344   2.345  12.125
96276W        W63059  31.239  41.528   4.023
96277W        W63060  43.927  28.041   2.725
96278W        W63061  38.809  11.190  11.538
96279W        W63062  16.900   5.041   1.170
96280W        W63063  12.251  17.548   3.715
96281W        W63064  29.045  28.853  13.991
96282W        W63065  39.815  13.129   1.427
96283W        W63066  11.248  16.624   1.412
96284W        W63067  40.307  13.761  11.544
96285W        W63068  30.415   0.336   3.601
96286W        W63069  33.427  30.667  11.927
96287W        W63070  32.117  35.966  12.896
96288W        W63071   6.268  32.525   2.691
96289W        W63072   9.620  23.624  12.571
96290W        W63073  22.350  10.212  13.768
96291W        W63074  15.538  33.316   4.165
96292W        W63075  14.134  18.275  10.835
96293W        W63076  21.730  12.907   0.352
96294W        W63077  22.632   7.446   3.381
96295W        W63078  10.852  25.311  14.502
96296W        W63079  24.597  10.550  12.389
96297W        W63080  36.540   9.773  12.051
96298W        W63081  35.570  44.461   2.084
96299W        W63082  44.589  10.749   4.518
96300W        W63083   7.954   8.424  11.191
96301W        W63084   2.621  36.477  11.569
96302W        W63085  31.001  14.174   2.168
96303W        W63086  13.692  13.819   2.344
96304W        W63087  27.954   2.237  11.940
96305W        W63088  41.316  44.142  11.509
96306W        W63089  18.083  14.307  14.470
96307W        W63090   0.163   5.781   3.773
96308W        W63091  33.666  14.702   3.357
96309W        W63092  33.149  30.257  11.147
96310W        W63093  42.184   2.200   4.112
96311W        W63094  14.832  28.172   2.341
96312W        W63095  10.258  39.514  11.983
96313W        W63096   8.644  37.869  14.708
96314W        W63097  13.081  29.023  14.433
96315W        W63098  41.216  40.452  12.565
96316W        W63099  12.940  33.398  11.717
96317W        W63100  17.533  19.958  12.942
96318W        W63101  35.882   2.507   0.380
96319W        W63102  10.953  21.035  11.832
96320W        W63103  35.303   8.796   4.144
96321W        W63104   7.859  25.113  12.498
96322W        W63105  24.759  28.661   3.836
96323W        W63106  38.199  23.890  11.147
96324W        W63107  33.579  30.018   4.022
96325W        W63108   9.276  27.674  14.879
96326W        W63109  37.473  35.356   2.895
96327W        W63110   1.906   8.688  12.107
96328W        W63111  15.276  17.791  12.941
96329W        W63112  44.086  20.154   0.397
96330W        W63113  38.979  44.741   4.705
96331W        W63114  38.523  31.357  10.684
96332W        W63115   2.747   5.259   1.944
96333W        W63116   1.129  16.657  14.699
96334W        W63117  28.846   9.857  11.445
96335W        W63118  40.961  15.469  12.431
96336W        W63119  32.008   7.948   4.156
96337W        W63120  36.910   6.453   1.484
96338W        W63121  20.250  32.609  12.992
96339W        W63122  36.055  23.447  11.883
96340W        W63123  38.147  12.863   2.717
96341W        W63124   2.371  17.792  11.127
96342W        W63125  12.808  18.496   0.933
96343W        W63126   9.435  12.588   4.128
96344W        W63127   7.489  44.660  11.740
96345W        W63128  33.500  33.685   3.212
96346W        W63129  17.135  24.896   3.683
96347W        W63130   4.412  24.467  12.846
96348W        W63131   5.819  40.491  11.071
96349W        W63132  41.996   5.385   4.524
96350W        W63133  26.320   4.391  12.704
96351W        W63134  44.759  32.864   3.695
96352W        W63135  16.337  23.118   1.862
96353W        W63136  27.256  36.262   2.948
96354W        W63137  15.879  29.086  12.631
96355W        W63138  15.920  19.539   3.679
96356W        W63139  20.907   2.013   1.882
96357W        W63140  26.731  28.727   3.613
96358W        W63141  32.582  21.597  14.813
96359W        W63142  28.752  39.720  14.436
96360W        W63143  22.450  40.289  13.916
96361W        W63144  12.711  27.712  14.798
96362W        W63145   8.214  42.778  12.899
96363W        W63146  27.703   0.192  12.103
96364W        W63147   7.316  27.660  14.011
96365W        W63148  38.908   0.223  11.174
96366W        W63149  30.063  37.985   2.012
96367W        W63150  10.846  40.855  11.969
96368W        W63151  30.587  22.635   2.870
96369W        W63152   9.430  10.840  14.882
96370W        W63153  37.595   9.484  12.001
96371W        W63154  33.616  16.283   4.469
96372W        W63155  16.574  26.914  11.125
96373W        W63156  27.178  27.125   4.839
96374W        W63157   8.814  15.983  12.604
96375W        W63158  12.649  38.285   4.557
96376W        W63159  44.868  28.962  10.659
96377W        W63160  19.983  22.560   1.312
96378W        W63161   3.791  34.941   0.783
96379W        W63162  22.721   5.210   0.783
96380W        W63163  33.484  12.427   2.715
96381W        W63164  42.880  12.350  12.640
96382W        W63165   8.634   2.356   4.095
96383W        W63166  22.299  17.384   0.008
96384W        W63167  31.308  11.416   0.500
96385W        W63168  25.696  28.428   5.116
96386W        W63169   0.952  41.848  13.658
96387W        W63170  40.544  18.988   0.875
96388W        W63171  18.636  18.665  14.933
96389W        W63172  23.395  44.441  12.664
96390W        W63173  35.621   8.327  12.153
96391W        W63174  22.214  36.249  11.040
96392W        W63175  26.193   1.100  11.664
96393W        W63176  35.006   2.478   0.513
96394W        W63177   7.681  40.523  12.423
96395W        W63178  32.619  30.860  10.749
96396W        W63179  13.312  38.470   3.650
96397W        W63180   0.457   4.535  11.776
96398W        W63181  37.512  31.394   3.877
96399W        W63182  38.771   3.282   3.869
96400W        W63183  43.130  20.341  10.484
96401W        W63184  37.847   2.968  12.493
96402W        W63185  18.257  12.315   3.605
96403W        W63186  34.247   7.947   2.083
96404W        W63187  18.777  10.180  12.439
96405W        W63188  12.099  23.672  12.207
96406W        W63189  19.014  41.328  13.869
96407W        W63190   2.210   8.865   0.247
96408W        W63191   4.143  42.396   3.304
96409W        W63192  41.001  27.376   2.708
96410W        W63193  22.615  33.416   0.447
96411W        W63194  39.990  17.136   0.950
96412W        W63195  15.635  43.412  13.561
96413W        W63196  15.511  37.856   1.915
96414W        W63197  23.660  17.082  12.370
96415W        W63198  31.026  21.526   0.869
96416W        W63199  27.560  12.066  10.613
96417W        W63200  30.874  17.356  12.143
96418W        W63201  12.400  35.570   0.458
96419W        W63202  39.281   0.175   4.627
96420W        W63203   6.347  20.431  14.966
96421W        W63204  17.015  39.008   1.765
96422W        W63205  27.090  41.860  11.538
96423W        W63206  25.699   9.625  11.208
96424W        W63207   2.257   9.745  14.009
96425W        W63208  34.314   4.166  11.638
96426W        W63209   2.668   6.260  11.139
96427W        W63210  44.508  18.805   1.374
96428W        W63211  27.825  23.641  14.865
96429W        W63212  24.311  34.238  12.355
96430W        W63213   3.757   0.476   0.907
96431W        W63214  30.587  29.774   1.711
96432W        W63215  22.195  20.824  10.618
96433W        W63216  23.478  31.001  12.569
96434W        W63217   1.499  14.855  14.969
96435W        W63218  36.304  38.424  12.428
96436W        W63219  39.812  15.126  11.172
96437W        W63220  39.748   9.371  11.912
96438W        W63221  15.398   4.064  11.108
96439W        W63222  35.376  15.982   3.622
96440W        W63223  30.604  32.647   1.906
96441W        W63224   4.415  42.085  13.192
96442W        W63225  43.409   4.804  14.566
96443W        W63226   9.494  35.424  12.025
96444W        W63227  16.057  35.124   4.335
96445W        W63228  29.606  17.489  12.024
96446W        W63229  20.868  38.577   4.153
96447W        W63230  43.575  33.375   1.430
96448W        W63231  43.396  30.987   4.580
96449W        W63232  12.228  27.860   1.662
96450W        W63233  37.822  26.491   4.470
96451W        W63234  28.390   8.309  12.114
96452W        W63235  17.693  34.367   2.921
96453W        W63236  16.107  29.301   0.772
96454W        W63237   9.916   7.334  14.368
96455W        W63238   3.531   9.676   0.915
96456W        W63239  30.058  32.656  10.761
96457W        W63240  38.533  14.832  13.218
96458W        W63241  44.393  34.162  10.774
96459W        W63242  12.748   3.292   2.922
96460W        W63243  43.778  37.964  14.451
96461W        W63244  34.705  35.985   3.068
96462W        W63245   0.090  36.631   0.940
96463W        W63246  10.801   8.414   3.654
96464W        W63247   6.165  27.683   4.198
96465W        W63248  17.062  24.016   0.882
96466W        W63249  12.168  22.261  12.668
96467W        W63250  37.258  35.397  13.182
96468W        W63251   8.195  17.545  11.559
96469W        W63252  30.168  23.081  13.422
96470W        W63253  21.607  42.973   0.336
96471W        W63254  13.354  19.932  13.277
96472W        W63255  34.559   9.217   4.747
96473W        W63256  25.915  24.574   3.433
96474W        W63257   3.518  33.081  13.389
96475W        W63258  43.863  14.235  13.495
96476W        W63259  27.501  27.244   2.798
96477W        W63260  34.918  40.016  10.801
96478W        W63261   4.159  10.814   4.650
96479W        W63262  30.166   4.866  13.186
96480W        W63263  13.363   9.886   4.105
96481W        W63264  19.493  12.922   0.973
96482W        W63265  10.441  33.649  11.152
96483W        W63266  41.490  31.727  14.454
96484W        W63267  32.416   7.115  14.788
96485W        W63268   8.677   1.261   4.250
96486W        W63269  34.183  12.198  14.587
96487W        W63270  33.497  21.759   4.197
96488W        W63271   2.711  16.129  14.432
96489W        W63272  23.040  18.532   4.290
96490W        W63273  12.047  32.684  11.062
96491W        W63274  21.670  26.889  14.679
96492W        W63275   4.388   5.777  13.799
96493W        W63276  34.082   0.906   3.320
96494W        W63277  42.576  32.533   2.285
96495W        W63278  10.787   9.430  14.845
96496W        W63279  14.600  35.352   0.799
96497W        W63280  24.557  19.139  13.639
96498W        W63281   3.212  37.264   1.880
96499W        W63282  19.889   9.451   4.307
96500W        W63283  42.127  35.364   2.786
96501W        W63284   4.457  12.737   3.297
96502W        W63285   6.400   2.328  13.953
96503W        W63286  42.711  42.499  13.397
96504W        W63287  31.525   3.045  11.643
96505W        W63288   4.157  17.884   0.131
96506W        W63289  27.865  38.315   3.536
96507W        W63290  22.207  27.062  13.432
96508W        W63291  29.120  30.604   3.367
96509W        W63292  18.575  31.254  12.862
96510W        W63293  29.496  40.945   3.617
96511W        W63294   0.875  34.015  11.249
96512W        W63295  20.772  12.919   1.261
96513W        W63296  22.076  14.866   0.782
96514W        W63297  38.414   2.930  12.522
96515W        W63298  24.443   0.761  13.513
96516W        W63299  37.676  44.820   0.761
96517W        W63300  12.176  20.833  13.441
96518W        W63301  30.184  26.575  13.982
96519W        W63302  19.990  22.211  11.207
96520W        W63303   9.771  19.328   3.754
96521W        W63304  21.706  35.812  14.381
96522W        W63305  22.564  20.805  14.337
96523W        W63306  31.887   9.146  13.537
96524W        W63307  18.047  39.173  10.601
96525W        W63308  41.770  29.071  11.187
96526W        W63309  35.620   8.808  14.425
96527W        W63310  43.025  17.832   1.949
96528W        W63311  27.971  23.607  10.257
96529W        W63312  31.856   4.725   4.115
96530W        W63313  32.523   9.790  13.649
96531W        W63314  33.932   4.320   1.176
96532W        W63315  30.964  36.066   0.346
96533W        W63316  34.117   3.773  11.393
96534W        W63317   9.687  13.913  11.602
96535W        W63318   2.228  43.319  12.555
96536W        W63319  44.262  24.149  13.866
96537W        W63320  37.058  22.806   0.836
96538W        W63321  32.580  43.880   1.730
96539W        W63322  37.875  12.370   1.402
96540W        W63323   5.221  37.438   2.700
96541W        W63324  11.794  30.904   3.287
96542W        W63325  11.915  38.655  11.990
96543W        W63326  22.525  10.424  11.588
96544W        W63327  26.760  10.106   1.391
96545W        W63328   6.907   4.190   0.908
96546W        W63329  17.291  36.378   4.666
96547W        W63330   6.222  41.117   3.665
96548W        W63331  42.176  18.564  12.879
96549W        W63332  19.820  12.347  13.848
96550W        W63333  23.194  35.964   1.642
96551W        W63334  13.313  22.001  13.496
96552W        W63335   3.755  37.069  11.167
96553W        W63336  43.240  12.927  12.000
96554W        W63337   8.784   2.406  14.034
96555W        W63338   1.352  21.045   3.236
96556W        W63339  36.215  19.587   2.353
96557W        W63340  41.907  31.580  10.630
96558W        W63341  31.789  16.337  13.996
96559W        W63342   9.404  32.667  12.391
96560W        W63343  11.656  31.591  13.560
96561W        W63344  25.152   5.650   2.518
96562W        W63345  10.403  15.834   3.645
96563W        W63346  33.865  27.535   4.600
96564W        W63347  36.089  12.266   3.797
96565W        W63348  17.062  10.141  14.053
96566W        W63349  27.990  36.567  14.337
96567W        W63350  31.993   5.263   3.425
96568W        W63351  15.078  40.522  14.676
96569W        W63352   3.992  16.644   3.128
96570W        W63353   9.388  31.857   0.031
96571W        W63354  12.920   4.336   4.169
96572W        W63355  41.406  32.401  12.813
96573W        W63356   6.258  34.812  10.621
96574W        W63357  17.437  10.355  11.912
96575W        W63358  42.733   5.210  11.856
96576W        W63359  34.542   4.955  10.267
96577W        W63360  31.631  17.171   1.734
96578W        W63361  10.171  34.844  10.568
96579W        W63362  33.490  22.460  14.809
96580W        W63363  34.948  37.595   1.229
96581W        W63364  19.770  23.983  12.754
96582W        W63365  31.017  39.546  14.580
96583W        W63366  23.720  18.478   3.278
96584W        W63367   5.412   2.370  10.778
96585W        W63368  30.977  39.601   0.505
96586W        W63369  15.811  22.059  11.087
96587W        W63370   0.924  20.695   5.544
96588W        W63371  21.097  35.614   0.347
96589W        W63372  30.243  32.458   4.668
96590W        W63373   8.569  27.441  11.118
96591W        W63374   1.987  44.933  11.675
96592W        W63375  34.843  18.217   3.736
96593W        W63376   6.437  18.605  13.827
96594W        W63377  27.022  28.759   2.435
96595W        W63378  38.965  28.123   1.970
96596W        W63379  18.559   9.147  12.961
96597W        W63380  30.623  43.006  13.033
96598W        W63381  10.643  35.577  14.870
96599W        W63382  22.700  19.279   1.222
96600W        W63383  30.347  30.481   1.359
96601W        W63384  42.569  14.250   2.811
96602W        W63385  28.549  36.303   1.243
96603W        W63386  19.115   3.214  10.415
96604W        W63387   2.019  42.455  13.002
96605W        W63388  27.949  34.669   0.906
96606W        W63389  33.708  35.311  14.831
96607W        W63390  16.268  21.537   4.626
96608W        W63391   8.137  33.301   4.095
96609W        W63392  11.280  36.169   3.564
96610W        W63393  20.497   9.819  11.620
96611W        W63394  16.661  41.017  10.465
96612W        W63395  35.114  22.722  11.633
96613W        W63396  26.631  42.169  13.401
96614W        W63397  41.080  44.806  10.594
96615W        W63398   2.747  13.494   1.490
96616W        W63399  27.019  13.058  11.255
96617W        W63400   5.164  40.557  10.709
96618W        W63401  20.106  33.794  12.875
96619W        W63402  44.626  36.469  14.802
96620W        W63403   8.376  35.419   3.635
96621W        W63404  33.538  40.140  11.612
96622W        W63405  30.103   6.098   1.728
96623W        W63406  44.320  25.647  12.506
96624W        W63407  35.579  28.660   4.538
96625W        W63408  37.290   6.826   4.860
96626W        W63409  30.558  13.241   4.096
96627W        W63410  17.245  27.990   1.889
96628W        W63411  20.525  27.384  11.132
96629W        W63412  40.281   9.361   1.816
96630W        W63413  35.614  31.514   4.087
96631W        W63414  12.094   8.162  13.028
96632W        W63415   7.313  14.571   0.525
96633W        W63416  10.810  25.223  11.955
96634W        W63417  25.649   9.603   1.398
96635W        W63418  17.968  25.034  14.770
96636W        W63419   8.191   4.041  14.621
96637W        W63420  21.827  34.630  11.632
96638W        W63421  33.612  38.464  14.984
96639W        W63422  14.558  30.373   0.726
96640W        W63423  16.620  20.946  11.092
96641W        W63424  34.929  38.420  11.994
96642W        W63425  23.276  28.473  12.918
96643W        W63426  42.486  26.323   1.385
96644W        W63427   5.937  20.962   0.436
96645W        W63428  34.403  42.708  10.764
96646W        W63429  42.453  15.187   4.240
96647W        W63430  32.623   9.398   0.337
96648W        W63431   2.950  29.644  14.483
96649W        W63432   4.363  36.145  11.139
96650W        W63433  40.021  41.249   0.968
96651W        W63434   3.518   6.859   0.404
96652W        W63435  15.596  11.708  13.074
96653W        W63436  40.891  26.683  14.454
96654W        W63437  16.581  27.882   1.779
96655W        W63438  35.079  32.132  14.656
96656W        W63439   3.205  43.762   0.891
96657W        W63440  22.762  12.707   2.254
96658W        W63441  15.820  22.558  11.234
96659W        W63442   4.323  20.848  13.968
96660W        W63443   4.133  38.095  11.160
96661W        W63444  16.868  39.050   4.515
96662W        W63445  29.914   1.780  14.942
96663W        W63446   1.650  15.047   4.061
96664W        W63447  16.081  31.058   4.648
96665W        W63448  35.793  30.480   4.839
96666W        W63449   7.254  20.955   0.299
96667W        W63450  15.501   9.090   0.851
96668W        W63451   1.272  31.601  10.977
96669W        W63452   3.806  37.953   0.460
96670W        W63453   0.950  25.693   3.363
96671W        W63454  37.458   9.403   0.110
96672W        W63455   1.892   8.746  13.023
96673W        W63456  18.706  13.912  13.413
96674W        W63457  22.517  15.054   0.922
96675W        W63458  16.751  24.851   2.019
96676W        W63459   5.319   3.053  14.287
96677W        W63460  42.928  37.460  13.060
96678W        W63461  44.007  30.479  10.895
96679W        W63462  12.245  37.052  13.787
96680W        W63463  12.785   6.010   0.892
96681W        W63464  18.013  27.915   2.584
96682W        W63465  28.222  22.278   1.312
96683W        W63466  12.060  24.665  11.084
96684W        W63467  41.428   3.765   4.144
96685W        W63468  24.775  17.149  10.772
96686W        W63469   1.368  27.610   3.610
96687W        W63470   0.449  15.048   5.366
96688W        W63471  20.598  22.976   4.777
96689W        W63472  40.994  27.114  12.305
96690W        W63473  32.168  32.263   3.299
96691W        W63474  17.995  44.912  11.375
96692W        W63475  11.220   5.212   2.634
96693W        W63476  31.518  33.703   1.296
96694W        W63477  35.925  27.965  10.789
96695W        W63478   9.843  35.570   0.296
96696W        W63479  41.594   3.680   0.310
96697W        W63480  38.014   6.668  14.468
96698W        W63481  19.283  37.928   2.578
96699W        W63482  10.836   2.367  10.251
96700W        W63483  19.762  43.265   0.667
96701W        W63484  11.715  40.586  14.436
96702W        W63485  20.257  43.872  14.441
96703W        W63486  22.620   8.798  14.890
96704W        W63487  29.705  10.216   2.320
96705W        W63488   4.283   9.979   2.823
96706W        W63489  43.946  26.993   3.633
96707W        W63490  29.080  32.853   1.772
96708W        W63491  26.967  31.466  13.160
96709W        W63492   8.335  36.262  13.878
96710W        W63493  27.121   3.360  11.973
96711W        W63494   4.174  42.856   4.314
96712W        W63495  31.136  36.637  12.005
96713W        W63496  17.072  34.815   2.390
96714W        W63497   5.486  35.016   3.289
96715W        W63498  40.419  22.652   3.544
96716W        W63499  13.370  35.025   3.847
96717W        W63500  35.058  16.790   0.187
96718W        W63501  27.869   0.651   3.324
96719W        W63502  21.077  33.988   4.587
96720W        W63503  42.969  16.224   1.752
96721W        W63504  23.255  17.339   3.695
96722W        W63505  39.598  35.086   4.974
96723W        W63506  37.055  41.760  14.857
96724W        W63507  23.059  22.046   1.868
96725W        W63508  36.122  44.021   2.649
96726W        W63509  33.572  22.873   9.890
96727W        W63510  13.110  38.888  12.217
96728W        W63511  37.716  27.875   1.670
96729W        W63512  34.516  36.891   1.879
96730W        W63513  31.964   3.356   3.855
96731W        W63514  33.813   6.976   1.396
96732W        W63515   3.996  27.340  12.325
96733W        W63516  37.669   2.523   4.465
96734W        W63517   3.204   5.425  14.015
96735W        W63518  26.891  40.279  14.781
96736W        W63519  21.855  18.195   0.040
96737W        W63520  36.943  27.579  14.899
96738W        W63521  22.490  28.609  10.270
96739W        W63522  42.428  38.576   1.629
96740W        W63523  35.868  27.508  14.728
96741W        W63524  38.925  20.757   4.057
96742W        W63525   8.267  37.427   4.547
96743W        W63526  32.320  29.176  13.990
96744W        W63527  20.017  40.883  13.392
96745W        W63528  16.701   6.716   4.120
96746W        W63529  26.641   0.874  11.422
96747W        W63530  16.072  39.034  13.439
96748W        W63531  16.549  36.195   5.108
96749W        W63532  11.195  35.662  13.489
96750W        W63533  23.741  28.468   3.818
96751W        W63534   1.762  11.383   0.423
96752W        W63535  26.097  42.980   9.688
96753W        W63536  34.164  22.603   1.849
96754W        W63537  41.015  30.912   1.249
96755W        W63538   5.107  29.421   0.981
96756W        W63539   6.456   5.695  12.979
96757W        W63540  31.691  36.001  14.936
96758W        W63541  15.672  15.213   2.461
96759W        W63542   2.166  31.641   3.418
96760W        W63543  38.655  43.518  13.806
96761W        W63544   6.590  41.937  14.551
96762W        W63545  43.076  16.779  11.101
96763W        W63546  44.081  39.261   0.375
96764W        W63547   2.962   5.870   4.279
96765W        W63548  27.223  30.912  11.978
96766W        W63549  34.320  21.395   3.266
96767W        W63550  40.638  37.299   1.903
96768W        W63551   6.271  42.530   1.178
96769W        W63552  13.160  26.615  11.875
96770W        W63553  36.091  24.165  13.033
96771W        W63554  11.263  40.096   3.437
96772W        W63555  25.202  12.055  14.824
96773W        W63556  15.161  21.748  14.014
96774W        W63557  39.332  19.175   4.694
96775W        W63558  37.726   8.139  14.637
96776W        W63559  11.916   9.926  12.592
96777W        W63560  44.030  36.366   3.159
96778W        W63561  12.111  34.531  14.924
96779W        W63562  39.726  38.075  12.210
96780W        W63563  21.613   1.139   3.926
96781W        W63564  18.356  11.292  13.785
96782W        W63565   7.151   6.867   0.821
96783W        W63566  24.250  13.363  13.408
96784W        W63567   2.673  18.686  11.558
96785W        W63568  31.685  39.831   4.552
96786W        W63569   7.678  24.534   0.714
96787W        W63570  39.808  32.697  13.381
96788W        W63571  40.572  27.684   2.893
96789W        W63572  13.604   8.686   9.920
96790W        W63573  33.062  34.047  14.444
96791W        W63574  16.012  40.706   0.423
96792W        W63575  22.129  25.129   0.314
96793W        W63576  18.477   5.461  14.820
96794W        W63577  17.634  36.684   2.531
96795W        W63578   5.854  16.687  12.639
96796W        W63579  31.425  20.818   0.860
96797W        W63580  26.436  18.976   4.177
96798W        W63581   8.455   0.963   0.293
96799W        W63582  37.652   1.554   2.248
96800W        W63583  21.474  28.261   5.015
96801W        W63584  25.448  13.694  12.457
96802W        W63585   8.044   8.437   3.947
96803W        W63586  34.318  12.135   1.021
96804W        W63587   4.043  36.862  10.672
96805W        W63588  30.656   1.131  12.465
96806W        W63589  41.421  12.887  12.941
96807W        W63590  17.619  22.098   2.392
96808W        W63591  34.941  22.122   4.183
96809W        W63592  34.026   6.790   0.672
96810W        W63593  25.088  21.203  14.735
96811W        W63594   8.764  26.257   0.782
96812W        W63595  32.430  18.635  12.531
96813W        W63596  12.351  13.718  12.775
96814W        W63597  33.119  31.825   3.302
96815W        W63598  14.390  11.792   1.052
96816W        W63599  37.467  30.920  14.952
96817W        W63600  41.807  15.852   5.130
96818W        W63601  43.053  11.287   0.786
96819W        W63602  27.550   6.231   0.036
96820W        W63603  15.609  42.211   0.910
96821W        W63604  25.984  11.270  13.405
96822W        W63605  24.746  35.358  13.856
96823W        W63606  30.189  13.829   0.222
96824W        W63607  22.560  15.611   5.080
96825W        W63608  21.811  33.472   2.768
96826W        W63609   5.663  25.947   4.080
96827W        W63610   5.851  24.233   3.626
96828W        W63611  12.991  44.527  12.017
96829W        W63612  17.282  15.975   5.375
96830W        W63613  35.254   7.044   1.434
96831W        W63614  36.566  31.090  14.416
96832W        W63615  21.713  33.407   0.291
96833W        W63616   2.900   2.030  12.970
96834W        W63617   6.262  29.048  14.008
96835W        W63618  27.079  39.970  12.097
96836W        W63619   2.205   8.719  14.740
96837W        W63620  31.663  17.867  12.350
96838W        W63621  30.059  24.509  12.593
96839W        W63622  12.180  43.847   4.929
96840W        W63623  27.261  42.283   5.308
96841W        W63624  24.155  36.808   1.405
96842W        W63625  29.447  28.788  13.494
96843W        W63626  13.123  38.119  14.326
96844W        W63627   3.258  16.430  12.989
96845W        W63628   3.788  17.066   2.829
96846W        W63629  40.952  17.537   3.211
96847W        W63630  36.330  41.451   5.013
96848W        W63631  25.132   8.872  10.471
96849W        W63632  41.401  40.386  14.407
96850W        W63633  41.951  44.598  10.792
96851W        W63634  11.659  40.219  10.051
96852W        W63635  11.593   4.441   4.755
96853W        W63636  40.379  19.157  11.069
96854W        W63637  32.408  32.864  12.227
96855W        W63638  37.599   5.213  12.939
96856W        W63639  37.407  12.515   3.611
96857W        W63640  34.911  18.024  12.153
96858W        W63641  35.490  39.937   1.090
96859W        W63642  22.265  42.919   2.867
96860W        W63643  10.905  28.011   0.144
96861W        W63644  32.611  26.983  14.362
96862W        W63645  27.683  21.132  11.034
96863W        W63646  39.661  43.357  11.250
96864W        W63647  42.976  44.513  13.151
96865W        W63648  11.121  18.588   0.001
96866W        W63649  21.550  30.298   1.347
96867W        W63650  34.613  32.611   2.241
96868W        W63651  40.755  38.844  13.557
96869W        W63652  13.393  26.515   2.518
96870W        W63653  18.055  27.875  13.860
96871W        W63654  12.545  19.547  13.389
96872W        W63655  10.099  17.773  14.846
96873W        W63656   3.415   6.699  11.169
96874W        W63657  12.735  42.280   4.609
96875W        W63658  13.207  16.117  13.821
96876W        W63659  41.802   4.341   0.902
96877W        W63660  39.048  33.803   4.132
96878W        W63661  25.271  24.508   1.207
96879W        W63662  14.395  25.169  11.080
96880W        W63663  41.051   6.842   2.208
96881W        W63664  13.886  30.714  11.049
96882W        W63665  13.199  10.382   4.882
96883W        W63666  18.203  33.876  13.391
96884W        W63667  20.064  19.547  14.781
96885W        W63668  17.211  14.296  13.058
96886W        W63669  41.750  12.663  11.193
96887W        W63670  42.988  11.700   3.704
96888W        W63671  19.567  15.318  13.628
96889W        W63672  26.561  28.656   0.012
96890W        W63673  17.320  29.624   1.374
96891W        W63674   0.570   6.698  10.573
96892W        W63675   6.874  14.631   0.792
96893W        W63676  43.852  42.272  13.484
96894W        W63677  39.522   6.276  12.963
96895W        W63678  15.063  32.865   2.826
96896W        W63679  17.313  18.095   1.401
96897W        W63680   6.682  40.983  14.193
96898W        W63681   7.817   4.396   0.349
96899W        W63682  24.751  17.447   1.834
96900W        W63683   8.736  34.082  12.421
96901W        W63684  32.064  29.425  11.537
96902W        W63685  33.331  19.500  12.467
96903W        W63686   0.073   7.388   2.298
96904W        W63687  12.924  38.121   4.983
96905W        W63688  21.622  13.579  13.792
96906W        W63689  41.271  11.763  11.982
96907W        W63690  38.526  11.393  11.154
96908W        W63691  20.314  15.678   3.153
96909W        W63692  44.450   9.332   1.349
96910W        W63693   4.181  42.287  14.997
96911W        W63694  21.612  41.483  13.569
96912W        W63695   7.193  20.896   3.190
96913W        W63696  38.302   6.602  12.338
96914W        W63697   6.300  41.446   4.058
96915W        W63698  24.576  27.952  12.543
96916W        W63699  28.961  17.243  14.368
96917W        W63700  23.304  23.361  13.526
96918W        W63701  35.471   9.651  10.986
96919W        W63702  11.908  25.691   1.422
96920W        W63703  37.647  38.067  12.619
96921W        W63704  19.130  27.701  12.502
96922W        W63705  12.560  16.113   3.236
96923W        W63706  31.679  31.634   3.262
96924W        W63707  23.173   9.358   2.101
96925W        W63708   2.381  42.936   3.938
96926W        W63709  44.076  16.354   0.421
96927W        W63710  42.908  15.871   2.135
96928W        W63711  43.222  42.577  14.285
96929W        W63712  24.032  24.140   4.205
96930W        W63713  34.951   4.050  12.942
96931W        W63714  39.967  31.163   3.777
96932W        W63715  21.677  42.315  12.534
96933W        W63716   9.659  32.178  14.435
96934W        W63717   8.802   6.069   4.418
96935W        W63718  18.723  38.964  14.355
96936W        W63719  21.223  42.069  11.559
96937W        W63720   1.514   0.001  11.486
96938W        W63721   9.787   6.256   2.026
96939W        W63722  10.739   1.463   0.312
96940W        W63723  40.383  31.945   4.519
96941W        W63724  34.933  34.397   0.743
96942W        W63725   4.920  16.668   5.188
96943W        W63726  17.328  44.536  11.011
96944W        W63727  40.057  36.910   1.719
96945W        W63728  15.996   4.215   3.226
96946W        W63729  43.073  22.711  12.586
96947W        W63730   0.581  31.083  14.216
96948W        W63731   0.837   0.737  14.301
96949W        W63732  23.336   1.699  13.265
96950W        W63733  27.169  29.533   4.714
96951W        W63734  30.984  39.021   0.470
96952W        W63735  20.851   1.147  14.002
96953W        W63736  12.302  14.160  14.894
96954W        W63737  22.605  27.253   2.217
96955W        W63738  42.310  40.024  13.808
96956W        W63739  10.271  35.092  10.997
96957W        W63740  35.286  33.183   4.592
96958W        W63741  11.904  37.120  11.953
96959W        W63742  40.711   7.359   4.378
96960W        W63743  17.199   9.075   1.823
96961W        W63744  41.749  30.776  13.367
96962W        W63745  16.234  26.222   3.241
96963W        W63746   3.993  25.096  14.046
96964W        W63747  37.976   1.382   2.748
96965W        W63748  25.113  12.220   1.945
96966W        W63749  38.161  40.986   1.945
96967W        W63750  14.570  34.446  10.248
96968W        W63751  22.673  43.882   3.406
96969W        W63752  35.593  42.830   4.094
96970W        W63753  17.733  12.511   1.844
96971W        W63754  27.678   5.359  12.303
96972W        W63755   4.734  36.112   1.429
96973W        W63756   9.157  43.967  12.121
96974W        W63757   2.028  43.811  12.494
96975W        W63758   2.874  38.058  14.630
96976W        W63759  32.158  22.589  13.908
96977W        W63760  11.279  32.612  11.950
96978W        W63761   9.169   6.841   2.127
96979W        W63762   7.243   0.522  13.394
96980W        W63763  17.232  18.495  14.716
96981W        W63764  13.097  12.067   0.037
96982W        W63765  20.128  23.156  13.103
96983W        W63766  11.214   2.033  14.399
96984W        W63767   7.756   4.293  14.815
96985W        W63768  39.724  24.726   0.468
96986W        W63769  24.737  42.549  10.704
96987W        W63770  17.253  20.780  12.955
96988W        W63771   2.303  35.310  11.093
96989W        W63772  41.055   2.853  14.806
96990W        W63773  26.271  43.489  13.743
96991W        W63774  35.508  18.333  11.878
96992W        W63775  42.682  27.457  14.138
96993W        W63776  23.566  39.922   5.071
96994W        W63777  10.123   5.841   0.939
96995W        W63778  30.069   8.667   1.800
96996W        W63779  44.244   6.372   2.872
96997W        W63780  42.449  13.667   1.023
96998W        W63781  22.392  23.049  13.510
96999W        W63782  38.427  31.431   4.537
97000W        W63783  26.619   5.378   4.636
97001W        W63784  26.904   2.253  12.576
97002W        W63785   9.639   0.727   3.305
97003W        W63786  36.906  29.985   0.305
97004W        W63787  13.282  11.920  11.998
97005W        W63788  13.648   7.880  12.477
97006W        W63789  24.148   3.802  13.281
97007W        W63790   3.651   5.462  12.349
97008W        W63791   6.229  17.589  11.566
97009W        W63792  39.942  41.960   2.262
97010W        W63793   1.029  27.981   4.171
97011W        W63794   8.373  31.974  10.554
97012W        W63795  27.935   9.718  11.645
97013W        W63796  31.167   8.110   4.171
97014W        W63797   8.042   2.949   4.249
97015W        W63798   8.253  18.048   2.226
97016W        W63799  12.603  43.294  12.611
97017W        W63800   7.806   1.605  11.714
97018W        W63801  25.105  35.084   1.285
97019W        W63802  22.998  26.227  12.632
97020W        W63803  11.712  36.812   2.262
97021W        W63804  29.644  33.491  13.513
97022W        W63805   7.701  19.818   2.650
97023W        W63806  35.606  19.798   4.274
97024W        W63807  12.175   6.785   1.833
97025W        W63808  22.791  19.542  13.891
97026W        W63809  23.431  38.284  11.770
97027W        W63810  11.895  22.802   1.506
97028W        W63811   7.880   3.374   3.260
97029W        W63812  43.230  42.550   0.176
97030W        W63813  18.208  22.487  12.329
97031W        W63814  38.677   5.130  13.299
97032W        W63815  33.700  41.376  12.425
97033W        W63816   4.624   6.616   2.445
97034W        W63817   3.653  20.984  13.409
97035W        W63818  29.414  21.071   3.876
97036W        W63819  25.202  15.576  11.078
97037W        W63820   9.722  19.175   0.723
97038W        W63821  14.506  11.298  10.769
97039W        W63822   0.828  38.367   2.495
97040W        W63823   0.836  16.163  14.894
97041W        W63824  22.528  13.854  12.633
97042W        W63825   8.504  25.002   1.435
97043W        W63826  22.158  24.408   0.862
97044W        W63827  26.260  35.067  12.831
97045W        W63828  20.747   8.259   4.354
97046W        W63829  11.059  15.700   0.842
97047W        W63830  36.775  37.442   0.045
97048W        W63831  27.460  15.268   0.212
97049W        W63832  18.558   2.734  11.733
97050W        W63833  40.976  41.809   4.340
97051W        W63834  11.750  40.419  13.105
97052W        W63835   1.807   4.427  11.861
97053W        W63836  15.578   0.520  11.419
97054W        W63837  19.429   4.673   4.143
97055W        W63838  38.386  29.989   2.375
97056W        W63839  29.874  24.341  10.958
97057W        W63840  19.775   5.255  13.019
97058W        W63841  36.562  28.922   2.558
97059W        W63842  25.628  42.516  11.893
97060W        W63843   5.903   9.374   2.193
97061W        W63844  36.939   4.222   1.932
97062W        W63845  33.745  23.230  12.073
97063W        W63846  44.489  21.616  12.548
97064W        W63847  18.549  36.562   3.156
97065W        W63848  23.009   6.293   4.115
97066W        W63849  11.082  34.044  11.632
97067W        W63850  28.493  27.791   1.463
97068W        W63851  29.565  36.941  11.790
97069W        W63852  32.117  35.512   3.262
97070W        W63853  18.065  25.386  14.430
97071W        W63854  27.516  13.379   1.000
97072W        W63855  40.756   3.289  14.953
97073W        W63856  10.584  43.526   2.767
97074W        W63857  42.618  17.260  10.312
97075W        W63858   4.664   4.352  10.816
97076W        W63859  18.125  42.894   4.173
97077W        W63860  17.700  29.871  13.866
97078W        W63861  18.730  20.036   2.389
97079W        W63862  26.133   3.825  14.749
97080W        W63863  19.910  43.213   3.221
97081W        W63864  25.696  14.315  12.995
97082W        W63865  27.607  34.765   3.697
97083W        W63866   0.162  38.983  14.838
97084W        W63867  37.532  34.053  11.609
97085W        W63868   7.584  38.434   4.744
97086W        W63869  18.208  24.720  12.116
97087W        W63870  39.805  41.486  12.185
97088W        W63871   3.431  37.026  14.297
97089W        W63872  31.724   5.880   1.377
97090W        W63873  11.233  42.429   4.832
97091W        W63874   0.853   7.128   2.700
97092W        W63875  22.994  27.093   0.364
97093W        W63876  16.405  24.262   3.314
97094W        W63877  31.555  13.762   0.715
97095W        W63878  28.189  36.902   2.100
97096W        W63879  31.990   9.682  13.499
97097W        W63880  23.465   5.245   5.430
97098W        W63881  22.499  30.551   3.229
97099W        W63882   9.167  28.974   1.281
97100W        W63883  26.664  15.806  11.980
97101W        W63884  24.165  39.324   3.726
97102W        W63885  14.301  35.625   0.437
97103W        W63886  39.213  14.542   0.703
97104W        W63887  26.218  15.654   0.157
97105W        W63888  16.235   4.730   2.605
97106W        W63889   0.482  34.115   3.584
97107W        W63890   1.704  13.721   0.217
97108W        W63891  16.269  43.874  14.793
97109W        W63892   0.780  17.322  14.054
97110W        W63893  28.533  11.634   0.492
97111W        W63894  37.568  13.652  12.005
97112W        W63895  38.997  21.139   0.536
97113W        W63896  15.355  21.920   2.655
97114W        W63897  14.142  42.212   2.678
97115W        W63898  27.047  27.104  13.287
97116W        W63899  37.772   8.854   2.306
97117W        W63900  16.835  31.912   2.785
97118W        W63901  36.124  23.005   1.895
97119W        W63902  21.122   4.637  13.912
97120W        W63903   1.289  12.656   2.334
97121W        W63904  30.350  23.664  13.422
97122W        W63905  15.784  44.851  13.834
97123W        W63906  31.535  21.757  14.221
97124W        W63907  38.407  34.151   2.899
97125W        W63908  32.297  33.632  12.596
97126W        W63909   8.315  25.165  10.191
97127W        W63910  39.590  40.310   2.724
97128W        W63911   8.772  27.223   0.950
97129W        W63912  16.692  29.527   3.318
97130W        W63913  16.560  21.740   0.418
97131W        W63914  41.059  34.091   3.714
97132W        W63915   4.186  31.126   1.755
97133W        W63916  23.037  28.679  11.555
97134W        W63917  30.932  33.856  11.380
97135W        W63918  22.301  26.554  13.464
97136W        W63919  39.458  10.715   2.358
97137W        W63920  16.345  15.416   2.872
97138W        W63921  16.531   7.686   0.547
97139W        W63922   8.133  43.791   0.441
97140W        W63923  19.244  36.917   4.604
97141W        W63924   6.402   8.261   4.715
97142W        W63925   8.757   5.047   0.505
97143W        W63926  32.028  27.554   9.991
97144W        W63927  24.939  23.764   2.440
97145W        W63928  17.232  13.199   0.235
97146W        W63929  30.163   1.311   1.414
97147W        W63930  37.073  27.040   4.916
97148W        W63931   7.361  20.136  11.045
97149W        W63932  25.046  12.882   0.184
97150W        W63933   7.709   1.367  14.258
97151W        W63934   9.697  28.082   4.130
97152W        W63935  43.195   6.254  10.193
97153W        W63936  35.633  34.721  10.833
97154W        W63937  37.987   6.561  13.036
97155W        W63938  29.621  24.205   3.070
97156W        W63939  23.518   0.408   2.861
97157W        W63940  36.095  34.398  12.098
97158W        W63941  17.722  37.575   1.963
97159W        W63942  37.470  10.106  14.305
97160W        W63943  37.354  14.354  10.705
97161W        W63944  26.130  15.694  13.454
97162W        W63945  27.800  14.684  14.378
97163W        W63946  17.966  35.116  13.533
97164W        W63947  41.820  42.475   2.495
97165W        W63948  35.857  23.520   4.681
97166W        W63949  19.986  29.099  13.773
97167W        W63950  17.535  27.272   3.259
97168W        W63951  32.929  27.101  12.062
97169W        W63952  38.890  43.825   2.976
97170W        W63953  29.474   1.738   2.844
97171W        W63954  26.279  20.021  14.932
97172W        W63955   8.571   1.500  13.805
97173W        W63956  24.089  18.951   0.461
97174W        W63957  38.584  25.611  13.814
97175W        W63958  37.015   0.039  11.165
97176W        W63959   7.211  23.902  10.925
97177W        W63960  17.346  35.654   4.161
97178W        W63961  23.527  43.244   1.813
97179W        W63962  43.078  11.800   0.693
97180W        W63963  34.835  10.838   4.724
97181W        W63964  12.908  14.187  12.928
97182W        W63965   1.690  11.335  13.066
97183W        W63966  11.298  27.720  14.928
97184W        W63967   8.868  12.730   0.815
97185W        W63968  41.012   4.341  10.379
97186W        W63969  10.583   1.717  11.692
97187W        W63970  10.311  18.581   1.913
97188W        W63971  37.682  10.167  12.326
97189W        W63972  37.619  11.542   5.075
97190W        W63973   8.861   0.904  14.356
97191W        W63974  10.962   6.236  10.136
97192W        W63975  26.609  21.558   1.651
97193W        W63976  37.437  42.418   2.959
97194W        W63977  15.851  36.514  14.925
97195W        W63978  41.117   4.146   4.061
97196W        W63979  41.046  36.009  14.376
97197W        W63980   1.071  39.996   0.367
97198W        W63981  39.393  25.790  13.382
97199W        W63982  13.304  16.134  11.732
97200W        W63983   6.212   5.376  14.483
97201W        W63984  21.855  42.944  14.799
97202W        W63985  15.135   9.550  13.980
97203W        W63986  24.911  30.969   4.196
97204W        W63987  31.630   7.353   4.097
97205W        W63988  11.340   0.470  12.630
97206W        W63989  43.324  40.539   0.370
97207W        W63990  28.668   7.085   3.804
97208W        W63991  31.551  39.968   1.951
97209W        W63992  26.189   8.734  14.473
97210W        W63993  20.068  13.132   4.792
97211W        W63994   6.833  17.190   0.343
97212W        W63995  36.374  30.933   2.177
97213W        W63996  40.335   5.800   1.758
97214W        W63997  10.147   2.311   3.651
97215W        W63998  21.449   3.629   2.265
97216W        W63999  18.170   4.464   2.394
97217W        W64000   3.362  19.259   2.349
97218W        W64001  35.077  23.481   4.573
97219W        W64002  41.550  37.990   3.365
97220W        W64003  11.738   4.717   1.453
97221W        W64004  28.219  10.217   2.667
97222W        W64005  15.633  19.827  10.090
97223W        W64006  11.783  20.100   2.842
97224W        W64007  36.034  10.815  11.151
97225W        W64008  35.056  44.696  14.445
97226W        W64009  10.774   2.270   4.571
97227W        W64010  25.621  39.761  13.995
97228W        W64011  21.970   6.149  13.269
97229W        W64012  36.117  11.796  14.858
97230W        W64013  40.103  28.528   2.756
97231W        W64014  44.942  18.109  10.696
97232W        W64015   5.589  26.227   1.818
97233W        W64016  26.700  22.302   1.361
97234W        W64017   6.853   1.495   1.409
97235W        W64018  11.110  16.381  11.320
97236W        W64019  14.507  12.092  11.095
97237W        W64020  20.108  11.277   2.439
97238W        W64021  38.466  30.003   0.500
97239W        W64022  12.880  40.316  13.984
97240W        W64023   3.390   3.659   0.372
97241W        W64024  22.284   5.734  13.225
97242W        W64025  14.712  14.662  14.376
97243W        W64026  44.071  15.673  10.396
97244W        W64027  27.389  28.563   3.224
97245W        W64028  27.624  41.651   3.069
97246W        W64029   5.388   7.621   4.144
97247W        W64030   7.763  41.241  13.984
97248W        W64031  23.804  14.658   3.603
97249W        W64032   2.157  14.223  14.971
97250W        W64033  37.354  37.532   4.030
97251W        W64034  11.089  39.190   4.477
97252W        W64035  31.833  44.385   0.127
97253W        W64036  19.765   8.800   3.115
97254W        W64037  18.532  20.564   4.836
97255W        W64038  17.027  33.888   3.297
97256W        W64039  32.029  15.615  13.839
97257W        W64040   7.650  10.827  11.508
97258W        W64041  21.090   5.394  13.326
97259W        W64042  40.228  41.976  10.652
97260W        W64043  39.308  34.506   3.227
97261W        W64044  20.638   5.133  13.160
97262W        W64045  20.994   7.908  12.491
97263W        W64046  18.804  38.964   0.794
97264W        W64047  27.546  14.932   0.984
97265W        W64048  43.275  37.410  10.306
97266W        W64049  34.136   1.314  14.811
97267W        W64050   9.265   4.216  13.908
97268W        W64051  23.809  10.194   4.235
97269W        W64052  25.221  38.416   0.239
97270W        W64053  17.639   8.852  11.881
97271W        W64054   7.838  44.473  14.953
97272W        W64055   3.302  28.520  13.868
97273W        W64056  27.203  24.554  10.644
97274W        W64057   9.605   7.829   0.792
97275W        W64058  20.014  18.306   0.773
97276W        W64059  20.092   5.377   2.110
97277W        W64060   6.395  17.259   2.729
97278W        W64061  34.873  44.355   1.367
97279W        W64062   4.448  32.540   3.586
97280W        W64063  33.011  39.294   2.155
97281W        W64064  28.361  32.894   1.230
97282W        W64065  27.734  16.816  11.487
97283W        W64066  37.809  11.947  14.275
97284W        W64067  27.981   2.331   0.344
97285W        W64068  33.071  10.791  14.518
97286W        W64069  43.242   5.349   5.021
97287W        W64070  17.245  18.753   0.159
97288W        W64071  32.319   8.670   4.698
97289W        W64072  18.045   7.277  13.092
97290W        W64073  34.927  33.653  10.273
97291W        W64074  24.043  41.810  14.926
97292W        W64075  42.959  28.575   1.289
97293W        W64076  15.508  30.622   1.894
97294W        W64077  18.207  28.562   0.691
97295W        W64078  39.612  35.984   1.683
97296W        W64079  25.954  41.522  13.606
97297W        W64080   8.680  10.174   1.589
97298W        W64081  14.085  28.528  12.416
97299W        W64082   0.478  29.878  12.133
97300W        W64083   7.913  29.604  14.004
97301W        W64084   3.964  28.626  12.115
97302W        W64085  43.434  13.638  13.752
97303W        W64086   7.185   5.292  14.507
97304W        W64087  30.622  12.154  12.037
97305W        W64088  33.164  18.329   4.677
97306W        W64089   0.915  15.325   2.608
97307W        W64090  39.129  36.367  11.988
97308W        W64091  24.069  38.379   2.815
97309W        W64092   3.425  27.987   2.238
97310W        W64093  28.456  27.581   1.933
97311W        W64094   6.303   3.918   3.149
97312W        W64095  18.844  35.542   0.659
97313W        W64096  27.427  12.640  12.552
97314W        W64097  11.063  25.766  11.089
97315W        W64098  43.877  43.053   1.283
97316W        W64099  13.246   8.690   2.117
97317W        W64100  29.140  12.279   1.853
97318W        W64101  37.154  16.805   1.819
97319W        W64102  42.481  23.656  13.034
97320W        W64103  32.932  11.320   3.127
97321W        W64104   4.828  32.430  11.291
97322W        W64105  13.462  13.921  14.745
97323W        W64106   6.318  21.367  10.716
97324W        W64107   3.448   6.391   1.653
97325W        W64108  33.571  42.414   1.965
97326W        W64109  40.973  27.245   3.241
97327W        W64110  32.429  10.323   0.711
97328W        W64111  28.986  31.965  13.696
97329W        W64112  44.294  42.059   2.341
97330W        W64113  27.110  24.909   5.055
97331W        W64114  29.091  27.667   0.278
97332W        W64115  20.300  27.202   0.766
97333W        W64116  20.639  29.546   2.302
97334W        W64117  44.991   7.142  12.515
97335W        W64118  23.526  22.044   3.262
97336W        W64119   9.599  16.225  11.367
97337W        W64120   4.448  14.723   0.905
97338W        W64121   9.797  20.048  14.855
97339W        W64122  30.253  10.846  11.962
97340W        W64123  34.580   8.261   0.202
97341W        W64124   3.341  29.025  10.886
97342W        W64125  17.840  13.332   9.779
97343W        W64126  26.393  18.586   1.933
97344W        W64127  15.610  24.844  14.413
97345W        W64128   7.224  16.164   3.578
97346W        W64129   6.934  33.915  12.507
97347W        W64130  41.055  40.231   4.784
97348W        W64131  13.533   7.647  10.567
97349W        W64132  21.484  37.513   1.209
97350W        W64133  14.707  41.285   4.625
97351W        W64134  34.941   0.131   1.913
97352W        W64135   4.987   2.417   0.012
97353W        W64136   4.517  42.807   2.861
97354W        W64137  22.969  35.749  13.633
97355W        W64138  36.351   6.196   4.992
97356W        W64139  21.578  23.932  12.618
97357W        W64140  14.587  18.821   1.246
97358W        W64141  35.810  37.147   3.258
97359W        W64142  38.773  43.376  14.963
97360W        W64143  35.340  38.133  13.065
97361W        W64144  42.244  34.381   2.912
97362W        W64145  25.548  17.314   1.407
97363W        W64146  10.904  27.653  11.878
97364W        W64147  32.108  28.846   1.213
97365W        W64148   6.508  35.635  12.182
97366W        W64149  22.020  40.069  12.427
97367W        W64150  30.458  38.257  14.943
97368W        W64151  42.186  15.682   5.456
97369W        W64152  42.275  25.553   4.735
97370W        W64153   6.848  41.282   4.213
97371W        W64154   0.443  14.613  14.513
97372W        W64155  40.312  21.454  13.824
97373W        W64156  18.609  35.972   0.762
97374W        W64157  34.221  31.095  14.092
97375W        W64158  17.140   5.199  14.009
97376W        W64159   8.086   2.136  12.503
97377W        W64160   3.637  15.828  10.824
97378W        W64161  28.955  26.870   1.669
97379W        W64162  29.965   5.628   0.830
97380W        W64163   2.801  41.939   1.777
97381W        W64164  37.378  28.091  14.530
97382W        W64165   1.009   9.368   4.161
97383W        W64166  41.108  16.805  11.522
97384W        W64167  13.139  40.033  10.562
97385W        W64168  24.102  43.238  11.994
97386W        W64169  11.609  30.262  14.041
97387W        W64170  21.371  37.797   2.288
97388W        W64171   4.368  22.954  11.929
97389W        W64172   9.907  28.429  11.037
97390W        W64173  27.098  31.834   0.433
97391W        W64174   4.487  13.748  14.873
97392W        W64175  37.084  30.497   0.264
97393W        W64176  25.014  42.366  13.918
97394W        W64177  16.291  26.043  14.265
97395W        W64178  22.786   4.181  10.708
97396W        W64179  43.701   7.778  12.983
97397W        W64180  37.371  38.127  14.829
97398W        W64181  44.198  25.789   1.675
97399W        W64182  42.718   0.199  14.113
97400W        W64183  37.571  19.575   4.192
97401W        W64184  32.015   3.274  12.547
97402W        W64185  14.601   2.471   0.842
97403W        W64186  26.324   7.725   2.442
97404W        W64187   7.774  39.603   3.243
97405W        W64188  42.427  21.078  10.618
97406W        W64189  20.582  18.841   4.065
97407W        W64190  33.917  26.638   0.427
97408W        W64191  33.652   2.664  14.427
97409W        W64192  28.449   4.988  12.442
97410W        W64193  20.287   2.042   2.177
97411W        W64194  40.817  11.928   4.481
97412W        W64195  11.120  43.527   2.760
97413W        W64196  40.518  35.757   3.352
97414W        W64197   4.542   0.267  13.471
97415W        W64198  14.072   7.212  10.028
97416W        W64199  23.901  24.224  11.726
97417W        W64200  13.993   5.887  10.053
97418W        W64201   1.311  35.161   3.307
97419W        W64202  28.930  27.687   3.741
97420W        W64203  12.483  20.985  10.635
97421W        W64204  32.873   0.505   0.365
97422W        W64205  12.908  19.723   3.589
97423W        W64206  40.962  30.542  12.892
97424W        W64207  21.004   0.400  11.498
97425W        W64208  12.754  24.547  13.334
97426W        W64209  25.640   6.912   4.547
97427W        W64210  39.594  36.194   3.404
97428W        W64211  16.547  43.246   3.325
97429W        W64212  17.281  36.347  13.774
97430W        W64213  39.826  29.737   3.786
97431W        W64214  32.563  37.402   0.389
97432W        W64215  41.360  31.983   3.250
97433W        W64216  35.403   5.446   0.183
97434W        W64217  14.122  20.952  12.360
97435W        W64218  13.291   3.267  10.771
97436W        W64219  13.193  24.772  13.464
97437W        W64220  42.861  32.543  12.825
97438W        W64221   3.690  23.920  14.588
97439W        W64222  35.988   4.816  14.349
97440W        W64223  27.746  28.723   4.412
97441W        W64224  12.280  14.853  11.508
97442W        W64225   3.987   9.035   4.378
97443W        W64226  29.935  35.598   1.209
97444W        W64227   6.764  39.932   3.169
97445W        W64228   4.344   5.303   2.405
97446W        W64229   2.007   3.764   0.873
97447W        W64230   6.895  22.114  14.893
97448W        W64231  10.873  19.081   1.385
97449W        W64232  14.160  38.773  14.552
97450W        W64233   9.082  44.387  10.987
97451W        W64234  17.118  33.527  13.238
97452W        W64235  15.075   9.039   2.297
97453W        W64236   8.334  17.523  14.437
97454W        W64237  34.587   1.270  12.062
97455W        W64238  22.776  18.255   1.267
97456W        W64239   8.103  16.640   2.204
97457W        W64240  21.792   2.793  14.724
97458W        W64241   2.237   2.950  14.936
97459W        W64242  12.170   4.873  14.921
97460W        W64243  35.656  21.651  11.272
97461W        W64244  21.190  26.166   0.172
97462W        W64245   4.020   2.061  12.476
97463W        W64246  31.397  13.878   2.653
97464W        W64247  11.162   7.629  13.019
97465W        W64248  21.280  42.552   0.793
97466W        W64249  29.575  43.581  11.473
97467W        W64250  28.637  30.932  11.658
97468W        W64251  32.504  40.558   2.407
97469W        W64252  15.165   4.340  11.920
97470W        W64253  32.302   2.808  10.763
97471W        W64254  30.589  40.794   1.248
97472W        W64255   4.949   9.937  14.997
97473W        W64256   6.674  27.129  13.916
97474W        W64257  34.393  40.422   1.383
97475W        W64258  19.211   7.817  11.964
97476W        W64259  19.585   8.931  12.104
97477W        W64260  34.037   4.862   4.668
97478W        W64261  18.255  25.075   3.153
97479W        W64262  33.319  23.675  14.308
97480W        W64263  12.200   7.244   3.304
97481W        W64264  21.642   6.439   0.352
97482W        W64265  29.579  10.876   0.814
97483W        W64266  37.376  18.828   3.710
97484W        W64267  25.277   5.670   3.014
97485W        W64268  36.081   4.348   2.402
97486W        W64269  17.858  31.129  13.365
97487W        W64270  36.100  39.633  14.285
97488W        W64271  26.767  35.948  13.068
97489W        W64272  16.564  41.084   0.861
97490W        W64273  26.909  30.545  13.131
97491W        W64274  17.817  33.067  13.378
97492W        W64275  20.347  34.155   1.495
97493W        W64276  32.806  39.941  11.982
97494W        W64277  26.625   2.186  10.132
97495W        W64278  42.011  22.756   1.481
97496W        W64279  24.195  42.258   0.769
97497W        W64280  28.474  20.732  12.579
97498W        W64281  29.112  44.909  13.977
97499W        W64282   1.371  29.364   0.878
97500W        W64283  40.889  29.899   0.806
97501W        W64284   9.860  17.699   2.576
97502W        W64285  26.193   8.731  11.939
97503W        W64286  23.169  41.114  14.413
97504W        W64287  18.811  25.528  11.903
97505W        W64288  24.106  42.892   2.395
97506W        W64289  32.451  11.308   3.923
97507W        W64290  14.634  13.280  13.291
97508W        W64291  21.112  10.556   2.868
97509W        W64292  43.581  11.868   0.786
97510W        W64293  32.016  16.067  13.604
97511W        W64294  35.815  25.653   1.859
97512W        W64295  37.803  36.501   0.327
97513W        W64296  22.585   6.049  12.668
97514W        W64297  36.531  20.351  10.044
97515W        W64298  31.858  38.289   4.864
97516W        W64299  34.493  36.063   0.467
97517W        W64300   9.946  15.202   4.268
97518W        W64301  13.893  44.886  13.946
97519W        W64302  40.336  10.702  13.936
97520W        W64303   8.211  25.280   4.608
97521W        W64304  16.680  43.363   2.026
97522W        W64305  26.505  27.098  11.589
97523W        W64306  12.515  31.983  14.525
97524W        W64307   7.249  14.636   0.021
97525W        W64308  44.891  34.608   0.923
97526W        W64309  26.593   8.387   3.744
97527W        W64310  30.958   5.202   1.479
97528W        W64311  13.695  35.188  12.844
97529W        W64312  26.017  26.206   0.866
97530W        W64313  24.254  31.568  14.481
97531W        W64314   9.795  21.708   4.385
97532W        W64315  32.158  24.716   1.429
97533W        W64316  26.146  40.365   4.050
97534W        W64317  34.430   4.004   1.334
97535W        W64318   6.962  26.332  11.088
97536W        W64319  26.444  33.834   4.490
97537W        W64320   2.937  41.430  14.073
97538W        W64321  14.313   0.732   0.832
97539W        W64322  32.228  27.712   3.530
97540W        W64323  11.107  13.652   2.770
97541W        W64324  11.861  28.573  13.391
97542W        W64325  29.848   2.338  11.715
97543W        W64326  44.524   0.340   3.401
97544W        W64327  20.259  32.676  11.226
97545W        W64328  40.126  23.340   2.817
97546W        W64329   9.098   0.492   0.806
97547W        W64330  30.890  12.358  12.845
97548W        W64331   1.606  37.493   5.044
97549W        W64332  36.118  20.147   4.856
97550W        W64333   7.335  19.709   0.942
97551W        W64334   0.453  44.656  12.125
97552W        W64335  28.695  17.103  13.915
97553W        W64336  28.086  43.483   3.617
97554W        W64337  24.210  28.880  11.657
97555W        W64338  39.109  11.250   1.732
97556W        W64339  11.118   2.878   2.246
97557W        W64340  37.255  43.759   3.755
97558W        W64341  10.250   8.232   3.174
97559W        W64342   9.929  19.635  10.702
97560W        W64343  29.636  17.605  14.538
97561W        W64344  12.022   6.686   0.952
97562W        W64345  40.399   0.298   3.575
97563W        W64346  26.671  10.781   0.815
97564W        W64347   0.996   7.760  14.006
97565W        W64348  16.848  27.949  11.713
97566W        W64349  38.230  43.435  13.019
97567W        W64350  16.551  32.964   1.428
97568W        W64351  28.118  31.955  12.631
97569W        W64352   5.001  37.823  12.485
97570W        W64353  36.237  18.327   1.850
97571W        W64354  42.456  29.100  13.608
97572W        W64355  40.022  34.108   4.345
97573W        W64356  32.796  19.098  14.872
97574W        W64357  14.222  43.916  11.980
97575W        W64358  37.938  28.629   2.373
97576W        W64359  21.984  27.223   4.517
97577W        W64360   1.183  19.220  14.416
97578W        W64361  34.475  27.957  12.972
97579W        W64362  16.056  35.971   3.936
97580W        W64363   1.896  11.645   1.669
97581W        W64364  14.574  36.374   1.903
97582W        W64365  22.085   5.937  14.122
97583W        W64366  22.520  22.140  13.401
97584W        W64367  30.649  32.057   4.296
97585W        W64368  11.316   1.663  12.056
97586W        W64369  20.702   5.642  13.062
97587W        W64370   1.535  19.213   1.731
97588W        W64371  37.177  38.454   4.112
97589W        W64372  43.912  18.398   1.926
97590W        W64373  44.886  14.188   4.557
97591W        W64374  38.240  36.812   4.093
97592W        W64375  23.081  20.773   2.113
97593W        W64376   3.876  14.290  14.010
97594W        W64377   3.766  33.378   3.336
97595W        W64378  41.809  14.585   2.317
97596W        W64379  34.937  15.722   4.778
97597W        W64380  35.311  35.948   1.645
97598W        W64381  44.992   3.062   9.968
97599W        W64382  41.885  33.491   2.724
97600W        W64383   9.943  24.768   1.969
97601W        W64384  20.015  16.227   1.697
97602W        W64385   5.377  13.298   1.889
97603W        W64386  23.670  37.912   0.814
97604W        W64387   6.039  27.195   3.290
97605W        W64388  31.895  16.968   4.114
97606W        W64389  26.268  23.336   2.720
97607W        W64390  40.715  11.629  14.054
97608W        W64391   2.459  33.274   0.739
97609W        W64392  34.348   5.006   0.818
97610W        W64393  41.823  41.511   2.250
97611W        W64394  31.990  42.565  14.588
97612W        W64395  26.087  20.521  14.756
97613W        W64396  14.737  26.715   2.393
97614W        W64397  20.036   3.432   4.621
97615W        W64398  12.817  10.731  11.018
97616W        W64399  14.523  20.130   5.113
97617W        W64400  42.804  44.311  13.628
97618W        W64401  27.298  12.481  10.731
97619W        W64402  36.024  43.492   3.355
97620W        W64403  25.929   1.461  14.455
97621W        W64404  23.474  28.695   0.971
97622W        W64405  26.369  25.995   3.233
97623W        W64406  42.834  16.771   4.625
97624W        W64407  44.263  23.668  10.819
97625W        W64408  40.944   4.917   1.719
97626W        W64409  30.866  30.167   4.952
97627W        W64410  24.651  27.740   5.407
97628W        W64411   2.401  20.045  14.912
97629W        W64412   7.796  37.789  13.551
97630W        W64413   5.376  42.613  11.509
97631W        W64414  23.054  20.760   1.618
97632W        W64415  39.235  29.962   0.023
97633W        W64416  36.841  40.900  12.840
97634W        W64417  29.181  32.611   3.289
97635W        W64418   5.481  26.997   0.237
97636W        W64419   4.623  20.321  11.979
97637W        W64420   4.965  15.159   3.235
97638W        W64421  15.110   6.360   2.142
97639W        W64422  32.562  30.066   4.412
97640W        W64423  27.593   4.166  13.698
97641W        W64424  15.568  37.398   2.191
97642W        W64425  29.140  20.555   4.512
97643W        W64426  20.553  27.656  11.595
97644W        W64427  13.646  16.253   2.974
97645W        W64428  36.965  19.221  13.654
97646W        W64429  37.213  11.700   3.124
97647W        W64430  40.397  35.843   0.344
97648W        W64431   7.291  34.613  11.075
97649W        W64432  13.314  15.452   5.073
97650W        W64433  33.208  22.000   9.901
97651W        W64434   3.197  36.008   3.099
97652W        W64435   9.481  20.209  10.518
97653W        W64436  24.528  31.509   2.071
97654W        W64437  14.281  11.398   2.774
97655W        W64438  33.570  36.844   3.426
97656W        W64439  37.754  21.733   1.966
97657W        W64440  33.603  18.051  12.933
97658W        W64441  23.487  44.664   2.300
97659W        W64442  42.310   7.969   0.742
97660W        W64443  39.412  39.767  10.947
97661W        W64444  31.237   1.822   0.832
97662W        W64445   1.481  44.169   3.256
97663W        W64446  33.855  38.561   0.859
97664W        W64447  40.898  34.956  13.057
97665W        W64448  39.318   1.342   2.726
97666W        W64449  33.484   9.390  12.586
97667W        W64450   6.449  42.980  12.633
97668W        W64451  14.749  29.611  10.793
97669W        W64452   0.147  20.045  11.020
97670W        W64453   5.434  37.900   0.816
97671W        W64454   3.876  26.021   2.140
97672W        W64455   5.223  16.454  12.108
97673W        W64456  24.008  28.519  11.264
97674W        W64457  15.394  36.420  14.688
97675W        W64458  25.435  24.471   3.599
97676W        W64459  13.148  35.023   0.231
97677W        W64460  19.461   3.386  13.514
97678W        W64461  20.006  41.917  14.297
97679W        W64462   9.665  24.157  11.151
97680W        W64463  44.909  13.632   5.636
97681W        W64464  26.085  27.750   0.235
97682W        W64465  16.868  16.877   1.344
97683W        W64466   4.422  20.220  13.488
97684W        W64467  43.420  15.058   5.310
97685W        W64468  13.248   5.928   3.171
97686W        W64469  31.686  30.959  14.360
97687W        W64470  24.317   9.387  13.072
97688W        W64471   2.730  24.727   1.873
97689W        W64472   3.097  18.992   1.094
97690W        W64473  32.015   4.353  14.716
97691W        W64474  26.652  29.402  11.592
97692W        W64475  33.118  32.781   2.392
97693W        W64476  19.005  14.590   3.009
97694W        W64477  12.713   1.366  14.529
97695W        W64478   5.168  14.657   0.328
97696W        W64479  10.818  28.178  11.061
97697W        W64480  35.466  36.126  14.297
97698W        W64481  10.588  38.981  11.350
97699W        W64482   0.288  38.941  12.123
97700W        W64483  29.644  31.974  14.311
97701W        W64484   1.514  14.664   4.366
97702W        W64485  13.665  36.992   2.974
97703W        W64486   7.456  35.618  12.015
97704W        W64487  15.745  43.021  13.185
97705W        W64488  14.135   8.173  11.130
97706W        W64489   0.825  29.246   3.559
97707W        W64490  24.676  26.570   0.919
97708W        W64491  33.177   9.844   1.417
97709W        W64492  27.421  19.468  14.969
97710W        W64493  43.946  27.638   4.291
97711W        W64494   8.372  23.795  11.057
97712W        W64495  12.733   6.001   0.021
97713W        W64496  38.316  30.205   0.033
97714W        W64497  18.937  39.441   3.362
97715W        W64498  29.631  11.537  12.480
97716W        W64499  34.971   2.874  11.154
97717W        W64500  40.932  37.343  12.076
97718W        W64501  20.078  15.273   0.845
97719W        W64502  12.724  30.924  13.909
97720W        W64503  21.989  10.385  11.543
97721W        W64504  43.812  18.237  11.637
97722W        W64505  19.733  11.842   0.364
97723W        W64506  17.669  22.522  11.373
97724W        W64507  32.691  42.247  10.929
97725W        W64508  32.616   2.033  12.881
97726W        W64509   3.673   0.245  14.554
97727W        W64510  10.331  29.925   0.275
97728W        W64511  23.214  17.374   2.730
97729W        W64512  18.151   5.411   1.254
97730W        W64513   8.855  34.496  14.485
97731W        W64514  11.866  14.081   0.164
97732W        W64515  26.708  34.505  13.393
97733W        W64516  29.694  24.635   3.321
97734W        W64517   9.773  34.465  11.900
97735W        W64518  12.831  28.409  13.158
97736W        W64519   6.947  42.041   2.266
97737W        W64520  43.654   1.169   0.483
97738W        W64521  24.724  17.453   0.941
97739W        W64522  38.004  19.382  13.908
97740W        W64523   8.561  23.082  12.907
97741W        W64524  42.814  26.416   0.812
97742W        W64525   7.399   6.899   1.843
97743W        W64526   3.396  42.451   4.865
97744W        W64527   1.116  13.628  14.155
97745W        W64528  29.025  12.104  14.892
97746W        W64529  12.139  10.265  11.564
97747W        W64530  15.128  37.864   3.737
97748W        W64531  30.875  34.362   4.337
97749W        W64532  14.748  39.605   0.819
97750W        W64533  17.035  22.137   3.245
97751W        W64534  16.798  30.043  10.613
97752W        W64535  11.937  24.458  14.921
97753W        W64536  44.219  44.400   0.473
97754W        W64537   1.672  11.850  13.062
97755W        W64538  22.153  21.973   1.555
97756W        W64539  26.590   3.466  11.994
97757W        W64540  11.209  13.789  10.717
97758W        W64541  44.842  36.989  14.307
97759W        W64542  24.531  31.870  10.842
97760W        W64543  14.021  41.436   4.078
97761W        W64544  12.170   3.301   1.331
97762W        W64545  44.330  24.683  11.564
97763W        W64546  44.795  30.438   1.421
97764W        W64547   2.536  40.500  11.171
97765W        W64548  28.238   7.315   0.902
97766W        W64549   4.320  24.252  10.758
97767W        W64550   5.395  26.571   3.164
97768W        W64551  11.256  22.539   4.287
97769W        W64552  41.832  34.052  13.447
97770W        W64553  24.315   2.839  14.778
97771W        W64554  19.520  33.287  13.244
97772W        W64555  23.173   6.412   4.591
97773W        W64556  13.898  41.826  12.460
97774W        W64557  21.266  13.168   3.365
97775W        W64558   2.415  13.201  14.160
97776W        W64559  31.619  20.016   1.343
97777W        W64560  10.184  44.177   5.068
97778W        W64561  17.985  24.807  14.312
97779W        W64562  20.301  37.146   3.274
97780W        W64563  10.424   1.053  14.487
97781W        W64564  25.535  36.978  12.483
97782W        W64565   4.371   7.880   1.931
97783W        W64566  39.502  41.014  11.578
97784W        W64567  30.943  25.592  14.958
97785W        W64568  13.967  37.320   1.356
97786W        W64569  38.976  31.362  14.918
97787W        W64570  16.823  27.291  14.295
97788W        W64571  11.112  35.035   1.864
97789W        W64572   4.386   5.892   4.103
97790W        W64573  12.877  26.893  11.487
97791W        W64574   0.757  16.784   1.887
97792W        W64575  15.044  16.407   4.832
97793W        W64576  26.201  34.088   0.789
97794W        W64577   2.407  22.136   1.771
97795W        W64578  17.248  44.646  13.879
97796W        W64579  29.903  27.722   1.799
97797W        W64580  41.386  44.380  12.358
97798W        W64581   8.081  34.363   4.138
97799W        W64582  12.840  19.142  13.284
97800W        W64583  33.677   6.010  10.236
97801W        W64584  17.048  29.608   4.980
97802W        W64585  33.010   3.984   2.413
97803W        W64586  13.390  24.283  10.930
97804W        W64587  36.620  33.542   0.813
97805W        W64588  31.993  27.028   3.422
97806W        W64589  34.597  19.502  14.798
97807W        W64590   7.468  17.991  14.252
97808W        W64591  38.382  37.597   3.684
97809W        W64592  34.333  37.205  12.348
97810W        W64593  13.331  39.927   0.183
97811W        W64594  26.632  43.241   2.241
97812W        W64595  22.538  43.138   4.289
97813W        W64596  25.464   8.452  13.445
97814W        W64597  29.715  19.331  13.158
97815W        W64598  10.334  10.843   4.412
97816W        W64599  10.719  31.096  12.141
97817W        W64600  35.958  23.112   1.394
97818W        W64601  28.607  35.807  13.914
97819W        W64602   3.860  40.882  12.729
97820W        W64603  13.387   6.656  11.408
97821W        W64604  13.777   6.503  12.603
97822W        W64605  33.585   7.967   1.316
97823W        W64606   9.803  35.483   1.763
97824W        W64607  10.074  28.048   4.485
97825W        W64608  19.729  43.851  10.517
97826W        W64609   3.980   8.851   1.747
97827W        W64610   4.465   5.274   1.486
97828W        W64611  28.513  34.784   3.693
97829W        W64612  18.840  36.405   0.888
97830W        W64613   1.436   6.422   1.308
97831W        W64614  23.004  22.167  14.888
97832W        W64615  22.229  13.064  10.959
97833W        W64616  17.854  24.736  13.455
97834W        W64617   0.789  29.972  11.100
97835W        W64618  22.276   3.686  14.760
97836W        W64619  33.799  34.636   4.855
97837W        W64620  39.744  38.929   2.216
97838W        W64621   0.281  39.816  13.087
97839W        W64622  12.602  28.565  11.165
97840W        W64623   0.010   5.801   4.630
97841W        W64624   5.221  41.592  11.620
97842W        W64625  14.021   0.421  13.975
97843W        W64626  18.173  36.503  13.215
97844W        W64627   9.416  12.604  14.520
97845W        W64628  33.380   3.404   4.577
97846W        W64629  33.153   0.210   2.719
97847W        W64630  14.881  38.966   5.551
97848W        W64631  31.406  42.508   2.250
97849W        W64632  21.685  17.975  13.768
97850W        W64633  14.273  11.903   4.688
97851W        W64634  10.022  13.645   3.554
97852W        W64635  42.621  23.525   1.228
97853W        W64636  20.243   8.066   4.224
97854W        W64637  36.007  43.223  12.587
97855W        W64638  41.776  20.504   4.700
97856W        W64639   0.361  32.452   4.426
97857W        W64640   9.697  11.697   5.055
97858W        W64641  16.365  24.459  13.500
97859W        W64642  26.597   1.404  10.728
97860W        W64643  29.292  31.897   4.561
97861W        W64644  40.292   7.318   0.965
97862W        W64645   0.960  23.203   0.989
97863W        W64646  44.132   9.869   4.627
97864W        W64647  30.216  16.851  11.513
97865W        W64648  11.287  35.442  13.961
97866W        W64649   7.850   8.396  12.116
97867W        W64650   1.210  20.125  14.269
97868W        W64651  12.734  26.892  12.989
97869W        W64652  17.919  43.353   0.804
97870W        W64653  25.129  22.756  14.254
97871W        W64654  10.388  41.951   1.185
97872W        W64655  34.745  42.940  12.339
97873W        W64656  41.332  30.609   0.816
97874W        W64657   4.748  31.544  12.109
97875W        W64658  22.341  30.957   1.351
97876W        W64659   2.892  19.923   0.809
97877W        W64660   9.143  39.517  10.716
97878W        W64661  27.266  25.678  14.942
97879W        W64662  39.828  20.097   0.433
97880W        W64663  25.217   3.512  12.498
97881W        W64664  17.120  21.655   1.046
97882W        W64665  15.046  35.111  12.969
97883W        W64666  26.444   0.911   4.203
97884W        W64667  31.248  24.273  12.972
97885W        W64668  26.119  33.858   3.484
97886W        W64669  25.494   6.217  10.363
97887W        W64670  12.166   3.337   3.691
97888W        W64671  38.921  41.781  11.948
97889W        W64672  28.104  15.488  13.972
97890W        W64673  35.611  35.922   2.850
97891W        W64674  28.007  38.108  13.517
97892W        W64675  12.097  12.753   4.192
97893W        W64676  35.554  33.462  14.902
97894W        W64677  39.931   4.139   1.400
97895W        W64678  26.682   3.261  12.558
97896W        W64679  21.486  34.595   3.774
97897W        W64680   1.380  15.696  14.314
97898W        W64681  27.300   8.241  13.903
97899W        W64682  37.856  30.676  13.422
97900W        W64683  12.732  29.686   0.804
97901W        W64684  17.322  36.198   0.958
97902W        W64685  26.199  12.355   0.891
97903W        W64686   7.831  29.732  11.439
97904W        W64687   5.833   9.383   3.083
97905W        W64688  19.480  21.573  11.272
97906W        W64689   6.235  44.782   4.188
97907W        W64690  37.958  44.053  11.878
97908W        W64691   4.930   7.426  14.351
97909W        W64692  18.777   6.969  10.683
97910W        W64693  31.965  15.609   4.553
97911W        W64694  17.095  35.462   0.278
97912W        W64695  43.173   0.347  10.176
97913W        W64696   1.544  15.837  12.368
97914W        W64697  25.795   7.416   3.690
97915W        W64698   6.293  30.134  14.552
97916W        W64699  35.117  15.576   3.813
97917W        W64700  12.160  20.157  14.136
97918W        W64701   3.103  41.784   4.146
97919W        W64702  28.582   3.896  10.573
97920W        W64703   3.519  27.054  14.844
97921W        W64704  35.206  40.781  12.870
97922W        W64705  34.370  27.579  14.846
97923W        W64706  41.711   6.933   1.791
97924W        W64707  37.886  28.999  10.711
97925W        W64708  43.503  28.537  12.970
97926W        W64709  22.970  13.295  10.666
97927W        W64710  43.305  43.856   4.525
97928W        W64711  44.914   8.365  11.377
97929W        W64712  43.390  21.934  11.883
97930W        W64713  21.991  25.595  11.295
97931W        W64714  12.814  12.628   3.743
97932W        W64715   5.702   5.931   3.326
97933W        W64716  25.578   6.470   2.440
97934W        W64717  22.702  27.234  11.629
97935W        W64718   3.734  20.304  11.398
97936W        W64719  21.728  15.757  12.399
97937W        W64720  44.337   0.167  10.795
97938W        W64721  13.221  14.047   2.264
97939W        W64722   1.233  34.956   4.253
97940W        W64723  41.998  23.975   5.117
97941W        W64724  41.460  35.508   0.860
97942W        W64725  39.598  41.784  14.820
97943W        W64726  34.514   3.947  10.546
97944W        W64727  10.746  12.597   4.912
97945W        W64728  34.326   8.864   1.906
97946W        W64729  16.159  32.442   3.064
97947W        W64730  19.696  18.726  13.412
97948W        W64731  35.739  23.046  11.869
97949W        W64732   5.939  12.531  13.902
97950W        W64733  14.550  41.425   2.771
97951W        W64734   3.227  31.030   1.295
97952W        W64735  16.607  15.596  11.195
97953W        W64736  13.271  43.797  14.094
97954W        W64737  32.382  44.910  14.252
97955W        W64738  30.569  42.999  13.943
97956W        W64739   4.991  23.859   0.917
97957W        W64740  12.606  29.450   4.245
97958W        W64741   1.439  42.862  12.347
97959W        W64742  40.886  24.184   3.757
97960W        W64743  18.870  36.008  12.005
97961W        W64744  33.814  24.081  11.024
97962W        W64745   7.344  24.225  12.462
97963W        W64746  14.285  39.058   4.876
97964W        W64747  44.510   1.862   4.822
97965W        W64748  10.108   7.112   3.269
97966W        W64749  14.273  11.632  11.118
97967W        W64750  36.543  22.530   4.068
97968W        W64751  35.393   1.945  13.153
97969W        W64752  11.443  30.344   4.185
97970W        W64753  42.368  35.418   1.884
97971W        W64754  29.779  43.033   4.540
97972W        W64755  21.147  36.656   2.728
97973W        W64756   7.797  24.174  13.766
97974W        W64757  15.147  10.225   2.765
97975W        W64758  11.311   3.758   3.674
97976W        W64759  23.386   0.997  13.536
97977W        W64760  36.961  30.922   3.425
97978W        W64761  33.512  26.072  12.129
97979W        W64762  43.021  41.793   3.713
97980W        W64763   1.473  28.280   4.195
97981W        W64764  28.107  15.062   2.482
97982W        W64765  17.785  31.662  11.583
97983W        W64766  21.711   3.930  10.263
97984W        W64767  35.386  22.607  11.194
97985W        W64768   1.810  42.243   0.961
97986W        W64769  18.955  44.404  12.143
97987W        W64770  43.461  42.940   0.823
97988W        W64771  19.587   5.882  11.950
97989W        W64772  18.980  43.317   3.329
97990W        W64773   5.643  32.649  14.850
97991W        W64774  13.061   6.089   1.362
97992W        W64775  21.774  36.127   2.320
97993W        W64776  28.229  39.856  13.028
97994W        W64777   9.177  11.343  12.152
97995W        W64778   2.749  15.336  12.189
97996W        W64779  26.209  34.555   2.269
97997W        W64780   7.450  22.501   1.392
97998W        W64781  41.044  27.710   1.737
97999W        W64782  40.427  39.433   0.886
98000W        W64783  36.472  21.849  14.396
98001W        W64784   6.846   1.923   4.078
98002W        W64785  33.422  21.804   5.203
98003W        W64786   8.843  13.653   1.368
98004W        W64787   3.023  43.533   3.761
98005W        W64788  33.397  12.020  10.660
98006W        W64789  35.375  13.851  11.528
98007W        W64790  38.302  41.529   2.443
98008W        W64791   8.028  23.712  13.866
98009W        W64792  29.143  41.938  12.853
98010W        W64793  32.432   6.805   2.604
98011W        W64794  44.608   6.504  11.845
98012W        W64795  15.799  11.135  13.323
98013W        W64796  19.587   1.685   0.351
98014W        W64797  34.002  18.351   4.596
98015W        W64798  21.556   1.524   1.439
98016W        W64799  25.026  17.189   3.209
98017W        W64800  10.830   1.679   2.326
98018W        W64801  17.539  28.865  13.914
98019W        W64802  41.246  35.150  14.861
98020W        W64803  22.702  28.274   0.210
98021W        W64804  28.462   1.777   0.903
98022W        W64805  32.931  20.777  13.068
98023W        W64806  23.873  19.427   5.006
98024W        W64807   4.883  10.367  13.797
98025W        W64808  41.571  36.651   1.818
98026W        W64809  14.822  16.400  10.348
98027W        W64810  41.434   1.019  11.669
98028W        W64811  39.422  40.767  11.139
98029W        W64812  24.258   4.838  10.964
98030W        W64813  29.163  39.308  10.613
98031W        W64814  33.424  12.931  13.828
98032W        W64815   8.845  17.209   2.342
98033W        W64816  43.431  37.555  14.406
98034W        W64817  43.369  28.889   4.314
98035W        W64818  30.858  10.836   1.226
98036W        W64819  14.558   3.285   4.243
98037W        W64820  44.464  44.279  11.220
98038W        W64821  44.849  21.664  13.902
98039W        W64822   1.523   6.856  10.421
98040W        W64823  26.040  28.698   2.876
98041W        W64824   8.662  40.743   1.981
98042W        W64825  34.086  15.335   4.748
98043W        W64826  23.193  17.612  11.185
98044W        W64827  39.045  31.406   1.178
98045W        W64828   9.395   9.048   0.295
98046W        W64829  21.915  25.586   0.362
98047W        W64830  23.263  22.483   0.837
98048W        W64831  40.500   1.329  12.428
98049W        W64832  44.506  10.420  12.676
98050W        W64833  23.146  18.552   0.179
98051W        W64834  16.543  11.631   3.154
98052W        W64835  34.082   3.043  12.149
98053W        W64836  21.940   1.965   4.099
98054W        W64837   5.668  34.332   2.662
98055W        W64838  30.910  33.903   2.239
98056W        W64839  41.786   7.664  11.558
98057W        W64840  41.506  17.795  10.806
98058W        W64841  35.455  12.206   0.935
98059W        W64842  16.648   1.718  12.663
98060W        W64843  16.875  26.936  11.539
98061W        W64844   4.383  21.345  13.872
98062W        W64845  29.120  12.680   2.751
98063W        W64846  42.541  17.288  14.736
98064W        W64847  22.780  27.654   3.325
98065W        W64848   4.812  17.536  11.602
98066W        W64849  21.067   8.700   4.515
98067W        W64850   2.470  16.634  13.401
98068W        W64851  31.952   6.145   3.865
98069W        W64852   8.203  20.801   1.766
98070W        W64853  38.049  44.993   2.615
98071W        W64854  33.630  37.828   3.188
98072W        W64855   1.910  24.123   1.354
98073W        W64856  12.356  28.295  12.075
98074W        W64857  15.061  43.792  10.772
98075W        W64858  10.854  34.504   3.118
98076W        W64859  16.287  28.144  14.562
98077W        W64860  41.417   8.380   1.767
98078W        W64861  31.591  20.788   3.530
98079W        W64862  36.398  16.515   0.066
98080W        W64863  14.223  15.233  10.774
98081W        W64864  21.884  23.326   2.785
98082W        W64865  19.131  25.622   4.462
98083W        W64866  41.064   9.641  12.849
98084W        W64867   4.652  12.352  12.139
98085W        W64868  41.086  21.133   0.908
98086W        W64869  43.076  16.686   3.236
98087W        W64870  28.698  22.236   1.519
98088W        W64871  30.562  34.879   2.286
98089W        W64872  43.879  40.026   3.424
98090W        W64873  24.624  34.295   4.151
98091W        W64874  32.162  32.080  12.964
98092W        W64875  21.958   5.223   1.938
98093W        W64876  36.787  37.310  10.353
98094W        W64877  24.593  40.389   3.342
98095W        W64878  14.842  33.042  10.662
98096W        W64879  26.283  30.491  14.859
98097W        W64880   9.387   0.386   2.199
98098W        W64881   8.709  31.924  11.168
98099W        W64882  44.757   4.674   3.151
98100W        W64883  23.194  40.026  13.131
98101W        W64884  13.118  24.539  12.948
98102W        W64885  33.081  18.136   1.851
98103W        W64886   2.364  19.050  10.425
98104W        W64887  33.646  10.787  11.078
98105W        W64888  28.848  41.517  12.805
98106W        W64889  36.678  44.765   1.716
98107W        W64890  39.096  18.811  14.730
98108W        W64891  26.124   1.413   2.761
98109W        W64892  38.880  30.393   3.627
98110W        W64893  14.136  33.117   0.859
98111W        W64894  29.653  10.369  12.021
98112W        W64895   8.377  43.252   2.240
98113W        W64896  33.886  27.075   3.668
98114W        W64897  44.954  29.767  11.975
98115W        W64898  31.905   4.356  10.075
98116W        W64899   5.176   4.377  13.383
98117W        W64900  34.602  39.540   3.791
98118W        W64901   3.740  34.956   2.308
98119W        W64902  13.847  44.859  10.482
98120W        W64903  35.557  39.471  11.149
98121W        W64904   3.673  42.505   0.760
98122W        W64905  23.976  27.056  11.943
98123W        W64906  18.265  38.955  12.078
98124W        W64907   5.686   3.564  11.217
98125W        W64908  42.585  18.733  11.020
98126W        W64909   3.188  18.118   3.769
98127W        W64910   4.251  33.325   4.735
98128W        W64911  33.452  19.997  11.266
98129W        W64912  40.424   7.149  10.642
98130W        W64913  34.702  28.338   0.425
98131W        W64914   0.307  30.537   0.849
98132W        W64915  17.879   1.842   4.303
98133W        W64916  20.505  37.497  10.783
98134W        W64917  19.303  33.001   2.345
98135W        W64918  32.027  28.026  10.613
98136W        W64919   4.006   7.092   0.348
98137W        W64920   0.676  38.758   2.175
98138W        W64921   1.763  22.363  14.335
98139W        W64922  39.619  36.573  12.080
98140W        W64923   1.219  11.568  13.054
98141W        W64924  11.695  15.881  11.012
98142W        W64925  23.154  27.921  11.091
98143W        W64926   3.186  44.807  13.266
98144W        W64927  40.465  11.535  11.680
98145W        W64928  25.847   8.828   2.682
98146W        W64929  29.465  24.176  13.690
98147W        W64930   6.949  35.688   3.990
98148W        W64931   6.198  44.746  12.768
98149W        W64932  26.517  40.598   3.127
98150W        W64933   2.908  41.259  12.885
98151W        W64934  41.150  35.428   3.728
98152W        W64935  10.179  13.822  14.824
98153W        W64936  22.030  24.035  13.375
98154W        W64937  28.456   9.454  14.928
98155W        W64938   6.883  22.684  11.351
98156W        W64939  36.288  42.830   1.199
98157W        W64940   8.326  19.604   4.130
98158W        W64941   8.431  28.160   1.302
98159W        W64942  33.910  17.685  13.913
98160W        W64943  18.602  29.959   2.794
98161W        W64944  22.804   8.910  13.975
98162W        W64945  28.461  37.153   4.104
98163W        W64946   8.390  41.928   3.661
98164W        W64947   2.616  13.355  12.399
98165W        W64948  15.247  16.314   3.937
98166W        W64949  38.905   4.817   4.043
98167W        W64950  18.096  10.556   0.889
98168W        W64951  44.533  15.328  11.394
98169W        W64952  29.892  31.787   1.935
98170W        W64953   6.293  33.069  10.513
98171W        W64954  19.045   7.107   4.101
98172W        W64955  14.803   9.712  12.844
98173W        W64956  11.343  44.419  14.305
98174W        W64957  31.992  30.579  13.050
98175W        W64958   5.002  12.941  11.469
98176W        W64959  16.663  19.036  10.863
98177W        W64960  43.890  43.365   3.956
98178W        W64961   0.916   9.187  11.225
98179W        W64962   7.537   5.994   4.180
98180W        W64963  33.737  33.683  11.561
98181W        W64964  35.296  12.300  13.000
98182W        W64965  11.555  27.192   3.810
98183W        W64966  31.988  39.290  10.814
98184W        W64967  41.833  12.586  13.021
98185W        W64968  26.040  37.587  11.672
98186W        W64969   1.284   2.578   2.645
98187W        W64970  36.400  24.698   2.049
98188W        W64971   7.250  18.010  14.872
98189W        W64972  32.862  32.926   4.180
98190W        W64973   6.215  29.319  11.591
98191W        W64974  15.396   4.577  11.144
98192W        W64975   8.233  43.404   4.712
98193W        W64976   7.036  31.903   2.765
98194W        W64977   6.942  25.520   2.752
98195W        W64978   2.212  23.750   2.475
98196W        W64979  12.785  20.289  12.520
98197W        W64980  44.895   1.373  14.575
98198W        W64981  16.709  44.285  14.962
98199W        W64982  38.143  21.140  11.337
98200W        W64983   2.997  16.226   4.571
98201W        W64984  22.155  15.604   2.551
98202W        W64985  15.182  17.019   0.819
98203W        W64986  28.602  23.437  14.311
98204W        W64987   6.884  26.459   1.417
98205W        W64988  36.342  31.538  12.931
98206W        W64989  17.303  12.456  12.485
98207W        W64990  36.048  21.549   4.977
98208W        W64991  14.090  38.934  12.615
98209W        W64992  44.383  35.349  11.495
98210W        W64993  16.468  23.236  12.327
98211W        W64994  33.645  22.157   5.487
98212W        W64995   9.634   7.135  10.246
98213W        W64996  27.462  44.576  10.704
98214W        W64997  43.394  33.896   3.244
98215W        W64998  41.798  29.714  13.981
98216W        W64999   9.808  17.746   0.417
98217W        W65000  31.390  17.131   1.280
98218W        W65001  27.701   4.470  12.497
98219W        W65002  34.627  13.051  12.192
98220W        W65003  40.702   1.213   0.900
98221W        W65004   5.839  12.712   5.011
98222W        W65005   6.371  37.304  11.349
98223W        W65006  44.300   1.203  12.961
98224W        W65007  11.662   9.084  12.418
98225W        W65008  17.239  36.522   1.905
98226W        W65009   8.029  26.639  13.934
98227W        W65010  22.175   7.426   2.847
98228W        W65011  33.340   7.999  11.222
98229W        W65012  43.757  24.266  14.182
98230W        W65013  28.866   1.931   1.470
98231W        W65014  29.092  10.725   1.708
98232W        W65015  10.240   7.762  14.071
98233W        W65016  23.067   8.231   1.735
98234W        W65017  39.522  15.298   4.205
98235W        W65018  23.080  41.769   4.570
98236W        W65019   1.952  26.134   4.081
98237W        W65020  38.939   2.478  12.432
98238W        W65021  27.413  16.657   3.424
98239W        W65022   4.509   2.244   3.384
98240W        W65023  17.678  21.246   3.640
98241W        W65024   6.229   1.397   3.184
98242W        W65025  19.151  38.522  10.734
98243W        W65026  25.032  27.010   1.217
98244W        W65027  34.369   5.250   5.044
98245W        W65028  11.813  27.884   1.198
98246W        W65029  25.137  25.694   3.006
98247W        W65030  13.037  12.285  14.551
98248W        W65031  21.613   7.587   2.739
98249W        W65032  37.436  38.974  14.242
98250W        W65033  13.514  44.861  11.492
98251W        W65034  21.510  20.172  14.832
98252W        W65035  18.701  14.344  11.013
98253W        W65036   4.366  24.230  11.571
98254W        W65037   7.274  12.683   4.853
98255W        W65038   7.916  10.399   2.985
98256W        W65039   6.691  20.256   4.625
98257W        W65040  40.323   1.755   2.184
98258W        W65041  21.621   0.372  11.254
98259W        W65042  25.549   2.292  14.509
98260W        W65043  20.589  28.186  11.556
98261W        W65044   6.175  20.197   3.726
98262W        W65045  35.396  32.533  13.832
98263W        W65046  11.216  36.415   4.956
98264W        W65047  20.134   8.620   2.221
98265W        W65048   8.983   1.703   2.331
98266W        W65049   5.950  12.296   1.742
98267W        W65050   2.055  32.058  13.456
98268W        W65051  18.930  40.953   2.792
98269W        W65052  27.049  26.034   1.167
98270W        W65053  21.385  38.724  12.925
98271W        W65054  44.488  23.040   2.058
98272W        W65055  44.669  14.820   4.531
98273W        W65056  19.095  13.648   2.353
98274W        W65057   7.721  26.008  12.077
98275W        W65058  13.240  36.374  14.335
98276W        W65059  35.843  28.444  12.897
98277W        W65060   4.480  40.302   0.845
98278W        W65061  40.040  36.012  14.403
98279W        W65062  14.562  20.725  13.790
98280W        W65063   2.943  29.199   4.275
98281W        W65064  38.521  23.767  11.977
98282W        W65065   5.741  43.925  12.542
98283W        W65066  18.654   4.576   0.000
98284W        W65067  24.649   7.389  11.481
98285W        W65068  42.790   7.378   0.126
98286W        W65069  12.629  39.457   3.224
98287W        W65070  18.619  11.815  14.872
98288W        W65071   6.160  32.661  14.889
98289W        W65072  20.318  30.123   3.963
98290W        W65073   7.850  22.097  11.591
98291W        W65074  36.668   9.899   1.758
98292W        W65075  30.145  20.286  11.430
98293W        W65076  15.004  44.515  12.297
98294W        W65077  31.843  23.521   2.270
98295W        W65078  25.531  21.245   4.604
98296W        W65079  17.987   8.182  12.350
98297W        W65080   6.932  16.723  13.379
98298W        W65081  15.377  13.375   0.103
98299W        W65082   0.912  14.988   3.162
98300W        W65083  30.135   3.752  14.915
98301W        W65084   2.473   3.820   1.801
98302W        W65085  22.905   1.254   5.020
98303W        W65086  43.420  37.820  10.577
98304W        W65087  33.164  13.951  11.386
98305W        W65088  35.328   4.713   4.913
98306W        W65089   4.367  30.909   1.324
98307W        W65090  11.323   5.029   1.380
98308W        W65091   8.269  43.385  11.179
98309W        W65092  41.339  21.467  13.298
98310W        W65093   1.302  24.116  11.496
98311W        W65094  41.273  24.985  11.813
98312W        W65095  28.237   1.288   1.233
98313W        W65096  38.239   6.880   0.345
98314W        W65097  42.802  32.167  12.470
98315W        W65098   0.783  23.940   2.154
98316W        W65099   8.236  44.752   0.454
98317W        W65100  44.317  11.394   1.282
98318W        W65101  43.430  17.265   2.450
98319W        W65102  31.091  43.017   0.929
98320W        W65103  40.742   4.812  10.597
98321W        W65104  41.319  23.480   1.641
98322W        W65105  10.929  18.909   3.147
98323W        W65106  24.735  40.839  13.960
98324W        W65107  27.520  33.455  11.944
98325W        W65108   6.348  20.292  11.276
98326W        W65109  39.861  38.613   1.802
98327W        W65110  39.496  32.204  12.448
98328W        W65111  38.029  25.197  11.590
98329W        W65112  42.838  23.073   0.173
98330W        W65113  26.689  42.976  10.523
98331W        W65114  35.700   0.593   1.195
98332W        W65115  20.875  15.151  13.738
98333W        W65116   3.252  22.668  10.794
98334W        W65117  39.827  36.038   2.143
98335W        W65118  36.894   5.679   1.794
98336W        W65119  38.599  12.408  11.026
98337W        W65120  10.290  21.720   0.282
98338W        W65121  44.952  14.309  12.777
98339W        W65122  16.788  40.814   3.733
98340W        W65123  20.052  39.325  13.896
98341W        W65124  15.647   6.929   2.763
98342W        W65125  36.863  40.948   2.349
98343W        W65126   6.699   4.659   0.788
98344W        W65127  43.363  26.072  10.694
98345W        W65128  13.177  43.718   2.031
98346W        W65129   8.490  11.093   2.349
98347W        W65130   2.739  37.555  14.577
98348W        W65131   7.704   5.357   2.234
98349W        W65132  32.888  32.046   1.301
98350W        W65133   5.045   1.491  11.150
98351W        W65134  19.568  10.292   0.450
98352W        W65135  41.025  39.563  14.773
98353W        W65136   8.318   6.212  10.719
98354W        W65137  11.281  17.957  11.352
98355W        W65138  20.738  40.361   0.494
98356W        W65139  39.470  20.153   3.685
98357W        W65140   7.828  30.812  14.419
98358W        W65141  18.101   1.787  11.157
98359W        W65142   5.941  34.039  10.942
98360W        W65143   6.804  28.856  13.429
98361W        W65144   5.978  10.486   4.833
98362W        W65145  42.064  16.181  10.703
98363W        W65146  37.337  12.014   3.510
98364W        W65147   9.797  33.993   3.829
98365W        W65148   1.803  43.557   0.395
98366W        W65149  41.506  38.548   4.175
98367W        W65150   4.883  16.701   1.032
98368W        W65151  30.500  18.805  10.923
98369W        W65152  43.323  41.011  14.256
98370W        W65153  36.147  33.906  13.860
98371W        W65154  25.041  21.850   3.067
98372W        W65155  25.710  27.046  13.887
98373W        W65156  13.372   8.622   3.755
98374W        W65157   0.291  38.594  14.348
98375W        W65158   1.408  42.904  13.589
98376W        W65159  43.883  16.827   1.730
98377W        W65160   4.666  22.708  12.389
98378W        W65161  14.744  17.289   3.152
98379W        W65162  11.222  41.482   3.294
98380W        W65163  23.696  21.776  10.434
98381W        W65164   2.864   8.778  12.073
98382W        W65165  14.647  17.699  10.954
98383W        W65166  21.574  44.442  14.571
98384W        W65167  26.237  20.510   2.356
98385W        W65168  10.438   6.410  10.315
98386W        W65169  12.621   4.735   3.885
98387W        W65170  16.130  37.573  11.628
98388W        W65171  36.620  32.838  13.379
98389W        W65172  21.325  19.831  11.849
98390W        W65173  40.600  11.321   1.754
98391W        W65174  29.930   5.898   4.588
98392W        W65175  16.467  11.139   3.033
98393W        W65176  25.037  15.918   2.921
98394W        W65177   2.992  17.195  13.889
98395W        W65178  40.984   8.873  12.149
98396W        W65179  25.622  17.808   1.177
98397W        W65180   3.931  26.134  11.384
98398W        W65181  22.550  13.268   1.358
98399W        W65182  21.683  13.016  12.380
98400W        W65183   4.882  33.922   4.666
98401W        W65184  42.479  36.489   2.836
98402W        W65185  35.924  21.675   1.139
98403W        W65186   3.502  12.364   2.323
98404W        W65187  13.583   5.164  12.050
98405W        W65188  17.182  24.894   0.810
98406W        W65189  36.469  34.425  14.471
98407W        W65190  20.274  25.066  14.503
98408W        W65191  14.369  19.587   1.718
98409W        W65192  14.314  20.050   1.423
98410W        W65193  19.032  15.188  10.648
98411W        W65194  43.583  23.008  14.620
98412W        W65195  31.914   0.092  13.412
98413W        W65196  22.254  44.422  13.873
98414W        W65197  37.592  36.556   3.363
98415W        W65198  20.570  10.842  13.230
98416W        W65199   2.721  38.801   0.428
98417W        W65200  34.971  22.597   1.204
98418W        W65201  35.870  10.091   1.276
98419W        W65202  21.751  44.840   3.368
98420W        W65203  19.193  15.183  13.276
98421W        W65204  28.723   9.451   3.177
98422W        W65205   6.501  17.168  12.086
98423W        W65206  29.931  16.328   2.613
98424W        W65207  22.063  25.164   2.905
98425W        W65208  32.365  27.590   1.830
98426W        W65209  15.759  18.488  12.603
98427W        W65210  20.488  43.830   2.732
98428W        W65211   3.434   0.208   1.226
98429W        W65212   6.297  20.984  12.718
98430W        W65213  33.025  19.569   4.634
98431W        W65214   0.290  36.097  10.575
98432W        W65215  33.825  28.438   0.815
98433W        W65216   0.723  17.704   4.066
98434W        W65217   0.311  11.119  12.975
98435W        W65218  34.594  27.478  12.803
98436W        W65219  30.538  15.231   0.918
98437W        W65220  11.615   4.331  13.405
98438W        W65221  37.032  26.437   1.394
98439W        W65222  32.159  41.811   1.334
98440W        W65223   4.545  11.720  13.503
98441W        W65224  19.071  36.683   3.336
98442W        W65225  15.413   7.528   4.202
98443W        W65226  10.308   0.798  12.096
98444W        W65227  32.959  14.493   4.415
98445W        W65228  44.962  20.809   2.394
98446W        W65229  10.555  15.497  14.872
98447W        W65230  18.774   4.462  12.923
98448W        W65231  27.078  32.909  12.961
98449W        W65232  12.081  29.694   0.427
98450W        W65233  12.505  41.955  14.375
98451W        W65234  13.522  24.120   1.354
98452W        W65235  31.160  40.705  12.948
98453W        W65236  38.347  43.341   0.965
98454W        W65237  19.177  35.851   1.963
98455W        W65238   4.278  20.793   2.607
98456W        W65239  11.086   5.367   3.100
98457W        W65240  40.596  44.814  10.791
98458W        W65241  18.719  32.200  11.969
98459W        W65242  23.639  38.294  13.855
98460W        W65243  14.178  42.316   0.893
98461W        W65244   2.413  35.680  10.752
98462W        W65245  33.331  37.586  14.956
98463W        W65246  44.866   9.026   9.885
98464W        W65247  10.105  41.006   3.970
98465W        W65248  30.076  37.480   1.782
98466W        W65249   3.266  35.864  12.939
98467W        W65250  25.999   5.589   4.931
98468W        W65251   2.394   3.064   3.493
98469W        W65252  27.256  30.949  13.881
98470W        W65253  31.599  11.891  11.726
98471W        W65254  13.365   8.691  12.929
98472W        W65255  28.036  20.708  11.508
98473W        W65256   2.716  41.049   4.571
98474W        W65257  18.593   2.090   3.342
98475W        W65258  40.243  33.531   2.215
98476W        W65259   0.464   6.379  14.707
98477W        W65260  32.734  18.288   5.029
98478W        W65261  25.950   1.931  10.638
98479W        W65262  14.454  22.068  11.678
98480W        W65263  14.806  18.176   0.929
98481W        W65264  17.485  20.697   1.393
98482W        W65265  29.339  15.820   4.645
98483W        W65266  16.263  27.387   4.721
98484W        W65267  35.267  29.012  11.218
98485W        W65268   9.868   0.186  11.800
98486W        W65269  32.127  10.925   2.231
98487W        W65270  31.474  10.426   0.464
98488W        W65271  27.516  32.223   4.080
98489W        W65272  35.926  43.426   2.387
98490W        W65273   9.604  10.418  11.496
98491W        W65274  22.481  28.126  11.556
98492W        W65275  10.875  10.832   1.367
98493W        W65276  10.871  33.878  12.089
98494W        W65277   3.982   9.570   2.699
98495W        W65278  26.003  42.043  12.526
98496W        W65279  26.214  14.328  12.533
98497W        W65280  21.222   0.478   2.344
98498W        W65281   6.753  39.624   0.157
98499W        W65282  22.935  13.441  12.012
98500W        W65283  39.992  30.861  12.895
98501W        W65284  32.966  10.538   1.825
98502W        W65285   3.946  24.080   2.649
98503W        W65286  44.226  23.163   0.706
98504W        W65287  24.901   9.765  12.433
98505W        W65288  41.501  13.727  12.071
98506W        W65289  13.698  25.916  12.750
98507W        W65290  38.861  25.642   2.851
98508W        W65291  36.039  24.823   0.365
98509W        W65292  24.500   5.869   1.238
98510W        W65293  10.163  34.416  12.530
98511W        W65294   0.125  29.848   3.881
98512W        W65295  20.530  44.320   0.933
98513W        W65296  22.068  33.679   1.712
98514W        W65297  22.156   0.228  10.428
98515W        W65298  36.139  31.384  10.630
98516W        W65299  39.597  41.930   1.654
98517W        W65300  12.828   3.028  13.543
98518W        W65301  17.599  44.475   4.479
98519W        W65302   2.333  29.010  13.113
98520W        W65303  11.688  35.602   4.519
98521W        W65304  31.632  15.600   3.509
98522W        W65305  40.345  37.063  11.912
98523W        W65306  16.128   6.744   1.936
98524W        W65307   6.836   1.256  13.240
98525W        W65308   4.961  17.679  14.358
98526W        W65309  35.903  35.866   0.961
98527W        W65310  27.328  38.317  12.460
98528W        W65311  34.440  16.830   0.903
98529W        W65312   5.815  43.297   4.092
98530W        W65313  40.141  28.561   3.298
98531W        W65314  12.904   9.053   1.812
98532W        W65315  26.532  24.153   1.338
98533W        W65316  28.512  17.261   0.454
98534W        W65317  29.905  32.646  13.001
98535W        W65318  44.842  35.826  10.617
98536W        W65319   3.314   5.630  10.600
98537W        W65320   4.460  13.799  12.050
98538W        W65321  26.666  41.837   4.629
98539W        W65322  24.060  31.542   3.314
98540W        W65323  24.690  11.337   1.721
98541W        W65324  44.449   1.014  14.920
98542W        W65325   0.020  30.979   0.779
98543W        W65326  22.017  43.206  11.486
98544W        W65327  11.197  13.376   0.749
98545W        W65328   8.530  14.426  14.468
98546W        W65329  43.473  18.335   3.950
98547W        W65330  19.707  13.500   3.609
98548W        W65331  30.086  34.733   2.122
98549W        W65332  26.222   0.687   1.655
98550W        W65333   9.619  20.994  12.539
98551W        W65334  34.124  37.115  14.835
98552W        W65335  34.318  21.680   3.703
98553W        W65336   7.286  42.077   3.601
98554W        W65337  37.392   2.018  12.651
98555W        W65338   8.207  42.824   0.113
98556W        W65339  25.410   6.646  14.810
98557W        W65340  34.505  29.103   0.965
98558W        W65341  40.864   1.439   2.723
98559W        W65342  42.718  42.856   4.570
98560W        W65343   1.647  30.156  11.373
98561W        W65344  24.936  29.144   3.706
98562W        W65345  34.506  15.850  12.979
98563W        W65346   8.174   0.771  12.570
98564W        W65347  33.321   5.664  11.078
98565W        W65348  31.163  42.403  10.871
98566W        W65349  24.716  12.463  12.549
98567W        W65350  38.538  23.106   3.150
98568W        W65351  18.544  12.788   4.982
98569W        W65352  42.984  29.582  14.906
98570W        W65353  37.945  11.218   2.058
98571W        W65354  37.632  44.802   2.863
98572W        W65355  11.886  28.004   3.989
98573W        W65356   0.840  33.833  10.777
98574W        W65357  38.041  26.445   1.220
98575W        W65358  38.399  11.051   3.722
98576W        W65359   1.675   7.272   0.750
98577W        W65360  41.395  20.751  14.863
98578W        W65361   6.935  35.980   2.747
98579W        W65362  25.424   6.088   0.987
98580W        W65363  40.138  13.791  12.521
98581W        W65364   6.669  15.352   3.646
98582W        W65365   8.126   9.777  13.325
98583W        W65366  42.308  42.441   2.249
98584W        W65367  20.685  10.807  13.743
98585W        W65368  26.056  25.891  11.985
98586W        W65369   7.704  24.527   3.193
98587W        W65370  19.611   7.974   0.801
98588W        W65371  37.265  10.422   4.033
98589W        W65372  33.566   1.048  12.685
98590W        W65373  15.451  21.297  13.121
98591W        W65374   0.225  24.160  12.586
98592W        W65375  11.822   6.983   3.062
98593W        W65376  30.023   1.014  13.590
98594W        W65377  21.676  20.564  14.298
98595W        W65378   8.898   5.124  12.151
98596W        W65379   6.936  34.923  13.445
98597W        W65380  39.395  15.430  11.062
98598W        W65381  15.241  27.016   5.043
98599W        W65382  14.198   3.230  12.380
98600W        W65383   4.772  26.714  11.055
98601W        W65384   6.278  37.554  13.288
98602W        W65385  41.367  34.631  14.778
98603W        W65386  23.247  22.673  11.452
98604W        W65387  31.975  27.151  14.851
98605W        W65388  39.115   8.782  11.374
98606W        W65389  27.465  21.678   4.577
98607W        W65390  29.823  25.085   3.076
98608W        W65391  40.900  27.660   4.062
98609W        W65392  41.165   4.523   3.128
98610W        W65393  32.176  41.129   3.616
98611W        W65394   1.834  19.794  13.606
98612W        W65395  23.062  35.422   3.600
98613W        W65396  15.004  25.267   1.833
98614W        W65397   9.158  20.234   2.414
98615W        W65398   2.887  12.373   2.813
98616W        W65399  20.541  24.616  14.367
98617W        W65400   0.795  25.028   1.310
98618W        W65401   9.415   9.279  10.185
98619W        W65402   0.995  12.633   5.368
98620W        W65403  22.179   2.522   2.450
98621W        W65404  38.622   2.420   3.742
98622W        W65405  32.396  13.415   1.396
98623W        W65406  11.824  32.496  14.089
98624W        W65407  33.684   3.071   0.796
98625W        W65408   5.853  40.370   0.673
98626W        W65409  44.007  31.842   2.781
98627W        W65410   2.103  38.592  11.536
98628W        W65411  13.643  43.262   4.931
98629W        W65412  21.677  19.025   4.663
98630W        W65413  44.914   0.409  14.406
98631W        W65414  15.832  20.514  13.603
98632W        W65415  38.729  26.382   4.165
98633W        W65416  11.734  19.554   5.323
98634W        W65417  10.132  11.982   5.028
98635W        W65418   1.295   6.793   2.653
98636W        W65419  10.359   5.063  14.012
98637W        W65420  23.877  27.095  11.052
98638W        W65421  21.650  16.576  11.834
98639W        W65422  13.299  10.456  10.631
98640W        W65423  11.109   3.959  14.236
98641W        W65424  24.301  41.302  13.320
98642W        W65425  20.605   6.455   1.930
98643W        W65426  42.315   0.537   4.250
98644W        W65427   0.313  11.437  10.636
98645W        W65428  17.401  19.676   4.712
98646W        W65429  33.645  17.159   4.694
98647W        W65430  23.754  37.990   1.315
98648W        W65431   3.440  36.962  14.831
98649W        W65432   9.697  33.673   0.731
98650W        W65433  33.324  18.885   1.524
98651W        W65434   0.430  21.013  13.976
98652W        W65435   7.521  11.835  10.639
98653W        W65436  18.501  33.059   1.135
98654W        W65437  35.496   8.458  14.057
98655W        W65438  32.467   6.469   3.173
98656W        W65439  34.554  35.344  14.907
98657W        W65440  44.315  13.809  14.331
98658W        W65441  37.564   1.013   3.274
98659W        W65442   9.134   2.587  11.991
98660W        W65443  35.575  43.320  11.488
98661W        W65444  39.866   5.244  11.571
98662W        W65445   5.812  27.492  13.201
98663W        W65446   0.951  33.499  11.181
98664W        W65447   7.681  28.155   0.482
98665W        W65448  30.559   4.012  11.934
98666W        W65449   4.962  16.723  11.120
98667W        W65450  44.834  28.620   4.715
98668W        W65451  17.677  15.265   3.372
98669W        W65452   4.325  34.769  14.131
98670W        W65453  10.939  24.111  10.156
98671W        W65454  14.834  27.627   1.212
98672W        W65455  40.642  29.046  13.309
98673W        W65456  18.766   7.651   1.117
98674W        W65457  21.826   8.852  12.019
98675W        W65458  19.076  31.404   1.793
98676W        W65459  29.389   7.869  12.501
98677W        W65460  21.614  30.539  13.586
98678W        W65461  28.021   7.830   0.237
98679W        W65462  24.979  44.920   4.567
98680W        W65463   4.091  25.601  11.284
98681W        W65464  26.005  22.972   0.336
98682W        W65465   2.897  32.902  14.239
98683W        W65466  14.348  36.450   3.107
98684W        W65467   3.916  28.723  14.487
98685W        W65468  32.554   4.347   4.533
98686W        W65469   4.468   0.960   4.561
98687W        W65470  42.972  21.726   1.686
98688W        W65471   1.532  27.375  12.510
98689W        W65472   8.378  39.584   1.232
98690W        W65473   0.397   1.199  14.750
98691W        W65474  37.056  44.183   4.267
98692W        W65475   6.902  28.670  11.208
98693W        W65476  35.398  36.447  11.985
98694W        W65477  12.033  30.551   1.755
98695W        W65478  33.279  42.359  13.746
98696W        W65479  44.185   0.335   1.964
98697W        W65480  12.890  27.405   1.744
98698W        W65481  11.295  34.858   4.075
98699W        W65482  11.229   3.459  14.077
98700W        W65483  38.885  24.913   4.229
98701W        W65484  19.131  41.795   0.983
98702W        W65485  37.277  37.494  11.244
98703W        W65486   3.640  20.205   2.746
98704W        W65487  14.207   0.421   3.516
98705W        W65488  11.886  24.143   4.035
98706W        W65489  27.232  32.066   0.890
98707W        W65490  32.372  35.214   4.290
98708W        W65491  44.395   0.773   3.646
98709W        W65492  40.813  23.451  14.766
98710W        W65493  39.109  13.354  12.361
98711W        W65494  37.118  29.176  11.519
98712W        W65495  13.575  15.572  12.923
98713W        W65496   5.648  40.516   2.706
98714W        W65497  24.342   3.710   3.811
98715W        W65498   2.407   1.951   5.005
98716W        W65499  27.039  39.944   1.197
98717W        W65500   1.182  39.089   4.088
98718W        W65501  39.356  13.308   0.318
98719W        W65502  23.180  35.081   2.800
98720W        W65503  19.538  23.431  11.684
98721W        W65504  26.076  42.484  12.143
98722W        W65505   5.803  35.593  11.401
98723W        W65506  44.246   0.727  13.139
98724W        W65507   2.891   9.335   4.761
98725W        W65508  10.770   7.228   1.026
98726W        W65509   3.164   7.589   2.466
98727W        W65510   5.787  17.700   0.758
98728W        W65511  24.003  42.385   4.567
98729W        W65512  35.101  33.505   1.633
98730W        W65513   1.279  15.697  11.962
98731W        W65514  20.933  35.872   1.371
98732W        W65515   9.980  44.259  14.252
98733W        W65516  16.508  43.554  12.025
98734W        W65517  20.387  26.982  13.478
98735W        W65518  35.165  30.150  12.039
98736W        W65519   9.405  19.971   3.362
98737W        W65520  41.410  37.488  11.351
98738W        W65521  10.167  34.522   4.742
98739W        W65522  30.882  41.355   3.118
98740W        W65523   1.255  22.494  14.493
98741W        W65524  36.428  38.525   2.242
98742W        W65525   9.373   1.422  10.709
98743W        W65526   8.979   6.727   3.828
98744W        W65527   7.270  11.679   4.194
98745W        W65528  32.907   2.774  14.876
98746W        W65529   8.970  40.179  14.279
98747W        W65530  12.205  14.156   2.118
98748W        W65531  38.658  33.071   1.361
98749W        W65532  39.350  19.693   4.483
98750W        W65533  37.835  26.577   2.728
98751W        W65534   2.355  32.931  10.759
98752W        W65535  41.592   3.290   4.228
98753W        W65536   1.516  13.758  13.853
98754W        W65537  13.369   9.231  11.392
98755W        W65538  36.078  25.577  10.404
98756W        W65539   0.489  30.537  10.612
98757W        W65540  35.419  26.222   2.407
98758W        W65541  30.097  25.447   1.839
98759W        W65542  41.543  41.459   1.813
98760W        W65543  19.664  41.247  13.382
98761W        W65544  28.112  12.258   1.252
98762W        W65545  11.008  13.317  14.760
98763W        W65546   2.482  16.176   0.601
98764W        W65547  36.877   1.721   1.852
98765W        W65548  39.978  43.118   2.113
98766W        W65549  12.848  28.338  11.779
98767W        W65550  35.164  22.302   3.749
98768W        W65551   2.530   3.725   1.009
98769W        W65552   1.193  12.164   9.929
98770W        W65553  44.487  22.228   2.691
98771W        W65554  33.076  27.521   1.391
98772W        W65555   8.796  18.486   4.682
98773W        W65556  34.597   5.790   2.749
98774W        W65557  13.636   1.804  13.051
98775W        W65558  36.593  37.567   3.701
98776W        W65559   5.489  31.919   1.670
98777W        W65560  11.693   3.744   0.517
98778W        W65561  17.564  31.756   3.749
98779W        W65562  12.167  36.866  10.986
98780W        W65563  24.102  18.490  13.442
98781W        W65564  19.804   7.307   0.774
98782W        W65565   7.432  10.963   1.097
98783W        W65566   1.285  31.477  12.409
98784W        W65567  33.446  21.376   3.522
98785W        W65568  30.620  27.220  14.385
98786W        W65569   9.417  22.544  10.702
98787W        W65570  26.561  38.109  14.983
98788W        W65571  21.938  15.211  13.865
98789W        W65572  37.671  43.792   1.858
98790W        W65573   9.775  27.210   1.918
98791W        W65574   7.732   0.404   0.152
98792W        W65575  35.095   8.202   3.037
98793W        W65576  29.645   2.341  12.918
98794W        W65577  27.650   0.982  13.919
98795W        W65578  44.391  40.091  13.334
98796W        W65579  15.247  11.354  14.309
98797W        W65580   8.187   9.744  11.852
98798W        W65581  21.652   3.424   1.760
98799W        W65582   1.858  10.429  12.014
98800W        W65583  30.054   4.517  13.551
98801W        W65584  24.432  31.944   0.203
98802W        W65585  43.953  14.438  11.679
98803W        W65586  43.903  36.354   2.188
98804W        W65587  39.479  44.362  14.349
98805W        W65588  36.523  31.840   0.983
98806W        W65589   8.531   8.166  10.332
98807W        W65590  16.980  14.235   3.657
98808W        W65591  28.693  40.028  14.003
98809W        W65592  43.034  31.556   3.216
98810W        W65593   9.348   8.491  12.385
98811W        W65594  20.844  33.094  13.542
98812W        W65595  34.485   6.945   4.085
98813W        W65596  21.737  39.470   1.871
98814W        W65597  42.408  27.612   0.080
98815W        W65598  22.510  15.742   1.480
98816W        W65599  31.411  13.046  14.964
98817W        W65600  39.993  11.429   3.632
98818W        W65601  11.114   3.664  11.619
98819W        W65602  23.850  35.819   3.001
98820W        W65603  29.968  42.102  12.956
98821W        W65604   6.142  29.955  12.991
98822W        W65605  27.499  11.832   0.971
98823W        W65606  25.427   4.790  12.343
98824W        W65607  22.934   6.686   0.930
98825W        W65608  29.970  40.717   0.900
98826W        W65609   3.709   4.726  12.045
98827W        W65610  38.079  36.020   4.726
98828W        W65611  30.662  19.602   0.759
98829W        W65612   3.032  38.471  10.626
98830W        W65613   4.813  16.899   9.924
98831W        W65614  39.074  11.174   4.612
98832W        W65615  32.889  11.700  12.912
98833W        W65616  26.604  38.002   4.593
98834W        W65617  40.449  30.520  12.000
98835W        W65618  26.787  34.490   1.667
98836W        W65619   5.929  21.551   0.917
98837W        W65620  17.701  24.950  13.892
98838W        W65621  10.787   0.899   0.053
98839W        W65622  38.866  44.548   1.287
98840W        W65623  17.201  17.196   1.122
98841W        W65624  41.420   0.508  11.595
98842W        W65625  11.808  24.160  13.063
98843W        W65626  37.675   7.559   4.423
98844W        W65627  14.486   9.339  13.008
98845W        W65628   1.239  33.948   2.707
98846W        W65629  16.752  17.061   2.654
98847W        W65630  44.429  36.775   1.298
98848W        W65631  24.616  17.886  13.022
98849W        W65632   7.180  27.152  13.995
98850W        W65633   1.233  20.449   2.436
98851W        W65634  32.546   4.787   2.250
98852W        W65635   9.630   4.941  12.650
98853W        W65636  34.101  23.619  13.761
98854W        W65637  18.122  41.004   2.037
98855W        W65638   8.333   7.397   1.797
98856W        W65639  23.142  32.874  12.467
98857W        W65640   7.629  43.629  12.348
98858W        W65641  23.133  19.505   0.965
98859W        W65642  16.619  29.100   4.531
98860W        W65643  41.980  43.368  12.998
98861W        W65644  14.162   6.894   4.699
98862W        W65645  16.117  25.721  13.474
98863W        W65646  11.649  30.882  10.770
98864W        W65647  24.085  31.883  14.833
98865W        W65648  42.357  26.888  14.992
98866W        W65649  34.118   4.695  10.339
98867W        W65650  21.782  25.963   2.311
98868W        W65651  37.474  44.908   3.348
98869W        W65652  31.930  33.314  13.495
98870W        W65653  23.008   1.463   4.557
98871W        W65654  15.564  16.028  10.612
98872W        W65655  24.442  14.228  12.958
98873W        W65656  16.835  39.629   2.314
98874W        W65657  28.488  13.372   2.312
98875W        W65658  16.520  31.899  14.966
98876W        W65659   1.355  14.864  12.522
98877W        W65660  20.303   5.776   1.893
98878W        W65661  40.275  31.321  12.988
98879W        W65662   1.670  39.115   3.140
98880W        W65663   9.916  26.089   2.805
98881W        W65664   1.066   0.735   0.679
98882W        W65665  19.935   2.734   4.540
98883W        W65666  10.276  37.729  11.900
98884W        W65667  36.587  26.251   3.793
98885W        W65668  18.038  34.047   3.189
98886W        W65669  44.313  29.635  13.501
98887W        W65670  14.137  21.476  13.799
98888W        W65671   8.854   5.320   0.945
98889W        W65672  10.709  17.138   2.621
98890W        W65673   3.439  38.722   5.078
98891W        W65674  13.825  43.342  11.160
98892W        W65675  29.124  36.432  13.605
98893W        W65676   4.913  14.995   1.791
98894W        W65677   7.711  14.762   3.176
98895W        W65678  26.160  40.062   0.795
98896W        W65679  36.095  34.515   3.215
98897W        W65680  37.957  32.682  13.367
98898W        W65681  24.058  30.994   1.015
98899W        W65682  32.345  34.950  14.466
98900W        W65683  28.530  27.032  12.126
98901W        W65684  42.470   9.742  10.428
98902W        W65685  12.794  21.270  13.400
98903W        W65686  43.988   8.444  11.349
98904W        W65687   0.944  10.634  14.006
98905W        W65688  10.345  40.448   4.609
98906W        W65689  26.161   5.697   4.457
98907W        W65690  38.773  31.111   0.358
98908W        W65691  38.297  17.604  14.424
98909W        W65692   7.163  26.000   2.736
98910W        W65693  43.720  22.498  10.676
98911W        W65694  41.931  13.924  14.455
98912W        W65695  31.980   6.473   4.320
98913W        W65696   3.825  26.054   4.728
98914W        W65697  27.007   2.833  13.902
98915W        W65698   0.874  40.414   1.331
98916W        W65699  20.451  10.589   3.856
98917W        W65700  19.974  44.670  10.672
98918W        W65701  16.071  22.569   0.839
98919W        W65702  39.489  30.057  13.957
98920W        W65703  28.119  15.662  14.500
98921W        W65704   4.834  32.520   2.380
98922W        W65705  28.776  14.574  11.182
98923W        W65706   7.896  16.623   1.377
98924W        W65707  34.103  34.423   3.156
98925W        W65708   3.690  12.665  10.693
98926W        W65709  26.599  20.439  13.367
98927W        W65710  43.056  22.713   4.162
98928W        W65711  16.655   4.490   4.655
98929W        W65712   7.914  25.021  10.734
98930W        W65713  12.105  25.615  12.757
98931W        W65714  19.127  29.729  11.687
98932W        W65715   5.799  26.922   2.399
98933W        W65716  20.486  11.785  14.838
98934W        W65717  41.417  29.437  12.571
98935W        W65718  12.101  20.318   4.553
98936W        W65719  18.564  16.619   3.938
98937W        W65720  15.113  13.849   2.224
98938W        W65721  12.652  14.423  13.602
98939W        W65722   9.825   1.851   1.256
98940W        W65723   3.563  18.255  10.535
98941W        W65724  35.338  11.503  11.900
98942W        W65725  22.680   0.282   3.275
98943W        W65726   6.767  16.766   0.697
98944W        W65727  15.842  26.221   4.224
98945W        W65728  10.608  10.130   0.866
98946W        W65729   4.719   7.200  11.224
98947W        W65730  22.463   1.972   4.054
98948W        W65731  16.169   2.062   0.279
98949W        W65732  10.889  22.021   1.408
98950W        W65733  24.648  15.232  11.596
98951W        W65734   8.283   8.188  13.912
98952W        W65735   1.041  37.043  14.914
98953W        W65736  24.433  27.568   0.025
98954W        W65737  32.418  34.522   1.261
98955W        W65738  11.084  41.096   1.431
98956W        W65739   0.066  22.829   0.405
98957W        W65740  35.388  44.934  11.187
98958W        W65741   5.258  36.451   0.456
98959W        W65742  13.301  16.612  12.933
98960W        W65743   4.713  20.330   0.457
98961W        W65744  28.543  31.547   4.379
98962W        W65745   4.113   5.483  11.604
98963W        W65746   1.343   8.387   3.544
98964W        W65747  27.714  40.949   3.864
98965W        W65748   1.307  13.748   1.555
98966W        W65749  29.594  33.777   1.763
98967W        W65750  35.052  27.208  14.541
98968W        W65751  19.145  18.802   2.844
98969W        W65752   4.150  42.103  12.712
98970W        W65753  40.375  30.161  12.412
98971W        W65754   8.619   3.343  13.232
98972W        W65755  16.898  40.998  11.859
98973W        W65756  31.456  21.573   1.163
98974W        W65757  25.611  44.260   3.582
98975W        W65758  20.248   3.501   0.475
98976W        W65759  12.810   9.774  14.315
98977W        W65760   9.603  43.343  12.550
98978W        W65761  15.778  26.791   5.189
98979W        W65762  32.554   7.656  12.532
98980W        W65763  37.144  22.004   1.323
98981W        W65764  20.208  27.681   0.880
98982W        W65765  26.431  21.625   4.415
98983W        W65766  36.289  20.114  13.782
98984W        W65767  41.699  37.552  10.907
98985W        W65768  30.651  34.976  12.897
98986W        W65769  15.895   2.980  14.976
98987W        W65770  12.605  27.703  11.153
98988W        W65771   3.944  33.676  11.202
98989W        W65772  29.726  32.861  12.569
98990W        W65773  33.891   4.723   2.314
98991W        W65774  24.033   9.184   3.833
98992W        W65775   1.203  28.908  12.459
98993W        W65776   3.807  10.503   1.032
98994W        W65777  23.103  25.694   0.363
98995W        W65778  17.917   7.476   1.700
98996W        W65779  10.782  17.602  10.572
98997W        W65780   2.474  42.948  10.525
98998W        W65781   2.560  20.733  12.357
98999W        W65782  38.432  16.277  14.542
99000W        W65783  30.024  34.625   4.100
99001W        W65784   9.219  13.259  12.596
99002W        W65785  26.742  17.754  11.012
99003W        W65786  34.141   5.817   3.518
99004W        W65787   2.383  22.841   4.064
99005W        W65788  13.803   5.514  13.489
99006W        W65789  34.839   4.696  10.610
99007W        W65790  29.166  37.307   2.868
99008W        W65791  32.607  26.235   1.305
99009W        W65792  23.129  38.037  11.448
99010W        W65793  35.019  19.760   3.570
99011W        W65794  15.534   9.211   4.591
99012W        W65795   4.164  40.705   0.819
99013W        W65796   3.362  37.863  14.177
99014W        W65797  41.613  33.565  13.344
99015W        W65798  22.751  14.009  14.412
99016W        W65799  30.078   8.684   3.330
99017W        W65800  30.552  40.632  11.654
99018W        W65801  23.914  31.501  10.557
99019W        W65802  27.076  44.808  13.556
99020W        W65803  13.647  15.228   2.116
99021W        W65804  17.285  35.332   5.103
99022W        W65805  43.749   1.391   4.136
99023W        W65806   8.144  24.046   1.450
99024W        W65807   0.799  31.262   1.851
99025W        W65808  40.016  36.231  12.042
99026W        W65809  38.571  26.164   2.225
99027W        W65810  15.179   7.103  13.984
99028W        W65811  14.108  32.037   3.759
99029W        W65812  13.745  40.581  14.967
99030W        W65813  36.552  43.436   3.208
99031W        W65814  19.921  34.688  13.802
99032W        W65815  30.485  36.501  13.126
99033W        W65816   4.400  30.975   4.829
99034W        W65817  28.242  29.053  10.973
99035W        W65818  12.318   4.905  13.407
99036W        W65819   6.500  35.415   4.058
99037W        W65820   1.848  31.427   2.600
99038W        W65821  10.672  17.675   2.447
99039W        W65822  35.909   5.307   3.686
99040W        W65823   0.367  29.254  13.788
99041W        W65824   1.413  25.520  12.613
99042W        W65825  27.225  24.739   3.662
99043W        W65826   1.916  29.524   4.095
99044W        W65827  18.302  11.536  12.128
99045W        W65828  17.183  21.028  10.659
99046W        W65829  26.137  25.737  12.468
99047W        W65830  29.453  40.643   0.924
99048W        W65831  34.677  18.200  13.992
99049W        W65832  24.614  28.729   3.354
99050W        W65833  28.144   1.262  11.502
99051W        W65834   1.954   2.380  12.669
99052W        W65835   8.446  21.751   2.000
99053W        W65836   8.813  34.745  11.061
99054W        W65837  23.795  17.838  12.750
99055W        W65838  42.127  36.483  14.969
99056W        W65839  11.633   0.502   0.277
99057W        W65840  18.571  16.547   0.725
99058W        W65841  31.672  22.930   4.181
99059W        W65842   3.986  10.733   3.812
99060W        W65843  36.149  44.617  10.855
99061W        W65844  31.533  40.343   4.627
99062W        W65845  14.129   4.224  12.569
99063W        W65846  20.381  14.643  14.790
99064W        W65847  42.976  19.713  14.923
99065W        W65848  16.352  36.573  14.816
99066W        W65849  42.969  42.248  10.848
99067W        W65850   6.882  17.101  12.425
99068W        W65851  15.825  22.783   4.017
99069W        W65852  17.754  44.749  13.940
99070W        W65853  13.151  42.807  13.821
99071W        W65854  24.626  19.592   4.535
99072W        W65855   9.959   5.290   3.740
99073W        W65856   2.511   9.796   3.890
99074W        W65857  19.570  23.643  11.204
99075W        W65858  20.049  18.579   1.742
99076W        W65859  35.632  21.447   3.740
99077W        W65860  35.357   9.862  13.768
99078W        W65861   1.312  19.123   4.624
99079W        W65862  38.048   3.794   2.733
99080W        W65863   5.462  14.686   2.002
99081W        W65864   6.297  35.503  11.278
99082W        W65865  10.205  43.813  12.110
99083W        W65866  40.282  25.010   5.117
99084W        W65867   3.915  10.633  11.611
99085W        W65868  21.443  43.850   4.964
99086W        W65869  44.326  35.624  12.953
99087W        W65870  18.759  20.168  12.099
99088W        W65871  36.523   8.323  11.147
99089W        W65872   6.615  37.836  11.597
99090W        W65873  34.621  31.542   4.221
99091W        W65874  25.428  32.583   3.306
99092W        W65875  42.285  27.130   2.563
99093W        W65876   6.621  18.899   1.312
99094W        W65877  36.517   4.452   0.440
99095W        W65878  16.035  32.109   0.383
99096W        W65879  41.041  43.445   4.771
99097W        W65880   8.825  16.324   2.847
99098W        W65881   5.610  28.593   4.798
99099W        W65882  16.825  43.663  11.019
99100W        W65883  18.073   7.802   4.584
99101W        W65884  32.813  22.061  14.221
99102W        W65885   6.643  28.155   0.672
99103W        W65886  11.437  27.140  14.031
99104W        W65887   9.767  13.475  10.743
99105W        W65888  12.427  11.641   9.598
99106W        W65889  12.982  26.392  11.436
99107W        W65890  12.027  15.095   3.208
99108W        W65891  20.005  20.323  11.164
99109W        W65892  32.138  40.446   3.350
99110W        W65893  19.356  16.873  10.979
99111W        W65894   1.862  19.444   0.904
99112W        W65895  27.436  35.985  14.868
99113W        W65896  39.861  14.386  11.647
99114W        W65897   9.173  17.652  12.576
99115W        W65898  27.126  44.486   1.923
99116W        W65899  38.353  10.721   3.282
99117W        W65900  36.687  36.452   4.590
99118W        W65901  22.603  27.860  14.892
99119W        W65902  41.845  25.640  10.252
99120W        W65903  29.780  41.348  13.889
99121W        W65904  30.668  42.020  14.410
99122W        W65905  17.127  24.799   0.235
99123W        W65906  17.489  12.092   3.216
99124W        W65907  35.121  34.356   3.381
99125W        W65908   3.799  40.381  10.628
99126W        W65909  29.148  31.034   4.669
99127W        W65910  30.832  11.115  14.954
99128W        W65911  11.690  31.174   3.949
99129W        W65912  26.177  13.784   3.735
99130W        W65913  13.627  29.917  11.398
99131W        W65914   0.888  30.393   3.381
99132W        W65915  37.487  13.196  12.922
99133W        W65916  19.197  16.333   0.892
99134W        W65917  23.143  23.474   2.669
99135W        W65918  27.018  29.990  14.601
99136W        W65919  20.578  40.846  14.255
99137W        W65920   5.189   6.697  11.954
99138W        W65921  34.314  15.692  13.448
99139W        W65922  16.405  19.742   5.077
99140W        W65923  16.156  31.522  14.026
99141W        W65924  24.700  38.867  14.849
99142W        W65925   1.275   1.000  14.414
99143W        W65926   2.191  10.933  11.673
99144W        W65927  39.405  30.842  13.615
99145W        W65928  39.937  33.923   1.967
99146W        W65929  40.314  44.905  14.266
99147W        W65930  42.473  29.710  14.938
99148W        W65931   7.969   3.852   4.047
99149W        W65932  37.182  19.048  10.764
99150W        W65933  22.576  28.978   3.589
99151W        W65934  20.667   2.793   1.506
99152W        W65935  23.068  15.735  11.027
99153W        W65936  29.717   9.682  13.920
99154W        W65937  13.192  19.083  14.457
99155W        W65938  38.778  14.274   3.717
99156W        W65939  20.254  32.907  11.676
99157W        W65940  17.596  16.003   2.659
99158W        W65941  22.776   3.380  11.581
99159W        W65942  14.587   1.792  13.482
99160W        W65943  21.415  27.664   1.284
99161W        W65944  37.356  16.284   0.316
99162W        W65945  17.951  22.248   4.543
99163W        W65946  15.569  24.727  14.993
99164W        W65947  18.283   9.167  10.694
99165W        W65948   7.493  25.248   2.328
99166W        W65949  22.265  31.959   1.421
99167W        W65950   3.340  28.134   0.924
99168W        W65951  28.937  20.835   1.346
99169W        W65952  22.724  28.484   1.674
99170W        W65953  21.212   1.420   4.236
99171W        W65954  26.693  28.543  11.626
99172W        W65955  28.678  33.174   0.898
99173W        W65956  22.696  19.083   3.114
99174W        W65957  24.467  37.382  11.656
99175W        W65958   8.982  26.601   1.759
99176W        W65959  44.000  21.599  14.231
99177W        W65960   9.348   2.413  10.422
99178W        W65961  40.417  17.688  12.840
99179W        W65962  36.553  43.979   0.706
99180W        W65963  42.450   3.004   1.228
99181W        W65964  44.506  22.612  12.311
99182W        W65965  12.596  31.654   5.049
99183W        W65966   9.292  19.524   1.731
99184W        W65967  25.417  36.993  14.664
99185W        W65968  39.113  16.747  12.873
99186W        W65969  17.765  42.522  14.242
99187W        W65970  44.412  21.028   0.796
99188W        W65971  29.561  17.036   4.905
99189W        W65972  21.992   4.700  14.881
99190W        W65973   5.395   1.370   2.792
99191W        W65974  11.600  26.076  14.542
99192W        W65975  31.407  22.607   2.916
99193W        W65976  41.865  40.614   0.528
99194W        W65977   7.354  21.454  13.908
99195W        W65978  24.483  41.865  13.343
99196W        W65979  29.701  23.180   0.758
99197W        W65980  34.994  30.531  10.393
99198W        W65981  24.136  33.184  11.200
99199W        W65982  24.148  10.560  14.898
99200W        W65983  28.914  40.850  13.700
99201W        W65984  11.621  44.049  10.479
99202W        W65985   2.483  37.298   2.346
99203W        W65986  13.809  14.325   1.283
99204W        W65987  21.597  13.929   9.779
99205W        W65988  23.202   6.885   0.547
99206W        W65989  29.820  25.316  11.251
99207W        W65990   6.728  37.813  12.099
99208W        W65991  14.146  11.254   3.660
99209W        W65992  26.975  16.276  11.226
99210W        W65993   4.910  26.960  12.966
99211W        W65994  22.544   9.390   3.773
99212W        W65995  32.460  43.268   0.478
99213W        W65996  17.069  43.947  10.388
99214W        W65997  20.479  22.651   1.258
99215W        W65998  14.707  25.474   2.969
99216W        W65999  24.458  28.500  13.465
99217W        W66000  16.577   9.124  11.241
99218W        W66001  30.906   8.126  12.833
99219W        W66002   0.349  42.042   1.771
99220W        W66003  20.937   8.122   2.786
99221W        W66004  37.978   6.002  13.271
99222W        W66005  42.276  35.980   2.961
99223W        W66006   6.974  18.787  10.989
99224W        W66007  40.515  41.542   4.697
99225W        W66008  15.608   2.348   0.746
99226W        W66009  20.631  34.860   0.398
99227W        W66010  19.591   6.822  13.603
99228W        W66011  35.127  25.487   2.966
99229W        W66012   1.184   0.261   0.496
99230W        W66013  15.718  20.250   4.596
99231W        W66014   2.419  37.762   3.767
99232W        W66015  24.472  19.359  11.970
99233W        W66016   1.408   3.121  11.895
99234W        W66017  28.147   5.413  12.506
99235W        W66018  13.343  23.963  13.774
99236W        W66019  26.239  25.959   0.327
99237W        W66020  31.052  33.756  14.316
99238W        W66021  19.135  43.445   0.705
99239W        W66022  28.961  16.738   4.961
99240W        W66023  29.176  27.153   2.259
99241W        W66024  39.438  31.695  13.117
99242W        W66025  26.543  41.475   4.282
99243W        W66026  25.399  38.298   2.395
99244W        W66027   3.718  28.190   0.526
99245W        W66028   9.104   7.284  14.476
99246W        W66029   0.893  11.382   2.728
99247W        W66030   5.173  17.976  11.748
99248W        W66031  38.222  17.753   0.305
99249W        W66032   7.517  30.653  12.395
99250W        W66033  23.681  10.767  10.636
99251W        W66034  32.437   1.543  12.911
99252W        W66035  38.901  18.088  13.372
99253W        W66036  41.448  31.308  10.625
99254W        W66037  31.950  28.913  14.838
99255W        W66038  11.523  38.515   5.549
99256W        W66039  34.470  15.143  10.446
99257W        W66040  33.995  25.484  14.319
99258W        W66041  15.066  40.485   2.778
99259W        W66042  13.112  23.568   1.959
99260W        W66043  14.753  23.473   1.302
99261W        W66044  36.460  13.565   3.895
99262W        W66045  42.042  12.723  13.780
99263W        W66046  35.567  35.393   1.396
99264W        W66047   6.526  29.488  13.928
99265W        W66048   9.632  20.507   2.263
99266W        W66049  24.365   1.280  13.541
99267W        W66050  17.768  30.372  13.853
99268W        W66051   6.206   7.769  13.383
99269W        W66052  14.590  25.977   2.877
99270W        W66053   9.763  11.915  10.591
99271W        W66054  14.635  29.403   0.791
99272W        W66055  23.558   5.119  14.877
99273W        W66056   4.180  28.137   0.284
99274W        W66057   6.113  40.554   4.215
99275W        W66058  13.618  11.177   3.715
99276W        W66059   3.834  17.167  11.253
99277W        W66060  11.103   7.406   3.398
99278W        W66061  24.995   5.776  13.454
99279W        W66062  16.826  15.118  13.013
99280W        W66063  25.541  11.710   5.016
99281W        W66064  34.583  26.385   2.148
99282W        W66065  17.532  25.139   4.419
99283W        W66066   2.309   3.234   2.267
99284W        W66067  28.505  32.444   3.602
99285W        W66068  22.960   1.350   0.767
99286W        W66069   8.475  21.778  12.777
99287W        W66070  32.784   1.527  13.868
99288W        W66071  27.473  33.485  11.370
99289W        W66072  42.124  44.945   3.320
99290W        W66073  38.068   5.431  11.145
99291W        W66074  11.791  33.536   3.442
99292W        W66075   2.284   6.096  10.214
99293W        W66076  15.714  16.802   1.382
99294W        W66077  14.785  28.408  10.788
99295W        W66078  41.779   2.493  12.198
99296W        W66079  31.414  31.833  12.511
99297W        W66080   1.036  41.375  11.237
99298W        W66081   4.683  29.092   2.347
99299W        W66082   0.198  37.145   1.765
99300W        W66083  37.564   4.932   4.113
99301W        W66084  24.981  43.767  11.923
99302W        W66085  25.250  37.540   0.280
99303W        W66086  40.604  24.515  13.479
99304W        W66087  30.373  37.744  14.872
99305W        W66088   3.306   8.448   1.148
99306W        W66089  40.375   9.691   0.338
99307W        W66090   2.886  34.043  10.705
99308W        W66091  16.985  27.264  11.084
99309W        W66092  10.409  19.821  10.707
99310W        W66093  25.211   7.375  12.422
99311W        W66094  18.191   0.380  13.616
99312W        W66095   5.792  24.505   0.170
99313W        W66096   7.795  34.145   2.852
99314W        W66097  35.555   2.293   2.821
99315W        W66098  39.532   0.461   1.664
99316W        W66099  24.681   9.372  12.693
99317W        W66100  18.153   4.996   2.679
99318W        W66101  12.106   1.225   4.542
99319W        W66102  23.271  32.218   4.504
99320W        W66103  22.462   2.755   3.084
99321W        W66104   1.338  36.187  10.709
99322W        W66105   4.888  21.063  12.371
99323W        W66106  40.480   0.658  13.768
99324W        W66107  15.261   2.797   4.481
99325W        W66108  35.177  25.632   0.832
99326W        W66109   1.982  19.915  13.057
99327W        W66110  26.189   2.292   1.627
99328W        W66111   3.394  44.483   3.777
99329W        W66112  26.794  13.209  10.825
99330W        W66113  11.089  18.342  11.055
99331W        W66114  19.757  10.589   0.893
99332W        W66115  22.872  32.051  14.568
99333W        W66116  26.514   1.793   1.013
99334W        W66117  41.428  36.395  12.632
99335W        W66118  32.694  38.826  11.482
99336W        W66119   1.219  23.158   1.447
99337W        W66120  15.858  33.472  14.044
99338W        W66121  18.670  21.576  14.627
99339W        W66122   5.481  30.521   1.948
99340W        W66123  32.493  22.501   0.095
99341W        W66124  38.078  25.661   2.330
99342W        W66125  35.067   9.611  12.072
99343W        W66126  36.809  18.237   4.929
99344W        W66127   9.186  21.223  12.412
99345W        W66128  13.586  24.062   2.236
99346W        W66129   4.306   6.609  14.367
99347W        W66130  17.825  24.538  14.724
99348W        W66131  23.948  30.215   2.432
99349W        W66132  31.943   6.680  10.337
99350W        W66133  38.838  24.691  11.670
99351W        W66134  19.831  32.990  13.615
99352W        W66135  10.691  19.564   1.415
99353W        W66136  33.876  16.863   3.579
99354W        W66137  28.127  32.770  11.499
99355W        W66138   7.731  15.805  12.951
99356W        W66139   9.817  37.400  13.968
99357W        W66140  42.348  12.866  11.864
99358W        W66141  23.859   4.126  14.760
99359W        W66142  34.671   5.065  11.981
99360W        W66143  39.788  20.156   0.947
99361W        W66144  37.817  10.972  11.457
99362W        W66145   5.962  22.886  11.259
99363W        W66146  38.235  39.341   4.024
99364W        W66147  36.544  22.933   2.217
99365W        W66148  24.058  32.363  12.493
99366W        W66149  19.594  40.159   4.054
99367W        W66150  18.580  13.678  14.161
99368W        W66151  37.981  17.117  13.592
99369W        W66152  42.718  39.215  11.057
99370W        W66153  37.413   2.294   4.064
99371W        W66154  34.091  16.102  14.587
99372W        W66155  16.626  28.637   3.753
99373W        W66156  41.446  15.383   4.422
99374W        W66157  34.278   2.746  11.154
99375W        W66158  21.199  34.556  14.354
99376W        W66159  29.975  35.969   3.757
99377W        W66160  42.004  13.372   2.667
99378W        W66161  12.223   9.707  12.970
99379W        W66162  40.432  22.739   0.877
99380W        W66163  17.903  37.966   5.511
99381W        W66164  28.382  20.683  13.539
99382W        W66165  32.090  15.094   1.861
99383W        W66166  24.806  33.049   1.796
99384W        W66167  15.673   0.936  13.004
99385W        W66168  10.296  14.092   0.775
99386W        W66169  28.989  24.286  12.043
99387W        W66170  30.247   5.195   1.755
99388W        W66171  11.840  21.751  14.911
99389W        W66172   7.317  34.330  14.859
99390W        W66173  43.882  23.557  12.116
99391W        W66174  12.111   3.052   2.196
99392W        W66175   3.229  23.435   2.376
99393W        W66176   4.765  15.827   2.695
99394W        W66177  38.775   8.934   1.925
99395W        W66178  36.157  24.044   2.806
99396W        W66179  14.599   5.779   4.097
99397W        W66180   8.141  17.025  14.499
99398W        W66181   3.223  32.178   0.327
99399W        W66182  39.779  44.680   0.499
99400W        W66183  15.391  15.469  12.416
99401W        W66184  12.122  41.124   3.171
99402W        W66185   5.956  33.915  12.330
99403W        W66186  17.037  16.674   1.806
99404W        W66187  40.424  34.358  14.491
99405W        W66188   5.376  27.435   0.490
99406W        W66189  18.602  36.603  13.894
99407W        W66190  35.124  18.097  10.683
99408W        W66191  30.444  32.895   2.347
99409W        W66192  23.186  43.902   3.315
99410W        W66193  23.612  44.166   1.852
99411W        W66194  14.358  37.306  11.175
99412W        W66195   9.374  24.681   3.938
99413W        W66196  23.422  17.835  13.485
99414W        W66197  38.597  10.769   1.514
99415W        W66198  24.447  20.647  14.053
99416W        W66199  43.916  18.744  11.568
99417W        W66200   0.029  38.256   3.589
99418W        W66201  38.174   8.761  11.313
99419W        W66202  27.459  19.821  11.538
99420W        W66203  36.441  28.327   1.435
99421W        W66204  33.045   1.834  13.092
99422W        W66205  24.379  26.659  13.130
99423W        W66206  17.635  25.465  12.456
99424W        W66207  23.395  28.903   4.528
99425W        W66208  31.021  39.878  11.523
99426W        W66209  29.711  14.142  11.971
99427W        W66210  28.691  19.488   3.198
99428W        W66211  22.296   8.656   3.246
99429W        W66212  27.606  25.675   2.880
99430W        W66213  13.309   1.513  11.119
99431W        W66214   4.794  17.413   4.119
99432W        W66215  32.463  26.033   4.146
99433W        W66216   7.030  15.216   4.460
99434W        W66217  30.043  43.525   1.686
99435W        W66218  15.812   2.764  14.257
99436W        W66219  40.988  16.830   0.949
99437W        W66220  31.072  19.701  14.334
99438W        W66221   5.847  38.581  13.301
99439W        W66222  25.986  24.220  12.820
99440W        W66223   0.946  39.978  11.852
99441W        W66224  28.393  16.724  14.732
99442W        W66225  38.046   4.452   4.100
99443W        W66226  26.173   1.728   3.177
99444W        W66227   1.454   6.956  10.941
99445W        W66228  15.620  15.725  13.721
99446W        W66229  41.849  42.776   0.228
99447W        W66230  36.533  41.980  10.901
99448W        W66231  33.073  16.154  14.823
99449W        W66232  22.024  24.675  14.454
99450W        W66233  11.305  35.124  11.425
99451W        W66234  32.624  24.469  13.007
99452W        W66235  35.970  28.760  11.638
99453W        W66236  16.111   4.367  10.696
99454W        W66237  23.966  29.690   2.383
99455W        W66238  17.617  35.342  12.764
99456W        W66239   4.667  14.568   0.417
99457W        W66240   6.956  12.219  11.116
99458W        W66241   8.254  14.097   0.422
99459W        W66242  13.167  44.892  14.549
99460W        W66243  20.575   2.269  14.828
99461W        W66244   7.710  39.090  12.534
99462W        W66245  18.027   6.607  11.580
99463W        W66246   7.563  36.448  11.097
99464W        W66247   0.635  39.218   0.964
99465W        W66248  30.418  26.118  12.870
99466W        W66249   5.614  36.045  10.295
99467W        W66250  28.431  44.333   0.309
99468W        W66251   7.761   3.783   3.561
99469W        W66252  29.992  16.843  14.936
99470W        W66253  25.984   4.693  12.993
99471W        W66254   1.558  19.576  14.482
99472W        W66255  34.532  17.124   0.468
99473W        W66256  17.353  34.106   1.415
99474W        W66257   4.470  14.194  11.254
99475W        W66258  15.124  34.458   2.235
99476W        W66259   3.255  29.400   2.121
99477W        W66260  18.091   1.873   3.299
99478W        W66261  29.966   3.934   3.577
99479W        W66262  31.959  19.241   2.732
99480W        W66263   8.248  31.103  14.497
99481W        W66264   4.400  12.219   0.846
99482W        W66265  34.417  33.719  14.408
99483W        W66266   9.780  20.113   1.332
99484W        W66267  43.943  13.562   1.548
99485W        W66268  11.806  11.592  11.905
99486W        W66269  20.517  33.874   2.131
99487W        W66270  12.678  36.117   1.901
99488W        W66271  11.877  26.363   4.928
99489W        W66272  12.067  38.040  12.343
99490W        W66273  14.208  18.149   1.776
99491W        W66274  27.612  21.569  13.984
99492W        W66275  11.860  22.947   3.245
99493W        W66276  30.792  24.558   0.258
99494W        W66277  18.141  20.562  10.631
99495W        W66278   7.586  44.197  11.510
99496W        W66279  29.764   0.954  14.102
99497W        W66280  29.095   0.323   1.789
99498W        W66281  21.887   1.366  12.913
99499W        W66282   0.656  26.018  14.087
99500W        W66283  43.536   7.005  11.595
99501W        W66284   5.417  44.893  11.949
99502W        W66285  41.506  28.966  11.643
99503W        W66286  24.136   5.246   3.594
99504W        W66287  37.355   1.516  12.571
99505W        W66288  35.347  40.512   0.925
99506W        W66289  36.841  42.032  12.139
99507W        W66290  28.023  32.110   1.405
99508W        W66291  18.684  35.081   1.287
99509W        W66292  19.571  43.734   0.809
99510W        W66293  10.941  23.488   4.756
99511W        W66294  37.716  15.774   4.239
99512W        W66295  15.869  18.828  13.939
99513W        W66296  12.987   6.434  13.953
99514W        W66297  20.082  10.934  13.092
99515W        W66298  21.409  39.084  12.431
99516W        W66299  42.607  40.399  13.616
99517W        W66300   6.983   8.694   4.201
99518W        W66301   5.442  42.706  14.655
99519W        W66302   9.603   5.896   0.520
99520W        W66303   9.373  11.803  14.858
99521W        W66304  21.633  23.258  13.100
99522W        W66305   1.549   7.748  13.155
99523W        W66306  43.555  39.285   0.267
99524W        W66307  38.861  14.361  14.384
99525W        W66308  10.892  42.727   5.091
99526W        W66309  13.644  14.194  11.159
99527W        W66310  33.091  14.164   1.529
99528W        W66311  29.493  41.227   0.195
99529W        W66312  36.051  25.186   1.837
99530W        W66313  24.575  25.787  13.140
99531W        W66314  38.530  42.066  10.720
99532W        W66315   5.951   6.659  13.871
99533W        W66316  37.260  12.181  13.054
99534W        W66317  17.375  30.113   4.961
99535W        W66318  28.876   5.142  11.963
99536W        W66319   8.260  24.506   0.356
99537W        W66320  34.532  37.542   2.682
99538W        W66321  34.274   0.643  11.144
99539W        W66322  23.945   7.147  12.580
99540W        W66323  20.635  11.350  11.492
99541W        W66324  21.270  22.938   3.906
99542W        W66325   8.943   2.365  12.699
99543W        W66326  16.561  37.031   2.222
99544W        W66327  42.832  33.947  13.517
99545W        W66328  11.688  43.336  10.106
99546W        W66329  38.080  29.657   0.348
99547W        W66330  29.859  21.665  10.333
99548W        W66331  41.875  36.163   4.580
99549W        W66332  18.262  10.473   3.555
99550W        W66333  14.745   5.794   1.774
99551W        W66334  31.443  36.861  14.578
99552W        W66335  12.294  25.026  11.975
99553W        W66336  43.176  43.516  11.021
99554W        W66337  24.121  35.050   0.702
99555W        W66338  40.242  43.375  11.249
99556W        W66339  24.432  18.186   2.880
99557W        W66340  29.494  15.325   3.859
99558W        W66341  39.828  18.990   2.776
99559W        W66342  20.846  13.274   4.140
99560W        W66343  26.725  16.143   2.862
99561W        W66344  42.943  36.955  12.384
99562W        W66345  21.140  32.925  10.618
99563W        W66346   4.653  11.960  11.673
99564W        W66347  14.228   7.485  13.065
99565W        W66348   2.771  29.576   3.251
99566W        W66349  17.524  44.195   3.197
99567W        W66350  32.244  12.691   3.187
99568W        W66351  39.124  17.292   0.413
99569W        W66352  43.472  13.139  12.984
99570W        W66353  37.453  10.203  13.743
99571W        W66354  37.910   5.930   2.388
99572W        W66355  44.235   0.879   1.306
99573W        W66356  33.041   6.440  14.776
99574W        W66357  11.594   9.418   1.669
99575W        W66358   0.754   1.295  10.374
99576W        W66359  36.150  44.505  14.049
99577W        W66360  33.380  24.600   0.261
99578W        W66361  29.384  20.251  12.608
99579W        W66362  24.415   1.030  11.099
99580W        W66363  39.984   2.198  12.820
99581W        W66364  23.719  40.373  11.990
99582W        W66365  24.996  27.891   4.165
99583W        W66366  12.777  35.091  12.901
99584W        W66367  38.755  43.152   3.754
99585W        W66368  13.867   5.268   3.179
99586W        W66369  20.690  13.316  14.944
99587W        W66370  10.831  27.164   4.182
99588W        W66371   5.833  21.408  12.397
99589W        W66372  25.245  44.746  10.931
99590W        W66373  35.869  24.068  12.556
99591W        W66374  19.536  39.458  11.927
99592W        W66375  32.005   9.301  12.235
99593W        W66376   3.941  23.564   4.768
99594W        W66377  20.293  16.781  14.861
99595W        W66378  42.239  22.152  12.535
99596W        W66379   4.657  10.809  14.473
99597W        W66380   0.243  33.573   1.914
99598W        W66381  33.348   1.381  10.398
99599W        W66382   0.074  22.031  12.520
99600W        W66383  39.366  44.233  10.686
99601W        W66384  26.976  29.607   0.429
99602W        W66385  13.510   1.934   1.655
99603W        W66386  37.923   7.906  12.069
99604W        W66387  37.410  37.130  10.486
99605W        W66388  15.690  40.233   3.030
99606W        W66389   1.459  13.796  10.724
99607W        W66390  44.114  35.067  14.549
99608W        W66391  21.322   6.234  10.486
99609W        W66392  22.904  35.335  14.948
99610W        W66393  20.782  24.175   3.742
99611W        W66394   0.281  11.202   3.773
99612W        W66395  42.829  42.305   0.400
99613W        W66396   4.164  41.630  10.443
99614W        W66397  17.621  22.617   0.966
99615W        W66398  21.616  40.348  14.540
99616W        W66399  40.150  22.698  14.473
99617W        W66400  23.715  30.742  11.960
99618W        W66401   8.583  43.522  12.618
99619W        W66402  44.783   8.703   2.139
99620W        W66403  25.727  33.148  13.297
99621W        W66404  26.208  22.235  12.384
99622W        W66405  36.358  24.103   0.415
99623W        W66406   5.329   6.454   1.890
99624W        W66407   2.522   3.474   3.223
99625W        W66408  29.341  32.420  11.309
99626W        W66409   6.411  21.611   3.549
99627W        W66410  17.105  41.777  14.303
99628W        W66411  25.627   5.721   4.579
99629W        W66412  38.289  16.697  13.273
99630W        W66413  20.133  35.627   0.399
99631W        W66414   1.447   3.238   3.246
99632W        W66415  37.494   2.327   1.143
99633W        W66416  39.020  42.987   2.124
99634W        W66417  17.771  29.463   0.481
99635W        W66418  13.577   4.014  11.047
99636W        W66419  42.281  42.188  14.108
99637W        W66420   3.477  41.016   1.449
99638W        W66421  24.340   5.421  14.812
99639W        W66422   8.207  29.325   1.511
99640W        W66423  42.468   7.047   0.372
99641W        W66424  11.598  35.491   3.058
99642W        W66425  38.726  36.498  10.396
99643W        W66426   5.801  17.798   2.280
99644W        W66427   1.175  35.086   4.799
99645W        W66428  35.605   5.711  12.415
99646W        W66429  17.144  40.039  14.017
99647W        W66430  28.020   5.332  14.107
99648W        W66431   8.398  36.578   2.644
99649W        W66432  40.072  37.484  11.621
99650W        W66433  10.974   5.164   3.577
99651W        W66434  44.260   7.962  13.525
99652W        W66435  18.367   7.827   2.871
99653W        W66436  24.489   9.749  13.605
99654W        W66437  22.714  34.863   2.780
99655W        W66438   7.741  14.317   5.085
99656W        W66439  14.729   1.216   0.276
99657W        W66440   3.280  42.543   3.854
99658W        W66441   8.793  15.375  11.946
99659W        W66442   2.922  32.175  10.684
99660W        W66443   3.724   0.812   4.296
99661W        W66444  17.198  11.535  10.984
99662W        W66445   4.935   6.783  10.989
99663W        W66446   2.424  13.858   1.743
99664W        W66447  43.560  12.880   4.204
99665W        W66448  39.547  26.907   0.926
99666W        W66449  10.753  18.120  11.845
99667W        W66450  22.984  13.830   3.320
99668W        W66451  39.346  44.280  12.471
99669W        W66452   9.985  16.909  14.459
99670W        W66453  35.122   6.787   0.417
99671W        W66454   7.694  41.772  14.246
99672W        W66455  31.424   1.695   2.891
99673W        W66456  24.997   7.266   4.783
99674W        W66457  43.476  37.384  13.036
99675W        W66458  23.486  15.212  12.533
99676W        W66459  14.907  41.446  12.958
99677W        W66460  28.155  43.581  14.831
99678W        W66461  44.691  38.391  10.533
99679W        W66462  37.503  24.437  11.436
99680W        W66463   0.143   9.309  12.713
99681W        W66464   8.071  19.133  14.191
99682W        W66465  42.313   5.210   5.398
99683W        W66466   4.658  28.420   2.693
99684W        W66467  33.117  31.766  13.850
99685W        W66468  28.910   5.851   4.143
99686W        W66469   4.437  16.562  10.381
99687W        W66470  35.929  29.708  12.487
99688W        W66471   5.997  39.098   2.794
99689W        W66472  35.655  32.161  10.739
99690W        W66473  38.362   5.245  11.511
99691W        W66474  31.116  16.047  13.576
99692W        W66475   7.211   1.227   4.419
99693W        W66476  20.917  37.832   3.616
99694W        W66477  32.821  23.619   2.366
99695W        W66478  25.890  25.035   1.614
99696W        W66479  28.565  23.768  12.393
99697W        W66480   3.808   7.214  14.017
99698W        W66481  28.691  18.515   3.179
99699W        W66482  39.810   8.247   3.324
99700W        W66483  28.396  12.703   3.143
99701W        W66484  10.362  32.826  14.131
99702W        W66485  23.209  40.544  12.679
99703W        W66486  21.054   0.839  12.980
99704W        W66487  38.899  32.350   4.279
99705W        W66488  17.194  30.458  10.140
99706W        W66489   9.054  34.319  14.016
99707W        W66490  19.413  32.655   4.964
99708W        W66491  17.101  31.938   2.307
99709W        W66492  21.066  24.011   2.900
99710W        W66493  16.082  25.135  10.615
99711W        W66494  20.191  20.722   0.506
99712W        W66495  10.781  10.855  14.957
99713W        W66496  41.530  32.123   1.759
99714W        W66497  12.405  23.259   4.165
99715W        W66498  16.059   2.327  13.739
99716W        W66499  42.386  23.957  10.928
99717W        W66500  13.217  23.216  14.691
99718W        W66501  40.493  44.273   3.749
99719W        W66502  42.839  10.714  11.677
99720W        W66503   3.822  22.271  11.526
99721W        W66504  14.876  28.980  13.425
99722W        W66505  16.610   5.985   1.465
99723W        W66506  16.486  33.407   2.086
99724W        W66507  20.082  28.618  10.693
99725W        W66508  44.467  33.314   0.912
99726W        W66509   4.855  25.090  13.181
99727W        W66510  23.514  19.098  12.950
99728W        W66511  27.040   7.748  12.491
99729W        W66512  28.804  36.330  14.857
99730W        W66513  43.455  10.039   2.802
99731W        W66514   4.138   3.778  12.882
99732W        W66515   3.684  28.244   3.525
99733W        W66516   6.075  30.123  10.291
99734W        W66517  33.574  32.227   0.357
99735W        W66518  10.544  40.971   2.090
99736W        W66519   0.838   1.518   2.324
99737W        W66520   2.846  30.650  14.803
99738W        W66521  44.452  33.833  13.348
99739W        W66522  30.133  21.671   3.712
99740W        W66523  36.373  23.622   0.259
99741W        W66524   5.589  27.111   1.949
99742W        W66525  42.337  44.197  12.035
99743W        W66526   3.054  44.472   0.315
99744W        W66527   0.236  25.865   2.906
99745W        W66528   6.241  26.719  10.978
99746W        W66529  29.970  35.313  11.247
99747W        W66530  31.060  40.590   1.354
99748W        W66531   8.293  37.625   1.350
99749W        W66532  22.350  26.252  12.041
99750W        W66533  14.913  42.116  12.468
99751W        W66534  35.186  16.152   1.162
99752W        W66535  14.700  35.580   3.342
99753W        W66536  36.636  12.647   1.033
99754W        W66537  42.459  38.600  14.811
99755W        W66538  33.044  18.918  11.124
99756W        W66539   0.072  44.877   1.540
99757W        W66540  25.216   2.020   4.614
99758W        W66541  43.350   5.444   1.401
99759W        W66542  10.347   1.315  10.691
99760W        W66543  38.124  20.555  14.978
99761W        W66544  40.188  23.505  14.396
99762W        W66545  43.323  17.073   1.160
99763W        W66546  27.494   4.326   1.180
99764W        W66547  42.599  30.076   3.581
99765W        W66548  16.289  26.548   4.072
99766W        W66549   1.766  11.640  11.643
99767W        W66550  28.189  35.819   0.362
99768W        W66551   8.799  12.814   3.803
99769W        W66552  36.270  42.315   1.304
99770W        W66553  14.582  21.065   5.086
99771W        W66554   5.880  43.788   1.838
99772W        W66555  10.305   3.297  12.400
99773W        W66556  36.549   9.301   2.829
99774W        W66557   5.870  24.113  12.865
99775W        W66558  10.565  38.065  12.890
99776W        W66559  37.084  18.701   0.530
99777W        W66560  27.175   5.226   1.192
99778W        W66561  24.105   4.322  13.413
99779W        W66562   2.376   6.488  13.928
99780W        W66563  43.879   5.217  13.901
99781W        W66564  43.979  40.825   2.774
99782W        W66565  44.062  34.989  10.632
99783W        W66566   9.355  25.146  11.064
99784W        W66567   9.571   3.189  12.983
99785W        W66568  11.953  10.063  12.093
99786W        W66569   4.945  10.695  11.203
99787W        W66570  30.484  18.806  11.443
99788W        W66571  43.062  18.023  10.837
99789W        W66572  19.733  44.225   3.002
99790W        W66573  24.966   7.375   0.447
99791W        W66574  38.875  18.776   0.206
99792W        W66575   4.723  25.916   1.978
99793W        W66576  37.363  37.910   4.544
99794W        W66577  30.506  29.683  11.705
99795W        W66578  20.457   5.873  13.820
99796W        W66579  27.980  33.147  10.711
99797W        W66580  38.303  35.077   2.767
99798W        W66581  19.162  27.486   4.935
99799W        W66582  12.800  19.885  11.430
99800W        W66583   5.945   4.077  12.032
99801W        W66584  14.132  26.953   4.638
99802W        W66585  29.190  22.161   1.704
99803W        W66586   6.732   1.075  12.666
99804W        W66587   3.796  29.292   1.336
99805W        W66588  40.913   7.608  12.391
99806W        W66589  38.605   4.221  13.729
99807W        W66590  23.037  39.060  11.681
99808W        W66591  25.193  17.740  10.700
99809W        W66592  15.579   2.551  13.829
99810W        W66593  41.769  42.817   3.710
99811W        W66594  34.453  25.407   1.896
99812W        W66595  40.383  12.257  12.486
99813W        W66596  33.609  15.373   0.775
99814W        W66597   4.141   7.242  11.124
99815W        W66598  40.923  14.254   3.553
99816W        W66599  24.219  43.967  12.497
99817W        W66600  29.905  35.676  10.884
99818W        W66601  36.657  40.413  12.901
99819W        W66602   9.177  27.996  14.483
99820W        W66603  29.738  10.897  12.052
99821W        W66604  23.229  34.923   3.673
99822W        W66605  27.085  43.848  14.323
99823W        W66606  11.440   6.473   2.443
99824W        W66607   0.993  42.376  12.835
99825W        W66608  12.939  23.430   4.163
99826W        W66609  30.941  34.117  12.960
99827W        W66610  36.587  23.998   4.232
99828W        W66611  22.733   2.700  12.145
99829W        W66612  30.854  17.052   2.164
99830W        W66613  12.103  35.593   3.130
99831W        W66614  18.834  28.004   1.839
99832W        W66615   4.420  42.603   0.394
99833W        W66616  25.259  28.159   4.796
99834W        W66617  18.391   3.076  10.674
99835W        W66618  44.737  20.172   3.286
99836W        W66619  35.385  40.512   2.303
99837W        W66620   5.283   8.762  10.404
99838W        W66621  27.655  17.239   1.263
99839W        W66622   5.717   3.479  12.474
99840W        W66623  32.224   0.041  12.085
99841W        W66624  15.351  40.862   4.766
99842W        W66625  27.507   8.624  13.185
99843W        W66626   2.689   7.615  13.975
99844W        W66627  33.567  16.491   2.340
99845W        W66628   0.942  33.924  14.393
99846W        W66629  30.859  43.217  11.299
99847W        W66630  12.974  12.033   1.851
99848W        W66631  40.475  17.652  11.504
99849W        W66632  28.659  23.160  12.902
99850W        W66633   3.947  27.196   0.732
99851W        W66634  18.587  21.564   0.621
99852W        W66635  32.149   8.185   2.711
99853W        W66636  10.903  34.669   2.221
99854W        W66637  23.941   6.650   0.815
99855W        W66638   9.153   2.296   3.584
99856W        W66639  20.302   9.614   3.410
99857W        W66640  14.292  37.862  14.537
99858W        W66641   5.494   1.714  14.461
99859W        W66642  19.678  41.273   3.204
99860W        W66643  11.856  26.480  14.775
99861W        W66644   8.790  20.341  14.410
99862W        W66645   7.887   3.442  12.353
99863W        W66646  25.616  22.581   5.030
99864W        W66647   3.863   1.829  11.592
99865W        W66648  32.375   4.770  13.388
99866W        W66649   8.394   7.341   3.294
99867W        W66650  11.289  30.845   4.085
99868W        W66651  39.015  22.508   2.454
99869W        W66652  20.762  16.182   5.005
99870W        W66653  10.392   0.464  13.040
99871W        W66654   8.516  35.593  13.214
99872W        W66655  34.819  27.314   1.739
99873W        W66656   8.260  18.313  13.697
99874W        W66657  42.356  24.428   1.341
99875W        W66658  28.338  26.004  11.914
99876W        W66659   4.434  44.767   3.114
99877W        W66660  24.067  31.057   0.496
99878W        W66661  39.064  39.181  13.977
99879W        W66662  12.380  34.666  11.191
99880W        W66663  33.994  16.559   0.848
99881W        W66664  10.889  42.633   3.640
99882W        W66665  43.102  14.799   3.272
99883W        W66666  12.290  21.766  10.625
99884W        W66667  43.341  14.185   1.062
99885W        W66668  18.157  13.488  12.943
99886W        W66669  32.994  10.240   4.111
99887W        W66670   6.258  39.789   1.772
99888W        W66671   4.721  11.852   4.160
99889W        W66672  41.328  44.859   3.836
99890W        W66673   4.872  41.961  13.530
99891W        W66674  27.470  39.131   2.707
99892W        W66675  40.843  12.161   1.199
99893W        W66676  40.469   7.297  13.967
99894W        W66677   4.314   1.459   4.818
99895W        W66678  42.079  34.529   2.449
99896W        W66679  29.446  18.453  14.106
99897W        W66680  38.506  22.283  13.438
99898W        W66681  20.213  17.342  13.882
99899W        W66682  29.220  23.980   1.646
99900W        W66683  40.241   1.411   2.845
99901W        W66684   9.739   7.317  11.924
99902W        W66685  27.595  25.052  14.045
99903W        W66686  33.612  34.502   1.877
99904W        W66687  11.113   6.852   2.679
99905W        W66688  44.748  27.184  11.284
99906W        W66689  44.339  27.954   1.863
99907W        W66690  43.788  21.874   1.540
99908W        W66691  41.290  31.221  14.473
99909W        W66692   4.572  10.777  10.833
99910W        W66693  27.017  28.658  14.756
99911W        W66694   4.000   9.769  10.764
99912W        W66695  26.568   8.348  11.905
99913W        W66696  43.329  11.770  14.801
99914W        W66697  37.056  30.724   1.374
99915W        W66698  34.383  30.165   3.208
99916W        W66699  35.999   4.281   3.394
99917W        W66700   1.914  16.785   1.723
99918W        W66701  16.539  39.008   4.120
99919W        W66702  33.498  31.865   3.717
99920W        W66703   6.573  16.692  12.343
99921W        W66704  24.658  11.761  11.847
99922W        W66705  27.682  23.328   4.850
99923W        W66706  36.116  33.007  12.552
99924W        W66707  38.290  29.102   0.215
99925W        W66708  17.767  30.428  13.007
99926W        W66709  19.717   4.425   3.816
99927W        W66710  34.129  20.763   3.843
99928W        W66711  13.116  28.801   0.414
99929W        W66712   3.816  44.376   2.463
99930W        W66713  31.113  10.626  12.448
99931W        W66714   8.695  31.983   0.763
99932W        W66715   6.366  31.171  12.175
99933W        W66716  17.859  18.233  10.690
99934W        W66717  31.987  42.088  13.384
99935W        W66718   4.347  27.705  12.892
99936W        W66719  18.103  23.547  12.385
99937W        W66720  33.037   6.824  14.072
99938W        W66721  29.549   7.170   2.359
99939W        W66722   2.038  11.636  12.472
99940W        W66723  18.558   0.784   1.504
99941W        W66724  43.469  25.540  12.562
99942W        W66725  39.342  21.641  13.556
99943W        W66726  38.235  38.987   2.308
99944W        W66727  17.250  14.092  13.975
99945W        W66728  41.279  28.642   0.958
99946W        W66729  27.981  34.383   4.571
99947W        W66730  24.981  36.268  14.316
99948W        W66731  24.519   7.129  14.264
99949W        W66732  23.875  22.160  10.169
99950W        W66733   3.182  37.568   1.458
99951W        W66734  36.077  22.969   2.413
99952W        W66735  29.460  15.507  11.278
99953W        W66736  32.818  29.586   4.153
99954W        W66737  21.801  32.378   0.562
99955W        W66738  44.860  29.467  12.821
99956W        W66739  35.037   3.895   3.459
99957W        W66740  31.284   1.482   2.428
99958W        W66741  13.753  43.202   3.422
99959W        W66742  18.121  43.005   1.738
99960W        W66743  26.749  26.909   3.203
99961W        W66744   1.346  31.479   0.525
99962W        W66745   9.696   6.219   1.512
99963W        W66746   2.601   2.878   4.565
99964W        W66747  37.890  35.536   4.646
99965W        W66748   6.155  36.378   2.215
99966W        W66749  28.105  24.923  14.905
99967W        W66750   0.162  27.635  10.891
99968W        W66751   5.342  29.612  11.608
99969W        W66752  16.883  35.589  13.908
99970W        W66753   8.458  30.807  14.861
99971W        W66754   1.980  40.350   3.773
99972W        W66755  28.535  30.051   3.654
99973W        W66756  16.667  10.656   2.263
99974W        W66757  28.373  43.080   2.207
99975W        W66758   7.657  16.820   2.769
99976W        W66759   1.915   1.419   1.329
99977W        W66760  12.225  25.528   3.460
99978W        W66761  28.328  16.008   0.800
99979W        W66762  22.949  31.521   2.297
99980W        W66763  43.519  19.431  13.501
99981W        W66764   4.638  27.179   3.273
99982W        W66765   7.418  33.419  14.537
99983W        W66766  32.969  33.626  13.456
99984W        W66767   9.315  11.831  12.375
99985W        W66768  11.852  21.116  11.396
99986W        W66769  15.106  21.012  10.549
99987W        W66770  35.905  36.876  13.449
99988W        W66771  11.132  14.697  11.929
99989W        W66772  21.491  28.663   2.780
99990W        W66773  34.401  10.917  10.682
99991W        W66774  32.940  34.816  11.525
99992W        W66775  33.543   7.860  12.497
99993W        W66776  37.401   8.623   2.742
99994W        W66777  22.714  10.519  14.243
99995W        W66778  10.753   1.845  12.621
99996W        W66779  23.777  22.567   0.860
99997W        W66780   8.140   0.658  14.946
99998W        W66781  23.270  15.768  11.482
99999W        W66782  23.795  14.056   1.814
    0W        W66783  29.408  27.578  14.875
    1W        W66784  10.294   3.430   4.130
    2W        W66785  31.146  25.121   2.946
    3W        W66786  24.205  20.030  11.121
    4W        W66787  26.001  42.820  11.675
    5W        W66788   8.051   8.229  13.386
    6W        W66789  29.054  10.163  10.332
    7W        W66790  34.294  29.503  13.171
    8W        W66791  24.017  34.066  13.236
    9W        W66792  32.432  29.943   2.463
   10W        W66793   6.683  41.811   0.468
   11W        W66794  10.556  33.018   0.363
   12W        W66795   9.339  26.684   1.400
   13W        W66796   9.310  36.402   0.963
   14W        W66797  20.327  39.878  10.081
   15W        W66798   7.651   2.342   1.306
   16W        W66799  14.708   0.424  14.731
   17W        W66800  27.438  43.227  11.804
   18W        W66801  39.595   9.716  13.521
   19W        W66802  17.741  31.665   4.631
   20W        W66803   8.317   3.432   4.189
   21W        W66804  26.208  39.827  12.616
   22W        W66805  19.139  21.015   0.783
   23W        W66806  27.952  36.663   2.974
   24W        W66807   8.889  10.218  13.440
   25W        W66808   3.417  43.014   2.476
   26W        W66809  29.465   5.042  14.220
   27W        W66810  21.295   2.293  11.639
   28W        W66811  14.647   7.233   0.310
   29W        W66812  23.886   6.378   0.314
   30W        W66813  30.119   9.230  11.542
   31W        W66814  27.196   4.668  11.757
   32W        W66815  37.179   0.668  10.531
   33W        W66816  41.271  17.544  13.101
   34W        W66817  14.857  14.198  12.535
   35W        W66818   6.504  14.133  14.451
   36W        W66819  43.247  23.007   4.556
   37W        W66820  11.344  27.458   3.347
   38W        W66821  39.601   7.159  11.975
   39W        W66822   0.331  28.022   1.698
   40W        W66823  25.448  29.623   0.189
   41W        W66824  35.372  34.129  13.428
   42W        W66825  27.066  11.919  13.126
   43W        W66826  39.048   4.914   1.418
   44W        W66827  16.817  25.629   0.476
   45W        W66828  13.038  18.110  10.650
   46W        W66829   4.256  23.588  11.097
   47W        W66830  29.940  31.444  13.911
   48W        W66831  26.840  12.779  14.218
   49W        W66832  13.211  21.502   4.140
   50W        W66833  12.932   2.632  12.283
   51W        W66834  24.649  43.794  11.542
   52W        W66835  26.398  11.807  12.030
   53W        W66836  43.300  33.443   0.994
   54W        W66837  16.239   5.916   4.622
   55W        W66838  29.117  10.348  14.331
   56W        W66839  21.568  20.704  11.799
   57W        W66840  38.573   1.385   4.396
   58W        W66841  18.456  29.637   4.154
   59W        W66842  10.279  14.634  14.390
   60W        W66843  21.422  32.063   0.693
   61W        W66844  40.900  30.095  14.155
   62W        W66845   7.410  15.565  13.260
   63W        W66846   4.936  27.755  13.632
   64W        W66847  39.505   2.824   2.627
   65W        W66848  21.656  33.524   4.570
   66W        W66849  40.963  16.156  11.958
   67W        W66850  33.843  16.262   4.927
   68W        W66851  36.429  30.204  13.029
   69W        W66852   0.952   8.129  10.607
   70W        W66853  18.105  37.368  12.004
   71W        W66854  44.846   3.425  13.871
   72W        W66855  44.035   3.282  13.449
   73W        W66856  17.589   1.981   3.897
   74W        W66857  34.982  33.422   2.138
   75W        W66858  21.597  40.909   4.548
   76W        W66859  18.472  17.575   2.347
   77W        W66860  17.668  15.814   0.339
   78W        W66861  41.946  13.336  12.580
   79W        W66862   1.832  33.674  13.158
   80W        W66863  38.617  18.358  14.415
   81W        W66864  17.693  12.147  12.654
   82W        W66865  30.938   3.658  11.995
   83W        W66866  25.725   4.607   3.906
   84W        W66867  16.494   3.539   3.352
   85W        W66868  10.035   2.326   1.351
   86W        W66869  40.016  18.997  10.687
   87W        W66870  40.743   6.240   1.109
   88W        W66871  20.369  43.994   1.834
   89W        W66872  39.836  26.486  12.505
   90W        W66873  36.611   5.358  12.926
   91W        W66874   7.725   8.203  14.814
   92W        W66875   4.928  28.574   3.291
   93W        W66876  25.945   7.287   0.276
   94W        W66877  26.193  32.449  11.175
   95W        W66878  11.318  12.124   2.828
   96W        W66879   7.089   6.641   2.217
   97W        W66880  15.158  10.420  12.516
   98W        W66881  13.453  15.631   2.371
   99W        W66882  20.261   2.038   0.411
  100W        W66883  33.411   7.615  13.958
  101W        W66884   5.866  16.188  14.483
  102W        W66885  28.476  34.316   4.695
  103W        W66886  33.488  29.862  14.025
  104W        W66887  33.972  18.281  12.590
  105W        W66888  19.928  29.601  11.952
  106W        W66889   0.471   1.708  10.559
  107W        W66890  29.849  39.408  12.408
  108W        W66891  39.617  36.868  11.415
  109W        W66892  43.279  35.111  13.447
  110W        W66893   3.620  16.702   0.680
  111W        W66894  32.389  29.996   3.401
  112W        W66895   8.312   9.639   1.008
  113W        W66896  24.838  14.051   2.887
  114W        W66897  44.767  32.096   5.064
  115W        W66898  18.068  12.888   0.331
  116W        W66899  25.629  24.012  11.091
  117W        W66900   6.192  33.418  12.339
  118W        W66901  16.421  19.633  12.033
  119W        W66902  28.543   2.865   1.826
  120W        W66903   5.317  33.281   2.120
  121W        W66904  26.170  35.525   4.395
  122W        W66905  19.554  34.386  14.039
  123W        W66906  10.257  33.546   2.476
  124W        W66907  17.250  29.926  10.854
  125W        W66908  10.783  29.539   4.269
  126W        W66909  42.091   2.992  14.672
  127W        W66910  15.643  35.675  14.227
  128W        W66911  34.707   2.534  14.256
  129W        W66912  13.063  24.450   0.884
  130W        W66913  13.492  21.093  10.731
  131W        W66914   4.914  17.672  13.217
  132W        W66915  13.105  33.447  13.602
  133W        W66916  30.712   4.940   2.270
  134W        W66917  21.156  23.092  12.935
  135W        W66918  14.150  44.764   0.967
  136W        W66919  38.533   3.244  13.355
  137W        W66920  31.982  18.576  11.214
  138W        W66921  11.490  21.680  11.545
  139W        W66922  13.739  40.038   1.481
  140W        W66923  27.531  15.640   2.609
  141W        W66924  38.896   1.059  10.725
  142W        W66925   2.768  21.339  12.510
  143W        W66926  19.823  13.728   0.487
  144W        W66927  18.612  26.159   4.069
  145W        W66928   9.474  14.338   4.073
  146W        W66929  36.120  24.808  14.528
  147W        W66930   8.650  31.013   3.800
  148W        W66931  32.534  33.885  13.500
  149W        W66932   7.709  21.023   1.759
  150W        W66933  19.615  16.590   1.693
  151W        W66934   2.944  18.780  13.465
  152W        W66935  43.188   2.152  14.499
  153W        W66936  34.906  40.774  11.121
  154W        W66937  26.379  19.314   2.614
  155W        W66938  32.442   7.048   3.995
  156W        W66939  31.168  34.822  13.612
  157W        W66940  14.228  18.219  12.338
  158W        W66941  15.397  42.565   2.275
  159W        W66942  38.552   6.714  14.334
  160W        W66943  35.441  43.811   1.546
  161W        W66944  11.977  17.683   4.149
  162W        W66945  27.119  32.723   1.757
  163W        W66946  27.539  25.058  11.381
  164W        W66947  44.267   3.799   2.198
  165W        W66948   5.382  22.196   4.621
  166W        W66949  36.760   9.837   3.706
  167W        W66950   3.885  40.388  12.856
  168W        W66951  44.095   6.991   2.317
  169W        W66952   0.014  26.720   1.750
  170W        W66953  12.540   4.295  10.369
  171W        W66954  28.925  33.072  12.095
  172W        W66955  36.047  42.782  13.490
  173W        W66956  30.990  32.321   9.796
  174W        W66957  33.857  13.899   1.411
  175W        W66958  14.366  14.589   0.559
  176W        W66959  36.594  26.812   4.970
  177W        W66960  10.319  19.601   4.403
  178W        W66961  16.247   6.746  13.298
  179W        W66962   9.834  28.103  13.161
  180W        W66963   7.269  18.696   4.577
  181W        W66964  18.077  16.684   3.735
  182W        W66965  11.141   6.728  10.791
  183W        W66966  35.956  37.315   3.727
  184W        W66967  42.560  29.123  10.502
  185W        W66968  29.874  38.138  12.126
  186W        W66969  14.707   5.319   3.827
  187W        W66970  15.105  17.228  10.645
  188W        W66971  14.891   2.189  11.161
  189W        W66972  20.561   9.645   0.228
  190W        W66973   7.505  30.359   1.240
  191W        W66974   0.177  16.312   1.661
  192W        W66975  37.042  35.505  13.828
  193W        W66976  28.904   4.353  12.092
  194W        W66977  41.928  37.328   3.635
  195W        W66978  24.920   7.626   2.715
  196W        W66979  31.931  30.384   1.407
  197W        W66980  25.082   4.315  12.037
  198W        W66981   4.488  14.114  14.521
  199W        W66982  19.064  18.839  11.239
  200W        W66983  40.433  23.900   3.642
  201W        W66984  25.917  39.862   3.878
  202W        W66985  16.784   0.245  10.560
  203W        W66986  39.891   5.891   4.963
  204W        W66987  17.975  30.919  10.577
  205W        W66988  19.277  12.588   3.817
  206W        W66989  41.100  33.629  13.240
  207W        W66990  25.227  28.887  13.014
  208W        W66991  40.304  44.576   4.118
  209W        W66992  28.675  36.334  13.906
  210W        W66993   4.154   6.901  12.677
  211W        W66994  35.972   1.563   4.480
  212W        W66995  40.047  26.193  14.001
  213W        W66996   0.364  41.071   0.687
  214W        W66997   6.697  19.263   0.929
  215W        W66998  39.086  34.835   4.102
  216W        W66999  34.992  10.264   1.349
  217W        W67000  35.293  22.936   0.424
  218W        W67001  41.471   5.786   2.684
  219W        W67002   5.716  42.229  12.546
  220W        W67003  41.575   4.110   4.980
  221W        W67004  44.552   3.683   1.776
  222W        W67005  41.378  21.551   0.271
  223W        W67006  30.814  41.567   2.615
  224W        W67007  39.569  42.948  14.162
  225W        W67008  14.305  35.680  13.885
  226W        W67009  11.994  34.328  12.145
  227W        W67010  26.633  22.584   5.447
  228W        W67011   1.048   2.704   3.428
  229W        W67012  29.129   6.901   2.352
  230W        W67013  38.285  38.070  10.547
  231W        W67014   7.439  14.209  14.751
  232W        W67015  29.236  12.780  11.024
  233W        W67016  42.981  12.318  10.711
  234W        W67017  16.992  13.225   2.832
  235W        W67018  23.734  22.133   1.424
  236W        W67019  24.076  11.435  10.171
  237W        W67020  44.085   4.243   2.386
  238W        W67021  34.806  40.626   0.726
  239W        W67022  29.071  13.587   1.151
  240W        W67023  29.007  18.910   3.349
  241W        W67024  44.713  14.596   9.896
  242W        W67025  39.234  22.153   2.764
  243W        W67026  13.629  33.751   3.045
  244W        W67027  11.331  37.009   9.799
  245W        W67028  27.284  36.556   3.595
  246W        W67029  10.810  35.410   3.628
  247W        W67030  35.010  10.384  13.576
  248W        W67031  21.826  20.069  14.448
  249W        W67032  12.498  40.752   1.297
  250W        W67033  36.872   1.633  10.896
  251W        W67034   1.268  41.396   0.776
  252W        W67035  17.011  22.556  13.572
  253W        W67036   7.645   1.793  13.946
  254W        W67037  11.215  40.466  14.382
  255W        W67038   0.866  20.723  14.009
  256W        W67039  35.758  33.801   4.550
  257W        W67040  42.978  36.020  14.239
  258W        W67041   4.848   9.469  14.410
  259W        W67042   2.630  33.521   4.647
  260W        W67043  39.102  10.140  10.524
  261W        W67044   4.942  19.122  12.383
  262W        W67045  15.420  33.137   3.710
  263W        W67046  31.520   3.407  13.522
  264W        W67047  35.386  10.261  14.499
  265W        W67048   4.982  18.487  13.234
  266W        W67049  10.406  10.566   1.428
  267W        W67050  16.306  33.746  12.988
  268W        W67051  39.599  33.998   4.044
  269W        W67052  12.808  42.687   2.785
  270W        W67053   2.255  24.669   1.656
  271W        W67054  35.319  23.110  10.553
  272W        W67055   9.404   2.458   3.122
  273W        W67056  38.676  27.985   3.938
  274W        W67057   6.355   7.184   1.925
  275W        W67058  36.518  12.410  13.850
  276W        W67059   6.755  15.668   4.482
  277W        W67060   7.163   3.107  11.310
  278W        W67061  41.121  26.077  13.646
  279W        W67062   9.317  31.650   3.734
  280W        W67063  37.328  36.430  12.102
  281W        W67064  44.283  28.070   2.354
  282W        W67065  43.621  17.247   1.577
  283W        W67066   1.227  16.556  11.096
  284W        W67067  33.587  28.543   3.574
  285W        W67068  20.043   6.312   0.674
  286W        W67069  42.650  34.314  12.579
  287W        W67070  17.754  17.681   4.448
  288W        W67071  41.565  41.370  14.005
  289W        W67072  40.993  21.528   2.743
  290W        W67073  29.546  41.794   0.951
  291W        W67074  21.323  25.319   3.357
  292W        W67075  42.039  11.315   1.741
  293W        W67076  26.274  30.439   2.299
  294W        W67077   0.520  28.532   4.134
  295W        W67078  23.814  35.151  13.627
  296W        W67079  21.251  24.760   4.974
  297W        W67080  24.724   1.313   1.448
  298W        W67081  23.178  20.180   3.121
  299W        W67082  13.051  20.710  12.353
  300W        W67083   1.928   2.337   3.278
  301W        W67084   2.480   9.308  12.766
  302W        W67085  20.648  25.693   4.627
  303W        W67086  34.500  20.190   0.536
  304W        W67087   7.423  28.916  13.860
  305W        W67088  12.682  24.035  14.483
  306W        W67089  24.018  17.565   0.161
  307W        W67090  15.256  35.391  14.466
  308W        W67091   1.930  39.067   1.364
  309W        W67092  28.978  36.091  10.746
  310W        W67093  28.959   6.667   3.668
  311W        W67094  38.256  12.471   4.332
  312W        W67095   7.312   7.229  11.479
  313W        W67096  10.960  35.357  14.424
  314W        W67097   5.357  19.287   0.980
  315W        W67098  22.215   5.743  12.264
  316W        W67099  17.244  25.279   0.405
  317W        W67100  32.513   4.461   0.318
  318W        W67101  19.661  30.529  13.546
  319W        W67102  36.868   2.920  13.984
  320W        W67103  22.485  15.503  11.881
  321W        W67104  37.363  25.065   2.255
  322W        W67105  34.077   2.746   0.812
  323W        W67106  41.727   0.414   1.726
  324W        W67107  26.663  38.742   4.016
  325W        W67108   1.464  37.938   1.938
  326W        W67109  11.850  42.432   2.352
  327W        W67110  31.121  11.135   0.902
  328W        W67111  35.600  12.566   4.568
  329W        W67112  40.972   7.033   3.127
  330W        W67113  41.330   9.855  10.450
  331W        W67114  29.705  36.981   3.456
  332W        W67115  17.223  38.861   2.218
  333W        W67116  36.949  17.628   1.853
  334W        W67117   1.833  43.285   4.359
  335W        W67118  13.333  29.019   0.830
  336W        W67119  16.626  23.217  10.407
  337W        W67120   6.893  39.551   3.516
  338W        W67121  34.835   6.266   2.875
  339W        W67122  15.964  15.646   9.882
  340W        W67123  35.934   4.892  11.641
  341W        W67124  42.595  17.116  13.465
  342W        W67125  22.649  37.025  13.456
  343W        W67126  23.754  39.718   1.961
  344W        W67127  44.837  14.097   1.358
  345W        W67128  15.634  11.870  13.940
  346W        W67129   5.654  11.370  11.021
  347W        W67130  23.915   4.389   1.895
  348W        W67131  15.322  30.399   4.730
  349W        W67132  27.764  35.099  13.814
  350W        W67133  18.781  29.885   9.854
  351W        W67134   4.618  24.730  14.745
  352W        W67135   4.486  34.369  14.444
  353W        W67136  29.981  25.399   0.471
  354W        W67137  41.070  23.077   3.160
  355W        W67138   0.506   2.184   1.965
  356W        W67139  40.946  22.980  13.607
  357W        W67140  43.906  22.564   3.241
  358W        W67141   6.274  16.580   0.849
  359W        W67142  44.440  31.860  13.851
  360W        W67143   1.880   0.897  13.889
  361W        W67144  15.872  31.552  13.333
  362W        W67145  34.906  38.022   2.305
  363W        W67146  16.569  10.228   3.712
  364W        W67147  42.893   4.992  14.461
  365W        W67148  40.894  37.071  12.502
  366W        W67149  22.137  19.332   2.412
  367W        W67150  13.095  18.489   3.184
  368W        W67151  27.709  39.881  13.733
  369W        W67152  25.144  25.615  12.914
  370W        W67153  29.189   0.959  14.896
  371W        W67154  33.006  17.707  14.082
  372W        W67155  37.899  26.046  10.538
  373W        W67156  24.141  11.848   0.389
  374W        W67157  20.220  22.633  13.936
  375W        W67158  17.314   8.377  12.994
  376W        W67159  12.544   3.835  11.516
  377W        W67160   3.816  27.190  14.398
  378W        W67161  39.859  38.890  13.441
  379W        W67162  29.441  24.222   2.146
  380W        W67163  20.312   2.709  14.899
  381W        W67164   3.457  13.518  14.849
  382W        W67165  18.119  18.210   4.679
  383W        W67166  40.493  16.532   3.283
  384W        W67167  43.308  21.848   1.301
  385W        W67168  18.366  18.290  10.188
  386W        W67169  24.525  21.686  14.043
  387W        W67170  18.836  17.633   0.035
  388W        W67171  20.258  35.285  14.357
  389W        W67172   6.115  40.321  10.558
  390W        W67173  41.619  19.173  11.799
  391W        W67174  43.363  21.049   1.838
  392W        W67175  36.570  38.272  13.394
  393W        W67176   2.594  35.826  12.129
  394W        W67177  29.902  30.961   3.213
  395W        W67178  42.737  41.505   4.613
  396W        W67179  15.883  43.068  14.606
  397W        W67180  44.095  33.321   1.318
  398W        W67181  42.489  15.224   0.970
  399W        W67182   5.751   1.944  14.056
  400W        W67183  32.340  16.410   1.909
  401W        W67184   5.293  16.295   1.661
  402W        W67185  25.747  24.251   0.533
  403W        W67186   1.150  16.992   0.895
  404W        W67187  35.497  21.002   4.028
  405W        W67188  19.888  18.633  14.392
  406W        W67189  16.190  34.069   1.540
  407W        W67190   9.822   5.431   4.804
  408W        W67191  19.293  44.858  13.261
  409W        W67192  16.467  25.072   2.914
  410W        W67193  30.523  39.808  12.081
  411W        W67194  43.459  23.742  11.917
  412W        W67195  12.062  21.449  12.306
  413W        W67196  26.191  42.475   1.286
  414W        W67197   5.468  33.041  12.461
  415W        W67198  32.618  28.565  14.464
  416W        W67199  30.861  38.800   1.894
  417W        W67200  14.638  21.630  13.914
  418W        W67201  21.009   2.436   1.302
  419W        W67202   9.525  27.157   3.710
  420W        W67203  25.181  19.008   1.781
  421W        W67204  25.494  19.868   4.547
  422W        W67205  42.386  40.963   1.040
  423W        W67206  19.927  20.828  11.173
  424W        W67207  17.654   6.457  13.468
  425W        W67208  44.405  28.138  11.612
  426W        W67209   4.731  26.273  10.755
  427W        W67210  26.990   9.310   2.260
  428W        W67211  24.244   4.717   2.130
  429W        W67212  25.010  17.587  12.885
  430W        W67213  39.319  23.054   2.835
  431W        W67214   7.894  31.841  10.695
  432W        W67215   2.186   6.492   4.271
  433W        W67216  39.449  42.015   4.200
  434W        W67217   8.196  21.797   1.000
  435W        W67218  17.094  13.589   1.290
  436W        W67219  13.174   2.641  11.510
  437W        W67220  30.441  10.095  11.387
  438W        W67221  28.465  21.232   0.518
  439W        W67222  18.567  39.718   1.840
  440W        W67223  39.088   0.290   3.819
  441W        W67224  43.833  27.223   0.771
  442W        W67225  23.917  37.023   3.940
  443W        W67226   2.199  27.506   1.023
  444W        W67227  13.891  39.920  13.343
  445W        W67228  36.864  31.407  13.511
  446W        W67229  36.481  19.724  12.474
  447W        W67230   9.844  25.682  14.361
  448W        W67231   3.869  44.350   4.003
  449W        W67232  25.423  24.055   1.411
  450W        W67233  41.052  23.656  11.221
  451W        W67234   8.110  13.065   3.281
  452W        W67235  11.808  16.056   1.853
  453W        W67236   3.267  21.770  13.415
  454W        W67237  16.220   8.794  11.850
  455W        W67238  36.568   6.719  12.384
  456W        W67239   0.375  35.781   2.146
  457W        W67240  34.076   3.321   3.837
  458W        W67241  17.751  30.440   3.242
  459W        W67242   2.381  21.102   1.774
  460W        W67243  38.063  24.931  11.162
  461W        W67244   3.651  22.002   3.823
  462W        W67245   3.650  20.469  13.472
  463W        W67246   3.923  43.881  12.096
  464W        W67247  14.087  43.880  13.870
  465W        W67248  11.826   5.952  10.182
  466W        W67249   4.794  11.258  14.255
  467W        W67250  10.164  40.736   1.820
  468W        W67251   9.800  24.528   3.670
  469W        W67252  27.515  10.824   2.851
  470W        W67253  33.847  24.187   0.953
  471W        W67254  38.368   5.475   5.050
  472W        W67255  41.909  18.194   4.178
  473W        W67256  17.233  32.212  14.351
  474W        W67257  10.262  37.582   4.007
  475W        W67258  34.458   3.560  14.327
  476W        W67259  26.905  12.653  12.680
  477W        W67260  41.687   8.204  13.931
  478W        W67261  33.152  14.794   3.413
  479W        W67262  18.771  22.986   3.257
  480W        W67263  41.473   0.344   4.120
  481W        W67264   5.362  10.656   2.781
  482W        W67265  27.472  34.258   4.599
  483W        W67266  27.582   5.753  13.663
  484W        W67267  22.528  33.580  10.662
  485W        W67268  37.092   8.854  11.533
  486W        W67269  24.596  10.887   4.792
  487W        W67270   3.412  38.145   0.724
  488W        W67271  27.640  39.363   1.349
  489W        W67272  18.277  28.058   2.168
  490W        W67273  12.386  42.522  12.470
  491W        W67274  24.098   1.958  14.758
  492W        W67275  43.249  20.664   4.574
  493W        W67276  29.563  14.257   1.935
  494W        W67277  14.894  18.717  13.811
  495W        W67278   2.952  23.989  12.933
  496W        W67279  30.477  23.485   2.479
  497W        W67280  25.952  40.234  14.275
  498W        W67281  34.191   4.446   0.747
  499W        W67282  43.037   1.539  13.460
  500W        W67283  31.896  37.277   4.164
  501W        W67284  30.647  19.673   1.688
  502W        W67285   8.739  43.163   3.160
  503W        W67286  11.829  38.685  14.095
  504W        W67287   5.695   2.271  13.032
  505W        W67288  13.395  41.361  10.673
  506W        W67289   8.336  33.869   4.565
  507W        W67290  17.643  22.515  10.853
  508W        W67291  18.783   0.253   3.266
  509W        W67292  15.336  15.020   1.742
  510W        W67293   7.340  24.939   1.897
  511W        W67294  14.604  25.597   1.649
  512W        W67295  31.533  27.571  12.075
  513W        W67296  33.960  32.650  10.969
  514W        W67297  12.309  12.155  10.890
  515W        W67298  21.282   9.782   3.689
  516W        W67299  25.421  32.863  14.896
  517W        W67300   4.911  44.584   0.911
  518W        W67301  26.745   6.442   3.763
  519W        W67302   9.419  42.495  11.805
  520W        W67303   4.783  10.100   2.751
  521W        W67304  43.436  17.502   2.000
  522W        W67305  13.609  28.124  13.450
  523W        W67306  17.771   3.766   0.358
  524W        W67307  17.153   5.751  12.784
  525W        W67308  18.360  16.115  13.403
  526W        W67309  23.037  16.240  14.132
  527W        W67310  13.200   8.650  13.834
  528W        W67311   7.774  28.149   2.748
  529W        W67312  27.143  30.552  10.671
  530W        W67313  40.280   7.786   2.889
  531W        W67314  26.083  21.114  13.305
  532W        W67315  38.463  34.424   4.470
  533W        W67316  41.028  25.730  12.024
  534W        W67317  22.499  24.756  10.590
  535W        W67318   7.290  36.390  12.508
  536W        W67319  15.193   9.265   4.220
  537W        W67320  19.599   2.093  11.045
  538W        W67321  15.696  11.779   0.300
  539W        W67322   1.433  12.873  14.762
  540W        W67323   8.831   8.144  10.976
  541W        W67324   0.493  38.407  13.376
  542W        W67325   5.879   8.401   2.344
  543W        W67326   5.454  22.992  12.566
  544W        W67327  16.985  34.311  14.857
  545W        W67328  14.039  25.882   3.817
  546W        W67329  40.352  12.554   2.714
  547W        W67330  13.235  32.044  14.746
  548W        W67331  22.993  35.163  12.981
  549W        W67332  34.015   5.375  14.373
  550W        W67333  26.658  30.411  12.385
  551W        W67334   5.432  38.566  14.577
  552W        W67335  10.628  15.573   3.225
  553W        W67336  21.155  30.667   1.299
  554W        W67337  21.849   6.292  13.761
  555W        W67338   9.628  23.140  12.842
  556W        W67339  26.043  25.971   2.091
  557W        W67340  27.251  33.098  11.648
  558W        W67341  25.129   6.610  11.838
  559W        W67342  41.828   3.887   1.228
  560W        W67343  23.543  23.806  14.956
  561W        W67344  39.984  29.824  12.403
  562W        W67345  22.115   1.861   5.347
  563W        W67346   0.071  13.165   5.460
  564W        W67347  28.372  40.083   1.321
  565W        W67348  29.919  25.545   3.318
  566W        W67349  11.163   3.738  11.109
  567W        W67350  33.008  42.572   0.943
  568W        W67351  38.157  33.044   1.442
  569W        W67352  44.861  41.299  14.315
  570W        W67353  14.534  30.713  13.983
  571W        W67354   9.899  12.756   0.985
  572W        W67355  30.687  40.892   4.400
  573W        W67356   0.528  36.082   1.722
  574W        W67357   6.924  41.979  12.633
  575W        W67358  12.713  41.245   3.684
  576W        W67359  44.943  42.911   4.092
  577W        W67360  43.821  43.736   2.092
  578W        W67361  37.624  42.853   2.710
  579W        W67362   3.666  18.688   1.655
  580W        W67363  19.582  20.084   0.763
  581W        W67364  44.506  44.071   0.199
  582W        W67365  22.983   6.746   3.827
  583W        W67366  11.766  35.034  11.143
  584W        W67367  16.210  30.847   2.462
  585W        W67368  21.680  32.600   4.194
  586W        W67369  37.053  12.118   4.811
  587W        W67370  11.273  42.543  13.316
  588W        W67371  15.724  27.595  10.591
  589W        W67372  17.529  10.762  10.377
  590W        W67373  37.029  26.644  13.848
  591W        W67374  17.283  34.525   4.603
  592W        W67375  43.502  13.733   1.372
  593W        W67376  23.032  10.194   3.782
  594W        W67377  26.970  38.598   3.199
  595W        W67378   5.119  15.337  12.654
  596W        W67379   4.506  19.664   1.672
  597W        W67380  31.301  17.041  12.164
  598W        W67381  42.271  27.609   0.554
  599W        W67382   9.388  16.312   4.485
  600W        W67383  18.362   4.968  10.337
  601W        W67384  19.226  28.400   1.204
  602W        W67385  17.707  42.047   4.105
  603W        W67386  43.289  34.604  10.645
  604W        W67387  21.796  31.885  10.945
  605W        W67388  20.724  33.843   1.637
  606W        W67389  29.062   8.881  11.531
  607W        W67390  28.508  38.975  13.466
  608W        W67391  34.111   5.291  12.859
  609W        W67392  41.465  19.527   2.467
  610W        W67393  31.961  22.067   4.100
  611W        W67394  27.235  27.499   3.184
  612W        W67395  37.127   4.919   3.149
  613W        W67396   2.044  35.006  13.006
  614W        W67397  30.015  14.139  14.798
  615W        W67398  37.413  21.963   4.646
  616W        W67399  18.235  32.221   1.035
  617W        W67400   1.880  42.744  14.382
  618W        W67401  44.662  37.130  12.859
  619W        W67402  40.040   6.655   3.343
  620W        W67403  31.633  25.131  13.861
  621W        W67404  18.775  28.721  11.111
  622W        W67405  16.305  20.538   0.899
  623W        W67406  32.851  30.885   3.354
  624W        W67407  43.717  18.341  12.553
  625W        W67408   0.069  14.062   3.578
  626W        W67409  18.110  39.599  10.876
  627W        W67410  42.406  41.584   4.221
  628W        W67411   7.026  26.170   3.261
  629W        W67412   2.751  24.925  14.077
  630W        W67413  42.239   4.943  12.513
  631W        W67414  33.211  30.670   3.657
  632W        W67415   2.985  17.758  11.451
  633W        W67416  17.174   0.943   1.324
  634W        W67417  36.987  35.834   3.818
  635W        W67418  11.707  11.456   4.523
  636W        W67419  22.128  35.901  13.780
  637W        W67420   2.521  34.847   4.209
  638W        W67421  34.536  11.816  14.542
  639W        W67422  16.641  44.985  14.457
  640W        W67423   3.810   3.977   3.337
  641W        W67424  14.353  36.527   0.621
  642W        W67425  12.200  20.952   1.467
  643W        W67426   9.439  12.125   1.807
  644W        W67427   8.319   5.268   4.572
  645W        W67428  25.185  10.335   5.130
  646W        W67429   2.456  11.181  12.061
  647W        W67430  21.690   9.906  12.099
  648W        W67431  30.992  26.441   1.243
  649W        W67432  34.656  16.954   4.521
  650W        W67433  25.172  17.479  14.713
  651W        W67434  44.699  16.085   3.743
  652W        W67435  11.952  11.454  14.257
  653W        W67436  18.661  29.132   1.451
  654W        W67437  14.057   6.665   0.575
  655W        W67438  17.470  38.196   5.345
  656W        W67439  12.144   8.375   1.375
  657W        W67440   8.126  17.041   2.673
  658W        W67441  38.942  33.916  14.000
  659W        W67442  28.460  34.842   0.949
  660W        W67443  35.757  19.639  10.749
  661W        W67444  28.936  17.496   0.261
  662W        W67445  30.400  22.190  10.994
  663W        W67446  33.862  17.839   3.777
  664W        W67447   4.422   2.453   2.916
  665W        W67448  29.691   6.786  12.987
  666W        W67449  26.704  43.092   4.185
  667W        W67450   4.355  32.994   0.301
  668W        W67451  31.712  22.536   1.277
  669W        W67452  11.339  22.464   2.682
  670W        W67453  44.591  21.198   1.259
  671W        W67454   9.653  35.105  13.549
  672W        W67455  12.417  10.787   3.567
  673W        W67456   5.196  31.032  13.333
  674W        W67457  25.069  39.769   2.393
  675W        W67458  14.292  33.472   0.515
  676W        W67459  15.593  28.616   1.775
  677W        W67460  13.623  29.756  11.893
  678W        W67461  10.119  40.941   1.340
  679W        W67462  14.836  19.985   1.434
  680W        W67463  37.143  26.685  14.385
  681W        W67464   9.046   0.707   2.439
  682W        W67465  15.645  41.098  12.858
  683W        W67466  23.775  30.729  14.036
  684W        W67467  22.159  20.895   2.384
  685W        W67468  21.107  11.278  12.258
  686W        W67469  43.517  24.073   4.331
  687W        W67470  30.505   7.204   4.052
  688W        W67471  15.296  13.024  11.408
  689W        W67472  16.830   6.262   0.800
  690W        W67473  16.844  31.944  13.069
  691W        W67474  40.005   5.033  13.724
  692W        W67475  18.953  44.983   2.841
  693W        W67476  25.658  29.521   3.583
  694W        W67477  29.833  23.011  11.417
  695W        W67478   9.326  25.077   2.359
  696W        W67479  32.078  13.163   1.715
  697W        W67480  19.196  44.502   0.735
  698W        W67481   5.845   8.275  14.593
  699W        W67482   5.761  37.699  13.212
  700W        W67483   2.251   2.728   2.207
  701W        W67484  16.208  37.860   9.986
  702W        W67485   4.841  24.932  11.156
  703W        W67486  40.411  12.600  14.308
  704W        W67487  19.283  33.699   2.015
  705W        W67488  24.052  20.493  10.948
  706W        W67489  10.366  36.915  14.835
  707W        W67490  43.935  20.771  12.472
  708W        W67491  27.980   8.378  14.511
  709W        W67492  16.127   7.433   0.366
  710W        W67493   1.133  25.999  13.847
  711W        W67494   1.960   4.016  12.617
  712W        W67495   8.820  35.805  11.824
  713W        W67496  43.443  29.276  14.909
  714W        W67497  39.638  16.218  10.763
  715W        W67498  43.409  14.255  13.014
  716W        W67499  37.461  15.626   2.193
  717W        W67500  24.054  20.018   1.304
  718W        W67501  12.384  14.283  12.720
  719W        W67502  27.588  35.856  12.569
  720W        W67503  15.980  12.807  12.917
  721W        W67504  23.589   4.814  12.029
  722W        W67505  30.644  29.190  14.877
  723W        W67506  26.466   8.278   4.602
  724W        W67507  36.969  23.573   2.429
  725W        W67508   0.761   5.672  10.806
  726W        W67509   7.697  44.354   0.952
  727W        W67510  19.288  31.890  14.060
  728W        W67511  27.976   4.516   1.363
  729W        W67512  28.160  34.210  11.514
  730W        W67513   8.729  15.941  13.516
  731W        W67514  40.570  44.378  13.483
  732W        W67515  38.078  38.548  13.843
  733W        W67516  18.625  40.091   3.872
  734W        W67517  16.875  37.917  14.192
  735W        W67518   3.402   6.437   3.340
  736W        W67519  26.578  21.126   3.131
  737W        W67520   8.269  44.763   2.784
  738W        W67521  44.280  14.107   3.149
  739W        W67522   5.395   7.430   1.011
  740W        W67523  14.933  40.514  12.917
  741W        W67524  35.589  34.612   3.423
  742W        W67525   2.710  43.544   2.797
  743W        W67526  29.690  35.615  13.401
  744W        W67527  35.117  22.503   0.715
  745W        W67528   1.867   1.191  14.995
  746W        W67529  38.921   7.624  13.300
  747W        W67530   7.797  30.981  12.071
  748W        W67531  20.876  12.189  12.080
  749W        W67532  15.506  31.623  14.827
  750W        W67533  18.074  37.280   1.233
  751W        W67534  42.195   0.737   1.051
  752W        W67535  31.916  40.553  14.773
  753W        W67536  11.927  44.043   1.875
  754W        W67537   3.453  29.213   4.375
  755W        W67538  25.143  11.385   3.736
  756W        W67539  42.043  39.984  12.472
  757W        W67540  28.878  36.883   2.879
  758W        W67541  38.008  23.684  13.548
  759W        W67542  28.949  30.159  10.523
  760W        W67543   0.985   8.572  14.677
  761W        W67544  19.983  18.208  12.847
  762W        W67545  13.217  42.518   4.609
  763W        W67546   0.865  27.509  14.464
  764W        W67547  33.597  10.655   0.307
  765W        W67548  38.369  37.541  10.623
  766W        W67549   9.137  37.923   1.975
  767W        W67550  32.177  19.548   3.329
  768W        W67551  19.662  23.851   3.318
  769W        W67552  10.172  33.356  12.436
  770W        W67553  17.775  27.454   2.447
  771W        W67554  44.889  42.778   0.033
  772W        W67555  38.605  22.612   4.780
  773W        W67556  44.669   4.295  12.056
  774W        W67557  43.662  33.528   1.916
  775W        W67558   3.844   7.003  13.551
  776W        W67559  42.344  20.234  12.606
  777W        W67560  20.594  40.047  11.943
  778W        W67561  25.784  23.309   0.929
  779W        W67562   3.840   0.781  11.542
  780W        W67563  23.702  23.399   5.011
  781W        W67564  27.961   5.795   0.475
  782W        W67565   9.260   9.729  10.975
  783W        W67566  42.458  12.435   9.943
  784W        W67567  40.387  27.357  12.523
  785W        W67568   9.356   4.476   1.725
  786W        W67569  37.789  25.734   0.482
  787W        W67570  31.593  39.821   1.442
  788W        W67571   6.342  24.447   1.850
  789W        W67572  17.337  16.702   2.772
  790W        W67573  30.270  21.434  12.831
  791W        W67574  24.960  20.595  11.426
  792W        W67575   7.454  14.004   0.726
  793W        W67576  34.120  10.842  14.480
  794W        W67577   9.900  17.055  12.392
  795W        W67578  15.023   5.280   0.453
  796W        W67579  34.608   5.730  12.623
  797W        W67580  11.850  20.352  10.792
  798W        W67581  23.934  10.754  13.797
  799W        W67582  34.021  40.421   3.705
  800W        W67583   3.487  38.048  13.324
  801W        W67584  10.259  25.571   3.765
  802W        W67585  18.629   6.323   0.712
  803W        W67586  15.121  23.684  11.144
  804W        W67587   2.348  32.987  14.395
  805W        W67588   6.815  43.298   4.082
  806W        W67589   8.796  13.097  12.365
  807W        W67590  44.900   3.979  11.675
  808W        W67591  27.529  16.059  13.552
  809W        W67592   0.279  29.162  12.784
  810W        W67593  18.263   9.331  12.098
  811W        W67594  30.037  23.375  11.106
  812W        W67595   1.216  44.113   2.263
  813W        W67596   8.152  38.591  10.473
  814W        W67597  18.712  14.841  10.859
  815W        W67598   6.845  27.014   0.371
  816W        W67599  41.911   5.236   1.898
  817W        W67600   6.905  30.453  10.579
  818W        W67601  10.368   7.049  14.423
  819W        W67602   9.148  14.605   1.790
  820W        W67603   4.134   0.901  12.339
  821W        W67604  34.859  23.157  11.451
  822W        W67605   0.338   2.918  13.176
  823W        W67606  25.483  15.907  10.774
  824W        W67607  27.400   3.865   1.433
  825W        W67608  20.446  29.441  14.508
  826W        W67609  25.867  44.820   3.618
  827W        W67610  22.127   8.571   2.595
  828W        W67611  32.721  18.013   0.997
  829W        W67612  39.030  20.962   3.130
  830W        W67613  44.545   4.729  13.285
  831W        W67614  20.013  14.915   0.414
  832W        W67615  28.981   4.615   1.814
  833W        W67616  34.266  22.629  13.411
  834W        W67617   5.127   2.199  13.542
  835W        W67618  31.954  43.532   3.821
  836W        W67619  32.091  17.724  14.052
  837W        W67620  30.475  11.112  11.572
  838W        W67621  12.785   1.437   1.648
  839W        W67622  30.497  14.212   0.002
  840W        W67623  26.532  33.619  12.883
  841W        W67624  19.384  38.648   4.076
  842W        W67625  40.874  39.794   1.216
  843W        W67626  39.613  43.782  11.574
  844W        W67627  21.480   9.408   2.234
  845W        W67628   3.458  15.332   3.735
  846W        W67629  30.116  27.445   1.026
  847W        W67630  20.448  41.071   4.510
  848W        W67631   0.891  22.894  14.813
  849W        W67632  12.731  21.569   3.420
  850W        W67633   1.017  33.477  14.839
  851W        W67634   3.500  28.086  12.663
  852W        W67635   4.889  14.880  12.993
  853W        W67636  36.618  14.640   1.836
  854W        W67637  14.590  29.452  12.539
  855W        W67638   2.297   7.250  10.710
  856W        W67639  35.364  29.611   3.841
  857W        W67640  25.333  37.839   4.176
  858W        W67641   2.895  21.359   4.755
  859W        W67642  35.146  10.345  14.955
  860W        W67643  11.253   9.404   0.062
  861W        W67644  39.509   3.694   2.860
  862W        W67645  27.528  13.697  14.510
  863W        W67646  17.773  33.601   3.789
  864W        W67647  32.163   3.280  11.040
  865W        W67648  14.306   8.934   4.049
  866W        W67649   5.969  36.852   4.897
  867W        W67650   6.751  19.155  10.732
  868W        W67651   6.520  32.088  10.202
  869W        W67652  36.505  16.772  13.337
  870W        W67653  42.228   9.360   0.261
  871W        W67654  15.546   4.891  13.831
  872W        W67655  27.380  20.930  12.613
  873W        W67656  28.503  14.878  10.862
  874W        W67657   7.442  30.195   2.305
  875W        W67658  20.220   8.034  13.218
  876W        W67659  24.699  32.698  10.711
  877W        W67660  13.192  14.513   0.774
  878W        W67661  17.854   0.760  14.453
  879W        W67662  19.091  31.941  13.311
  880W        W67663   2.314  31.095   0.292
  881W        W67664  44.851  19.516   0.262
  882W        W67665  36.506   1.656   0.823
  883W        W67666  29.607  17.129  14.786
  884W        W67667   0.289  31.850  11.171
  885W        W67668   3.312  18.101  11.626
  886W        W67669  41.047  21.248   4.559
  887W        W67670  13.832   6.695   1.944
  888W        W67671  35.798   2.429  13.416
  889W        W67672  23.238  41.484  14.047
  890W        W67673  42.776  32.428   2.906
  891W        W67674   7.752  17.384   1.784
  892W        W67675  22.492  10.719  13.841
  893W        W67676   5.397  30.641   4.620
  894W        W67677  19.773   9.500  13.990
  895W        W67678   9.317  39.494   0.878
  896W        W67679  18.701   1.700  13.425
  897W        W67680  39.727   7.419  13.519
  898W        W67681   0.014  31.550   4.542
  899W        W67682  12.871  34.467   3.148
  900W        W67683   1.984  19.694  11.924
  901W        W67684   4.291  11.179   0.721
  902W        W67685   0.949  34.952   1.266
  903W        W67686  30.104  32.679   1.774
  904W        W67687   1.351  26.212   1.979
  905W        W67688  34.135  42.408  14.803
  906W        W67689  31.949  20.495   0.274
  907W        W67690  17.999  26.358  10.688
  908W        W67691  25.612  14.228  11.609
  909W        W67692  20.627  39.311   0.122
  910W        W67693  24.521   1.645   3.181
  911W        W67694  11.549  31.657  14.974
  912W        W67695   2.280   2.437   2.898
  913W        W67696  34.930  35.063  13.568
  914W        W67697  17.615   5.314   2.330
  915W        W67698  12.112  23.506   4.545
  916W        W67699  31.445  23.937   4.128
  917W        W67700  33.063  37.797  14.513
  918W        W67701  26.526  43.244  12.426
  919W        W67702  23.418  11.293  11.520
  920W        W67703   2.442  36.932   3.243
  921W        W67704  10.808  14.117  11.732
  922W        W67705  36.379  23.419   2.197
  923W        W67706  15.250  33.998   9.939
  924W        W67707   7.237  20.090   1.923
  925W        W67708  30.481  10.350  14.940
  926W        W67709  42.587  19.830   3.609
  927W        W67710   0.243  33.882   2.654
  928W        W67711  22.551  31.073   0.243
  929W        W67712  25.233   2.929   3.135
  930W        W67713  20.668  35.900  10.733
  931W        W67714  33.604  20.817   3.689
  932W        W67715   1.046  32.095  13.492
  933W        W67716  38.318   6.955  11.884
  934W        W67717  40.449  26.619  11.431
  935W        W67718   3.710  17.165   0.196
  936W        W67719  41.393  24.176  12.043
  937W        W67720  24.671  38.046  12.465
  938W        W67721  25.975   2.771   1.640
  939W        W67722  28.812  43.969  10.792
  940W        W67723   5.222  14.827  12.613
  941W        W67724   6.288   9.780  10.823
  942W        W67725  36.743   8.090   5.084
  943W        W67726  11.569   3.382   4.352
  944W        W67727   5.877  38.001   3.546
  945W        W67728   3.315  20.913  14.756
  946W        W67729  33.169   8.813   1.191
  947W        W67730  17.277   0.818   1.829
  948W        W67731  29.845   8.661  12.457
  949W        W67732  16.429  19.702  10.553
  950W        W67733  15.702  35.528   0.251
  951W        W67734  32.331   6.884   9.916
  952W        W67735  12.858   6.559   1.239
  953W        W67736   4.955  12.902  12.941
  954W        W67737  22.055   9.188   3.676
  955W        W67738  34.879  23.680   1.450
  956W        W67739   4.219   0.426  12.536
  957W        W67740   7.037  28.123  14.788
  958W        W67741  26.198  24.115   0.926
  959W        W67742  14.614  15.392   3.235
  960W        W67743  26.246  15.696   4.399
  961W        W67744  23.884  40.074  11.587
  962W        W67745  26.167  13.645  11.970
  963W        W67746  42.044  27.204  11.702
  964W        W67747   8.200   8.544  10.441
  965W        W67748  30.740  42.950   4.663
  966W        W67749  13.647  19.738   0.942
  967W        W67750  17.590  15.354  14.590
  968W        W67751  44.843  36.900  10.676
  969W        W67752  17.170   0.449   3.099
  970W        W67753  26.663   5.450   2.388
  971W        W67754  35.899  17.999  13.441
  972W        W67755  36.156  35.438   0.669
  973W        W67756  17.253  24.452   2.283
  974W        W67757  17.731  35.009   1.282
  975W        W67758  25.014   1.637   0.898
  976W        W67759   0.503  31.080   3.697
  977W        W67760  29.610   5.611  11.288
  978W        W67761  24.900  21.536  11.488
  979W        W67762  29.144  23.758   0.322
  980W        W67763  39.707  42.092   3.768
  981W        W67764  16.416  11.793  11.251
  982W        W67765  11.877  21.118  11.928
  983W        W67766  39.271  25.170  12.090
  984W        W67767  40.801  17.879  14.537
  985W        W67768  38.590  43.935  10.850
  986W        W67769  11.622  44.904   2.380
  987W        W67770   7.361  25.030   4.390
  988W        W67771   3.344  15.017   3.348
  989W        W67772  34.166  25.588   1.332
  990W        W67773  30.956  13.287  10.789
  991W        W67774   5.254  35.084  12.999
  992W        W67775  33.558  27.619   0.068
  993W        W67776  21.177   8.464   0.707
  994W        W67777   0.539  33.531   1.472
  995W        W67778  25.532   1.396   1.006
  996W        W67779  38.426  36.169  11.496
  997W        W67780  14.157  25.122  13.818
  998W        W67781   3.672  41.734   2.802
  999W        W67782  32.349  30.717   1.538
 1000W        W67783   0.093  15.082   2.279
 1001W        W67784  20.412  26.102   3.729
 1002W        W67785   6.246  17.385  14.706
 1003W        W67786  26.472  42.246  12.519
 1004W        W67787  23.522   8.176  14.256
 1005W        W67788  32.426  31.508   4.589
 1006W        W67789  38.119   4.980   3.234
 1007W        W67790  39.853  27.903   2.032
 1008W        W67791   3.444  26.577  10.330
 1009W        W67792  42.386   5.820  13.502
 1010W        W67793  10.803  29.594   1.173
 1011W        W67794  15.719   9.765  10.637
 1012W        W67795   4.489  22.553   4.700
 1013W        W67796  40.553  17.717  11.020
 1014W        W67797   0.403   0.725  10.766
 1015W        W67798   3.855  13.193   5.003
 1016W        W67799  36.789  40.301  11.174
 1017W        W67800   5.834   0.129   0.857
 1018W        W67801   2.084  12.210  12.908
 1019W        W67802  38.267  30.428  10.693
 1020W        W67803  32.453   6.232   3.681
 1021W        W67804  21.039  30.460  13.881
 1022W        W67805  27.057  36.064  13.503
 1023W        W67806  29.853  38.500  11.645
 1024W        W67807  40.234   7.466   3.319
 1025W        W67808  27.211  27.095  11.507
 1026W        W67809  35.585   6.186   1.179
 1027W        W67810  36.091  12.073  13.928
 1028W        W67811   8.283  32.919   1.998
 1029W        W67812  43.208  28.573   0.839
 1030W        W67813  19.995  19.242  11.109
 1031W        W67814  14.327  31.598   2.844
 1032W        W67815   9.067   0.981   3.220
 1033W        W67816  13.162  14.189  11.041
 1034W        W67817  30.329  17.788   3.513
 1035W        W67818   5.365   7.443   2.564
 1036W        W67819  40.877  40.576   0.039
 1037W        W67820  20.944   4.948  13.538
 1038W        W67821  33.313  18.642  10.110
 1039W        W67822  20.677  40.408  13.586
 1040W        W67823  34.503  42.010  13.940
 1041W        W67824  35.504  28.975  11.685
 1042W        W67825  18.668  42.322   1.507
 1043W        W67826  23.571  34.404   1.279
 1044W        W67827  34.841  34.488  11.551
 1045W        W67828  40.922  20.265   1.997
 1046W        W67829  20.592   4.720   1.475
 1047W        W67830  28.672  39.176  12.421
 1048W        W67831  39.564  30.667  13.137
 1049W        W67832  24.544   6.351   4.302
 1050W        W67833  11.317  16.150   3.798
 1051W        W67834  43.259  32.510   1.659
 1052W        W67835  38.320  19.126  11.510
 1053W        W67836  30.557  15.369   4.490
 1054W        W67837  43.838  14.101  12.711
 1055W        W67838   0.762   1.414   4.234
 1056W        W67839  26.250  44.345   1.406
 1057W        W67840   2.438   1.663  14.421
 1058W        W67841  44.477   4.134  12.516
 1059W        W67842  44.326  28.572  11.891
 1060W        W67843   2.733   2.958  13.860
 1061W        W67844  10.684  20.484   1.314
 1062W        W67845   0.508  35.840   4.569
 1063W        W67846  27.548  22.295   3.718
 1064W        W67847  42.374  32.703  13.013
 1065W        W67848  23.101  40.854  11.003
 1066W        W67849  16.701  29.159   2.617
 1067W        W67850  28.426  10.755  11.554
 1068W        W67851  11.693  17.449  14.007
 1069W        W67852  24.013  42.649  13.846
 1070W        W67853  12.863   6.441   2.594
 1071W        W67854  11.796  27.510  14.833
 1072W        W67855  22.656  21.961   4.793
 1073W        W67856  14.760  19.277   1.473
 1074W        W67857  40.435  43.056   4.171
 1075W        W67858  10.118   9.746  13.012
 1076W        W67859  31.353  35.082   1.880
 1077W        W67860  25.025   1.779  12.112
 1078W        W67861  38.037  30.482  14.233
 1079W        W67862  28.709   0.512  12.934
 1080W        W67863  30.892  20.922  10.272
 1081W        W67864  42.791   7.278  13.860
 1082W        W67865   1.915  37.924   3.741
 1083W        W67866  42.603   9.749  14.543
 1084W        W67867  11.018  25.042  10.722
 1085W        W67868  35.944  44.382   3.407
 1086W        W67869  26.649  31.896   4.117
 1087W        W67870   8.907  18.670   0.728
 1088W        W67871  12.793  13.248   1.319
 1089W        W67872  11.121  15.795   4.141
 1090W        W67873  37.954  20.189   3.944
 1091W        W67874  38.269   6.333   0.452
 1092W        W67875  19.008   7.305  13.039
 1093W        W67876  27.035   5.405  10.556
 1094W        W67877   5.225  35.364   4.829
 1095W        W67878  27.065   0.341   1.929
 1096W        W67879   9.229  40.254   1.345
 1097W        W67880   9.320  17.087  11.021
 1098W        W67881  33.194  26.492   3.249
 1099W        W67882  44.410  41.892   0.903
 1100W        W67883  10.063   5.371  11.040
 1101W        W67884  30.044   8.334  14.286
 1102W        W67885  41.743  16.607  12.166
 1103W        W67886  26.639  31.605   2.164
 1104W        W67887   5.438  16.589  11.256
 1105W        W67888  11.274  16.088   0.558
 1106W        W67889  23.605   9.429   2.939
 1107W        W67890   1.763  18.209  11.679
 1108W        W67891  35.542  12.149   4.287
 1109W        W67892  25.618  22.927   4.072
 1110W        W67893   8.687  18.705   4.222
 1111W        W67894   8.159  14.732  14.945
 1112W        W67895   3.189  15.726   2.788
 1113W        W67896   4.759  25.974  13.505
 1114W        W67897  37.802  13.949  14.851
 1115W        W67898  28.614  21.769   3.778
 1116W        W67899  18.837  24.548  12.535
 1117W        W67900  18.254  29.594   4.622
 1118W        W67901   7.097  42.426   0.201
 1119W        W67902   7.866  41.008  11.605
 1120W        W67903   5.153  32.604   1.368
 1121W        W67904  40.054  33.150   2.747
 1122W        W67905  40.508  19.997   1.786
 1123W        W67906   8.823  12.721  11.166
 1124W        W67907   7.484  20.469   3.299
 1125W        W67908  24.135  10.601   4.050
 1126W        W67909   5.191  28.089  12.821
 1127W        W67910  31.577  33.960  12.547
 1128W        W67911   7.045   9.858   2.581
 1129W        W67912  31.645  39.800   3.695
 1130W        W67913   9.751  19.233  11.512
 1131W        W67914  19.367   9.369   4.219
 1132W        W67915  19.462  29.418   4.193
 1133W        W67916  37.619  24.205   3.926
 1134W        W67917  21.651  42.486   3.613
 1135W        W67918  30.659  36.574   4.520
 1136W        W67919  35.496   3.441  11.932
 1137W        W67920   2.560  15.815  10.695
 1138W        W67921  16.214  38.340  12.063
 1139W        W67922  37.203  31.015  13.525
 1140W        W67923  13.347   1.554   3.635
 1141W        W67924  36.473   1.765   3.260
 1142W        W67925  31.641  35.796  12.853
 1143W        W67926   0.529   0.929   4.207
 1144W        W67927  29.887  15.251  10.653
 1145W        W67928  35.331  11.816  11.460
 1146W        W67929  32.326  28.527   2.429
 1147W        W67930   6.644  31.638   4.560
 1148W        W67931  13.280  28.111  14.459
 1149W        W67932  24.225  42.722  12.105
 1150W        W67933  11.184  21.228  13.911
 1151W        W67934  40.284   2.763  11.518
 1152W        W67935  28.024  37.373   3.814
 1153W        W67936   9.655  23.017  13.339
 1154W        W67937  10.845   0.316  11.146
 1155W        W67938  12.128  12.712  11.693
 1156W        W67939  39.438  13.448   1.632
 1157W        W67940  32.385   9.341  13.474
 1158W        W67941  11.721  36.408   5.164
 1159W        W67942  40.637  26.872  12.635
 1160W        W67943   7.097   5.984   3.416
 1161W        W67944  34.312   3.917   5.525
 1162W        W67945  28.695  43.846   0.343
 1163W        W67946  18.830  14.745  14.827
 1164W        W67947  15.623   1.540  14.892
 1165W        W67948  28.719  18.665  11.139
 1166W        W67949  20.017   7.713  11.359
 1167W        W67950  26.407  30.626  13.958
 1168W        W67951  32.118  23.768   3.620
 1169W        W67952   8.769  32.100   2.124
 1170W        W67953  16.167  15.753  10.349
 1171W        W67954  34.338  42.718   1.800
 1172W        W67955  39.778   1.986  11.020
 1173W        W67956  22.781  16.494  12.554
 1174W        W67957  15.958  33.051  11.461
 1175W        W67958   6.673  20.826   3.141
 1176W        W67959  30.157  29.972   2.329
 1177W        W67960  15.673  12.687   3.232
 1178W        W67961  27.392  33.997  13.494
 1179W        W67962  17.680  10.777  13.697
 1180W        W67963   3.226  19.227  12.068
 1181W        W67964  15.388  22.232  12.843
 1182W        W67965   0.879  24.945   1.850
 1183W        W67966  18.314  31.540  11.140
 1184W        W67967  26.509  31.120  14.378
 1185W        W67968   0.031   4.948   1.876
 1186W        W67969  13.606  32.195   3.694
 1187W        W67970   6.766  15.410  12.062
 1188W        W67971  25.148  18.558   1.404
 1189W        W67972  28.692  43.822   4.190
 1190W        W67973   2.435   5.551  11.572
 1191W        W67974   6.202   4.321   2.260
 1192W        W67975  39.560  14.181  14.395
 1193W        W67976  23.558   4.700   5.454
 1194W        W67977   3.518  11.806   1.854
 1195W        W67978  19.515  14.252   4.022
 1196W        W67979  13.023  26.559  10.512
 1197W        W67980  17.795  34.882  12.591
 1198W        W67981  11.587  40.275   0.404
 1199W        W67982  30.702  40.425   2.246
 1200W        W67983  42.063   4.259   2.627
 1201W        W67984  39.031  39.636  14.262
 1202W        W67985   2.661   9.207   2.712
 1203W        W67986  44.894  31.632  11.420
 1204W        W67987  30.884  20.524  12.108
 1205W        W67988  38.834  10.356  12.841
 1206W        W67989  31.521   6.742   4.181
 1207W        W67990  22.309  13.132   4.995
 1208W        W67991  35.777   9.936  14.457
 1209W        W67992  33.964   8.772  13.840
 1210W        W67993   6.272  41.083  11.539
 1211W        W67994  31.417  41.984  12.110
 1212W        W67995  43.487   3.018   2.236
 1213W        W67996  14.778  44.459  14.875
 1214W        W67997  28.820  19.171   0.891
 1215W        W67998  25.163  23.283  12.357
 1216W        W67999  40.049   1.453  11.107
 1217W        W68000  18.215  22.231  13.365
 1218W        W68001   0.185   5.086   0.907
 1219W        W68002  18.264   2.943   2.312
 1220W        W68003   3.842   3.894   2.519
 1221W        W68004  25.686  33.660   3.286
 1222W        W68005   5.286   5.937   2.768
 1223W        W68006   2.156  27.759   2.390
 1224W        W68007  11.916   3.503   4.696
 1225W        W68008  26.286  25.660  14.893
 1226W        W68009  37.275   9.620  14.228
 1227W        W68010  30.128  24.196   2.659
 1228W        W68011   6.187  35.282   2.612
 1229W        W68012   8.312  25.491   1.460
 1230W        W68013   5.762   2.294   2.302
 1231W        W68014  37.034   5.280   4.524
 1232W        W68015  23.232  19.893   0.570
 1233W        W68016  42.973  14.158   0.265
 1234W        W68017   8.573  37.295   3.263
 1235W        W68018   5.320  31.324  13.743
 1236W        W68019   0.897  31.864  11.695
 1237W        W68020  33.870   4.173   4.034
 1238W        W68021  30.882  24.686  13.805
 1239W        W68022  38.533  34.994  12.127
 1240W        W68023  27.688  36.893   0.762
 1241W        W68024  26.356  24.646  12.387
 1242W        W68025  26.038  26.696  11.553
 1243W        W68026  13.311   8.699   5.015
 1244W        W68027  23.892   1.187  10.842
 1245W        W68028  27.397  25.170  12.564
 1246W        W68029  42.913  21.181   2.472
 1247W        W68030  26.098   9.593   3.198
 1248W        W68031  27.128  43.785  11.996
 1249W        W68032  31.576  16.320  13.518
 1250W        W68033  25.231  36.215   2.568
 1251W        W68034  40.216  31.167  12.504
 1252W        W68035  16.198   3.335   3.723
 1253W        W68036  41.052  11.993  11.139
 1254W        W68037   1.360  14.188   4.519
 1255W        W68038  38.548  29.121  11.480
 1256W        W68039   2.098  28.954   1.837
 1257W        W68040  27.658  18.050  12.097
 1258W        W68041  12.201  35.581  11.594
 1259W        W68042  13.999  38.723  10.743
 1260W        W68043  34.533  33.671   2.222
 1261W        W68044  29.652   6.845  11.115
 1262W        W68045  11.550   4.514  10.192
 1263W        W68046  13.895  31.210   0.424
 1264W        W68047  15.512  14.610   2.680
 1265W        W68048  10.816  18.832  14.420
 1266W        W68049  44.402  17.603  14.983
 1267W        W68050   2.720  30.003  13.846
 1268W        W68051  31.511  35.026   3.890
 1269W        W68052   9.242  28.159   1.872
 1270W        W68053  37.362   4.949   1.587
 1271W        W68054  40.408  25.734   0.787
 1272W        W68055  43.038   8.520   2.867
 1273W        W68056  17.005  37.608  13.807
 1274W        W68057  18.405   7.389   4.598
 1275W        W68058  35.555  40.467  10.458
 1276W        W68059  11.187   7.241   1.322
 1277W        W68060   5.723  32.388  11.490
 1278W        W68061  32.871  30.870  12.637
 1279W        W68062  35.932  27.057  10.376
 1280W        W68063   7.757  33.991  14.873
 1281W        W68064  26.764  37.300  12.114
 1282W        W68065  12.750  29.414  12.882
 1283W        W68066  20.256  43.813  10.445
 1284W        W68067  34.447  32.341   3.674
 1285W        W68068  21.560  18.412   2.262
 1286W        W68069  19.795  36.461  13.800
 1287W        W68070   5.349  38.532   2.932
 1288W        W68071  31.441   0.223   2.791
 1289W        W68072  35.527   1.248   2.582
 1290W        W68073  42.523  36.894   4.722
 1291W        W68074  18.783  13.107  10.582
 1292W        W68075   5.373  35.605   4.334
 1293W        W68076  21.660   9.895   1.374
 1294W        W68077   3.112  24.832   4.277
 1295W        W68078   5.877  17.115   1.986
 1296W        W68079   0.007  10.420  14.872
 1297W        W68080  25.631  23.271   2.713
 1298W        W68081  12.353  41.817   2.660
 1299W        W68082  15.795  20.096  13.297
 1300W        W68083  37.010  30.227  14.831
 1301W        W68084   6.292  21.322   0.271
 1302W        W68085   3.670   3.847  14.008
 1303W        W68086  21.749  44.368  11.929
 1304W        W68087   3.953   4.034  11.556
 1305W        W68088   9.452  35.784   1.497
 1306W        W68089  15.567  32.794   4.106
 1307W        W68090  12.798  15.906  11.132
 1308W        W68091  28.645   0.404   0.869
 1309W        W68092  23.124  11.843  13.383
 1310W        W68093  16.346  23.209  14.078
 1311W        W68094  26.849  41.982  14.120
 1312W        W68095   8.809   4.838  14.933
 1313W        W68096  42.940  43.290  11.700
 1314W        W68097  26.930  40.919  11.186
 1315W        W68098  23.768   7.267  13.827
 1316W        W68099  12.870   7.979  11.590
 1317W        W68100  23.563   2.643   0.260
 1318W        W68101  28.968  36.408   4.018
 1319W        W68102  20.449  30.462  13.132
 1320W        W68103  27.099  22.249  12.888
 1321W        W68104  43.339  30.436   4.556
 1322W        W68105   0.505  19.600   4.259
 1323W        W68106  19.933  10.734  10.814
 1324W        W68107   4.375  16.558   2.225
 1325W        W68108  11.376   7.929   0.971
 1326W        W68109  27.283   3.919  10.749
 1327W        W68110   1.367   6.767  13.938
 1328W        W68111  17.142  40.815  12.675
 1329W        W68112  11.472  36.948   3.247
 1330W        W68113  10.379   7.666   1.276
 1331W        W68114  31.185   1.211   4.303
 1332W        W68115  15.172  15.381   3.690
 1333W        W68116   2.223  32.502  14.552
 1334W        W68117  15.215   3.338  14.611
 1335W        W68118  15.744  31.981   1.390
 1336W        W68119  25.111  12.681   4.048
 1337W        W68120  20.620  44.384   3.195
 1338W        W68121  24.032  11.841   1.317
 1339W        W68122  26.522   6.853   2.261
 1340W        W68123  21.514  29.844   5.060
 1341W        W68124  43.070  23.518  12.165
 1342W        W68125  32.528   3.355  11.602
 1343W        W68126  16.726  38.612   1.958
 1344W        W68127  34.565  39.028   3.663
 1345W        W68128   7.370  29.877   1.301
 1346W        W68129   4.232   3.815  11.916
 1347W        W68130  32.078  33.459   2.692
 1348W        W68131  40.440  22.519  11.972
 1349W        W68132   0.309   8.985   2.841
 1350W        W68133  22.554  26.100   3.077
 1351W        W68134  36.609  37.987  12.402
 1352W        W68135  20.665  11.720  12.153
 1353W        W68136  33.576   0.088   2.991
 1354W        W68137  35.052  11.192   0.768
 1355W        W68138  39.346  34.688  13.903
 1356W        W68139  16.754  30.207   2.103
 1357W        W68140  42.209   8.231  13.990
 1358W        W68141  17.993  27.572  14.409
 1359W        W68142  30.157  10.310   1.249
 1360W        W68143  20.134  12.789  13.980
 1361W        W68144  33.464  11.627  14.269
 1362W        W68145  43.865  41.291  14.555
 1363W        W68146  44.644  34.667  13.889
 1364W        W68147   2.522   2.297   4.611
 1365W        W68148  23.675  38.551  12.129
 1366W        W68149  21.003  43.552  11.468
 1367W        W68150   2.455  16.676   1.684
 1368W        W68151   9.148   2.795  12.890
 1369W        W68152   6.850  10.805   1.734
 1370W        W68153  25.923  15.633   1.430
 1371W        W68154  24.510  42.471  13.953
 1372W        W68155   6.901  38.530   3.260
 1373W        W68156  44.024  17.288   4.917
 1374W        W68157  41.803  42.996   2.520
 1375W        W68158   2.002  44.145  11.147
 1376W        W68159  42.035   3.732  11.111
 1377W        W68160  32.373  22.600   4.610
 1378W        W68161  30.031  18.621   0.771
 1379W        W68162  19.097  12.259   2.817
 1380W        W68163  27.205  18.106  14.310
 1381W        W68164  18.232  43.712  14.245
 1382W        W68165  26.140  30.940   2.384
 1383W        W68166  21.480  38.314   1.288
 1384W        W68167  10.295  27.030   1.869
 1385W        W68168  34.631  40.420  12.111
 1386W        W68169   6.335  17.596   0.898
 1387W        W68170  30.033  39.986  14.392
 1388W        W68171  31.173  21.244  13.573
 1389W        W68172  23.487  40.070  14.440
 1390W        W68173  24.858  27.845   0.009
 1391W        W68174   8.635  29.038   4.787
 1392W        W68175  28.140  23.661   4.085
 1393W        W68176  24.302  12.637   5.066
 1394W        W68177  34.602  41.359  12.740
 1395W        W68178  32.961   7.923  11.647
 1396W        W68179  43.442  36.040  13.371
 1397W        W68180  32.622  24.769   2.258
 1398W        W68181   4.247  26.672  10.286
 1399W        W68182  41.845  14.282  14.042
 1400W        W68183  38.057  41.497  14.317
 1401W        W68184  23.100  27.609   0.207
 1402W        W68185  14.876  12.702   0.620
 1403W        W68186  20.127  10.172  14.322
 1404W        W68187  14.753  17.197   3.698
 1405W        W68188  12.152  12.340  11.340
 1406W        W68189   0.293  40.326   4.401
 1407W        W68190  34.428  30.105   4.702
 1408W        W68191  31.671   8.670   3.109
 1409W        W68192  40.474  11.668   0.467
 1410W        W68193  17.028  42.441  12.626
 1411W        W68194  13.585  32.884  13.372
 1412W        W68195   8.856   9.355  10.402
 1413W        W68196  27.541   6.815   3.968
 1414W        W68197  30.518   6.672  11.518
 1415W        W68198  14.916  40.958  13.439
 1416W        W68199  19.038   2.890  11.669
 1417W        W68200  25.055  18.774  10.472
 1418W        W68201  40.276  42.023   3.172
 1419W        W68202  20.342   3.844   4.878
 1420W        W68203  24.191  44.450   4.484
 1421W        W68204  36.870  19.512   3.136
 1422W        W68205  25.897  10.632   1.372
 1423W        W68206  24.694  22.508  14.073
 1424W        W68207  23.051  43.410  12.959
 1425W        W68208   4.909  41.447  12.038
 1426W        W68209  36.458   1.433  14.932
 1427W        W68210  15.578  13.768   4.093
 1428W        W68211   3.212  14.311  12.443
 1429W        W68212  25.188   9.578  14.428
 1430W        W68213  13.745  22.575  14.408
 1431W        W68214  44.947   5.743   2.801
 1432W        W68215  30.619  16.213  12.583
 1433W        W68216  23.450  22.744   5.257
 1434W        W68217  36.964  32.363   2.422
 1435W        W68218  23.438  28.244  14.330
 1436W        W68219   4.348   1.044   3.610
 1437W        W68220  28.559   9.948  14.781
 1438W        W68221   7.561  12.214  12.536
 1439W        W68222  19.192   7.413  11.590
 1440W        W68223  13.555   4.872   0.456
 1441W        W68224   8.963  36.715   4.668
 1442W        W68225  33.858  28.070   0.432
 1443W        W68226   3.390  17.595  11.770
 1444W        W68227  19.977  37.067   0.653
 1445W        W68228  32.082  23.597   0.981
 1446W        W68229  36.789  25.571  13.424
 1447W        W68230   5.961  37.835   4.547
 1448W        W68231  36.780   8.259  13.012
 1449W        W68232  27.524  14.216   4.649
 1450W        W68233  12.370  12.433   2.755
 1451W        W68234  37.062   6.250  10.693
 1452W        W68235   3.664  33.684  14.436
 1453W        W68236  41.260  26.465   1.278
 1454W        W68237  29.218  40.285   4.967
 1455W        W68238  13.691  29.016  11.192
 1456W        W68239   6.203   4.907  10.093
 1457W        W68240  33.402   4.805  14.834
 1458W        W68241  21.115  15.181   1.459
 1459W        W68242  37.513  27.669  11.546
 1460W        W68243  24.534  35.957   0.000
 1461W        W68244   6.999  40.966   3.210
 1462W        W68245   5.304  32.172  10.175
 1463W        W68246  18.227   3.701   1.880
 1464W        W68247  29.821  27.666   4.650
 1465W        W68248   9.086  17.956  14.129
 1466W        W68249  13.895  25.159  11.106
 1467W        W68250  34.988  10.427   4.332
 1468W        W68251  16.512  18.135  12.517
 1469W        W68252  36.854   3.233   4.193
 1470W        W68253   8.174  18.874   0.447
 1471W        W68254  14.595  22.787   3.101
 1472W        W68255  14.864  31.484  13.380
 1473W        W68256  12.589  32.286  11.071
 1474W        W68257   1.300   9.500  10.160
 1475W        W68258  37.540  29.872   1.675
 1476W        W68259  37.413   5.891  10.709
 1477W        W68260  33.372   1.680   2.235
 1478W        W68261  18.564  29.983  10.650
 1479W        W68262  19.606  35.845   3.200
 1480W        W68263  34.949  33.461   3.949
 1481W        W68264  22.172   9.179   0.181
 1482W        W68265  32.835  41.438   1.768
 1483W        W68266  42.920   7.229   1.671
 1484W        W68267  31.521  44.356  13.370
 1485W        W68268  25.396  12.485   4.454
 1486W        W68269  21.037   9.165  13.841
 1487W        W68270  21.331  35.217  11.463
 1488W        W68271  14.737  31.056   0.955
 1489W        W68272  20.025  35.621   1.286
 1490W        W68273  40.854  44.214   4.116
 1491W        W68274  28.377   2.263   0.722
 1492W        W68275  40.790   8.724   0.880
 1493W        W68276  36.635  21.242  10.249
 1494W        W68277  27.671   7.898   2.598
 1495W        W68278   9.203  39.944   4.492
 1496W        W68279  28.983  34.516   3.659
 1497W        W68280  34.728  11.075   1.664
 1498W        W68281  12.339  11.159  12.869
 1499W        W68282  24.222  23.535   5.027
 1500W        W68283  41.574   4.729   2.324
 1501W        W68284  28.484  43.897   1.764
 1502W        W68285  34.296  13.098  12.601
 1503W        W68286   4.129  21.080  14.376
 1504W        W68287  42.419  44.394  10.723
 1505W        W68288  29.352   2.246  11.596
 1506W        W68289   7.689  28.140   3.593
 1507W        W68290   4.402  35.309  10.711
 1508W        W68291   4.774  42.923   1.761
 1509W        W68292  17.284   3.383  10.253
 1510W        W68293  17.029  43.394   0.301
 1511W        W68294   4.776   7.852  10.659
 1512W        W68295  33.861  41.906  12.184
 1513W        W68296  42.343  44.439  13.832
 1514W        W68297   6.008  13.679   2.308
 1515W        W68298  16.046  29.351  13.048
 1516W        W68299   6.887  31.902   1.939
 1517W        W68300  10.797   7.722   3.132
 1518W        W68301  44.496  33.752   5.018
 1519W        W68302  44.766  30.631  12.312
 1520W        W68303  24.050  38.934   1.967
 1521W        W68304  20.659   1.884  13.569
 1522W        W68305  17.672   0.348   4.929
 1523W        W68306   8.594  12.215  14.397
 1524W        W68307   1.866  27.060  11.644
 1525W        W68308  41.462  26.309  12.893
 1526W        W68309  24.053  21.806   1.811
 1527W        W68310  27.723  12.546   4.157
 1528W        W68311  38.779  34.860   2.781
 1529W        W68312  17.706  17.381  12.591
 1530W        W68313  36.600  31.977  14.206
 1531W        W68314  22.167  32.686   0.398
 1532W        W68315  41.612   1.676  13.424
 1533W        W68316   8.404  31.502   0.783
 1534W        W68317  43.713  17.553   4.167
 1535W        W68318  14.822  43.335  14.026
 1536W        W68319  10.959  11.162  14.091
 1537W        W68320  10.448   9.185   2.319
 1538W        W68321  37.470  16.576  12.387
 1539W        W68322   1.303  44.652  11.144
 1540W        W68323  33.020  17.658   2.760
 1541W        W68324  35.526  15.342  14.075
 1542W        W68325  29.442  30.601   1.304
 1543W        W68326  25.673   3.415  10.238
 1544W        W68327  21.531   9.629  11.662
 1545W        W68328   4.889  22.252  12.288
 1546W        W68329  39.376  11.799  11.193
 1547W        W68330  29.569  21.417  11.835
 1548W        W68331  27.829  22.673   4.438
 1549W        W68332   1.312  13.016  12.457
 1550W        W68333  32.438  10.091  14.359
 1551W        W68334  23.638  30.941   0.233
 1552W        W68335  20.438  22.912  13.461
 1553W        W68336  37.045   9.460   0.957
 1554W        W68337  42.890  19.067  12.200
 1555W        W68338  40.973  22.096  12.573
 1556W        W68339  16.100  36.111  11.126
 1557W        W68340   4.577   9.229  11.220
 1558W        W68341  14.029  10.753   2.295
 1559W        W68342   3.786  36.662  12.052
 1560W        W68343  22.107  13.298  13.066
 1561W        W68344  20.715  29.013   3.370
 1562W        W68345   0.860   7.714  13.507
 1563W        W68346   2.876  24.541  12.073
 1564W        W68347  16.266  34.144   4.087
 1565W        W68348   0.452   3.165   1.734
 1566W        W68349   0.754  37.898  13.155
 1567W        W68350   3.982  25.112   3.778
 1568W        W68351  16.149  42.109   1.739
 1569W        W68352  34.596  28.377  11.025
 1570W        W68353  12.199   5.813   0.030
 1571W        W68354  36.948  19.739  12.874
 1572W        W68355  22.789  26.295  13.437
 1573W        W68356   2.407  22.909   3.548
 1574W        W68357  10.916  28.250  14.680
 1575W        W68358   2.895  26.154  13.867
 1576W        W68359  28.391  16.195  13.574
 1577W        W68360  12.839  36.006   2.856
 1578W        W68361  35.844  32.383  13.078
 1579W        W68362  14.296  17.827   0.064
 1580W        W68363  17.012  32.026  14.831
 1581W        W68364  31.938  12.837  13.358
 1582W        W68365  10.418   9.250  13.334
 1583W        W68366  38.466  27.102  11.371
 1584W        W68367   9.240  10.334   0.784
 1585W        W68368  17.278   2.455  10.030
 1586W        W68369  20.607  22.928   3.301
 1587W        W68370  39.860  17.649   2.144
 1588W        W68371  16.770  23.015   2.165
 1589W        W68372  11.138   7.574  11.121
 1590W        W68373   4.001  44.455   4.507
 1591W        W68374  29.710   0.458  14.000
 1592W        W68375   0.346   6.904   1.862
 1593W        W68376  42.372   6.275   5.403
 1594W        W68377   7.754  33.359   3.277
 1595W        W68378  39.549  37.834   2.257
 1596W        W68379  21.309   9.782   0.917
 1597W        W68380  26.521  39.812  13.060
 1598W        W68381   9.357  27.905  13.110
 1599W        W68382  38.266  24.639  13.912
 1600W        W68383   8.352  41.626  13.982
 1601W        W68384  14.720  23.120  14.987
 1602W        W68385  13.526   1.427   0.848
 1603W        W68386  40.440  12.500  11.455
 1604W        W68387  20.793  26.177   4.793
 1605W        W68388  22.416  19.136  10.635
 1606W        W68389  30.212  43.914  14.375
 1607W        W68390   6.224  43.490   0.839
 1608W        W68391  19.651   2.667   4.963
 1609W        W68392  34.973   8.475   5.348
 1610W        W68393  12.601   8.215  12.966
 1611W        W68394  31.334  19.270  12.594
 1612W        W68395  37.833  43.115  11.362
 1613W        W68396  21.169  20.953   4.253
 1614W        W68397  17.385  20.172   2.625
 1615W        W68398   6.170  37.888  14.010
 1616W        W68399  39.760  33.473   2.402
 1617W        W68400  10.248   8.402   0.203
 1618W        W68401  19.670  30.230   3.196
 1619W        W68402  24.719  42.171  12.830
 1620W        W68403   9.111   7.908   0.934
 1621W        W68404  16.037  18.039  14.916
 1622W        W68405  14.219  28.494  14.202
 1623W        W68406  40.411  23.787  14.802
 1624W        W68407  19.778  31.057   1.747
 1625W        W68408   5.803  17.972   3.657
 1626W        W68409  36.996  27.529   4.581
 1627W        W68410  17.899  20.193   2.770
 1628W        W68411  29.464  17.854   0.351
 1629W        W68412  19.194  22.508   2.493
 1630W        W68413  19.279  20.908  12.631
 1631W        W68414  20.056  23.726  13.987
 1632W        W68415  33.643   5.775  13.788
 1633W        W68416  27.034   0.874  12.199
 1634W        W68417   7.444  35.677  12.952
 1635W        W68418  24.360  20.683  14.547
 1636W        W68419   2.926   7.524  13.516
 1637W        W68420  41.577  35.558  11.597
 1638W        W68421   6.904  11.778   1.217
 1639W        W68422  21.081  38.937  11.150
 1640W        W68423  22.559  44.918  12.659
 1641W        W68424   3.821  40.600  11.952
 1642W        W68425  19.344  33.171   0.345
 1643W        W68426  33.507  43.867   0.984
 1644W        W68427  29.082  16.279   3.588
 1645W        W68428  43.342  41.038   0.258
 1646W        W68429  34.674  22.554   3.730
 1647W        W68430  31.336  12.435   0.222
 1648W        W68431  24.707   0.855  10.718
 1649W        W68432   1.029   6.997  14.450
 1650W        W68433  11.248  39.389  13.055
 1651W        W68434  35.405  11.718   3.552
 1652W        W68435  43.976  19.777  11.638
 1653W        W68436  17.757  42.081  13.022
 1654W        W68437  21.137  26.646   3.892
 1655W        W68438  40.942   3.255  12.601
 1656W        W68439  24.998   0.338   2.766
 1657W        W68440  14.345  11.177  13.275
 1658W        W68441   2.632  14.969   2.834
 1659W        W68442   2.757   8.617  13.949
 1660W        W68443  17.652  16.956   0.051
 1661W        W68444   6.415  43.032  13.620
 1662W        W68445  10.259  20.242   1.453
 1663W        W68446  39.469   3.865  13.554
 1664W        W68447  30.065   2.516  10.774
 1665W        W68448  13.613  24.569  13.155
 1666W        W68449  43.363   6.078   9.715
 1667W        W68450   9.297  27.433  12.863
 1668W        W68451  38.685   8.752  10.164
 1669W        W68452  15.102  39.919   2.636
 1670W        W68453   2.515  11.388  14.282
 1671W        W68454  20.455   4.286   4.585
 1672W        W68455  27.435  21.593   0.795
 1673W        W68456  17.621  38.823   0.747
 1674W        W68457  44.438  16.283   4.132
 1675W        W68458  15.325  14.307   0.832
 1676W        W68459   0.906  23.015   4.640
 1677W        W68460  21.685   1.460  12.130
 1678W        W68461   1.423   7.620  14.974
 1679W        W68462  10.833  44.943  10.726
 1680W        W68463   9.189  26.201   0.030
 1681W        W68464   0.689  28.893  11.993
 1682W        W68465  39.562  36.403  10.728
 1683W        W68466  26.688  21.994  10.750
 1684W        W68467  10.641  17.130  10.680
 1685W        W68468   4.944   4.186  12.958
 1686W        W68469  11.795  40.729   3.204
 1687W        W68470  44.544  42.853  13.908
 1688W        W68471   4.691  21.206   0.309
 1689W        W68472  13.184  39.096  13.095
 1690W        W68473  12.788  20.323   1.348
 1691W        W68474   1.477   1.825  10.582
 1692W        W68475  22.882   6.658   1.810
 1693W        W68476  27.097  43.056   0.341
 1694W        W68477  31.982   9.399   4.541
 1695W        W68478  13.229  42.987   3.312
 1696W        W68479  43.871  42.463   3.961
 1697W        W68480  37.153  34.480  10.729
 1698W        W68481   6.456  29.985   3.274
 1699W        W68482  14.636  16.620   4.554
 1700W        W68483  15.636  42.039   0.422
 1701W        W68484  18.994  32.077  14.469
 1702W        W68485  25.467  31.545  11.566
 1703W        W68486   0.820   7.853   1.886
 1704W        W68487  28.554  40.124   2.647
 1705W        W68488  18.258  13.354  12.425
 1706W        W68489  18.893  14.743   1.781
 1707W        W68490  33.515  11.421  12.443
 1708W        W68491   0.795   2.528   4.210
 1709W        W68492  25.837   2.780   3.834
 1710W        W68493  19.162  14.702   3.505
 1711W        W68494  12.120  13.664   0.880
 1712W        W68495  34.101  24.739  12.030
 1713W        W68496   2.839  21.229   4.225
 1714W        W68497  10.257   3.799  14.526
 1715W        W68498  28.146  43.230   3.160
 1716W        W68499  19.778  22.251  13.447
 1717W        W68500  28.868  34.152  12.188
 1718W        W68501  16.192  33.002  12.601
 1719W        W68502  44.030   8.175  12.288
 1720W        W68503  36.172  29.086   4.050
 1721W        W68504  12.659   2.476  10.669
 1722W        W68505  13.206  30.110   0.034
 1723W        W68506  24.009  26.641   2.144
 1724W        W68507  37.483  23.715   4.768
 1725W        W68508  12.830  19.006  12.419
 1726W        W68509  27.265  32.632   3.293
 1727W        W68510  39.852   0.950   4.332
 1728W        W68511  22.033  14.631  11.054
 1729W        W68512  16.512   3.711  14.075
 1730W        W68513  29.941  38.111  14.919
 1731W        W68514  27.962   0.276   0.427
 1732W        W68515   6.181  26.895   0.800
 1733W        W68516  37.658  32.838  14.165
 1734W        W68517  18.481  27.834  11.134
 1735W        W68518  27.277  12.867   0.299
 1736W        W68519   1.388   4.863   3.829
 1737W        W68520  17.065  30.157  14.451
 1738W        W68521  40.044  11.121  10.571
 1739W        W68522  28.350  42.362   3.173
 1740W        W68523  27.174  33.606  14.044
 1741W        W68524  42.848  26.605  11.083
 1742W        W68525  16.661  44.477  11.546
 1743W        W68526  33.983  38.849   4.778
 1744W        W68527  27.084   0.278  13.794
 1745W        W68528  42.300   6.799   5.421
 1746W        W68529  39.008  22.412  13.004
 1747W        W68530  14.855  24.106  11.060
 1748W        W68531  24.831  40.503   1.819
 1749W        W68532   2.119  39.408   0.852
 1750W        W68533  28.639  36.346   3.592
 1751W        W68534  36.856  31.099  13.933
 1752W        W68535   0.765   3.756  13.526
 1753W        W68536  33.591  29.576  14.854
 1754W        W68537   2.869  15.267  14.073
 1755W        W68538   2.814  42.309   3.864
 1756W        W68539  23.116  37.261   2.259
 1757W        W68540  12.001  38.352   4.293
 1758W        W68541  30.196   3.280  13.072
 1759W        W68542   9.205  41.286   2.746
 1760W        W68543  34.447  34.155  14.028
 1761W        W68544  20.293  40.114   0.271
 1762W        W68545  42.303  37.866  11.475
 1763W        W68546  39.874  28.404   1.867
 1764W        W68547   2.042  23.185   2.723
 1765W        W68548   2.771  18.652  10.502
 1766W        W68549  12.332   9.220   2.769
 1767W        W68550  38.129  31.579  11.050
 1768W        W68551  21.828  39.120  11.478
 1769W        W68552   9.642  42.032  14.282
 1770W        W68553  33.587  20.087   0.291
 1771W        W68554   2.739  22.918  14.329
 1772W        W68555   9.560  33.117  14.365
 1773W        W68556  10.417   7.864  12.027
 1774W        W68557   7.504  12.829  13.373
 1775W        W68558  14.881  42.927  12.683
 1776W        W68559  19.777  36.972  10.756
 1777W        W68560  10.549  12.174   0.875
 1778W        W68561  40.821   7.253   1.837
 1779W        W68562  10.800  40.486  13.932
 1780W        W68563  31.735  30.050  11.115
 1781W        W68564  29.903   6.806  12.520
 1782W        W68565  28.540  23.098   0.373
 1783W        W68566  44.397  22.302   0.722
 1784W        W68567  11.386   9.922   1.781
 1785W        W68568  36.119  17.712  13.827
 1786W        W68569  13.119  31.549  14.855
 1787W        W68570  32.732  25.180   1.338
 1788W        W68571  20.129  29.437   1.460
 1789W        W68572  25.662  41.867  11.547
 1790W        W68573  41.973   1.966  10.514
 1791W        W68574  17.338  39.982  12.974
 1792W        W68575   1.393  18.608  11.109
 1793W        W68576  16.609  13.597  10.904
 1794W        W68577   2.725  31.301  10.469
 1795W        W68578  18.642  32.684   4.549
 1796W        W68579  11.635   9.429   0.832
 1797W        W68580  23.441   5.700   3.234
 1798W        W68581  26.631  43.934  11.939
 1799W        W68582   9.891  36.013   1.727
 1800W        W68583   0.762  33.312   3.558
 1801W        W68584  34.465  21.622  12.454
 1802W        W68585  25.495  14.312   3.718
 1803W        W68586  30.040  29.655   4.071
 1804W        W68587   7.194  15.434   1.855
 1805W        W68588   5.663  27.584   4.177
 1806W        W68589  31.716  29.808  12.413
 1807W        W68590  16.428  41.801   2.649
 1808W        W68591  39.261  36.019  12.885
 1809W        W68592  28.957  29.517   1.293
 1810W        W68593  12.829  14.910  11.030
 1811W        W68594  29.124  31.596   2.456
 1812W        W68595   4.810  10.327  12.758
 1813W        W68596   1.236  31.824   5.141
 1814W        W68597  26.673   2.053   0.051
 1815W        W68598  19.010  36.104   2.393
 1816W        W68599  44.443  39.570  11.068
 1817W        W68600  11.085   5.504  11.398
 1818W        W68601   3.679  27.219  12.710
 1819W        W68602   5.811  10.816   2.016
 1820W        W68603  15.096  38.977   4.662
 1821W        W68604   3.695  22.780   2.343
 1822W        W68605  16.802  17.685   3.197
 1823W        W68606   0.044  15.508  14.428
 1824W        W68607  11.853  43.603   0.934
 1825W        W68608  28.250  36.053  12.984
 1826W        W68609  20.894   7.836  14.365
 1827W        W68610  18.311   9.862   4.710
 1828W        W68611   5.253  36.478  11.463
 1829W        W68612   0.340  31.346   0.548
 1830W        W68613  12.298   7.659   2.632
 1831W        W68614  36.992  27.201   3.641
 1832W        W68615  16.110  21.257   3.090
 1833W        W68616  27.162  20.694   3.769
 1834W        W68617   8.670  11.054   3.294
 1835W        W68618  17.910  19.703  13.149
 1836W        W68619  27.340   8.364   3.236
 1837W        W68620  16.797   9.365   0.226
 1838W        W68621   9.798  14.080  13.549
 1839W        W68622  26.039  15.165  12.146
 1840W        W68623  20.616  37.403   3.610
 1841W        W68624  39.423  31.866   0.437
 1842W        W68625  36.431  43.457  14.407
 1843W        W68626   9.364  33.591  14.468
 1844W        W68627  44.342  44.652   4.511
 1845W        W68628  34.158  11.548  10.118
 1846W        W68629  25.192   7.860   0.277
 1847W        W68630  26.745  42.515  10.782
 1848W        W68631   8.277  36.344   3.620
 1849W        W68632  18.264   1.520  14.434
 1850W        W68633  32.338   5.973  11.047
 1851W        W68634  26.077  37.368  14.991
 1852W        W68635  36.608  16.279  14.283
 1853W        W68636   7.920  11.297  14.410
 1854W        W68637  33.708  31.153  11.639
 1855W        W68638  43.003  24.521   3.097
 1856W        W68639  31.828  29.518  12.857
 1857W        W68640  15.846  10.853   3.665
 1858W        W68641  23.552  44.906  12.841
 1859W        W68642   9.688  29.505  10.737
 1860W        W68643  14.550  22.148   3.653
 1861W        W68644   2.732   2.015  12.064
 1862W        W68645   6.869  18.100  11.451
 1863W        W68646  35.051  38.612   1.433
 1864W        W68647  25.465  37.113   1.143
 1865W        W68648   3.386  17.669   4.686
 1866W        W68649  13.268  32.958  10.621
 1867W        W68650  30.846  38.447   4.540
 1868W        W68651  14.276   7.582   0.340
 1869W        W68652  21.854  36.901   3.102
 1870W        W68653  30.518  22.165  14.322
 1871W        W68654  31.553  34.892  11.932
 1872W        W68655  11.452  14.525  12.302
 1873W        W68656  37.908  44.688  13.266
 1874W        W68657  30.448  38.039   1.670
 1875W        W68658   5.481  15.457   1.259
 1876W        W68659   3.736  17.726  14.044
 1877W        W68660   3.758  15.129  13.470
 1878W        W68661  16.108  17.227  11.943
 1879W        W68662  33.211  33.497   1.713
 1880W        W68663  18.266  17.175   3.684
 1881W        W68664   2.955  35.476  13.009
 1882W        W68665   9.861  41.434  11.058
 1883W        W68666  40.567   4.104  13.063
 1884W        W68667  32.598  34.064  12.593
 1885W        W68668  17.550  24.194  12.012
 1886W        W68669   1.850  12.850  10.523
 1887W        W68670  25.683  43.526  14.858
 1888W        W68671   4.847   5.771  10.804
 1889W        W68672   5.290  23.961  13.035
 1890W        W68673   8.279   5.744  10.946
 1891W        W68674  31.682  19.601   0.782
 1892W        W68675  25.574  34.162  11.985
 1893W        W68676  33.416   0.856   3.527
 1894W        W68677  11.349  22.591   0.704
 1895W        W68678  32.223  36.112  12.089
 1896W        W68679  41.808  42.406  14.834
 1897W        W68680  23.691  28.399  10.552
 1898W        W68681   2.980  24.514  12.944
 1899W        W68682  20.547  30.986  14.519
 1900W        W68683  18.532   9.326   1.918
 1901W        W68684  14.879   4.321   0.388
 1902W        W68685   8.902  33.905  13.765
 1903W        W68686  39.452  31.771   2.415
 1904W        W68687   2.315  17.217   0.445
 1905W        W68688  42.315  17.989   4.636
 1906W        W68689  23.208  17.778  12.070
 1907W        W68690  32.980  11.340  12.373
 1908W        W68691   2.951  11.178   3.176
 1909W        W68692  32.041  34.684  12.082
 1910W        W68693  40.411   8.566  13.286
 1911W        W68694   8.013  13.055  14.435
 1912W        W68695  25.471   0.889   0.403
 1913W        W68696  34.707  24.211   1.279
 1914W        W68697  44.010  12.896  11.556
 1915W        W68698  25.836  17.010  13.786
 1916W        W68699  24.609  41.935   1.612
 1917W        W68700  44.020   0.983   3.943
 1918W        W68701  43.430  13.777   3.143
 1919W        W68702  32.622  23.076   9.872
 1920W        W68703   8.162  37.861  11.498
 1921W        W68704  14.294  34.366  14.386
 1922W        W68705   4.468  14.100   0.424
 1923W        W68706  35.026  43.644  12.296
 1924W        W68707  12.753  21.804   4.946
 1925W        W68708  21.255  18.789  13.917
 1926W        W68709   3.273   5.731   2.811
 1927W        W68710  20.357  40.465  12.143
 1928W        W68711  28.972  22.301  11.211
 1929W        W68712   7.414  30.678   2.852
 1930W        W68713   4.363  22.446  13.044
 1931W        W68714  40.032  42.932  11.907
 1932W        W68715  12.092  14.140   3.567
 1933W        W68716  34.200  42.778  14.095
 1934W        W68717  17.963  17.421   2.369
 1935W        W68718   4.927  44.314  12.086
 1936W        W68719  17.331  42.685  10.331
 1937W        W68720  16.369   0.390  11.938
 1938W        W68721   4.611   5.387  13.525
 1939W        W68722  28.291  31.680  12.222
 1940W        W68723  33.382  36.370  13.474
 1941W        W68724  27.142  23.501   2.468
 1942W        W68725  15.217  38.483   4.571
 1943W        W68726  17.712   2.228  11.996
 1944W        W68727  36.486  19.306   0.381
 1945W        W68728   2.461  16.144  13.584
 1946W        W68729   0.557  11.660   3.653
 1947W        W68730  10.620   1.500   2.776
 1948W        W68731   5.062  20.026   2.271
 1949W        W68732  41.343  20.642   2.973
 1950W        W68733  36.017  19.330   1.012
 1951W        W68734  43.079  32.801   2.107
 1952W        W68735  17.348  17.686   1.733
 1953W        W68736  27.498  44.014  11.525
 1954W        W68737  28.842   9.895   3.427
 1955W        W68738  29.732   7.928   5.038
 1956W        W68739   7.335   7.903  12.164
 1957W        W68740  18.788  16.249   2.325
 1958W        W68741  18.556  12.098   1.480
 1959W        W68742  14.317  19.639  11.534
 1960W        W68743  32.995  28.176  14.952
 1961W        W68744  40.108  23.608  11.107
 1962W        W68745  18.023  31.379   1.405
 1963W        W68746  35.630  27.764  10.388
 1964W        W68747  32.149  37.874  11.517
 1965W        W68748  11.847  15.167  11.509
 1966W        W68749  40.020  28.624  13.780
 1967W        W68750   3.547   1.263  11.023
 1968W        W68751  21.277  11.639  10.813
 1969W        W68752  43.039  44.498  14.499
 1970W        W68753  43.867   6.155  12.963
 1971W        W68754  31.167  15.122   1.963
 1972W        W68755  19.779   0.805   1.836
 1973W        W68756  25.662  25.479  13.054
 1974W        W68757  14.415   4.025  11.337
 1975W        W68758  40.450   7.811  12.478
 1976W        W68759  15.190  11.364   3.605
 1977W        W68760  18.573  40.814  12.049
 1978W        W68761  25.567  10.081  12.111
 1979W        W68762  37.864  22.595   0.331
 1980W        W68763  42.977  42.363  11.873
 1981W        W68764   4.764  12.647   2.851
 1982W        W68765  20.359  20.229   1.266
 1983W        W68766  41.841  35.887  13.808
 1984W        W68767  38.521  43.971  14.791
 1985W        W68768  35.635   5.823   2.821
 1986W        W68769  43.996   1.502  11.194
 1987W        W68770   2.476  11.879  13.336
 1988W        W68771   3.937  20.509   0.929
 1989W        W68772  36.793   1.901  14.794
 1990W        W68773  20.991  34.261   0.913
 1991W        W68774  39.559   5.408   4.368
 1992W        W68775  24.776   4.017  14.798
 1993W        W68776  19.747  14.818  11.363
 1994W        W68777  23.608  13.715  13.935
 1995W        W68778  26.521  39.358   1.735
 1996W        W68779  44.709   8.778  13.938
 1997W        W68780  16.299  17.157  13.386
 1998W        W68781  13.645   4.922  12.533
 1999W        W68782  37.629  42.201   1.188
 2000W        W68783  32.028  34.514   3.697
 2001W        W68784  35.720  42.346  10.585
 2002W        W68785  15.707  19.777   3.264
 2003W        W68786  36.892  39.964  13.028
 2004W        W68787  16.705  24.356   2.176
 2005W        W68788  34.849  25.209  14.844
 2006W        W68789  26.548  33.615  12.384
 2007W        W68790  34.465   3.026  12.475
 2008W        W68791  17.082  19.455   1.496
 2009W        W68792  25.037  44.432  13.315
 2010W        W68793  42.297  44.080  12.825
 2011W        W68794   7.196  22.077   1.274
 2012W        W68795  15.410  15.130   4.073
 2013W        W68796  40.909  10.530  13.009
 2014W        W68797   3.061  11.888  11.599
 2015W        W68798  12.724  31.367   3.268
 2016W        W68799  32.881  38.576  14.313
 2017W        W68800  13.867  14.234  10.706
 2018W        W68801  41.583  33.904  12.091
 2019W        W68802  31.424  12.783   3.546
 2020W        W68803  38.102  19.719   5.055
 2021W        W68804  38.772   7.567   1.704
 2022W        W68805  16.653  18.011  14.291
 2023W        W68806  10.900  16.601   1.022
 2024W        W68807   2.750   5.447  13.371
 2025W        W68808  36.005  29.119   1.892
 2026W        W68809  42.801  10.434  11.042
 2027W        W68810  16.295  15.347   0.386
 2028W        W68811  27.144  38.888   0.747
 2029W        W68812  13.418  44.436   2.764
 2030W        W68813   8.497   0.816  13.462
 2031W        W68814  25.012  13.385   3.773
 2032W        W68815   2.946  35.648  10.762
 2033W        W68816   2.423   5.267   4.722
 2034W        W68817  14.812  15.210   2.763
 2035W        W68818  28.776   2.331   1.079
 2036W        W68819  13.143  23.438   3.240
 2037W        W68820  43.139  16.155   2.509
 2038W        W68821   7.849  33.067   3.714
 2039W        W68822   6.557  29.348   0.837
 2040W        W68823   9.819  21.554  14.676
 2041W        W68824  12.131   8.411   0.445
 2042W        W68825  19.734  32.521  13.366
 2043W        W68826  11.201   4.246  11.883
 2044W        W68827  26.225   6.539  11.030
 2045W        W68828  31.625   5.305   0.258
 2046W        W68829  11.076   0.642   1.825
 2047W        W68830   0.928  38.946   0.257
 2048W        W68831  14.370  44.454  10.683
 2049W        W68832  14.328  43.807  13.396
 2050W        W68833  31.141   7.667  12.917
 2051W        W68834  22.277  35.463  11.476
 2052W        W68835  17.220   3.787   4.123
 2053W        W68836  25.807  37.818  14.049
 2054W        W68837   7.819  25.154   1.848
 2055W        W68838   1.412  21.991  14.341
 2056W        W68839  44.123   5.267   4.566
 2057W        W68840  24.617  12.182   2.357
 2058W        W68841  15.321   6.372  10.642
 2059W        W68842  14.461  21.745   1.315
 2060W        W68843  20.480  23.729   0.878
 2061W        W68844  34.629   0.264  12.199
 2062W        W68845  11.696  38.375   4.727
 2063W        W68846  19.089  40.574  14.871
 2064W        W68847  10.208  10.369  12.150
 2065W        W68848  20.693  41.577   4.721
 2066W        W68849  22.430  16.892   0.329
 2067W        W68850  14.538  30.963   3.520
 2068W        W68851  23.300  17.246   1.711
 2069W        W68852  13.106  35.625  12.369
 2070W        W68853   7.318  36.979   3.571
 2071W        W68854   6.928  42.264  13.931
 2072W        W68855  25.615  26.525   3.771
 2073W        W68856  31.836  38.094  13.489
 2074W        W68857  38.622  15.364   0.843
 2075W        W68858  17.025   6.847   4.914
 2076W        W68859  28.679  29.931   1.419
 2077W        W68860   5.780  20.253  14.870
 2078W        W68861  18.785  27.675  12.127
 2079W        W68862   9.441  40.389   2.202
 2080W        W68863  44.350  25.164  13.382
 2081W        W68864  22.910  33.366   1.809
 2082W        W68865  10.409  33.097  12.020
 2083W        W68866  42.870   5.655   3.219
 2084W        W68867   2.393  44.651  11.822
 2085W        W68868  17.269  44.316   1.190
 2086W        W68869  44.773  25.205  10.695
 2087W        W68870   4.781   2.940  14.383
 2088W        W68871   8.783  13.407  11.933
 2089W        W68872  37.472  23.110   1.855
 2090W        W68873   6.349   3.422   2.277
 2091W        W68874  42.285  27.722  13.962
 2092W        W68875  19.036  38.789  14.792
 2093W        W68876  40.119  27.143   4.936
 2094W        W68877   7.155  13.411   3.539
 2095W        W68878  41.784  12.408   0.494
 2096W        W68879   5.441   4.771   4.550
 2097W        W68880  22.756  42.930  10.250
 2098W        W68881  19.732  39.952  14.530
 2099W        W68882  42.807  21.733   1.189
 2100W        W68883   0.344  31.863  13.967
 2101W        W68884  35.064  41.981   3.400
 2102W        W68885  27.765  27.095   3.234
 2103W        W68886  32.286  39.607  12.945
 2104W        W68887  34.272   5.734  14.645
 2105W        W68888  28.158  11.243  13.926
 2106W        W68889  26.200  20.479  10.605
 2107W        W68890  20.456  11.048   2.115
 2108W        W68891  34.476  30.649  11.630
 2109W        W68892   6.930  19.309  13.942
 2110W        W68893  19.990  15.664  11.017
 2111W        W68894  32.150  15.335  11.175
 2112W        W68895  10.728  28.687  11.127
 2113W        W68896  42.485  41.929  14.503
 2114W        W68897  12.080   9.489   4.067
 2115W        W68898   8.312  36.450  12.539
 2116W        W68899  28.719   2.906   4.547
 2117W        W68900   9.842   2.697   3.305
 2118W        W68901  11.418  10.616  13.960
 2119W        W68902  31.140  16.732  10.464
 2120W        W68903  16.347   7.006  12.857
 2121W        W68904  37.849   0.928  12.117
 2122W        W68905  12.320   1.303   3.267
 2123W        W68906  18.724  29.867   4.560
 2124W        W68907  35.937   8.216   0.466
 2125W        W68908  44.076  22.971   2.385
 2126W        W68909  38.720  30.390  12.434
 2127W        W68910  34.639   7.621   3.580
 2128W        W68911   0.095  30.559   4.963
 2129W        W68912  14.185  30.539  11.517
 2130W        W68913  36.669  26.920  14.419
 2131W        W68914   0.036   2.910  14.869
 2132W        W68915  19.123  43.154  14.853
 2133W        W68916   6.806   6.106  12.998
 2134W        W68917   1.260  10.167   1.102
 2135W        W68918  34.809  16.533   2.626
 2136W        W68919   1.757  16.948   1.239
 2137W        W68920  34.100   9.254   1.650
 2138W        W68921  36.611   0.740   3.398
 2139W        W68922  24.391   7.862   4.866
 2140W        W68923  32.800  19.552  10.589
 2141W        W68924  36.561  16.101  10.987
 2142W        W68925  18.243  35.300   3.387
 2143W        W68926  44.810  24.978   4.570
 2144W        W68927  15.647  28.642   4.724
 2145W        W68928  22.799  37.280  11.122
 2146W        W68929  24.242   5.322  12.580
 2147W        W68930  21.697  40.540   4.159
 2148W        W68931   4.242  25.726   3.588
 2149W        W68932  29.132  16.702  11.267
 2150W        W68933  40.826  16.228  12.471
 2151W        W68934  11.585  39.612  14.503
 2152W        W68935  19.070  21.023  14.062
 2153W        W68936  14.338  28.422   3.634
 2154W        W68937  31.682  36.905  12.908
 2155W        W68938  30.047  16.977   0.926
 2156W        W68939  40.961  12.800   1.318
 2157W        W68940  37.846  23.168   0.924
 2158W        W68941   8.938   8.059  13.383
 2159W        W68942  10.642  13.631   1.463
 2160W        W68943  13.213  10.618  13.573
 2161W        W68944  44.755   9.709  13.973
 2162W        W68945  19.902  35.923  12.109
 2163W        W68946   6.196   5.803   3.498
 2164W        W68947  36.915  41.522  12.010
 2165W        W68948   3.386  35.385  13.845
 2166W        W68949  21.088   2.489  14.510
 2167W        W68950  26.741  24.792  10.675
 2168W        W68951  21.096  33.983   1.957
 2169W        W68952  36.561   5.235   4.823
 2170W        W68953  19.043  22.738  14.747
 2171W        W68954   7.446   7.283   0.718
 2172W        W68955  17.207  32.375   2.575
 2173W        W68956  20.695   1.195   1.662
 2174W        W68957  25.759  21.119   1.682
 2175W        W68958  11.881  37.437  13.514
 2176W        W68959  13.625   6.726  13.053
 2177W        W68960  35.369   3.158  11.091
 2178W        W68961  32.341  20.436   0.901
 2179W        W68962  24.736  36.174  13.364
 2180W        W68963  42.224  44.401   0.821
 2181W        W68964  22.931  35.351  12.142
 2182W        W68965  12.372  13.335   0.560
 2183W        W68966  27.535   1.937   3.213
 2184W        W68967   5.030  42.853  14.388
 2185W        W68968  23.510  32.991  14.970
 2186W        W68969  14.794  19.851   4.461
 2187W        W68970  37.764  24.236   1.605
 2188W        W68971  16.642  31.966  13.540
 2189W        W68972  26.170  11.897   2.225
 2190W        W68973  40.783  24.027   3.281
 2191W        W68974  25.034  16.195  10.674
 2192W        W68975  17.133  21.192   0.832
 2193W        W68976  27.743   6.309  13.557
 2194W        W68977   4.651  40.976  12.101
 2195W        W68978  39.881   1.312   1.412
 2196W        W68979   8.733   4.447   2.374
 2197W        W68980  25.960  44.319   0.450
 2198W        W68981  19.732  42.668  14.580
 2199W        W68982   8.667  10.702  14.310
 2200W        W68983   9.250  15.339  13.089
 2201W        W68984   1.980  25.253   4.679
 2202W        W68985  40.409  10.926   1.423
 2203W        W68986  13.389  37.612   3.179
 2204W        W68987  23.689  29.316   1.728
 2205W        W68988  41.435  28.176  12.906
 2206W        W68989  44.607   4.185   2.479
 2207W        W68990   2.017  14.830   1.675
 2208W        W68991  22.017  30.482  14.010
 2209W        W68992  22.940  14.270   0.985
 2210W        W68993  25.963  43.044  11.169
 2211W        W68994   0.249  17.582   2.606
 2212W        W68995  16.048  36.614  11.953
 2213W        W68996   0.739  23.215  13.945
 2214W        W68997  18.883   1.533  11.037
 2215W        W68998   4.300  20.913  13.059
 2216W        W68999   8.422  35.008   3.045
 2217W        W69000  25.224  36.735   2.816
 2218W        W69001  18.534  39.459   0.844
 2219W        W69002  32.099  12.677   0.715
 2220W        W69003   8.271   9.800   4.673
 2221W        W69004  30.629  21.144   2.551
 2222W        W69005  20.084   2.965  13.925
 2223W        W69006  28.559  27.194   4.684
 2224W        W69007  44.388  20.914  12.989
 2225W        W69008  31.722  25.981   2.787
 2226W        W69009   2.811  30.198  12.069
 2227W        W69010  26.530  27.415   0.053
 2228W        W69011  43.419  21.001  13.296
 2229W        W69012   6.682   8.605  14.331
 2230W        W69013  36.604   8.057  13.470
 2231W        W69014  37.577  13.037   2.743
 2232W        W69015  40.974  26.563  10.281
 2233W        W69016  21.382   9.093  12.083
 2234W        W69017  30.172  38.420  10.378
 2235W        W69018   7.568  41.419  11.531
 2236W        W69019  24.031  13.408   4.070
 2237W        W69020   1.421  38.605   3.707
 2238W        W69021   3.534   7.606   1.515
 2239W        W69022  37.569  32.062  14.517
 2240W        W69023   6.895  30.285  11.427
 2241W        W69024  17.955   8.157  11.706
 2242W        W69025   6.986  40.081  14.332
 2243W        W69026  34.125  13.087   0.342
 2244W        W69027  35.205  36.441   3.429
 2245W        W69028   6.691  27.668   2.277
 2246W        W69029  40.947  10.319  13.477
 2247W        W69030  24.896  28.501   0.740
 2248W        W69031  23.458  35.914  13.796
 2249W        W69032  36.639  13.616  11.944
 2250W        W69033  31.877  41.289  12.653
 2251W        W69034  11.286  36.639  12.500
 2252W        W69035  18.342  31.988  13.870
 2253W        W69036  12.580  22.015   0.997
 2254W        W69037  18.236  13.865   0.430
 2255W        W69038  44.268  39.248  13.705
 2256W        W69039  42.606  30.998   0.102
 2257W        W69040  12.920  22.633  14.073
 2258W        W69041  35.264  34.452  14.930
 2259W        W69042  31.224  10.617   4.457
 2260W        W69043  33.569  18.027   4.762
 2261W        W69044  44.060  24.967   1.753
 2262W        W69045  34.486  15.521   2.424
 2263W        W69046  37.074  37.944   1.742
 2264W        W69047  12.341   6.652   0.502
 2265W        W69048   0.871  24.685   2.344
 2266W        W69049   8.943  12.638   4.263
 2267W        W69050  10.984  36.872   4.043
 2268W        W69051  21.230  20.297  12.504
 2269W        W69052  17.119  43.948   3.386
 2270W        W69053  15.668   8.240  13.448
 2271W        W69054  19.201  21.551   2.266
 2272W        W69055   2.847  21.251   1.598
 2273W        W69056  31.969  44.025   4.957
 2274W        W69057  21.559  21.157   1.731
 2275W        W69058  14.289  27.130   0.632
 2276W        W69059  26.379  44.850   3.561
 2277W        W69060   1.850  25.237  12.501
 2278W        W69061   2.974   2.240  12.479
 2279W        W69062   8.882  17.162   4.388
 2280W        W69063  12.326  25.152  12.832
 2281W        W69064  18.313  42.536  13.488
 2282W        W69065  43.909  19.772  13.382
 2283W        W69066  18.691  39.986   2.965
 2284W        W69067  35.702  41.870   1.461
 2285W        W69068  16.297  23.213   1.343
 2286W        W69069  11.712  18.035   4.421
 2287W        W69070  31.531  27.874   0.530
 2288W        W69071  35.828  26.575  11.134
 2289W        W69072  21.193   3.662   0.019
 2290W        W69073  21.255   0.421   3.275
 2291W        W69074   2.848  40.514  12.045
 2292W        W69075  37.046  31.676   4.015
 2293W        W69076  26.512  43.402   2.716
 2294W        W69077  35.413  32.341  11.160
 2295W        W69078   0.570  12.669  14.772
 2296W        W69079   0.537  27.467  11.589
 2297W        W69080  33.319  41.876  13.400
 2298W        W69081  37.027  29.163   4.316
 2299W        W69082  30.537  35.976   1.404
 2300W        W69083   4.926  40.428  12.010
 2301W        W69084  39.544  25.127  12.536
 2302W        W69085   2.416  39.369  10.448
 2303W        W69086  23.017   8.088  12.058
 2304W        W69087  23.253  29.446  14.994
 2305W        W69088   1.157  35.377  13.410
 2306W        W69089  29.462  44.970   3.044
 2307W        W69090  23.634  18.975   3.206
 2308W        W69091  15.102  34.138   3.274
 2309W        W69092   9.858  18.592  12.125
 2310W        W69093  42.732   5.295   0.525
 2311W        W69094  34.808  31.108   1.704
 2312W        W69095  32.849   0.473  13.559
 2313W        W69096  44.014   3.215  14.937
 2314W        W69097   7.254  28.997   2.363
 2315W        W69098  23.000  36.386   0.383
 2316W        W69099  44.832  25.006  13.543
 2317W        W69100  30.048   9.911   1.575
 2318W        W69101  17.093  44.467   1.667
 2319W        W69102  18.163  22.566  11.558
 2320W        W69103  24.172  18.069  13.934
 2321W        W69104  41.393  24.318  14.554
 2322W        W69105   8.306  29.624  12.874
 2323W        W69106  28.732  35.939  13.060
 2324W        W69107  12.736  14.602  11.420
 2325W        W69108  15.710  21.330  11.793
 2326W        W69109   6.839  31.129   0.393
 2327W        W69110  25.712  44.102  14.559
 2328W        W69111  18.623  20.090  11.611
 2329W        W69112  41.939  32.160   2.788
 2330W        W69113  41.261  39.949   3.650
 2331W        W69114  31.230  41.275   2.733
 2332W        W69115  11.279  29.535   3.569
 2333W        W69116  26.119   2.254  14.933
 2334W        W69117  15.725  11.797   0.824
 2335W        W69118  10.228  31.014  13.485
 2336W        W69119   1.388  21.060  13.038
 2337W        W69120   6.118   8.518  11.479
 2338W        W69121  29.137  11.722  14.059
 2339W        W69122  26.973  22.680  11.726
 2340W        W69123  24.883   8.654   2.575
 2341W        W69124  22.427   1.967   4.937
 2342W        W69125  41.812  32.585  13.669
 2343W        W69126  15.938  20.467  14.107
 2344W        W69127  12.705  19.323   2.062
 2345W        W69128  31.095  14.419   1.179
 2346W        W69129  16.286   4.365   0.739
 2347W        W69130  29.536  17.530   3.164
 2348W        W69131   7.111  28.081   0.951
 2349W        W69132  26.498   2.462  13.964
 2350W        W69133  15.132  28.971  12.024
 2351W        W69134   6.651  18.979   0.482
 2352W        W69135   3.304  34.387   3.219
 2353W        W69136  40.576  23.547   0.241
 2354W        W69137  39.036  29.103   4.708
 2355W        W69138  26.153  33.463   0.310
 2356W        W69139   9.627  39.538  13.565
 2357W        W69140   0.276   4.016   2.695
 2358W        W69141   7.717  19.567   3.167
 2359W        W69142  41.684  39.991  10.572
 2360W        W69143  31.844  23.919  11.964
 2361W        W69144  13.767   7.979  11.474
 2362W        W69145  32.946  39.974   3.992
 2363W        W69146  14.169  34.218   2.374
 2364W        W69147   6.313  11.835  13.679
 2365W        W69148  15.108  26.703   2.804
 2366W        W69149   0.351  15.020  11.569
 2367W        W69150  40.575  38.127   2.293
 2368W        W69151  38.320  19.616   0.420
 2369W        W69152   6.243  28.415   0.932
 2370W        W69153  18.964  38.871   3.723
 2371W        W69154  20.099   7.296   0.351
 2372W        W69155  23.724  17.219  14.307
 2373W        W69156  18.197  29.102   1.211
 2374W        W69157   6.571  34.481   0.515
 2375W        W69158  11.356  11.145  10.691
 2376W        W69159  34.348  34.399  13.320
 2377W        W69160   0.383  19.097  13.587
 2378W        W69161  14.074  42.980   3.086
 2379W        W69162   2.513  10.193  12.997
 2380W        W69163  19.178  19.514  14.992
 2381W        W69164   6.703  22.103  13.877
 2382W        W69165  44.516   0.370   3.998
 2383W        W69166  10.661   9.784  12.992
 2384W        W69167  44.518  13.346  12.475
 2385W        W69168  11.914  43.335  13.025
 2386W        W69169   7.778  39.785  14.113
 2387W        W69170  43.353  21.342   4.273
 2388W        W69171  41.071   5.908  13.867
 2389W        W69172   0.416  37.113   0.455
 2390W        W69173   9.061  38.033   3.658
 2391W        W69174   1.617  33.370  14.098
 2392W        W69175  10.436   9.055   1.365
 2393W        W69176  14.199  16.754   2.285
 2394W        W69177  35.073  26.271  11.140
 2395W        W69178  24.715  12.194   3.293
 2396W        W69179   0.512  12.068  13.994
 2397W        W69180   1.433  26.430   4.703
 2398W        W69181  38.793  32.372  11.531
 2399W        W69182  27.472  28.085  14.408
 2400W        W69183  17.629   5.716  14.702
 2401W        W69184  39.152  31.570   2.805
 2402W        W69185  37.403  23.031  11.472
 2403W        W69186  11.335  12.354  14.888
 2404W        W69187  43.798  19.977  13.846
 2405W        W69188  44.395  16.734  12.365
 2406W        W69189  18.056  34.965   4.582
 2407W        W69190  38.324  30.059  14.084
 2408W        W69191  39.194  33.295  11.471
 2409W        W69192  44.046  26.150  11.058
 2410W        W69193   3.781  29.327  10.992
 2411W        W69194  18.167  32.699   2.860
 2412W        W69195  33.075  18.990   0.839
 2413W        W69196  35.431  23.088  11.453
 2414W        W69197  19.880  20.029   1.185
 2415W        W69198   5.436  25.401   1.735
 2416W        W69199  34.844  43.467   0.966
 2417W        W69200  18.361   9.143   4.114
 2418W        W69201  41.841   8.726  12.519
 2419W        W69202  38.759  21.686   1.710
 2420W        W69203  39.552  11.854  14.301
 2421W        W69204  26.934   4.442   1.981
 2422W        W69205  34.888   7.763  10.794
 2423W        W69206  42.057  16.046   3.807
 2424W        W69207  11.433  11.287  12.124
 2425W        W69208  23.650   0.399   4.251
 2426W        W69209  13.176   0.118  12.428
 2427W        W69210  14.713  22.251   1.809
 2428W        W69211  19.212  16.182   3.861
 2429W        W69212  15.217  19.656   0.498
 2430W        W69213  23.362   2.442  14.491
 2431W        W69214  25.086  19.019  12.384
 2432W        W69215  29.146  43.236   5.039
 2433W        W69216   3.009  32.664   4.666
 2434W        W69217  13.228  35.926   3.660
 2435W        W69218  18.120  40.561  12.033
 2436W        W69219  10.568  35.508  10.913
 2437W        W69220  20.614   5.444   2.236
 2438W        W69221  41.821  39.355   1.764
 2439W        W69222   7.990  11.944  10.400
 2440W        W69223  29.038  10.221  11.779
 2441W        W69224  10.220  26.082   3.718
 2442W        W69225  21.101  39.387   0.332
 2443W        W69226  10.494  43.280   4.072
 2444W        W69227  16.144   8.880   2.931
 2445W        W69228   8.458  23.644  14.921
 2446W        W69229  39.782   8.324   4.317
 2447W        W69230   6.153  32.696   4.119
 2448W        W69231  14.974   5.287   2.843
 2449W        W69232  19.754  34.454  10.760
 2450W        W69233   3.447  37.283  12.926
 2451W        W69234  31.187   8.766  12.133
 2452W        W69235  30.401  20.011   0.900
 2453W        W69236   4.089  32.807  11.169
 2454W        W69237  24.816  22.440  10.063
 2455W        W69238  32.139  26.945  12.647
 2456W        W69239   6.095  11.664  11.047
 2457W        W69240  36.385  11.637  13.873
 2458W        W69241  12.684  29.923   1.264
 2459W        W69242  41.536   4.827  10.997
 2460W        W69243  44.408   1.697  13.848
 2461W        W69244  41.478  12.836  11.671
 2462W        W69245   8.987  44.408  14.408
 2463W        W69246  36.907  35.335   3.714
 2464W        W69247   5.684  44.875   1.808
 2465W        W69248  31.420  20.254   0.908
 2466W        W69249  32.327  39.675   4.244
 2467W        W69250   9.868   4.223   0.354
 2468W        W69251   6.191  31.194   3.754
 2469W        W69252  27.856  19.095   4.053
 2470W        W69253  36.543  32.570  13.818
 2471W        W69254  10.728  18.205  12.333
 2472W        W69255  20.656  43.697   4.808
 2473W        W69256   7.399  15.056  13.274
 2474W        W69257   8.183  17.617   4.555
 2475W        W69258  39.197  37.419   2.136
 2476W        W69259   6.215  23.097  14.785
 2477W        W69260  38.135   4.210  14.018
 2478W        W69261  39.983   4.361   4.356
 2479W        W69262  44.833   8.642  12.446
 2480W        W69263  16.096  30.233   2.575
 2481W        W69264  41.292   5.735   1.298
 2482W        W69265  44.768  26.079  14.007
 2483W        W69266  25.980  37.498  14.489
 2484W        W69267   7.140   3.515   2.803
 2485W        W69268  10.795  23.394  13.792
 2486W        W69269  32.454   1.402  14.289
 2487W        W69270  13.610  20.776  13.487
 2488W        W69271  43.724  19.969   4.485
 2489W        W69272  39.117  35.640   0.426
 2490W        W69273   7.024  20.306  13.226
 2491W        W69274  26.011  27.313   3.495
 2492W        W69275  38.511  40.549  10.504
 2493W        W69276  39.359  23.440  11.511
 2494W        W69277   7.772  10.966   4.329
 2495W        W69278   7.972  32.082   3.773
 2496W        W69279  16.394   9.797  12.804
 2497W        W69280  39.907   5.774   0.907
 2498W        W69281  44.643  24.591  12.584
 2499W        W69282  31.582  33.429  12.542
 2500W        W69283  16.783   2.731  10.653
 2501W        W69284  18.305  13.677  10.637
 2502W        W69285  21.720  24.978   4.979
 2503W        W69286  32.048  10.660  11.954
 2504W        W69287  18.657   8.385  14.902
 2505W        W69288  35.567  13.574   1.855
 2506W        W69289  24.016  22.160  14.538
 2507W        W69290  31.578  32.995  14.410
 2508W        W69291  32.004  31.566   5.043
 2509W        W69292  37.146   4.978   0.237
 2510W        W69293  21.284  34.053  14.518
 2511W        W69294  14.582   5.381   4.820
 2512W        W69295  11.789  19.842  10.668
 2513W        W69296  34.732  38.804   5.024
 2514W        W69297  41.501   2.171  10.542
 2515W        W69298  25.283  17.731  11.194
 2516W        W69299  24.885  26.136   2.905
 2517W        W69300  27.533   1.682   3.687
 2518W        W69301  21.527   8.754   0.018
 2519W        W69302  35.925  35.428   4.616
 2520W        W69303  40.235  30.010   1.643
 2521W        W69304  10.608  15.801   4.121
 2522W        W69305  16.671  41.656   0.024
 2523W        W69306   3.367  13.909   2.311
 2524W        W69307  10.323  27.984   3.427
 2525W        W69308   9.087  38.937  11.088
 2526W        W69309  41.384  28.671   4.018
 2527W        W69310  19.989  24.533   1.238
 2528W        W69311  35.873  30.054  13.944
 2529W        W69312  35.490  14.387  12.856
 2530W        W69313  34.536   5.265  14.388
 2531W        W69314   4.720  16.595  14.987
 2532W        W69315   7.264  36.113  13.329
 2533W        W69316   2.908  26.498  12.163
 2534W        W69317  14.817  11.946  12.972
 2535W        W69318  40.755   7.990   2.876
 2536W        W69319  21.526  36.592   2.256
 2537W        W69320  31.358  19.375   2.738
 2538W        W69321   7.160   7.482   3.741
 2539W        W69322  38.424  31.628   3.051
 2540W        W69323   0.721   0.296  11.389
 2541W        W69324   0.226  29.031  14.789
 2542W        W69325  35.967  34.417   3.719
 2543W        W69326  18.362  28.977  12.439
 2544W        W69327  26.706   7.688   2.816
 2545W        W69328  13.027  14.020  11.951
 2546W        W69329  44.828  36.907  12.429
 2547W        W69330   5.835   5.613  13.101
 2548W        W69331  12.607   7.276   1.731
 2549W        W69332  25.015  20.032   2.777
 2550W        W69333  10.813   5.796   4.207
 2551W        W69334  29.047  17.101   1.345
 2552W        W69335  44.915  32.150  11.380
 2553W        W69336  31.511   8.714   4.341
 2554W        W69337   0.543   7.550  10.280
 2555W        W69338  10.268  32.581   0.370
 2556W        W69339  26.279  18.482   2.890
 2557W        W69340   6.966   2.594   0.767
 2558W        W69341  26.711  11.179   2.829
 2559W        W69342  22.354   3.974   3.799
 2560W        W69343  38.000  36.206  13.490
 2561W        W69344   8.340  36.831  14.747
 2562W        W69345   5.978  39.010  13.564
 2563W        W69346  19.052   0.356  14.464
 2564W        W69347  35.882  16.726  13.978
 2565W        W69348  31.962  25.302   2.837
 2566W        W69349  42.410  12.894   3.594
 2567W        W69350  27.571  22.817   0.397
 2568W        W69351  12.539   1.019  11.118
 2569W        W69352  17.051   9.889  13.571
 2570W        W69353   8.418  32.063   4.819
 2571W        W69354  23.137  32.285  11.175
 2572W        W69355  25.893  38.505   9.826
 2573W        W69356  14.814   1.504   3.292
 2574W        W69357  37.995  34.848  14.582
 2575W        W69358  23.291   3.191   3.993
 2576W        W69359  37.312  30.046   4.594
 2577W        W69360  18.524  13.733   4.144
 2578W        W69361  44.092  22.019   2.359
 2579W        W69362   1.878  15.513  14.240
 2580W        W69363  10.160  44.800   2.246
 2581W        W69364  35.397  26.461  14.885
 2582W        W69365  23.908  24.118  12.565
 2583W        W69366  18.703   8.474   2.138
 2584W        W69367   6.128  17.179  11.276
 2585W        W69368  30.235  37.948  12.535
 2586W        W69369  23.880  30.038   1.000
 2587W        W69370  27.673  43.873   0.511
 2588W        W69371  43.919  36.167   4.137
 2589W        W69372  20.815   9.539   3.638
 2590W        W69373  29.209  30.932  12.575
 2591W        W69374  30.863  20.541  14.702
 2592W        W69375  26.818  17.166  11.704
 2593W        W69376   1.709  41.062   2.706
 2594W        W69377  24.110  34.433   4.129
 2595W        W69378  37.995  40.916  11.521
 2596W        W69379   1.216   8.113   0.034
 2597W        W69380  16.640   0.363   0.785
 2598W        W69381  30.091  22.798  12.735
 2599W        W69382  10.592  40.017  14.014
 2600W        W69383  39.975  17.804  14.261
 2601W        W69384  27.497  28.699   2.731
 2602W        W69385   3.717  24.324   4.358
 2603W        W69386  44.171  37.126  13.041
 2604W        W69387  41.493  43.390  10.700
 2605W        W69388  42.111  19.727  10.988
 2606W        W69389  32.703  36.231   4.068
 2607W        W69390   7.852  30.223  11.545
 2608W        W69391  42.727  31.868  10.377
 2609W        W69392   5.472   7.392  12.970
 2610W        W69393  21.652  29.509   0.185
 2611W        W69394   9.661  22.076  11.584
 2612W        W69395  13.390  29.479  11.191
 2613W        W69396  13.988   4.214  14.936
 2614W        W69397  15.802  33.258   2.432
 2615W        W69398   6.875   4.309  12.489
 2616W        W69399  18.140  19.130  10.611
 2617W        W69400  31.041  28.991   1.626
 2618W        W69401   1.937  29.180  14.465
 2619W        W69402  14.605  40.652  14.858
 2620W        W69403  39.925  41.015  13.088
 2621W        W69404   0.931  17.799  14.269
 2622W        W69405  15.890  32.014  13.098
 2623W        W69406  40.268  43.920   0.758
 2624W        W69407  25.594  44.376   2.713
 2625W        W69408  18.961  29.612   4.146
 2626W        W69409  26.642  18.585   3.262
 2627W        W69410  22.234  29.203   3.925
 2628W        W69411   3.560   0.821   4.816
 2629W        W69412  30.567  15.240  14.789
 2630W        W69413  36.075  14.264  11.261
 2631W        W69414  18.823  16.923   4.263
 2632W        W69415  16.415  44.397   0.995
 2633W        W69416   4.659  15.546  11.630
 2634W        W69417  19.518  30.018   1.935
 2635W        W69418  23.755  19.124  10.906
 2636W        W69419  12.550   9.273  12.789
 2637W        W69420  25.307  21.132   3.581
 2638W        W69421  37.768  11.610  12.475
 2639W        W69422   2.221  29.019   2.717
 2640W        W69423  14.291  25.928   2.234
 2641W        W69424  11.832  17.889   3.680
 2642W        W69425  30.130  33.438   4.767
 2643W        W69426  21.663  10.806  11.587
 2644W        W69427   2.429  24.470  13.543
 2645W        W69428  13.374  17.778  12.603
 2646W        W69429   7.790  28.913  12.097
 2647W        W69430  15.019  15.712   0.023
 2648W        W69431  21.997  25.958   1.807
 2649W        W69432  35.204  36.166  11.199
 2650W        W69433  39.946  44.289  11.071
 2651W        W69434  32.136  23.227   3.623
 2652W        W69435  23.705  13.945  14.961
 2653W        W69436  36.871  28.919   4.764
 2654W        W69437   6.401  25.190   3.213
 2655W        W69438   4.366  36.243   2.107
 2656W        W69439  30.839  39.759   1.013
 2657W        W69440  21.979  12.211   0.497
 2658W        W69441  34.308  20.113  12.442
 2659W        W69442  23.293  11.810  13.865
 2660W        W69443  40.499  30.465   1.403
 2661W        W69444  43.719   6.365  13.420
 2662W        W69445  21.569  13.200  12.858
 2663W        W69446  14.784  18.699  12.422
 2664W        W69447   2.514  40.946  12.934
 2665W        W69448   4.108  12.351   4.574
 2666W        W69449  26.539   9.095   1.331
 2667W        W69450  36.943   4.186   3.725
 2668W        W69451  16.899  43.989  14.191
 2669W        W69452   5.430  34.404  14.745
 2670W        W69453  22.217  36.472   0.794
 2671W        W69454   7.162  10.722  11.593
 2672W        W69455  28.569  34.597   1.954
 2673W        W69456  26.587  36.255   1.328
 2674W        W69457  13.384  16.626  11.563
 2675W        W69458  15.559   7.928  14.468
 2676W        W69459  30.463  41.479   0.628
 2677W        W69460  23.017   7.397   0.033
 2678W        W69461  13.046   4.516  14.945
 2679W        W69462  36.460   0.400  14.244
 2680W        W69463  41.249  10.616  11.128
 2681W        W69464  14.328  20.555   2.408
 2682W        W69465  42.010   4.316   3.664
 2683W        W69466  35.920  15.350  14.394
 2684W        W69467  13.350  24.573  11.506
 2685W        W69468  16.589  11.616   2.269
 2686W        W69469  44.825  28.211   3.733
 2687W        W69470  12.583  41.242  12.538
 2688W        W69471   4.278  43.026  13.144
 2689W        W69472  38.593  10.382  14.739
 2690W        W69473  12.818  41.760   0.493
 2691W        W69474  16.542  29.150  12.963
 2692W        W69475  22.217  25.616  14.922
 2693W        W69476   5.428  21.355   0.989
 2694W        W69477   4.947   0.292   4.927
 2695W        W69478  23.938  27.749  10.756
 2696W        W69479  10.773  19.512  10.452
 2697W        W69480  32.664  33.105  14.008
 2698W        W69481   0.810  44.871   1.229
 2699W        W69482   7.971   8.645  14.782
 2700W        W69483  23.605  10.263  10.671
 2701W        W69484  10.325  41.863   2.590
 2702W        W69485  29.184  24.118   2.798
 2703W        W69486  16.659  43.789  13.791
 2704W        W69487  39.341  23.555   5.038
 2705W        W69488  13.939  11.150   1.276
 2706W        W69489   3.758  44.251  12.665
 2707W        W69490  32.153  15.688  10.725
 2708W        W69491   4.662   1.412  11.995
 2709W        W69492  30.970   9.297  13.933
 2710W        W69493  33.962  42.537   4.578
 2711W        W69494  44.070  25.111   2.700
 2712W        W69495  36.059  40.136   1.872
 2713W        W69496  13.284  12.735  14.526
 2714W        W69497  21.627  25.063  13.430
 2715W        W69498  18.994   9.085  13.555
 2716W        W69499  36.423  18.092   1.324
 2717W        W69500  20.192  11.590  11.990
 2718W        W69501  29.608  36.983   2.932
 2719W        W69502  19.918  40.957   4.468
 2720W        W69503  23.491  27.283   3.676
 2721W        W69504  20.764  28.447   4.114
 2722W        W69505  16.319  27.450  12.419
 2723W        W69506  12.718  20.018  10.902
 2724W        W69507  16.173  20.484   3.795
 2725W        W69508  24.405  37.448  13.035
 2726W        W69509  13.849  24.671   0.497
 2727W        W69510   6.811   9.764   3.629
 2728W        W69511  25.443  25.966   3.377
 2729W        W69512   8.790  20.779  11.522
 2730W        W69513  31.762   4.369  11.420
 2731W        W69514  40.267  29.397   4.296
 2732W        W69515  12.392  42.879   3.653
 2733W        W69516  25.659   5.167   1.467
 2734W        W69517  34.868  13.593   4.285
 2735W        W69518  42.665  32.912  14.949
 2736W        W69519  18.838  33.119  11.987
 2737W        W69520  10.940  37.671   2.735
 2738W        W69521  24.912   1.079  11.191
 2739W        W69522  16.271  13.513   5.456
 2740W        W69523   7.925  25.273   5.036
 2741W        W69524  33.649  23.977  13.090
 2742W        W69525  39.330  16.705  13.386
 2743W        W69526  30.561  42.889   2.309
 2744W        W69527  27.196  34.146  14.903
 2745W        W69528  31.986  32.128  14.332
 2746W        W69529  12.801   2.376   0.240
 2747W        W69530  18.440   0.869  13.653
 2748W        W69531  42.323  18.060  11.229
 2749W        W69532  21.506  22.921  13.923
 2750W        W69533   0.075  20.742  12.905
 2751W        W69534  38.856  35.274   3.904
 2752W        W69535   3.489   4.374  13.970
 2753W        W69536   1.938  44.791   0.721
 2754W        W69537  42.445  37.436  12.357
 2755W        W69538  26.318  24.126  12.421
 2756W        W69539  37.357   7.236   4.182
 2757W        W69540  39.977  12.245   2.534
 2758W        W69541  23.325  32.777   2.767
 2759W        W69542  38.257   1.983  12.620
 2760W        W69543  39.208  21.342   0.980
 2761W        W69544  34.922  12.689   1.746
 2762W        W69545  30.650  17.853  11.477
 2763W        W69546  44.380  25.506   2.459
 2764W        W69547  12.190   2.288  12.764
 2765W        W69548  37.904  43.314   4.284
 2766W        W69549  36.882  14.750   0.765
 2767W        W69550   8.806  43.065  11.313
 2768W        W69551   4.197  36.143   3.269
 2769W        W69552  38.917  13.205  13.840
 2770W        W69553  42.020  36.850   4.543
 2771W        W69554  33.435   5.680   0.978
 2772W        W69555  31.738  43.817  14.509
 2773W        W69556  14.051  29.585   1.720
 2774W        W69557  25.606  25.261  14.359
 2775W        W69558  38.363  14.375   4.622
 2776W        W69559  20.005  41.049   3.660
 2777W        W69560  10.754  19.928   4.538
 2778W        W69561  27.109  41.792   5.187
 2779W        W69562  26.687   2.900   0.288
 2780W        W69563  38.561  31.906  11.511
 2781W        W69564  38.465  18.297   1.681
 2782W        W69565  37.781  18.151   3.022
 2783W        W69566  17.982  42.986  12.539
 2784W        W69567  24.979  15.270  14.026
 2785W        W69568  29.012  40.685   3.273
 2786W        W69569  30.456  42.502  14.395
 2787W        W69570  23.102   5.340  12.586
 2788W        W69571   5.242  36.274  13.857
 2789W        W69572   4.349   4.197   4.847
 2790W        W69573  36.032   2.660  12.176
 2791W        W69574   2.231  38.542   0.454
 2792W        W69575  23.009  28.104   3.910
 2793W        W69576  25.859   0.577  13.392
 2794W        W69577  34.817  11.848  11.459
 2795W        W69578  43.599  21.074   4.631
 2796W        W69579  39.843   2.074   2.062
 2797W        W69580  12.211  36.553   3.946
 2798W        W69581   4.574  16.777   2.956
 2799W        W69582  25.719   1.595  13.339
 2800W        W69583  36.888  23.663   0.237
 2801W        W69584  29.198  36.004  11.205
 2802W        W69585  38.507   6.730   2.399
 2803W        W69586  19.167  25.785   3.213
 2804W        W69587  11.752   5.518  12.032
 2805W        W69588  21.336  43.574   1.920
 2806W        W69589  22.024  32.487  12.026
 2807W        W69590   3.712  17.603   2.817
 2808W        W69591  14.344   3.518   3.796
 2809W        W69592  10.291  10.597  12.670
 2810W        W69593   8.131  44.607   0.950
 2811W        W69594  26.335  27.813  14.759
 2812W        W69595   1.347  37.003  12.519
 2813W        W69596   1.271  36.974  14.446
 2814W        W69597  26.177  28.143  11.067
 2815W        W69598  39.441   1.744   4.297
 2816W        W69599  10.574  44.871  11.181
 2817W        W69600  36.983  14.102   3.453
 2818W        W69601  24.969  28.934   0.441
 2819W        W69602  40.332  36.514   3.702
 2820W        W69603  35.469   6.777   2.301
 2821W        W69604  20.649  16.104  13.953
 2822W        W69605  25.962  13.181  14.415
 2823W        W69606   8.195  19.957  14.801
 2824W        W69607  18.118  43.054  11.170
 2825W        W69608   7.265  44.500  13.582
 2826W        W69609   4.694   5.613   3.388
 2827W        W69610  35.757  17.610  14.191
 2828W        W69611  22.585  31.250   2.688
 2829W        W69612   5.853  24.989  14.394
 2830W        W69613   1.397  19.634  12.357
 2831W        W69614   2.659   8.691   4.663
 2832W        W69615   1.459   3.284  11.133
 2833W        W69616  39.708  42.294   2.598
 2834W        W69617   0.385  10.572  10.407
 2835W        W69618  19.122  38.389   3.694
 2836W        W69619  31.917   7.064  14.555
 2837W        W69620  44.448  41.894  13.802
 2838W        W69621  19.154   1.681  12.574
 2839W        W69622  14.908   1.869  10.364
 2840W        W69623  19.017   4.458   2.660
 2841W        W69624   4.871   2.226  10.731
 2842W        W69625  29.484  18.681  13.641
 2843W        W69626   0.367  39.443   3.854
 2844W        W69627  24.732  18.268   0.347
 2845W        W69628  18.187  27.538   3.360
 2846W        W69629  17.147  25.477  14.433
 2847W        W69630  15.539  20.321  11.503
 2848W        W69631  34.505  10.772   0.945
 2849W        W69632  14.196  14.672  10.703
 2850W        W69633  21.627  23.221   0.449
 2851W        W69634   1.887  20.616  13.791
 2852W        W69635  26.732  42.473  14.260
 2853W        W69636  23.087  39.679   4.551
 2854W        W69637  27.656  34.000   2.204
 2855W        W69638  17.044  16.689  14.321
 2856W        W69639  41.069  26.927  13.848
 2857W        W69640   9.769  32.991  14.852
 2858W        W69641  27.290  23.987  12.549
 2859W        W69642  14.025  30.625  12.861
 2860W        W69643  22.990  38.659  14.393
 2861W        W69644  23.690  38.959   4.153
 2862W        W69645  17.209  35.002  10.450
 2863W        W69646  37.816  18.084   0.676
 2864W        W69647  16.657  43.001   0.906
 2865W        W69648   5.600   6.271  12.432
 2866W        W69649  36.282   0.002   1.956
 2867W        W69650   4.795   2.511   1.286
 2868W        W69651  16.018  34.622   3.657
 2869W        W69652  36.758  15.560   3.247
 2870W        W69653  22.696   9.651  11.453
 2871W        W69654  14.427  18.098  10.406
 2872W        W69655  31.191  18.472  13.023
 2873W        W69656  36.896  23.029   3.834
 2874W        W69657  15.543  30.903   0.396
 2875W        W69658  31.655  24.703  14.557
 2876W        W69659  24.445   9.625   4.060
 2877W        W69660  29.614  29.839  13.380
 2878W        W69661   7.824   8.649  13.119
 2879W        W69662   5.279  33.185  10.558
 2880W        W69663   9.745  19.884  13.220
 2881W        W69664   0.834  42.359  13.793
 2882W        W69665  21.319  27.193   9.853
 2883W        W69666   6.740  23.043  14.906
 2884W        W69667  28.211  38.055  14.436
 2885W        W69668  36.030  12.310  14.395
 2886W        W69669  16.675  12.681  11.355
 2887W        W69670  16.807   8.641   0.690
 2888W        W69671  22.546  17.820   1.426
 2889W        W69672  14.113   1.944   2.424
 2890W        W69673  11.959  20.274   0.807
 2891W        W69674   7.890  38.771   4.268
 2892W        W69675  20.795  27.543  14.936
 2893W        W69676   7.796  15.352  12.056
 2894W        W69677  31.784  39.604  11.153
 2895W        W69678   2.907   7.741  12.079
 2896W        W69679  30.101  30.894  11.472
 2897W        W69680  24.493  39.402  13.812
 2898W        W69681   3.264  14.170   4.600
 2899W        W69682  34.627  10.831  11.976
 2900W        W69683  22.625  33.254   4.916
 2901W        W69684  44.451  41.538  10.533
 2902W        W69685   0.955  24.593   4.581
 2903W        W69686  34.586  40.706  13.916
 2904W        W69687   2.979  28.347  11.067
 2905W        W69688  36.002  15.730   0.313
 2906W        W69689   8.132   3.483  11.446
 2907W        W69690   1.302  23.617   2.813
 2908W        W69691  42.260   6.737  14.717
 2909W        W69692  19.365  16.718   1.229
 2910W        W69693   7.983  29.008   1.030
 2911W        W69694  35.654  38.086  14.108
 2912W        W69695  30.917  13.504   0.899
 2913W        W69696  37.524  11.712   2.309
 2914W        W69697  17.104  34.022   4.197
 2915W        W69698  33.131  36.588  13.872
 2916W        W69699  31.634   9.854   2.728
 2917W        W69700  13.371  36.044  12.155
 2918W        W69701  41.317  36.047  14.861
 2919W        W69702  28.641  27.950  10.811
 2920W        W69703  32.928  23.764  12.111
 2921W        W69704  40.370  11.699   4.357
 2922W        W69705  20.286  36.608  11.124
 2923W        W69706  43.011  43.994  11.077
 2924W        W69707  42.449   8.028   0.232
 2925W        W69708  10.918  13.678  12.463
 2926W        W69709   2.369  34.741   0.952
 2927W        W69710  35.121  43.204  10.122
 2928W        W69711   2.185  34.430   0.168
 2929W        W69712  11.682   0.464  11.976
 2930W        W69713  23.732  14.197  14.132
 2931W        W69714   1.541  11.586  12.632
 2932W        W69715  17.269  23.068   1.496
 2933W        W69716  15.361  17.753  12.084
 2934W        W69717   1.397  11.358  11.440
 2935W        W69718  19.098   6.699   3.281
 2936W        W69719  38.427  42.992  14.832
 2937W        W69720   9.906  14.951  11.747
 2938W        W69721   8.660  16.216  13.068
 2939W        W69722   4.451  11.139  11.884
 2940W        W69723   2.885  12.485   4.162
 2941W        W69724  13.378  33.881   4.266
 2942W        W69725  19.913  29.906  11.492
 2943W        W69726   2.593  35.563   3.331
 2944W        W69727   8.212  14.769   4.698
 2945W        W69728   8.283  24.501   3.716
 2946W        W69729  27.212  30.837  14.833
 2947W        W69730   4.771  35.538  14.371
 2948W        W69731  39.762  27.144  10.837
 2949W        W69732   3.365   0.535  11.553
 2950W        W69733   5.895  11.829   0.937
 2951W        W69734   2.565   8.859   0.653
 2952W        W69735   5.308  23.333  13.849
 2953W        W69736   8.448  15.376   4.528
 2954W        W69737  16.310  36.781  13.748
 2955W        W69738   9.180  10.272  13.845
 2956W        W69739   5.362  26.214   2.300
 2957W        W69740  43.349   2.815  13.271
 2958W        W69741  34.477  43.390  12.870
 2959W        W69742  38.082  44.978  12.873
 2960W        W69743  34.217   5.361   9.612
 2961W        W69744  36.874   1.758  12.784
 2962W        W69745  19.743  29.672  13.726
 2963W        W69746  40.406  20.398   4.794
 2964W        W69747  19.577  35.352   1.194
 2965W        W69748  41.149  24.255  13.709
 2966W        W69749   8.847  22.045   2.976
 2967W        W69750  37.484   7.724  13.007
 2968W        W69751  33.123   9.394  13.067
 2969W        W69752  44.976  21.828  12.007
 2970W        W69753  43.835  17.374   3.693
 2971W        W69754   7.373  32.772   4.236
 2972W        W69755  15.236  23.204   1.228
 2973W        W69756   2.712  32.124   1.268
 2974W        W69757  20.995  31.942  14.436
 2975W        W69758  15.704  18.293   1.018
 2976W        W69759  12.831  27.462   0.256
 2977W        W69760  12.842  10.663   4.577
 2978W        W69761  19.599   3.213   1.673
 2979W        W69762  26.555  16.651   2.878
 2980W        W69763  21.042  17.640   0.322
 2981W        W69764   6.452  39.403  12.025
 2982W        W69765  31.504  18.705  14.425
 2983W        W69766  31.350  21.619  13.263
 2984W        W69767  18.648  44.810  13.556
 2985W        W69768  39.537   9.160   2.331
 2986W        W69769  19.900   4.371  14.981
 2987W        W69770  20.603   9.068   3.667
 2988W        W69771  39.719   1.503   3.696
 2989W        W69772  37.342   4.439  13.547
 2990W        W69773  35.916  14.870  12.888
 2991W        W69774  37.564  22.565  11.289
 2992W        W69775   4.763  18.999   3.304
 2993W        W69776   4.413  15.547   2.402
 2994W        W69777  10.358  20.664  13.019
 2995W        W69778  39.092   3.141   1.094
 2996W        W69779  25.649  41.360  12.168
 2997W        W69780  12.372  29.076  13.927
 2998W        W69781  44.520  39.220   4.029
 2999W        W69782  36.191   6.503  11.587
 3000W        W69783   9.444  19.090   1.164
 3001W        W69784   2.668  10.838   2.903
 3002W        W69785  17.732  41.345   3.675
 3003W        W69786   4.871  26.938  12.041
 3004W        W69787  10.144  37.392  14.797
 3005W        W69788   1.485  30.634  11.533
 3006W        W69789  28.482  10.199   1.561
 3007W        W69790  22.933  37.556  13.825
 3008W        W69791  12.252   9.632  11.955
 3009W        W69792  27.227  33.652   1.390
 3010W        W69793  21.862  15.636   3.280
 3011W        W69794  25.488  29.149   2.365
 3012W        W69795  42.336   0.179  11.199
 3013W        W69796   6.646   0.328  12.994
 3014W        W69797  11.248  18.753  10.788
 3015W        W69798  14.622   8.188   1.690
 3016W        W69799  38.320   2.943   0.048
 3017W        W69800  30.876  20.033  12.399
 3018W        W69801  16.780   9.455  14.369
 3019W        W69802  35.736  16.740  14.525
 3020W        W69803  10.839   4.659   2.380
 3021W        W69804  24.198  17.204  13.458
 3022W        W69805  11.666   0.779   2.272
 3023W        W69806  25.178  20.632   0.923
 3024W        W69807  43.690  28.747   4.916
 3025W        W69808  15.595  15.213  10.994
 3026W        W69809  18.757  23.177   4.876
 3027W        W69810  19.556   1.244  10.719
 3028W        W69811  38.430  13.571  14.474
 3029W        W69812  31.473  31.726   3.731
 3030W        W69813  36.894  10.403   0.804
 3031W        W69814  41.526  21.500   2.605
 3032W        W69815  31.626  31.622  11.058
 3033W        W69816  20.537  17.797   2.774
 3034W        W69817  21.503   0.888  14.974
 3035W        W69818  42.856  32.991  11.142
 3036W        W69819  13.348  13.609   3.608
 3037W        W69820  38.892  29.473   3.779
 3038W        W69821  25.460  41.959   0.356
 3039W        W69822  25.131  19.565  14.502
 3040W        W69823  11.329   4.748  13.472
 3041W        W69824  36.258  30.511  10.713
 3042W        W69825  42.926  33.615  12.072
 3043W        W69826  28.022   2.297   4.424
 3044W        W69827  26.397  15.234  14.016
 3045W        W69828   0.768   1.320  11.819
 3046W        W69829  14.475  37.565  12.648
 3047W        W69830   0.044  19.356   1.144
 3048W        W69831   3.425  33.337  12.477
 3049W        W69832  25.659   0.531  10.683
 3050W        W69833   9.642  39.281   1.242
 3051W        W69834  40.517  42.044  11.062
 3052W        W69835  41.251   9.751   3.456
 3053W        W69836  10.898   5.297  13.857
 3054W        W69837  30.192   3.809  14.043
 3055W        W69838  39.158   4.254   3.736
 3056W        W69839  21.265  18.707   3.217
 3057W        W69840  25.698  30.140   1.226
 3058W        W69841  17.580  42.431  10.703
 3059W        W69842  35.463  33.690  10.687
 3060W        W69843  19.681  31.200  13.663
 3061W        W69844   4.700   8.085  11.111
 3062W        W69845  35.493   4.885  12.953
 3063W        W69846  19.471  29.257  13.830
 3064W        W69847  23.608  39.821  13.911
 3065W        W69848  29.563  11.597   2.108
 3066W        W69849   7.281  30.918   0.178
 3067W        W69850  33.424  22.258   4.040
 3068W        W69851  19.882   0.413  11.951
 3069W        W69852  29.700   6.353   4.491
 3070W        W69853  43.032  17.093  10.580
 3071W        W69854  31.696   8.711  11.067
 3072W        W69855  40.391  14.684   0.228
 3073W        W69856  38.913   2.362  10.878
 3074W        W69857  33.899   6.572  14.258
 3075W        W69858  40.987  29.293   2.339
 3076W        W69859  16.655   4.052   0.967
 3077W        W69860  12.156   6.881  13.598
 3078W        W69861  44.748  44.489   3.839
 3079W        W69862  37.405   0.214  10.700
 3080W        W69863  22.183  25.769  12.165
 3081W        W69864  36.001  25.109  10.634
 3082W        W69865   9.254  17.325  13.533
 3083W        W69866  24.915  11.629   3.298
 3084W        W69867  43.779  17.113  11.063
 3085W        W69868  28.379  15.870  10.961
 3086W        W69869  38.478  12.616  11.483
 3087W        W69870  41.672   6.222  14.520
 3088W        W69871  17.289  18.590  10.526
 3089W        W69872  39.435  12.125   3.760
 3090W        W69873  41.328  29.867  14.382
 3091W        W69874  28.681  10.201   0.549
 3092W        W69875  34.706  43.727  14.269
 3093W        W69876  27.144  22.104   3.431
 3094W        W69877  13.690  32.424   3.233
 3095W        W69878  23.115  14.994  12.859
 3096W        W69879  16.056  34.197   1.074
 3097W        W69880  15.137  41.985   2.965
 3098W        W69881   7.631  19.524   1.335
 3099W        W69882  31.014  42.764  14.016
 3100W        W69883   9.389  25.644  12.074
 3101W        W69884   5.417  38.771  12.053
 3102W        W69885   4.258   4.206  14.688
 3103W        W69886   9.240  23.960   1.634
 3104W        W69887   7.659  18.648   0.385
 3105W        W69888  28.708  43.942   4.728
 3106W        W69889  14.315  10.333   2.281
 3107W        W69890   4.075  18.720  11.583
 3108W        W69891  27.718   2.720  10.813
 3109W        W69892  27.758  18.070  13.129
 3110W        W69893  11.225   4.057  14.723
 3111W        W69894  20.190  39.562   4.610
 3112W        W69895   9.252  22.959  10.415
 3113W        W69896  33.216   6.805  12.951
 3114W        W69897   9.966   0.402   9.830
 3115W        W69898  31.504  32.171   4.411
 3116W        W69899   0.575  23.964  12.921
 3117W        W69900   8.011   8.682   2.324
 3118W        W69901  30.017  29.153   4.174
 3119W        W69902  20.067  15.819   5.502
 3120W        W69903  19.238  40.000   2.160
 3121W        W69904  40.275  39.066  13.711
 3122W        W69905  33.500   0.887  14.868
 3123W        W69906  16.593  32.329  14.711
 3124W        W69907  21.622  24.387   5.046
 3125W        W69908  22.997  35.304   1.266
 3126W        W69909  16.232  17.675   1.429
 3127W        W69910  15.324  30.413   0.301
 3128W        W69911  26.460  24.099   2.281
 3129W        W69912   0.589  26.534   0.876
 3130W        W69913  10.142   8.755   3.265
 3131W        W69914  22.110  34.559   1.887
 3132W        W69915  30.126  29.515   1.693
 3133W        W69916   5.326  24.582   3.703
 3134W        W69917  11.196   0.787   0.393
 3135W        W69918  36.406  25.694  12.181
 3136W        W69919  37.324  35.949   2.238
 3137W        W69920  25.384  26.541  13.851
 3138W        W69921  15.613  17.664   0.263
 3139W        W69922   0.844  39.717   0.778
 3140W        W69923  25.263  25.085   2.408
 3141W        W69924  21.710  14.907  12.061
 3142W        W69925  14.647   7.671   2.659
 3143W        W69926  39.976  39.259   0.694
 3144W        W69927  44.485  21.639  12.005
 3145W        W69928   0.951  31.928  10.743
 3146W        W69929   2.929  16.331   0.339
 3147W        W69930   0.548   3.407   1.277
 3148W        W69931   8.355  38.391   3.098
 3149W        W69932  16.573  13.750   4.112
 3150W        W69933  44.761  27.619  13.007
 3151W        W69934   0.990  10.105  14.019
 3152W        W69935  42.437  32.199   0.621
 3153W        W69936  35.985  21.740   0.638
 3154W        W69937  14.687   0.884   4.529
 3155W        W69938  40.303  30.100   0.184
 3156W        W69939  33.650  13.742  13.389
 3157W        W69940  35.828   0.873  10.958
 3158W        W69941  25.251  23.109   0.038
 3159W        W69942  10.289  17.703   4.217
 3160W        W69943  10.858  33.372  11.922
 3161W        W69944  25.094  23.931  14.417
 3162W        W69945  24.095  20.328  14.822
 3163W        W69946  38.534  33.845   3.287
 3164W        W69947   0.313  32.389  11.152
 3165W        W69948  31.046   0.364   0.022
 3166W        W69949  44.023  42.919  11.689
 3167W        W69950  10.747  25.617  13.504
 3168W        W69951   2.388  31.476   4.727
 3169W        W69952   1.498  14.732   1.794
 3170W        W69953  41.315  31.489   3.427
 3171W        W69954   4.399  21.527  14.359
 3172W        W69955  18.009   1.192  14.765
 3173W        W69956  19.970  25.036   3.769
 3174W        W69957  25.982  25.888   3.571
 3175W        W69958  15.583  12.101  13.438
 3176W        W69959  41.097  20.275   3.273
 3177W        W69960  23.021   6.807  13.827
 3178W        W69961   1.402   8.655  11.985
 3179W        W69962  38.619   7.270   3.680
 3180W        W69963  12.882  38.447   1.937
 3181W        W69964  11.446  34.443  13.105
 3182W        W69965  30.345  21.782   4.221
 3183W        W69966  11.298  18.237   4.645
 3184W        W69967   7.846  24.440   4.593
 3185W        W69968  12.608  18.832  14.486
 3186W        W69969   4.026  23.584  10.395
 3187W        W69970   9.663  24.189  13.914
 3188W        W69971  39.746  19.701   1.859
 3189W        W69972  34.856  14.566  12.082
 3190W        W69973  10.090   1.370  11.576
 3191W        W69974  35.990  21.237  12.001
 3192W        W69975  42.737  17.667   3.707
 3193W        W69976  32.473   7.748   3.566
 3194W        W69977  21.618  11.165   3.453
 3195W        W69978   0.848  39.577   4.616
 3196W        W69979  34.861  12.342  11.671
 3197W        W69980  38.786   4.228  13.196
 3198W        W69981  37.326   5.437  14.726
 3199W        W69982  29.007  33.599   0.736
 3200W        W69983  36.489  19.815   0.304
 3201W        W69984   0.877  30.105  12.443
 3202W        W69985  20.125  13.445   2.452
 3203W        W69986   9.352  14.932  14.483
 3204W        W69987  32.758  21.492  11.723
 3205W        W69988  14.695  40.505  14.325
 3206W        W69989  15.413  19.483  12.462
 3207W        W69990  36.447  13.821   2.147
 3208W        W69991   8.096  44.276   2.714
 3209W        W69992  20.260  22.126   1.218
 3210W        W69993  14.158  16.440   1.886
 3211W        W69994  36.294   9.339  13.528
 3212W        W69995   3.534  42.592  11.601
 3213W        W69996  43.757  26.537  12.575
 3214W        W69997  31.868  25.139  14.340
 3215W        W69998  37.581  23.355  13.461
 3216W        W69999  43.258  23.340   0.840
 3217W        W70000   3.369  29.997  14.424
 3218W        W70001  18.984  25.228  14.764
 3219W        W70002  15.725  30.985   0.945
 3220W        W70003  33.015  43.405   2.290
 3221W        W70004   5.333   8.718   3.331
 3222W        W70005  23.564  26.463  13.914
 3223W        W70006   4.146  16.064  11.692
 3224W        W70007  35.814  28.106   1.986
 3225W        W70008  22.048  41.264  13.380
 3226W        W70009  18.466  25.129  14.741
 3227W        W70010   8.585  34.940  14.437
 3228W        W70011  11.770  30.409  11.639
 3229W        W70012  16.811  19.304  13.981
 3230W        W70013   9.877  13.723   4.111
 3231W        W70014  27.631  20.214  10.648
 3232W        W70015  24.561  11.785   0.807
 3233W        W70016  19.500  22.493  11.247
 3234W        W70017  28.630  38.886   3.399
 3235W        W70018  21.228  42.393   4.324
 3236W        W70019  13.343  20.661  11.917
 3237W        W70020  43.984  43.501  11.939
 3238W        W70021  36.993   3.412  11.054
 3239W        W70022  33.666  25.457  13.903
 3240W        W70023  36.663  22.671  13.950
 3241W        W70024   1.401  20.695  14.013
 3242W        W70025  35.097  20.707  14.768
 3243W        W70026  17.246  30.356  11.674
 3244W        W70027  42.804  39.541  14.901
 3245W        W70028  42.943  27.959  14.484
 3246W        W70029   3.907  35.935   0.742
 3247W        W70030  25.077  29.433   4.173
 3248W        W70031  15.093  18.188   0.317
 3249W        W70032  29.374  41.851  11.983
 3250W        W70033   8.361  26.541   0.591
 3251W        W70034  11.086  19.519  13.101
 3252W        W70035   2.307  10.656  12.939
 3253W        W70036  27.002   8.029   4.080
 3254W        W70037  22.261  26.198   1.440
 3255W        W70038  16.311  33.084  13.465
 3256W        W70039  39.029  40.018  13.890
 3257W        W70040  40.101  40.750  14.986
 3258W        W70041   9.062  28.323   2.755
 3259W        W70042  16.742  20.568  11.507
 3260W        W70043  24.605  40.547  12.070
 3261W        W70044  30.002  32.595   2.280
 3262W        W70045  19.242  24.009   3.787
 3263W        W70046   1.750  10.070   1.231
 3264W        W70047  41.373  21.582   1.673
 3265W        W70048  17.383  19.754   1.924
 3266W        W70049  17.579  14.267   0.659
 3267W        W70050  33.883   5.609  12.057
 3268W        W70051  27.571  11.146  13.943
 3269W        W70052  35.333  15.807  13.953
 3270W        W70053  29.430  24.043  13.122
 3271W        W70054  33.968   0.910   0.114
 3272W        W70055  17.233  11.471   3.923
 3273W        W70056  33.554  21.401  11.165
 3274W        W70057   0.783  39.388  13.509
 3275W        W70058  15.757  32.111   2.811
 3276W        W70059  34.002  32.381   2.314
 3277W        W70060  25.065  23.563  14.790
 3278W        W70061  23.923  31.999   3.067
 3279W        W70062  23.964  29.137  13.108
 3280W        W70063  25.982  41.535  12.523
 3281W        W70064  26.037   9.595   0.636
 3282W        W70065  21.049  30.952  11.033
 3283W        W70066  39.054  44.432  10.241
 3284W        W70067  25.016  17.349  11.419
 3285W        W70068  25.770  29.540  14.763
 3286W        W70069  37.963  33.815   2.897
 3287W        W70070  32.103   9.182  13.072
 3288W        W70071   1.573  42.761  11.530
 3289W        W70072  42.829  43.429  14.474
 3290W        W70073   3.705  17.269   4.678
 3291W        W70074  17.277  35.949   3.718
 3292W        W70075  35.857  41.393  14.101
 3293W        W70076   2.782   5.316   0.911
 3294W        W70077  29.441  26.947   3.765
 3295W        W70078   3.968  34.451  13.006
 3296W        W70079  31.771   0.292   1.149
 3297W        W70080  27.010  14.580  13.917
 3298W        W70081  20.617  30.512  11.755
 3299W        W70082  15.487  37.177   2.666
 3300W        W70083  29.272   5.029   3.119
 3301W        W70084   4.087  11.354  11.131
 3302W        W70085  28.023   8.755  14.864
 3303W        W70086  29.483  27.061  11.941
 3304W        W70087  18.663   2.209   0.299
 3305W        W70088  13.824  39.846   2.974
 3306W        W70089  29.579  34.142  11.557
 3307W        W70090  36.588  11.172   3.595
 3308W        W70091  10.468  28.457  14.530
 3309W        W70092  23.774  19.637   2.681
 3310W        W70093   0.867  38.685   4.335
 3311W        W70094  12.749  43.179  13.098
 3312W        W70095  23.070  25.013   0.752
 3313W        W70096   9.245  35.300  13.843
 3314W        W70097  23.532  21.003   3.194
 3315W        W70098   6.978  30.999  14.478
 3316W        W70099  31.634  30.574   4.423
 3317W        W70100   5.888   7.478  14.800
 3318W        W70101  22.550  25.115  12.112
 3319W        W70102  10.427   0.242  12.556
 3320W        W70103  24.222   1.935  10.257
 3321W        W70104   4.490  30.061   3.688
 3322W        W70105   3.855  40.323   3.679
 3323W        W70106  29.612   3.568   3.390
 3324W        W70107   7.659  41.432   0.439
 3325W        W70108  28.178   5.473  11.106
 3326W        W70109  39.106  33.076  10.666
 3327W        W70110  14.204  28.571   1.765
 3328W        W70111  15.235  38.491   1.309
 3329W        W70112  33.978  33.985   1.227
 3330W        W70113  26.425   8.803   2.657
 3331W        W70114  11.223   3.201  13.053
 3332W        W70115  35.604  22.692  14.862
 3333W        W70116  31.153   8.373   2.715
 3334W        W70117  28.511  39.447  13.270
 3335W        W70118  20.777  32.880  14.333
 3336W        W70119   3.641   0.768  12.434
 3337W        W70120  34.867   9.842   3.528
 3338W        W70121   9.789  30.912   4.568
 3339W        W70122  22.526  29.161  14.934
 3340W        W70123  38.070  40.713   3.920
 3341W        W70124  31.113  32.045   2.099
 3342W        W70125  38.963  20.948   4.530
 3343W        W70126  29.276   7.277   3.196
 3344W        W70127  34.708  21.315  11.176
 3345W        W70128   4.905  20.596  11.076
 3346W        W70129  18.592  18.052  13.366
 3347W        W70130  43.442  30.779  14.744
 3348W        W70131   4.858  20.258   2.764
 3349W        W70132  41.525  18.645   1.437
 3350W        W70133  19.569  14.219   1.781
 3351W        W70134  20.329  20.694   3.005
 3352W        W70135  18.835   0.831   1.941
 3353W        W70136  30.949   4.168   1.206
 3354W        W70137  14.746  34.897  13.904
 3355W        W70138   2.797  34.342  14.498
 3356W        W70139  41.121  17.114  13.428
 3357W        W70140   4.026  19.059   1.747
 3358W        W70141  34.054   1.264  14.284
 3359W        W70142  40.839  38.973   3.882
 3360W        W70143  28.147  25.648  12.362
 3361W        W70144   7.152  43.443  12.366
 3362W        W70145  30.441  12.911   1.348
 3363W        W70146  11.202  30.724   0.768
 3364W        W70147  14.721  34.715   0.285
 3365W        W70148   6.169   2.664   1.270
 3366W        W70149  19.111   9.869  13.047
 3367W        W70150  40.148  23.883  10.286
 3368W        W70151  10.748  11.649  12.022
 3369W        W70152  30.531   4.221  10.623
 3370W        W70153  34.955  36.330   4.343
 3371W        W70154  26.450  11.838   4.202
 3372W        W70155  24.389  33.601   3.722
 3373W        W70156  37.897  21.600   3.658
 3374W        W70157  10.355  17.190   3.099
 3375W        W70158  40.588  32.016  11.576
 3376W        W70159  26.630   0.759   2.218
 3377W        W70160  26.779   8.271  13.835
 3378W        W70161  43.693  16.615  13.130
 3379W        W70162  42.309  44.198   3.567
 3380W        W70163   7.913  37.309   0.419
 3381W        W70164  12.896  29.087  13.946
 3382W        W70165  24.586  42.897   4.204
 3383W        W70166  33.076  30.609  10.759
 3384W        W70167  12.186   0.210   4.368
 3385W        W70168  30.733  12.922  11.107
 3386W        W70169  42.797  21.285   1.443
 3387W        W70170  38.744  22.993  14.343
 3388W        W70171  32.246  33.819   3.014
 3389W        W70172  25.098  18.553   4.665
 3390W        W70173  36.778  38.988  10.730
 3391W        W70174  10.876   4.771   1.299
 3392W        W70175  37.498  43.448  11.564
 3393W        W70176  33.125  38.514   3.858
 3394W        W70177  28.932  26.282  14.432
 3395W        W70178  25.061  25.960  14.193
 3396W        W70179  15.340  40.918   3.841
 3397W        W70180  23.914  13.746  13.362
 3398W        W70181   9.838   5.221   2.173
 3399W        W70182   8.766  20.378   4.159
 3400W        W70183  10.370  21.001   0.786
 3401W        W70184  11.260  35.875   1.564
 3402W        W70185  14.387  41.255  10.757
 3403W        W70186   2.511   8.821   3.638
 3404W        W70187  32.464  29.847  10.698
 3405W        W70188   7.886   4.075  11.226
 3406W        W70189   0.406  28.648  12.679
 3407W        W70190   4.126  11.234  14.791
 3408W        W70191  16.214  23.690   2.081
 3409W        W70192  24.583  41.175  14.526
 3410W        W70193  17.972   4.278  14.816
 3411W        W70194  41.648  13.154  11.209
 3412W        W70195  25.990  36.151  14.406
 3413W        W70196  33.721  13.716   1.911
 3414W        W70197  28.517  42.767  11.061
 3415W        W70198  44.139  44.959  12.884
 3416W        W70199  26.539  11.654  14.861
 3417W        W70200  14.211   1.444   1.921
 3418W        W70201  43.547  27.254   3.462
 3419W        W70202  32.029  13.079   4.039
 3420W        W70203   5.459   4.297  12.908
 3421W        W70204  32.946  11.385  13.761
 3422W        W70205   0.979  15.524   3.125
 3423W        W70206  17.057  20.772  12.407
 3424W        W70207  36.769  42.296   1.494
 3425W        W70208   3.217   0.359  12.416
 3426W        W70209  43.427   5.808   4.065
 3427W        W70210  22.466  26.612  11.137
 3428W        W70211   5.957  22.411  11.431
 3429W        W70212  33.861  10.640   4.988
 3430W        W70213  33.421  13.515   3.678
 3431W        W70214  39.889  42.754   4.989
 3432W        W70215  37.060  29.945   1.849
 3433W        W70216  14.278  23.265  11.920
 3434W        W70217  39.387  24.940  14.793
 3435W        W70218  31.629   4.162  14.255
 3436W        W70219  38.215  12.091  12.936
 3437W        W70220  36.963   1.960   4.626
 3438W        W70221   0.434   8.440   2.752
 3439W        W70222  16.688  15.759  13.268
 3440W        W70223  41.912   0.762  14.956
 3441W        W70224  43.343  44.845   2.819
 3442W        W70225  34.502  41.987  11.189
 3443W        W70226  21.545  23.236  11.443
 3444W        W70227   8.779  20.795   3.836
 3445W        W70228  39.784  10.328   2.479
 3446W        W70229  41.841   0.305   2.205
 3447W        W70230  21.854  23.691  11.385
 3448W        W70231  37.343  15.927   1.782
 3449W        W70232   5.671   9.814  12.993
 3450W        W70233  13.025  24.261  14.103
 3451W        W70234  12.053  29.139  14.389
 3452W        W70235   1.650  11.771  12.161
 3453W        W70236  23.998  16.093  12.011
 3454W        W70237  14.713  10.151   3.036
 3455W        W70238  37.445  12.156   3.991
 3456W        W70239   6.020   2.497  14.895
 3457W        W70240  44.475   6.251  10.906
 3458W        W70241  24.629  21.582  12.628
 3459W        W70242  36.545  34.046   0.951
 3460W        W70243  27.208  36.465  14.829
 3461W        W70244  18.956  34.027   4.254
 3462W        W70245  29.411  43.394   0.302
 3463W        W70246  29.371  14.205  12.947
 3464W        W70247  23.977  26.143   3.463
 3465W        W70248   9.421  14.312  11.457
 3466W        W70249  17.327  34.542   0.206
 3467W        W70250  13.998  33.302   4.305
 3468W        W70251  30.941  36.564  12.916
 3469W        W70252  15.060  23.789   4.156
 3470W        W70253  33.680  25.523   1.200
 3471W        W70254  37.269   8.229   5.029
 3472W        W70255  12.294  18.736  14.062
 3473W        W70256  37.372  26.074  10.554
 3474W        W70257  42.893  44.747  10.606
 3475W        W70258  38.554  18.105  11.688
 3476W        W70259  34.121  38.249  11.228
 3477W        W70260   0.956  44.845   3.111
 3478W        W70261   0.890  17.390  11.230
 3479W        W70262  10.592  24.237   0.424
 3480W        W70263  38.397  32.443   4.137
 3481W        W70264  40.888  40.060  11.521
 3482W        W70265  10.543  33.934   0.411
 3483W        W70266  27.192  29.307  13.145
 3484W        W70267  36.238  10.812   3.448
 3485W        W70268  39.534   8.921  11.625
 3486W        W70269  10.113   6.799  13.896
 3487W        W70270  31.350  38.365   3.658
 3488W        W70271   0.707  37.410  10.567
 3489W        W70272   5.692  27.998  14.872
 3490W        W70273   3.228  16.406   3.659
 3491W        W70274   9.883  14.383   2.370
 3492W        W70275  28.959   8.944  14.210
 3493W        W70276   3.361   8.811  12.576
 3494W        W70277  17.288  15.288  13.297
 3495W        W70278  27.127  15.788   2.908
 3496W        W70279   7.832  43.821   2.696
 3497W        W70280  14.164  44.974   1.475
 3498W        W70281  30.925   9.104   0.867
 3499W        W70282  27.469  36.163   2.142
 3500W        W70283  21.565  40.766  13.800
 3501W        W70284  23.321  42.504  13.084
 3502W        W70285  11.541  18.032   3.249
 3503W        W70286  15.549  24.690   1.325
 3504W        W70287  28.661   3.446   3.258
 3505W        W70288  16.584   7.193   0.289
 3506W        W70289  10.758  42.213  14.492
 3507W        W70290  38.543  42.673  10.347
 3508W        W70291   1.357  40.496  14.990
 3509W        W70292  43.925  34.072  12.581
 3510W        W70293  31.651  22.567  14.010
 3511W        W70294  38.458  20.595   0.379
 3512W        W70295  37.292  40.258  11.902
 3513W        W70296  32.927  34.335  11.734
 3514W        W70297  25.009  25.152  12.616
 3515W        W70298  22.157  39.920  11.965
 3516W        W70299   0.443  15.471   4.750
 3517W        W70300  19.912   3.202   4.126
 3518W        W70301  10.624  28.859  13.248
 3519W        W70302  35.873  39.387  12.429
 3520W        W70303  15.552  39.206   0.156
 3521W        W70304  13.343  12.950   4.926
 3522W        W70305  37.467   8.181  11.410
 3523W        W70306  44.245  32.624  10.710
 3524W        W70307  30.583  42.752  13.495
 3525W        W70308  28.184  30.551  10.647
 3526W        W70309  25.386  12.244   2.710
 3527W        W70310   4.485   7.458   3.335
 3528W        W70311  22.954  14.209   1.511
 3529W        W70312  22.622   9.654  12.371
 3530W        W70313  40.946   5.504   3.245
 3531W        W70314  20.127  38.866  12.046
 3532W        W70315  31.944  14.248  12.057
 3533W        W70316  18.179  20.676   2.800
 3534W        W70317  24.023  19.668   2.222
 3535W        W70318  31.534  28.591  14.856
 3536W        W70319  43.471  27.488   4.433
 3537W        W70320  39.767   7.401   0.890
 3538W        W70321  30.021  19.982  13.333
 3539W        W70322  30.553  17.747  12.872
 3540W        W70323   6.391  30.574  12.648
 3541W        W70324  44.896  31.712   1.707
 3542W        W70325  12.249  11.852   0.018
 3543W        W70326  24.464  14.247   3.848
 3544W        W70327   4.756   0.371  12.772
 3545W        W70328   7.701  36.996  11.790
 3546W        W70329  22.418  16.750  14.434
 3547W        W70330  25.064  11.828  12.571
 3548W        W70331  23.464  41.281   4.982
 3549W        W70332  18.935   5.259  14.023
 3550W        W70333  19.033   3.995   1.398
 3551W        W70334   5.128  42.535   3.459
 3552W        W70335  27.607  32.344   2.608
 3553W        W70336  42.535  21.846  12.844
 3554W        W70337  41.456  28.036   1.636
 3555W        W70338  15.235   5.752   4.723
 3556W        W70339   0.708  33.115   2.656
 3557W        W70340   1.725  37.564  10.398
 3558W        W70341  12.439  16.113  14.304
 3559W        W70342  18.925  35.588  11.684
 3560W        W70343  32.461   1.918  14.202
 3561W        W70344  15.196  28.911   4.642
 3562W        W70345  41.284  30.368   3.852
 3563W        W70346  35.898  10.447  14.490
 3564W        W70347   4.860  31.630   0.123
 3565W        W70348  16.300  30.142   0.066
 3566W        W70349  12.414  39.307   3.669
 3567W        W70350   6.563  38.892  10.095
 3568W        W70351  19.161   2.466  14.519
 3569W        W70352  21.535  39.967   0.713
 3570W        W70353  22.535  33.947  12.519
 3571W        W70354  33.618  37.777   5.010
 3572W        W70355   4.883  40.373  14.318
 3573W        W70356  20.591  20.686   3.469
 3574W        W70357   5.385  44.264   3.132
 3575W        W70358  29.954  21.748  14.997
 3576W        W70359  31.251  28.806   4.082
 3577W        W70360  30.428   1.047  11.984
 3578W        W70361  21.208  42.065   0.931
 3579W        W70362  31.915  26.096  12.130
 3580W        W70363  34.916  17.336  13.802
 3581W        W70364  18.567  31.139   1.354
 3582W        W70365   1.246  30.634   3.785
 3583W        W70366  21.668   8.989   3.957
 3584W        W70367  13.659  10.275   3.598
 3585W        W70368  17.192  39.100   0.894
 3586W        W70369  29.924  23.013   4.054
 3587W        W70370   1.509  20.104  12.139
 3588W        W70371  42.277  41.834  10.729
 3589W        W70372  20.896  23.063  14.822
 3590W        W70373  36.472  22.170   1.769
 3591W        W70374  13.672  16.365  12.051
 3592W        W70375  29.079  44.909  11.608
 3593W        W70376  29.514  30.424  11.592
 3594W        W70377  33.453  29.679  11.631
 3595W        W70378   3.898  40.489   4.677
 3596W        W70379  20.697   3.921  11.213
 3597W        W70380  27.673  35.576  13.996
 3598W        W70381  27.932  13.563  12.602
 3599W        W70382  22.016  42.857   2.431
 3600W        W70383  19.004  11.075  12.414
 3601W        W70384   3.365  25.225  10.641
 3602W        W70385  20.148  33.975  13.342
 3603W        W70386   9.892  11.835  14.924
 3604W        W70387  39.349  35.184   0.305
 3605W        W70388   2.963  19.501  14.530
 3606W        W70389  37.113   0.812   3.421
 3607W        W70390  21.183  38.998   5.103
 3608W        W70391  39.146   7.282  12.163
 3609W        W70392  34.491  17.528   3.634
 3610W        W70393   6.678  17.984   1.718
 3611W        W70394  33.988  20.898  11.965
 3612W        W70395  35.867  24.253  11.228
 3613W        W70396  31.117  20.980  14.532
 3614W        W70397  24.739  31.302  12.724
 3615W        W70398  16.872  29.430  13.285
 3616W        W70399   3.784  14.417   3.851
 3617W        W70400  44.882  28.936   2.165
 3618W        W70401  22.236  43.919   3.729
 3619W        W70402   2.184  42.411  12.521
 3620W        W70403   1.730  41.901  14.059
 3621W        W70404   4.368  39.476   4.591
 3622W        W70405  39.737   4.296  13.399
 3623W        W70406  18.712  32.116   1.261
 3624W        W70407  42.358  19.768   3.108
 3625W        W70408   6.827   3.056  12.919
 3626W        W70409   8.666  13.013  14.775
 3627W        W70410  33.956  25.248  12.921
 3628W        W70411  14.078  39.408   3.071
 3629W        W70412  20.109  16.858   0.785
 3630W        W70413  36.485  32.603   0.310
 3631W        W70414   8.394  27.905   3.410
 3632W        W70415   6.272  25.163   0.012
 3633W        W70416  14.730   8.230  12.827
 3634W        W70417   8.842  43.559  14.939
 3635W        W70418  13.573   9.369   3.213
 3636W        W70419  44.017  38.513  11.365
 3637W        W70420  41.333   6.681   3.626
 3638W        W70421   4.305   3.750   2.329
 3639W        W70422   9.407  23.021  11.875
 3640W        W70423  10.234  36.111  11.949
 3641W        W70424  19.741  44.186  14.455
 3642W        W70425   7.419  27.990   3.154
 3643W        W70426   2.755  19.026  12.180
 3644W        W70427  30.545  29.542   4.004
 3645W        W70428  17.196  35.601  12.975
 3646W        W70429   1.389   3.453   1.170
 3647W        W70430  25.156  31.440   1.328
 3648W        W70431  10.929   9.668   4.478
 3649W        W70432  20.085  11.681   4.761
 3650W        W70433  39.497  27.158   0.435
 3651W        W70434  41.502  23.657  11.924
 3652W        W70435  12.254  16.066  12.179
 3653W        W70436  37.590  16.942   0.557
 3654W        W70437  24.132  10.255   2.823
 3655W        W70438   2.477  23.361   1.716
 3656W        W70439   0.790  21.690   3.096
 3657W        W70440  23.410   5.627  14.983
 3658W        W70441   0.329   6.715  12.438
 3659W        W70442  10.175  15.879  14.916
 3660W        W70443  23.186  18.763   3.306
 3661W        W70444  20.617  14.242   0.019
 3662W        W70445  17.708  33.362   2.758
 3663W        W70446  11.694  39.751   9.806
 3664W        W70447  22.223  16.680  13.438
 3665W        W70448  39.540  14.801   3.387
 3666W        W70449  35.631  15.468   3.775
 3667W        W70450  12.331  10.827   1.731
 3668W        W70451   0.639  28.131  14.484
 3669W        W70452  17.195  13.777  13.004
 3670W        W70453  43.376  35.368  12.093
 3671W        W70454  14.262  17.774  14.552
 3672W        W70455   3.976   5.128   2.725
 3673W        W70456  19.060  35.682  13.913
 3674W        W70457  23.980   8.243  12.534
 3675W        W70458  36.155   6.158   1.995
 3676W        W70459  39.883  11.853   4.583
 3677W        W70460  29.743  24.296  14.114
 3678W        W70461  33.477   0.932   3.017
 3679W        W70462  38.150  34.926  12.608
 3680W        W70463  32.925  32.439   2.070
 3681W        W70464  35.684   9.178   4.116
 3682W        W70465  15.181  26.955   2.309
 3683W        W70466  18.012  37.482  14.698
 3684W        W70467  36.572  22.617  12.794
 3685W        W70468  40.583  24.031   2.791
 3686W        W70469  37.858  31.995  10.960
 3687W        W70470  23.215  34.629   3.111
 3688W        W70471  10.110   1.458  12.918
 3689W        W70472  32.072  31.530   2.238
 3690W        W70473  16.975  16.566   4.457
 3691W        W70474  40.006  10.118   1.052
 3692W        W70475  12.254  42.866   4.520
 3693W        W70476  44.226  29.625   1.783
 3694W        W70477  21.597  37.139  14.963
 3695W        W70478  20.926  30.916   2.640
 3696W        W70479  43.066  35.037  14.421
 3697W        W70480  26.481  33.681   2.386
 3698W        W70481   5.341  10.153   2.550
 3699W        W70482  40.007   8.130   4.751
 3700W        W70483  27.520  17.675  12.413
 3701W        W70484   6.149  41.027  14.250
 3702W        W70485  19.826  36.855  12.521
 3703W        W70486  13.467   0.226  14.862
 3704W        W70487  16.058  28.394   0.874
 3705W        W70488  30.277  40.433   5.066
 3706W        W70489   3.402   2.513   0.836
 3707W        W70490  26.894  30.192   4.808
 3708W        W70491  28.885  31.143   1.225
 3709W        W70492  35.201   0.812   4.861
 3710W        W70493  10.314  20.858  14.529
 3711W        W70494  31.570  32.414  14.201
 3712W        W70495  36.354   0.322   3.220
 3713W        W70496  24.650  35.643   0.801
 3714W        W70497  36.048  42.296   4.593
 3715W        W70498  23.729  21.195  14.046
 3716W        W70499  16.570  20.699   1.328
 3717W        W70500   2.880  38.626  11.083
 3718W        W70501   7.837  41.594  11.150
 3719W        W70502   9.648  23.517   3.585
 3720W        W70503  32.464  20.019  11.489
 3721W        W70504  14.542  27.060   3.809
 3722W        W70505  25.200  22.949   2.751
 3723W        W70506  25.093  37.539   2.388
 3724W        W70507  16.471   4.992   0.759
 3725W        W70508  34.588  13.248   0.976
 3726W        W70509  22.048  44.359  13.380
 3727W        W70510  31.598   4.805   0.407
 3728W        W70511  10.152  36.507   1.421
 3729W        W70512  37.494  29.283   1.514
 3730W        W70513  20.266  39.873   1.254
 3731W        W70514   6.353  39.820  12.372
 3732W        W70515  18.152  40.089   4.671
 3733W        W70516  27.278  35.833  13.056
 3734W        W70517   7.725   2.744  13.907
 3735W        W70518  42.107  38.520  13.412
 3736W        W70519  19.360  44.423  14.167
 3737W        W70520  41.932  11.957  11.646
 3738W        W70521  37.101  11.634  13.041
 3739W        W70522  15.676  11.363  13.979
 3740W        W70523  25.185  35.363  11.677
 3741W        W70524  23.457  14.812  13.367
 3742W        W70525  40.226  23.596   2.368
 3743W        W70526  21.614   7.835   0.225
 3744W        W70527  40.863   0.984   2.229
 3745W        W70528  33.950  38.011  14.939
 3746W        W70529  40.976  34.906  14.482
 3747W        W70530  43.783   2.447   3.125
 3748W        W70531  36.473  27.131   3.621
 3749W        W70532  18.750  29.741   2.328
 3750W        W70533  39.866  34.041   0.458
 3751W        W70534   3.968  33.362  13.613
 3752W        W70535  26.462  12.825  13.443
 3753W        W70536  10.134   2.387   4.653
 3754W        W70537  32.519  40.615  12.905
 3755W        W70538  21.767  10.452   4.111
 3756W        W70539  15.217  32.131   0.949
 3757W        W70540   0.593  39.816   0.263
 3758W        W70541  15.053   7.359  14.428
 3759W        W70542   8.444  18.275   1.344
 3760W        W70543  18.014  28.401   2.776
 3761W        W70544   7.357  34.972   2.548
 3762W        W70545  19.513  28.367   2.797
 3763W        W70546   5.759  44.973   3.921
 3764W        W70547   7.348  14.137   0.244
 3765W        W70548  35.874  24.531  13.823
 3766W        W70549  22.470  23.778  10.675
 3767W        W70550  41.647  35.480   1.351
 3768W        W70551  15.241   1.973   0.783
 3769W        W70552  10.196  29.161   3.637
 3770W        W70553  37.053   7.439  13.009
 3771W        W70554  44.251  30.938  13.357
 3772W        W70555   6.542   3.251   0.021
 3773W        W70556  38.412  12.021   4.075
 3774W        W70557  43.315  30.903   2.669
 3775W        W70558   8.208   6.868  13.106
 3776W        W70559   2.019  12.773   2.463
 3777W        W70560  15.107   2.410   4.136
 3778W        W70561   7.445  15.346   4.160
 3779W        W70562  17.770  34.640  11.576
 3780W        W70563  29.187  43.820   4.977
 3781W        W70564  23.266  25.020   1.895
 3782W        W70565  10.874  16.647  13.785
 3783W        W70566  30.596  18.221   3.251
 3784W        W70567  25.629  13.775  13.393
 3785W        W70568  29.498  26.216   4.153
 3786W        W70569  42.601  30.362  11.044
 3787W        W70570  19.187  20.189  10.866
 3788W        W70571   7.352  28.044  14.383
 3789W        W70572  13.372  16.258  14.296
 3790W        W70573   2.532   8.841  14.371
 3791W        W70574  13.812   4.218   2.132
 3792W        W70575   8.095  43.368   2.683
 3793W        W70576   8.158  29.652  10.633
 3794W        W70577  11.303  10.734   3.385
 3795W        W70578  18.577  19.214  11.700
 3796W        W70579  13.575   4.384   0.778
 3797W        W70580  28.871  26.847   4.994
 3798W        W70581  28.510  30.573   1.725
 3799W        W70582  14.433   5.782   2.202
 3800W        W70583  23.187  19.248   3.098
 3801W        W70584   0.299  11.597  13.226
 3802W        W70585  13.847   5.793   0.055
 3803W        W70586  22.180  20.351  10.298
 3804W        W70587  27.450  14.248  10.980
 3805W        W70588  35.642  43.275  10.704
 3806W        W70589  31.703  18.601  13.051
 3807W        W70590   8.716  39.198   0.772
 3808W        W70591  28.486  28.111  12.376
 3809W        W70592  44.623  25.731   3.257
 3810W        W70593  11.025  12.006   0.839
 3811W        W70594  38.623  42.957   0.744
 3812W        W70595  43.795   1.969  10.993
 3813W        W70596  18.576  31.370  12.352
 3814W        W70597  44.772  10.716   0.312
 3815W        W70598   8.222   4.473  11.935
 3816W        W70599  40.823  37.029  14.894
 3817W        W70600  10.550   0.562   0.865
 3818W        W70601  43.045  20.275  11.466
 3819W        W70602  35.923  10.373  12.577
 3820W        W70603  16.838  33.579  11.047
 3821W        W70604  23.795  29.116  12.390
 3822W        W70605   2.222   0.861   1.823
 3823W        W70606  18.631   4.787  10.731
 3824W        W70607   2.453  19.515  10.698
 3825W        W70608  37.877   7.306  13.596
 3826W        W70609  42.034  31.927   4.222
 3827W        W70610  32.489  13.225   4.304
 3828W        W70611  28.588  11.945  12.389
 3829W        W70612   2.416  29.352  11.982
 3830W        W70613  13.397   5.338  10.766
 3831W        W70614  29.594  28.527   1.814
 3832W        W70615  31.448  37.736  13.366
 3833W        W70616  12.136  14.393  13.404
 3834W        W70617  18.366  39.860  12.609
 3835W        W70618  34.017  10.824  13.922
 3836W        W70619  42.219   4.776  13.564
 3837W        W70620  34.377  12.217   2.396
 3838W        W70621   2.368  43.174   0.215
 3839W        W70622  29.618  29.539  13.797
 3840W        W70623  33.967  12.925  11.021
 3841W        W70624   4.710   3.833  12.095
 3842W        W70625  20.793  34.376   0.308
 3843W        W70626  26.236  12.599   1.762
 3844W        W70627  44.770  15.548   1.947
 3845W        W70628  14.151  24.946  13.337
 3846W        W70629  33.991  39.098  10.971
 3847W        W70630  21.723  11.864   3.711
 3848W        W70631  25.032  31.982  12.593
 3849W        W70632  32.112  29.170   3.936
 3850W        W70633  31.495  16.132  14.388
 3851W        W70634  25.040   2.280  12.046
 3852W        W70635   7.912   7.303   0.982
 3853W        W70636   0.434  11.733   0.692
 3854W        W70637  12.565  34.924   4.837
 3855W        W70638  16.366   2.340   3.734
 3856W        W70639  34.403  14.783  12.002
 3857W        W70640  32.630  12.709  10.525
 3858W        W70641  18.327  32.124  12.865
 3859W        W70642  24.712  31.378  10.992
 3860W        W70643  44.009  30.947  11.098
 3861W        W70644  36.129   6.152  13.108
 3862W        W70645  23.436  30.846  14.389
 3863W        W70646  33.434  23.726  10.787
 3864W        W70647   6.459   3.896  13.464
 3865W        W70648  24.345  19.254   4.842
 3866W        W70649  28.007  11.682   2.652
 3867W        W70650  13.035  20.818   4.944
 3868W        W70651  32.701   5.447   4.436
 3869W        W70652  15.586  42.437   4.661
 3870W        W70653  41.974   3.058  13.843
 3871W        W70654  22.465  40.541   3.535
 3872W        W70655  16.520  21.130   0.025
 3873W        W70656   5.689   0.927   4.760
 3874W        W70657   8.054  22.951   1.839
 3875W        W70658  11.876  33.513  11.240
 3876W        W70659  29.844  21.721   4.198
 3877W        W70660   9.461  24.769  14.830
 3878W        W70661   4.416  11.351   0.231
 3879W        W70662  29.025  35.546   3.666
 3880W        W70663  43.175  33.678   1.834
 3881W        W70664  12.999  38.794   1.407
 3882W        W70665  13.310  41.956   4.547
 3883W        W70666  43.730   5.888   3.637
 3884W        W70667   8.382  32.869   4.327
 3885W        W70668  38.894  39.462   4.988
 3886W        W70669  28.424   5.854   0.760
 3887W        W70670  15.739  41.336   1.804
 3888W        W70671   9.837  16.345   3.306
 3889W        W70672   1.298  40.587  12.989
 3890W        W70673  14.687  18.500  14.664
 3891W        W70674   2.245   1.787  12.137
 3892W        W70675  12.817  25.703   1.839
 3893W        W70676  30.381  26.608  11.116
 3894W        W70677  27.995  15.868  13.634
 3895W        W70678  39.182  32.128  13.468
 3896W        W70679  10.439  37.451   2.836
 3897W        W70680  35.369   9.831  14.791
 3898W        W70681  11.395  38.398   4.320
 3899W        W70682  28.184  24.969  12.159
 3900W        W70683   7.791  13.857   0.349
 3901W        W70684  36.092  22.739   4.280
 3902W        W70685  25.082  43.087   2.603
 3903W        W70686   0.827   0.824   1.679
 3904W        W70687   1.055  29.198  11.719
 3905W        W70688  20.979  34.482   3.703
 3906W        W70689  20.457  34.578  13.860
 3907W        W70690  30.887   7.415  12.062
 3908W        W70691  17.602  16.115  11.966
 3909W        W70692  29.018  38.371  13.011
 3910W        W70693  29.192   7.692  10.564
 3911W        W70694   2.680  39.978   2.773
 3912W        W70695  42.776  26.912  13.612
 3913W        W70696   5.814  31.292   1.458
 3914W        W70697  27.349  34.545  11.412
 3915W        W70698  23.501  13.671   1.596
 3916W        W70699  17.697  28.341  14.482
 3917W        W70700  10.808  22.212   2.417
 3918W        W70701  31.666  19.323   2.324
 3919W        W70702  14.683  30.621  11.574
 3920W        W70703  32.094  26.995  10.614
 3921W        W70704   0.321  22.243  11.037
 3922W        W70705  37.791  11.706  10.614
 3923W        W70706  11.416  43.640   4.155
 3924W        W70707  19.021  11.679   1.544
 3925W        W70708  26.588   0.740  12.431
 3926W        W70709  42.281   1.499  13.901
 3927W        W70710  23.932  38.999   0.354
 3928W        W70711   2.803   7.934  10.670
 3929W        W70712   2.634   5.017   2.417
 3930W        W70713   6.741  21.265  14.981
 3931W        W70714  34.432   7.939  12.086
 3932W        W70715  26.923  30.512  14.009
 3933W        W70716  36.533  28.859   3.069
 3934W        W70717  17.364  24.641  13.328
 3935W        W70718  20.215   8.408  12.842
 3936W        W70719  10.580  29.215  13.615
 3937W        W70720  37.595  18.223  14.440
 3938W        W70721  42.846   5.379   1.961
 3939W        W70722   0.460   6.768  11.498
 3940W        W70723  37.329  42.403   4.281
 3941W        W70724  17.642  12.641   5.411
 3942W        W70725  16.075   0.086  12.692
 3943W        W70726   2.743  20.746   1.429
 3944W        W70727  39.311  15.685  13.359
 3945W        W70728   6.407  23.035  12.526
 3946W        W70729   8.747  24.654   2.254
 3947W        W70730  25.208  39.942   1.879
 3948W        W70731  28.538  29.410  14.077
 3949W        W70732  13.143  38.358   1.107
 3950W        W70733  26.501  30.028  13.307
 3951W        W70734  11.614  37.266  10.176
 3952W        W70735  31.149   9.708  11.332
 3953W        W70736  12.223  24.414  12.878
 3954W        W70737   8.677   1.823   0.130
 3955W        W70738   0.468   9.203   3.283
 3956W        W70739  27.158  11.198   2.597
 3957W        W70740  28.458  44.279  12.057
 3958W        W70741  41.275  23.812  13.436
 3959W        W70742   0.924  27.611   4.853
 3960W        W70743  25.330  23.879  13.549
 3961W        W70744  14.423  39.404  13.930
 3962W        W70745  25.011  39.013   3.593
 3963W        W70746  30.218  38.567   1.262
 3964W        W70747  11.596  17.670  14.898
 3965W        W70748   2.670   9.861   3.030
 3966W        W70749   2.171  27.239  14.324
 3967W        W70750  28.587  40.088   4.005
 3968W        W70751   8.078  43.290  14.419
 3969W        W70752  10.826  37.961  13.860
 3970W        W70753  19.442  30.914  14.426
 3971W        W70754  29.537  28.027   1.991
 3972W        W70755  21.474   5.206   1.717
 3973W        W70756  36.942  41.102   1.249
 3974W        W70757  11.357  27.113   4.644
 3975W        W70758   4.328  38.623   0.982
 3976W        W70759  13.062  39.870  10.068
 3977W        W70760  16.642  25.953   3.814
 3978W        W70761   9.561  30.396  13.515
 3979W        W70762  32.418  27.222  13.924
 3980W        W70763   4.598  41.047   4.557
 3981W        W70764  10.901   2.712   0.728
 3982W        W70765  31.143  39.705   2.789
 3983W        W70766  20.561  10.868  11.615
 3984W        W70767  29.839  10.142  11.543
 3985W        W70768  39.248  29.893  13.408
 3986W        W70769  44.238  32.450   1.812
 3987W        W70770  23.248  44.827  11.510
 3988W        W70771  27.892  43.435   0.293
 3989W        W70772  24.447  43.070  13.112
 3990W        W70773   5.359  42.548   0.184
 3991W        W70774   7.722  41.459   4.629
 3992W        W70775  24.287  44.430  13.850
 3993W        W70776  40.312  20.590  13.472
 3994W        W70777  22.731   3.928  11.172
 3995W        W70778  13.324  11.529   3.471
 3996W        W70779  20.101  40.300   4.120
 3997W        W70780  11.089  29.667  11.989
 3998W        W70781   7.352  11.212  12.382
 3999W        W70782  42.333   3.900  12.072
 4000W        W70783   0.443   5.944  14.982
 4001W        W70784  12.242   5.865   2.022
 4002W        W70785  20.183  42.523   1.749
 4003W        W70786  34.913  35.131  13.046
 4004W        W70787   4.995   0.398  13.262
 4005W        W70788  13.136  34.513  14.965
 4006W        W70789  19.816  25.097  11.049
 4007W        W70790  21.268   6.024   0.762
 4008W        W70791  19.863  20.777   0.932
 4009W        W70792   2.321   6.805  11.919
 4010W        W70793  18.966   3.548  13.483
 4011W        W70794   9.221  40.956   4.175
 4012W        W70795  20.124  21.608  12.978
 4013W        W70796   8.995  18.064   4.424
 4014W        W70797  16.567  14.187   1.707
 4015W        W70798   2.405  36.931  14.499
 4016W        W70799  31.347  25.628  13.765
 4017W        W70800  32.724  41.978   4.710
 4018W        W70801   8.299  36.818  13.876
 4019W        W70802  23.016  23.430   4.106
 4020W        W70803  37.319  15.559   4.530
 4021W        W70804   6.576   4.171   1.302
 4022W        W70805   7.204  37.695  11.993
 4023W        W70806  12.725  31.199   0.764
 4024W        W70807  44.858  11.856   1.928
 4025W        W70808  10.029  29.585   4.259
 4026W        W70809   1.215  40.885  12.512
 4027W        W70810  14.287  21.472   0.841
 4028W        W70811  38.435  40.363  14.507
 4029W        W70812  42.394  44.928  10.708
 4030W        W70813  12.340  17.656  13.394
 4031W        W70814  26.229   6.411  13.386
 4032W        W70815  11.781   9.194   3.568
 4033W        W70816  13.259  29.473  13.744
 4034W        W70817  27.924  12.672  12.479
 4035W        W70818  19.730   9.869   1.472
 4036W        W70819  38.972  33.329   2.786
 4037W        W70820   5.923   4.964  11.512
 4038W        W70821  30.371  14.801   0.684
 4039W        W70822   4.240   0.704  13.558
 4040W        W70823  38.474  16.801   3.948
 4041W        W70824  34.636  25.706   1.513
 4042W        W70825  13.713  21.768  11.493
 4043W        W70826   9.590   1.397   4.522
 4044W        W70827  34.557  42.812  14.481
 4045W        W70828  24.943  18.994  12.874
 4046W        W70829  17.657  14.569  12.934
 4047W        W70830  11.402   9.566  11.565
 4048W        W70831  14.732   7.362  10.992
 4049W        W70832  24.377  23.970   3.264
 4050W        W70833  19.692  44.045  12.917
 4051W        W70834  38.086  29.944  10.720
 4052W        W70835  26.363  44.481   3.187
 4053W        W70836  26.026  17.860   3.152
 4054W        W70837  20.700  17.315   2.658
 4055W        W70838  11.289  35.653   3.562
 4056W        W70839  36.712  42.347  12.974
 4057W        W70840  23.555  44.413   0.998
 4058W        W70841  30.159  18.050   0.815
 4059W        W70842  35.597  10.994  11.374
 4060W        W70843   7.521   2.938   4.166
 4061W        W70844   7.919  27.884   3.221
 4062W        W70845  26.768  23.508  11.063
 4063W        W70846   7.881  21.613  14.544
 4064W        W70847   8.861  20.836  12.402
 4065W        W70848  25.503  34.143   3.386
 4066W        W70849  24.448  39.672  14.273
 4067W        W70850  43.775  33.545   3.207
 4068W        W70851   5.241  30.193   3.258
 4069W        W70852  42.298  15.664   4.401
 4070W        W70853  29.439  17.146  13.355
 4071W        W70854  14.146   7.794   0.804
 4072W        W70855  16.167  36.387  10.626
 4073W        W70856  24.424  20.970   1.822
 4074W        W70857  40.013   5.003   0.437
 4075W        W70858  30.007   6.478  11.564
 4076W        W70859  27.680   0.083   1.949
 4077W        W70860  15.591  25.514  12.139
 4078W        W70861  31.595  19.955  10.891
 4079W        W70862  42.576  22.050  14.920
 4080W        W70863  38.677  35.526   4.709
 4081W        W70864   5.700  21.744   2.735
 4082W        W70865  40.302  38.333  11.500
 4083W        W70866  31.089  41.224  12.933
 4084W        W70867  27.182  25.506   3.096
 4085W        W70868  33.528   6.435  12.046
 4086W        W70869  12.384  17.715   1.440
 4087W        W70870  44.079  13.904  13.132
 4088W        W70871  37.331  12.608  12.093
 4089W        W70872  39.036  42.393  14.373
 4090W        W70873  27.069   4.669   1.171
 4091W        W70874  32.127  30.350   4.542
 4092W        W70875   2.227  43.835   0.187
 4093W        W70876  34.088   3.733   4.154
 4094W        W70877  44.839  11.185  10.475
 4095W        W70878  30.210  22.197   0.859
 4096W        W70879  33.588  10.665  11.947
 4097W        W70880  24.474  17.897   1.991
 4098W        W70881   8.867   1.970  13.051
 4099W        W70882  15.720  27.562   0.471
 4100W        W70883   6.155  37.999  13.064
 4101W        W70884  22.034  32.355   3.251
 4102W        W70885   4.247  40.977   2.576
 4103W        W70886  16.640  29.458  11.718
 4104W        W70887   3.515  37.263   4.944
 4105W        W70888  10.116  41.517  12.275
 4106W        W70889   9.295   1.961   1.998
 4107W        W70890  36.633  11.388  10.162
 4108W        W70891  15.576  43.464   0.502
 4109W        W70892  14.265  36.416   2.587
 4110W        W70893   8.451  18.453   0.568
 4111W        W70894   3.011  21.576  13.008
 4112W        W70895  15.549  16.753  13.529
 4113W        W70896  27.683  28.415  10.492
 4114W        W70897  11.209  21.329  11.214
 4115W        W70898  36.054  33.532   3.331
 4116W        W70899  31.199  31.349   3.186
 4117W        W70900  36.501  24.500   4.745
 4118W        W70901  40.952   6.414   5.715
 4119W        W70902  16.716   5.216   4.129
 4120W        W70903  15.257  39.618  11.846
 4121W        W70904  14.845  19.228  12.999
 4122W        W70905  21.170   3.271   0.740
 4123W        W70906  14.371  18.186  11.826
 4124W        W70907   7.129  33.328  11.486
 4125W        W70908  41.382   3.451  10.779
 4126W        W70909  44.405  36.933  13.467
 4127W        W70910  42.251   7.940   2.241
 4128W        W70911  42.651   9.873   5.202
 4129W        W70912   1.469   8.376  13.724
 4130W        W70913  21.715  42.292   0.891
 4131W        W70914  12.182  11.550   1.209
 4132W        W70915  27.089  38.865  11.099
 4133W        W70916  18.717   7.764  12.038
 4134W        W70917   8.909  41.940   3.676
 4135W        W70918   7.448  18.645   5.059
 4136W        W70919  30.518   0.195  13.005
 4137W        W70920  15.259  23.315   4.157
 4138W        W70921  39.498  30.159  13.033
 4139W        W70922  32.355  27.874  11.024
 4140W        W70923  43.287  18.033  14.335
 4141W        W70924   5.591  29.675   0.937
 4142W        W70925  32.991  26.018  12.081
 4143W        W70926  17.114  29.928   4.536
 4144W        W70927   1.776  10.808   2.806
 4145W        W70928  31.157   7.852  11.908
 4146W        W70929  18.736  12.534   4.604
 4147W        W70930  10.755  34.165   2.292
 4148W        W70931  12.479   6.340  13.877
 4149W        W70932   4.745  16.744   3.764
 4150W        W70933  37.663  19.057  12.451
 4151W        W70934  38.563  27.438   4.072
 4152W        W70935  40.290  42.138  11.937
 4153W        W70936  26.311  15.147   0.248
 4154W        W70937  32.891  34.988   0.866
 4155W        W70938   6.490  26.140  11.138
 4156W        W70939  43.911  36.622  12.349
 4157W        W70940  26.434  13.093  14.084
 4158W        W70941  28.590  32.297  10.727
 4159W        W70942  31.215  18.627  12.187
 4160W        W70943   7.946  32.122  10.259
 4161W        W70944  34.330  25.482  11.074
 4162W        W70945  24.930   5.273   4.094
 4163W        W70946  23.425   7.305   0.353
 4164W        W70947   9.646   3.357   1.362
 4165W        W70948  29.901  42.993   1.643
 4166W        W70949  19.485  21.522   2.723
 4167W        W70950  10.813  42.960  10.664
 4168W        W70951  43.456  18.969   0.809
 4169W        W70952  25.817   4.830   2.439
 4170W        W70953   7.166  31.777  13.039
 4171W        W70954  25.106   6.408   4.226
 4172W        W70955  23.653  32.673   3.173
 4173W        W70956  34.428  17.691  10.339
 4174W        W70957  38.281  19.595  11.708
 4175W        W70958  38.559   5.037  11.951
 4176W        W70959  15.916   3.382   2.115
 4177W        W70960  21.468  17.853   0.986
 4178W        W70961  14.394   1.585   0.565
 4179W        W70962   6.375  43.342   4.797
 4180W        W70963   0.787   9.652   5.142
 4181W        W70964  11.250  30.913   4.591
 4182W        W70965  26.687   0.928   4.687
 4183W        W70966  41.617  36.472  14.895
 4184W        W70967  23.435  20.541  12.144
 4185W        W70968   0.692  26.733  14.952
 4186W        W70969  36.252   0.208   4.199
 4187W        W70970  29.750   8.709  13.792
 4188W        W70971  35.972  44.314   0.420
 4189W        W70972  21.075  27.653  10.943
 4190W        W70973  35.772   4.194  10.546
 4191W        W70974  40.127  34.009   1.503
 4192W        W70975  34.319  41.858   0.470
 4193W        W70976  35.033  11.639  12.293
 4194W        W70977  44.444   3.370   5.031
 4195W        W70978  37.969  37.976   4.217
 4196W        W70979   2.274  21.067   3.653
 4197W        W70980   9.619  19.931   1.824
 4198W        W70981  33.297  44.048  13.428
 4199W        W70982  11.721  22.914  12.381
 4200W        W70983  40.995  39.279  12.017
 4201W        W70984   6.703  35.866   1.306
 4202W        W70985  13.572  40.355   3.686
 4203W        W70986  14.906  33.914  14.832
 4204W        W70987  44.746   1.327  10.393
 4205W        W70988   3.797  17.127   3.336
 4206W        W70989   3.402  44.260   2.762
 4207W        W70990   6.428  33.006  12.626
 4208W        W70991   7.843   5.178   3.263
 4209W        W70992  39.250  16.172  14.873
 4210W        W70993   5.296   7.457  11.560
 4211W        W70994  10.940  33.197   3.062
 4212W        W70995   2.934  20.921   5.009
 4213W        W70996   3.012  23.110  12.062
 4214W        W70997  15.205  32.611   0.036
 4215W        W70998  42.271   9.331   1.392
 4216W        W70999  44.216  27.648  13.002
 4217W        W71000  10.854  30.480  11.485
 4218W        W71001   1.208   1.756   4.507
 4219W        W71002  38.516   5.032   3.759
 4220W        W71003   7.365  22.975   2.164
 4221W        W71004  36.987   5.728  10.950
 4222W        W71005  19.498  34.917  10.631
 4223W        W71006  36.462  20.743  13.433
 4224W        W71007   4.049  41.438   5.183
 4225W        W71008   0.030  15.854   0.736
 4226W        W71009  11.145  34.647  12.283
 4227W        W71010  23.712  12.131   0.513
 4228W        W71011  40.523  15.911   0.048
 4229W        W71012  23.803  30.594   0.737
 4230W        W71013  13.374  38.822   4.424
 4231W        W71014  39.596  21.916  14.714
 4232W        W71015  39.306  37.977  13.578
 4233W        W71016  19.313  13.395  13.440
 4234W        W71017   2.924   8.399   1.937
 4235W        W71018  17.012  17.443  13.871
 4236W        W71019  11.250  12.299  10.784
 4237W        W71020  38.780   9.003   4.340
 4238W        W71021  26.125   7.225   2.302
 4239W        W71022  31.473   5.004  13.326
 4240W        W71023  32.375  27.538   4.893
 4241W        W71024  18.035  43.455  11.950
 4242W        W71025   6.059  26.716  12.667
 4243W        W71026  33.486  13.370  12.084
 4244W        W71027  23.002  38.643  12.015
 4245W        W71028  37.036  16.258  11.159
 4246W        W71029  27.920   0.412   2.294
 4247W        W71030  43.461  28.468   0.389
 4248W        W71031  12.676  42.186   2.833
 4249W        W71032  36.360  39.851   0.411
 4250W        W71033  37.063  44.560  13.324
 4251W        W71034   5.239   3.379   4.636
 4252W        W71035  25.092  11.343  11.267
 4253W        W71036   2.484  29.511   2.786
 4254W        W71037   2.982  35.535   2.995
 4255W        W71038  26.745  19.645  10.396
 4256W        W71039  30.483   4.326  12.345
 4257W        W71040   3.215  28.368   0.471
 4258W        W71041  11.105  27.015  14.500
 4259W        W71042  43.582  37.257   1.657
 4260W        W71043  24.218  11.712   3.722
 4261W        W71044  17.318  31.176   0.033
 4262W        W71045  41.355  33.737  14.151
 4263W        W71046  41.091  42.935  11.163
 4264W        W71047  31.492  28.548   0.776
 4265W        W71048  23.221  39.674   2.858
 4266W        W71049  36.020   7.156   2.798
 4267W        W71050  36.620  33.280  12.013
 4268W        W71051  18.821  33.734   4.844
 4269W        W71052  23.104  24.033  11.341
 4270W        W71053  36.321  12.365  11.499
 4271W        W71054  38.393  38.124   0.144
 4272W        W71055  31.581  14.231   1.018
 4273W        W71056  43.647  26.337  12.127
 4274W        W71057  16.644   8.371   5.040
 4275W        W71058   5.294  23.282  12.154
 4276W        W71059  25.790  14.607  12.511
 4277W        W71060   2.144  20.129   4.607
 4278W        W71061  16.342  34.094  10.713
 4279W        W71062  21.284  28.415   4.116
 4280W        W71063  10.276  22.659   4.520
 4281W        W71064  28.305  24.155   4.115
 4282W        W71065  37.950  32.061   2.233
 4283W        W71066  24.267  43.432  11.543
 4284W        W71067  28.721  24.031   1.907
 4285W        W71068  41.413  31.837  10.658
 4286W        W71069  26.421  19.326   0.747
 4287W        W71070  26.691   9.635  10.175
 4288W        W71071   9.160  39.827   3.981
 4289W        W71072   3.562  11.753  10.684
 4290W        W71073  41.552  24.255  13.311
 4291W        W71074  41.101  32.122  14.409
 4292W        W71075  39.991   6.005  14.829
 4293W        W71076  10.194  32.120  13.539
 4294W        W71077  33.329  12.804   3.348
 4295W        W71078  29.087  26.534  11.435
 4296W        W71079  32.042  13.751  12.098
 4297W        W71080  24.909  14.153  14.781
 4298W        W71081  40.886  26.189  13.196
 4299W        W71082  43.327   0.839  10.049
 4300W        W71083  16.837  37.108  13.898
 4301W        W71084  28.256  36.991  12.899
 4302W        W71085  13.283  29.833   2.912
 4303W        W71086  14.842  44.247  11.310
 4304W        W71087  29.636  19.671   1.699
 4305W        W71088  15.827  23.572  10.261
 4306W        W71089   2.253  28.051  11.700
 4307W        W71090  19.304  27.171   0.317
 4308W        W71091  28.432   0.806  11.223
 4309W        W71092  39.064   4.387   4.272
 4310W        W71093   6.460   6.778  13.844
 4311W        W71094  34.167  39.765  13.986
 4312W        W71095  42.976  25.241   4.270
 4313W        W71096   6.689  22.532   1.747
 4314W        W71097  40.757  35.401  14.376
 4315W        W71098   4.049  12.779  12.974
 4316W        W71099   6.667  25.794   4.567
 4317W        W71100   9.802  24.477   4.173
 4318W        W71101  43.306  40.517  14.436
 4319W        W71102  10.320  24.175   0.954
 4320W        W71103  11.200  26.561   0.551
 4321W        W71104   5.377  23.768   5.227
 4322W        W71105  21.709  21.637   2.431
 4323W        W71106  16.513  31.954   0.482
 4324W        W71107  36.873  37.051   2.194
 4325W        W71108  14.048  17.316   1.448
 4326W        W71109   9.349  18.185   0.051
 4327W        W71110  19.350  38.446  12.535
 4328W        W71111  26.412   0.249  10.241
 4329W        W71112  13.816  26.633  13.489
 4330W        W71113  42.704  28.665   4.828
 4331W        W71114  23.620  34.187  13.892
 4332W        W71115  24.453  26.929   3.309
 4333W        W71116  34.885   0.319   0.326
 4334W        W71117  10.744   0.438  13.857
 4335W        W71118   8.860  29.184  14.351
 4336W        W71119   7.764  19.748  14.576
 4337W        W71120  20.545  43.291   2.754
 4338W        W71121   5.671  12.814   0.229
 4339W        W71122  31.582  15.804  13.458
 4340W        W71123  34.615  18.100   4.958
 4341W        W71124   2.793  36.000  13.119
 4342W        W71125   4.691   4.486   4.554
 4343W        W71126  42.735  38.839   2.855
 4344W        W71127  18.297  12.217  13.855
 4345W        W71128   9.642   7.842  13.146
 4346W        W71129  37.848  37.967   4.721
 4347W        W71130  23.054   9.638   5.015
 4348W        W71131  16.176  34.854   0.511
 4349W        W71132  17.158  17.951  13.859
 4350W        W71133   6.929  33.345  13.873
 4351W        W71134  38.966   1.710   0.908
 4352W        W71135  15.062  30.871   0.243
 4353W        W71136  19.690  18.527   4.577
 4354W        W71137  39.992  29.735   2.034
 4355W        W71138  41.656  33.061  12.592
 4356W        W71139  26.419  12.429  14.413
 4357W        W71140  26.665   0.455  14.094
 4358W        W71141  39.672   6.386   2.361
 4359W        W71142  43.235  21.194  11.028
 4360W        W71143  17.082  15.762   4.933
 4361W        W71144  42.468   2.913   3.701
 4362W        W71145  26.516  19.466   5.155
 4363W        W71146  11.882  28.754   0.727
 4364W        W71147  26.035   3.126   2.796
 4365W        W71148   4.614   3.519   0.538
 4366W        W71149  34.160  22.230  13.079
 4367W        W71150  43.639  35.956   3.131
 4368W        W71151   1.050  41.010  14.212
 4369W        W71152  34.224  43.807   4.193
 4370W        W71153  29.243  40.650   4.170
 4371W        W71154  40.744  10.493  12.061
 4372W        W71155   7.832  20.992   4.654
 4373W        W71156  18.655  20.669  10.680
 4374W        W71157  43.390  15.380   0.920
 4375W        W71158  26.656  20.583  10.799
 4376W        W71159  26.969  34.908  14.436
 4377W        W71160  40.955  44.807  14.923
 4378W        W71161  11.672  28.694  12.490
 4379W        W71162  42.455  32.750   4.198
 4380W        W71163  25.390  29.174  13.536
 4381W        W71164  30.496  30.386  13.435
 4382W        W71165  14.663  32.308  12.680
 4383W        W71166  16.855   3.092  12.837
 4384W        W71167  25.750  39.854   0.460
 4385W        W71168  29.032  23.974   3.684
 4386W        W71169  42.945  35.442  10.283
 4387W        W71170  41.486  30.444   1.810
 4388W        W71171  18.135  26.193  12.638
 4389W        W71172  28.635  12.792   1.487
 4390W        W71173  24.956  40.301  13.852
 4391W        W71174  33.514  17.196   0.641
 4392W        W71175  24.808  28.501  14.459
 4393W        W71176  18.616  11.214   4.676
 4394W        W71177  21.255  25.458  12.085
 4395W        W71178  13.109   1.735   1.921
 4396W        W71179   9.211  12.225   4.442
 4397W        W71180  15.216  38.301  14.543
 4398W        W71181  13.853  10.993   0.475
 4399W        W71182  20.625  10.682   3.385
 4400W        W71183  29.188   1.676   1.819
 4401W        W71184  32.214  19.740   5.107
 4402W        W71185  39.012   4.469   0.485
 4403W        W71186  32.731   0.357  11.073
 4404W        W71187  40.273  13.232   3.071
 4405W        W71188  34.026  36.927   3.690
 4406W        W71189  36.577  18.396  13.438
 4407W        W71190  13.220  33.612   2.694
 4408W        W71191  22.412  24.258  12.586
 4409W        W71192  19.151  42.468   1.709
 4410W        W71193  10.141  12.874  11.373
 4411W        W71194  40.943   5.453   2.335
 4412W        W71195  18.562  20.085   0.966
 4413W        W71196  10.809  15.434   1.508
 4414W        W71197  31.733  11.267   4.626
 4415W        W71198   0.229  14.709  11.158
 4416W        W71199  44.941  16.311   9.811
 4417W        W71200   0.807  34.982   2.268
 4418W        W71201  30.382  15.184  10.777
 4419W        W71202  34.434  44.267  12.098
 4420W        W71203   9.417  24.625   4.484
 4421W        W71204   4.843  28.875   4.181
 4422W        W71205  27.166  39.617  11.145
 4423W        W71206  36.656  17.213  14.560
 4424W        W71207  28.622   2.680  12.465
 4425W        W71208  15.408  30.832  12.981
 4426W        W71209  20.707  25.950   3.334
 4427W        W71210  21.687  42.327   4.112
 4428W        W71211   6.728  42.314   1.242
 4429W        W71212  13.527  36.396   0.332
 4430W        W71213  21.156   8.599   2.698
 4431W        W71214   3.415   6.768  13.425
 4432W        W71215  27.791  26.178   9.766
 4433W        W71216   5.469  40.843   1.826
 4434W        W71217  15.658  22.201   4.426
 4435W        W71218  30.578  17.073   1.697
 4436W        W71219  34.638   6.387   1.340
 4437W        W71220  41.428   5.756   4.855
 4438W        W71221  19.040  12.722  11.561
 4439W        W71222  26.160  13.421   0.708
 4440W        W71223  40.995  14.114   0.770
 4441W        W71224  15.152  28.992   1.339
 4442W        W71225   6.231   7.013  11.586
 4443W        W71226  26.773  35.188   3.635
 4444W        W71227  36.508   1.987  11.595
 4445W        W71228  22.095  24.877  11.877
 4446W        W71229  12.086   0.782  11.994
 4447W        W71230  12.845  12.615   2.880
 4448W        W71231  13.210  36.631  13.831
 4449W        W71232  29.262  37.543   2.229
 4450W        W71233  19.529  38.049  14.408
 4451W        W71234  40.996  31.968  12.881
 4452W        W71235   7.336  14.056  10.977
 4453W        W71236  16.727  17.585  11.353
 4454W        W71237   3.231  12.665  14.489
 4455W        W71238  24.256  21.576   2.903
 4456W        W71239  33.567  40.426   5.057
 4457W        W71240   9.962  39.881   2.713
 4458W        W71241  29.893  30.416   1.104
 4459W        W71242  12.454  36.651   3.212
 4460W        W71243  19.618  16.058   3.541
 4461W        W71244  15.271  12.333   2.974
 4462W        W71245   6.951  39.272  13.904
 4463W        W71246  31.768  43.759   5.344
 4464W        W71247   4.193  24.524   1.487
 4465W        W71248   1.800  21.039   0.208
 4466W        W71249  43.314  10.420   3.687
 4467W        W71250  14.299   1.969  14.503
 4468W        W71251  15.682  26.043  14.935
 4469W        W71252  44.073  34.034  12.019
 4470W        W71253  20.983  36.324  14.364
 4471W        W71254  43.477  19.720   0.061
 4472W        W71255  30.144   8.743  12.963
 4473W        W71256   9.393  12.779  13.521
 4474W        W71257  38.312   5.579  11.907
 4475W        W71258  22.831  12.825   1.374
 4476W        W71259  31.488  23.023  13.783
 4477W        W71260  19.765   1.425  13.277
 4478W        W71261  14.881  29.015  12.500
 4479W        W71262  20.676  32.403   0.311
 4480W        W71263   7.421  15.805   1.345
 4481W        W71264  38.412  24.767  13.411
 4482W        W71265  28.626   5.253  11.056
 4483W        W71266  43.546  23.501   0.395
 4484W        W71267  26.446  34.956  14.228
 4485W        W71268  30.689   8.295  13.605
 4486W        W71269  27.951   5.980  14.441
 4487W        W71270  31.109   2.190  13.743
 4488W        W71271  23.498   9.430   3.795
 4489W        W71272  16.244   4.655   3.115
 4490W        W71273   5.308  44.853   4.698
 4491W        W71274  38.162  43.543   3.346
 4492W        W71275   3.229   4.801   4.200
 4493W        W71276  19.070  24.231   4.310
 4494W        W71277   3.203  38.400  11.985
 4495W        W71278  16.834  11.245  11.648
 4496W        W71279  12.120  36.370   9.782
 4497W        W71280  22.055   7.509   0.782
 4498W        W71281  13.564  18.074  10.620
 4499W        W71282  13.718   5.868   4.598
 4500W        W71283  23.551   6.598  12.017
 4501W        W71284  22.180  28.440  12.907
 4502W        W71285  38.947  19.606  13.817
 4503W        W71286  15.732  12.125   1.669
 4504W        W71287  20.666   7.341   4.134
 4505W        W71288  16.864  11.176  12.148
 4506W        W71289  34.895  24.185   0.766
 4507W        W71290   1.811  10.085  11.610
 4508W        W71291   5.330  16.723   1.340
 4509W        W71292  43.368  12.107   2.278
 4510W        W71293  18.153  38.938  14.986
 4511W        W71294   0.580  41.870   2.598
 4512W        W71295  36.520  44.968  12.579
 4513W        W71296  36.549  26.514   3.303
 4514W        W71297   5.657   9.414  13.346
 4515W        W71298  21.021  21.808  14.838
 4516W        W71299  40.162  42.945   4.585
 4517W        W71300  43.614  31.003   2.221
 4518W        W71301  12.873  28.035   9.900
 4519W        W71302  41.316  12.620   4.634
 4520W        W71303  43.615  33.434  11.265
 4521W        W71304  27.497  22.456   1.748
 4522W        W71305  10.890   3.472   2.546
 4523W        W71306   4.420  30.067  12.540
 4524W        W71307  16.240   0.265   2.348
 4525W        W71308  28.159  38.302  12.795
 4526W        W71309  40.422  33.165   0.850
 4527W        W71310  14.372  41.515   2.251
 4528W        W71311   8.886  19.113  13.551
 4529W        W71312  29.621  24.248  14.853
 4530W        W71313  10.858  16.318  14.526
 4531W        W71314   5.140  23.742   3.212
 4532W        W71315  13.271  17.073   2.399
 4533W        W71316   6.596  33.494  12.698
 4534W        W71317  20.336  18.302  13.955
 4535W        W71318  44.072  43.863   1.656
 4536W        W71319  28.656   8.531   0.342
 4537W        W71320  32.459  25.273   4.943
 4538W        W71321  15.549  23.492  14.294
 4539W        W71322  25.396  10.996   0.109
 4540W        W71323  39.594  18.101   3.682
 4541W        W71324  10.334  43.253   1.424
 4542W        W71325  24.060  40.539   3.263
 4543W        W71326  26.211   7.371  13.945
 4544W        W71327  35.918  10.154  12.129
 4545W        W71328  26.913  29.890  11.538
 4546W        W71329  26.680  26.641   1.742
 4547W        W71330  23.428  37.923  12.311
 4548W        W71331  21.880  19.816  11.221
 4549W        W71332  10.121  24.813  11.742
 4550W        W71333   2.189  12.411  11.470
 4551W        W71334  40.490  39.056   4.240
 4552W        W71335  34.473   3.889  14.920
 4553W        W71336  41.586  25.389   2.256
 4554W        W71337  43.558   4.862  10.222
 4555W        W71338  33.838  23.541  11.133
 4556W        W71339  44.324  44.719  14.453
 4557W        W71340  17.240  30.197   0.461
 4558W        W71341  28.826  26.242  12.156
 4559W        W71342  21.115  13.035   0.055
 4560W        W71343  11.324  38.835  14.847
 4561W        W71344  22.090  13.571  11.041
 4562W        W71345  22.023   4.919  14.033
 4563W        W71346  26.198  11.230  14.896
 4564W        W71347  31.496  16.022  10.676
 4565W        W71348  17.515   3.471  13.585
 4566W        W71349  26.275  34.475   1.741
 4567W        W71350  20.044   8.390   3.260
 4568W        W71351  30.653  14.665  10.697
 4569W        W71352  43.402  16.655  14.817
 4570W        W71353  41.019  13.316   2.661
 4571W        W71354   7.101   4.202  11.135
 4572W        W71355   7.800   4.927  14.757
 4573W        W71356  30.067  20.363  14.649
 4574W        W71357  44.601   8.910  10.723
 4575W        W71358  19.656  33.767  13.406
 4576W        W71359  36.666  12.395  11.139
 4577W        W71360  33.028  39.982  10.924
 4578W        W71361  40.598  43.652  14.180
 4579W        W71362  16.336   3.444  10.321
 4580W        W71363  37.482  23.905  11.451
 4581W        W71364  31.432  29.263   1.786
 4582W        W71365  11.299  25.290  11.104
 4583W        W71366  30.967   3.026  10.699
 4584W        W71367  34.433  33.874   2.853
 4585W        W71368  35.103  35.715   5.036
 4586W        W71369   3.429  15.700   5.088
 4587W        W71370  11.836  41.378   4.201
 4588W        W71371  33.776  30.930  14.977
 4589W        W71372  13.670  21.536   3.059
 4590W        W71373  13.031  40.819   1.200
 4591W        W71374   1.809  32.462  13.686
 4592W        W71375  33.896  21.132   3.086
 4593W        W71376  31.149   4.681  14.866
 4594W        W71377   8.832  23.507  12.007
 4595W        W71378  25.147  21.166   4.102
 4596W        W71379  44.832  17.128  12.062
 4597W        W71380  23.170   5.773   5.266
 4598W        W71381   4.361  19.438  12.888
 4599W        W71382  17.582  35.556   3.581
 4600W        W71383   7.205  43.102   0.860
 4601W        W71384   7.358  25.448   1.867
 4602W        W71385  43.363  22.060  14.464
 4603W        W71386   0.430   4.027  11.636
 4604W        W71387  25.168   8.401   2.233
 4605W        W71388  10.271  36.638   2.245
 4606W        W71389  11.229  32.678  14.854
 4607W        W71390  40.485  39.622   3.272
 4608W        W71391   2.947  29.917  12.473
 4609W        W71392  13.221   4.043  14.418
 4610W        W71393  12.039   6.267   1.289
 4611W        W71394  10.153  39.922  13.487
 4612W        W71395  26.225   3.230  11.685
 4613W        W71396  25.077  11.949   2.390
 4614W        W71397   2.662  33.513   4.064
 4615W        W71398  25.518  18.290  14.887
 4616W        W71399  26.604  10.284  10.601
 4617W        W71400  38.383  43.106   4.215
 4618W        W71401  10.608   0.431  11.597
 4619W        W71402  14.360  31.556   4.570
 4620W        W71403   2.266  29.263   3.173
 4621W        W71404  29.630  41.342   1.223
 4622W        W71405   7.912  44.599   1.427
 4623W        W71406  37.123   9.582   0.451
 4624W        W71407   6.256  14.102   3.535
 4625W        W71408  31.707   1.616   1.422
 4626W        W71409  34.301  11.618   0.994
 4627W        W71410  20.973  36.453  11.546
 4628W        W71411  26.943  28.451  14.287
 4629W        W71412  12.129   8.939  12.580
 4630W        W71413  27.909  28.645   1.002
 4631W        W71414  14.741  35.976  11.204
 4632W        W71415  39.925  44.925  13.484
 4633W        W71416  29.649  34.900   3.349
 4634W        W71417  43.525   4.634  14.106
 4635W        W71418  28.544  34.146   2.856
 4636W        W71419  32.236  37.148   0.080
 4637W        W71420   4.174  13.213   3.299
 4638W        W71421  29.645  12.033  11.640
 4639W        W71422  21.057  39.097  14.912
 4640W        W71423   0.998   2.313   1.819
 4641W        W71424  16.336  36.862  12.337
 4642W        W71425  14.386  15.730   2.590
 4643W        W71426   1.059  39.636  11.024
 4644W        W71427  15.281   8.681  11.787
 4645W        W71428   2.489  14.730   3.304
 4646W        W71429  29.725  18.281   0.479
 4647W        W71430  27.616  27.049  13.386
 4648W        W71431  17.829  22.261  12.031
 4649W        W71432   8.269  23.612  11.863
 4650W        W71433   3.344  23.956   0.037
 4651W        W71434   7.875  33.538   4.484
 4652W        W71435  40.548  35.665  14.888
 4653W        W71436  22.188  10.205  14.245
 4654W        W71437  22.771   3.528  12.446
 4655W        W71438  16.124  13.572   2.855
 4656W        W71439  25.540  17.239   3.165
 4657W        W71440  10.849  33.001  14.937
 4658W        W71441  17.593  23.265  10.304
 4659W        W71442  38.937  26.722  14.427
 4660W        W71443   1.927   3.401   4.169
 4661W        W71444  13.680  15.664  11.168
 4662W        W71445  36.845  33.540  11.630
 4663W        W71446   1.306   5.708  10.705
 4664W        W71447   0.958   2.311   3.757
 4665W        W71448   7.319  18.985   2.485
 4666W        W71449  12.852  14.581   3.641
 4667W        W71450  28.598  16.216   3.899
 4668W        W71451  44.925   9.684   1.247
 4669W        W71452   9.048  22.541  11.233
 4670W        W71453  27.997  38.334  14.933
 4671W        W71454  43.616  44.503  11.613
 4672W        W71455  23.494  17.592   0.167
 4673W        W71456  18.776  43.968  11.928
 4674W        W71457  12.786  34.476   2.204
 4675W        W71458  14.436  37.266  10.253
 4676W        W71459  39.492  17.789   0.484
 4677W        W71460  33.489  13.063   4.641
 4678W        W71461  41.216  28.028   2.111
 4679W        W71462  43.436  13.628   2.240
 4680W        W71463  14.725   1.495   1.731
 4681W        W71464  15.238   3.698  14.238
 4682W        W71465   3.124  44.282  14.829
 4683W        W71466  13.311   4.575  12.008
 4684W        W71467  33.463  18.785   2.009
 4685W        W71468  30.437  12.169   0.714
 4686W        W71469  39.940  24.227  12.887
 4687W        W71470  43.268  28.726  11.607
 4688W        W71471  20.071  29.818   4.314
 4689W        W71472  28.517   4.419   4.146
 4690W        W71473   0.511  33.100   1.814
 4691W        W71474   2.833  24.710   4.914
 4692W        W71475  27.169  39.378   4.375
 4693W        W71476  13.317   5.785   4.150
 4694W        W71477  35.918   8.733   4.188
 4695W        W71478   1.564   2.337  11.317
 4696W        W71479  37.694  23.908  11.910
 4697W        W71480  25.132  14.241   1.268
 4698W        W71481  32.886  34.961  10.637
 4699W        W71482   5.934   9.904   0.833
 4700W        W71483  35.289  29.894   3.059
 4701W        W71484  34.633  40.091  12.554
 4702W        W71485  23.699  19.592   1.782
 4703W        W71486   3.797  21.204  11.458
 4704W        W71487  38.885  40.875  13.335
 4705W        W71488  26.539  14.313  12.128
 4706W        W71489  17.544  15.014   1.820
 4707W        W71490  30.751   1.923   1.688
 4708W        W71491  34.669  11.806   3.188
 4709W        W71492   7.524   2.785  11.109
 4710W        W71493  10.402   0.227  10.851
 4711W        W71494  11.885  11.239   2.362
 4712W        W71495  38.057  13.896   2.707
 4713W        W71496  17.267   0.467   4.652
 4714W        W71497  42.038  22.472   1.917
 4715W        W71498  38.837   9.721  11.546
 4716W        W71499   9.731  35.479   2.730
 4717W        W71500   3.246  32.797   2.078
 4718W        W71501  43.745  23.126   1.727
 4719W        W71502  40.056   3.853   1.832
 4720W        W71503  15.100  11.855  10.644
 4721W        W71504  27.282   3.718   3.225
 4722W        W71505  25.156  10.306  13.553
 4723W        W71506   3.833  27.483  11.119
 4724W        W71507  18.337  28.062   1.651
 4725W        W71508  27.082  31.393  13.665
 4726W        W71509  39.504   5.818   1.466
 4727W        W71510   5.277  29.676  13.994
 4728W        W71511   2.835  35.347   4.810
 4729W        W71512   4.952  33.658   5.121
 4730W        W71513   3.475  23.045   0.322
 4731W        W71514  30.590  23.702  12.460
 4732W        W71515   5.986  33.476  10.608
 4733W        W71516  17.357  42.317  13.414
 4734W        W71517   5.315   0.050   4.208
 4735W        W71518  21.686  19.726   4.120
 4736W        W71519  24.899   5.789  14.258
 4737W        W71520  24.300  27.968  13.405
 4738W        W71521  28.214  10.960   0.921
 4739W        W71522   9.475   1.787   2.453
 4740W        W71523   3.165  16.645  14.827
 4741W        W71524   9.715  32.853   1.232
 4742W        W71525  11.083  40.807  10.802
 4743W        W71526  20.213   6.369   1.189
 4744W        W71527  11.645   6.718  10.765
 4745W        W71528  42.515  17.721   3.247
 4746W        W71529   3.030  42.742   2.257
 4747W        W71530  43.304  13.255   1.374
 4748W        W71531  24.361  35.535  14.771
 4749W        W71532   7.688  22.235  11.078
 4750W        W71533  15.703  30.095   0.776
 4751W        W71534  23.690  29.406   4.121
 4752W        W71535  35.482   0.208  13.108
 4753W        W71536  20.901  44.293   3.635
 4754W        W71537  15.767  16.228   3.820
 4755W        W71538  33.591   7.009  12.120
 4756W        W71539  42.799  14.732   3.667
 4757W        W71540   4.194  20.111   4.146
 4758W        W71541   0.240  34.985   4.770
 4759W        W71542  29.021  14.788  12.377
 4760W        W71543  41.096   9.139   0.747
 4761W        W71544  38.809  40.457   2.412
 4762W        W71545  37.575   8.283   3.683
 4763W        W71546   8.327  10.715  12.926
 4764W        W71547  17.754  34.530   1.084
 4765W        W71548  32.934  44.942  10.387
 4766W        W71549   1.511   4.639   1.659
 4767W        W71550   5.908  24.680   4.807
 4768W        W71551   6.359   8.691   9.988
 4769W        W71552  29.131  13.708  13.097
 4770W        W71553  12.039   3.861  13.859
 4771W        W71554   5.821  26.648   1.971
 4772W        W71555  32.981  21.766   2.402
 4773W        W71556  40.390  17.999  14.922
 4774W        W71557   1.737  19.675   3.711
 4775W        W71558  24.056   6.441   1.642
 4776W        W71559  40.443  19.743   3.689
 4777W        W71560  18.317  20.436   3.283
 4778W        W71561  41.382  10.325  10.696
 4779W        W71562   6.726  36.922  12.989
 4780W        W71563  22.992  22.623   1.303
 4781W        W71564  26.452  29.944  12.377
 4782W        W71565  37.559  27.174  11.529
 4783W        W71566   3.254  24.008   3.175
 4784W        W71567   0.940  29.458   3.098
 4785W        W71568  32.551   0.881   0.213
 4786W        W71569  28.559  21.010   3.343
 4787W        W71570  42.566  26.466   1.885
 4788W        W71571  23.057  29.627   0.975
 4789W        W71572   8.938  21.819   2.146
 4790W        W71573  40.109   2.859  11.036
 4791W        W71574  29.464  33.966   2.225
 4792W        W71575   7.228  30.211   2.808
 4793W        W71576  14.269   5.423   4.246
 4794W        W71577  18.042  22.074   3.172
 4795W        W71578  32.523  33.901  14.405
 4796W        W71579  35.731   3.350  13.844
 4797W        W71580  16.314  19.184  13.824
 4798W        W71581  33.466  24.675   1.716
 4799W        W71582  27.667  24.994  13.534
 4800W        W71583   7.305  17.556  12.892
 4801W        W71584  16.564  25.142  11.510
 4802W        W71585  16.282   6.939  14.340
 4803W        W71586   4.380   7.891   1.425
 4804W        W71587  23.828  37.071   0.647
 4805W        W71588  21.242  21.120  11.076
 4806W        W71589   0.408  19.171  14.807
 4807W        W71590  25.137  19.641   0.488
 4808W        W71591   8.943  22.292  12.169
 4809W        W71592  28.045  10.225  10.523
 4810W        W71593  21.169  12.105  10.669
 4811W        W71594  37.242  26.003  13.338
 4812W        W71595  20.839  13.285   0.457
 4813W        W71596  43.826  21.740  11.348
 4814W        W71597  44.774   8.202  14.387
 4815W        W71598  13.390  19.840   2.847
 4816W        W71599  32.357  25.086  14.204
 4817W        W71600  43.220  18.666  13.911
 4818W        W71601  20.341   2.200   4.097
 4819W        W71602  12.317  34.081   4.722
 4820W        W71603  32.091  21.308   1.363
 4821W        W71604   4.643  34.441   1.473
 4822W        W71605  28.219  24.162   1.865
 4823W        W71606  21.155   2.618  13.896
 4824W        W71607  15.706  29.148   4.664
 4825W        W71608  23.162  32.408   3.161
 4826W        W71609  23.010  27.198   3.421
 4827W        W71610   2.748  37.145  12.142
 4828W        W71611   3.975  32.070   3.146
 4829W        W71612  20.291  20.072  10.731
 4830W        W71613  19.262  21.067  12.147
 4831W        W71614  20.673  31.726   2.870
 4832W        W71615  21.302  37.722  10.264
 4833W        W71616  38.000  33.117  12.415
 4834W        W71617   2.369  40.708  12.096
 4835W        W71618  23.652   6.896  12.954
 4836W        W71619  11.766  35.001   3.201
 4837W        W71620  25.520  35.389   2.878
 4838W        W71621   7.989  11.348   4.622
 4839W        W71622  27.932  32.637  14.820
 4840W        W71623  24.111  26.587  12.141
 4841W        W71624  26.526  41.753   3.850
 4842W        W71625   7.364  32.758  10.724
 4843W        W71626  22.702  18.291   0.255
 4844W        W71627  14.323  32.470  12.346
 4845W        W71628  33.168  25.708  10.898
 4846W        W71629  16.211  27.108   2.939
 4847W        W71630  41.166  34.389   2.649
 4848W        W71631  40.780  19.624   4.225
 4849W        W71632  21.732  19.790   1.747
 4850W        W71633  18.221  15.725   3.114
 4851W        W71634  30.861  25.649   3.656
 4852W        W71635  25.996  36.732   1.807
 4853W        W71636  20.146  21.873  13.468
 4854W        W71637  24.463  24.689   0.797
 4855W        W71638  19.144  19.993  13.954
 4856W        W71639   7.239  37.788  11.133
 4857W        W71640  19.695  33.806   3.802
 4858W        W71641   0.474  15.265  13.912
 4859W        W71642  12.057  41.052   1.287
 4860W        W71643  41.550  16.113  10.873
 4861W        W71644  25.513  43.287  12.419
 4862W        W71645  35.962  44.745  14.466
 4863W        W71646   3.655  29.017   2.201
 4864W        W71647  11.054  12.716   1.644
 4865W        W71648   6.545  11.637   2.728
 4866W        W71649  32.676  33.647  14.847
 4867W        W71650  12.336   4.685  12.931
 4868W        W71651  22.204  35.388  10.450
 4869W        W71652  19.153  40.412   3.318
 4870W        W71653  38.783  21.161  10.627
 4871W        W71654  14.174   3.416  14.608
 4872W        W71655  35.814  25.529  11.393
 4873W        W71656  28.034  39.070  11.117
 4874W        W71657   8.209  14.295  11.408
 4875W        W71658  16.852  19.207   2.741
 4876W        W71659   5.541  33.127  11.002
 4877W        W71660  29.580   9.161   2.248
 4878W        W71661  27.621  37.790   4.467
 4879W        W71662  28.667  44.042  14.436
 4880W        W71663  20.205  28.498  12.545
 4881W        W71664  16.736   6.846  14.065
 4882W        W71665  15.174  25.991   2.174
 4883W        W71666  25.171   5.434   4.562
 4884W        W71667   6.724  26.898   3.718
 4885W        W71668   8.312  21.558   3.891
 4886W        W71669   6.715   7.900  13.331
 4887W        W71670  10.885   4.813  10.695
 4888W        W71671   5.895  22.719  12.813
 4889W        W71672  43.383   0.946  14.890
 4890W        W71673  31.147  17.279   3.650
 4891W        W71674  23.785   8.581   1.406
 4892W        W71675  20.063   3.665  11.628
 4893W        W71676  34.349  40.512  12.635
 4894W        W71677  20.277  30.071   0.196
 4895W        W71678   9.283  31.598  13.306
 4896W        W71679  25.079  18.028   4.736
 4897W        W71680  10.316  23.001  11.954
 4898W        W71681  16.621   2.302   1.221
 4899W        W71682   3.229  15.167  13.501
 4900W        W71683   0.258  35.857   1.281
 4901W        W71684   9.488  21.975  13.840
 4902W        W71685   1.301  21.743   0.768
 4903W        W71686  20.739   1.498  11.937
 4904W        W71687  27.975   3.375  10.355
 4905W        W71688   7.716  32.406  12.373
 4906W        W71689  22.490  21.387  12.981
 4907W        W71690  18.741  38.758  12.087
 4908W        W71691   3.837  42.699   1.770
 4909W        W71692  33.880  36.377   1.993
 4910W        W71693  38.380  13.144  13.973
 4911W        W71694  29.847  38.303  14.260
 4912W        W71695   1.931  34.252  11.540
 4913W        W71696  27.434   3.249   3.529
 4914W        W71697  10.394  26.638  11.820
 4915W        W71698   8.268  30.153  12.802
 4916W        W71699   3.609  29.635   3.623
 4917W        W71700   8.298  38.079  13.243
 4918W        W71701  27.285  44.853  14.011
 4919W        W71702  37.080  27.229  14.235
 4920W        W71703  17.075  43.236  11.108
 4921W        W71704   2.644   8.827   2.040
 4922W        W71705   0.546   3.299  13.443
 4923W        W71706  35.433  18.527   4.500
 4924W        W71707  13.725  15.067  14.558
 4925W        W71708  16.526  34.540   0.059
 4926W        W71709  42.945  30.876  13.845
 4927W        W71710  19.946   6.842  14.005
 4928W        W71711  27.162  42.559   0.465
 4929W        W71712  17.522   0.309  12.677
 4930W        W71713  28.199  16.729  10.855
 4931W        W71714  40.797  34.531  11.104
 4932W        W71715  37.849  32.492  14.495
 4933W        W71716  34.091  39.065  11.890
 4934W        W71717  12.213  18.994   2.760
 4935W        W71718  43.855   7.386   0.487
 4936W        W71719  33.941   5.807   1.051
 4937W        W71720  26.732   1.218  12.511
 4938W        W71721  28.995   8.178  12.644
 4939W        W71722  42.153  37.158  11.985
 4940W        W71723   0.270  11.745   1.650
 4941W        W71724  42.575  17.644  13.269
 4942W        W71725  12.830  33.567   4.088
 4943W        W71726   8.511  21.573  13.313
 4944W        W71727   4.729   2.816   3.136
 4945W        W71728  40.517  16.382  11.073
 4946W        W71729   1.999  43.834  14.506
 4947W        W71730   7.253  36.540   4.444
 4948W        W71731  22.692  16.882  10.747
 4949W        W71732  29.705  37.353   2.119
 4950W        W71733  27.139   8.400   1.885
 4951W        W71734  25.749  30.679  11.049
 4952W        W71735  30.269  33.363   0.338
 4953W        W71736  42.346  36.460   0.434
 4954W        W71737  21.858  25.307   4.593
 4955W        W71738   0.402  31.691  12.335
 4956W        W71739   9.848  43.949   2.766
 4957W        W71740  29.037  15.626   1.289
 4958W        W71741  26.676  33.565   0.294
 4959W        W71742  36.322  43.494  12.955
 4960W        W71743  21.765  28.946   3.947
 4961W        W71744  21.163  13.544   0.080
 4962W        W71745   0.774  28.024  13.125
 4963W        W71746  34.448  29.510   2.294
 4964W        W71747  18.138  24.118   2.831
 4965W        W71748  16.655  39.336  14.453
 4966W        W71749   6.841  26.046  10.677
 4967W        W71750  44.841  42.535  12.001
 4968W        W71751  43.501  18.137  13.864
 4969W        W71752  17.701  27.699   0.083
 4970W        W71753  33.483  30.207  11.549
 4971W        W71754  21.104  20.792  10.547
 4972W        W71755  25.086  42.927  11.262
 4973W        W71756  10.953  20.117   0.734
 4974W        W71757  30.116  42.793   2.614
 4975W        W71758  24.491   6.254  14.616
 4976W        W71759   0.611  30.857  12.022
 4977W        W71760  20.522  28.837  10.866
 4978W        W71761  42.571  16.730  11.192
 4979W        W71762  43.751  44.312   0.186
 4980W        W71763  16.049  29.678  10.650
 4981W        W71764  16.274  17.311   3.610
 4982W        W71765  30.574  15.585   0.170
 4983W        W71766  26.658  17.653  11.500
 4984W        W71767  18.498  37.900   4.928
 4985W        W71768  37.605  18.165  10.666
 4986W        W71769  20.809  31.416   0.447
 4987W        W71770  24.136  33.083   2.187
 4988W        W71771  16.598  12.342  14.295
 4989W        W71772  29.655  39.828  12.644
 4990W        W71773   0.925  19.232  14.854
 4991W        W71774  10.849  16.659   3.836
 4992W        W71775  30.338  16.182   1.774
 4993W        W71776   6.219   8.004   2.438
 4994W        W71777  29.922   1.784   1.322
 4995W        W71778   2.333  43.362   4.245
 4996W        W71779  26.924  12.112   2.859
 4997W        W71780  32.403  30.510  13.350
 4998W        W71781  30.387  34.015  12.109
 4999W        W71782  13.659  23.508  10.691
 5000W        W71783  32.530  28.389  14.952
 5001W        W71784  30.644  44.745   1.858
 5002W        W71785  32.745  23.762   3.088
 5003W        W71786   3.625  28.193   4.147
 5004W        W71787   8.955  14.181  11.302
 5005W        W71788  30.717   9.688  14.192
 5006W        W71789  16.046  22.439  13.485
 5007W        W71790   4.635  24.300  14.454
 5008W        W71791  38.917  25.100   5.292
 5009W        W71792  14.418   2.203   2.757
 5010W        W71793  20.583  14.672  11.143
 5011W        W71794  29.347  10.712   2.165
 5012W        W71795  16.655  31.144   3.169
 5013W        W71796  18.205  37.034   2.461
 5014W        W71797  21.838  22.331   3.813
 5015W        W71798  22.976   9.948  12.625
 5016W        W71799   6.835   8.796   2.831
 5017W        W71800   1.807  14.766  10.705
 5018W        W71801  25.021   0.721   4.098
 5019W        W71802  36.513  15.812   9.870
 5020W        W71803  27.935   1.338  12.885
 5021W        W71804  24.848  33.896  13.600
 5022W        W71805   4.755  38.879   4.658
 5023W        W71806   4.892  10.481  12.272
 5024W        W71807  42.768   0.312  11.884
 5025W        W71808  44.379  16.149   3.144
 5026W        W71809   2.801  36.361   3.376
 5027W        W71810   2.270   7.916  14.016
 5028W        W71811  43.441  19.655   3.111
 5029W        W71812   0.756   8.292  12.354
 5030W        W71813  11.653  31.274  12.909
 5031W        W71814   5.742  43.534   1.104
 5032W        W71815  35.089   3.232  12.216
 5033W        W71816  27.496   9.126   2.100
 5034W        W71817  36.372  42.578  11.633
 5035W        W71818   4.881  39.539  14.943
 5036W        W71819  29.891  12.731  12.030
 5037W        W71820   8.869  35.535   0.050
 5038W        W71821  29.487  32.931   0.379
 5039W        W71822  11.152  22.000   0.493
 5040W        W71823  28.675  36.882  13.956
 5041W        W71824  23.085  28.643   2.349
 5042W        W71825  12.541  33.292   1.403
 5043W        W71826  13.262  18.240   3.650
 5044W        W71827  37.857   1.503   3.807
 5045W        W71828   6.569  10.157   0.292
 5046W        W71829   8.120  20.764   2.713
 5047W        W71830  15.972   1.234   2.653
 5048W        W71831   0.426   8.341  11.449
 5049W        W71832  16.591  19.798  13.063
 5050W        W71833  42.437  15.809   3.520
 5051W        W71834  40.603   7.734   0.170
 5052W        W71835  44.201  38.807   4.065
 5053W        W71836   3.248  10.668  13.381
 5054W        W71837  20.507  17.588   0.447
 5055W        W71838  22.710  17.199  14.389
 5056W        W71839   7.133  30.493  13.931
 5057W        W71840  15.633  31.455   1.181
 5058W        W71841  40.396  23.954  12.947
 5059W        W71842  19.528  36.261   4.566
 5060W        W71843  14.283  40.949   5.423
 5061W        W71844  15.544  16.777  14.399
 5062W        W71845  30.214  42.186   9.976
 5063W        W71846  41.954  19.037   0.354
 5064W        W71847  36.306  24.668  11.940
 5065W        W71848  28.917   8.937   4.925
 5066W        W71849   5.992   3.375  12.897
 5067W        W71850  15.980  39.751   1.189
 5068W        W71851  25.962  25.013   0.521
 5069W        W71852  10.274   0.860  12.602
 5070W        W71853  23.236   1.852   3.658
 5071W        W71854  13.403  24.052  12.931
 5072W        W71855   2.380   3.754   2.309
 5073W        W71856  28.628  21.443   4.670
 5074W        W71857  29.094  11.058  13.346
 5075W        W71858  28.438  16.648  10.407
 5076W        W71859  35.347  23.240   3.080
 5077W        W71860  19.747  18.360   1.361
 5078W        W71861  11.542  24.928  12.425
 5079W        W71862   6.705  17.485  10.697
 5080W        W71863  40.000  29.129  12.347
 5081W        W71864  10.335  16.306   3.445
 5082W        W71865  24.359  24.200  11.532
 5083W        W71866  13.103  12.225  11.410
 5084W        W71867   0.469  21.674  12.563
 5085W        W71868  33.327  17.115  14.375
 5086W        W71869  30.738  28.483   0.541
 5087W        W71870  34.863  17.441   0.727
 5088W        W71871  10.257   0.727   4.078
 5089W        W71872  42.450  32.564   1.786
 5090W        W71873  43.472  24.657   1.489
 5091W        W71874   9.309  37.825   1.086
 5092W        W71875  43.980   0.548  10.667
 5093W        W71876  14.709  25.031  14.598
 5094W        W71877  19.497   4.675   0.387
 5095W        W71878   2.703  35.232  14.361
 5096W        W71879  26.224   7.801   4.517
 5097W        W71880  41.533  28.041   3.694
 5098W        W71881  30.226  28.853  14.958
 5099W        W71882  10.312  12.332   3.179
 5100W        W71883  19.913   3.480  11.150
 5101W        W71884  40.826  16.677   3.667
 5102W        W71885   7.255  43.232  14.857
 5103W        W71886  12.372  28.901   0.737
 5104W        W71887  31.514  43.865  13.543
 5105W        W71888   6.830  29.415   1.263
 5106W        W71889   7.214  23.459   2.161
 5107W        W71890  41.808  36.843  10.486
 5108W        W71891  10.770  10.864   4.116
 5109W        W71892  23.177   5.375   4.465
 5110W        W71893  36.513   2.936  12.898
 5111W        W71894  15.643  37.976   0.895
 5112W        W71895  26.620   3.982  14.959
 5113W        W71896  42.377  38.581   3.893
 5114W        W71897  10.240  19.568  11.130
 5115W        W71898  29.791  18.287  12.850
 5116W        W71899  15.767  25.024   3.509
 5117W        W71900  39.910  29.642  13.830
 5118W        W71901  18.118  11.683  14.802
 5119W        W71902  26.406  13.454  12.388
 5120W        W71903  21.638  42.437   4.632
 5121W        W71904  39.501   3.337   2.479
 5122W        W71905  34.319  11.409   3.241
 5123W        W71906  17.774   4.288   2.653
 5124W        W71907  42.305   0.922  14.577
 5125W        W71908  25.410  36.280  11.909
 5126W        W71909  15.167   1.765  14.776
 5127W        W71910   6.751   1.186  11.062
 5128W        W71911  18.300   8.866   4.543
 5129W        W71912   0.993  29.729   0.920
 5130W        W71913  41.418  11.255   4.138
 5131W        W71914  31.367   9.310   1.248
 5132W        W71915  13.039   6.139   0.410
 5133W        W71916   8.282   8.848   2.818
 5134W        W71917   0.073  16.068   1.213
 5135W        W71918   8.308   6.921   4.847
 5136W        W71919   4.501  16.523  14.425
 5137W        W71920  17.969   5.886   1.407
 5138W        W71921  30.454  12.743  14.764
 5139W        W71922  33.429  35.914   0.259
 5140W        W71923  19.185   1.358   0.474
 5141W        W71924  26.289  16.010   1.396
 5142W        W71925  22.055  20.770   3.244
 5143W        W71926   2.371  24.551  12.156
 5144W        W71927   4.412  37.267   2.299
 5145W        W71928  27.052  37.100  12.493
 5146W        W71929  22.598  30.712  14.867
 5147W        W71930   1.027   5.274   4.725
 5148W        W71931  16.658  23.718  12.347
 5149W        W71932  26.456  30.479   2.993
 5150W        W71933  11.240   7.793   4.077
 5151W        W71934  26.025   1.725   0.762
 5152W        W71935  24.134   9.822   0.961
 5153W        W71936   0.733  41.089  12.472
 5154W        W71937  16.335   1.818   4.335
 5155W        W71938   5.248   7.833  14.839
 5156W        W71939  14.689  32.383  11.967
 5157W        W71940  22.332  27.920   5.250
 5158W        W71941  41.953  33.637   3.233
 5159W        W71942  32.700  39.054   0.972
 5160W        W71943  13.530  22.187   4.657
 5161W        W71944  12.147  31.928   3.748
 5162W        W71945   0.673  20.315  11.193
 5163W        W71946  43.519  19.525  11.665
 5164W        W71947  39.614  42.799  12.841
 5165W        W71948  44.440  31.519   1.913
 5166W        W71949  21.637   3.011   1.402
 5167W        W71950   9.108  28.439  12.497
 5168W        W71951  33.424  16.228  10.499
 5169W        W71952  16.027  33.517  12.571
 5170W        W71953  27.447  15.101  14.365
 5171W        W71954  17.680  20.582   1.855
 5172W        W71955  22.591  31.980   1.837
 5173W        W71956  27.124  18.638  14.175
 5174W        W71957  14.630   8.603  10.121
 5175W        W71958  15.222  23.584  10.643
 5176W        W71959  35.573  16.406   2.720
 5177W        W71960  26.224  38.882   4.927
 5178W        W71961  30.624  39.791  11.140
 5179W        W71962  21.107  25.603  10.749
 5180W        W71963  26.647  12.847   1.467
 5181W        W71964  12.198   4.071  14.789
 5182W        W71965   5.819  22.073   3.206
 5183W        W71966  24.249  37.817   1.357
 5184W        W71967   5.356  19.469   1.459
 5185W        W71968  42.367  28.070  14.358
 5186W        W71969  15.409  39.385   4.565
 5187W        W71970  25.631   4.730  11.347
 5188W        W71971   6.893  40.566   1.829
 5189W        W71972   9.332   5.157   0.848
 5190W        W71973   8.756  33.695   4.286
 5191W        W71974  39.072  11.665   3.618
 5192W        W71975  43.333  38.234  12.861
 5193W        W71976  18.698  11.372   2.795
 5194W        W71977  27.477  31.056  14.447
 5195W        W71978  11.428  42.994  13.439
 5196W        W71979  38.327  35.089   0.397
 5197W        W71980  13.784   2.526   4.295
 5198W        W71981  29.090  14.777  14.923
 5199W        W71982  18.640  21.729   1.524
 5200W        W71983  33.414  34.415  14.950
 5201W        W71984  28.076  21.103   3.558
 5202W        W71985  32.499   7.086   5.148
 5203W        W71986  14.517  42.627  11.415
 5204W        W71987  17.325  30.180  13.507
 5205W        W71988  19.312  14.583  11.596
 5206W        W71989  25.723  43.944  14.057
 5207W        W71990  22.126  28.535  11.496
 5208W        W71991  33.374  13.727   1.496
 5209W        W71992  28.158  17.235  14.801
 5210W        W71993  37.866  40.843  12.970
 5211W        W71994  16.733  21.695   3.172
 5212W        W71995  40.385  22.939  12.888
 5213W        W71996  10.016  19.060  14.239
 5214W        W71997  33.460  26.780   3.608
 5215W        W71998  22.502  28.232  14.560
 5216W        W71999  27.497   3.366   0.297
 5217W        W72000   1.972  28.168  11.116
 5218W        W72001   4.760  29.046   5.020
 5219W        W72002  27.693  42.450   1.411
 5220W        W72003  40.301  17.615   4.742
 5221W        W72004  18.794  24.762   0.835
 5222W        W72005   1.014  32.468  12.319
 5223W        W72006   2.724  41.206  14.997
 5224W        W72007  17.559  29.354   1.772
 5225W        W72008  10.468  30.488   3.941
 5226W        W72009  36.792   0.196   4.912
 5227W        W72010  25.257  35.019   3.816
 5228W        W72011  25.514  16.372  10.539
 5229W        W72012  16.072   4.874  13.163
 5230W        W72013  31.076  27.602  14.694
 5231W        W72014  19.726  20.370   3.259
 5232W        W72015  18.132  31.949  13.341
 5233W        W72016  44.055  40.262  10.574
 5234W        W72017  18.616   2.716  13.483
 5235W        W72018  14.468   9.186  11.596
 5236W        W72019   9.545  39.931   3.636
 5237W        W72020  20.991  33.144   5.472
 5238W        W72021  22.381  27.802   4.136
 5239W        W72022  14.792  20.710   0.949
 5240W        W72023  14.387  25.687   4.146
 5241W        W72024   0.048  14.027   5.024
 5242W        W72025   2.203   0.875   4.877
 5243W        W72026   4.147  13.843  14.177
 5244W        W72027  18.611  29.955  11.529
 5245W        W72028  30.721  41.557  13.821
 5246W        W72029  11.376   4.487  11.455
 5247W        W72030  42.518  28.559  11.221
 5248W        W72031   4.929  22.183   3.259
 5249W        W72032   1.927  33.968   0.225
 5250W        W72033  16.643  17.935   4.306
 5251W        W72034  33.788  43.301  11.106
 5252W        W72035  33.209  41.435  11.056
 5253W        W72036   5.432  21.482  11.090
 5254W        W72037  28.285  36.301   3.194
 5255W        W72038  30.050  41.808   0.704
 5256W        W72039  18.619   4.451   2.128
 5257W        W72040  34.849  40.105  14.420
 5258W        W72041   3.492   7.409  14.832
 5259W        W72042  36.535   9.023  13.188
 5260W        W72043  11.250  24.561   1.451
 5261W        W72044  23.758  40.150  11.075
 5262W        W72045  42.944   0.270   1.180
 5263W        W72046  41.963   2.400   4.572
 5264W        W72047  33.587   1.509  12.457
 5265W        W72048   9.763  13.431   2.868
 5266W        W72049  26.312  23.390  14.271
 5267W        W72050  10.460  37.019   3.168
 5268W        W72051  24.581   7.373  13.224
 5269W        W72052  15.590  25.998  13.894
 5270W        W72053  19.341  38.537   3.224
 5271W        W72054   7.342  43.701   0.216
 5272W        W72055  11.834   1.468   0.047
 5273W        W72056  11.568  21.196  13.370
 5274W        W72057  39.339  29.007   4.268
 5275W        W72058  11.702   7.688  14.864
 5276W        W72059  16.783  42.816  11.021
 5277W        W72060  23.027  33.492  14.022
 5278W        W72061  21.746  41.005   3.534
 5279W        W72062   1.885  21.417   3.642
 5280W        W72063   6.866  22.540   0.208
 5281W        W72064  12.623  19.347  12.776
 5282W        W72065  30.023  25.030   0.893
 5283W        W72066  22.185  13.690   2.837
 5284W        W72067  20.995  18.481  13.564
 5285W        W72068   7.206  36.878  11.678
 5286W        W72069  16.542  43.278   1.520
 5287W        W72070  23.478   2.494   1.328
 5288W        W72071   2.676  30.815   1.814
 5289W        W72072   2.693  37.554  14.070
 5290W        W72073  18.675  19.610  10.893
 5291W        W72074  33.952   5.435  10.939
 5292W        W72075  17.148  40.156  13.432
 5293W        W72076  41.147  37.436   1.997
 5294W        W72077  21.516  16.870  10.196
 5295W        W72078  21.690  23.661   4.534
 5296W        W72079   4.315  21.614  12.520
 5297W        W72080  34.031  17.201  13.611
 5298W        W72081  16.047  20.657   0.457
 5299W        W72082   8.716  34.567   2.196
 5300W        W72083   4.752  31.523   0.903
 5301W        W72084  38.971  15.345  10.745
 5302W        W72085  17.305  33.503   3.585
 5303W        W72086  43.389  20.678   3.214
 5304W        W72087  15.347   9.369   3.740
 5305W        W72088  17.684  31.663   0.637
 5306W        W72089  37.966  27.090   1.765
 5307W        W72090  31.435  27.646  10.705
 5308W        W72091  33.833   3.590  10.991
 5309W        W72092  17.286   6.401  14.943
 5310W        W72093  26.212  22.072   0.998
 5311W        W72094  35.396  28.166  13.036
 5312W        W72095   5.623  41.226  11.061
 5313W        W72096  23.751  20.246  13.278
 5314W        W72097  28.556   3.652  12.582
 5315W        W72098   2.087  15.617   0.803
 5316W        W72099  30.641  33.133  12.320
 5317W        W72100   1.647   0.126   0.288
 5318W        W72101   0.760  16.607   0.630
 5319W        W72102   4.339  25.127  12.418
 5320W        W72103  36.487  24.237   0.892
 5321W        W72104  28.184   7.116   4.004
 5322W        W72105  43.862  37.934  12.110
 5323W        W72106   9.616  33.364   1.262
 5324W        W72107  23.552  40.512   2.154
 5325W        W72108  37.853   1.056  14.824
 5326W        W72109  39.914   7.556   4.667
 5327W        W72110  31.908   1.396   0.524
 5328W        W72111  33.055  30.515   4.125
 5329W        W72112   3.745  40.103  13.846
 5330W        W72113   8.426  25.135   5.055
 5331W        W72114   6.900   0.893  14.525
 5332W        W72115  11.156  15.066   1.599
 5333W        W72116  30.925  20.677  14.164
 5334W        W72117   7.965  38.565   1.037
 5335W        W72118   1.483   7.767  11.353
 5336W        W72119  28.014  20.196   3.076
 5337W        W72120  24.219  25.645   2.646
 5338W        W72121   6.464   2.198  14.919
 5339W        W72122  15.617  15.597   3.273
 5340W        W72123  39.338   1.967   1.912
 5341W        W72124  18.034  17.857   1.439
 5342W        W72125   6.696   5.741   0.979
 5343W        W72126  36.934  26.993  10.810
 5344W        W72127  18.460  38.768   3.694
 5345W        W72128  36.432  44.949   0.353
 5346W        W72129  24.063  24.661  11.944
 5347W        W72130  23.043  28.565  14.915
 5348W        W72131  29.189  23.049   3.308
 5349W        W72132  30.051  15.850  11.546
 5350W        W72133  12.410  12.316   4.211
 5351W        W72134  37.302  33.058   1.811
 5352W        W72135  31.640  44.438  12.070
 5353W        W72136  25.970  36.001   3.707
 5354W        W72137  16.397  32.007  14.018
 5355W        W72138  41.800  41.336  10.324
 5356W        W72139  41.417  36.381  13.136
 5357W        W72140  41.897  16.844   2.153
 5358W        W72141  33.966  14.715   0.413
 5359W        W72142   5.902  11.338  11.862
 5360W        W72143   6.488  26.589  11.407
 5361W        W72144  34.538   6.606  13.666
 5362W        W72145  26.787  39.275   4.698
 5363W        W72146   2.927  19.810  13.789
 5364W        W72147  19.219  32.359   2.701
 5365W        W72148  28.296  13.228  10.780
 5366W        W72149  13.959   7.169   5.111
 5367W        W72150   0.842   2.994   4.815
 5368W        W72151  22.758  41.832   0.974
 5369W        W72152  11.118  43.404   1.864
 5370W        W72153  26.035  14.839   2.229
 5371W        W72154   5.784  44.625   0.812
 5372W        W72155  34.173  44.352   4.924
 5373W        W72156   7.917  36.756   0.074
 5374W        W72157  37.740   8.315   4.836
 5375W        W72158  43.548  44.372  13.819
 5376W        W72159   1.601  30.396   4.071
 5377W        W72160  31.053  16.824   3.451
 5378W        W72161  18.453  40.760   1.724
 5379W        W72162  36.637  44.809  10.871
 5380W        W72163  15.438  39.045   3.218
 5381W        W72164   3.661  36.416  13.999
 5382W        W72165  40.308  34.698  14.864
 5383W        W72166   4.472  14.318   4.564
 5384W        W72167  19.683  13.995   2.758
 5385W        W72168  28.364  25.570  10.934
 5386W        W72169   8.546  29.480   1.888
 5387W        W72170   5.708  43.346   1.615
 5388W        W72171   0.588  19.889   0.451
 5389W        W72172  42.334  28.518   2.750
 5390W        W72173  32.206  32.678   2.990
 5391W        W72174  21.595  44.645  12.347
 5392W        W72175   8.599  14.652   1.267
 5393W        W72176  35.085  28.043  13.482
 5394W        W72177  20.204  14.178  11.590
 5395W        W72178   1.177  13.828  12.490
 5396W        W72179  26.909  20.638  14.232
 5397W        W72180  43.180  42.451   1.714
 5398W        W72181   9.415   2.404   4.030
 5399W        W72182  11.154  24.933   0.291
 5400W        W72183  44.055  43.732  10.912
 5401W        W72184  28.252  22.006   0.863
 5402W        W72185   0.380  13.553  13.189
 5403W        W72186  24.453   8.363   2.655
 5404W        W72187  17.845  16.159  13.496
 5405W        W72188  15.681  40.127  14.160
 5406W        W72189  36.839  34.842   3.274
 5407W        W72190   4.762   3.005   0.434
 5408W        W72191  26.403  20.769   4.294
 5409W        W72192  21.110  44.924  10.637
 5410W        W72193  33.076  27.006   2.684
 5411W        W72194  35.337   3.723  12.804
 5412W        W72195  10.809  27.964   2.630
 5413W        W72196  43.184  18.723  11.904
 5414W        W72197  27.992  19.860   0.311
 5415W        W72198  40.089   9.253  10.722
 5416W        W72199  37.756  29.957  12.545
 5417W        W72200  26.768  13.596   4.311
 5418W        W72201  32.230   4.685  12.412
 5419W        W72202  37.776   8.718   0.916
 5420W        W72203  31.404  12.152   0.961
 5421W        W72204  31.256   2.378   1.347
 5422W        W72205  18.034  15.808   2.092
 5423W        W72206   5.436  14.528   4.295
 5424W        W72207  24.435  41.396   0.942
 5425W        W72208  22.658  21.074   3.178
 5426W        W72209  17.888  44.621   0.432
 5427W        W72210   4.719  38.316  11.640
 5428W        W72211  43.443  10.979   0.214
 5429W        W72212   5.272  17.323   3.270
 5430W        W72213  14.163   5.786   0.742
 5431W        W72214  20.244  29.466  10.676
 5432W        W72215   8.323  26.697  11.000
 5433W        W72216  39.354  38.983  13.347
 5434W        W72217  23.830  29.611  10.252
 5435W        W72218   2.974  21.578   0.703
 5436W        W72219  17.718   0.851  11.873
 5437W        W72220   0.952  37.937  12.645
 5438W        W72221  18.731  18.406   1.767
 5439W        W72222  22.172  14.375  10.636
 5440W        W72223   5.720  31.063   2.509
 5441W        W72224  34.575   9.834   9.758
 5442W        W72225  33.900  23.070   1.960
 5443W        W72226  13.350   0.798  12.404
 5444W        W72227  43.065   8.855  12.940
 5445W        W72228  11.209  27.834  11.203
 5446W        W72229  37.206  22.575   4.540
 5447W        W72230   3.213  38.999   0.463
 5448W        W72231  12.880   6.280  11.996
 5449W        W72232  24.428  23.103  11.086
 5450W        W72233  37.721   9.548   4.910
 5451W        W72234   0.302  18.108  12.503
 5452W        W72235   0.922  21.260  13.217
 5453W        W72236  16.798  41.916   1.840
 5454W        W72237  11.400   6.296  13.858
 5455W        W72238  12.347  35.860  12.049
 5456W        W72239   7.137  35.625   1.165
 5457W        W72240   9.206  34.510  11.645
 5458W        W72241  23.756  18.319  12.585
 5459W        W72242   7.855  28.030  12.078
 5460W        W72243  10.184  17.162   0.883
 5461W        W72244  33.885  41.519   1.218
 5462W        W72245  31.586  33.408   0.868
 5463W        W72246   3.255  16.315  11.614
 5464W        W72247   0.531  24.227  11.093
 5465W        W72248  43.242  23.574   2.960
 5466W        W72249  40.838  37.872  11.230
 5467W        W72250  21.500  40.834   0.724
 5468W        W72251  14.752  11.678   4.728
 5469W        W72252  42.502  31.775   1.377
 5470W        W72253  41.414  10.660  13.560
 5471W        W72254  21.189  22.759   4.375
 5472W        W72255   5.023  42.886   2.708
 5473W        W72256  12.133   7.130   0.672
 5474W        W72257  13.886  44.304  13.031
 5475W        W72258  21.531  33.979   1.698
 5476W        W72259  41.668  27.858  13.897
 5477W        W72260  15.836   6.129   3.790
 5478W        W72261  30.512  27.083  11.182
 5479W        W72262  38.529  10.100  14.314
 5480W        W72263  44.448  36.875  13.975
 5481W        W72264  40.535  10.401  10.357
 5482W        W72265  16.260  21.135  12.025
 5483W        W72266  42.856  21.428   4.134
 5484W        W72267  38.312  28.295   4.069
 5485W        W72268   9.170  24.025   0.256
 5486W        W72269   8.765  12.384   4.680
 5487W        W72270  16.307  22.047  13.291
 5488W        W72271  36.717  15.176   1.943
 5489W        W72272  30.535  16.511  12.178
 5490W        W72273  16.271  42.923   5.124
 5491W        W72274  41.060  25.480  14.967
 5492W        W72275  42.321  22.015   1.847
 5493W        W72276  30.983  21.506   2.690
 5494W        W72277  21.511  31.950  14.370
 5495W        W72278  39.002  16.534   2.259
 5496W        W72279   9.738  36.345  12.002
 5497W        W72280  36.748  14.813  12.202
 5498W        W72281  12.296  25.525  13.603
 5499W        W72282  31.207  25.987   2.791
 5500W        W72283   6.644  11.139   4.174
 5501W        W72284  44.036   7.745   1.795
 5502W        W72285  44.719   6.891  14.986
 5503W        W72286  38.811  42.498   2.083
 5504W        W72287  31.145  42.966  13.003
 5505W        W72288   1.043  34.054  12.514
 5506W        W72289  24.165  29.905   4.439
 5507W        W72290  38.092   3.430  12.493
 5508W        W72291  43.019  40.551  14.928
 5509W        W72292  29.478  36.089   3.842
 5510W        W72293  19.526  15.307   3.077
 5511W        W72294   4.225  42.777  10.120
 5512W        W72295  17.839  44.386   4.905
 5513W        W72296  24.181  18.191   4.214
 5514W        W72297  26.673  41.065   1.332
 5515W        W72298  31.476  14.804  13.896
 5516W        W72299  20.633  35.919   0.458
 5517W        W72300   1.924  18.666   1.160
 5518W        W72301  16.068  34.427  12.435
 5519W        W72302  12.601  35.392   3.547
 5520W        W72303  19.478   5.721  14.866
 5521W        W72304  14.675  11.825   2.441
 5522W        W72305  17.045   9.294   2.270
 5523W        W72306   8.919  18.155   0.382
 5524W        W72307   4.794  26.972   2.425
 5525W        W72308  39.278  21.280  13.961
 5526W        W72309  15.266  18.096   1.196
 5527W        W72310  11.828   7.416   2.478
 5528W        W72311  31.406   7.565  11.196
 5529W        W72312   8.219  22.087  12.442
 5530W        W72313  39.989  14.265   0.859
 5531W        W72314  22.436  44.825   1.487
 5532W        W72315   1.858  13.290  14.103
 5533W        W72316  28.356  30.568  12.517
 5534W        W72317  42.782   9.298   1.677
 5535W        W72318  17.836  44.229   4.071
 5536W        W72319  28.599   3.970  11.693
 5537W        W72320  44.193  29.119  13.656
 5538W        W72321  37.773  17.640  11.045
 5539W        W72322  38.469  44.045   4.207
 5540W        W72323  12.856  21.660  13.053
 5541W        W72324   8.684  14.614   4.140
 5542W        W72325  22.267  15.897  14.508
 5543W        W72326  29.984  26.548   1.257
 5544W        W72327   0.321  38.622  11.334
 5545W        W72328   8.137  27.458  14.042
 5546W        W72329  21.194   6.938  14.836
 5547W        W72330  42.609  41.903   3.418
 5548W        W72331  19.266  15.036  12.344
 5549W        W72332  22.657  14.644   4.056
 5550W        W72333  21.447  20.671  13.829
 5551W        W72334  39.882  21.939   0.809
 5552W        W72335  23.424  24.074   1.268
 5553W        W72336   4.678  25.343   1.273
 5554W        W72337  41.713   4.139  12.373
 5555W        W72338  29.463  10.631   3.085
 5556W        W72339   4.934   3.761  11.634
 5557W        W72340  25.778  34.889   3.642
 5558W        W72341  36.144  18.787   0.812
 5559W        W72342   3.989  20.632   0.272
 5560W        W72343   4.925  12.876  13.831
 5561W        W72344  42.073  11.115   0.755
 5562W        W72345  18.283  40.480  10.962
 5563W        W72346   5.629  41.765   3.052
 5564W        W72347  25.301  41.902   4.867
 5565W        W72348   1.357   5.832   1.192
 5566W        W72349  10.515  41.354  14.428
 5567W        W72350   7.297  24.325  11.157
 5568W        W72351  42.021  44.270  11.188
 5569W        W72352  40.812  18.792   1.693
 5570W        W72353  35.958  17.236  11.060
 5571W        W72354   0.657  27.066  13.024
 5572W        W72355   2.655  24.599  11.610
 5573W        W72356  44.833   3.753   2.668
 5574W        W72357  36.037  38.070  12.674
 5575W        W72358   7.923  27.070  12.225
 5576W        W72359  12.817   7.271  13.525
 5577W        W72360  19.877  18.109  13.850
 5578W        W72361  13.205  26.005   2.797
 5579W        W72362  24.976  39.401  11.551
 5580W        W72363   9.832   2.146  11.960
 5581W        W72364  36.351  37.953  11.950
 5582W        W72365  28.010   8.935   3.797
 5583W        W72366  30.454   4.756  11.465
 5584W        W72367   2.002  24.046   0.818
 5585W        W72368  13.789  40.044  14.896
 5586W        W72369  17.592  17.216  14.577
 5587W        W72370   4.517   9.531   2.693
 5588W        W72371  38.469  17.299  11.975
 5589W        W72372  27.405  22.837  11.505
 5590W        W72373  24.553  13.930  14.466
 5591W        W72374  31.271  39.619  11.166
 5592W        W72375  41.426   7.306  10.642
 5593W        W72376   3.276  33.973   4.699
 5594W        W72377   7.858  26.796  13.137
 5595W        W72378  23.084  16.684   4.576
 5596W        W72379  20.435  39.120   1.752
 5597W        W72380   9.095   3.969   2.464
 5598W        W72381  22.298  43.943  13.031
 5599W        W72382  40.820  25.213   2.723
 5600W        W72383  16.575  19.625   4.606
 5601W        W72384  42.492  15.127  13.380
 5602W        W72385  27.524  11.406  11.669
 5603W        W72386  26.539   3.829  12.586
 5604W        W72387   7.172  19.509   3.294
 5605W        W72388  41.128  21.948  13.500
 5606W        W72389   2.911  25.260   4.111
 5607W        W72390  38.103   9.896  13.382
 5608W        W72391   8.715  29.582  10.741
 5609W        W72392  31.393  41.776  14.894
 5610W        W72393   3.336  19.894  10.241
 5611W        W72394  32.982  44.975  13.491
 5612W        W72395  18.067  34.320   4.077
 5613W        W72396  30.949   1.046  13.358
 5614W        W72397  36.823   8.509   0.964
 5615W        W72398  11.958  17.110  14.324
 5616W        W72399  44.047  22.534   4.301
 5617W        W72400  10.272  44.734  12.444
 5618W        W72401  32.883  15.891  14.409
 5619W        W72402   8.362  10.759  10.959
 5620W        W72403   1.857  21.974   4.860
 5621W        W72404  19.606  15.649  14.721
 5622W        W72405  27.555  18.041   0.128
 5623W        W72406  16.211  20.222   1.731
 5624W        W72407  12.691   0.250  12.598
 5625W        W72408   3.371  18.137  13.557
 5626W        W72409  14.051   7.821  10.533
 5627W        W72410   3.426  17.785   2.392
 5628W        W72411  26.257  44.461  12.789
 5629W        W72412   6.520   0.914  10.666
 5630W        W72413   6.273  44.839   3.216
 5631W        W72414  18.113  32.317   1.527
 5632W        W72415  41.302   1.760   2.468
 5633W        W72416  29.590  40.592  12.145
 5634W        W72417  11.645   3.536  13.782
 5635W        W72418  28.542  22.376   2.265
 5636W        W72419  13.119  28.377   1.291
 5637W        W72420  36.432  20.778  10.406
 5638W        W72421   6.242  37.337   4.150
 5639W        W72422  20.079   1.505   0.481
 5640W        W72423  18.978   5.617  14.865
 5641W        W72424  28.183  33.071   4.292
 5642W        W72425  13.294  14.687  11.206
 5643W        W72426  43.264   0.940  12.960
 5644W        W72427  40.980  11.569  14.949
 5645W        W72428  29.001   4.934  11.185
 5646W        W72429  21.471  11.282   2.310
 5647W        W72430  25.627   4.850   3.475
 5648W        W72431  32.839  27.267   0.135
 5649W        W72432  19.589  39.502  14.272
 5650W        W72433   0.021  44.889  11.543
 5651W        W72434  41.182  31.906   3.972
 5652W        W72435  19.698  14.782  11.875
 5653W        W72436   6.412  19.350  13.928
 5654W        W72437  39.356  30.926   2.781
 5655W        W72438  34.378  42.748   1.016
 5656W        W72439   2.721  41.858  10.985
 5657W        W72440  17.068  11.009  10.786
 5658W        W72441  17.694  30.056   2.892
 5659W        W72442  29.949  42.543  14.298
 5660W        W72443   0.289  14.824   1.832
 5661W        W72444  41.811   2.507   0.919
 5662W        W72445  37.059  39.742  14.710
 5663W        W72446  40.513  17.646   0.389
 5664W        W72447  26.533  29.463   4.144
 5665W        W72448  38.618  32.784  12.375
 5666W        W72449  40.499  27.486   4.821
 5667W        W72450  24.448  35.045   4.539
 5668W        W72451  41.035  19.548   2.190
 5669W        W72452  20.807   7.799   3.621
 5670W        W72453  38.324  39.012  14.012
 5671W        W72454  35.309  38.535   4.414
 5672W        W72455  21.588   6.441   1.380
 5673W        W72456  11.781  12.682   1.002
 5674W        W72457   6.938  10.198   4.159
 5675W        W72458  44.229  34.048   1.401
 5676W        W72459  18.666  10.337  11.936
 5677W        W72460  42.800  43.240  14.965
 5678W        W72461  42.303   1.167   0.769
 5679W        W72462  19.000  22.253   4.356
 5680W        W72463  20.377  16.747  11.965
 5681W        W72464   4.383   0.546   3.732
 5682W        W72465  20.469   5.369  12.232
 5683W        W72466  10.876  40.860  14.339
 5684W        W72467  41.265  19.204  13.524
 5685W        W72468  18.240   7.680   2.352
 5686W        W72469  28.542   7.350   3.018
 5687W        W72470  19.530  33.811   0.274
 5688W        W72471  37.092  19.017   4.123
 5689W        W72472   2.539  18.159  10.779
 5690W        W72473  15.743  36.290   2.877
 5691W        W72474  28.004  41.410   2.611
 5692W        W72475  43.611   5.893   1.446
 5693W        W72476  33.331   5.437   1.465
 5694W        W72477  15.691   3.386   3.624
 5695W        W72478  17.052  35.780   2.106
 5696W        W72479  29.683  23.718  10.925
 5697W        W72480  29.568  29.883  11.628
 5698W        W72481  17.437   4.901   9.949
 5699W        W72482  19.258   3.977  14.368
 5700W        W72483  41.091  23.771  12.206
 5701W        W72484  22.138  14.686  14.849
 5702W        W72485  12.068  25.145  11.532
 5703W        W72486  23.931  42.988  14.743
 5704W        W72487  30.571   0.422  14.819
 5705W        W72488   3.351   5.663   0.297
 5706W        W72489  10.633  26.682   0.237
 5707W        W72490  39.784  14.654   2.766
 5708W        W72491  25.208   1.031   1.227
 5709W        W72492  24.177  23.141   3.922
 5710W        W72493  12.427  21.583   0.261
 5711W        W72494   3.375  16.916  12.996
 5712W        W72495   5.714   7.254   3.698
 5713W        W72496  39.087  25.030   0.901
 5714W        W72497   6.418  27.593  13.972
 5715W        W72498   1.718  36.946  11.063
 5716W        W72499  38.836  20.082   2.017
 5717W        W72500  15.041  38.187   3.334
 5718W        W72501  41.976  39.079  12.950
 5719W        W72502  11.742  26.464  10.247
 5720W        W72503   5.796   9.384   4.444
 5721W        W72504  44.574  16.535   2.391
 5722W        W72505  19.206  20.564   3.069
 5723W        W72506  30.661  17.612  14.348
 5724W        W72507  19.815  44.694   2.822
 5725W        W72508  32.990  17.712  10.409
 5726W        W72509  21.035  35.389  11.058
 5727W        W72510  42.344  23.157   3.914
 5728W        W72511  25.162  36.028  12.881
 5729W        W72512   5.649  28.756   1.072
 5730W        W72513  15.640  13.647  12.418
 5731W        W72514  21.441   1.886   4.155
 5732W        W72515  43.230  34.493   0.263
 5733W        W72516  30.163   2.815   3.870
 5734W        W72517  27.227  17.558   0.726
 5735W        W72518  17.361  37.815   0.998
 5736W        W72519  36.124  15.593   3.796
 5737W        W72520  33.035  31.636  10.596
 5738W        W72521  15.717  36.620  12.558
 5739W        W72522  27.063  39.051   3.922
 5740W        W72523  34.234  31.480   4.598
 5741W        W72524  25.605  37.317  10.258
 5742W        W72525  31.955   4.650   2.834
 5743W        W72526   0.510  26.120   5.077
 5744W        W72527  30.942  20.196  13.574
 5745W        W72528   9.640  30.034   0.952
 5746W        W72529  16.547  19.850   0.295
 5747W        W72530   3.229   0.996   4.377
 5748W        W72531  44.948   3.059   0.513
 5749W        W72532  19.391  26.468  14.747
 5750W        W72533  20.226   6.860   1.370
 5751W        W72534  31.733  38.508  12.246
 5752W        W72535  37.058  39.531   4.642
 5753W        W72536  42.337  30.063   3.129
 5754W        W72537   3.820  20.202  12.761
 5755W        W72538  36.304  42.198  11.299
 5756W        W72539  38.330  11.384  12.023
 5757W        W72540   5.287  36.335  10.656
 5758W        W72541  24.701   8.302   4.131
 5759W        W72542  31.824  39.775  13.726
 5760W        W72543  20.580  24.592  10.720
 5761W        W72544   7.707  16.083  11.623
 5762W        W72545  19.235   1.555   2.296
 5763W        W72546   5.818   3.250   4.619
 5764W        W72547  13.614  41.322   4.666
 5765W        W72548   3.148  19.667  13.315
 5766W        W72549  14.734   5.792   4.579
 5767W        W72550  38.306  38.973   0.902
 5768W        W72551  24.590  11.693  13.793
 5769W        W72552  42.007  40.806  11.589
 5770W        W72553  30.573   9.055  13.039
 5771W        W72554  28.403  43.302  12.102
 5772W        W72555  19.072  15.104   3.189
 5773W        W72556  29.307  38.778   4.095
 5774W        W72557  20.490  42.324  14.823
 5775W        W72558  37.915  16.866  12.965
 5776W        W72559  37.947  29.061   2.087
 5777W        W72560  44.788  31.970   1.273
 5778W        W72561  30.272  42.196   3.381
 5779W        W72562   6.403  28.493  13.506
 5780W        W72563  31.985  13.583  13.864
 5781W        W72564  31.180  20.409  12.593
 5782W        W72565  17.881  37.891  10.736
 5783W        W72566  29.540  42.907   0.104
 5784W        W72567  11.879  15.427  10.132
 5785W        W72568  11.411  24.001  11.461
 5786W        W72569  36.380   1.697  13.484
 5787W        W72570  22.013   5.478   2.379
 5788W        W72571  37.540  33.243   3.287
 5789W        W72572  43.150  27.272  14.073
 5790W        W72573  20.206  22.046   3.089
 5791W        W72574  11.914  15.807  11.801
 5792W        W72575  42.823  17.439   4.160
 5793W        W72576  30.661  10.898   1.703
 5794W        W72577  37.266  29.679   0.673
 5795W        W72578   7.294   7.899   2.826
 5796W        W72579  21.700   8.915   2.312
 5797W        W72580  10.847  34.985  11.222
 5798W        W72581   3.850  34.098   2.524
 5799W        W72582  36.424  17.490  11.159
 5800W        W72583  35.058  11.921  13.255
 5801W        W72584  12.748  36.910  12.421
 5802W        W72585  18.604  20.765   0.310
 5803W        W72586  40.307  35.004  10.748
 5804W        W72587  40.470  23.142  13.350
 5805W        W72588  18.015  42.790  13.858
 5806W        W72589  16.145  31.854   1.840
 5807W        W72590   2.282  44.502  10.221
 5808W        W72591  39.119  33.986   1.435
 5809W        W72592  23.795  20.644   2.704
 5810W        W72593  20.751  20.584  13.365
 5811W        W72594  27.834  43.878  10.937
 5812W        W72595  44.576  42.750  12.484
 5813W        W72596  11.867  13.608  12.518
 5814W        W72597  28.578  23.455  11.937
 5815W        W72598   3.948  29.026   3.859
 5816W        W72599  15.039  24.166   0.936
 5817W        W72600  30.687  37.377  13.934
 5818W        W72601   0.864  16.575  12.285
 5819W        W72602  38.089  26.172   0.517
 5820W        W72603  33.891  21.235  11.538
 5821W        W72604  17.339  17.990   0.461
 5822W        W72605  25.810  12.616  11.124
 5823W        W72606  35.427  16.335   3.990
 5824W        W72607   6.718  35.397  13.498
 5825W        W72608  15.805  25.505   4.721
 5826W        W72609  24.072  24.222  10.271
 5827W        W72610  38.111  29.442  11.601
 5828W        W72611   2.755   2.302   3.705
 5829W        W72612   3.828  20.683   2.860
 5830W        W72613  12.020   1.871   0.500
 5831W        W72614  26.039  39.526   0.804
 5832W        W72615  17.292  43.152  12.269
 5833W        W72616  38.596  11.355  13.425
 5834W        W72617  28.945   0.898   1.925
 5835W        W72618   1.988   2.255  13.953
 5836W        W72619  22.645  35.010   0.306
 5837W        W72620  28.461  35.883  14.844
 5838W        W72621  20.063  10.106  11.629
 5839W        W72622  16.470  37.356  14.970
 5840W        W72623  20.238  41.304   1.385
 5841W        W72624  10.817  42.117   3.641
 5842W        W72625  18.225  30.937   0.268
 5843W        W72626  39.444  17.636  12.989
 5844W        W72627  32.196  42.588   0.899
 5845W        W72628  33.459  32.032  12.595
 5846W        W72629  10.830  37.941   1.270
 5847W        W72630  14.286  27.101  14.615
 5848W        W72631  43.377  36.509  11.552
 5849W        W72632  21.282  25.270   4.967
 5850W        W72633   3.874  13.802   2.743
 5851W        W72634  26.698  37.103  10.733
 5852W        W72635  12.577  39.843  12.942
 5853W        W72636  19.531  28.386  11.880
 5854W        W72637  14.704   0.730   2.157
 5855W        W72638  18.281   7.634  13.419
 5856W        W72639  13.811  13.754  10.921
 5857W        W72640   4.868  26.556   3.252
 5858W        W72641  41.088   0.748  10.679
 5859W        W72642  37.841  12.740  12.085
 5860W        W72643  18.463  16.752  10.560
 5861W        W72644  28.413  17.611   3.418
 5862W        W72645  21.992   2.812   1.685
 5863W        W72646  34.545  29.188   3.211
 5864W        W72647  11.636  25.595  10.874
 5865W        W72648  34.316  34.937  13.403
 5866W        W72649  24.498  23.550   9.842
 5867W        W72650  14.287  37.525  12.160
 5868W        W72651  28.467  42.751   1.809
 5869W        W72652  18.126  25.544  14.967
 5870W        W72653  33.190  26.488  13.861
 5871W        W72654   3.647  43.319  10.711
 5872W        W72655  30.092  39.557  11.962
 5873W        W72656   5.320   8.129   4.196
 5874W        W72657  20.802  28.172  12.035
 5875W        W72658  20.704  28.121   1.235
 5876W        W72659  32.956  34.612  13.213
 5877W        W72660  13.310  13.328   1.258
 5878W        W72661   9.139   7.761   3.588
 5879W        W72662  43.056  33.337   1.452
 5880W        W72663   7.371  28.443  13.593
 5881W        W72664  18.153  16.851   0.763
 5882W        W72665  29.262  13.340  11.727
 5883W        W72666  35.366  39.556  11.607
 5884W        W72667  20.669   4.919   0.880
 5885W        W72668  35.629   1.648  12.761
 5886W        W72669  35.076  12.628  10.615
 5887W        W72670  16.182  20.163  10.719
 5888W        W72671  42.203  17.745   3.668
 5889W        W72672   1.366  12.352  13.743
 5890W        W72673  38.521   9.869   3.012
 5891W        W72674  40.368   0.337  11.535
 5892W        W72675  27.995   6.221   3.294
 5893W        W72676  15.567  34.375   3.405
 5894W        W72677   6.934  24.054   0.571
 5895W        W72678   0.956  14.618  12.172
 5896W        W72679  25.947  20.342   1.977
 5897W        W72680   3.892  32.028  10.642
 5898W        W72681  11.208  33.084  13.148
 5899W        W72682  34.264  21.636  12.930
 5900W        W72683  22.573  38.312   0.439
 5901W        W72684  23.154  40.984   1.204
 5902W        W72685  28.002  33.961  14.357
 5903W        W72686   8.028  44.021  11.658
 5904W        W72687  38.444  25.314  11.893
 5905W        W72688  20.507  19.656  11.732
 5906W        W72689  41.987  21.947  12.942
 5907W        W72690  41.479  27.104  12.554
 5908W        W72691  16.594  20.304   4.411
 5909W        W72692  17.951  18.125  11.486
 5910W        W72693  24.981  19.979  14.753
 5911W        W72694  40.911  44.277  14.961
 5912W        W72695  23.043  39.568   9.861
 5913W        W72696  23.532   9.371  13.339
 5914W        W72697  11.215  13.992   3.707
 5915W        W72698  26.726  18.935  13.480
 5916W        W72699  39.635  11.237   1.758
 5917W        W72700  10.622   9.353   2.788
 5918W        W72701  11.536   5.393  11.152
 5919W        W72702  32.314  31.074   0.722
 5920W        W72703  41.064  18.698  11.983
 5921W        W72704  39.785  24.923  11.176
 5922W        W72705  13.103  38.107   0.637
 5923W        W72706  39.378  12.280   1.709
 5924W        W72707   1.721  33.641   5.084
 5925W        W72708   6.283  18.216  14.366
 5926W        W72709   8.216   2.257  12.023
 5927W        W72710  13.129  15.117  13.844
 5928W        W72711   6.839  31.383  13.198
 5929W        W72712  32.698  38.017   4.235
 5930W        W72713  43.924  36.429  11.488
 5931W        W72714  26.214   0.757   0.793
 5932W        W72715  17.329  28.932   3.658
 5933W        W72716  13.671  24.847   4.163
 5934W        W72717  38.133  23.177  13.534
 5935W        W72718  24.952  27.903  12.900
 5936W        W72719   8.704   9.565  11.970
 5937W        W72720  44.732  43.511   2.428
 5938W        W72721   4.427  32.880   4.941
 5939W        W72722  42.602   5.648  13.996
 5940W        W72723  42.430  31.167   2.165
 5941W        W72724  41.232   7.784  11.629
 5942W        W72725   8.566  44.028   2.257
 5943W        W72726  32.496  19.482   0.436
 5944W        W72727  44.841   1.042   3.714
 5945W        W72728  24.006  33.897  13.753
 5946W        W72729  42.516  22.517  14.536
 5947W        W72730  23.960  13.097   4.552
 5948W        W72731  20.039  39.423  11.234
 5949W        W72732  20.679   5.603  10.987
 5950W        W72733  25.454   6.304  13.014
 5951W        W72734  32.193  17.714   3.325
 5952W        W72735  37.547  33.802   3.226
 5953W        W72736   0.443  20.950  10.757
 5954W        W72737  44.154  11.145   4.961
 5955W        W72738   3.460  24.487  14.417
 5956W        W72739  19.390  38.743  11.576
 5957W        W72740  28.117   6.474   2.336
 5958W        W72741   3.969  17.365   2.422
 5959W        W72742  26.725  27.041  12.429
 5960W        W72743  41.636  38.430  12.055
 5961W        W72744  19.087   4.485   4.921
 5962W        W72745  31.600  42.994   2.375
 5963W        W72746  36.856  37.756  11.074
 5964W        W72747  13.048  33.640   2.175
 5965W        W72748  22.624   1.248  12.017
 5966W        W72749  33.926  35.300  12.025
 5967W        W72750  30.901  18.469   4.501
 5968W        W72751   9.208   2.459  11.443
 5969W        W72752  20.895  29.870   1.996
 5970W        W72753  40.410  41.077   0.622
 5971W        W72754  25.443   3.362   0.646
 5972W        W72755  29.677  23.283  10.614
 5973W        W72756  10.353  40.819  12.473
 5974W        W72757  13.193  27.069  10.405
 5975W        W72758  10.395   1.910   4.589
 5976W        W72759   8.416  15.020  13.605
 5977W        W72760  19.609  15.795  13.392
 5978W        W72761  24.493  19.685   1.318
 5979W        W72762  12.176  20.676   4.940
 5980W        W72763   3.183  36.455  10.712
 5981W        W72764   1.241  21.056  10.353
 5982W        W72765  41.978  24.691   3.366
 5983W        W72766  33.075  25.255  12.855
 5984W        W72767  23.999   6.847   9.922
 5985W        W72768  34.517  18.688   1.694
 5986W        W72769  43.742   8.383   0.478
 5987W        W72770   7.662  15.108   2.220
 5988W        W72771  34.392  17.677   3.136
 5989W        W72772  20.007  27.182   1.197
 5990W        W72773  36.430  11.190   3.111
 5991W        W72774  39.455   2.193  12.077
 5992W        W72775  42.884  20.335  14.211
 5993W        W72776  18.879   9.632  13.505
 5994W        W72777   5.478   0.971   1.335
 5995W        W72778  33.942  41.344  13.908
 5996W        W72779  29.445  31.802   3.701
 5997W        W72780  14.074  16.552   4.534
 5998W        W72781  32.102  20.204   2.729
 5999W        W72782  10.678   4.476   4.705
 6000W        W72783  12.062   1.446   0.929
 6001W        W72784  12.256  13.228   4.031
 6002W        W72785  15.284  18.319  13.825
 6003W        W72786  44.884  16.546  14.321
 6004W        W72787  41.596  15.318  10.900
 6005W        W72788   0.530  29.705   2.931
 6006W        W72789  36.382  31.366   0.855
 6007W        W72790  17.823  38.607   1.178
 6008W        W72791  23.748  31.532   2.903
 6009W        W72792  13.193  39.955   5.108
 6010W        W72793  40.652  17.270   2.358
 6011W        W72794  38.012  13.656   0.264
 6012W        W72795  29.509   8.433  10.761
 6013W        W72796  38.926  44.551  12.613
 6014W        W72797  16.813  15.019  13.982
 6015W        W72798  23.740  18.124   3.690
 6016W        W72799  40.214   6.938  11.087
 6017W        W72800  15.455  33.139   0.543
 6018W        W72801  34.799  29.593  11.588
 6019W        W72802  28.076  26.955  13.125
 6020W        W72803  37.421  22.199  12.162
 6021W        W72804  14.190  21.544   3.502
 6022W        W72805   3.216  29.627   1.661
 6023W        W72806  25.289   0.696  11.456
 6024W        W72807  17.506  13.872  13.467
 6025W        W72808   0.798  26.208   2.103
 6026W        W72809  23.376  16.703   1.805
 6027W        W72810  38.482   8.757  13.110
 6028W        W72811   0.992  20.268  13.819
 6029W        W72812  20.149  22.059   2.584
 6030W        W72813   7.915  36.781   2.675
 6031W        W72814   1.720  44.399   2.256
 6032W        W72815   9.413  32.060  13.068
 6033W        W72816  42.961  14.353  13.311
 6034W        W72817   4.124  39.314   1.749
 6035W        W72818  28.144  10.861  11.965
 6036W        W72819  13.819  17.636  13.854
 6037W        W72820  19.659  16.118  14.938
 6038W        W72821  36.679  28.909   4.030
 6039W        W72822  10.785  11.878   1.320
 6040W        W72823  20.612  43.220  11.547
 6041W        W72824  40.794  24.656  12.557
 6042W        W72825  35.783   4.697   2.188
 6043W        W72826  22.169  31.877   0.216
 6044W        W72827  30.387  33.505   3.324
 6045W        W72828  25.601  25.838  14.422
 6046W        W72829  43.837  28.259   4.729
 6047W        W72830  13.163  33.058   3.637
 6048W        W72831  18.576  32.908  11.560
 6049W        W72832  26.648   8.908  13.176
 6050W        W72833  38.604  27.494   4.790
 6051W        W72834  23.751  31.730  10.999
 6052W        W72835  38.445  19.296  10.432
 6053W        W72836  18.273   2.752  12.455
 6054W        W72837  44.264  37.714   2.258
 6055W        W72838  30.229  44.633   0.625
 6056W        W72839  28.568  36.825   1.196
 6057W        W72840  29.639  32.963  13.321
 6058W        W72841  38.514   9.817   2.502
 6059W        W72842   9.686  23.097  10.869
 6060W        W72843  35.032  37.267   3.717
 6061W        W72844  21.245  18.053   4.579
 6062W        W72845  30.925  29.614  14.328
 6063W        W72846   9.783  19.770   0.854
 6064W        W72847  40.949  41.836  12.395
 6065W        W72848  44.742  34.509   4.326
 6066W        W72849   1.747  14.497   3.334
 6067W        W72850   7.733  32.741  11.981
 6068W        W72851  18.270   8.435   1.840
 6069W        W72852   6.647  27.920   4.107
 6070W        W72853  42.614  13.254  14.181
 6071W        W72854  20.603  23.952  12.919
 6072W        W72855  33.485  13.055  14.343
 6073W        W72856   6.283  12.849  13.025
 6074W        W72857   5.326  21.649   1.626
 6075W        W72858  36.637  16.241   1.327
 6076W        W72859  25.071  12.700  14.279
 6077W        W72860   5.006  10.335   4.552
 6078W        W72861  31.636  42.064   2.627
 6079W        W72862  31.893   6.816  11.619
 6080W        W72863  27.163  14.087  14.481
 6081W        W72864  25.614  41.897   2.865
 6082W        W72865  35.511  12.124  13.492
 6083W        W72866  23.097  21.270  12.434
 6084W        W72867  26.234  44.106  14.570
 6085W        W72868   1.380  31.379   2.328
 6086W        W72869   8.186  28.009  12.481
 6087W        W72870  13.804  35.093  14.200
 6088W        W72871  40.378  37.787   2.662
 6089W        W72872  13.940   3.141  11.572
 6090W        W72873  16.731  38.310   0.946
 6091W        W72874  32.071   3.686   0.348
 6092W        W72875  10.779  13.921  13.103
 6093W        W72876   5.050  20.179   4.625
 6094W        W72877  19.210  41.898  12.591
 6095W        W72878  33.322   0.984  14.125
 6096W        W72879  37.123  23.281   4.593
 6097W        W72880  15.568  11.673  11.522
 6098W        W72881   1.560  28.231  14.337
 6099W        W72882  24.324  22.782  11.559
 6100W        W72883  33.488  40.998   4.311
 6101W        W72884  27.183  16.105  14.321
 6102W        W72885  36.903  20.789  12.877
 6103W        W72886   1.940  24.844   5.012
 6104W        W72887  26.515   8.200  14.290
 6105W        W72888  31.422  25.269   0.791
 6106W        W72889  42.947   6.108   5.440
 6107W        W72890  10.507  36.873  10.178
 6108W        W72891   2.511   2.629  13.027
 6109W        W72892  25.088  24.510  11.029
 6110W        W72893  22.431  15.399  13.929
 6111W        W72894   1.497  42.069  14.973
 6112W        W72895   3.779  22.231   2.868
 6113W        W72896  25.177  28.624   4.590
 6114W        W72897   6.919   5.044   4.884
 6115W        W72898  32.956  25.603  11.395
 6116W        W72899   9.303   7.727  13.532
 6117W        W72900  20.776  38.488  14.841
 6118W        W72901  22.777  16.064   3.703
 6119W        W72902   2.799  35.914   3.672
 6120W        W72903  30.607  22.264  11.483
 6121W        W72904  41.946  34.680   1.974
 6122W        W72905  37.222  42.226  13.051
 6123W        W72906  22.408  26.943   4.586
 6124W        W72907   4.677  42.462   3.228
 6125W        W72908  38.588  34.601  14.407
 6126W        W72909  19.630  35.570  12.997
 6127W        W72910  13.815  33.667  14.480
 6128W        W72911  16.495  12.910   1.266
 6129W        W72912  42.023   9.843  11.057
 6130W        W72913  44.264  27.800   1.357
 6131W        W72914   3.984  29.246  14.564
 6132W        W72915   5.737   5.336  10.685
 6133W        W72916  14.129  23.502   1.917
 6134W        W72917  38.226   0.362  12.345
 6135W        W72918  36.586   1.258  12.077
 6136W        W72919  35.397   1.690  13.710
 6137W        W72920   1.982   1.947  10.636
 6138W        W72921  18.049   7.319  12.049
 6139W        W72922  26.186   5.805   3.468
 6140W        W72923  43.654  32.893   2.190
 6141W        W72924   7.315  20.548  14.938
 6142W        W72925  17.160  30.681  14.945
 6143W        W72926   3.696  13.751  11.488
 6144W        W72927  24.297  40.535  14.044
 6145W        W72928  21.723  33.839  14.325
 6146W        W72929  19.057  13.815   4.139
 6147W        W72930  16.588  23.550  14.400
 6148W        W72931  23.484  23.106  14.399
 6149W        W72932  41.414  17.567   1.927
 6150W        W72933  36.063  34.910  12.025
 6151W        W72934   6.650  41.964  11.761
 6152W        W72935  31.648  30.681   0.895
 6153W        W72936  39.947  31.229   0.743
 6154W        W72937  10.830   3.597   4.882
 6155W        W72938  26.211  22.457   1.345
 6156W        W72939  34.091   2.643   1.744
 6157W        W72940   0.012  18.212   2.775
 6158W        W72941   5.179  31.845  12.882
 6159W        W72942   4.849  42.824  10.721
 6160W        W72943  36.862   5.111   2.726
 6161W        W72944  35.610  27.260   2.236
 6162W        W72945   4.750  35.376   1.647
 6163W        W72946  29.736  33.514  14.285
 6164W        W72947  17.880  15.289   1.224
 6165W        W72948  16.164  39.830   4.234
 6166W        W72949  35.088  39.651  14.353
 6167W        W72950  30.340  25.687   3.726
 6168W        W72951  21.289  11.630  13.388
 6169W        W72952  28.104  40.832  13.897
 6170W        W72953  21.736  39.662   3.645
 6171W        W72954  22.549  37.364   3.262
 6172W        W72955  13.271   6.604   0.453
 6173W        W72956  21.640  18.624  10.705
 6174W        W72957  35.318   4.941   2.285
 6175W        W72958  13.100  14.826   3.260
 6176W        W72959  16.193   9.212   0.902
 6177W        W72960   4.876   6.868   2.866
 6178W        W72961   7.585   6.726   2.308
 6179W        W72962  18.048  39.009   3.873
 6180W        W72963  19.275   1.245   4.630
 6181W        W72964  12.173  35.604  12.459
 6182W        W72965  42.626   0.078   2.412
 6183W        W72966   9.646  39.105   0.743
 6184W        W72967  42.645  43.594  11.055
 6185W        W72968  29.692  41.261   1.756
 6186W        W72969   4.846  19.698  11.462
 6187W        W72970   8.600  18.670  14.683
 6188W        W72971  16.038  17.129  13.877
 6189W        W72972  28.534  44.959   2.853
 6190W        W72973   7.343  19.180  10.935
 6191W        W72974   1.609  44.326  14.806
 6192W        W72975  15.348  26.123   4.123
 6193W        W72976  32.848  32.631   4.619
 6194W        W72977  24.169  10.100   0.124
 6195W        W72978  34.913  44.552  12.094
 6196W        W72979  10.349  43.204  10.819
 6197W        W72980   5.902   0.359   1.859
 6198W        W72981  10.389  11.616  10.004
 6199W        W72982  13.756  36.564   1.238
 6200W        W72983  20.256   9.292   3.986
 6201W        W72984  21.010   1.905   5.068
 6202W        W72985  14.287   1.368   1.408
 6203W        W72986  36.546   7.605  14.892
 6204W        W72987  38.807  20.270  12.071
 6205W        W72988   2.901  19.730   1.735
 6206W        W72989  38.221  13.545  12.452
 6207W        W72990   7.574  31.510  14.944
 6208W        W72991  24.912   8.131   2.616
 6209W        W72992  21.221  17.340  12.876
 6210W        W72993  32.992  14.384   1.058
 6211W        W72994  35.906  13.810  11.504
 6212W        W72995  22.107  41.532   4.629
 6213W        W72996  32.046  35.425   3.962
 6214W        W72997  28.210  29.941  14.914
 6215W        W72998  21.036   8.595   1.221
 6216W        W72999   8.370  32.466   2.197
 6217W        W73000  22.542  40.299   0.023
 6218W        W73001  24.100   1.493   4.732
 6219W        W73002   9.399  41.444   4.442
 6220W        W73003  14.602  43.834  10.975
 6221W        W73004  18.280   2.689  13.973
 6222W        W73005  15.225  34.677  13.914
 6223W        W73006  16.382  37.982  14.238
 6224W        W73007  11.625  38.312   0.302
 6225W        W73008   6.578  32.131   2.854
 6226W        W73009  24.107  17.492  10.248
 6227W        W73010   1.797  19.147  11.170
 6228W        W73011  42.280  26.762   1.564
 6229W        W73012  13.316  12.812   2.832
 6230W        W73013   6.792  22.987  11.753
 6231W        W73014  19.288  28.266   1.699
 6232W        W73015  21.290  31.160   3.290
 6233W        W73016  15.297  24.602  11.569
 6234W        W73017   6.234  28.704  14.945
 6235W        W73018   4.228   0.301   0.850
 6236W        W73019  38.977  19.236  13.446
 6237W        W73020  21.013  23.767   5.085
 6238W        W73021   1.989  27.073   3.728
 6239W        W73022  41.854  36.039   3.216
 6240W        W73023   8.364   3.722  13.504
 6241W        W73024   4.787  38.951   3.758
 6242W        W73025  37.308  13.239   4.977
 6243W        W73026  38.959  39.563  11.116
 6244W        W73027   8.301  31.540   3.244
 6245W        W73028  10.187  25.287   4.220
 6246W        W73029  25.109  32.545  14.487
 6247W        W73030  20.051  24.249  13.919
 6248W        W73031  42.916  29.566   1.276
 6249W        W73032   4.152  31.161  10.662
 6250W        W73033   7.399  35.620   2.354
 6251W        W73034  21.504  17.100   1.625
 6252W        W73035   6.411  26.690  14.423
 6253W        W73036  29.338  41.453  12.679
 6254W        W73037  29.874   4.226  13.992
 6255W        W73038  37.312  29.706  10.783
 6256W        W73039   6.204  21.751   3.094
 6257W        W73040   7.102  29.988   4.829
 6258W        W73041  14.882  38.561  12.490
 6259W        W73042   4.144  29.961  13.000
 6260W        W73043  18.562  16.493   4.430
 6261W        W73044   5.327  19.100   1.869
 6262W        W73045  27.914  33.113   1.412
 6263W        W73046  35.018  17.209  10.750
 6264W        W73047  26.971  17.097  14.360
 6265W        W73048  20.214  28.875   3.138
 6266W        W73049  29.574  42.724  10.219
 6267W        W73050   6.443  41.825  11.100
 6268W        W73051  15.877  43.038  10.623
 6269W        W73052  21.755   4.786   1.783
 6270W        W73053   9.637  26.180  10.751
 6271W        W73054  12.757  20.198  14.920
 6272W        W73055  35.842  39.323  13.321
 6273W        W73056   1.703  12.070  12.587
 6274W        W73057  23.787   6.480  13.254
 6275W        W73058  17.623  40.615  12.631
 6276W        W73059  31.527   3.526   4.067
 6277W        W73060  16.728  11.951  12.680
 6278W        W73061  13.047  12.544   1.908
 6279W        W73062  23.585   3.989   1.825
 6280W        W73063  22.672   3.495   3.904
 6281W        W73064  13.001  14.257   1.752
 6282W        W73065  31.878  31.631  14.223
 6283W        W73066  28.191  12.490   0.773
 6284W        W73067  20.650  35.406   2.591
 6285W        W73068  44.978   1.652  12.749
 6286W        W73069  24.765   8.860  12.588
 6287W        W73070  31.936   0.529   2.151
 6288W        W73071  24.999  21.982   0.301
 6289W        W73072   8.452  10.256  14.405
 6290W        W73073  10.699  36.971  11.078
 6291W        W73074  10.816  38.450   1.117
 6292W        W73075   8.080  15.936   4.793
 6293W        W73076  17.889  14.744  11.584
 6294W        W73077  13.725  11.143   2.151
 6295W        W73078  12.348  13.131  11.927
 6296W        W73079  44.762  35.542   3.359
 6297W        W73080   6.196  29.767   2.079
 6298W        W73081  34.308  36.970   0.368
 6299W        W73082  27.046  23.736   3.698
 6300W        W73083  36.657  16.148  14.805
 6301W        W73084  42.364   8.413   1.005
 6302W        W73085  40.272  10.825  10.207
 6303W        W73086   7.929  29.359  14.457
 6304W        W73087  13.319  44.971   4.344
 6305W        W73088  29.655  42.576  11.901
 6306W        W73089   2.441  43.945   4.854
 6307W        W73090  43.871  35.946   1.848
 6308W        W73091   1.986  36.075   0.857
 6309W        W73092  13.329  41.967  13.278
 6310W        W73093   0.041  29.649  14.477
 6311W        W73094  28.084  43.411  11.190
 6312W        W73095  36.811  35.379  14.302
 6313W        W73096  25.572  10.669   2.360
 6314W        W73097  23.483  28.111   4.137
 6315W        W73098  30.999  14.851   2.918
 6316W        W73099  30.424  32.126  11.523
 6317W        W73100  27.184  14.923  10.749
 6318W        W73101  20.126  16.200  11.184
 6319W        W73102  29.343  27.754  12.681
 6320W        W73103  15.401  40.868  10.327
 6321W        W73104  15.764  17.128   4.064
 6322W        W73105   4.943  34.495   3.909
 6323W        W73106  24.110  25.628   0.349
 6324W        W73107  16.542  42.422  10.597
 6325W        W73108   2.890   9.144  14.564
 6326W        W73109  31.870  44.746  12.981
 6327W        W73110  20.781  23.506  13.814
 6328W        W73111   3.356  10.182   5.115
 6329W        W73112   1.440  24.730   4.760
 6330W        W73113  35.088  42.172  11.966
 6331W        W73114   9.312  21.161  13.349
 6332W        W73115  14.541  22.607  10.772
 6333W        W73116  31.760  17.313   5.081
 6334W        W73117  42.965  18.650   1.562
 6335W        W73118  26.027  43.109  13.137
 6336W        W73119  28.942  10.709   4.401
 6337W        W73120  24.645  41.353   2.850
 6338W        W73121  39.648   0.506  12.164
 6339W        W73122  22.176  30.276  11.060
 6340W        W73123  26.073   8.275  11.706
 6341W        W73124  17.053  34.482   2.795
 6342W        W73125   1.374   6.956   1.629
 6343W        W73126  30.714  24.835   1.984
 6344W        W73127   1.436  43.119  14.060
 6345W        W73128  38.547  41.294  13.405
 6346W        W73129  21.483  25.683   5.191
 6347W        W73130  26.182  14.652  13.476
 6348W        W73131  25.477  18.164  13.943
 6349W        W73132  16.831  18.677  11.177
 6350W        W73133  31.854  39.284  12.752
 6351W        W73134  20.558  37.050  12.911
 6352W        W73135  35.881  15.389  12.984
 6353W        W73136  40.742  31.420  12.753
 6354W        W73137  28.632  41.074   2.376
 6355W        W73138  26.704  40.890   9.742
 6356W        W73139  32.853  22.442   4.972
 6357W        W73140  31.412  31.389  14.340
 6358W        W73141  33.557  18.143   0.296
 6359W        W73142  34.401  39.642  12.463
 6360W        W73143  44.008   5.157  10.173
 6361W        W73144  13.654  38.500   4.699
 6362W        W73145  17.904  15.609   0.743
 6363W        W73146   7.740  42.083  12.504
 6364W        W73147  24.379   2.346  14.548
 6365W        W73148   6.223  38.945   3.718
 6366W        W73149  37.802  39.828   2.663
 6367W        W73150   5.983  35.510   4.230
 6368W        W73151   5.705  15.728   3.347
 6369W        W73152  33.448  27.120  14.921
 6370W        W73153   7.630   9.400   0.918
 6371W        W73154  30.820  17.695  13.543
 6372W        W73155  40.123  25.654  12.836
 6373W        W73156  32.889   3.717   2.873
 6374W        W73157  14.039  14.240  13.818
 6375W        W73158  18.700   1.243  11.909
 6376W        W73159  44.737   2.364   1.296
 6377W        W73160  18.334  13.772   0.946
 6378W        W73161  30.850  16.437   3.704
 6379W        W73162  38.286  32.944   0.025
 6380W        W73163   1.547   3.749  12.981
 6381W        W73164  33.557  33.573  13.852
 6382W        W73165  44.910  16.275   2.787
 6383W        W73166  13.755   1.269   1.313
 6384W        W73167  14.056  36.196   4.105
 6385W        W73168  39.382  18.289   4.694
 6386W        W73169  19.053  42.562  12.006
 6387W        W73170  38.306  22.177   3.765
 6388W        W73171  34.848  27.381   4.456
 6389W        W73172  25.161   8.929   3.537
 6390W        W73173  37.951   9.003  10.089
 6391W        W73174  30.038  31.547   2.392
 6392W        W73175  15.083  20.688  13.882
 6393W        W73176  29.639   9.644  12.349
 6394W        W73177  31.954  35.372  13.220
 6395W        W73178  12.282  16.171   1.727
 6396W        W73179  32.940  41.096  13.570
 6397W        W73180   2.440  10.455   1.152
 6398W        W73181   3.338  12.656   0.387
 6399W        W73182  44.875  39.873  11.129
 6400W        W73183  10.568  13.404   1.922
 6401W        W73184  27.583   7.439   2.859
 6402W        W73185   4.882  19.677  10.934
 6403W        W73186  42.202  13.283  13.405
 6404W        W73187  41.094   6.348  13.556
 6405W        W73188  32.073  16.473   1.462
 6406W        W73189  21.916  44.303   0.915
 6407W        W73190  41.442  25.202   3.181
 6408W        W73191   2.665  33.675  12.948
 6409W        W73192  33.412  29.395  13.092
 6410W        W73193  44.861  39.885  13.454
 6411W        W73194  35.295   0.788  10.988
 6412W        W73195   1.433  41.461   2.115
 6413W        W73196   1.216  18.734  13.789
 6414W        W73197  27.266  44.555   3.151
 6415W        W73198   4.362  44.473  14.339
 6416W        W73199  37.008   7.135   2.846
 6417W        W73200  13.509  28.744   1.249
 6418W        W73201  29.057  26.364   1.699
 6419W        W73202  30.542  11.984   3.985
 6420W        W73203  20.238   0.299  13.080
 6421W        W73204  10.169  28.660  11.580
 6422W        W73205  42.977  41.092  13.865
 6423W        W73206  16.558  12.750  13.890
 6424W        W73207   6.641   2.252  14.418
 6425W        W73208  39.559  40.371   4.538
 6426W        W73209  34.435  41.339   0.341
 6427W        W73210  16.128  22.087  14.850
 6428W        W73211  17.592  41.579  13.029
 6429W        W73212   9.191  30.652  13.792
 6430W        W73213   1.981  12.363  13.937
 6431W        W73214  10.350   5.545   4.148
 6432W        W73215  16.262  43.401   2.371
 6433W        W73216  18.673  36.558   3.655
 6434W        W73217   2.462   2.490  13.927
 6435W        W73218  19.983  26.522  10.990
 6436W        W73219  31.694   2.955  12.148
 6437W        W73220   1.357  19.651   0.877
 6438W        W73221   6.337  18.098  13.859
 6439W        W73222  12.425  43.646  10.998
 6440W        W73223  24.270  31.940  13.818
 6441W        W73224   4.688   0.542   0.880
 6442W        W73225  42.736  25.629  14.022
 6443W        W73226  10.076  28.493  12.437
 6444W        W73227   7.659   7.695  12.708
 6445W        W73228  40.540   6.126   2.337
 6446W        W73229  36.932  31.985  11.482
 6447W        W73230  13.637   7.936   0.406
 6448W        W73231   0.251  33.357   3.877
 6449W        W73232  29.209  17.623   0.724
 6450W        W73233  41.083   6.685  11.368
 6451W        W73234  40.451  20.913  13.888
 6452W        W73235  15.850   4.330  11.151
 6453W        W73236   2.744  21.146   0.048
 6454W        W73237  42.834  38.288   0.087
 6455W        W73238  33.317  14.356  11.655
 6456W        W73239   9.014  21.106  11.930
 6457W        W73240  44.245  31.138   1.080
 6458W        W73241  27.616  39.932   0.433
 6459W        W73242  31.082   0.935   1.753
 6460W        W73243   3.323  36.653   1.237
 6461W        W73244  25.956  21.607   4.639
 6462W        W73245  18.600  12.516  11.418
 6463W        W73246  11.217   7.753  11.589
 6464W        W73247  25.599   9.189   2.373
 6465W        W73248  36.365   6.259  13.538
 6466W        W73249  26.605  43.472  10.617
 6467W        W73250  18.408  28.446   4.344
 6468W        W73251  19.300   7.626  13.446
 6469W        W73252  22.980   5.746  14.635
 6470W        W73253  13.561  37.025  13.040
 6471W        W73254  42.873  13.035   3.828
 6472W        W73255  40.013  25.678  10.686
 6473W        W73256  23.272   6.891   4.395
 6474W        W73257  21.761  22.966   3.137
 6475W        W73258  28.352   6.751   1.955
 6476W        W73259  43.439  27.062  11.794
 6477W        W73260  32.070  44.484   0.703
 6478W        W73261  24.187  44.768   0.545
 6479W        W73262  35.123  31.475   4.204
 6480W        W73263   7.325  42.448   4.433
 6481W        W73264  22.630   6.202  10.387
 6482W        W73265  27.455  36.320   0.292
 6483W        W73266   9.970   9.754   0.369
 6484W        W73267  42.969  43.295   4.385
 6485W        W73268  34.066   6.475  13.371
 6486W        W73269  10.361  19.063  14.619
 6487W        W73270  37.391  23.864  14.335
 6488W        W73271   0.771  27.453  10.090
 6489W        W73272  16.798  15.387  12.545
 6490W        W73273  16.480  24.728   1.173
 6491W        W73274   7.234  21.589  12.575
 6492W        W73275  39.931   2.241   1.412
 6493W        W73276   5.256  13.299  13.867
 6494W        W73277  42.612  34.736  10.772
 6495W        W73278  28.732  15.625   0.414
 6496W        W73279  15.066  14.086   1.769
 6497W        W73280  38.902  16.209  11.381
 6498W        W73281   2.286  37.829  11.571
 6499W        W73282  42.698  20.548   3.551
 6500W        W73283   9.634  42.889  12.842
 6501W        W73284  21.113  25.476   2.887
 6502W        W73285  26.071  37.921   1.325
 6503W        W73286  40.067  36.618   3.276
 6504W        W73287   4.455  23.770  10.658
 6505W        W73288  39.983  15.259  10.700
 6506W        W73289   4.866  26.587  13.819
 6507W        W73290  42.253   2.562  13.903
 6508W        W73291  21.087  40.542   2.352
 6509W        W73292  32.133  34.092  11.267
 6510W        W73293  15.034  14.287  10.232
 6511W        W73294  32.902  43.436  14.310
 6512W        W73295   5.837  15.176  14.850
 6513W        W73296  29.938   8.407   2.221
 6514W        W73297  23.714  15.280   0.444
 6515W        W73298  15.719   4.114   4.138
 6516W        W73299  13.848   9.870   3.874
 6517W        W73300  22.155   1.538   2.237
 6518W        W73301  12.896  29.889   0.379
 6519W        W73302   9.321  27.739  10.532
 6520W        W73303  28.424  21.204  13.491
 6521W        W73304  23.811  27.777  13.457
 6522W        W73305  30.428  37.977  11.179
 6523W        W73306  11.243  22.893  14.384
 6524W        W73307   8.253  23.255  10.451
 6525W        W73308   5.343  18.770  10.602
 6526W        W73309  17.810   3.309  12.898
 6527W        W73310   5.184   0.905  11.656
 6528W        W73311   2.820  42.552  10.380
 6529W        W73312  30.553  16.092   0.334
 6530W        W73313  21.090  34.764   0.995
 6531W        W73314  44.769  40.474  12.162
 6532W        W73315  22.691   0.766  14.782
 6533W        W73316  41.437  36.600  11.154
 6534W        W73317  39.200  16.088   2.519
 6535W        W73318  40.521  42.351  13.752
 6536W        W73319  20.190   7.854   0.383
 6537W        W73320  38.106  38.386  12.358
 6538W        W73321  41.956   5.348  12.830
 6539W        W73322  21.703  20.642   0.373
 6540W        W73323  10.213  41.301   3.389
 6541W        W73324   4.486  31.978   0.794
 6542W        W73325  28.936  37.340   5.091
 6543W        W73326  22.716  40.438   3.973
 6544W        W73327  32.378  32.413   0.823
 6545W        W73328   2.281  10.797  14.900
 6546W        W73329  44.659  19.458  14.336
 6547W        W73330   2.966  20.511  11.067
 6548W        W73331  26.952  32.957   4.118
 6549W        W73332  17.566  20.554  11.156
 6550W        W73333  28.086  13.483   3.624
 6551W        W73334  41.874  15.042   4.678
 6552W        W73335   4.920  30.678  11.109
 6553W        W73336  12.602  42.907   4.136
 6554W        W73337  41.313  30.034   4.369
 6555W        W73338  24.150  19.327   3.336
 6556W        W73339   6.149  42.997   9.773
 6557W        W73340  19.677   7.767   2.852
 6558W        W73341  44.726  36.592  11.982
 6559W        W73342  33.770   4.757   3.281
 6560W        W73343  31.434  30.597  13.793
 6561W        W73344  42.397  11.931   9.912
 6562W        W73345   6.158  26.522  10.499
 6563W        W73346  11.104  32.188   0.713
 6564W        W73347  25.827  35.498   1.286
 6565W        W73348  41.748  36.331  10.579
 6566W        W73349  44.098  38.475   1.949
 6567W        W73350  13.028  37.528  14.996
 6568W        W73351  36.839  21.879   0.181
 6569W        W73352   0.728  40.742   3.353
 6570W        W73353  43.290   5.841   0.456
 6571W        W73354  10.096  31.148  12.981
 6572W        W73355   8.276  23.527   4.585
 6573W        W73356  32.770  19.555   4.177
 6574W        W73357  10.647   4.921  12.512
 6575W        W73358   1.853  30.931   2.435
 6576W        W73359  22.992   3.064  11.213
 6577W        W73360  43.970   6.871   3.732
 6578W        W73361  30.487  25.522   0.299
 6579W        W73362   8.215  32.456   1.267
 6580W        W73363  34.624   2.012  14.306
 6581W        W73364  34.770  43.776   0.396
 6582W        W73365  18.698  44.521  10.266
 6583W        W73366  30.333  32.376  12.956
 6584W        W73367  35.543  40.908   4.739
 6585W        W73368  27.453  23.717   0.267
 6586W        W73369  28.988   8.896   3.793
 6587W        W73370  33.581   6.071   9.722
 6588W        W73371  29.422  11.243  12.857
 6589W        W73372  27.725  36.093  14.428
 6590W        W73373  44.545  35.189  14.274
 6591W        W73374  13.225  37.273   2.815
 6592W        W73375   3.444   6.121  12.033
 6593W        W73376  11.687   3.320   1.769
 6594W        W73377  38.451  23.548  11.481
 6595W        W73378  38.172  19.012  12.571
 6596W        W73379  11.560  31.463  11.954
 6597W        W73380  29.365  21.038  12.764
 6598W        W73381   9.449  24.575   2.807
 6599W        W73382  37.381  37.931   1.319
 6600W        W73383  42.013  10.254   1.806
 6601W        W73384  19.045  17.720  11.026
 6602W        W73385   6.003  28.821  11.573
 6603W        W73386  34.507   4.730   2.604
 6604W        W73387  22.536  11.032  13.442
 6605W        W73388  10.235  38.557  14.411
 6606W        W73389  24.595  31.929  14.713
 6607W        W73390   2.902  32.329   0.772
 6608W        W73391  37.535  35.776   0.939
 6609W        W73392  17.777  16.525  14.767
 6610W        W73393  21.216  42.488  12.400
 6611W        W73394  40.436  26.967  12.183
 6612W        W73395  40.620  41.898  14.707
 6613W        W73396  25.512  44.562   0.397
 6614W        W73397  29.104  28.155  10.667
 6615W        W73398  20.109  14.775   0.915
 6616W        W73399   6.443  16.079  13.478
 6617W        W73400  34.444   6.534   3.159
 6618W        W73401  38.310  35.443   0.798
 6619W        W73402  17.521  28.080   4.682
 6620W        W73403  16.142  13.584  13.603
 6621W        W73404  25.423   1.482  12.014
 6622W        W73405  28.081  26.592   9.912
 6623W        W73406  13.838  42.253   3.139
 6624W        W73407  27.152  15.701   0.456
 6625W        W73408  40.424  34.336  13.292
 6626W        W73409  33.910  43.155   2.373
 6627W        W73410   1.302  43.454   3.499
 6628W        W73411  44.907   5.844   3.319
 6629W        W73412  27.646   4.543  11.477
 6630W        W73413  41.426   7.816   0.422
 6631W        W73414   8.489  41.732   2.335
 6632W        W73415  23.450  20.481   1.829
 6633W        W73416  22.638  14.987   1.921
 6634W        W73417   0.313  42.007   0.252
 6635W        W73418  44.814  19.702   0.771
 6636W        W73419   3.924  10.052   0.105
 6637W        W73420  11.149   8.445  12.124
 6638W        W73421   3.989  26.212  14.609
 6639W        W73422  29.189  38.051   3.412
 6640W        W73423  41.407  43.906  10.640
 6641W        W73424  18.182  16.366   5.225
 6642W        W73425   6.510  32.546   1.826
 6643W        W73426  27.706  19.996  12.379
 6644W        W73427   2.496   3.395  14.034
 6645W        W73428  21.757  19.602  12.244
 6646W        W73429  32.518  35.409  14.788
 6647W        W73430   7.357  41.288   3.447
 6648W        W73431  44.970   6.775  13.404
 6649W        W73432  10.424  43.295  12.926
 6650W        W73433  30.700   0.780   0.170
 6651W        W73434   1.377   4.343  11.471
 6652W        W73435  20.719  39.473   2.593
 6653W        W73436  16.033  26.001   1.798
 6654W        W73437  26.417  18.808   0.870
 6655W        W73438  23.720  34.613   2.240
 6656W        W73439   8.317  10.324  12.597
 6657W        W73440  33.134   6.318  13.775
 6658W        W73441  30.693  25.179   3.686
 6659W        W73442  40.607   2.837  11.124
 6660W        W73443  33.630  23.549  10.265
 6661W        W73444  31.460  10.862  11.749
 6662W        W73445   2.172  18.018   2.264
 6663W        W73446  29.557  18.509   4.289
 6664W        W73447   5.534  19.805  14.996
 6665W        W73448  11.238   0.368  11.691
 6666W        W73449  21.662  28.236  14.467
 6667W        W73450  34.263  23.190  12.839
 6668W        W73451  22.213  20.134   4.477
 6669W        W73452  41.579  30.374   4.963
 6670W        W73453  21.525  29.832   1.142
 6671W        W73454  17.275  40.105  11.603
 6672W        W73455  26.027  32.679  10.738
 6673W        W73456  31.605  22.764  11.611
 6674W        W73457  22.952  43.451   0.452
 6675W        W73458  20.711  42.495  13.922
 6676W        W73459  19.289  12.332  11.321
 6677W        W73460  34.967  29.901   3.732
 6678W        W73461  39.844  40.858  14.536
 6679W        W73462  15.847  25.705   1.371
 6680W        W73463  16.173   5.425  13.761
 6681W        W73464  23.456  17.518   0.923
 6682W        W73465   6.458  10.753   1.401
 6683W        W73466  18.048  38.899  13.500
 6684W        W73467  35.255  19.573  10.278
 6685W        W73468   4.233  40.214  10.415
 6686W        W73469  15.029  32.217   2.382
 6687W        W73470  28.521  19.738   2.755
 6688W        W73471   3.511  36.573  13.439
 6689W        W73472  38.838  43.944   0.810
 6690W        W73473  21.511   2.744   0.160
 6691W        W73474   2.969  33.417  13.952
 6692W        W73475  14.523  26.250   0.369
 6693W        W73476  18.677  10.553   3.223
 6694W        W73477  24.089  21.450  10.604
 6695W        W73478  17.309  35.486   4.631
 6696W        W73479   3.373  25.652   2.633
 6697W        W73480  40.944  32.517  12.511
 6698W        W73481  36.143  24.918  13.630
 6699W        W73482  24.313  34.990  13.775
 6700W        W73483  11.105  23.954   4.546
 6701W        W73484  38.581  25.695   2.432
 6702W        W73485  38.514  10.235   1.610
 6703W        W73486  29.472  37.874   1.347
 6704W        W73487  41.297  23.993  14.155
 6705W        W73488  15.774  24.801  11.569
 6706W        W73489  38.813  16.153   2.876
 6707W        W73490   1.295  35.772   2.146
 6708W        W73491  31.442  38.518   4.528
 6709W        W73492  32.912  29.406   1.914
 6710W        W73493  21.724  35.132   4.486
 6711W        W73494   7.990  28.224  12.978
 6712W        W73495  14.131  27.557  11.064
 6713W        W73496  33.914  42.583  11.571
 6714W        W73497  17.644   4.551   0.755
 6715W        W73498  22.842  11.438  13.550
 6716W        W73499   2.671   2.863  11.249
 6717W        W73500  34.181  27.547   2.414
 6718W        W73501  22.291  36.591  12.369
 6719W        W73502   8.053  12.301  14.414
 6720W        W73503   6.646  19.188  14.364
 6721W        W73504   4.338  11.483  14.322
 6722W        W73505   3.034   9.804   0.897
 6723W        W73506  39.798  38.038   1.819
 6724W        W73507  30.639  13.109   2.723
 6725W        W73508   3.381  38.105  10.726
 6726W        W73509   5.518  29.170   1.994
 6727W        W73510  30.746  18.322   0.412
 6728W        W73511  28.002   2.029   0.982
 6729W        W73512  25.707   4.090   3.586
 6730W        W73513   9.224   9.364   4.497
 6731W        W73514  11.973  16.632  13.398
 6732W        W73515  43.999  38.967  11.579
 6733W        W73516  33.846  28.442  12.098
 6734W        W73517  20.236  18.252  12.061
 6735W        W73518  35.998  19.211  14.862
 6736W        W73519   4.442  26.741  12.955
 6737W        W73520  17.652  32.694   4.441
 6738W        W73521  31.205  25.095  12.516
 6739W        W73522  44.762  19.191   4.159
 6740W        W73523  34.608  36.484  13.395
 6741W        W73524  41.397  17.034   1.925
 6742W        W73525  15.298  14.251   4.900
 6743W        W73526   5.847   5.464  11.681
 6744W        W73527  13.261  16.223   0.322
 6745W        W73528  36.717  26.027  13.161
 6746W        W73529  41.361  18.864  13.165
 6747W        W73530  30.935  35.754   3.686
 6748W        W73531  23.568  12.401   3.586
 6749W        W73532  33.126  41.066  14.480
 6750W        W73533  40.096  36.718  12.162
 6751W        W73534   4.765  15.296   4.134
 6752W        W73535  26.979  28.988  11.552
 6753W        W73536  43.729  18.581   0.593
 6754W        W73537  44.600  39.778  12.416
 6755W        W73538   2.352  10.661  13.883
 6756W        W73539  26.093   8.254   3.839
 6757W        W73540   5.133   3.478  13.518
 6758W        W73541  38.412  20.629  13.986
 6759W        W73542  39.621  39.509   0.966
 6760W        W73543  11.829  41.705   5.119
 6761W        W73544  14.056  13.307  12.059
 6762W        W73545   5.800  16.280   4.077
 6763W        W73546  27.996  12.411   4.620
 6764W        W73547  14.816  31.152  11.646
 6765W        W73548  33.340  40.395  12.546
 6766W        W73549   8.583  14.401   4.601
 6767W        W73550   6.088  29.608   0.735
 6768W        W73551   0.999  20.230  13.032
 6769W        W73552   0.200  26.864   0.001
 6770W        W73553   9.730  28.782   2.819
 6771W        W73554  32.355   3.677  14.897
 6772W        W73555  12.713  28.843   2.831
 6773W        W73556  24.691  37.586  13.445
 6774W        W73557  34.314   9.026   1.209
 6775W        W73558   9.650  33.698   4.221
 6776W        W73559  38.084  35.373  12.883
 6777W        W73560  12.069   2.054   3.277
 6778W        W73561  10.663   2.940  13.724
 6779W        W73562   4.169  23.681   0.335
 6780W        W73563  17.770  25.614   2.690
 6781W        W73564  24.612  30.216   0.601
 6782W        W73565  43.264   2.229  11.486
 6783W        W73566  32.127  34.590  11.147
 6784W        W73567  38.000  21.686  10.680
 6785W        W73568  27.168  16.263  13.828
 6786W        W73569  23.197  26.067   1.874
 6787W        W73570   6.286  34.044  11.876
 6788W        W73571   5.941  18.113  12.603
 6789W        W73572  14.744  19.302   3.343
 6790W        W73573  33.331  15.666  13.395
 6791W        W73574  32.450  12.383   0.970
 6792W        W73575  17.417  13.882   0.994
 6793W        W73576  16.265  10.281   0.797
 6794W        W73577  14.576   7.864   3.364
 6795W        W73578   6.520  33.991  12.843
 6796W        W73579  14.851  24.781   1.831
 6797W        W73580  28.488  38.279  10.926
 6798W        W73581  18.739  35.493   1.633
 6799W        W73582   5.986  17.596   2.857
 6800W        W73583   6.843  26.180   0.963
 6801W        W73584  20.062  14.127   4.075
 6802W        W73585   5.176  11.037   2.483
 6803W        W73586  39.409  23.271  12.409
 6804W        W73587  21.151  16.574  11.705
 6805W        W73588  40.737  26.039  11.680
 6806W        W73589   5.588  11.827   3.671
 6807W        W73590  16.192  33.494   0.337
 6808W        W73591  42.478  10.961   4.629
 6809W        W73592  12.099   7.271   1.734
 6810W        W73593   6.955  11.107  11.078
 6811W        W73594  13.122  15.031   0.724
 6812W        W73595  41.376  40.533   0.257
 6813W        W73596  32.941   2.946  13.976
 6814W        W73597  38.434  41.756  13.601
 6815W        W73598  37.048  18.047   2.162
 6816W        W73599  31.591   0.038  13.864
 6817W        W73600  44.546   0.862   4.143
 6818W        W73601  39.975   1.659  11.604
 6819W        W73602  32.546  26.535  10.611
 6820W        W73603  25.698  10.824  12.059
 6821W        W73604  28.442  43.568  14.397
 6822W        W73605  38.330  12.659   1.358
 6823W        W73606  23.054  40.224   4.627
 6824W        W73607  26.177   7.702   0.443
 6825W        W73608  34.056  17.546  12.079
 6826W        W73609  15.858  37.457   1.696
 6827W        W73610  44.822  22.108   1.715
 6828W        W73611  38.287   9.107   0.287
 6829W        W73612  36.184  36.854   4.071
 6830W        W73613  14.902  41.602   4.268
 6831W        W73614  19.932  42.193   3.205
 6832W        W73615   8.642  18.145   3.559
 6833W        W73616   2.486  25.491   2.745
 6834W        W73617  29.934  21.222  10.597
 6835W        W73618   8.586  32.483  13.944
 6836W        W73619   9.120  15.583   1.786
 6837W        W73620   7.301   8.412  12.941
 6838W        W73621  13.640  28.712  12.144
 6839W        W73622  26.235  38.423  14.224
 6840W        W73623  10.354  43.992   2.757
 6841W        W73624  20.631  12.629  14.178
 6842W        W73625  28.114  34.530  12.079
 6843W        W73626  35.331  41.179  14.026
 6844W        W73627  25.965   3.307   0.670
 6845W        W73628  34.156  32.879   2.403
 6846W        W73629  13.121  19.726  14.088
 6847W        W73630   1.747  24.237   1.852
 6848W        W73631  31.222  18.147  10.714
 6849W        W73632  12.411  15.041   2.149
 6850W        W73633   5.878  17.301   2.451
 6851W        W73634   0.197  38.368   4.505
 6852W        W73635  11.607  17.942   4.936
 6853W        W73636   1.343  34.205   1.781
 6854W        W73637  32.094   1.582  12.487
 6855W        W73638  24.420  35.495  13.037
 6856W        W73639  33.698  35.002   0.408
 6857W        W73640  13.360  18.300   2.698
 6858W        W73641   6.087  33.697   4.031
 6859W        W73642  33.834  27.230   3.192
 6860W        W73643  19.686  30.263   1.431
 6861W        W73644  39.735  33.411  11.563
 6862W        W73645  29.486   5.874   0.894
 6863W        W73646   6.724  39.024  10.930
 6864W        W73647  43.260   8.578   0.637
 6865W        W73648  34.004  21.410  12.490
 6866W        W73649  19.644  17.124  13.535
 6867W        W73650  39.158  13.920  10.644
 6868W        W73651  26.345  42.051  12.042
 6869W        W73652  37.937  42.827  14.942
 6870W        W73653  42.367  35.933  13.900
 6871W        W73654  10.147   5.329   1.157
 6872W        W73655  28.519  39.226   2.458
 6873W        W73656  37.634  25.196   1.799
 6874W        W73657   7.967  28.587  14.773
 6875W        W73658  11.867  28.232   0.791
 6876W        W73659   4.953  26.702   4.138
 6877W        W73660  27.988   5.188  10.696
 6878W        W73661  11.795   4.826  10.659
 6879W        W73662  14.853  34.039   3.738
 6880W        W73663  42.366  22.725  11.823
 6881W        W73664  32.059   0.365  13.899
 6882W        W73665  17.486  23.560   2.342
 6883W        W73666  15.178  33.083   1.814
 6884W        W73667   8.219  26.372  10.546
 6885W        W73668  41.807  36.784  11.916
 6886W        W73669  20.993  28.228   2.320
 6887W        W73670  35.057  35.112  12.081
 6888W        W73671  43.305  23.772  14.969
 6889W        W73672   0.260  17.513  12.927
 6890W        W73673  22.612   8.263   3.698
 6891W        W73674  28.940   8.882   4.296
 6892W        W73675   5.171  17.854   3.257
 6893W        W73676  11.214   0.297  10.755
 6894W        W73677  32.988  35.624  13.348
 6895W        W73678   0.183   0.796  13.078
 6896W        W73679   6.126  42.820   4.213
 6897W        W73680  15.571   1.491   2.867
 6898W        W73681   4.782   5.781   2.798
 6899W        W73682  19.291   6.460   2.837
 6900W        W73683  43.462  34.069   4.616
 6901W        W73684  19.086  29.495  14.241
 6902W        W73685  41.965  40.854  11.067
 6903W        W73686  32.953  36.367   2.884
 6904W        W73687   7.240  41.329  12.771
 6905W        W73688   9.623   6.451   2.915
 6906W        W73689  39.961  11.744   2.593
 6907W        W73690  27.234  29.158   2.768
 6908W        W73691  11.849  39.297  12.599
 6909W        W73692  18.923  17.546  12.183
 6910W        W73693   3.282  26.916   3.200
 6911W        W73694  35.923  30.090  10.619
 6912W        W73695  42.845  36.376  13.332
 6913W        W73696   4.205  37.589  14.786
 6914W        W73697   2.223  21.927  11.097
 6915W        W73698   3.670  32.666  13.036
 6916W        W73699  14.694  27.012   2.863
 6917W        W73700  42.941  34.879   2.211
 6918W        W73701   5.794  17.581  14.791
 6919W        W73702  24.627  39.449   4.534
 6920W        W73703   4.449  12.684   4.145
 6921W        W73704   4.863  38.308   0.258
 6922W        W73705  13.278  21.231  12.176
 6923W        W73706  19.143  34.702  14.056
 6924W        W73707   3.927   3.322  12.955
 6925W        W73708  12.195  27.413  11.102
 6926W        W73709   8.705  41.329  12.047
 6927W        W73710  34.126  29.154  13.579
 6928W        W73711   4.455  30.468  11.032
 6929W        W73712  19.272  43.939  14.396
 6930W        W73713   6.402  17.841   3.415
 6931W        W73714  14.295  44.184  14.281
 6932W        W73715  12.568  24.630   3.291
 6933W        W73716  33.452  11.317   1.950
 6934W        W73717  17.233  43.375   2.767
 6935W        W73718  24.784   9.787   2.789
 6936W        W73719   0.435  35.541   1.697
 6937W        W73720  28.573  17.604  12.379
 6938W        W73721  40.464  36.662  12.984
 6939W        W73722  34.323  18.180   0.101
 6940W        W73723  44.021  27.556  12.526
 6941W        W73724   0.516  31.525  11.522
 6942W        W73725   1.785  44.565  10.934
 6943W        W73726  39.832  13.893   3.753
 6944W        W73727  38.103  23.496  12.618
 6945W        W73728  37.418   9.761   4.541
 6946W        W73729   2.567  17.862  13.000
 6947W        W73730  23.486  15.834   2.338
 6948W        W73731   4.207  17.195   4.745
 6949W        W73732   7.307  16.634  11.640
 6950W        W73733  10.465  35.634  11.860
 6951W        W73734   2.884  40.510  14.216
 6952W        W73735  42.685  12.121  13.449
 6953W        W73736  26.215  14.669   2.682
 6954W        W73737  38.165  10.028  12.449
 6955W        W73738  34.760  44.806   2.310
 6956W        W73739   5.219  41.865   0.794
 6957W        W73740  44.739  18.152   2.259
 6958W        W73741  25.481  28.155   3.393
 6959W        W73742  31.024  17.097  12.592
 6960W        W73743  33.613   8.420   2.677
 6961W        W73744  10.192  12.621   1.917
 6962W        W73745  39.113  44.876  12.999
 6963W        W73746  37.859   0.690  13.475
 6964W        W73747  16.700  42.133  14.793
 6965W        W73748  22.245  25.251  14.099
 6966W        W73749   8.460   3.377   2.860
 6967W        W73750  30.109  31.442   4.262
 6968W        W73751  10.863  11.014   3.254
 6969W        W73752  39.880  19.649  13.627
 6970W        W73753  27.713   2.865  14.532
 6971W        W73754   3.276  21.182   0.831
 6972W        W73755   9.167   2.693  13.811
 6973W        W73756  12.772   9.405  10.745
 6974W        W73757  23.741  16.236   1.250
 6975W        W73758  22.583  14.568   0.738
 6976W        W73759   5.314  12.524   1.231
 6977W        W73760  28.805  15.864   1.685
 6978W        W73761  18.673  33.919   0.547
 6979W        W73762  13.675  25.987   0.139
 6980W        W73763  44.057   4.746  11.018
 6981W        W73764  12.839   7.736   1.869
 6982W        W73765  34.276  43.402  11.048
 6983W        W73766  27.111  35.889  11.121
 6984W        W73767   6.883  27.584  13.737
 6985W        W73768   2.013  11.691  13.454
 6986W        W73769  44.626  13.299   0.743
 6987W        W73770   4.221  39.548  12.402
 6988W        W73771  25.596  19.476   4.835
 6989W        W73772   5.403  33.386   1.618
 6990W        W73773  19.088  33.531  14.534
 6991W        W73774  26.567  18.351  12.914
 6992W        W73775  13.158  21.481   3.149
 6993W        W73776  24.120   4.805  11.978
 6994W        W73777  22.101  15.397  11.543
 6995W        W73778   3.976  17.506  14.452
 6996W        W73779  38.395  28.263  12.498
 6997W        W73780  26.938  20.498  12.560
 6998W        W73781  32.423   3.255   3.666
 6999W        W73782  20.147   6.166  13.466
 7000W        W73783  13.937   5.814   2.368
 7001W        W73784   1.822  42.324  11.587
 7002W        W73785  44.261   2.160  11.502
 7003W        W73786  38.832   5.918   2.902
 7004W        W73787  13.383  25.176  11.118
 7005W        W73788  32.913   7.919   3.159
 7006W        W73789  34.064  32.345   4.158
 7007W        W73790   8.296  36.135   4.138
 7008W        W73791   2.851  29.198  13.543
 7009W        W73792   8.853  11.718   0.023
 7010W        W73793  31.233   5.326   1.933
 7011W        W73794   0.828  28.130  11.188
 7012W        W73795  18.256  28.402  14.806
 7013W        W73796   8.176  38.087   1.655
 7014W        W73797   0.340  16.350  12.167
 7015W        W73798   2.293  17.485  14.924
 7016W        W73799  11.689  42.946  10.446
 7017W        W73800  20.179  23.442  14.408
 7018W        W73801  29.606   5.352   3.346
 7019W        W73802  44.252  13.161  13.368
 7020W        W73803  12.810  29.669  14.935
 7021W        W73804  41.506  23.087   0.917
 7022W        W73805  33.369  18.606  13.928
 7023W        W73806  32.345  34.640  13.835
 7024W        W73807  19.650   4.633  11.361
 7025W        W73808  24.502  17.100   2.184
 7026W        W73809   7.972  33.201  12.077
 7027W        W73810  10.350   6.744  11.238
 7028W        W73811   2.752  10.223   0.777
 7029W        W73812  31.372  35.932  10.437
 7030W        W73813  34.578  27.040   0.891
 7031W        W73814  41.210  27.605  14.027
 7032W        W73815  16.270  24.111   0.404
 7033W        W73816  10.331  14.199   3.264
 7034W        W73817  28.661  31.154  12.986
 7035W        W73818  23.226   6.977   4.950
 7036W        W73819  32.399  10.768  12.862
 7037W        W73820  24.148  34.073   3.720
 7038W        W73821   3.299  43.321  13.396
 7039W        W73822  14.011  17.079   4.578
 7040W        W73823   0.529  12.790  11.948
 7041W        W73824  16.623  19.663   2.820
 7042W        W73825   9.287  22.204   2.098
 7043W        W73826   9.345  44.206   0.352
 7044W        W73827  20.362  18.790   0.282
 7045W        W73828  31.923  13.194  10.606
 7046W        W73829  37.307  21.770   2.306
 7047W        W73830  26.976   8.140   2.939
 7048W        W73831   5.285  33.972   2.815
 7049W        W73832  23.450  43.020  11.536
 7050W        W73833  10.348   2.384  14.897
 7051W        W73834   9.943  26.557   4.793
 7052W        W73835   2.383  37.038  12.698
 7053W        W73836  11.166  23.028   4.551
 7054W        W73837  30.022   1.458  10.693
 7055W        W73838   7.970   0.824  13.532
 7056W        W73839  15.846   9.172  12.440
 7057W        W73840  26.147   0.519  12.521
 7058W        W73841  10.392   6.911  10.322
 7059W        W73842  12.043  34.515  13.360
 7060W        W73843  11.672   4.779  14.116
 7061W        W73844  14.268  21.427   4.871
 7062W        W73845   7.164  36.381   4.966
 7063W        W73846  22.821  16.580   3.705
 7064W        W73847   9.217  39.884  13.352
 7065W        W73848  27.155  20.182   1.319
 7066W        W73849   5.205   9.912   1.311
 7067W        W73850  44.317  18.806  14.438
 7068W        W73851  26.631   9.080  14.929
 7069W        W73852   9.411  36.724   3.209
 7070W        W73853  24.457   3.489   3.249
 7071W        W73854  31.564   0.532  13.811
 7072W        W73855  39.364  42.987  13.698
 7073W        W73856  28.474  20.079   4.866
 7074W        W73857  17.002  36.291  14.234
 7075W        W73858   5.789  30.977  13.776
 7076W        W73859  15.550   2.147   4.147
 7077W        W73860  19.166  28.742  10.516
 7078W        W73861  39.647  32.531   3.779
 7079W        W73862  28.081  44.758   0.339
 7080W        W73863  43.000  28.604  12.907
 7081W        W73864  15.480   3.415   1.285
 7082W        W73865  38.604  16.698  12.858
 7083W        W73866  36.377  27.838   2.740
 7084W        W73867   6.279  11.733  11.533
 7085W        W73868  12.340   0.325  12.209
 7086W        W73869  34.508  24.204  11.455
 7087W        W73870  13.100  16.058  12.188
 7088W        W73871   5.192  28.092  14.948
 7089W        W73872  23.777   8.257   0.656
 7090W        W73873  33.605  24.115   4.668
 7091W        W73874  27.991  13.001  12.848
 7092W        W73875   3.393  42.838   2.953
 7093W        W73876  44.905  42.129   2.029
 7094W        W73877  16.757  34.446   0.949
 7095W        W73878  14.015   3.207  13.847
 7096W        W73879   5.689  22.522  14.425
 7097W        W73880  35.517  37.536   4.553
 7098W        W73881  38.116  12.315  11.182
 7099W        W73882   2.637  44.778   0.336
 7100W        W73883   9.130  12.255   1.387
 7101W        W73884  31.201  30.072  13.326
 7102W        W73885   0.680  24.833  11.738
 7103W        W73886  27.449  14.737   4.600
 7104W        W73887  18.366  22.173  11.927
 7105W        W73888  13.527   5.866  14.574
 7106W        W73889  33.194  17.213   4.072
 7107W        W73890   4.684   5.301  10.628
 7108W        W73891  42.021   9.318  11.671
 7109W        W73892  23.543   4.867   2.858
 7110W        W73893   9.277  25.094  11.985
 7111W        W73894  30.952   5.932  12.923
 7112W        W73895   6.798  22.658  10.825
 7113W        W73896  35.892  40.356  13.880
 7114W        W73897  15.878   8.847  12.832
 7115W        W73898  15.087  24.927  13.360
 7116W        W73899   0.685  10.706   1.641
 7117W        W73900   2.185  17.212   3.762
 7118W        W73901  13.794  12.655  14.486
 7119W        W73902  24.221  35.986   1.469
 7120W        W73903  24.447  20.696   1.369
 7121W        W73904  33.030   5.464  14.396
 7122W        W73905  13.263  38.122  10.649
 7123W        W73906  31.478  27.674  14.380
 7124W        W73907   5.314  30.577  10.744
 7125W        W73908   3.830  38.578   4.645
 7126W        W73909  40.594   1.990  10.803
 7127W        W73910  17.766   8.833  11.365
 7128W        W73911  16.209  32.648   3.568
 7129W        W73912  33.061   2.444   3.803
 7130W        W73913  42.861  42.690  10.602
 7131W        W73914  37.486  30.963   3.564
 7132W        W73915  21.510  31.048  10.771
 7133W        W73916  18.453  22.092  13.914
 7134W        W73917   0.750  41.146   1.880
 7135W        W73918   3.759  23.761  13.379
 7136W        W73919   5.218  24.827  13.924
 7137W        W73920  25.486  22.216  13.551
 7138W        W73921  33.232   4.291   2.818
 7139W        W73922  18.063   0.704   4.741
 7140W        W73923  10.677   0.227   2.785
 7141W        W73924  34.644  20.688   3.738
 7142W        W73925  34.682  16.296   3.073
 7143W        W73926  11.973  32.187   0.407
 7144W        W73927  15.893  24.929  13.030
 7145W        W73928   3.881  38.277  13.567
 7146W        W73929  42.245  23.570  13.503
 7147W        W73930  10.874  28.621   2.259
 7148W        W73931  27.743  30.104  14.954
 7149W        W73932  22.291   9.438   1.856
 7150W        W73933  41.521   6.667  11.047
 7151W        W73934  17.741  23.946   4.192
 7152W        W73935  23.658  32.794  10.664
 7153W        W73936  21.533  12.172  12.614
 7154W        W73937  16.316   1.344   4.134
 7155W        W73938  27.499  18.355   2.296
 7156W        W73939  43.353  40.731  13.823
 7157W        W73940  23.076  18.336  13.834
 7158W        W73941  34.632   4.380  14.769
 7159W        W73942  14.132  35.937   1.268
 7160W        W73943   6.192  27.786   2.285
 7161W        W73944  39.079   0.185   5.086
 7162W        W73945  24.241  36.426   2.697
 7163W        W73946  42.250   9.231  14.288
 7164W        W73947  43.030   5.419  12.740
 7165W        W73948   0.557  43.760   3.013
 7166W        W73949  34.410  16.735   1.928
 7167W        W73950  21.663  29.731  14.698
 7168W        W73951  23.174  18.306   1.673
 7169W        W73952  39.639   2.038  11.511
 7170W        W73953  13.567  22.977   3.753
 7171W        W73954   9.956  39.839  11.421
 7172W        W73955   4.468  24.037   3.611
 7173W        W73956  38.936  36.914  13.879
 7174W        W73957  39.433  18.285   1.850
 7175W        W73958  26.033  33.584  12.555
 7176W        W73959   7.927  17.195  11.177
 7177W        W73960  14.097  32.872  13.271
 7178W        W73961   0.780  33.987   0.444
 7179W        W73962  13.621  32.820   2.788
 7180W        W73963  15.338  39.307  11.458
 7181W        W73964  20.721  20.164  12.523
 7182W        W73965  41.254  16.638  11.984
 7183W        W73966  13.303  13.840   1.762
 7184W        W73967  41.222  13.910  12.935
 7185W        W73968  44.423  44.907   2.165
 7186W        W73969  26.656  37.861  13.604
 7187W        W73970  25.975   7.799  12.056
 7188W        W73971   3.300   1.808  14.663
 7189W        W73972  10.258  30.082   3.689
 7190W        W73973  42.436  24.982   3.559
 7191W        W73974  23.187  10.340   3.311
 7192W        W73975  43.257  44.161  13.437
 7193W        W73976   1.742  28.654  11.173
 7194W        W73977  11.326  31.880   4.209
 7195W        W73978  41.860  25.627  12.365
 7196W        W73979   9.819  38.292  12.913
 7197W        W73980   2.913  21.844  12.575
 7198W        W73981  25.701   8.667  14.274
 7199W        W73982  21.424   1.931   1.807
 7200W        W73983  33.150  33.703  12.946
 7201W        W73984  31.970  33.440  14.339
 7202W        W73985  40.939  14.329  13.092
 7203W        W73986  31.445  33.956  14.616
 7204W        W73987  37.452  34.504   2.671
 7205W        W73988  23.106  35.029  12.500
 7206W        W73989   5.659   1.404   2.317
 7207W        W73990  29.738   0.848   0.777
 7208W        W73991  29.437  42.030   4.808
 7209W        W73992   4.761   1.300  13.041
 7210W        W73993  10.803   1.170   2.387
 7211W        W73994  18.377  14.700   1.690
 7212W        W73995  20.476   2.749  13.574
 7213W        W73996  39.542   5.850  11.530
 7214W        W73997  16.350  37.915  10.637
 7215W        W73998   5.675  27.923  13.475
 7216W        W73999  22.195  37.317  13.388
 7217W        W74000   6.141  10.774  14.539
 7218W        W74001  40.599  11.918   0.044
 7219W        W74002  35.001  17.632  12.895
 7220W        W74003  11.091  32.961  12.665
 7221W        W74004  25.514  19.820   0.812
 7222W        W74005  30.586  27.502   2.426
 7223W        W74006  31.990  12.682   4.661
 7224W        W74007  11.162  29.878  11.510
 7225W        W74008  43.092   5.770  13.981
 7226W        W74009  30.944  31.930   2.610
 7227W        W74010   0.277   1.020  11.180
 7228W        W74011  24.735  27.460   4.133
 7229W        W74012  37.951   9.206   0.892
 7230W        W74013  33.296   7.930   0.178
 7231W        W74014  28.161  29.628  11.402
 7232W        W74015   3.874  42.954   2.239
 7233W        W74016  42.391  20.434  14.427
 7234W        W74017  37.259  34.524  13.058
 7235W        W74018  19.169  11.336   3.425
 7236W        W74019  34.406  40.959   4.213
 7237W        W74020  19.039  25.071   2.791
 7238W        W74021  37.540  36.080   3.118
 7239W        W74022   8.661  25.592  10.286
 7240W        W74023  38.828  30.128  11.975
 7241W        W74024  38.893  12.858  14.282
 7242W        W74025  33.953  32.872   3.283
 7243W        W74026  33.677  31.935  13.059
 7244W        W74027   1.856  36.413   3.663
 7245W        W74028   5.189   1.784   0.730
 7246W        W74029   5.764  33.008   2.111
 7247W        W74030  11.307   7.415  12.039
 7248W        W74031  31.373   2.803  13.850
 7249W        W74032   0.718  37.077   1.814
 7250W        W74033  17.356  23.548   4.963
 7251W        W74034   3.920  40.738   1.772
 7252W        W74035  15.869   9.813  12.863
 7253W        W74036  28.628  16.686   2.152
 7254W        W74037   6.611  10.625   4.043
 7255W        W74038   0.717   7.996  14.396
 7256W        W74039   4.054  17.302   1.906
 7257W        W74040  36.301   7.400  12.595
 7258W        W74041  42.076  23.597   0.380
 7259W        W74042  26.492   7.162  13.045
 7260W        W74043   3.369   2.012  11.641
 7261W        W74044  44.901  31.870  12.715
 7262W        W74045  30.708  44.530  13.780
 7263W        W74046   4.242  32.047   4.887
 7264W        W74047  18.533  18.130   3.068
 7265W        W74048  23.691  14.126  13.616
 7266W        W74049  14.602  24.010   2.763
 7267W        W74050  31.500  28.934   2.194
 7268W        W74051   9.454   9.318  13.378
 7269W        W74052  32.907  39.585  14.852
 7270W        W74053  38.161  28.627   1.908
 7271W        W74054   0.255  29.845   0.347
 7272W        W74055   6.671  24.439   0.335
 7273W        W74056  30.466  41.317  13.313
 7274W        W74057  24.103  18.130   0.742
 7275W        W74058  28.164  15.249   4.712
 7276W        W74059  17.844  33.196   4.111
 7277W        W74060  19.001  39.891  11.546
 7278W        W74061  22.348   7.271   0.390
 7279W        W74062  25.933  23.116   4.721
 7280W        W74063  17.265  33.893   2.297
 7281W        W74064  38.963  32.416  13.911
 7282W        W74065   0.408   7.984   1.215
 7283W        W74066  10.479  38.539   1.502
 7284W        W74067  16.643  23.821  11.830
 7285W        W74068  10.183  21.160  10.483
 7286W        W74069  40.585   7.830   4.203
 7287W        W74070  25.734  20.279  14.312
 7288W        W74071   3.554  26.471   2.050
 7289W        W74072   2.243  15.122  13.415
 7290W        W74073  26.896  36.348   0.251
 7291W        W74074   3.636  20.193   1.219
 7292W        W74075  21.807  29.361   1.787
 7293W        W74076  23.989  39.882  12.075
 7294W        W74077  26.663  15.707   3.149
 7295W        W74078  18.782  10.109  10.406
 7296W        W74079   7.880  20.305  11.159
 7297W        W74080  36.905  24.517   0.800
 7298W        W74081   1.594  32.002  14.411
 7299W        W74082  44.401  28.142  13.176
 7300W        W74083  18.365  36.001  11.114
 7301W        W74084  14.199  24.489   0.833
 7302W        W74085   2.493  37.804   2.183
 7303W        W74086  24.903  39.776   3.963
 7304W        W74087  41.623  11.992   5.036
 7305W        W74088  27.611  24.831  12.259
 7306W        W74089  12.165  36.518   2.178
 7307W        W74090  26.192  37.769   2.870
 7308W        W74091  40.355  14.244  12.604
 7309W        W74092   4.634  36.446   1.037
 7310W        W74093  40.420   0.381   1.668
 7311W        W74094  29.106  30.354  14.010
 7312W        W74095   6.256   2.154   1.208
 7313W        W74096  38.882  17.774  12.945
 7314W        W74097  43.056   5.292  10.333
 7315W        W74098  26.217  33.433   1.195
 7316W        W74099  22.709  10.894  11.460
 7317W        W74100  11.964   5.046  12.937
 7318W        W74101   3.822  28.532   0.897
 7319W        W74102  21.630  32.433   2.355
 7320W        W74103   1.258   8.396  12.413
 7321W        W74104  34.425  15.601  11.523
 7322W        W74105   3.213  15.630   1.933
 7323W        W74106  39.415  31.094   3.652
 7324W        W74107  10.826   0.837  11.403
 7325W        W74108  13.711  15.391  10.721
 7326W        W74109  18.491  37.989  12.523
 7327W        W74110  32.512  38.435   0.515
 7328W        W74111  10.435  13.796  11.198
 7329W        W74112  36.604  14.010   4.668
 7330W        W74113  14.018  29.154   0.408
 7331W        W74114  41.101  41.706   3.383
 7332W        W74115  32.358   0.250   2.383
 7333W        W74116   1.268  35.599  14.358
 7334W        W74117   9.443  14.727   3.733
 7335W        W74118  34.637  44.383   2.576
 7336W        W74119  25.051  18.518  12.768
 7337W        W74120  26.267   0.921  13.378
 7338W        W74121  34.807   6.219  12.521
 7339W        W74122   4.854   4.315  14.915
 7340W        W74123  10.615  33.943  14.325
 7341W        W74124  16.220  10.822  12.090
 7342W        W74125   2.215  36.344   4.232
 7343W        W74126   6.721  25.711   3.227
 7344W        W74127  29.448  21.100   4.868
 7345W        W74128  12.861   2.208  12.001
 7346W        W74129   0.355   5.955   1.827
 7347W        W74130  43.749   2.160   1.433
 7348W        W74131  42.262  12.793  11.183
 7349W        W74132   9.927  11.802   1.368
 7350W        W74133   3.885  11.722  14.329
 7351W        W74134  13.311  16.013   2.661
 7352W        W74135   5.299  32.116  10.711
 7353W        W74136  26.104  31.649  12.360
 7354W        W74137  22.201  34.442  11.313
 7355W        W74138  33.289   1.026  13.114
 7356W        W74139  21.091  19.960  12.865
 7357W        W74140  11.744  15.335  12.538
 7358W        W74141  23.355  25.953  12.378
 7359W        W74142  20.304  21.115   3.602
 7360W        W74143  38.411   5.829   1.713
 7361W        W74144  39.354  44.822  12.534
 7362W        W74145  36.856  27.665   0.786
 7363W        W74146  36.356   9.228   0.729
 7364W        W74147  27.092  41.796   3.225
 7365W        W74148  11.111  26.726  14.950
 7366W        W74149  15.119  10.676   1.758
 7367W        W74150  14.535  25.964   3.697
 7368W        W74151   6.402  39.328  13.883
 7369W        W74152  28.890   6.231  14.787
 7370W        W74153   9.209  22.448  14.311
 7371W        W74154  34.504  25.070   3.634
 7372W        W74155   9.139   5.731   4.645
 7373W        W74156  13.307  29.861  10.869
 7374W        W74157   5.527  36.891  13.461
 7375W        W74158   8.379  28.226  12.043
 7376W        W74159  29.490  38.950   3.174
 7377W        W74160  15.722  20.674  12.604
 7378W        W74161  26.923  11.357  14.309
 7379W        W74162  41.896  15.894  13.943
 7380W        W74163   3.738  22.592   0.419
 7381W        W74164  44.829   1.457  13.639
 7382W        W74165  43.525   3.249  13.463
 7383W        W74166  30.295   8.827   5.029
 7384W        W74167  23.632  39.576   1.462
 7385W        W74168  16.323  29.468  11.047
 7386W        W74169   0.092  30.607   2.722
 7387W        W74170  23.558  19.069   4.121
 7388W        W74171   3.173  40.005   2.924
 7389W        W74172  32.543  43.761   3.716
 7390W        W74173  15.652  31.980   1.912
 7391W        W74174  28.209   7.324   2.252
 7392W        W74175  41.125  29.927   3.625
 7393W        W74176  28.938  14.212   1.268
 7394W        W74177  29.300   2.933  10.546
 7395W        W74178  18.544  20.560  12.373
 7396W        W74179   7.650  42.815   0.964
 7397W        W74180  35.163  44.197   4.281
 7398W        W74181   8.265   4.338  11.008
 7399W        W74182  42.502  16.296   3.658
 7400W        W74183  32.270   8.046   0.277
 7401W        W74184  10.835  13.997   3.283
 7402W        W74185  38.172  40.096  12.220
 7403W        W74186  34.523   1.505   0.645
 7404W        W74187  13.220  11.492   5.010
 7405W        W74188  29.870  16.612   4.827
 7406W        W74189  12.170   2.912   3.378
 7407W        W74190   8.186   5.936   0.750
 7408W        W74191  27.916  37.826  14.792
 7409W        W74192   9.296  23.296   3.304
 7410W        W74193   2.918   0.513  13.544
 7411W        W74194  23.271  19.135  11.031
 7412W        W74195  15.779  34.975  10.716
 7413W        W74196   1.400   2.725  14.835
 7414W        W74197   6.489   2.871   0.901
 7415W        W74198  18.781  42.483  13.743
 7416W        W74199  36.244   0.031  13.969
 7417W        W74200  21.524   0.260   3.704
 7418W        W74201  41.444  10.189   3.210
 7419W        W74202  16.556  43.380   0.550
 7420W        W74203  21.341  36.141   1.069
 7421W        W74204  26.773  44.367   0.216
 7422W        W74205  15.637  28.842  12.049
 7423W        W74206   5.961  28.365   2.365
 7424W        W74207  44.498  43.948   0.689
 7425W        W74208  29.056  27.977   4.207
 7426W        W74209  14.131  40.324   0.741
 7427W        W74210  17.013  16.217  13.086
 7428W        W74211  10.075  13.803  12.586
 7429W        W74212  34.230  34.053  12.959
 7430W        W74213  33.584  21.543   1.559
 7431W        W74214  35.588  23.679  14.866
 7432W        W74215  34.949   4.981   2.650
 7433W        W74216  42.441  18.658   3.174
 7434W        W74217  37.451  36.214   1.251
 7435W        W74218  18.207  20.182  12.393
 7436W        W74219  29.631  11.948   2.485
 7437W        W74220  20.679  39.119  14.278
 7438W        W74221   7.871  37.581   5.349
 7439W        W74222   7.195  19.481  12.509
 7440W        W74223   1.774  41.786   4.243
 7441W        W74224   1.004  43.466   2.291
 7442W        W74225  41.827  44.241  14.946
 7443W        W74226  11.368  40.442   3.073
 7444W        W74227  31.774   9.250  10.701
 7445W        W74228  24.639  11.162   3.208
 7446W        W74229  41.060   6.144   4.916
 7447W        W74230  43.766  42.870   2.681
 7448W        W74231   9.052  25.635  13.859
 7449W        W74232  33.439   4.364   3.287
 7450W        W74233  15.242  34.969   2.442
 7451W        W74234  44.250  10.169  14.671
 7452W        W74235   5.447  42.280   4.355
 7453W        W74236  20.706  44.708  10.892
 7454W        W74237  14.844  44.351  10.818
 7455W        W74238  40.626  16.198   3.700
 7456W        W74239  16.723   5.723  14.556
 7457W        W74240   1.697  18.170   3.790
 7458W        W74241  28.423  37.571   3.219
 7459W        W74242  14.404  18.404  13.271
 7460W        W74243   2.670  24.052  11.570
 7461W        W74244  22.243  25.596   3.568
 7462W        W74245   8.455  38.475  11.327
 7463W        W74246  33.212  37.566   0.929
 7464W        W74247  32.460   9.639   2.419
 7465W        W74248  26.926  31.120   1.119
 7466W        W74249   7.672  15.565  12.510
 7467W        W74250  33.121  23.565   2.789
 7468W        W74251  14.180  40.518  14.265
 7469W        W74252   2.516   9.754   0.875
 7470W        W74253  32.134  35.815   1.665
 7471W        W74254   5.020  26.216   1.311
 7472W        W74255   4.222  13.744  11.571
 7473W        W74256  28.126  23.590  12.126
 7474W        W74257   9.184   9.825   0.626
 7475W        W74258  29.580  17.715   2.669
 7476W        W74259   6.967  34.842  12.117
 7477W        W74260  26.060   6.039  11.058
 7478W        W74261  16.590  38.085   0.496
 7479W        W74262  38.040  26.633  11.921
 7480W        W74263  17.263  24.565   9.929
 7481W        W74264  33.356  21.123  14.587
 7482W        W74265  15.764   5.766   3.431
 7483W        W74266   1.558  15.401   3.686
 7484W        W74267  44.946  41.895  11.716
 7485W        W74268  12.744  42.878  14.546
 7486W        W74269  15.630  15.610  12.841
 7487W        W74270  21.207  23.097   3.432
 7488W        W74271   5.675  19.257   2.212
 7489W        W74272  14.647  33.659  14.441
 7490W        W74273  33.534  13.888  13.876
 7491W        W74274  44.606  35.421   3.842
 7492W        W74275  14.008  12.850  10.207
 7493W        W74276  34.877  14.581   4.022
 7494W        W74277  35.062  22.130  12.839
 7495W        W74278  13.744   2.702   2.288
 7496W        W74279  11.784  35.102  12.034
 7497W        W74280  39.582   4.886   1.324
 7498W        W74281   6.366  40.581  14.286
 7499W        W74282  25.357  21.258  10.352
 7500W        W74283   0.287  31.494  14.308
 7501W        W74284   7.333  39.609   2.786
 7502W        W74285  20.034  28.489  13.950
 7503W        W74286   1.324  27.387   2.639
 7504W        W74287   5.899   2.482   3.323
 7505W        W74288  12.137  10.672   2.269
 7506W        W74289  42.078  24.980  12.959
 7507W        W74290  12.559  12.616  13.943
 7508W        W74291  20.524  19.669   4.354
 7509W        W74292  44.785   2.191  11.572
 7510W        W74293  14.326   9.049  10.787
 7511W        W74294  32.899  23.967  14.354
 7512W        W74295  18.170  31.933   2.376
 7513W        W74296  26.976  31.120  12.382
 7514W        W74297  17.162   8.952   3.635
 7515W        W74298  23.980  11.772  12.548
 7516W        W74299  40.061  28.178  12.481
 7517W        W74300  22.420  42.787  12.524
 7518W        W74301  41.862  21.776  12.453
 7519W        W74302  30.590  14.093   1.853
 7520W        W74303  20.346   9.385   2.675
 7521W        W74304  36.469  32.823   1.310
 7522W        W74305  17.040  35.467  10.602
 7523W        W74306  31.654   9.103   3.993
 7524W        W74307  13.691  27.612   3.314
 7525W        W74308  33.191  35.164  12.392
 7526W        W74309  22.477  21.325  11.963
 7527W        W74310  16.020   3.357  12.571
 7528W        W74311  17.753  24.658  11.865
 7529W        W74312   1.095  11.055  11.737
 7530W        W74313   7.290  31.170   1.669
 7531W        W74314   5.337  19.671   0.530
 7532W        W74315  40.606   8.438  14.778
 7533W        W74316  37.633  14.437   1.027
 7534W        W74317  34.145  43.141  13.195
 7535W        W74318   4.317  15.846   3.467
 7536W        W74319  20.738  22.693  10.559
 7537W        W74320  16.680  22.737  10.594
 7538W        W74321   2.942  25.630   0.859
 7539W        W74322  19.009  22.159   2.168
 7540W        W74323  26.294  11.902   5.050
 7541W        W74324   7.451  34.405  12.933
 7542W        W74325   8.896  35.376  12.960
 7543W        W74326  29.489  43.188   3.690
 7544W        W74327  27.699  10.984   0.869
 7545W        W74328  44.354  17.093  14.865
 7546W        W74329  28.338  24.970  11.082
 7547W        W74330   4.720  37.785  13.921
 7548W        W74331  32.636  42.904   4.777
 7549W        W74332  27.662  15.550  14.226
 7550W        W74333  34.257  26.113  13.975
 7551W        W74334  44.044  34.947   0.445
 7552W        W74335  14.263   7.931  14.019
 7553W        W74336   2.041  34.921   3.687
 7554W        W74337  15.421  23.321   0.764
 7555W        W74338  12.073  31.009  13.093
 7556W        W74339  24.436  43.890  14.841
 7557W        W74340   6.241  23.220  14.281
 7558W        W74341  17.761   8.861   4.612
 7559W        W74342   3.738  29.117  13.629
 7560W        W74343  24.715  39.841   0.640
 7561W        W74344  31.302  29.645  12.688
 7562W        W74345  13.626   2.429  13.823
 7563W        W74346  27.318  12.892  12.979
 7564W        W74347  28.981  18.485  13.832
 7565W        W74348  29.069  13.617  10.420
 7566W        W74349  11.120  22.003   2.819
 7567W        W74350  36.642   9.294  13.942
 7568W        W74351  27.091  33.557  13.540
 7569W        W74352  12.849  36.524  12.761
 7570W        W74353  35.844   4.160   0.382
 7571W        W74354   2.955  12.321  12.857
 7572W        W74355  39.470  35.295  11.533
 7573W        W74356  21.534   6.815   3.189
 7574W        W74357  16.309  12.464  10.732
 7575W        W74358  12.610  38.551  13.488
 7576W        W74359  35.945  35.078   2.811
 7577W        W74360  37.491   2.545  12.061
 7578W        W74361   9.297   9.642   1.140
 7579W        W74362  40.335  33.331  14.346
 7580W        W74363  34.264  28.500   2.211
 7581W        W74364  37.131  33.413   0.817
 7582W        W74365  10.254  31.894   2.663
 7583W        W74366  38.016   3.461   3.150
 7584W        W74367  30.701  24.061   4.831
 7585W        W74368   8.220  18.151  14.696
 7586W        W74369  34.393   5.474   1.086
 7587W        W74370  21.925   8.609  13.084
 7588W        W74371  22.277  12.653  10.243
 7589W        W74372  35.476  24.670   4.405
 7590W        W74373  15.755   1.723  14.394
 7591W        W74374  33.099  30.626   2.349
 7592W        W74375  43.984  16.012   0.836
 7593W        W74376   2.183  26.529   3.778
 7594W        W74377  34.086  33.354  11.700
 7595W        W74378  38.891  42.447   0.762
 7596W        W74379   5.967  16.671  11.630
 7597W        W74380  25.129  12.806  11.619
 7598W        W74381  27.947  35.781  11.621
 7599W        W74382   7.414  10.627   0.724
 7600W        W74383  42.715  26.124  11.162
 7601W        W74384  34.303  11.370  14.687
 7602W        W74385  13.319  39.776  10.976
 7603W        W74386  12.758   6.343  14.605
 7604W        W74387  12.409  11.360   4.072
 7605W        W74388  32.503  30.956  14.309
 7606W        W74389   5.275   0.509   1.404
 7607W        W74390  12.674  14.485   0.825
 7608W        W74391  11.672   9.591  13.456
 7609W        W74392  10.874  34.043   3.701
 7610W        W74393  35.429   3.925   4.578
 7611W        W74394  28.486  37.928   0.510
 7612W        W74395  11.711  36.455  13.329
 7613W        W74396   8.144  34.350  11.642
 7614W        W74397  21.530  14.634   4.976
 7615W        W74398  42.329  28.512   3.603
 7616W        W74399  23.713  36.495   3.802
 7617W        W74400  39.083  40.918  12.863
 7618W        W74401  22.524  14.564  11.898
 7619W        W74402  22.766  21.460   2.738
 7620W        W74403  39.525   8.789   4.190
 7621W        W74404  19.031   6.827   4.567
 7622W        W74405  22.459  40.021   2.247
 7623W        W74406  40.638  13.745  12.593
 7624W        W74407  33.683  32.654   5.036
 7625W        W74408  27.055  40.372   0.641
 7626W        W74409  41.793  23.792   4.080
 7627W        W74410  27.040  30.198   2.967
 7628W        W74411  40.142  16.389  10.702
 7629W        W74412  29.152  17.572   2.381
 7630W        W74413  44.972   2.806  14.358
 7631W        W74414  18.991  19.168  13.329
 7632W        W74415  39.824  42.841  13.322
 7633W        W74416  15.168  32.263  10.669
 7634W        W74417  25.076  15.598  14.408
 7635W        W74418   0.756  33.068   0.450
 7636W        W74419  36.996  17.126   0.014
 7637W        W74420  41.985  37.524  10.484
 7638W        W74421  24.824   6.077   5.166
 7639W        W74422   0.668  41.513   1.398
 7640W        W74423  43.738  29.062   3.561
 7641W        W74424  19.479  16.298  11.817
 7642W        W74425  11.798  15.086  13.856
 7643W        W74426   8.381  20.489  11.215
 7644W        W74427  18.610  41.738  14.420
 7645W        W74428  43.868  26.019   4.534
 7646W        W74429  19.594  38.613   2.185
 7647W        W74430  44.437  11.049   4.110
 7648W        W74431  18.309  24.167  12.986
 7649W        W74432  22.112  10.205   3.426
 7650W        W74433  34.578  16.159   3.552
 7651W        W74434  10.271  17.402   2.623
 7652W        W74435  30.137  17.806   4.015
 7653W        W74436  33.917  34.930   4.404
 7654W        W74437   9.059   2.111   4.250
 7655W        W74438  22.707  41.386  14.855
 7656W        W74439  39.914  26.232   4.597
 7657W        W74440  19.220  43.402  14.376
 7658W        W74441  23.514   7.399   4.169
 7659W        W74442  39.083  33.557   0.751
 7660W        W74443  20.318  24.269   0.472
 7661W        W74444  16.169  19.089   1.639
 7662W        W74445   3.244  11.833   2.299
 7663W        W74446  44.264  28.711  14.986
 7664W        W74447  16.532  32.813  13.095
 7665W        W74448  43.337  11.034   2.714
 7666W        W74449  34.925  11.430   4.074
 7667W        W74450  35.773   6.530   0.839
 7668W        W74451  25.766  10.736  13.512
 7669W        W74452  23.478  15.561   1.892
 7670W        W74453  19.524  19.814   4.096
 7671W        W74454   4.419  14.305  14.053
 7672W        W74455   3.172  18.111   4.532
 7673W        W74456  18.118  10.315  10.749
 7674W        W74457  38.358  14.648  13.821
 7675W        W74458  32.872   3.985  11.127
 7676W        W74459  18.765  16.068   0.742
 7677W        W74460  28.035  34.463   0.273
 7678W        W74461  32.079  18.823  11.727
 7679W        W74462  44.504  19.285  13.840
 7680W        W74463   2.952  34.838   5.192
 7681W        W74464  18.793   3.183   2.647
 7682W        W74465  40.983   8.118   1.696
 7683W        W74466  40.913  29.103  14.022
 7684W        W74467  27.580  18.500  14.389
 7685W        W74468  18.698   7.788   2.143
 7686W        W74469  33.015  11.871   2.213
 7687W        W74470  22.119  25.531   2.060
 7688W        W74471  26.698  40.050   0.365
 7689W        W74472   7.831  37.075   3.479
 7690W        W74473  35.826  17.247  12.877
 7691W        W74474  15.096  20.099   0.207
 7692W        W74475   2.012   1.953   4.093
 7693W        W74476  10.229  30.233  10.694
 7694W        W74477   0.022  23.532   4.605
 7695W        W74478  32.474  13.135   4.807
 7696W        W74479  37.570  25.144  14.309
 7697W        W74480  25.437  12.933  12.890
 7698W        W74481  40.974  33.156   3.821
 7699W        W74482   3.640   1.440   0.400
 7700W        W74483  39.410  32.665   4.608
 7701W        W74484  17.210  41.568  13.829
 7702W        W74485   8.769  25.740   3.646
 7703W        W74486   6.614  12.712  14.887
 7704W        W74487  20.578  35.857   2.864
 7705W        W74488   9.376   2.894  13.363
 7706W        W74489  34.410  24.924  14.960
 7707W        W74490  37.592  38.475  14.016
 7708W        W74491   5.382   9.475  11.257
 7709W        W74492  36.153   3.866  13.586
 7710W        W74493  10.893  18.501   2.677
 7711W        W74494   4.217  14.637  11.532
 7712W        W74495  18.119  26.716  10.296
 7713W        W74496   3.603  10.396  11.262
 7714W        W74497  16.909   0.837   0.800
 7715W        W74498  40.264  33.619   3.683
 7716W        W74499  37.120  32.125  12.380
 7717W        W74500  26.689  14.535  13.480
 7718W        W74501  21.536  32.396  12.222
 7719W        W74502   2.369   2.164  11.512
 7720W        W74503  15.124  27.647  13.857
 7721W        W74504  27.712  41.524   1.300
 7722W        W74505  12.504  29.105   1.184
 7723W        W74506  13.494   8.223   2.281
 7724W        W74507  28.183  23.732   1.308
 7725W        W74508  32.999   3.045   1.302
 7726W        W74509  35.551  38.658  11.234
 7727W        W74510  16.302   8.046   0.219
 7728W        W74511  21.743  24.716   0.726
 7729W        W74512  42.950  42.409   3.849
 7730W        W74513  28.658  31.977  12.450
 7731W        W74514   4.647  38.095  11.166
 7732W        W74515  11.339  39.121  12.574
 7733W        W74516  18.966   9.578  11.933
 7734W        W74517  10.175  42.381  14.813
 7735W        W74518   3.503  43.547  12.876
 7736W        W74519   2.228  41.956   4.439
 7737W        W74520  26.792  19.938  14.960
 7738W        W74521   7.778   5.448   0.349
 7739W        W74522  27.646  39.663   4.168
 7740W        W74523  38.971  20.746  12.133
 7741W        W74524  37.065  40.046   3.648
 7742W        W74525  14.330  11.128  13.785
 7743W        W74526  43.859  21.224   4.142
 7744W        W74527  19.826  39.012  11.029
 7745W        W74528  22.787  33.443  14.516
 7746W        W74529  35.830  21.145   1.351
 7747W        W74530  42.283  42.607   2.741
 7748W        W74531  44.987  21.150   0.231
 7749W        W74532  39.468  21.768  14.063
 7750W        W74533   8.745  22.160   2.476
 7751W        W74534  30.266  28.464  13.110
 7752W        W74535   2.927  14.619  12.855
 7753W        W74536  26.075   3.945  13.449
 7754W        W74537  27.924  23.716   1.764
 7755W        W74538   8.654  28.183  11.559
 7756W        W74539  41.780  16.088   4.616
 7757W        W74540   9.420  11.379  12.608
 7758W        W74541  21.528  11.424   1.419
 7759W        W74542  29.594   4.888  10.690
 7760W        W74543  15.647  20.229  12.343
 7761W        W74544  39.680   1.358   4.574
 7762W        W74545  21.227  14.360  12.400
 7763W        W74546  39.632   8.344  14.981
 7764W        W74547   0.389  22.250   3.236
 7765W        W74548  14.217   7.389   1.351
 7766W        W74549  42.008  21.107   4.696
 7767W        W74550   3.186  42.958  11.676
 7768W        W74551  26.698   9.254   1.777
 7769W        W74552   2.499  30.154  11.654
 7770W        W74553  41.428  11.685   0.717
 7771W        W74554  44.453  41.600   4.038
 7772W        W74555   0.231  20.346   1.432
 7773W        W74556  31.240  24.635   0.507
 7774W        W74557  16.802   0.758  10.732
 7775W        W74558   4.261  35.305   3.740
 7776W        W74559  16.158  37.278  13.794
 7777W        W74560  22.692   2.453   4.058
 7778W        W74561  18.612   9.272  11.065
 7779W        W74562  25.018  34.318   4.862
 7780W        W74563  20.574  42.288   2.018
 7781W        W74564  14.257  25.457   2.018
 7782W        W74565  43.234  25.629   4.850
 7783W        W74566  36.553  10.240   1.210
 7784W        W74567  14.562  36.667   1.448
 7785W        W74568  41.441  38.407   1.936
 7786W        W74569  40.261   5.827   2.707
 7787W        W74570  32.900  38.049   3.744
 7788W        W74571  12.192  27.266  14.399
 7789W        W74572  11.600   1.146  12.454
 7790W        W74573  12.220  39.515  13.137
 7791W        W74574  37.313  16.542  13.477
 7792W        W74575  18.109  20.152  11.520
 7793W        W74576   4.418  31.738  12.474
 7794W        W74577  42.454   2.286  12.115
 7795W        W74578   0.378   9.433   1.178
 7796W        W74579  44.555  44.892  10.047
 7797W        W74580  32.454  12.031  11.310
 7798W        W74581  18.283  13.706   1.972
 7799W        W74582   3.747  24.520  11.298
 7800W        W74583  36.787  39.665   3.397
 7801W        W74584   3.253  37.475  14.515
 7802W        W74585  30.728  37.820  12.595
 7803W        W74586  41.755  32.381   0.800
 7804W        W74587  35.602   7.981  14.200
 7805W        W74588  39.998  11.357  12.464
 7806W        W74589   7.252  14.804   4.771
 7807W        W74590  25.654  23.016  10.606
 7808W        W74591  36.371  37.009   0.301
 7809W        W74592  30.348  18.832   0.422
 7810W        W74593  31.641   1.136  11.639
 7811W        W74594   6.388  42.821  14.094
 7812W        W74595  26.641  27.680   2.000
 7813W        W74596   0.988  19.754   3.250
 7814W        W74597  25.762   9.311   0.975
 7815W        W74598  21.753   2.042   0.486
 7816W        W74599  43.874   4.977   1.059
 7817W        W74600   6.303   5.929   1.251
 7818W        W74601   6.172  24.213   0.428
 7819W        W74602  40.344  18.252  13.920
 7820W        W74603  36.407   6.447   1.415
 7821W        W74604  11.779  34.874   0.209
 7822W        W74605   5.145   6.283   0.267
 7823W        W74606  38.006  20.532   1.396
 7824W        W74607   9.741  35.863  10.847
 7825W        W74608  15.195  11.659   4.449
 7826W        W74609   9.085   6.597   4.882
 7827W        W74610   2.236  10.639  11.242
 7828W        W74611   2.890   1.328  12.536
 7829W        W74612   9.196  30.992   2.441
 7830W        W74613  16.301   9.396  14.580
 7831W        W74614  16.602  38.017  12.897
 7832W        W74615  15.583   3.174   1.723
 7833W        W74616  32.394  30.997  14.887
 7834W        W74617  15.929  38.187   5.161
 7835W        W74618  39.354  26.004   2.801
 7836W        W74619  38.035   8.267  11.234
 7837W        W74620   2.481  29.548  13.934
 7838W        W74621  44.292  17.130   3.687
 7839W        W74622  21.719   0.490   1.412
 7840W        W74623   3.244   5.098   1.673
 7841W        W74624   3.365  34.369  12.307
 7842W        W74625  40.567   2.391   0.583
 7843W        W74626   5.860  19.659   1.369
 7844W        W74627  13.185  31.127   4.365
 7845W        W74628  30.617   9.323  11.636
 7846W        W74629  22.607  11.772   4.097
 7847W        W74630  21.159  24.150  11.171
 7848W        W74631  27.355  44.706   4.646
 7849W        W74632   7.630   9.823   1.356
 7850W        W74633  31.618   8.659  12.389
 7851W        W74634  33.188  44.272  14.882
 7852W        W74635  23.435  16.641  14.502
 7853W        W74636   6.745  23.355   4.731
 7854W        W74637  41.097  21.063  13.516
 7855W        W74638  22.856  27.581   4.174
 7856W        W74639  18.702   3.372   1.143
 7857W        W74640  36.892  40.084   4.581
 7858W        W74641  10.387  28.081  12.450
 7859W        W74642  12.924  24.981   0.814
 7860W        W74643  35.024  12.247   3.033
 7861W        W74644  10.004  36.664  11.077
 7862W        W74645   8.365  12.468  11.115
 7863W        W74646   3.656  43.610   1.926
 7864W        W74647   0.020  23.190   2.405
 7865W        W74648  17.056  29.409   4.512
 7866W        W74649  27.764  28.677   3.895
 7867W        W74650  13.543  22.676   1.707
 7868W        W74651   2.655  16.508  14.805
 7869W        W74652  41.414  27.979  14.328
 7870W        W74653   9.334   8.372   0.978
 7871W        W74654  16.255  22.917  13.393
 7872W        W74655  42.504  26.087  13.959
 7873W        W74656  37.407   3.978   1.980
 7874W        W74657  10.076   7.087  13.472
 7875W        W74658  41.932   2.970   3.667
 7876W        W74659  22.969  15.030  14.532
 7877W        W74660  28.700   9.622  11.010
 7878W        W74661  19.755  30.759   2.339
 7879W        W74662  26.245  41.698   3.056
 7880W        W74663  17.708   1.535  13.389
 7881W        W74664  43.307  32.208  13.453
 7882W        W74665   8.683  28.072  14.356
 7883W        W74666  39.231   5.698  11.915
 7884W        W74667  31.783  26.446   2.495
 7885W        W74668  21.645  21.671  12.715
 7886W        W74669  28.065   9.049   4.641
 7887W        W74670  32.137   2.824  14.335
 7888W        W74671  32.212   6.233  13.291
 7889W        W74672  33.057  29.339   3.320
 7890W        W74673  26.090  43.954  12.144
 7891W        W74674  30.614  27.573  13.879
 7892W        W74675   3.933  14.693   0.787
 7893W        W74676   9.519  15.425  14.471
 7894W        W74677  37.062  25.515  13.852
 7895W        W74678  26.941  13.196   1.841
 7896W        W74679   3.690   5.538  13.294
 7897W        W74680  35.081   5.745  12.412
 7898W        W74681  16.286  38.893  12.984
 7899W        W74682   2.520  21.676  12.943
 7900W        W74683  39.910  21.077  11.674
 7901W        W74684  37.895  41.801  11.994
 7902W        W74685  40.590  34.421   0.216
 7903W        W74686  22.779   2.394  13.334
 7904W        W74687  28.491  14.275   0.503
 7905W        W74688  34.305  20.840   2.922
 7906W        W74689  39.416  11.251  14.493
 7907W        W74690  15.150  24.550   5.032
 7908W        W74691  18.924  15.333   4.108
 7909W        W74692  28.190   2.409   1.829
 7910W        W74693  14.568  35.684   5.058
 7911W        W74694  35.791  20.594  13.598
 7912W        W74695  43.923  29.549  14.861
 7913W        W74696  38.967  38.283   2.726
 7914W        W74697  42.895  43.703  10.621
 7915W        W74698  20.295  43.540   3.128
 7916W        W74699   7.540   3.708  12.638
 7917W        W74700  23.055  34.515  12.376
 7918W        W74701  23.338   2.652   0.792
 7919W        W74702  30.611   9.313  12.588
 7920W        W74703  25.493   7.831   3.216
 7921W        W74704  12.392   5.307   3.661
 7922W        W74705   0.919  28.584  13.897
 7923W        W74706   1.234   6.692   3.170
 7924W        W74707  24.528  18.895  12.183
 7925W        W74708  33.033  14.094  14.582
 7926W        W74709  26.822   4.885   4.737
 7927W        W74710  29.988   8.595  10.701
 7928W        W74711  13.820   9.909  14.654
 7929W        W74712  37.645  14.695  13.067
 7930W        W74713  44.731  42.974   5.059
 7931W        W74714  28.953  15.988   2.660
 7932W        W74715  40.393  29.588   3.784
 7933W        W74716  36.915  15.744  11.175
 7934W        W74717  21.689  15.043  12.880
 7935W        W74718  20.182  32.610   1.972
 7936W        W74719  43.684   4.676   3.560
 7937W        W74720  40.294  43.998  14.401
 7938W        W74721  35.185  39.827  11.202
 7939W        W74722  14.749  37.385   0.629
 7940W        W74723   1.507   3.456   0.213
 7941W        W74724  23.729   3.656  14.018
 7942W        W74725  43.291  23.921  12.417
 7943W        W74726  22.097   1.136  11.996
 7944W        W74727  24.258  12.845  11.752
 7945W        W74728  18.781   8.884  13.999
 7946W        W74729  11.806  41.350  14.939
 7947W        W74730  20.361  41.476   2.808
 7948W        W74731  15.099   4.717  12.308
 7949W        W74732  13.644  27.160   2.459
 7950W        W74733  17.416  16.457  11.052
 7951W        W74734   0.492   3.232  12.024
 7952W        W74735  12.900  14.147   2.702
 7953W        W74736  32.611  26.843  14.911
 7954W        W74737  28.646   1.705  10.879
 7955W        W74738   3.158  33.545  14.430
 7956W        W74739  40.955  33.967   3.219
 7957W        W74740  37.358  14.818   4.184
 7958W        W74741   4.838  24.220  13.022
 7959W        W74742  25.438  41.460   0.878
 7960W        W74743  11.368  37.051  14.693
 7961W        W74744  44.920  29.450   3.097
 7962W        W74745  44.904  13.883   0.844
 7963W        W74746  28.832   7.405   3.444
 7964W        W74747  40.821  17.962  12.036
 7965W        W74748  13.859  35.629   1.946
 7966W        W74749  23.291  17.121   0.269
 7967W        W74750  25.310   4.261  12.509
 7968W        W74751  37.192  13.646   1.525
 7969W        W74752  29.046  41.059  14.173
 7970W        W74753   6.211  32.596   1.410
 7971W        W74754  11.395   8.173   4.476
 7972W        W74755   6.909  35.438  10.743
 7973W        W74756  36.848  28.167  13.895
 7974W        W74757   4.864  40.021   9.820
 7975W        W74758  17.675  41.304   2.759
 7976W        W74759   9.130  22.378   0.407
 7977W        W74760   0.494  14.526  11.644
 7978W        W74761  33.244  43.745  12.421
 7979W        W74762  22.639  16.106   0.848
 7980W        W74763  26.421  43.340  11.071
 7981W        W74764   0.524  39.791  12.113
 7982W        W74765  20.092  28.447   1.304
 7983W        W74766   1.901  22.553   2.327
 7984W        W74767  20.574  14.665  12.038
 7985W        W74768  37.633  34.825  14.976
 7986W        W74769   4.386  29.524   2.245
 7987W        W74770  14.564  36.730   4.445
 7988W        W74771  42.397  20.275   3.874
 7989W        W74772  21.239  22.181   1.237
 7990W        W74773  26.252  16.369   3.215
 7991W        W74774  19.096   3.491   2.356
 7992W        W74775   9.074  39.963   0.947
 7993W        W74776   0.045  30.076  13.960
 7994W        W74777  20.057  37.430   0.269
 7995W        W74778   9.876  28.057  12.650
 7996W        W74779  32.447  38.497   4.432
 7997W        W74780  23.624  40.362   4.036
 7998W        W74781  28.170  39.124  12.539
 7999W        W74782  17.347  42.390   1.377
 8000W        W74783  42.156  33.568  10.119
 8001W        W74784  22.098  28.221   4.402
 8002W        W74785  32.106   9.678   0.935
 8003W        W74786  33.525  40.515  13.034
 8004W        W74787  35.857  23.539   1.118
 8005W        W74788  10.133  13.297   2.158
 8006W        W74789  39.757  26.677   0.427
 8007W        W74790  19.317  36.992  12.628
 8008W        W74791  39.569  33.126   0.338
 8009W        W74792  21.921  14.296   4.609
 8010W        W74793   7.283  15.760  14.186
 8011W        W74794  23.158   5.308  11.226
 8012W        W74795  40.595   1.881  14.447
 8013W        W74796  30.571   0.492  14.297
 8014W        W74797  28.869  44.260  13.083
 8015W        W74798  18.644  44.142   2.409
 8016W        W74799  39.748  38.391  10.644
 8017W        W74800  41.405   0.698   3.333
 8018W        W74801  39.998   2.383  13.815
 8019W        W74802  26.117  23.694   2.356
 8020W        W74803   5.412  43.605  12.842
 8021W        W74804  18.779  26.042   4.556
 8022W        W74805  30.424  30.127  13.911
 8023W        W74806  40.074  19.726   0.996
 8024W        W74807  40.557  18.960  10.639
 8025W        W74808  32.533  23.312   0.233
 8026W        W74809  37.603  25.716   3.281
 8027W        W74810   5.854   9.438   1.691
 8028W        W74811  39.453   7.440   4.857
 8029W        W74812   0.801  16.803   2.820
 8030W        W74813  33.742  16.292  13.823
 8031W        W74814  41.792  16.584  10.510
 8032W        W74815   3.403  24.215   2.696
 8033W        W74816  25.961   7.277  14.381
 8034W        W74817   7.825   9.199  14.070
 8035W        W74818  32.504  39.814   3.786
 8036W        W74819  39.358  32.063   2.862
 8037W        W74820  13.842  15.661   4.919
 8038W        W74821   2.994  34.707   2.338
 8039W        W74822  26.289  13.123  11.980
 8040W        W74823  41.226   3.140  13.430
 8041W        W74824  36.052  35.438   1.704
 8042W        W74825  34.990  21.704   0.735
 8043W        W74826  13.600  23.612   0.507
 8044W        W74827  30.949  44.783   3.726
 8045W        W74828  44.093  14.439  13.041
 8046W        W74829  23.991  34.548  11.973
 8047W        W74830  43.354   3.752   3.452
 8048W        W74831  31.908   0.337  12.875
 8049W        W74832   7.961  42.952   4.498
 8050W        W74833  11.773  27.647  10.490
 8051W        W74834   8.285  30.170  12.284
 8052W        W74835  18.118  40.387   1.970
 8053W        W74836  19.982  39.937  13.312
 8054W        W74837  24.100  43.488  12.447
 8055W        W74838  40.373  37.443  12.496
 8056W        W74839   7.333  16.275  11.990
 8057W        W74840  11.142  36.395  12.061
 8058W        W74841   3.798  24.866  14.477
 8059W        W74842  19.609   9.867  14.979
 8060W        W74843  37.827  36.343   3.892
 8061W        W74844  13.252  16.522   3.153
 8062W        W74845  28.222  30.230  11.187
 8063W        W74846  24.698  23.613   1.910
 8064W        W74847  26.317  30.138  13.797
 8065W        W74848  35.290  15.759  13.443
 8066W        W74849  10.948  30.829   2.179
 8067W        W74850  19.595  15.313  12.644
 8068W        W74851  35.901  35.255  13.379
 8069W        W74852  37.918  31.663  13.468
 8070W        W74853   4.829  33.492   2.150
 8071W        W74854  17.551  35.422  13.296
 8072W        W74855  29.193  19.873  14.916
 8073W        W74856  42.453   6.213   4.187
 8074W        W74857  21.330   4.026   2.690
 8075W        W74858   6.972   5.480   2.702
 8076W        W74859  25.625  44.996  10.701
 8077W        W74860  33.634  25.514   0.673
 8078W        W74861  11.418  11.861  14.838
 8079W        W74862   4.857  44.822   4.115
 8080W        W74863  12.139  17.310   1.195
 8081W        W74864  12.141   2.251  11.520
 8082W        W74865  41.439  34.810  13.340
 8083W        W74866  36.224   3.452   0.939
 8084W        W74867  16.289  43.276  14.253
 8085W        W74868  41.311  29.309   0.224
 8086W        W74869   9.218  25.453   3.282
 8087W        W74870  11.989  12.258   1.817
 8088W        W74871   9.299  34.086   3.782
 8089W        W74872  33.601  25.650   3.621
 8090W        W74873  15.613  21.004   3.145
 8091W        W74874   1.767  13.170  14.998
 8092W        W74875  38.002   5.462   2.175
 8093W        W74876   8.356  25.297  10.690
 8094W        W74877  26.035  21.310  12.779
 8095W        W74878   4.895  35.046  11.591
 8096W        W74879   3.637  14.776  13.873
 8097W        W74880  43.032  40.344   3.053
 8098W        W74881   7.965  42.805  12.266
 8099W        W74882  35.133  34.473  14.393
 8100W        W74883  35.957  11.841  13.454
 8101W        W74884  17.100  10.937   1.342
 8102W        W74885   5.946   5.202  14.071
 8103W        W74886  20.121   0.827  11.460
 8104W        W74887   9.558  34.958   5.058
 8105W        W74888  37.058  33.991  11.426
 8106W        W74889  38.260  10.711  10.968
 8107W        W74890  32.489  19.669   5.539
 8108W        W74891  39.029  25.442   1.631
 8109W        W74892  38.031   0.449  13.896
 8110W        W74893  18.818   4.164  11.319
 8111W        W74894  31.430  27.262   1.680
 8112W        W74895  12.471  11.578  14.117
 8113W        W74896  37.305   0.341  12.020
 8114W        W74897  11.427  27.441  14.479
 8115W        W74898  36.901  39.265   1.941
 8116W        W74899  33.955   5.777   4.972
 8117W        W74900  10.954  15.844  12.065
 8118W        W74901  42.132  16.097  14.389
 8119W        W74902   7.622  23.552  11.604
 8120W        W74903  32.082  39.982   1.232
 8121W        W74904  30.403   4.208   1.844
 8122W        W74905  16.158   3.442  14.833
 8123W        W74906  28.957  43.780   1.497
 8124W        W74907  23.667  32.294   2.226
 8125W        W74908  17.808   7.817  13.492
 8126W        W74909  37.961  34.035  11.334
 8127W        W74910  26.068   6.451  14.710
 8128W        W74911  24.982  10.051  14.552
 8129W        W74912  37.902   9.261   4.504
 8130W        W74913  25.652  38.765  12.977
 8131W        W74914   4.806  18.682  10.681
 8132W        W74915  15.627  35.889   1.311
 8133W        W74916  27.995  34.109  12.455
 8134W        W74917  36.875   4.763  10.630
 8135W        W74918  20.982  33.829  13.427
 8136W        W74919  36.965  14.390  12.010
 8137W        W74920   1.506  38.250  11.254
 8138W        W74921  26.626  17.139  14.737
 8139W        W74922   3.412   0.004   0.752
 8140W        W74923  22.720  29.202   0.937
 8141W        W74924  22.681  33.615   3.063
 8142W        W74925  37.024  44.493  14.864
 8143W        W74926  41.004  14.037  14.564
 8144W        W74927   8.190  12.256   2.919
 8145W        W74928  15.572  30.901   4.171
 8146W        W74929  38.802  34.950   1.372
 8147W        W74930  10.756  26.538  12.821
 8148W        W74931   6.931  32.193  11.909
 8149W        W74932  42.791  26.538  12.144
 8150W        W74933  18.547  43.381  11.053
 8151W        W74934  37.438  10.697   3.404
 8152W        W74935  17.538  34.066   0.926
 8153W        W74936  43.640  32.965  14.822
 8154W        W74937  30.996  21.482  14.890
 8155W        W74938  10.071  32.545   2.171
 8156W        W74939  31.408  25.558  14.700
 8157W        W74940  29.716   2.006   0.391
 8158W        W74941  25.389  23.605  11.996
 8159W        W74942  42.981   5.315  10.849
 8160W        W74943  41.027  42.856  13.061
 8161W        W74944  28.713  37.102  14.410
 8162W        W74945  21.144  27.520   0.461
 8163W        W74946  36.851  44.232   4.964
 8164W        W74947  16.310  39.645  13.607
 8165W        W74948  38.329  31.632  14.579
 8166W        W74949  15.189  39.478   3.002
 8167W        W74950  23.344  29.567  13.576
 8168W        W74951  28.342  11.447   4.682
 8169W        W74952  19.678   9.200   5.094
 8170W        W74953   5.194  27.641  12.555
 8171W        W74954  10.021  27.582   1.661
 8172W        W74955  40.343  13.070   4.678
 8173W        W74956  36.469  42.374   0.299
 8174W        W74957  35.976  14.110   3.369
 8175W        W74958  43.839  41.528   4.638
 8176W        W74959   2.431  16.544  14.315
 8177W        W74960   2.580  32.429  10.969
 8178W        W74961  26.060   0.984   1.248
 8179W        W74962   6.155  39.208  11.569
 8180W        W74963  27.746   4.373  13.241
 8181W        W74964  10.549  33.101  14.535
 8182W        W74965   0.488  15.978   4.646
 8183W        W74966   9.955  38.388   1.376
 8184W        W74967  40.829   2.780   0.752
 8185W        W74968  18.259   8.045  14.821
 8186W        W74969  17.991  35.161   2.670
 8187W        W74970  28.070  42.346   2.668
 8188W        W74971  19.226  25.240  12.680
 8189W        W74972   1.834  22.180  10.419
 8190W        W74973  22.547   2.332  10.752
 8191W        W74974   4.905  37.968  13.458
 8192W        W74975  29.237   5.743   1.449
 8193W        W74976   2.781  34.386  12.015
 8194W        W74977  27.944  38.952   0.339
 8195W        W74978  44.375  10.838   2.853
 8196W        W74979  10.070  38.476   3.698
 8197W        W74980   2.669  33.417   2.016
 8198W        W74981  35.835  44.821  13.335
 8199W        W74982  40.848  39.268   3.326
 8200W        W74983  18.058  19.450   2.277
 8201W        W74984  19.076  41.916   3.206
 8202W        W74985  42.803  34.589  14.326
 8203W        W74986  30.774  21.352   0.389
 8204W        W74987  21.717  32.508  13.576
 8205W        W74988  26.469  27.902  14.260
 8206W        W74989  20.733  14.452   5.448
 8207W        W74990  18.594  12.047   4.554
 8208W        W74991  44.351  29.495  12.983
 8209W        W74992  13.116  11.155   3.833
 8210W        W74993   5.466   6.326  11.692
 8211W        W74994  28.658  11.762   4.943
 8212W        W74995  29.587  35.492  11.537
 8213W        W74996  40.759  23.522   4.862
 8214W        W74997  16.516   9.584  11.039
 8215W        W74998  21.546  30.020   4.283
 8216W        W74999  23.435  44.906  14.856
 8217W        W75000   9.246  40.707  11.544
 8218W        W75001  29.654  30.903   1.676
 8219W        W75002  41.745  31.684   2.738
 8220W        W75003   9.921  27.683   4.868
 8221W        W75004  32.903   5.872   3.555
 8222W        W75005  26.973   3.689   2.250
 8223W        W75006  30.179  36.409  14.962
 8224W        W75007   4.671  25.157   0.437
 8225W        W75008  37.692  39.897  11.191
 8226W        W75009  28.048  11.837   4.965
 8227W        W75010   7.682  19.013   4.505
 8228W        W75011  22.677  15.846   0.408
 8229W        W75012  10.606   7.644   0.775
 8230W        W75013  39.278  30.394  11.466
 8231W        W75014  38.375  35.482   3.106
 8232W        W75015   1.769  27.604   1.912
 8233W        W75016  20.125  20.029   1.708
 8234W        W75017  26.677  16.156  12.528
 8235W        W75018   3.841  12.421  11.124
 8236W        W75019   3.915  32.958  11.618
 8237W        W75020   6.423   8.511   2.329
 8238W        W75021   7.962  17.369  12.006
 8239W        W75022  43.296  10.689  13.974
 8240W        W75023  20.633   2.866   3.728
 8241W        W75024   1.361  33.129  14.540
 8242W        W75025  12.793  44.295  14.800
 8243W        W75026   0.304  27.516   4.059
 8244W        W75027   9.283  35.999   4.451
 8245W        W75028  25.291  36.995  13.896
 8246W        W75029  27.411  34.319  10.960
 8247W        W75030   5.660  30.554   2.423
 8248W        W75031  10.237  34.700   3.837
 8249W        W75032  43.661  42.847  14.220
 8250W        W75033  17.558  29.379  13.868
 8251W        W75034   3.413  30.935   2.854
 8252W        W75035  30.550   8.189   1.421
 8253W        W75036  43.897  26.264   0.478
 8254W        W75037  32.193   1.339   3.224
 8255W        W75038  21.666  30.222  14.905
 8256W        W75039  38.087   4.762   0.330
 8257W        W75040   1.937  20.548   2.142
 8258W        W75041   2.186  32.519   4.299
 8259W        W75042  10.076  20.431   4.167
 8260W        W75043  34.480  21.950   3.289
 8261W        W75044  33.326  15.103  14.359
 8262W        W75045  38.369  18.790   0.964
 8263W        W75046  30.857   7.817   2.733
 8264W        W75047  12.303  10.855  10.252
 8265W        W75048   5.380  17.274  14.797
 8266W        W75049  43.790  37.908   1.424
 8267W        W75050  30.308  24.192  13.399
 8268W        W75051  27.292  15.149  12.988
 8269W        W75052  12.635  28.333   2.814
 8270W        W75053  17.021  43.843   2.900
 8271W        W75054   9.782  10.063  11.819
 8272W        W75055  35.030  31.021  13.005
 8273W        W75056   0.839  39.610  14.003
 8274W        W75057   9.250   4.447   2.335
 8275W        W75058   0.234   5.979   0.468
 8276W        W75059  18.754  42.039  14.018
 8277W        W75060  23.540  29.460   2.199
 8278W        W75061  32.067  27.260   2.612
 8279W        W75062  26.490  11.365  13.446
 8280W        W75063  33.523  35.059   4.741
 8281W        W75064  16.226  37.831   5.410
 8282W        W75065  20.639  23.470   4.298
 8283W        W75066   4.237  36.582  14.762
 8284W        W75067  25.958   6.408   2.772
 8285W        W75068  23.538   7.701  13.973
 8286W        W75069  20.429  20.777  11.086
 8287W        W75070  22.254  42.226  11.363
 8288W        W75071  14.888   8.062   2.436
 8289W        W75072  29.430  12.111   0.230
 8290W        W75073  32.187  26.197   3.667
 8291W        W75074  27.144  38.121  13.446
 8292W        W75075  28.032  35.052   3.615
 8293W        W75076  33.393  44.883   0.767
 8294W        W75077  40.650  34.439  13.753
 8295W        W75078  16.956   7.278   5.188
 8296W        W75079  30.474  19.334   0.350
 8297W        W75080  40.725  40.870  12.872
 8298W        W75081  27.489   9.384  12.990
 8299W        W75082  26.786  29.695  14.959
 8300W        W75083  43.660  30.042  11.532
 8301W        W75084  10.297  31.105  10.465
 8302W        W75085   3.130  43.399   4.661
 8303W        W75086  12.330  15.374  11.605
 8304W        W75087  38.455  32.661   4.604
 8305W        W75088  21.188  29.601  10.729
 8306W        W75089   0.239  30.230   1.293
 8307W        W75090  10.267   8.725  14.813
 8308W        W75091  24.239   2.527   3.125
 8309W        W75092  19.873  32.534   4.740
 8310W        W75093  35.904  25.555   4.773
 8311W        W75094  40.644  34.516   1.959
 8312W        W75095  15.672  23.501   1.356
 8313W        W75096  15.188  19.292  13.826
 8314W        W75097  43.738  17.799  14.363
 8315W        W75098  37.962  11.186  14.777
 8316W        W75099  28.026  20.107   3.588
 8317W        W75100  13.877   8.709  12.852
 8318W        W75101   7.854   1.988   0.976
 8319W        W75102  29.782  18.216  11.718
 8320W        W75103  34.806  11.494   5.239
 8321W        W75104  36.491  16.925   3.311
 8322W        W75105  34.912  10.246  11.436
 8323W        W75106  33.598   7.669   4.576
 8324W        W75107  34.085  30.514   4.124
 8325W        W75108  25.261  17.241  10.985
 8326W        W75109  24.592  14.318   1.369
 8327W        W75110  38.348   4.464  11.122
 8328W        W75111   9.842   8.452  14.866
 8329W        W75112  40.563   9.000  10.882
 8330W        W75113  39.164  39.386   1.579
 8331W        W75114  38.889  20.527  11.207
 8332W        W75115  29.028  13.140   1.402
 8333W        W75116  31.703  19.497   3.098
 8334W        W75117  18.043  34.911   3.104
 8335W        W75118  30.996  27.749  10.981
 8336W        W75119  26.917  30.618   1.295
 8337W        W75120   9.639   2.122  11.472
 8338W        W75121  13.255  25.112   1.200
 8339W        W75122  17.308  24.457   1.054
 8340W        W75123  25.505  29.910   4.908
 8341W        W75124  15.232  34.341  11.978
 8342W        W75125  23.957  20.532   1.313
 8343W        W75126   1.619  16.752   0.778
 8344W        W75127  38.912   2.828   2.700
 8345W        W75128  21.324  19.802  11.146
 8346W        W75129  44.784   4.193   1.165
 8347W        W75130   9.084  34.033  11.591
 8348W        W75131  15.748  24.651   4.361
 8349W        W75132  15.735  36.387   0.425
 8350W        W75133  17.361   5.216   1.906
 8351W        W75134  27.576   5.214  14.861
 8352W        W75135   2.811  28.212   0.969
 8353W        W75136  24.163  15.780   2.726
 8354W        W75137  21.716  40.153   3.808
 8355W        W75138  28.995  36.412   0.357
 8356W        W75139   7.148   3.749  14.055
 8357W        W75140  38.833   9.395   1.698
 8358W        W75141   9.882   4.450   2.694
 8359W        W75142   6.147  19.330  13.445
 8360W        W75143   0.488  17.352   4.437
 8361W        W75144  29.864  10.711   2.161
 8362W        W75145  14.253  24.787   1.338
 8363W        W75146  27.497   7.992   0.845
 8364W        W75147   7.532  36.605  12.087
 8365W        W75148  14.325  11.259  11.704
 8366W        W75149  27.588  25.559   3.395
 8367W        W75150  43.660  44.368   0.911
 8368W        W75151  13.382  29.699   0.280
 8369W        W75152  17.801  41.924  14.786
 8370W        W75153  42.525   2.518  12.584
 8371W        W75154  22.884  44.862   9.740
 8372W        W75155  36.807   2.470   0.387
 8373W        W75156  44.999  19.609  10.809
 8374W        W75157  15.329  16.227  10.187
 8375W        W75158  29.938  25.599  12.458
 8376W        W75159   4.318  13.298   0.005
 8377W        W75160   1.413  38.521   3.174
 8378W        W75161  20.001  19.141  13.494
 8379W        W75162   5.778  26.075  13.345
 8380W        W75163  31.924  26.561  11.523
 8381W        W75164  37.117  18.034  10.619
 8382W        W75165  23.271  43.745  13.348
 8383W        W75166  35.126  39.116   1.302
 8384W        W75167  34.474  23.299   1.440
 8385W        W75168  33.018   4.814   1.108
 8386W        W75169   7.397  43.043   1.423
 8387W        W75170   0.194  27.715  12.090
 8388W        W75171  22.243  31.078  14.802
 8389W        W75172  26.696   6.464  13.985
 8390W        W75173  27.124  23.612  14.737
 8391W        W75174  43.669  15.652   4.102
 8392W        W75175  43.537  16.683  10.893
 8393W        W75176   4.335  10.871   1.645
 8394W        W75177  23.052  19.063   4.327
 8395W        W75178  26.749   0.628  13.619
 8396W        W75179  16.810  34.136   1.399
 8397W        W75180  14.423   4.959  13.018
 8398W        W75181   9.695  20.562  14.770
 8399W        W75182  33.965   7.906   1.669
 8400W        W75183   1.865  34.330   1.514
 8401W        W75184  18.097  44.849  14.850
 8402W        W75185  36.421  24.964   4.478
 8403W        W75186  28.032   0.016   1.137
 8404W        W75187  20.274  15.202  13.108
 8405W        W75188   1.438  11.276  12.150
 8406W        W75189  21.238   5.540   0.880
 8407W        W75190  37.100   5.313  13.058
 8408W        W75191  14.843  22.967   4.193
 8409W        W75192  32.455  28.948   0.799
 8410W        W75193  11.819  26.613   2.092
 8411W        W75194  10.817   3.150  12.400
 8412W        W75195   0.561   3.000   0.388
 8413W        W75196  26.282  13.137   4.093
 8414W        W75197  29.050  20.976   3.167
 8415W        W75198  20.624  18.188  10.375
 8416W        W75199  19.717  37.454   4.323
 8417W        W75200  37.438  44.239   0.002
 8418W        W75201  22.633  23.435  13.863
 8419W        W75202  38.828   1.992   3.930
 8420W        W75203   7.806  34.238   1.940
 8421W        W75204  43.810  27.725   4.785
 8422W        W75205  19.533  16.072   1.609
 8423W        W75206  25.475  36.453   4.208
 8424W        W75207  30.617  24.117   2.767
 8425W        W75208  11.321  19.005  14.566
 8426W        W75209   2.854  44.352   1.308
 8427W        W75210  32.002  11.340  11.163
 8428W        W75211  21.805  15.827  11.595
 8429W        W75212   1.379  18.214   0.746
 8430W        W75213   9.148  31.315  11.988
 8431W        W75214  38.281  21.042  13.734
 8432W        W75215  30.998  43.043  13.503
 8433W        W75216  17.126   5.324   9.942
 8434W        W75217  18.660   4.001  10.472
 8435W        W75218  13.751   7.415   5.528
 8436W        W75219   5.699  28.163  11.043
 8437W        W75220   6.987  34.002   1.701
 8438W        W75221  32.005  28.439   4.582
 8439W        W75222  23.038  10.368   0.421
 8440W        W75223  42.565  36.660   1.690
 8441W        W75224   4.629  16.517   4.218
 8442W        W75225  33.104  20.065   3.647
 8443W        W75226  34.631  26.353  10.837
 8444W        W75227   5.265  33.614   4.293
 8445W        W75228   8.631  29.230   2.323
 8446W        W75229  28.038   3.279  12.147
 8447W        W75230  40.439   4.939  14.510
 8448W        W75231  19.125  40.283   3.813
 8449W        W75232  30.696  43.872  13.046
 8450W        W75233  28.539  21.174  14.564
 8451W        W75234   6.862  28.911   1.758
 8452W        W75235   7.684  35.008  14.799
 8453W        W75236  29.528  32.744  11.688
 8454W        W75237  33.157  43.518  13.359
 8455W        W75238  31.408  25.782   0.791
 8456W        W75239  11.519  37.130  11.568
 8457W        W75240   7.391  27.059  14.478
 8458W        W75241  20.023  35.007   4.561
 8459W        W75242   3.383  20.493  11.712
 8460W        W75243  29.389   2.163  12.473
 8461W        W75244  29.594  24.482   4.231
 8462W        W75245   2.473   6.341   1.301
 8463W        W75246   4.961  27.082   0.904
 8464W        W75247  24.492  44.928   4.336
 8465W        W75248   8.495  14.054   4.208
 8466W        W75249   9.820  32.781   2.821
 8467W        W75250  18.183  25.876   4.287
 8468W        W75251  19.726  39.898   0.527
 8469W        W75252  30.425  20.647  10.234
 8470W        W75253  37.448   7.714   0.475
 8471W        W75254  36.012   3.659  11.717
 8472W        W75255   8.309  40.086   4.116
 8473W        W75256   4.574  10.840   0.366
 8474W        W75257  26.825  40.648  14.336
 8475W        W75258  13.439  35.510  10.757
 8476W        W75259  16.313   7.392  12.517
 8477W        W75260  38.933  39.521   2.585
 8478W        W75261   5.700  32.621   1.404
 8479W        W75262   2.190   2.963   1.234
 8480W        W75263  10.078   7.958  12.916
 8481W        W75264  22.194  33.369   3.131
 8482W        W75265   8.360  19.290   2.771
 8483W        W75266  27.616  36.803  12.498
 8484W        W75267   2.906   5.441   1.418
 8485W        W75268   9.399   3.421  13.484
 8486W        W75269  17.860  31.546   3.345
 8487W        W75270  21.086  41.421   3.278
 8488W        W75271  31.449  16.067   3.266
 8489W        W75272  14.621  15.600  12.031
 8490W        W75273  33.609  39.460  12.043
 8491W        W75274  13.371  21.956   3.024
 8492W        W75275  32.378  32.518  11.093
 8493W        W75276  27.114   5.223  14.315
 8494W        W75277  11.280  40.987   3.706
 8495W        W75278  24.665   5.033  14.941
 8496W        W75279  35.212  13.677  12.005
 8497W        W75280   7.443   0.045   4.486
 8498W        W75281  10.643  31.936  10.260
 8499W        W75282  31.688  33.315  13.035
 8500W        W75283  43.480  43.431   0.456
 8501W        W75284  44.545  22.162   3.555
 8502W        W75285  30.921  42.257  12.913
 8503W        W75286  17.303  27.572   1.542
 8504W        W75287  23.541   9.798  11.965
 8505W        W75288  17.612  39.869   9.607
 8506W        W75289  39.858  39.331  12.507
 8507W        W75290  10.631   9.960  11.523
 8508W        W75291   0.463  24.099   0.937
 8509W        W75292   1.974  41.569  13.241
 8510W        W75293  44.278  30.933  10.652
 8511W        W75294  13.141  15.306  12.483
 8512W        W75295   4.664  34.288   4.360
 8513W        W75296  11.710  17.236   4.239
 8514W        W75297  20.240  27.899  11.247
 8515W        W75298  35.473  41.906   2.950
 8516W        W75299  26.205  28.599   0.417
 8517W        W75300   1.184  43.260  12.625
 8518W        W75301  20.261  40.513   0.629
 8519W        W75302  20.711  25.960   0.065
 8520W        W75303  15.720  13.243   2.152
 8521W        W75304  17.127  26.979   3.406
 8522W        W75305  18.686  28.713   3.179
 8523W        W75306  13.204  25.938  11.558
 8524W        W75307  34.004  11.568  12.304
 8525W        W75308  40.419   1.177  13.803
 8526W        W75309  22.771  26.240   2.193
 8527W        W75310  44.255   3.990  12.077
 8528W        W75311   1.842  10.835  13.090
 8529W        W75312   0.394  35.036  14.473
 8530W        W75313  21.726  26.010  14.325
 8531W        W75314   8.922  44.516   0.323
 8532W        W75315  37.856   9.146  11.151
 8533W        W75316  33.499  26.258  14.269
 8534W        W75317  39.899   8.112  11.464
 8535W        W75318  40.422  11.833   0.954
 8536W        W75319  25.145  38.132   4.586
 8537W        W75320  17.529  11.176   1.436
 8538W        W75321   1.044  24.897   0.794
 8539W        W75322   5.533   8.332  10.617
 8540W        W75323   5.279   3.983   0.573
 8541W        W75324  18.140  13.396  14.351
 8542W        W75325  22.394  11.274  12.250
 8543W        W75326  13.074   6.918   2.724
 8544W        W75327  20.102  23.490   2.178
 8545W        W75328   9.613  33.191   4.102
 8546W        W75329  33.585  12.157  11.910
 8547W        W75330   6.779  34.958   4.666
 8548W        W75331  18.150  39.042   2.415
 8549W        W75332  43.411  10.666  11.744
 8550W        W75333  35.559   4.995  12.039
 8551W        W75334  40.670  32.435   3.905
 8552W        W75335  13.696  10.832   1.745
 8553W        W75336  27.287  23.183  13.418
 8554W        W75337  32.680  14.166   3.678
 8555W        W75338  32.665  24.646   4.153
 8556W        W75339   5.509   4.669  11.566
 8557W        W75340   8.872   9.398  14.821
 8558W        W75341  30.701  34.686  13.429
 8559W        W75342   5.875  27.750   2.693
 8560W        W75343   1.478  16.872   2.411
 8561W        W75344  32.921  26.061   3.157
 8562W        W75345  20.690  42.387   3.545
 8563W        W75346   0.417  41.757   4.089
 8564W        W75347  15.358  26.922   0.863
 8565W        W75348  26.121  11.742   0.164
 8566W        W75349  18.237  37.806  13.023
 8567W        W75350   0.629  34.507  13.970
 8568W        W75351   8.234  33.408  13.870
 8569W        W75352   6.258  39.861  14.850
 8570W        W75353   9.659   9.655   0.760
 8571W        W75354   2.251  24.915   4.169
 8572W        W75355   1.251  13.887  11.581
 8573W        W75356   5.184  23.722   4.171
 8574W        W75357  38.938  18.013   4.624
 8575W        W75358   2.876  40.913   4.098
 8576W        W75359  28.983   3.474   2.777
 8577W        W75360  35.996  12.868  11.951
 8578W        W75361  33.735  17.345   2.252
 8579W        W75362  23.554  44.422  14.315
 8580W        W75363   3.491  30.105   0.738
 8581W        W75364   2.419  20.232  12.517
 8582W        W75365  36.070  29.939  11.076
 8583W        W75366  11.890  12.194   0.919
 8584W        W75367  31.862  33.130   1.832
 8585W        W75368  32.364  29.959   4.961
 8586W        W75369   3.394   1.916   2.386
 8587W        W75370  39.530  21.231   3.137
 8588W        W75371  29.525   3.241  13.802
 8589W        W75372  34.089  31.019   0.396
 8590W        W75373  40.989   8.830   4.925
 8591W        W75374  31.914   3.429  12.073
 8592W        W75375   9.443   1.391   1.291
 8593W        W75376  10.011  35.475  12.125
 8594W        W75377  29.494  32.978   3.167
 8595W        W75378  34.341  20.080   2.297
 8596W        W75379  30.154  43.952  10.662
 8597W        W75380  22.648  32.943  12.314
 8598W        W75381  16.612  23.731  12.859
 8599W        W75382  37.347  12.341   3.114
 8600W        W75383  21.775  10.406  12.977
 8601W        W75384  23.284   2.582   3.047
 8602W        W75385   3.795   5.659   2.698
 8603W        W75386  21.172   6.904  13.441
 8604W        W75387   4.096  14.146   3.282
 8605W        W75388   8.176  33.931  13.978
 8606W        W75389  29.052   6.970   4.148
 8607W        W75390  41.259  36.506   2.221
 8608W        W75391  15.443   9.887   3.583
 8609W        W75392  36.525  41.799  10.422
 8610W        W75393  43.810  17.156  10.181
 8611W        W75394  20.741  16.552   3.125
 8612W        W75395  23.944  39.574  11.506
 8613W        W75396   9.920  27.014   2.786
 8614W        W75397   7.940   9.415   1.333
 8615W        W75398  37.716  25.712  12.263
 8616W        W75399   8.426   0.612  11.235
 8617W        W75400   5.356  11.347   2.856
 8618W        W75401  35.547   0.323   2.572
 8619W        W75402   4.818  43.227  11.052
 8620W        W75403  35.461  27.081   2.724
 8621W        W75404  31.304  32.486  11.024
 8622W        W75405  23.200  32.168  14.943
 8623W        W75406  39.163   6.284   2.269
 8624W        W75407  20.949   6.646  13.973
 8625W        W75408  36.405  34.864  10.412
 8626W        W75409  28.648  11.268   0.142
 8627W        W75410  11.914  30.495   2.277
 8628W        W75411  30.835   2.432  11.518
 8629W        W75412   5.613  19.531  11.957
 8630W        W75413  19.416  13.146  10.469
 8631W        W75414   9.585  25.639  13.893
 8632W        W75415   6.490   5.984  11.650
 8633W        W75416  33.974  29.213  10.858
 8634W        W75417  25.625  39.477  11.079
 8635W        W75418  12.784  41.259   0.257
 8636W        W75419  10.906  10.584  14.013
 8637W        W75420  40.720   8.748   2.534
 8638W        W75421  34.560   3.231  11.989
 8639W        W75422   7.275  39.811   0.922
 8640W        W75423  17.236  23.269  13.294
 8641W        W75424   0.359  27.372  13.804
 8642W        W75425  38.316   5.588   4.098
 8643W        W75426  33.830  33.398   0.735
 8644W        W75427  29.062  33.988   0.403
 8645W        W75428  33.563  11.114   0.557
 8646W        W75429   0.876   2.807   1.767
 8647W        W75430   6.212   9.308  12.118
 8648W        W75431  14.513  39.350   5.582
 8649W        W75432  44.057  37.029   0.398
 8650W        W75433  36.854  10.360   1.635
 8651W        W75434   0.865  33.359  10.561
 8652W        W75435  10.798  22.760   4.095
 8653W        W75436  34.377  26.966   3.739
 8654W        W75437   5.736  36.650   0.355
 8655W        W75438  31.202  42.007   1.206
 8656W        W75439   6.571  39.304   3.183
 8657W        W75440  20.164  14.661  14.301
 8658W        W75441   0.325   1.486  14.335
 8659W        W75442  43.262  17.569   2.875
 8660W        W75443  36.339   0.343  12.909
 8661W        W75444  21.679  27.726  14.370
 8662W        W75445  13.801   2.956   2.882
 8663W        W75446  13.336   2.314  13.277
 8664W        W75447  32.579  39.807  11.553
 8665W        W75448  13.748  39.470   1.722
 8666W        W75449  43.352  38.834   3.275
 8667W        W75450  18.029  32.856  14.831
 8668W        W75451  23.972   1.800   2.696
 8669W        W75452  41.461  26.664   4.331
 8670W        W75453  10.122   9.350   2.697
 8671W        W75454  44.651  37.033   0.890
 8672W        W75455  41.952  35.941   1.274
 8673W        W75456   4.136   9.180  12.581
 8674W        W75457  35.366   9.428   0.970
 8675W        W75458  41.705  31.381   1.015
 8676W        W75459  18.346  17.054  14.062
 8677W        W75460  39.430   0.004  13.393
 8678W        W75461   4.339   7.704  13.362
 8679W        W75462  31.165   7.599   4.110
 8680W        W75463   6.625  34.900   1.204
 8681W        W75464  44.230   2.690  11.463
 8682W        W75465  29.671  31.614   1.163
 8683W        W75466  25.660  39.083  10.210
 8684W        W75467   9.379  10.839   2.375
 8685W        W75468  12.500  40.353   3.719
 8686W        W75469  18.239  27.680  11.555
 8687W        W75470  44.799   7.362  11.614
 8688W        W75471  12.055  39.786   1.268
 8689W        W75472  44.315  36.222   1.881
 8690W        W75473  31.636   9.305  12.627
 8691W        W75474   2.945  18.876   4.628
 8692W        W75475   8.867  32.038  10.700
 8693W        W75476  18.661   2.441  14.825
 8694W        W75477   6.868  13.774  14.457
 8695W        W75478  26.033  24.525   2.924
 8696W        W75479  28.060  15.141  10.726
 8697W        W75480  15.249  34.991   0.349
 8698W        W75481  37.445  32.272   2.190
 8699W        W75482  30.594  33.572  12.572
 8700W        W75483  18.331  16.219   3.306
 8701W        W75484  41.269  22.044   0.485
 8702W        W75485  25.929  27.684  13.928
 8703W        W75486  23.740  26.869  10.600
 8704W        W75487  29.068  42.704  11.025
 8705W        W75488  23.958  16.791  14.506
 8706W        W75489   9.324  40.275  14.955
 8707W        W75490   4.366  11.113   3.875
 8708W        W75491  25.062  22.256  14.469
 8709W        W75492  27.554  11.375   3.178
 8710W        W75493  42.489  23.230  11.892
 8711W        W75494   8.497  20.215  10.768
 8712W        W75495  27.165   6.945   0.033
 8713W        W75496   4.806  28.933  12.502
 8714W        W75497  35.558  39.464   2.851
 8715W        W75498  10.335  25.786  11.855
 8716W        W75499   0.774  40.206   2.118
 8717W        W75500  37.964  13.617   4.561
 8718W        W75501  44.219   4.250   0.498
 8719W        W75502  44.088  20.682  11.153
 8720W        W75503   7.826   8.320  10.713
 8721W        W75504  10.835  19.321   3.893
 8722W        W75505   6.948  11.314   3.806
 8723W        W75506  14.654  20.276   3.302
 8724W        W75507  30.475  38.385   0.825
 8725W        W75508  39.369  31.916  12.029
 8726W        W75509  14.183   4.744  12.560
 8727W        W75510  12.694  32.794   1.376
 8728W        W75511   4.721  28.579   0.764
 8729W        W75512   9.019  24.559   0.871
 8730W        W75513  36.886  13.139  10.683
 8731W        W75514  33.422   5.003  12.551
 8732W        W75515  19.343   5.922   0.861
 8733W        W75516   0.323  42.454  11.181
 8734W        W75517  34.148  35.353   1.583
 8735W        W75518  41.756   4.879  12.674
 8736W        W75519  28.052  24.015   3.705
 8737W        W75520  35.737  43.165   3.687
 8738W        W75521   3.707   2.437   1.861
 8739W        W75522  38.954   0.414  12.892
 8740W        W75523  17.572  12.199  12.099
 8741W        W75524  17.853  13.350  13.503
 8742W        W75525   3.400  31.964  12.698
 8743W        W75526  44.236  26.146   0.867
 8744W        W75527  30.421  17.641  13.867
 8745W        W75528  20.756  14.428   2.940
 8746W        W75529   4.910  34.681  12.018
 8747W        W75530   0.611  29.658   3.815
 8748W        W75531  40.084  32.407   4.702
 8749W        W75532  39.165   4.319  11.563
 8750W        W75533  22.543   6.243   1.798
 8751W        W75534  24.215   3.047   3.130
 8752W        W75535  35.740  40.417  11.492
 8753W        W75536   6.869  23.167  13.972
 8754W        W75537  25.492  30.105   2.277
 8755W        W75538  31.087  38.738  14.096
 8756W        W75539   4.237  22.768  10.701
 8757W        W75540  10.586  24.943  11.574
 8758W        W75541   0.094  10.679  13.847
 8759W        W75542  41.473  41.852  12.379
 8760W        W75543  21.953  40.845  11.594
 8761W        W75544   1.402  12.771   0.683
 8762W        W75545   8.476  18.099   2.684
 8763W        W75546  30.487  10.787   0.220
 8764W        W75547  14.627  20.195   1.873
 8765W        W75548  24.408  38.009  13.333
 8766W        W75549  16.383  19.160  14.750
 8767W        W75550   4.793  10.426   0.820
 8768W        W75551  29.470   5.373  12.881
 8769W        W75552   2.232   6.287  13.438
 8770W        W75553  32.608  26.041  14.599
 8771W        W75554  26.920  38.254  10.278
 8772W        W75555  38.752  41.939   4.645
 8773W        W75556  15.806  13.185  10.827
 8774W        W75557   9.853   9.469  14.033
 8775W        W75558   5.461  28.445  12.089
 8776W        W75559  13.061  35.776  13.416
 8777W        W75560  25.266  35.437   4.614
 8778W        W75561  19.404  43.337   0.271
 8779W        W75562   5.976  13.312   3.926
 8780W        W75563   4.899  24.535   2.784
 8781W        W75564   8.989   6.768   1.282
 8782W        W75565   9.858  32.179   1.709
 8783W        W75566  12.126  37.432   2.846
 8784W        W75567   1.820  40.072  11.523
 8785W        W75568  33.238   4.843   3.354
 8786W        W75569  14.906  13.892   9.896
 8787W        W75570  40.001  39.876   3.320
 8788W        W75571  43.547  10.645  14.817
 8789W        W75572  26.485  32.662  13.402
 8790W        W75573  34.949  20.243  13.843
 8791W        W75574  16.013  18.646  14.400
 8792W        W75575   4.735  30.534   0.843
 8793W        W75576  44.052  33.124  12.884
 8794W        W75577  27.595  11.064  14.849
 8795W        W75578  23.397  35.318  14.830
 8796W        W75579  31.615  14.258   0.495
 8797W        W75580  31.356  34.399  12.665
 8798W        W75581  37.880   5.401  12.135
 8799W        W75582   0.288  13.172  10.154
 8800W        W75583   1.999  36.573   0.749
 8801W        W75584  32.406  37.360   3.174
 8802W        W75585  26.257   9.663   2.690
 8803W        W75586  14.249  40.235   1.697
 8804W        W75587  28.244  26.370  11.521
 8805W        W75588  35.477  39.735   0.183
 8806W        W75589   0.303   8.207  12.578
 8807W        W75590  28.524  40.097   0.294
 8808W        W75591  16.063  28.425   2.898
 8809W        W75592  26.439   0.050  14.433
 8810W        W75593  14.522  16.123   1.714
 8811W        W75594  35.813  38.967  13.811
 8812W        W75595  12.441  33.575  14.374
 8813W        W75596  27.204   1.205   1.415
 8814W        W75597  25.297  36.594   5.188
 8815W        W75598   0.841   0.371   1.918
 8816W        W75599  11.925  40.914  13.274
 8817W        W75600   0.861  29.480   1.380
 8818W        W75601  41.065  42.207   1.785
 8819W        W75602  41.397  15.521  12.683
 8820W        W75603  13.249  41.223  11.140
 8821W        W75604  41.998  35.854  10.747
 8822W        W75605  30.128  24.253   3.173
 8823W        W75606   0.314  29.944  10.753
 8824W        W75607   5.403  44.455  13.349
 8825W        W75608  44.531  27.466   0.540
 8826W        W75609   3.848  11.624   4.128
 8827W        W75610  30.909  15.319   1.421
 8828W        W75611  18.234  24.240  13.508
 8829W        W75612  21.716  42.015   1.893
 8830W        W75613  39.406   7.979  14.139
 8831W        W75614  17.443  34.982  13.529
 8832W        W75615  28.229  22.341  14.855
 8833W        W75616   1.364  17.394   4.054
 8834W        W75617  20.195  15.504   1.306
 8835W        W75618   5.530   2.664   0.806
 8836W        W75619   0.456  21.562   2.208
 8837W        W75620  39.014  33.220   1.826
 8838W        W75621  31.433  35.292  11.106
 8839W        W75622   1.425   0.161   3.073
 8840W        W75623  41.509  36.776   0.365
 8841W        W75624   0.303  43.788  13.776
 8842W        W75625  12.927  25.032   4.624
 8843W        W75626   1.660  33.290  10.495
 8844W        W75627  40.984  27.603   0.894
 8845W        W75628  22.179  15.129  11.062
 8846W        W75629  29.745  34.329  10.995
 8847W        W75630   3.959   6.211  13.148
 8848W        W75631   1.940   0.768   0.945
 8849W        W75632  20.769  10.638   4.309
 8850W        W75633   5.770  15.393   2.942
 8851W        W75634  25.078   5.465  11.468
 8852W        W75635   3.225  27.400  14.521
 8853W        W75636  21.564  25.763  11.515
 8854W        W75637  42.899  29.444  11.415
 8855W        W75638  29.856  44.646   1.688
 8856W        W75639  28.138  24.638  12.595
 8857W        W75640  37.023  40.770   1.857
 8858W        W75641  11.519  36.887   5.112
 8859W        W75642  23.075  34.364  11.352
 8860W        W75643  44.002  29.878   3.147
 8861W        W75644  22.343  21.641   0.329
 8862W        W75645   3.964   7.688   4.254
 8863W        W75646  20.843  34.377   1.418
 8864W        W75647  14.862  10.871  11.570
 8865W        W75648  33.445  28.616   1.659
 8866W        W75649  20.199  10.759  13.572
 8867W        W75650  16.531  17.289  13.821
 8868W        W75651  40.009   6.082   4.095
 8869W        W75652  14.448  35.021  12.065
 8870W        W75653  31.315  27.505   3.787
 8871W        W75654  36.027  42.333  12.490
 8872W        W75655   8.906   8.243  12.460
 8873W        W75656   9.814  17.156   2.702
 8874W        W75657  15.189  34.470   0.377
 8875W        W75658  34.925   9.322   3.654
 8876W        W75659  27.712  22.215  12.119
 8877W        W75660   1.225  19.604   3.689
 8878W        W75661  39.959   8.930  14.555
 8879W        W75662   3.490  20.543   1.821
 8880W        W75663   0.813  10.275   3.885
 8881W        W75664  24.522   0.542   4.066
 8882W        W75665  21.605  17.354   9.999
 8883W        W75666   7.443   8.658   0.877
 8884W        W75667  29.699  17.175  13.776
 8885W        W75668  21.692   9.231  14.981
 8886W        W75669  27.557   0.568   1.910
 8887W        W75670  10.909   6.873   4.649
 8888W        W75671  36.924  18.571   3.771
 8889W        W75672   7.708   1.719   3.705
 8890W        W75673  23.994   1.182   2.376
 8891W        W75674  20.327  28.111   0.291
 8892W        W75675   9.236  16.000   2.688
 8893W        W75676  21.073  28.362   0.916
 8894W        W75677   6.620   1.411  11.859
 8895W        W75678  27.555  10.331  13.023
 8896W        W75679   4.881  11.146   3.619
 8897W        W75680   2.758  33.096   0.360
 8898W        W75681  24.624  29.423   0.844
 8899W        W75682  42.408  17.192  13.940
 8900W        W75683  23.681  29.997   4.667
 8901W        W75684  33.062  34.821  12.018
 8902W        W75685  27.189  14.611   2.685
 8903W        W75686  43.251  33.107  11.475
 8904W        W75687  33.683   4.660  13.499
 8905W        W75688  17.902  37.490   3.133
 8906W        W75689  32.417   7.726  13.431
 8907W        W75690  42.304  24.991  13.827
 8908W        W75691  13.930  35.386   5.015
 8909W        W75692   2.599   0.860   2.727
 8910W        W75693  25.557  23.283  11.569
 8911W        W75694  44.438  20.117   0.839
 8912W        W75695  24.668  43.697  12.424
 8913W        W75696  11.842  23.924  12.601
 8914W        W75697   1.521  35.842   0.845
 8915W        W75698  14.045  11.386  12.124
 8916W        W75699  28.018   4.937  13.793
 8917W        W75700  21.509  13.116   2.257
 8918W        W75701  23.228   0.509   2.450
 8919W        W75702   3.901  29.981  12.532
 8920W        W75703   5.266   3.377  11.533
 8921W        W75704  31.799  25.545   0.561
 8922W        W75705   1.971  33.622  13.766
 8923W        W75706  21.780  22.143   2.446
 8924W        W75707  35.101  39.614   3.173
 8925W        W75708   9.569  24.395   1.866
 8926W        W75709   5.036  29.011  13.891
 8927W        W75710   1.225   6.581   0.806
 8928W        W75711   0.256   0.958  14.315
 8929W        W75712  18.491   9.258  13.493
 8930W        W75713  39.896  13.654   1.442
 8931W        W75714  38.701  42.927  11.555
 8932W        W75715   3.577  12.336   1.361
 8933W        W75716  35.623  28.146   3.774
 8934W        W75717  19.357  17.755   4.535
 8935W        W75718  27.756  16.375  14.978
 8936W        W75719  18.761  23.460   1.981
 8937W        W75720   6.746  22.338   3.168
 8938W        W75721  37.073  20.545  12.465
 8939W        W75722  34.947  34.987  14.473
 8940W        W75723  24.938  35.537  12.991
 8941W        W75724  36.411  39.317   2.103
 8942W        W75725  24.453  24.534  13.990
 8943W        W75726  11.898  26.198   1.046
 8944W        W75727   0.467   1.818   1.039
 8945W        W75728  27.045  33.622  11.120
 8946W        W75729  19.053  42.826   3.556
 8947W        W75730  22.312   3.192  11.430
 8948W        W75731  35.680  18.513   3.221
 8949W        W75732  42.947   6.205  10.667
 8950W        W75733  40.515  17.992   4.076
 8951W        W75734   2.009  20.157  12.206
 8952W        W75735  43.782  24.009  13.740
 8953W        W75736   3.977  36.813   4.174
 8954W        W75737   1.769  23.522  10.738
 8955W        W75738   2.709  11.149  11.616
 8956W        W75739   3.326   8.176   0.694
 8957W        W75740  23.470  13.553  11.200
 8958W        W75741   7.747  21.318   2.208
 8959W        W75742  40.453   9.553   4.464
 8960W        W75743  10.369   6.405   2.112
 8961W        W75744  22.441  26.446   3.696
 8962W        W75745  16.582  16.818  12.553
 8963W        W75746  27.534  12.586  14.926
 8964W        W75747  35.517  17.184  14.419
 8965W        W75748  15.419  24.987   3.117
 8966W        W75749  26.043  16.597   0.382
 8967W        W75750   6.988  21.100  13.789
 8968W        W75751  43.164  14.627  11.625
 8969W        W75752   6.912  39.545   4.066
 8970W        W75753  42.975  19.402  10.867
 8971W        W75754   5.500  37.411  11.943
 8972W        W75755   3.188   6.765   3.697
 8973W        W75756  30.837  36.994   4.266
 8974W        W75757  39.741  12.590   2.864
 8975W        W75758  37.266  11.640  12.554
 8976W        W75759  43.423  30.238   4.101
 8977W        W75760   6.404  13.860  13.859
 8978W        W75761   1.367   3.948   4.553
 8979W        W75762  22.850  20.267   0.672
 8980W        W75763  35.353  20.236   3.520
 8981W        W75764  32.380   3.770  10.624
 8982W        W75765  29.679  11.509   4.020
 8983W        W75766  30.177  31.367   4.789
 8984W        W75767  23.216  27.628  12.641
 8985W        W75768   5.385  21.766  10.624
 8986W        W75769  13.568   0.202   3.167
 8987W        W75770  19.281  29.625   3.732
 8988W        W75771  28.076  18.875  12.423
 8989W        W75772   3.675  20.208  14.239
 8990W        W75773  31.439  27.642   2.814
 8991W        W75774  39.799  13.718  14.466
 8992W        W75775  26.711  22.167   0.859
 8993W        W75776  35.078  14.211   0.558
 8994W        W75777  11.570  44.546   0.758
 8995W        W75778   1.828  37.979   1.099
 8996W        W75779   0.342  28.747   1.362
 8997W        W75780  37.052   3.790  13.869
 8998W        W75781   8.295   6.916  12.185
 8999W        W75782  41.626  24.028  13.763
 9000W        W75783  18.608  21.410   1.109
 9001W        W75784   6.528  22.777  13.979
 9002W        W75785   9.656  29.475  14.010
 9003W        W75786  25.626  30.662   3.142
 9004W        W75787  22.653  23.562  14.751
 9005W        W75788  28.261  18.230  13.054
 9006W        W75789  39.564  36.149  14.275
 9007W        W75790  19.043  25.498  13.090
 9008W        W75791  12.169  18.495   2.958
 9009W        W75792   0.997   0.377   2.937
 9010W        W75793   9.850  12.229  12.943
 9011W        W75794  31.945   8.375  14.502
 9012W        W75795  40.356  42.842   3.712
 9013W        W75796  42.884  25.437  14.470
 9014W        W75797   9.443  34.430  13.021
 9015W        W75798  29.426  43.702   3.546
 9016W        W75799  27.400  33.154   1.313
 9017W        W75800  10.136  23.090  14.942
 9018W        W75801  28.123  21.733  11.548
 9019W        W75802  30.704  13.969  11.959
 9020W        W75803  23.653  32.771   0.422
 9021W        W75804  41.952  32.546   1.323
 9022W        W75805  41.576   5.369  13.194
 9023W        W75806  20.022  44.381   1.222
 9024W        W75807  32.060  43.170  12.392
 9025W        W75808   6.838  40.799  10.668
 9026W        W75809  16.343  34.955   3.954
 9027W        W75810  33.593  19.526  11.979
 9028W        W75811  14.329  19.796   3.234
 9029W        W75812   3.332  14.526   3.532
 9030W        W75813  29.931  18.086  10.786
 9031W        W75814   1.326  33.986   1.300
 9032W        W75815  11.327  37.381   5.075
 9033W        W75816  22.724   2.880  10.807
 9034W        W75817   3.545   4.710  14.927
 9035W        W75818  44.770  30.444   3.734
 9036W        W75819  32.027  21.869  13.351
 9037W        W75820  39.234  36.826   1.446
 9038W        W75821  31.828  16.354   1.913
 9039W        W75822  24.421   2.456   2.257
 9040W        W75823  11.323  39.503  14.037
 9041W        W75824  15.176  11.616  12.781
 9042W        W75825  39.606   5.297   1.702
 9043W        W75826   7.514  23.629  10.631
 9044W        W75827  41.000  32.424  13.138
 9045W        W75828   4.678  25.628   3.313
 9046W        W75829  35.401  31.637  13.943
 9047W        W75830  15.159  24.662   0.927
 9048W        W75831   7.314  41.587  11.926
 9049W        W75832  34.350  37.135   4.108
 9050W        W75833  13.163  41.725  10.968
 9051W        W75834  20.509  31.295  10.453
 9052W        W75835  15.328  40.032  12.157
 9053W        W75836  12.572   0.518   4.223
 9054W        W75837  24.273  44.015   1.079
 9055W        W75838  16.181   6.317  13.596
 9056W        W75839  33.069  12.720   4.780
 9057W        W75840  17.760   6.598   0.977
 9058W        W75841  34.181  13.289  13.880
 9059W        W75842  13.072   0.280  10.671
 9060W        W75843  44.257  39.097  12.836
 9061W        W75844  10.295  14.912   3.993
 9062W        W75845  27.353  21.240   2.558
 9063W        W75846   8.902   1.895  14.101
 9064W        W75847  29.389  18.339   3.660
 9065W        W75848  20.089  31.508   5.097
 9066W        W75849  27.179  21.354   1.242
 9067W        W75850  28.536  39.030  12.932
 9068W        W75851  32.531  39.009   3.263
 9069W        W75852  25.612   8.269   4.016
 9070W        W75853  10.111  39.054   0.969
 9071W        W75854  15.494  25.893  13.005
 9072W        W75855   2.681   6.346   0.760
 9073W        W75856  34.958   6.876   2.273
 9074W        W75857   3.640  37.414  11.639
 9075W        W75858  35.500  10.921   1.188
 9076W        W75859  19.264  32.980   1.367
 9077W        W75860  32.513  36.108   2.820
 9078W        W75861  11.084  11.552  13.018
 9079W        W75862  17.505  21.245   3.096
 9080W        W75863  12.873   7.685  13.799
 9081W        W75864  12.776  18.107   4.537
 9082W        W75865  34.133  25.514   2.843
 9083W        W75866  12.306  38.886  14.830
 9084W        W75867  21.516  24.462   2.394
 9085W        W75868  41.458  26.825   3.091
 9086W        W75869  20.001  40.496  12.503
 9087W        W75870  19.247  23.290  12.180
 9088W        W75871  39.057   8.625   4.163
 9089W        W75872  44.443  19.796   0.422
 9090W        W75873  13.818  34.984   3.587
 9091W        W75874  16.271   5.146   2.932
 9092W        W75875  21.153  14.557   3.287
 9093W        W75876  31.179  28.033   4.547
 9094W        W75877  22.396  32.755  14.248
 9095W        W75878  33.891   2.851  13.542
 9096W        W75879   5.766   7.716  11.505
 9097W        W75880   6.229   3.837  13.003
 9098W        W75881  27.024  26.005   3.174
 9099W        W75882   3.414  40.038   5.298
 9100W        W75883  23.000  19.111  12.042
 9101W        W75884   9.868  23.972  14.990
 9102W        W75885  44.988   9.761  12.929
 9103W        W75886  42.472   2.435   4.522
 9104W        W75887  25.527  26.965  11.627
 9105W        W75888  38.270   9.755  13.960
 9106W        W75889  18.050  26.178   3.875
 9107W        W75890   8.271  38.046  10.484
 9108W        W75891   4.266  18.993  14.296
 9109W        W75892  36.342  22.802  14.420
 9110W        W75893  34.916   9.838   0.079
 9111W        W75894  21.329  19.085   1.275
 9112W        W75895  23.694   1.695   0.030
 9113W        W75896  11.089  23.177  14.798
 9114W        W75897  12.964  43.639  12.420
 9115W        W75898  29.158  39.062  11.681
 9116W        W75899  21.707   5.604  14.980
 9117W        W75900   3.699  38.940  14.468
 9118W        W75901  14.118  34.063   1.283
 9119W        W75902   8.825  40.921  13.213
 9120W        W75903  33.526  16.348  11.920
 9121W        W75904  10.311  40.885   3.095
 9122W        W75905  29.585   0.956   4.925
 9123W        W75906  14.833   8.519   0.753
 9124W        W75907  16.023  31.087   1.370
 9125W        W75908   5.662  43.962   2.809
 9126W        W75909  24.991  40.898  12.105
 9127W        W75910  20.968  41.742   4.089
 9128W        W75911  10.765  17.208   1.725
 9129W        W75912  26.994  12.597   0.640
 9130W        W75913   6.775  16.839  12.876
 9131W        W75914  21.155  44.673   2.719
 9132W        W75915  34.560  19.242   4.047
 9133W        W75916   7.341  41.765   3.183
 9134W        W75917  21.898  16.128   3.627
 9135W        W75918  13.920   8.718  11.960
 9136W        W75919  26.712  15.874  14.318
 9137W        W75920   9.736  44.700  12.553
 9138W        W75921   3.326  41.163  11.525
 9139W        W75922  13.079  19.568  14.966
 9140W        W75923  35.282   2.457  12.213
 9141W        W75924   8.491  20.645   3.051
 9142W        W75925  16.792  35.022  10.755
 9143W        W75926  40.866  39.796  11.089
 9144W        W75927   6.788  15.988  13.931
 9145W        W75928  31.415  38.560   0.896
 9146W        W75929  38.498  10.924  12.443
 9147W        W75930   5.310  37.386  12.413
 9148W        W75931   5.212  24.935  10.765
 9149W        W75932  41.082  19.566   5.199
 9150W        W75933   2.262  18.732  11.235
 9151W        W75934   1.929   5.025  11.474
 9152W        W75935  14.093  19.687  14.834
 9153W        W75936  12.146  35.572   4.249
 9154W        W75937  15.854  43.865   1.511
 9155W        W75938  35.908  43.004  11.208
 9156W        W75939  18.441   1.954  13.059
 9157W        W75940   3.363  40.305   3.879
 9158W        W75941  31.877  27.392  12.496
 9159W        W75942  39.345  16.367  14.021
 9160W        W75943  43.832   5.226   3.815
 9161W        W75944  42.302  36.898  13.034
 9162W        W75945  40.807   7.830  12.873
 9163W        W75946  24.180  23.570   0.253
 9164W        W75947   4.791   5.426   4.742
 9165W        W75948  37.965   6.927  13.956
 9166W        W75949  16.557   6.162   3.189
 9167W        W75950  42.261   3.481  13.813
 9168W        W75951  14.621   0.529   4.979
 9169W        W75952  23.791   2.711  14.783
 9170W        W75953  42.971  29.906  13.603
 9171W        W75954  21.218   1.011  10.757
 9172W        W75955  39.240  39.356  11.512
 9173W        W75956   4.352   3.852  10.936
 9174W        W75957   7.908  30.525  13.052
 9175W        W75958   8.730  42.097  11.622
 9176W        W75959   8.395  32.795  13.565
 9177W        W75960  33.137   9.883  14.824
 9178W        W75961   4.828  44.325   0.439
 9179W        W75962  26.483   4.406   1.724
 9180W        W75963  18.204  27.549   3.870
 9181W        W75964   8.677  42.408   2.834
 9182W        W75965  15.118  37.077   0.856
 9183W        W75966  44.265  42.276  14.619
 9184W        W75967  23.941   3.526   3.203
 9185W        W75968  43.015  30.462  11.977
 9186W        W75969  24.076  12.397  11.239
 9187W        W75970  21.166  15.670   1.660
 9188W        W75971  43.529  25.310  14.892
 9189W        W75972   8.395  39.924   1.669
 9190W        W75973  26.154  44.826  14.874
 9191W        W75974  14.069  42.085  11.097
 9192W        W75975  43.643  13.263  12.102
 9193W        W75976   2.717  31.123  14.314
 9194W        W75977  12.734   7.307  10.082
 9195W        W75978  40.006  34.666  14.427
 9196W        W75979  24.619  19.692  14.516
 9197W        W75980  12.360  28.233  13.018
 9198W        W75981  32.524  41.360  13.339
 9199W        W75982   6.624  10.175  11.941
 9200W        W75983  30.859  38.893   4.114
 9201W        W75984   8.197  26.570  13.451
 9202W        W75985  20.308  29.000  13.382
 9203W        W75986  33.267  31.625  11.048
 9204W        W75987   5.362  18.765   0.813
 9205W        W75988   2.462  42.994  13.814
 9206W        W75989  14.371  33.960  13.284
 9207W        W75990  22.670  13.613  14.098
 9208W        W75991  38.377  36.962   0.884
 9209W        W75992  43.078  34.949  12.064
 9210W        W75993  37.776  20.483   3.200
 9211W        W75994   6.363  34.981   2.223
 9212W        W75995  27.089  12.683   4.140
 9213W        W75996  17.185   8.776  12.683
 9214W        W75997  41.643  27.573  14.998
 9215W        W75998  28.888  28.544   2.281
 9216W        W75999  30.562  41.510  12.013
 9217W        W76000  10.869  25.833  14.479
 9218W        W76001   6.816  38.939   2.890
 9219W        W76002  43.243   3.655  13.529
 9220W        W76003  33.527  20.924  11.700
 9221W        W76004  17.367  30.883   0.886
 9222W        W76005  39.809   8.889   1.028
 9223W        W76006  16.975  25.217   4.044
 9224W        W76007  27.582  30.664  11.012
 9225W        W76008  17.764   9.529  14.236
 9226W        W76009  25.197   6.133   2.360
 9227W        W76010  18.784   9.660   4.932
 9228W        W76011  39.859   2.728   0.871
 9229W        W76012  14.094  41.857   3.777
 9230W        W76013   5.101  11.271  11.043
 9231W        W76014  31.999  36.289   1.824
 9232W        W76015  39.171  10.227   3.112
 9233W        W76016   5.840  31.706  13.264
 9234W        W76017  18.317   0.518   2.318
 9235W        W76018  35.903  21.972   2.913
 9236W        W76019  37.102  36.401   3.228
 9237W        W76020  12.740  38.596   2.818
 9238W        W76021  37.488  44.755  13.554
 9239W        W76022  32.401  38.565  14.001
 9240W        W76023  23.739  33.604   3.334
 9241W        W76024  19.067   8.536  13.708
 9242W        W76025   4.660  38.417  13.355
 9243W        W76026  21.172  23.561   2.692
 9244W        W76027  42.857  13.341  12.376
 9245W        W76028  25.497   6.644  10.645
 9246W        W76029  18.487  15.549  14.879
 9247W        W76030  11.794   2.917  11.688
 9248W        W76031  40.923  35.962   1.271
 9249W        W76032  20.757  11.689  13.416
 9250W        W76033  12.252  12.934  12.665
 9251W        W76034  32.046   5.430   0.902
 9252W        W76035  25.506   2.581  10.712
 9253W        W76036  34.586  42.412   2.252
 9254W        W76037  20.841  28.432  12.845
 9255W        W76038   0.345  13.793   0.588
 9256W        W76039  18.292   6.353  13.348
 9257W        W76040   1.798   3.958  12.135
 9258W        W76041  15.034   8.527   2.255
 9259W        W76042  20.717  13.901  11.592
 9260W        W76043  30.043  11.726   1.908
 9261W        W76044  44.555  30.013   4.667
 9262W        W76045  40.325  42.960   0.432
 9263W        W76046  17.385  39.456   0.141
 9264W        W76047  18.356  43.375   4.740
 9265W        W76048  41.078  10.607  11.616
 9266W        W76049  44.010  16.400  14.499
 9267W        W76050  38.092  19.077   2.351
 9268W        W76051  38.967  23.980  13.021
 9269W        W76052  31.497   4.441   3.463
 9270W        W76053  44.894  41.753   0.101
 9271W        W76054  18.463  26.271   3.554
 9272W        W76055  11.675  23.261   0.200
 9273W        W76056  39.109  13.849   9.805
 9274W        W76057  21.606  11.379  14.385
 9275W        W76058   3.265  34.484  11.320
 9276W        W76059   2.043   6.348   1.583
 9277W        W76060   7.281  40.040  10.678
 9278W        W76061  13.215  33.195   2.372
 9279W        W76062  34.403  39.601  13.343
 9280W        W76063  26.425  19.638   1.313
 9281W        W76064   3.961  30.603  13.021
 9282W        W76065  43.423  44.779   3.706
 9283W        W76066  44.497  36.322   2.397
 9284W        W76067  21.190   0.778  13.887
 9285W        W76068  37.021  22.029  13.288
 9286W        W76069  28.888  11.648   0.862
 9287W        W76070  28.582  40.823   0.915
 9288W        W76071  36.195  22.400  13.122
 9289W        W76072  18.554  11.253   4.152
 9290W        W76073   1.327  22.968  13.241
 9291W        W76074  25.268   1.031  13.949
 9292W        W76075  10.784  36.303   3.408
 9293W        W76076  32.867   7.172   3.344
 9294W        W76077   4.098  35.057  11.084
 9295W        W76078   5.874  41.868  13.028
 9296W        W76079  28.548  17.240   1.471
 9297W        W76080  30.932  19.616   0.325
 9298W        W76081  18.123  23.948   1.428
 9299W        W76082  36.841  22.783  11.045
 9300W        W76083  31.520   6.033  14.694
 9301W        W76084  32.536  43.895   3.204
 9302W        W76085  37.446   2.433   1.663
 9303W        W76086  18.675  14.256   1.601
 9304W        W76087  41.244  28.006   0.282
 9305W        W76088  43.466  31.164   1.335
 9306W        W76089  23.853   1.900   1.790
 9307W        W76090  21.661  41.413   4.425
 9308W        W76091  13.195  31.567   3.120
 9309W        W76092  11.682  10.480   1.937
 9310W        W76093  41.425  31.163   4.924
 9311W        W76094  11.978  35.797  14.251
 9312W        W76095  25.754  26.128  12.329
 9313W        W76096  25.621  41.485   2.335
 9314W        W76097  24.949   7.809   0.765
 9315W        W76098   3.475   5.435   3.211
 9316W        W76099   2.266  32.980   1.142
 9317W        W76100  41.495  22.307  10.716
 9318W        W76101  18.576   8.131  12.375
 9319W        W76102   1.709   4.175   4.860
 9320W        W76103  15.780  43.952  14.978
 9321W        W76104  11.442  35.388  13.069
 9322W        W76105  16.647  32.811  14.867
 9323W        W76106  31.566  25.059   0.349
 9324W        W76107  30.652  18.637  14.522
 9325W        W76108  23.606  29.146  14.434
 9326W        W76109  27.660  38.855   4.526
 9327W        W76110   7.676  17.152   3.161
 9328W        W76111  11.625  18.275  12.308
 9329W        W76112  13.167  18.599   2.305
 9330W        W76113   7.574   4.589   0.822
 9331W        W76114   8.220   3.012  14.497
 9332W        W76115   9.233  24.584   0.326
 9333W        W76116  41.030  27.733  13.554
 9334W        W76117  14.815  23.445   3.841
 9335W        W76118  43.153   2.610  14.269
 9336W        W76119   2.349  21.461   1.299
 9337W        W76120  17.614   9.310   1.609
 9338W        W76121   0.430  44.887   4.318
 9339W        W76122   4.830  14.644  14.378
 9340W        W76123  42.523   8.398   1.811
 9341W        W76124  43.571  23.770   1.255
 9342W        W76125  11.658  43.866   2.323
 9343W        W76126  17.974  10.656  13.286
 9344W        W76127  17.644  25.099  10.961
 9345W        W76128  30.567  12.118   2.667
 9346W        W76129   8.750  33.326  10.975
 9347W        W76130  36.999  35.787  11.537
 9348W        W76131  27.997   0.466   3.895
 9349W        W76132  30.142  27.123   2.270
 9350W        W76133   7.244  13.899   3.467
 9351W        W76134  28.188  11.377  12.023
 9352W        W76135  36.623  17.269  11.579
 9353W        W76136  37.430  32.834   2.289
 9354W        W76137  29.678  19.579  14.002
 9355W        W76138   1.707   0.441  11.704
 9356W        W76139   4.238  42.524  12.440
 9357W        W76140  17.332  21.201  13.267
 9358W        W76141   1.340  13.748   3.269
 9359W        W76142  39.760  16.245  11.609
 9360W        W76143   6.869  16.676   0.186
 9361W        W76144   8.919  36.478  14.459
 9362W        W76145  11.448  28.915  11.584
 9363W        W76146  27.962  41.262  11.567
 9364W        W76147  16.990   2.579   2.652
 9365W        W76148  22.356  41.323   5.021
 9366W        W76149  21.619  25.748  14.758
 9367W        W76150  10.365  26.665  10.809
 9368W        W76151  44.383   6.669   3.525
 9369W        W76152  36.075   4.989   4.095
 9370W        W76153  39.807  40.719  10.788
 9371W        W76154  26.532   4.895  13.624
 9372W        W76155   8.567  22.216  13.088
 9373W        W76156  32.517  18.113   5.473
 9374W        W76157   1.964  37.850  14.208
 9375W        W76158  16.312  17.233  11.108
 9376W        W76159  37.246  31.954   2.603
 9377W        W76160  10.242  27.649  13.176
 9378W        W76161  30.432  26.442   2.709
 9379W        W76162   6.199  33.141  14.411
 9380W        W76163  20.470  22.013  11.156
 9381W        W76164  37.008  25.785  14.385
 9382W        W76165   3.584  31.183   0.375
 9383W        W76166   2.916  12.101  12.064
 9384W        W76167  30.022  23.269  12.973
 9385W        W76168  39.603  14.762  12.471
 9386W        W76169  27.651  26.589  13.136
 9387W        W76170  21.095  32.868  11.124
 9388W        W76171  20.591  32.395  14.405
 9389W        W76172  18.169  38.520   4.680
 9390W        W76173   9.533   5.173   2.794
 9391W        W76174  29.060  24.585   0.893
 9392W        W76175  16.142  42.456   2.953
 9393W        W76176  44.749   6.237   2.877
 9394W        W76177  11.365  25.986   3.271
 9395W        W76178  26.709  33.900  14.017
 9396W        W76179  37.317  32.489  12.055
 9397W        W76180  19.732  12.194  11.565
 9398W        W76181  16.035   3.104   0.464
 9399W        W76182   7.832  19.321   2.672
 9400W        W76183  12.157  36.341  12.047
 9401W        W76184  38.459  15.754   2.943
 9402W        W76185  23.005   7.950  14.954
 9403W        W76186  43.355  35.501  13.117
 9404W        W76187  17.902  35.544  11.497
 9405W        W76188  28.015  38.331   0.986
 9406W        W76189  13.653  21.319   3.933
 9407W        W76190  17.239   6.450   4.124
 9408W        W76191  38.053  42.953  13.120
 9409W        W76192  12.648  39.333  14.835
 9410W        W76193  20.763  20.565  11.471
 9411W        W76194  11.921  25.006   4.879
 9412W        W76195  19.963  41.846   1.263
 9413W        W76196   0.915  37.896  10.687
 9414W        W76197  26.965  10.148   3.422
 9415W        W76198  43.900   5.241  11.067
 9416W        W76199  25.166  30.057  11.141
 9417W        W76200  33.177   8.378  14.933
 9418W        W76201  34.099  17.601   5.481
 9419W        W76202  20.663  22.225  14.141
 9420W        W76203  25.246  34.114   3.911
 9421W        W76204   1.077  28.175  14.178
 9422W        W76205   2.378  33.891  10.674
 9423W        W76206  39.869  18.118  13.795
 9424W        W76207  36.031  38.320  10.643
 9425W        W76208   3.766  17.629   0.417
 9426W        W76209  24.542   3.839   2.093
 9427W        W76210  42.201  20.703   3.577
 9428W        W76211  30.515  17.758   2.994
 9429W        W76212  42.933  30.629  14.307
 9430W        W76213  26.940  11.647  10.788
 9431W        W76214  13.548  17.833   2.542
 9432W        W76215  24.528  35.132   1.460
 9433W        W76216  37.316  33.827   5.079
 9434W        W76217  16.646  19.716   1.310
 9435W        W76218   0.823  42.504   2.466
 9436W        W76219  37.875  26.080   1.546
 9437W        W76220  31.118   6.806   1.292
 9438W        W76221  43.397  13.094   2.265
 9439W        W76222  22.633  29.591  10.647
 9440W        W76223   0.378  42.728  10.296
 9441W        W76224  32.636  16.382  13.103
 9442W        W76225   2.885  16.241   0.975
 9443W        W76226  16.888  43.028   2.361
 9444W        W76227  14.744  11.594   2.906
 9445W        W76228  40.367  20.504  12.959
 9446W        W76229  18.410  39.070  11.452
 9447W        W76230   2.848   6.856   2.440
 9448W        W76231  16.960  19.982   4.585
 9449W        W76232   6.916   7.160  12.059
 9450W        W76233   2.238  26.112  10.771
 9451W        W76234  28.768  27.917  14.962
 9452W        W76235  12.629  16.605   0.954
 9453W        W76236  16.564  44.247   3.168
 9454W        W76237  26.551  33.992   1.791
 9455W        W76238  11.097  20.214   4.145
 9456W        W76239   3.884   8.882   0.886
 9457W        W76240  11.786   7.275  11.894
 9458W        W76241  16.696   4.860   2.867
 9459W        W76242  18.421  15.784   3.588
 9460W        W76243  29.066   7.960  13.252
 9461W        W76244   3.803  14.587   3.354
 9462W        W76245  12.342  18.556   1.958
 9463W        W76246  44.098  25.914   2.292
 9464W        W76247  11.789  10.153   4.976
 9465W        W76248   6.788  44.040  14.007
 9466W        W76249  33.571  18.556  12.902
 9467W        W76250   4.495  43.822   4.744
 9468W        W76251  39.374   7.220   2.162
 9469W        W76252  38.316  16.580  11.221
 9470W        W76253  25.405  38.376  10.726
 9471W        W76254  30.318  19.408   2.046
 9472W        W76255  33.874  11.074   1.762
 9473W        W76256  14.732  27.875  12.421
 9474W        W76257  24.287  35.921  13.330
 9475W        W76258  12.037  25.136   2.640
 9476W        W76259  13.672  16.233   1.786
 9477W        W76260  17.642  20.360  11.611
 9478W        W76261  18.477  26.578   0.214
 9479W        W76262  27.596  23.199   2.480
 9480W        W76263  35.877   1.910   2.584
 9481W        W76264  44.869  34.057   1.675
 9482W        W76265  41.332  15.329  13.957
 9483W        W76266  39.753  16.991   1.385
 9484W        W76267  28.231  27.723   3.278
 9485W        W76268   3.329  21.611   3.659
 9486W        W76269  44.382  38.324   0.787
 9487W        W76270  35.354  29.446   2.817
 9488W        W76271  31.466  14.420   4.156
 9489W        W76272  31.383  21.754   4.914
 9490W        W76273  11.465  17.775  12.532
 9491W        W76274   2.053  15.635  10.225
 9492W        W76275  43.229  18.211   1.641
 9493W        W76276  33.406  26.070   1.900
 9494W        W76277  23.639  18.709   0.209
 9495W        W76278  21.437   1.380  12.608
 9496W        W76279   2.862  15.733   0.558
 9497W        W76280  38.688  25.490   5.015
 9498W        W76281  11.636  30.425   3.301
 9499W        W76282  18.988  24.667   0.350
 9500W        W76283   9.408   4.647   0.719
 9501W        W76284   5.596  37.532   3.678
 9502W        W76285   8.282  24.766   4.672
 9503W        W76286  21.693  37.923   4.779
 9504W        W76287  40.917  17.658  12.735
 9505W        W76288   5.141  28.103  12.327
 9506W        W76289   3.278  30.353  11.861
 9507W        W76290  36.329  22.674   5.065
 9508W        W76291  10.825  19.401   4.421
 9509W        W76292  25.645  34.614   1.162
 9510W        W76293  18.634  25.341   3.756
 9511W        W76294  41.534  20.708  13.458
 9512W        W76295  13.801  23.004  12.157
 9513W        W76296  21.970  11.138  11.878
 9514W        W76297   8.911  23.622   4.880
 9515W        W76298   2.148   4.679   3.288
 9516W        W76299   0.906   0.949  10.743
 9517W        W76300  11.796  14.077   1.803
 9518W        W76301  23.022  40.172   2.903
 9519W        W76302  25.645  39.867   3.085
 9520W        W76303  36.079  16.818  10.757
 9521W        W76304  18.323   5.829  13.524
 9522W        W76305  12.233  37.954   4.513
 9523W        W76306  42.205   6.638   4.440
 9524W        W76307  20.023   7.216   2.384
 9525W        W76308  25.871  13.163   0.359
 9526W        W76309  24.028  35.024   4.190
 9527W        W76310  22.617  24.059  11.141
 9528W        W76311   9.033  38.740  14.968
 9529W        W76312   3.763   6.802   1.858
 9530W        W76313   1.362  44.413  10.661
 9531W        W76314  42.000  36.806   3.532
 9532W        W76315  42.931  43.349   2.854
 9533W        W76316  32.133  32.422  10.644
 9534W        W76317  17.061  42.939  12.827
 9535W        W76318   6.783  24.197  12.836
 9536W        W76319   7.831  39.578  12.678
 9537W        W76320  37.263  42.838   0.452
 9538W        W76321  38.710  36.120   3.743
 9539W        W76322  38.907  28.322  11.549
 9540W        W76323   4.852  12.342   4.177
 9541W        W76324   5.048  35.813   1.761
 9542W        W76325   7.908  22.984  13.487
 9543W        W76326  31.841   4.215   2.023
 9544W        W76327  16.225  25.295  13.904
 9545W        W76328  17.491  43.144   3.221
 9546W        W76329  22.372  37.321   5.019
 9547W        W76330  23.163  33.920  12.136
 9548W        W76331   1.412  22.598   4.074
 9549W        W76332  43.948  36.716   4.262
 9550W        W76333   1.853  26.115   0.096
 9551W        W76334   8.894  18.156  10.631
 9552W        W76335   6.714   0.707   4.590
 9553W        W76336   9.597  40.875   2.169
 9554W        W76337  19.978  30.911  13.341
 9555W        W76338   9.929  11.275   1.302
 9556W        W76339  40.881  14.209  12.592
 9557W        W76340  28.026  26.440   1.366
 9558W        W76341  14.720   4.363   3.897
 9559W        W76342  42.769   0.483  11.089
 9560W        W76343  11.606  18.037  14.312
 9561W        W76344  11.740  36.655  12.838
 9562W        W76345  29.577  29.601  12.907
 9563W        W76346  17.038   3.489  13.387
 9564W        W76347  36.362  15.084  13.049
 9565W        W76348  41.007  27.192  13.399
 9566W        W76349   3.738  37.379  14.640
 9567W        W76350  35.507   5.666  11.234
 9568W        W76351  22.208  31.952  11.938
 9569W        W76352  19.492  21.830   0.205
 9570W        W76353  14.132  31.786  14.547
 9571W        W76354  12.418  43.439   4.215
 9572W        W76355  11.392  23.016  11.573
 9573W        W76356  39.569  27.720   4.994
 9574W        W76357   6.241   4.847   0.950
 9575W        W76358  37.882  21.272  13.955
 9576W        W76359  36.623  35.995   2.650
 9577W        W76360   4.891   2.236   2.900
 9578W        W76361  31.529  19.511  13.963
 9579W        W76362  42.905  26.301  10.687
 9580W        W76363   2.238  43.859   2.853
 9581W        W76364   8.071  44.019  12.225
 9582W        W76365  31.385   3.062  14.711
 9583W        W76366  16.948  34.825  14.926
 9584W        W76367   5.296  19.028  11.595
 9585W        W76368  11.362   0.316   2.176
 9586W        W76369  12.262  32.209   3.317
 9587W        W76370  43.518  32.464   1.217
 9588W        W76371   5.034  44.496  11.104
 9589W        W76372  29.137   5.833   2.828
 9590W        W76373   7.106  37.042   0.297
 9591W        W76374  34.235  19.227   0.448
 9592W        W76375  31.929  28.217   0.619
 9593W        W76376  18.726  11.634  14.411
 9594W        W76377  31.623  38.346   0.401
 9595W        W76378  41.260  11.112  11.033
 9596W        W76379  40.195  42.428   2.825
 9597W        W76380  38.645   3.354   0.358
 9598W        W76381  36.910   4.731   3.626
 9599W        W76382   6.909   7.663  12.029
 9600W        W76383  32.652   9.441  10.998
 9601W        W76384  15.049   7.248   2.062
 9602W        W76385  35.255   0.974  14.702
 9603W        W76386  15.584   9.811   5.071
 9604W        W76387   1.926  16.080   2.348
 9605W        W76388   6.697  22.464  13.505
 9606W        W76389   3.009  28.573   1.278
 9607W        W76390   8.233  22.249  11.932
 9608W        W76391  15.394  40.120  14.594
 9609W        W76392  30.486  30.426   0.394
 9610W        W76393   6.319  22.133  13.457
 9611W        W76394  41.592   1.192  12.587
 9612W        W76395  39.344  21.839   0.839
 9613W        W76396  41.853  38.780  13.769
 9614W        W76397   5.145  27.212   1.709
 9615W        W76398  21.646   9.908  13.002
 9616W        W76399  25.041  29.120  12.220
 9617W        W76400  42.690  12.186  11.104
 9618W        W76401  34.129  15.700   1.889
 9619W        W76402  12.137  38.596   2.343
 9620W        W76403  27.128   2.212  11.492
 9621W        W76404  31.863  20.996   1.703
 9622W        W76405   4.199  23.340  14.901
 9623W        W76406  40.771   4.626   2.813
 9624W        W76407   9.192  42.294   0.030
 9625W        W76408  42.524  23.590  11.487
 9626W        W76409   6.583   2.017   4.736
 9627W        W76410   4.593   3.493   1.367
 9628W        W76411  11.642  16.694  10.702
 9629W        W76412   7.987  36.368  12.150
 9630W        W76413  34.151  10.638   2.750
 9631W        W76414   4.380  34.039   1.730
 9632W        W76415  43.856  42.298   2.954
 9633W        W76416  19.817   3.953  11.970
 9634W        W76417  15.089  35.038  12.024
 9635W        W76418  38.836   5.699   4.173
 9636W        W76419  29.858  19.125  10.040
 9637W        W76420  33.916  10.350  14.510
 9638W        W76421   7.421   2.861   2.042
 9639W        W76422  38.901   8.959   2.852
 9640W        W76423  13.118   9.590   3.185
 9641W        W76424   6.509  30.076  11.160
 9642W        W76425  17.165  38.475  10.602
 9643W        W76426  30.372  22.967   9.851
 9644W        W76427  30.340  20.567   4.139
 9645W        W76428  22.980  22.974   3.889
 9646W        W76429  28.587  31.537   3.354
 9647W        W76430   1.786   5.440   1.967
 9648W        W76431  33.365   9.409  13.519
 9649W        W76432   0.988   9.885  12.891
 9650W        W76433  39.398   2.449  14.552
 9651W        W76434   2.976  10.069   1.816
 9652W        W76435   6.213  39.993   3.599
 9653W        W76436  27.857  25.422   1.693
 9654W        W76437  31.835   7.270   2.146
 9655W        W76438  29.039  33.863  14.917
 9656W        W76439  24.931   3.016   1.270
 9657W        W76440  11.830  10.686  11.440
 9658W        W76441   0.599  12.826   5.006
 9659W        W76442  26.677  20.138  10.549
 9660W        W76443  30.640   2.879   4.609
 9661W        W76444   5.855   5.719  14.080
 9662W        W76445   3.083  35.294  11.166
 9663W        W76446   6.916  35.114   2.849
 9664W        W76447  22.410  17.667  14.465
 9665W        W76448  27.559  26.896   1.917
 9666W        W76449   0.876  44.133   4.273
 9667W        W76450  32.748  18.644   4.649
 9668W        W76451  32.149   2.613   2.744
 9669W        W76452  14.217   1.338  10.703
 9670W        W76453  44.527  39.523   4.463
 9671W        W76454  31.205  25.311   3.847
 9672W        W76455  14.199  21.084   3.293
 9673W        W76456  44.577  15.181   2.275
 9674W        W76457  29.029  21.029   2.288
 9675W        W76458  16.349  33.398   0.815
 9676W        W76459   9.154  15.093  11.050
 9677W        W76460  27.568  13.716  10.763
 9678W        W76461  40.036  10.331   2.042
 9679W        W76462  30.092  33.224  13.425
 9680W        W76463  37.054  29.714  11.971
 9681W        W76464  41.794  30.430   0.968
 9682W        W76465  14.075  23.455  14.302
 9683W        W76466  11.664  17.845  10.605
 9684W        W76467   3.294  42.461   0.389
 9685W        W76468   7.818  14.250  11.082
 9686W        W76469   3.910  36.888  12.518
 9687W        W76470  28.271  23.708  14.584
 9688W        W76471   4.643  26.525   2.758
 9689W        W76472  19.941  43.344   0.195
 9690W        W76473  30.029  33.659  10.441
 9691W        W76474  21.175  44.678  11.118
 9692W        W76475  23.981   4.733   4.025
 9693W        W76476  34.569  42.975   4.077
 9694W        W76477  23.711  43.443  10.861
 9695W        W76478  12.370  13.289   3.217
 9696W        W76479  39.473  30.600   1.820
 9697W        W76480  16.354  25.162  11.045
 9698W        W76481  39.472   8.115  11.126
 9699W        W76482  25.205  39.371   4.140
 9700W        W76483  25.447  43.447   0.323
 9701W        W76484  35.430  40.030  10.766
 9702W        W76485   2.680  12.175   3.271
 9703W        W76486  41.800  18.757  10.751
 9704W        W76487   8.246  11.319  13.962
 9705W        W76488  38.523  18.707  14.032
 9706W        W76489  26.937  28.040  12.852
 9707W        W76490  25.988   5.833   2.703
 9708W        W76491  24.661  12.645   2.705
 9709W        W76492  38.331  20.684   2.311
 9710W        W76493  22.653  24.567  11.054
 9711W        W76494  19.284  12.812  11.119
 9712W        W76495   5.758  15.120  12.023
 9713W        W76496  26.199  11.898   0.668
 9714W        W76497   8.256  41.104   3.867
 9715W        W76498  36.380   3.016   2.133
 9716W        W76499  33.656  15.841   3.730
 9717W        W76500   5.217  38.876  10.231
 9718W        W76501  28.048  12.094  12.987
 9719W        W76502  15.104  37.875  14.281
 9720W        W76503  16.603   7.131  11.730
 9721W        W76504  31.287   9.355  10.577
 9722W        W76505  24.679  24.948   1.897
 9723W        W76506  15.055  28.077   0.057
 9724W        W76507   9.458  29.206   2.932
 9725W        W76508  44.725  19.589   2.718
 9726W        W76509  44.277  10.558   4.136
 9727W        W76510  10.384  38.689   2.386
 9728W        W76511  23.509  25.547   3.730
 9729W        W76512  32.446   1.397  12.090
 9730W        W76513  13.327  43.538  11.147
 9731W        W76514  11.711  14.607   4.076
 9732W        W76515  12.290  44.451  12.161
 9733W        W76516  32.540  11.995   4.776
 9734W        W76517  18.732  22.463   3.144
 9735W        W76518  25.394   1.256  11.136
 9736W        W76519  39.746  39.866   4.618
 9737W        W76520   5.255  23.812  14.028
 9738W        W76521  11.311  42.054   2.282
 9739W        W76522  10.790  37.925   2.307
 9740W        W76523  18.009  20.819  11.052
 9741W        W76524  28.628  17.118  14.970
 9742W        W76525  14.555  12.488   0.295
 9743W        W76526   6.891   5.140  12.544
 9744W        W76527  10.517  17.502   3.800
 9745W        W76528  11.644  12.471  13.627
 9746W        W76529  42.016  19.295   0.825
 9747W        W76530  14.546   2.741   2.730
 9748W        W76531  23.598  27.908   2.190
 9749W        W76532  12.652  31.441  13.005
 9750W        W76533  21.664  10.949  14.068
 9751W        W76534  16.750  15.354   3.904
 9752W        W76535   8.068  18.117   4.100
 9753W        W76536  29.566  33.385  10.004
 9754W        W76537  24.977   3.820  12.119
 9755W        W76538  33.990  38.030  13.132
 9756W        W76539   8.837  17.702   2.697
 9757W        W76540  12.285  31.523   4.649
 9758W        W76541  20.744  32.718   2.110
 9759W        W76542  40.464  25.262  12.859
 9760W        W76543  21.033   5.271   1.977
 9761W        W76544  27.863  25.422   3.821
 9762W        W76545  37.780  41.603  11.030
 9763W        W76546  25.484  36.767  12.013
 9764W        W76547  21.781  38.533  13.943
 9765W        W76548  42.268  27.637   1.362
 9766W        W76549  35.376  15.874  12.438
 9767W        W76550  20.030  32.510  13.775
 9768W        W76551  31.585  12.146  14.450
 9769W        W76552  13.156  39.960  11.803
 9770W        W76553  44.144  44.492   0.984
 9771W        W76554  41.980  10.679  12.054
 9772W        W76555  22.638  29.038  14.441
 9773W        W76556   6.782  29.842   0.905
 9774W        W76557   8.869  32.928  11.683
 9775W        W76558   4.253  41.570  13.169
 9776W        W76559  15.637  32.978   1.009
 9777W        W76560  29.100   4.262  14.379
 9778W        W76561  10.302  20.038  12.045
 9779W        W76562  25.194  40.744   3.055
 9780W        W76563  36.128   9.444   4.120
 9781W        W76564  37.016  25.045   3.270
 9782W        W76565  41.397  43.781   0.729
 9783W        W76566  42.836   1.320  12.100
 9784W        W76567  25.515  20.368   1.693
 9785W        W76568  19.082   9.797   4.043
 9786W        W76569  15.385  15.533  13.296
 9787W        W76570  28.535   2.714   2.715
 9788W        W76571  40.828  33.318   1.761
 9789W        W76572  12.330  36.920   2.752
 9790W        W76573  26.429  37.653   2.426
 9791W        W76574  40.062  20.739   1.713
 9792W        W76575  24.442  42.078  14.333
 9793W        W76576  17.152  32.572   3.048
 9794W        W76577   2.365  32.985   3.501
 9795W        W76578  13.054  13.394  13.466
 9796W        W76579   1.318  38.062  11.963
 9797W        W76580   4.914   5.163  13.931
 9798W        W76581  10.412  24.716   1.699
 9799W        W76582  36.399   8.758  11.987
 9800W        W76583   9.839  39.828  14.848
 9801W        W76584   9.223  33.697   4.527
 9802W        W76585  34.759  12.969   2.636
 9803W        W76586  29.789  35.441  13.875
 9804W        W76587   1.255  25.250   0.422
 9805W        W76588  11.724   2.146   2.531
 9806W        W76589   2.264   4.747  10.551
 9807W        W76590  41.182  26.698  12.592
 9808W        W76591  17.104   0.004   4.845
 9809W        W76592  11.303   6.976   3.140
 9810W        W76593  23.943   7.784  14.314
 9811W        W76594  10.870  24.469  14.959
 9812W        W76595  38.409  36.661  11.179
 9813W        W76596  33.142  43.226   2.768
 9814W        W76597   1.185  28.508   2.774
 9815W        W76598  19.467  22.468   2.936
 9816W        W76599  34.662  23.514   1.905
 9817W        W76600   0.979  19.650  11.949
 9818W        W76601  18.067  23.498   4.176
 9819W        W76602  38.040   2.369   2.678
 9820W        W76603  35.832  37.904  13.110
 9821W        W76604  21.490  20.071   2.706
 9822W        W76605  25.997  14.743  12.981
 9823W        W76606  18.950  20.666  12.003
 9824W        W76607   1.580  40.171   0.356
 9825W        W76608  19.918   0.001   3.226
 9826W        W76609  15.715   8.604   3.793
 9827W        W76610  36.767  16.568   3.079
 9828W        W76611  11.117  40.575   1.395
 9829W        W76612  16.126   0.632  12.863
 9830W        W76613  34.411  28.470  12.863
 9831W        W76614  42.032  12.815   1.261
 9832W        W76615   3.770  39.476  14.359
 9833W        W76616  11.265  22.586   4.813
 9834W        W76617   6.159  42.325   4.940
 9835W        W76618  21.063  15.118   0.914
 9836W        W76619  34.121   8.840  14.848
 9837W        W76620  43.249  10.752   4.220
 9838W        W76621  31.344  17.143  12.993
 9839W        W76622  16.126   3.959   1.012
 9840W        W76623  22.201   1.456  14.278
 9841W        W76624  36.177  34.525   1.714
 9842W        W76625   5.801  24.271  13.829
 9843W        W76626   9.498  19.159  14.317
 9844W        W76627  20.428  41.861  13.061
 9845W        W76628  42.699   6.795   0.775
 9846W        W76629   3.493  17.616  11.260
 9847W        W76630  33.094   3.885   0.744
 9848W        W76631   3.187  14.934   2.150
 9849W        W76632  30.065   0.368   4.536
 9850W        W76633  38.805  14.806  11.098
 9851W        W76634  40.397  32.861   2.416
 9852W        W76635  29.720  39.550   2.290
 9853W        W76636   2.427  32.969   4.643
 9854W        W76637   5.198  44.696   1.737
 9855W        W76638  11.152  40.190   1.761
 9856W        W76639  40.322  19.454  10.649
 9857W        W76640  41.963   4.934  13.141
 9858W        W76641  13.256  14.817  12.508
 9859W        W76642  33.483   5.478  11.665
 9860W        W76643  12.765  14.920  13.507
 9861W        W76644  16.816  35.470   2.954
 9862W        W76645   8.962  11.513   1.068
 9863W        W76646  44.382  17.773  12.503
 9864W        W76647  30.187   6.868   3.788
 9865W        W76648   7.268  37.622  14.313
 9866W        W76649   5.735   5.781  12.505
 9867W        W76650  11.602  13.387  12.117
 9868W        W76651  20.528  10.099   2.514
 9869W        W76652   5.635  36.457   2.384
 9870W        W76653  26.119  42.762   1.849
 9871W        W76654  30.844  11.933  11.267
 9872W        W76655  14.492  39.203   9.817
 9873W        W76656  25.162  34.645  14.302
 9874W        W76657  35.186  16.821  12.572
 9875W        W76658   1.468  22.480  10.665
 9876W        W76659  26.504   2.917   3.333
 9877W        W76660  32.496  29.037  12.414
 9878W        W76661  42.881  11.344  11.041
 9879W        W76662  24.880  43.351   3.351
 9880W        W76663  17.158  19.605   2.848
 9881W        W76664  42.591   1.548   4.643
 9882W        W76665   1.266  26.495  12.576
 9883W        W76666  16.836  43.992  13.338
 9884W        W76667   1.891  10.842  14.083
 9885W        W76668  39.822  10.826  12.178
 9886W        W76669  33.853   7.481  13.242
 9887W        W76670  33.135   7.872   4.697
 9888W        W76671  17.264  41.140   3.816
 9889W        W76672  29.553   1.079   1.203
 9890W        W76673   8.702  34.032  14.817
 9891W        W76674  23.958  38.842  13.383
 9892W        W76675  20.091  24.999   2.897
 9893W        W76676  16.027  12.383  13.386
 9894W        W76677  13.350  26.094  14.699
 9895W        W76678  41.172  23.386   3.561
 9896W        W76679  11.796  23.971   0.904
 9897W        W76680  44.512  18.741  12.587
 9898W        W76681  31.826  27.977   0.100
 9899W        W76682  40.120   0.983  12.601
 9900W        W76683   3.458  26.127  14.837
 9901W        W76684  44.742  31.039  13.344
 9902W        W76685  38.971   0.035   4.248
 9903W        W76686  40.920  20.968   4.970
 9904W        W76687  16.862  44.050  12.820
 9905W        W76688   5.316  13.717   3.695
 9906W        W76689   0.833  13.736   2.362
 9907W        W76690  40.574  28.660  12.915
 9908W        W76691  31.327  30.589  11.988
 9909W        W76692  20.796  37.059  13.375
 9910W        W76693  42.993  44.772   1.818
 9911W        W76694   5.089  21.715   2.553
 9912W        W76695   4.292  44.925   4.518
 9913W        W76696   9.818   0.240   1.948
 9914W        W76697  39.845  26.479  14.443
 9915W        W76698   6.306  17.806  10.708
 9916W        W76699  42.287  24.236  14.508
 9917W        W76700  31.092  17.875  14.558
 9918W        W76701  17.614  39.467   1.798
 9919W        W76702  22.130  35.415   0.903
 9920W        W76703  34.956  32.295  12.427
 9921W        W76704  15.176  18.678  14.702
 9922W        W76705  20.430   7.154  14.924
 9923W        W76706  22.032  30.994  14.305
 9924W        W76707  41.021   9.171  10.688
 9925W        W76708  31.563  17.770  11.627
 9926W        W76709  17.505  12.772   4.014
 9927W        W76710  20.820  21.160   3.580
 9928W        W76711   8.345  39.355  11.129
 9929W        W76712  20.901   6.237  14.814
 9930W        W76713  31.997  11.165   4.172
 9931W        W76714  17.800  35.469   0.990
 9932W        W76715   4.432  11.937   1.748
 9933W        W76716  34.060  25.115   1.705
 9934W        W76717  42.353  26.623   2.844
 9935W        W76718  37.139  41.026   3.684
 9936W        W76719   9.910  13.722  11.174
 9937W        W76720  35.024   4.308  14.393
 9938W        W76721  28.570  14.350  14.109
 9939W        W76722  36.675  30.885  13.506
 9940W        W76723   9.836  15.339   0.405
 9941W        W76724  42.874   5.217  14.957
 9942W        W76725  16.399   8.761   4.413
 9943W        W76726  19.685  24.190  13.438
 9944W        W76727  30.870  21.441  10.288
 9945W        W76728  42.101  17.027  10.505
 9946W        W76729   6.463  25.705  13.500
 9947W        W76730  11.312   4.453   1.308
 9948W        W76731  25.798  29.185   1.383
 9949W        W76732   3.207   9.788   4.795
 9950W        W76733  38.777  42.923   0.237
 9951W        W76734  12.824  11.244  14.495
 9952W        W76735  16.352  33.466  10.219
 9953W        W76736  12.644  13.631   2.830
 9954W        W76737  42.712   7.388  11.403
 9955W        W76738  28.022  33.167  12.035
 9956W        W76739   2.851  40.388   1.120
 9957W        W76740  17.251  21.143  13.783
 9958W        W76741   1.944  29.983   2.170
 9959W        W76742  21.171  13.549  13.417
 9960W        W76743  42.550  12.826   1.310
 9961W        W76744   4.731  28.600  13.948
 9962W        W76745  42.394  37.351  11.573
 9963W        W76746  21.258  16.562  10.619
 9964W        W76747  25.813  25.584  14.000
 9965W        W76748  15.641  19.004  12.556
 9966W        W76749  24.504  17.726  12.543
 9967W        W76750  39.329  20.205  13.940
 9968W        W76751  43.816  44.424   3.835
 9969W        W76752   7.227  38.477   0.390
 9970W        W76753  29.683   4.431   3.681
 9971W        W76754  35.950  35.873  13.437
 9972W        W76755   0.700  35.573  12.692
 9973W        W76756  29.049  32.634   0.513
 9974W        W76757  13.245  27.628  11.619
 9975W        W76758  23.504   9.878   2.171
 9976W        W76759  12.806  36.400  14.087
 9977W        W76760  27.628  21.625   2.290
 9978W        W76761  19.039  15.184  12.768
 9979W        W76762  22.216  32.100   3.654
 9980W        W76763  31.008  10.924  13.827
 9981W        W76764  40.888  27.450  11.538
 9982W        W76765  39.769  17.714  13.423
 9983W        W76766  41.947  23.093   0.619
 9984W        W76767   4.233   4.674   4.675
 9985W        W76768  11.272  25.927  14.171
 9986W        W76769   6.390  38.667  14.469
 9987W        W76770  34.798  37.320   1.898
 9988W        W76771   3.855  34.398   4.026
 9989W        W76772   6.868   3.401  12.394
 9990W        W76773  35.005  36.814   4.613
 9991W        W76774  30.410   1.469  12.775
 9992W        W76775  24.567   0.489   0.779
 9993W        W76776  14.711  28.692  13.010
 9994W        W76777   4.763   4.895   2.991
 9995W        W76778   2.062  37.619   2.441
 9996W        W76779   5.796  15.771   4.843
 9997W        W76780  13.361  20.708  14.465
 9998W        W76781  40.887  41.816  12.938
 9999W        W76782  18.760   5.371   0.459
10000W        W76783  31.412   1.289   0.430
10001W        W76784  40.329  15.084  11.133
10002W        W76785  40.994  17.641   1.246
10003W        W76786  21.505  32.335   1.859
10004W        W76787  43.920  30.037   4.065
10005W        W76788  22.079  40.278   3.213
10006W        W76789  10.147  19.871   1.821
10007W        W76790   3.033  41.889   3.612
10008W        W76791  12.382  41.852  13.359
10009W        W76792  19.486  22.087   1.928
10010W        W76793  25.998  30.010   2.365
10011W        W76794  16.695  36.108   0.246
10012W        W76795  25.957  28.179   3.167
10013W        W76796  16.407  24.969   1.625
10014W        W76797  12.998   0.066   2.401
10015W        W76798  13.337  40.279  14.772
10016W        W76799  15.301  26.545  12.940
10017W        W76800  17.328   5.500   4.582
10018W        W76801  21.613  31.518   1.379
10019W        W76802  19.004   5.549   1.320
10020W        W76803  17.500  20.239  14.238
10021W        W76804  32.421  39.973   3.248
10022W        W76805  39.644   7.199  13.039
10023W        W76806  31.806   8.759   1.245
10024W        W76807  43.421   5.944  13.432
10025W        W76808   4.418  15.607   3.917
10026W        W76809   4.469  28.565   0.233
10027W        W76810  35.382  23.227   1.734
10028W        W76811  17.292  38.383  12.336
10029W        W76812  24.206   5.471   1.367
10030W        W76813  22.609  12.388  14.726
10031W        W76814  14.340  43.683   4.434
10032W        W76815  27.650  23.301   1.961
10033W        W76816  42.467   3.343  11.043
10034W        W76817  24.940  41.543   1.806
10035W        W76818  43.986  19.254  13.341
10036W        W76819  43.901  23.856   3.676
10037W        W76820  20.041  16.664  13.060
10038W        W76821  35.538  29.470  11.184
10039W        W76822  10.626  19.972   2.740
10040W        W76823  30.403  24.772  12.875
10041W        W76824   4.111  27.120  13.502
10042W        W76825   8.881  27.569  14.437
10043W        W76826  13.401   8.245   0.884
10044W        W76827  27.503  14.053  13.460
10045W        W76828  43.553  43.893  11.151
10046W        W76829  23.725  38.892  10.706
10047W        W76830  40.834  33.638   4.688
10048W        W76831  34.432  32.803   1.145
10049W        W76832  31.066  14.271  12.163
10050W        W76833  27.576   0.737  10.921
10051W        W76834  33.871  10.791  11.540
10052W        W76835  17.746  18.449   4.975
10053W        W76836  20.402  29.896  12.377
10054W        W76837  21.308  41.466   2.458
10055W        W76838  34.710  13.592  12.124
10056W        W76839  32.150  12.207   4.518
10057W        W76840  43.016  16.240   3.512
10058W        W76841  41.331  16.646  13.355
10059W        W76842  17.486  17.562  13.021
10060W        W76843  30.510  20.089  10.226
10061W        W76844  11.333  33.457  12.817
10062W        W76845  25.274  33.167  13.007
10063W        W76846  37.428  20.086  13.935
10064W        W76847  42.443  24.829  11.099
10065W        W76848  42.921  41.043   1.733
10066W        W76849  18.331   5.520   2.794
10067W        W76850  24.589   4.487  12.114
10068W        W76851   6.763  30.593   4.806
10069W        W76852  16.297  40.658  13.441
10070W        W76853   3.229   3.488  11.557
10071W        W76854   2.463  20.225   3.692
10072W        W76855  42.828  44.485  11.045
10073W        W76856  29.417  26.949   5.071
10074W        W76857  42.922  32.098  11.361
10075W        W76858  34.162  19.022   3.115
10076W        W76859  11.086   2.881  11.016
10077W        W76860  20.286   4.670  11.756
10078W        W76861  21.967   9.208  14.216
10079W        W76862  12.610   0.064   2.796
10080W        W76863  35.602   9.357   2.652
10081W        W76864  31.057  14.880   3.816
10082W        W76865  12.960  13.643  11.539
10083W        W76866  26.715  11.890  11.659
10084W        W76867  38.009  39.526  10.950
10085W        W76868  10.311  18.231  14.886
10086W        W76869   9.909  38.459   2.294
10087W        W76870  41.574   9.806  13.698
10088W        W76871  30.624  39.378  14.253
10089W        W76872  44.291  37.467  13.440
10090W        W76873  41.004  42.296  13.185
10091W        W76874  31.136  43.491  11.621
10092W        W76875  16.785   8.161  14.835
10093W        W76876  32.968  13.654  12.877
10094W        W76877  41.204  42.306  12.317
10095W        W76878  41.052   1.676  14.380
10096W        W76879  21.529  20.345   4.724
10097W        W76880  22.265   6.536   4.471
10098W        W76881   5.929  36.866  14.374
10099W        W76882  26.086  29.116  14.695
10100W        W76883   9.970  40.946   0.399
10101W        W76884  28.444  38.379   0.230
10102W        W76885   8.214  16.560  13.029
10103W        W76886  19.819  39.719  11.586
10104W        W76887  40.856   8.658  13.535
10105W        W76888  30.004  15.927  14.222
10106W        W76889   5.815  42.383  13.035
10107W        W76890  31.372  27.747  11.621
10108W        W76891  33.493  29.544   3.575
10109W        W76892  25.534   6.941   3.641
10110W        W76893  35.971  13.990   2.399
10111W        W76894  25.189   4.408   4.739
10112W        W76895  19.493  21.553   3.706
10113W        W76896  29.538  12.335  12.040
10114W        W76897  38.249   8.418   4.618
10115W        W76898  39.811   2.891   4.916
10116W        W76899  31.879  15.219  13.536
10117W        W76900  18.567  13.860  10.248
10118W        W76901  24.269  14.864  12.322
10119W        W76902  41.599  30.499   4.250
10120W        W76903  36.618   6.124   4.540
10121W        W76904  24.250  38.158   0.014
10122W        W76905  39.975  21.433   4.607
10123W        W76906  15.123   7.215   2.611
10124W        W76907   3.959  41.246  11.246
10125W        W76908  18.779  41.453   2.667
10126W        W76909  29.897   9.882  11.987
10127W        W76910  42.362  10.660   2.980
10128W        W76911  18.233  15.403   0.311
10129W        W76912  28.117   9.524   2.027
10130W        W76913  16.753  42.391   3.735
10131W        W76914  10.329   1.431   3.234
10132W        W76915  34.382  28.789  13.991
10133W        W76916   8.697  44.971   0.454
10134W        W76917  30.236  39.417   2.319
10135W        W76918  26.646  29.180  14.803
10136W        W76919  34.211  31.861  11.165
10137W        W76920  15.535  16.051   1.692
10138W        W76921  31.654  23.989  13.045
10139W        W76922  36.054  28.067  13.503
10140W        W76923  31.908   9.505   3.046
10141W        W76924  11.600  37.848  12.272
10142W        W76925   8.335  14.751   3.784
10143W        W76926  37.640  31.205  13.149
10144W        W76927  35.647  28.580  12.419
10145W        W76928  23.736  43.813  12.611
10146W        W76929  27.206  36.946   0.914
10147W        W76930  40.540  22.299  11.492
10148W        W76931   7.277   3.010   2.829
10149W        W76932   2.939  36.442   2.890
10150W        W76933  14.789  38.353   2.913
10151W        W76934  30.551  31.139   4.318
10152W        W76935  15.033  38.106   5.355
10153W        W76936  41.793  16.629  13.563
10154W        W76937  22.669  41.620  14.385
10155W        W76938  10.627  33.035   3.466
10156W        W76939  23.558  41.770  12.438
10157W        W76940  37.261  30.587  10.821
10158W        W76941  19.630  38.942  11.987
10159W        W76942  33.685  10.684   1.399
10160W        W76943  42.405   5.238   1.728
10161W        W76944   4.150  15.099   2.302
10162W        W76945  32.677  32.650  12.603
10163W        W76946  37.931   8.906   3.728
10164W        W76947  30.566  22.764  11.619
10165W        W76948  19.155  29.947  13.025
10166W        W76949   6.482  42.992   2.426
10167W        W76950  23.119  18.099   4.032
10168W        W76951  42.523  19.512  13.246
10169W        W76952   5.266  44.952  13.286
10170W        W76953  13.401  32.183  12.113
10171W        W76954  26.614  18.091   3.125
10172W        W76955  17.060  17.650   1.316
10173W        W76956  25.709  38.793  13.992
10174W        W76957  32.859  10.314   0.355
10175W        W76958  38.353  28.973   4.869
10176W        W76959  32.999  18.835   3.289
10177W        W76960  11.158  31.239   0.768
10178W        W76961  30.861  25.099  10.212
10179W        W76962   2.179   7.290  11.730
10180W        W76963   8.374  13.616   2.704
10181W        W76964  36.686   2.511   3.777
10182W        W76965   7.628   4.330  13.334
10183W        W76966  12.546  35.255  13.326
10184W        W76967  19.771   6.344  14.372
10185W        W76968  12.888  44.045  14.332
10186W        W76969  31.462  41.939  10.779
10187W        W76970   4.251  20.280  14.983
10188W        W76971   4.315  42.985   1.979
10189W        W76972  13.570  41.625   4.240
10190W        W76973  13.737   3.489  12.450
10191W        W76974  26.569  12.826   9.592
10192W        W76975  22.746   9.660   0.802
10193W        W76976   2.479  14.174   0.460
10194W        W76977   9.379  10.371   1.309
10195W        W76978  36.510  38.597  14.483
10196W        W76979  33.782   8.361  12.534
10197W        W76980   8.567  21.590  11.182
10198W        W76981  43.196  38.554   4.555
10199W        W76982   2.051  13.966   2.098
10200W        W76983   8.092  42.049   1.789
10201W        W76984  16.601   1.919   0.025
10202W        W76985  15.265  36.459   0.186
10203W        W76986   5.930  43.628   3.678
10204W        W76987  24.258   3.669   1.430
10205W        W76988  20.142  20.830  12.038
10206W        W76989  24.050   0.597   0.903
10207W        W76990   8.924  14.767  14.217
10208W        W76991  16.356  11.300  11.970
10209W        W76992   7.888  38.851   1.469
10210W        W76993  20.135  32.089  13.001
10211W        W76994   6.408  24.852  12.011
10212W        W76995  33.453  26.097  12.980
10213W        W76996   7.469  31.943  10.410
10214W        W76997   1.459  42.477   4.238
10215W        W76998  15.850  34.994  13.831
10216W        W76999  21.627  41.823   4.747
10217W        W77000  22.156  35.419   3.101
10218W        W77001  15.429  18.050  10.274
10219W        W77002  17.696  13.115  14.988
10220W        W77003  32.407   3.034  13.950
10221W        W77004  40.949  40.825   4.076
10222W        W77005  43.785  16.336   1.877
10223W        W77006  40.290  27.948   0.311
10224W        W77007  41.030  17.562  14.148
10225W        W77008  41.210   9.345  12.119
10226W        W77009  25.978  17.907  13.975
10227W        W77010  22.328  21.372   2.441
10228W        W77011  20.647  40.502   4.123
10229W        W77012   3.701  22.238   0.876
10230W        W77013   3.633   2.515  13.395
10231W        W77014  39.211   5.638  11.130
10232W        W77015   9.147  10.126  11.513
10233W        W77016   3.728  35.400   2.040
10234W        W77017  33.438   4.857   1.676
10235W        W77018  26.054  23.163  10.912
10236W        W77019  31.636  23.331   0.912
10237W        W77020   6.494  20.346   3.285
10238W        W77021   6.006  44.116   3.785
10239W        W77022   6.847  37.326  11.552
10240W        W77023  31.015   1.769  11.973
10241W        W77024  40.430  38.049  10.990
10242W        W77025  15.989  19.020   4.398
10243W        W77026  10.252  19.459   3.910
10244W        W77027   0.395   7.480   1.079
10245W        W77028  27.279  43.154   3.400
10246W        W77029  20.068  43.244  14.709
10247W        W77030  27.734  40.030   4.541
10248W        W77031  27.777  34.530   1.364
10249W        W77032  17.159  34.168  10.727
10250W        W77033  27.629  20.018   4.917
10251W        W77034  21.734  36.152  13.988
10252W        W77035   9.874   1.217   2.376
10253W        W77036  37.355  17.173  13.755
10254W        W77037  30.738  21.527   2.190
10255W        W77038  15.332  10.576  13.866
10256W        W77039  31.439  12.716  12.317
10257W        W77040   4.508   5.598  14.703
10258W        W77041  31.438  21.239   2.616
10259W        W77042  31.451  31.981   0.998
10260W        W77043  22.291  32.025  11.048
10261W        W77044  29.796  36.583   0.292
10262W        W77045   1.612  42.916  14.910
10263W        W77046   5.866   9.966   1.801
10264W        W77047  28.182  40.815  13.024
10265W        W77048  31.096  43.308   1.948
10266W        W77049  37.825  40.704   2.248
10267W        W77050  24.631   2.756   0.774
10268W        W77051   3.207  25.269   0.287
10269W        W77052  34.989   9.881   4.345
10270W        W77053   0.946   6.749  13.619
10271W        W77054   8.482  31.506   4.259
10272W        W77055  27.998  18.980   3.182
10273W        W77056   6.343  29.528   3.054
10274W        W77057  11.307  43.898  12.166
10275W        W77058  25.653  14.721  13.383
10276W        W77059  12.672   6.567   4.152
10277W        W77060  33.442   2.188   2.232
10278W        W77061  38.537  19.675   2.214
10279W        W77062  14.749  16.405   1.344
10280W        W77063  44.804  25.664   0.384
10281W        W77064   8.558  12.413  11.594
10282W        W77065   8.902  29.423   1.225
10283W        W77066  29.906  15.101   4.118
10284W        W77067  27.540  43.781   4.122
10285W        W77068  16.035  10.899  10.100
10286W        W77069   3.733   2.599  14.577
10287W        W77070   0.723  11.416  10.295
10288W        W77071  33.128   6.388   9.604
10289W        W77072  42.106  29.693   3.411
10290W        W77073  44.873  41.762  14.062
10291W        W77074  42.068   2.227   2.173
10292W        W77075   1.321  28.781   3.202
10293W        W77076  40.869   6.364  14.056
10294W        W77077  27.175  35.059   3.293
10295W        W77078  22.621  44.795   3.374
10296W        W77079   5.986   0.767  11.983
10297W        W77080   9.409  11.259   1.214
10298W        W77081  37.093  44.549   4.658
10299W        W77082  21.638  16.788   0.302
10300W        W77083  44.264   9.704  13.851
10301W        W77084  35.307  12.970  13.536
10302W        W77085  25.515  23.971   4.643
10303W        W77086  42.435  20.698   2.175
10304W        W77087   1.374   7.382   3.755
10305W        W77088  41.809  15.368  10.423
10306W        W77089  14.249  16.168   0.546
10307W        W77090  39.808  14.514   4.576
10308W        W77091  39.562  30.523  11.903
10309W        W77092   4.389  32.375   2.662
10310W        W77093  34.369   0.784   3.788
10311W        W77094  36.624   2.447   2.089
10312W        W77095  37.555   8.592  14.416
10313W        W77096  15.721  30.081   4.589
10314W        W77097  18.281  28.585   2.351
10315W        W77098  43.786   0.870  11.616
10316W        W77099   6.161  41.810  14.806
10317W        W77100  35.545   2.382  10.796
10318W        W77101  12.746  36.578   1.669
10319W        W77102  27.700  24.133   1.965
10320W        W77103   3.321  34.643   1.446
10321W        W77104  27.509   7.936  12.625
10322W        W77105  18.261  44.451   2.732
10323W        W77106  19.559  18.725  12.391
10324W        W77107  22.301   7.734   2.024
10325W        W77108  35.096  14.861   1.748
10326W        W77109  31.202  31.406  13.556
10327W        W77110  41.783  20.422   1.655
10328W        W77111  25.406  30.589   1.347
10329W        W77112  28.643  30.119   4.688
10330W        W77113  38.825  14.916  12.773
10331W        W77114   0.370  28.733   4.618
10332W        W77115  43.962   4.025   4.339
10333W        W77116  25.663   5.255  13.605
10334W        W77117  24.778  44.214   3.935
10335W        W77118  17.759  32.880   2.540
10336W        W77119  12.816  43.328   3.865
10337W        W77120  24.880   3.801   4.097
10338W        W77121  26.823  33.205  12.564
10339W        W77122  38.043  21.960  13.416
10340W        W77123  42.847  42.940  14.277
10341W        W77124  43.772  15.575   0.622
10342W        W77125  39.085  39.472   4.529
10343W        W77126  33.488   5.831  13.288
10344W        W77127  34.405  18.277  10.997
10345W        W77128  29.156  28.759   1.634
10346W        W77129   7.285  32.079   1.179
10347W        W77130  43.622  30.058   3.642
10348W        W77131   2.746  23.553   2.161
10349W        W77132  37.834  30.009   0.009
10350W        W77133  33.359  44.412   1.379
10351W        W77134  39.499  25.695   3.252
10352W        W77135  17.611  30.999   1.323
10353W        W77136   5.806   7.947  12.564
10354W        W77137  25.531   6.670  11.529
10355W        W77138   1.385  35.508   1.680
10356W        W77139  10.914  27.072   3.269
10357W        W77140  27.977   6.346   1.860
10358W        W77141  28.621  26.548   1.936
10359W        W77142  30.388  37.340   4.214
10360W        W77143  20.271  39.501  13.433
10361W        W77144  44.854  17.668   4.287
10362W        W77145  30.607  27.897   2.794
10363W        W77146  29.846  33.910  13.849
10364W        W77147  24.586  22.793   0.531
10365W        W77148  32.953  23.984   1.701
10366W        W77149  42.259  37.793   0.880
10367W        W77150   8.167  27.061   3.853
10368W        W77151  38.461  24.766   0.224
10369W        W77152  37.998  27.725   2.384
10370W        W77153  36.384   5.477  12.043
10371W        W77154  11.300   2.381   0.332
10372W        W77155  43.439  26.376   1.411
10373W        W77156  27.200   5.245   3.736
10374W        W77157  29.615  37.393   2.622
10375W        W77158  32.771  27.858   3.164
10376W        W77159  16.656   3.507   0.806
10377W        W77160  19.567  38.942  12.534
10378W        W77161  18.256  25.706  14.095
10379W        W77162  33.512  25.005  13.015
10380W        W77163  28.051  21.882  10.587
10381W        W77164  23.987  12.267  12.469
10382W        W77165  26.277  39.481   3.958
10383W        W77166  21.749  30.948   3.168
10384W        W77167  40.379  21.811  12.391
10385W        W77168  39.278  13.634   0.870
10386W        W77169  11.219   1.278  13.920
10387W        W77170  13.176  35.551   4.623
10388W        W77171  25.435  18.351  11.086
10389W        W77172  10.002  22.794   3.153
10390W        W77173   1.339  30.150  10.610
10391W        W77174  30.629  21.513   4.536
10392W        W77175  16.264  19.974   3.743
10393W        W77176  31.580   2.396  12.048
10394W        W77177  19.903  27.723  14.553
10395W        W77178  23.150   4.743   3.752
10396W        W77179   9.327  36.943   2.184
10397W        W77180  19.474  30.913   3.730
10398W        W77181  14.132  22.442   3.051
10399W        W77182  24.430  27.231  10.206
10400W        W77183  35.544  23.221   0.789
10401W        W77184   7.358  13.284  11.631
10402W        W77185  43.445  17.055   9.849
10403W        W77186  35.173  17.442   1.510
10404W        W77187  44.950  16.267  11.225
10405W        W77188  10.821   9.424   4.973
10406W        W77189  19.327  28.948   3.340
10407W        W77190  12.490   4.080   2.396
10408W        W77191  41.210  13.810   3.570
10409W        W77192   7.464   6.643  12.564
10410W        W77193   5.739  29.519   3.836
10411W        W77194   7.853  34.425   2.421
10412W        W77195   4.330  16.260  11.246
10413W        W77196  12.125  30.018   3.899
10414W        W77197  11.616  16.760   4.426
10415W        W77198   0.346   2.408  12.459
10416W        W77199  43.907  15.146   0.912
10417W        W77200  18.142   7.904   3.733
10418W        W77201  21.236  14.138   2.963
10419W        W77202  40.519  24.528  10.719
10420W        W77203  10.143   8.904  13.008
10421W        W77204   1.454  44.032   0.777
10422W        W77205  10.952  43.846   4.173
10423W        W77206  39.249  24.694  12.524
10424W        W77207  26.606   3.406   0.078
10425W        W77208  34.984   4.939  12.830
10426W        W77209   0.714  29.136  14.621
10427W        W77210   4.394  19.917  13.067
10428W        W77211   2.766   9.734  12.966
10429W        W77212  35.884  19.166  12.860
10430W        W77213  21.557  35.351   0.254
10431W        W77214  30.024  26.931  11.297
10432W        W77215  36.801   4.380  13.013
10433W        W77216   0.482   4.387   0.259
10434W        W77217  26.903  34.499  12.913
10435W        W77218   7.808  15.052  12.490
10436W        W77219  31.867   3.417   4.763
10437W        W77220  13.225  20.243  14.200
10438W        W77221  29.668  43.345  14.850
10439W        W77222  17.506  37.462  14.487
10440W        W77223  12.130  31.470  12.799
10441W        W77224  12.599  35.234   0.803
10442W        W77225  32.046  39.728  11.594
10443W        W77226  25.151  36.476  13.427
10444W        W77227  17.725  37.306  12.467
10445W        W77228  13.199  25.467   3.032
10446W        W77229   6.524  15.598   2.628
10447W        W77230   7.934  15.085  11.586
10448W        W77231  30.073  41.834  10.344
10449W        W77232  39.888  17.875   3.299
10450W        W77233  25.249   4.437  11.562
10451W        W77234  23.435  35.416  12.191
10452W        W77235   9.302   1.245   0.448
10453W        W77236  24.938   0.705  14.296
10454W        W77237  29.863  33.886  11.214
10455W        W77238   3.820  30.640   0.228
10456W        W77239  44.115  12.583  10.520
10457W        W77240  35.724  22.086  13.055
10458W        W77241   6.375  41.919   1.422
10459W        W77242  22.105  11.060  13.767
10460W        W77243  26.376  10.055  10.171
10461W        W77244  25.986  19.904  14.018
10462W        W77245   2.437  19.350  14.456
10463W        W77246  40.370  17.268  11.171
10464W        W77247  34.070  11.827   4.291
10465W        W77248  42.787  28.690  10.333
10466W        W77249  29.661  24.967  13.425
10467W        W77250  17.832  18.305  12.177
10468W        W77251  12.060  19.269   3.172
10469W        W77252  13.469  21.477   0.340
10470W        W77253  23.492  17.270   4.779
10471W        W77254  39.347   8.764   3.714
10472W        W77255  27.483  32.879  10.706
10473W        W77256  12.159  41.078  11.589
10474W        W77257   5.897  16.772  11.064
10475W        W77258  12.237  41.345  11.170
10476W        W77259  27.104  38.554  10.679
10477W        W77260  10.843   1.834  14.014
10478W        W77261   3.923  27.959   2.031
10479W        W77262  20.469   1.489  11.147
10480W        W77263  43.860   9.119  12.602
10481W        W77264  10.082  34.016  14.368
10482W        W77265  25.053  32.943  11.635
10483W        W77266  12.910  23.358  12.537
10484W        W77267  22.812  10.527  11.135
10485W        W77268  12.123   7.619   1.314
10486W        W77269   9.212  39.928   2.283
10487W        W77270   0.184  23.626  11.883
10488W        W77271  10.629  18.480   3.122
10489W        W77272  10.914  16.835  12.489
10490W        W77273  27.098  17.154   2.206
10491W        W77274   2.299  32.103   3.622
10492W        W77275   5.768  44.686  10.640
10493W        W77276  33.986   5.428  11.458
10494W        W77277  30.537  30.652   0.877
10495W        W77278  33.624  41.461   0.764
10496W        W77279  36.291  26.671  13.041
10497W        W77280  44.295  27.585  14.776
10498W        W77281  19.483  15.796  12.466
10499W        W77282   7.877  37.376  10.246
10500W        W77283  11.658  10.850   4.216
10501W        W77284   3.950  39.849   2.883
10502W        W77285  36.404  40.703   2.278
10503W        W77286  11.863  21.150   0.730
10504W        W77287  26.807  27.218   4.519
10505W        W77288  20.700  16.441  10.584
10506W        W77289  43.875  44.533  10.639
10507W        W77290   2.185   1.296   0.388
10508W        W77291  27.039   2.010   1.791
10509W        W77292  39.725  36.033  14.804
10510W        W77293  44.619  40.525  11.676
10511W        W77294  19.499  23.986  10.822
10512W        W77295  21.278  26.673  14.982
10513W        W77296  27.504   5.883   2.714
10514W        W77297  33.402   5.388   0.074
10515W        W77298  43.340   5.605  11.495
10516W        W77299  39.570   3.318   0.808
10517W        W77300   6.133  15.069   0.827
10518W        W77301  33.666   8.836  13.063
10519W        W77302  20.374  26.719  14.026
10520W        W77303  10.844   6.776   4.146
10521W        W77304   7.674  31.685   0.445
10522W        W77305   5.860  31.418   4.143
10523W        W77306  23.120   2.317  11.423
10524W        W77307  40.019   3.239   0.560
10525W        W77308   9.768  39.523  12.216
10526W        W77309  33.205   2.311  13.289
10527W        W77310  33.159  17.548  12.274
10528W        W77311  22.201   9.985   2.578
10529W        W77312  22.161  26.071   4.857
10530W        W77313   6.432  35.901   3.883
10531W        W77314   8.648   0.216  11.735
10532W        W77315   2.944  43.962  13.441
10533W        W77316  21.517  43.402  11.571
10534W        W77317  33.477  44.864  12.027
10535W        W77318  23.957  33.451  10.273
10536W        W77319  36.907  21.201   4.324
10537W        W77320  36.386  35.076  13.335
10538W        W77321  21.575  17.122   0.729
10539W        W77322  26.133  28.568   4.824
10540W        W77323  42.116   1.297  12.554
10541W        W77324   8.459  23.787   4.182
10542W        W77325  14.616  19.604   2.356
10543W        W77326  32.319  31.623   0.444
10544W        W77327  15.014   9.238  12.990
10545W        W77328  20.527  19.161   3.098
10546W        W77329  36.972   4.261  10.680
10547W        W77330   7.116  19.991  12.446
10548W        W77331  39.328  33.789  11.413
10549W        W77332  14.729  22.713  12.493
10550W        W77333  19.685  28.365  10.867
10551W        W77334  22.583  26.927  14.742
10552W        W77335  37.328  11.198   0.034
10553W        W77336  37.353  28.513  13.175
10554W        W77337   4.213   5.883   1.176
10555W        W77338  37.934  15.286  12.565
10556W        W77339  31.714  37.348  12.000
10557W        W77340   2.726  11.098   1.905
10558W        W77341  30.488   4.382   2.343
10559W        W77342   6.456  13.909   2.252
10560W        W77343  29.638  13.330   3.598
10561W        W77344   4.957  24.209   4.114
10562W        W77345  41.849  23.229   4.105
10563W        W77346   3.179  23.034  11.552
10564W        W77347  12.865  18.282  14.786
10565W        W77348  23.105  40.959  12.987
10566W        W77349  22.635  24.675  14.347
10567W        W77350  25.098  43.529   4.637
10568W        W77351  25.933  29.581   1.689
10569W        W77352  42.370  38.347  10.617
10570W        W77353  13.641   8.237  12.861
10571W        W77354  32.546  33.498   3.331
10572W        W77355  23.237  38.764   1.392
10573W        W77356  15.313  20.020   3.786
10574W        W77357  41.219  20.192   2.739
10575W        W77358  28.555  20.853   2.164
10576W        W77359  29.463   8.607   3.645
10577W        W77360  22.692   2.367  11.713
10578W        W77361   2.044  10.783   3.801
10579W        W77362  34.557  11.701   4.571
10580W        W77363   1.280  39.415   4.860
10581W        W77364  30.546   3.935  11.070
10582W        W77365   1.301  10.628   0.291
10583W        W77366  16.996  11.293   3.195
10584W        W77367  27.593  32.119  13.103
10585W        W77368   9.882  43.520   1.344
10586W        W77369   4.649  26.416  13.297
10587W        W77370  30.163  16.233   4.646
10588W        W77371  14.168  28.675   3.218
10589W        W77372  21.731   5.684   0.814
10590W        W77373  11.631  42.641   1.038
10591W        W77374  32.400  15.396  11.632
10592W        W77375  25.016  25.162  13.141
10593W        W77376   0.770  17.521  12.722
10594W        W77377  24.566  14.753  10.449
10595W        W77378  42.225  44.485  12.436
10596W        W77379  21.652  41.258  12.598
10597W        W77380   7.707  26.523   1.348
10598W        W77381  21.709  29.392   4.810
10599W        W77382  10.965  26.284   0.188
10600W        W77383  16.086  25.068  14.346
10601W        W77384  10.632   6.235   1.351
10602W        W77385  11.338   2.778  11.519
10603W        W77386   7.748  24.277   3.660
10604W        W77387   8.534  34.131   4.118
10605W        W77388  34.349  38.393  12.982
10606W        W77389  24.698  10.223  13.256
10607W        W77390  37.032   9.213   4.196
10608W        W77391  14.622  22.663  11.658
10609W        W77392  36.049  23.125  12.268
10610W        W77393  31.159   8.355  12.439
10611W        W77394   9.274  24.567   2.296
10612W        W77395  23.142   4.307  14.484
10613W        W77396  19.211  10.262   3.869
10614W        W77397  26.392   4.325  14.347
10615W        W77398  15.093  19.665  12.861
10616W        W77399   8.016  35.464  13.319
10617W        W77400  16.193   9.864   2.312
10618W        W77401  25.137   6.176  13.991
10619W        W77402  21.085  11.126  11.768
10620W        W77403  27.617  24.587   0.711
10621W        W77404   3.852  40.529  14.245
10622W        W77405  13.575  37.407  14.912
10623W        W77406  34.106  12.614  10.644
10624W        W77407  18.790  30.976  13.588
10625W        W77408  14.626  41.983   0.344
10626W        W77409  18.442  30.900  12.505
10627W        W77410  10.725  21.062  11.366
10628W        W77411   2.936  22.548   1.228
10629W        W77412  37.576  35.257  14.717
10630W        W77413  35.513  23.738   0.767
10631W        W77414  27.005  16.714  11.518
10632W        W77415  10.033  23.334  13.542
10633W        W77416  11.344  30.341  11.395
10634W        W77417  26.677  43.710   5.004
10635W        W77418  25.613  23.981   3.650
10636W        W77419  11.815  14.401   1.379
10637W        W77420  14.567   0.262  12.516
10638W        W77421  22.693  10.705   0.251
10639W        W77422  21.494  17.586   3.703
10640W        W77423  29.459  10.142   5.312
10641W        W77424  23.628   3.465  13.370
10642W        W77425   1.147  28.067  14.689
10643W        W77426  25.108  10.537   3.847
10644W        W77427  17.879  44.324  10.595
10645W        W77428  18.916  14.224  12.258
10646W        W77429  43.385  31.751   4.062
10647W        W77430  21.570   8.638  11.614
10648W        W77431  41.403  30.932  12.377
10649W        W77432  27.734   7.809  10.695
10650W        W77433  25.676  35.936   1.050
10651W        W77434  34.482  34.130  11.434
10652W        W77435   2.685   6.865  14.920
10653W        W77436   1.399   6.285   4.423
10654W        W77437   1.077   0.323   0.989
10655W        W77438  34.844  20.235   3.605
10656W        W77439  28.554  25.054   0.311
10657W        W77440   9.687  31.172   2.618
10658W        W77441  23.753  33.371   4.201
10659W        W77442   7.382  12.755   1.323
10660W        W77443   9.256   0.828  12.667
10661W        W77444  22.749  11.694   2.124
10662W        W77445  18.006  13.037  11.015
10663W        W77446   7.736  14.892   2.677
10664W        W77447   2.693  22.845  13.444
10665W        W77448  36.338  37.563  11.632
10666W        W77449  10.651  19.992   1.680
10667W        W77450   5.053  18.141  14.015
10668W        W77451  33.177  35.450   3.648
10669W        W77452  26.525  20.288  12.878
10670W        W77453  32.012   2.240  11.838
10671W        W77454  42.732   3.409   0.908
10672W        W77455  24.499  33.793   1.442
10673W        W77456   1.777  38.815   0.414
10674W        W77457  35.381   9.413   5.087
10675W        W77458  11.666  16.505   3.232
10676W        W77459  23.047  37.290  12.587
10677W        W77460  12.261  41.800   1.766
10678W        W77461  33.138  35.112   1.310
10679W        W77462  30.014  23.391   3.283
10680W        W77463  14.659   5.850  14.382
10681W        W77464   6.759  42.717  10.780
10682W        W77465  27.529  19.572   1.812
10683W        W77466  17.007  12.856  12.634
10684W        W77467  31.020  32.968   4.812
10685W        W77468  20.062   9.551  11.581
10686W        W77469  24.741  19.223   1.227
10687W        W77470   1.709   7.299  12.411
10688W        W77471  14.834  44.616   3.743
10689W        W77472   1.201   3.937   2.749
10690W        W77473  11.290  38.414  12.915
10691W        W77474  29.940  37.461   0.691
10692W        W77475  31.888  19.504  13.385
10693W        W77476  42.655  10.892   9.861
10694W        W77477   1.677   6.971  14.907
10695W        W77478  44.081  42.104   0.081
10696W        W77479   3.344  25.926  13.074
10697W        W77480  32.814  40.356   0.582
10698W        W77481   1.565  18.367   0.285
10699W        W77482  39.302   3.677   1.057
10700W        W77483  25.361   6.465   3.783
10701W        W77484  35.743   2.340   2.327
10702W        W77485  16.150  40.152  13.483
10703W        W77486  40.739  21.068   2.757
10704W        W77487   3.000  17.247   4.772
10705W        W77488  35.307  12.136   2.274
10706W        W77489   5.719   2.716  14.410
10707W        W77490  26.336  39.318  12.865
10708W        W77491  15.085  42.735   4.041
10709W        W77492  38.899  36.867   2.732
10710W        W77493  19.429  30.104  11.430
10711W        W77494  24.539  40.557   2.247
10712W        W77495  10.446  28.060  14.876
10713W        W77496  11.661  30.140   3.754
10714W        W77497   0.708  44.792   3.569
10715W        W77498  19.611  33.502  14.339
10716W        W77499  30.937  38.067   3.755
10717W        W77500  42.073  30.503  14.491
10718W        W77501  26.709  22.540   3.346
10719W        W77502  14.887  29.503   0.349
10720W        W77503  24.615   8.695   1.504
10721W        W77504  11.239  13.895  14.238
10722W        W77505  13.678   4.559  13.687
10723W        W77506  40.315  35.322   3.227
10724W        W77507  23.779   4.640  11.570
10725W        W77508  20.242  10.764   4.733
10726W        W77509  35.623  17.182   4.204
10727W        W77510  36.156   0.798  14.352
10728W        W77511  12.595  13.900   4.237
10729W        W77512  32.075  23.340   4.122
10730W        W77513  17.748  34.283   0.087
10731W        W77514   4.140  33.586   4.267
10732W        W77515  23.741  34.693  13.862
10733W        W77516  41.443   1.516  11.610
10734W        W77517   2.970  23.638  13.852
10735W        W77518   0.507  20.951  13.091
10736W        W77519  10.226  15.292   2.318
10737W        W77520   6.431  14.098   4.546
10738W        W77521  32.424  33.329  10.997
10739W        W77522  33.137   1.965   4.741
10740W        W77523   3.314  42.661  10.235
10741W        W77524  27.214  28.130  10.183
10742W        W77525  33.620   3.410   2.560
10743W        W77526   9.292   9.231   3.160
10744W        W77527  22.972  27.545   0.721
10745W        W77528  37.779  12.643   3.025
10746W        W77529  20.295  39.612   0.370
10747W        W77530  13.855   6.257  10.491
10748W        W77531  21.303  10.840   4.761
10749W        W77532  36.154  41.279   2.914
10750W        W77533  18.037  34.127  10.605
10751W        W77534  39.989  38.995   4.853
10752W        W77535  10.102  41.714   0.794
10753W        W77536   9.274   7.420   0.816
10754W        W77537  28.126  33.952   2.440
10755W        W77538  38.925  38.831  10.721
10756W        W77539  31.667   0.899   4.564
10757W        W77540  22.948   6.272  12.995
10758W        W77541  17.371  26.634   0.066
10759W        W77542   0.816  11.147  14.895
10760W        W77543  43.152   1.295   0.386
10761W        W77544   6.401  17.186  14.267
10762W        W77545  30.855   6.677  13.889
10763W        W77546   9.286  26.952  14.359
10764W        W77547   7.624  36.312  14.513
10765W        W77548  27.861  34.506  11.179
10766W        W77549  15.084  28.463   4.381
10767W        W77550   7.062   3.844   0.399
10768W        W77551  27.703  10.323   3.675
10769W        W77552  29.951  30.430   4.726
10770W        W77553  26.545  11.644   0.924
10771W        W77554  12.798  29.918   2.687
10772W        W77555   9.624  35.182  11.563
10773W        W77556  19.092  39.043  13.935
10774W        W77557  27.770  40.381  11.251
10775W        W77558  44.093  11.905  12.070
10776W        W77559  29.832  15.394  11.628
10777W        W77560  43.314   2.830  12.757
10778W        W77561  22.837  41.035   5.065
10779W        W77562  43.779  42.035  10.765
10780W        W77563   5.395  10.201   1.991
10781W        W77564  27.131  18.128   3.845
10782W        W77565  16.251  40.748  12.116
10783W        W77566  41.015   0.843  14.270
10784W        W77567   5.612  24.588  12.511
10785W        W77568  42.082  26.445  14.867
10786W        W77569  43.087  30.255  10.829
10787W        W77570  39.386  17.649   2.463
10788W        W77571   1.238  10.614  10.385
10789W        W77572  24.413  42.281   2.868
10790W        W77573  37.995  19.108   0.728
10791W        W77574  34.023  20.166   3.237
10792W        W77575  10.713  26.444  13.789
10793W        W77576   2.384  30.705  10.239
10794W        W77577  27.073  32.987  14.811
10795W        W77578  44.432  33.840  13.857
10796W        W77579  39.009  28.609  10.057
10797W        W77580  23.079  26.334  14.004
10798W        W77581  20.081  12.971   0.412
10799W        W77582   2.515  37.824  14.961
10800W        W77583   3.540  27.128  12.231
10801W        W77584  18.563  15.331   4.478
10802W        W77585  26.035  13.352  13.897
10803W        W77586   8.707  16.749   0.859
10804W        W77587  14.365  40.869   3.647
10805W        W77588  34.169  21.348  11.105
10806W        W77589  28.985  16.293   3.062
10807W        W77590  30.589  19.715  11.583
10808W        W77591  29.240  18.748  11.180
10809W        W77592   7.505  26.233   0.259
10810W        W77593  23.590   0.522  13.576
10811W        W77594  37.101  33.563   3.306
10812W        W77595   2.451  14.860  12.926
10813W        W77596   8.804  28.601   4.516
10814W        W77597   7.253   2.013   2.778
10815W        W77598  43.018  24.543  12.046
10816W        W77599  22.173  23.364  11.650
10817W        W77600  31.723  27.533   1.376
10818W        W77601  18.154  21.654  13.921
10819W        W77602  13.457   0.226  13.067
10820W        W77603  25.643  43.063  11.937
10821W        W77604  23.622  13.819  14.480
10822W        W77605  28.074   5.129  12.055
10823W        W77606  23.964  15.315   4.621
10824W        W77607  22.596   2.732   4.489
10825W        W77608  16.239  17.123   2.708
10826W        W77609  42.282  44.088   3.037
10827W        W77610  20.704  24.473  13.778
10828W        W77611  19.853  32.495  14.721
10829W        W77612  42.917  36.484   4.669
10830W        W77613  28.121  21.067   0.927
10831W        W77614  40.582  36.296   2.478
10832W        W77615  12.369  27.717  13.075
10833W        W77616   9.892   5.498   2.613
10834W        W77617  28.504  39.735  11.100
10835W        W77618  44.041  35.616   2.677
10836W        W77619  28.192  41.893  14.113
10837W        W77620  10.897   6.689  10.343
10838W        W77621  14.996   9.011   0.805
10839W        W77622  14.562  36.830   2.841
10840W        W77623  35.675  30.546  13.910
10841W        W77624  20.048  38.613   2.408
10842W        W77625  14.874   6.478  14.950
10843W        W77626  41.334  35.337   1.762
10844W        W77627  34.767  20.518   1.690
10845W        W77628  30.434  32.708  13.891
10846W        W77629   3.156  33.345   4.019
10847W        W77630   7.922  18.898  12.978
10848W        W77631  30.473  27.444   4.184
10849W        W77632  25.553  16.088   4.628
10850W        W77633  31.633  23.469  10.674
10851W        W77634  13.364  19.577  14.539
10852W        W77635   3.256  39.562  12.423
10853W        W77636  21.166  35.027   4.497
10854W        W77637  31.125  24.765   2.594
10855W        W77638  31.881  18.141   3.356
10856W        W77639  15.227  38.709  13.426
10857W        W77640  23.120  10.933  11.772
10858W        W77641  39.642  25.185   1.849
10859W        W77642  33.520   6.357  14.583
10860W        W77643  20.661  26.510  10.189
10861W        W77644  30.478  21.634  13.298
10862W        W77645  41.063  34.471  11.573
10863W        W77646  22.484  23.413  12.879
10864W        W77647  10.010  15.836  12.050
10865W        W77648  20.263  11.968   0.740
10866W        W77649  28.225   1.342   4.947
10867W        W77650  39.905   4.629  12.375
10868W        W77651  26.232  22.413  13.887
10869W        W77652  29.408  28.717  14.340
10870W        W77653  28.533  35.061  13.886
10871W        W77654  17.700  30.449  11.419
10872W        W77655  31.948  42.347   3.082
10873W        W77656  16.014   9.325   3.184
10874W        W77657  23.800  23.598  11.133
10875W        W77658  15.736  38.859  11.151
10876W        W77659  36.420  17.663   1.918
10877W        W77660   6.436  37.962  13.569
10878W        W77661  12.652  34.456   4.576
10879W        W77662  44.314  33.662  10.654
10880W        W77663  42.396   6.558   0.223
10881W        W77664  19.481  18.688  10.953
10882W        W77665   4.236   0.324   2.228
10883W        W77666  34.650  35.304   4.193
10884W        W77667  29.627  35.249  10.726
10885W        W77668   4.897   1.188   4.288
10886W        W77669  34.120  27.106   2.784
10887W        W77670  42.993  41.056   0.863
10888W        W77671  32.677  24.415  10.631
10889W        W77672  32.459  42.525  14.821
10890W        W77673   9.932   6.683   3.476
10891W        W77674   2.677  40.205  12.487
10892W        W77675  16.955   0.899   4.697
10893W        W77676   7.440  36.126  11.935
10894W        W77677  35.559   1.041  13.544
10895W        W77678   8.410  28.985   1.877
10896W        W77679  39.392  38.449  13.333
10897W        W77680   3.292  30.813   2.328
10898W        W77681  22.079   9.620  12.953
10899W        W77682  38.359   4.912  10.436
10900W        W77683  27.794   8.351  13.982
10901W        W77684   6.186   5.470   1.510
10902W        W77685   2.366  14.287   4.678
10903W        W77686   2.519   0.388  14.018
10904W        W77687  14.789  18.270  13.592
10905W        W77688  34.686  26.845   3.333
10906W        W77689  29.074  33.582  14.336
10907W        W77690  34.142   3.990   3.222
10908W        W77691  27.026  38.114   1.408
10909W        W77692  30.659  10.743  10.629
10910W        W77693   4.838  14.894   3.831
10911W        W77694  41.201  13.241  11.503
10912W        W77695  14.614  22.186  12.561
10913W        W77696   4.289  30.056   3.216
10914W        W77697  19.187  41.290   3.819
10915W        W77698  11.112   4.166   4.852
10916W        W77699  27.483  14.197   2.325
10917W        W77700  16.846  34.913   4.146
10918W        W77701  13.458  30.988  12.690
10919W        W77702  40.500  25.976  12.663
10920W        W77703  37.888  34.847  13.578
10921W        W77704  11.828   0.686  12.426
10922W        W77705  30.525   0.201  12.481
10923W        W77706  11.515  36.384  11.028
10924W        W77707  29.896   8.894   3.791
10925W        W77708  32.586  43.974   0.683
10926W        W77709  33.084  25.516   4.492
10927W        W77710  31.740  38.455   3.343
10928W        W77711  38.969  39.382  14.931
10929W        W77712   4.661  33.783   4.213
10930W        W77713  24.996  41.336  11.849
10931W        W77714  18.665  36.277   2.753
10932W        W77715  36.162  41.990  12.122
10933W        W77716  28.010  44.184   1.742
10934W        W77717  12.847  19.130  14.855
10935W        W77718  16.679  20.311   3.743
10936W        W77719  16.229   4.391  14.279
10937W        W77720  35.546   2.902  12.101
10938W        W77721  36.334   4.719  13.399
10939W        W77722  39.377   1.355  12.656
10940W        W77723  23.021  28.042  12.850
10941W        W77724   3.037  15.539  13.033
10942W        W77725  25.558  10.315   1.656
10943W        W77726   7.875   2.233   4.676
10944W        W77727  41.769  38.334  13.044
10945W        W77728  23.207  30.242   4.646
10946W        W77729  12.180  15.414  13.934
10947W        W77730   7.293   1.918   1.887
10948W        W77731  43.801  15.593   1.160
10949W        W77732  37.125  18.675   1.082
10950W        W77733  26.535  10.218   3.683
10951W        W77734   7.335  32.282   4.118
10952W        W77735  42.963   9.430   5.006
10953W        W77736  40.921  20.781  11.557
10954W        W77737   1.192  34.034  13.028
10955W        W77738  30.069  41.771  13.900
10956W        W77739  19.259  24.528   0.774
10957W        W77740  35.493  11.615  13.609
10958W        W77741  12.319  10.393   0.308
10959W        W77742   5.149  35.050   0.196
10960W        W77743  27.107  37.068   1.404
10961W        W77744  26.118   4.587  11.234
10962W        W77745  25.373  13.296   0.297
10963W        W77746  29.018  15.594  10.979
10964W        W77747  32.847  25.257  14.250
10965W        W77748  40.363   9.320  12.582
10966W        W77749  29.086  25.682  12.624
10967W        W77750  28.956  13.081   2.330
10968W        W77751  18.046   3.789  11.705
10969W        W77752  37.943  33.966  11.941
10970W        W77753  30.109  34.171  12.976
10971W        W77754   4.934   8.141   2.689
10972W        W77755  36.624  33.075   0.502
10973W        W77756  11.577  31.394  10.704
10974W        W77757  29.889   1.513  14.436
10975W        W77758  37.499  11.263  10.700
10976W        W77759  34.140  12.825   2.176
10977W        W77760  15.327   7.850  13.544
10978W        W77761  12.212   0.960  12.863
10979W        W77762  28.652   3.377   4.777
10980W        W77763  21.134   1.987   3.119
10981W        W77764  14.534  24.133   0.980
10982W        W77765  19.549  20.817  14.017
10983W        W77766   3.376   3.306  14.955
10984W        W77767   7.012  34.679  13.897
10985W        W77768  26.093  19.576  14.419
10986W        W77769  36.795  41.594   1.192
10987W        W77770  13.451   1.884   2.764
10988W        W77771  43.363  34.502  12.101
10989W        W77772  27.062   2.417  12.060
10990W        W77773  28.880  41.868  11.931
10991W        W77774   0.347  13.658  11.981
10992W        W77775  22.053  29.616   2.594
10993W        W77776  29.395  34.605   0.864
10994W        W77777   5.423  43.032   0.391
10995W        W77778  32.692  20.763   3.617
10996W        W77779  18.122  19.065   3.444
10997W        W77780   0.779  28.458   0.365
10998W        W77781   5.164  15.701   0.928
10999W        W77782  35.714  40.985   3.828
11000W        W77783  18.134  12.183   1.795
11001W        W77784  41.848  23.322   2.822
11002W        W77785   0.916  29.656  11.918
11003W        W77786  26.477  23.714   1.954
11004W        W77787  25.881  33.793   1.308
11005W        W77788   8.466  28.507   4.082
11006W        W77789  11.648  38.346  12.387
11007W        W77790  44.135  26.969  13.900
11008W        W77791  16.607  12.600  11.862
11009W        W77792  23.941  24.713  14.867
11010W        W77793  14.683  42.990  12.033
11011W        W77794   7.341  37.530  13.346
11012W        W77795  32.986  16.566  11.983
11013W        W77796   2.449  28.399   5.152
11014W        W77797  12.964  40.042  14.405
11015W        W77798   7.744  40.237  13.780
11016W        W77799  25.951  33.207  10.727
11017W        W77800  39.971   1.473   4.160
11018W        W77801  18.047  41.803   3.243
11019W        W77802   2.235  14.158   4.207
11020W        W77803   7.840  16.239   4.057
11021W        W77804   5.953  27.132   0.064
11022W        W77805   7.832  38.452   2.343
11023W        W77806  43.823  42.029   2.090
11024W        W77807  29.878   8.270  12.834
11025W        W77808   8.191  28.156  10.813
11026W        W77809  30.617  42.509   3.180
11027W        W77810  35.610  10.809   1.670
11028W        W77811  29.066   7.761   2.604
11029W        W77812  44.815   9.903  13.494
11030W        W77813  26.616  42.647   5.045
11031W        W77814   8.070  22.994  12.990
11032W        W77815   5.169  14.320  14.893
11033W        W77816  29.992  42.609  12.908
11034W        W77817  27.124  23.185  11.764
11035W        W77818  17.292  42.667   4.705
11036W        W77819  25.897  27.593   9.572
11037W        W77820  31.889  21.271  14.909
11038W        W77821  43.829  41.957  11.268
11039W        W77822  44.925  36.789   2.838
11040W        W77823  27.557  20.068   3.355
11041W        W77824  31.553  20.750  14.403
11042W        W77825  44.460  28.257   1.459
11043W        W77826  15.616  38.480   2.345
11044W        W77827  28.843  14.568   4.721
11045W        W77828   1.325  31.952  14.866
11046W        W77829  26.005  41.040   0.889
11047W        W77830  19.554   7.978  11.610
11048W        W77831  34.587  27.877  11.073
11049W        W77832   9.367  27.866   2.906
11050W        W77833  15.804  31.522  11.503
11051W        W77834  19.498   4.463  14.645
11052W        W77835  29.642   6.103  13.553
11053W        W77836  32.477  29.104   4.713
11054W        W77837   1.087  28.718   1.822
11055W        W77838   8.296   7.623   4.146
11056W        W77839  11.146  24.257  11.089
11057W        W77840  30.152  13.865   2.814
11058W        W77841  18.146  38.762  14.505
11059W        W77842   2.879  42.462   5.024
11060W        W77843  31.839  12.690  11.638
11061W        W77844   7.390  31.155  12.371
11062W        W77845  11.085   5.984  11.536
11063W        W77846   8.758  36.665  13.433
11064W        W77847  40.446  42.534   4.305
11065W        W77848  12.182  34.954   5.655
11066W        W77849  15.068  32.661   4.082
11067W        W77850  43.895   4.945  11.483
11068W        W77851  21.016   7.150  12.914
11069W        W77852  28.405  19.742  14.346
11070W        W77853   2.760  22.030  12.123
11071W        W77854  29.448  34.723  13.962
11072W        W77855  12.294   0.815  11.522
11073W        W77856  18.660   7.359   2.858
11074W        W77857  26.187  32.046   3.866
11075W        W77858  29.705  17.160   5.392
11076W        W77859  29.531  33.942   1.197
11077W        W77860  31.411  36.586  14.140
11078W        W77861  14.029   8.875   4.473
11079W        W77862   3.240  39.987  13.824
11080W        W77863   4.778  17.256  10.747
11081W        W77864  29.098  37.096  13.717
11082W        W77865   5.924  37.254   1.289
11083W        W77866  23.849  24.464  13.281
11084W        W77867   8.688  22.623   2.663
11085W        W77868  18.940  34.862  11.687
11086W        W77869  16.601  23.992   1.793
11087W        W77870  39.949  22.605   0.276
11088W        W77871  24.386   5.211  13.088
11089W        W77872  30.369  39.417  12.425
11090W        W77873   9.208  38.967  10.591
11091W        W77874  26.149  32.858   2.765
11092W        W77875   3.572  19.086   1.335
11093W        W77876  29.133  42.356  13.233
11094W        W77877  33.245  24.581   0.757
11095W        W77878  37.867  19.593   2.855
11096W        W77879  14.264  12.767  12.739
11097W        W77880  41.502  13.436   2.798
11098W        W77881  29.572  38.887   1.690
11099W        W77882  38.202  40.423  14.032
11100W        W77883  41.669  37.758  12.575
11101W        W77884  31.163  43.914  10.733
11102W        W77885  15.577  32.434  13.839
11103W        W77886   7.845  13.634   2.247
11104W        W77887  22.881  36.938   2.765
11105W        W77888   2.830  22.382  12.484
11106W        W77889  24.231  30.579  13.166
11107W        W77890  39.094  32.848   2.621
11108W        W77891  40.496  27.775  10.629
11109W        W77892  23.599   5.806  12.695
11110W        W77893  28.541  44.505   3.106
11111W        W77894  26.692   0.477  12.007
11112W        W77895  19.292  34.147   2.938
11113W        W77896  25.477  16.235   4.128
11114W        W77897  30.602  37.773  10.734
11115W        W77898  18.268  37.907  14.870
11116W        W77899  19.569  35.882   1.247
11117W        W77900  16.225   1.506   3.583
11118W        W77901  20.517   2.528   0.682
11119W        W77902  18.868  14.733  11.342
11120W        W77903  16.267  34.212  12.023
11121W        W77904  34.157  28.149   1.783
11122W        W77905   9.939   7.838  14.524
11123W        W77906  44.447  39.446   3.571
11124W        W77907  15.617  14.415  14.503
11125W        W77908  31.457   6.729   0.798
11126W        W77909  29.133   5.424  14.375
11127W        W77910   1.800  33.580   4.125
11128W        W77911   7.902   6.486  13.788
11129W        W77912  31.741  31.104   4.942
11130W        W77913   0.582   3.306   2.382
11131W        W77914  19.290   2.769  12.104
11132W        W77915  16.785   0.256  14.903
11133W        W77916  44.149  14.861  10.710
11134W        W77917  27.404  19.612  12.526
11135W        W77918  18.899  12.128  14.535
11136W        W77919  27.891   0.853   2.841
11137W        W77920  39.424  28.926  11.523
11138W        W77921  24.259   8.565  11.609
11139W        W77922   5.326  18.844  13.496
11140W        W77923  15.202   2.084  10.760
11141W        W77924  11.291   0.319   3.143
11142W        W77925  11.789  24.015   1.801
11143W        W77926  11.419  11.867  11.026
11144W        W77927  39.158  24.634   2.928
11145W        W77928  16.994   6.106  11.014
11146W        W77929  30.996  14.515  14.934
11147W        W77930  30.546  24.957  10.598
11148W        W77931  12.337  26.790   2.888
11149W        W77932  44.735  28.930  14.933
11150W        W77933   3.126  30.107  11.118
11151W        W77934   4.930   7.576   1.208
11152W        W77935  40.867  41.716  13.452
11153W        W77936   2.888  32.481  12.348
11154W        W77937  39.594   3.947  13.062
11155W        W77938  37.498  27.205   0.516
11156W        W77939   7.958   9.336  11.650
11157W        W77940  42.929   3.813   3.139
11158W        W77941  14.889  13.398   3.207
11159W        W77942   7.744  20.578  11.587
11160W        W77943   3.124  22.285  11.099
11161W        W77944  22.597  39.298   0.319
11162W        W77945  17.373  12.628  13.554
11163W        W77946  37.848   3.241  12.962
11164W        W77947   8.156  14.824  14.441
11165W        W77948   6.742  32.454   2.345
11166W        W77949   6.200   8.950   2.145
11167W        W77950  22.930   7.700   0.862
11168W        W77951  14.825  12.335  13.885
11169W        W77952  42.631  33.995  14.827
11170W        W77953  17.109   3.789  11.583
11171W        W77954  34.398  23.922   1.783
11172W        W77955  28.848  43.348   2.590
11173W        W77956  24.898  20.628  14.418
11174W        W77957  29.185  23.473  14.867
11175W        W77958  17.717   1.885  13.791
11176W        W77959   9.209  17.331  14.987
11177W        W77960   2.238  44.768   1.201
11178W        W77961  17.175  13.044  11.019
11179W        W77962  10.056  24.077   3.697
11180W        W77963  12.119  42.462  12.923
11181W        W77964   7.451   8.674  14.950
11182W        W77965  31.044  24.293   3.547
11183W        W77966  39.228   5.854  12.831
11184W        W77967  21.695   0.710   2.358
11185W        W77968  23.107  33.149  12.932
11186W        W77969   5.818   9.132   1.238
11187W        W77970  10.091   6.590   5.067
11188W        W77971  38.557  37.629  12.902
11189W        W77972  11.051   3.341   3.532
11190W        W77973  32.431  41.784  12.033
11191W        W77974  35.413  40.936   1.943
11192W        W77975   2.411  22.836  12.000
11193W        W77976  43.291  42.435  13.401
11194W        W77977  11.186  22.150   3.713
11195W        W77978  11.795  19.088  14.836
11196W        W77979  22.419  22.532  12.299
11197W        W77980  40.936  17.064  10.433
11198W        W77981  40.049  38.807   4.360
11199W        W77982  38.632   3.460  10.695
11200W        W77983  19.540  12.734   3.368
11201W        W77984  16.900   1.415  11.934
11202W        W77985  29.163   8.280   1.203
11203W        W77986  33.380  12.603  14.770
11204W        W77987  10.289  21.325  11.484
11205W        W77988  35.477   1.427  14.515
11206W        W77989  17.331  24.495  11.585
11207W        W77990  22.699   8.958   1.330
11208W        W77991  44.929  23.322  13.099
11209W        W77992  36.929  18.632  12.377
11210W        W77993  27.977   8.225  12.440
11211W        W77994  29.620  25.001   2.618
11212W        W77995  18.504  41.774  11.112
11213W        W77996   2.891  42.466  14.509
11214W        W77997  40.247  37.976  12.160
11215W        W77998  23.760   8.176  10.716
11216W        W77999  43.979  17.638  10.287
11217W        W78000  15.539  19.746   5.028
11218W        W78001  17.195   5.603   2.411
11219W        W78002   4.358  10.169   5.159
11220W        W78003   6.433  41.740   3.095
11221W        W78004  17.289  18.996  12.048
11222W        W78005   2.451  23.675  12.982
11223W        W78006   0.229   2.411   3.783
11224W        W78007  13.989   5.416   0.389
11225W        W78008  36.368   3.952   0.512
11226W        W78009  11.088  16.834   1.849
11227W        W78010  41.971  27.989   0.749
11228W        W78011   8.196   1.818   2.832
11229W        W78012  30.641  17.218  11.429
11230W        W78013   4.358   8.860   3.919
11231W        W78014  31.460  24.632   0.040
11232W        W78015  33.542  11.683  11.008
11233W        W78016  30.559  17.598   0.828
11234W        W78017  20.563  32.336   3.296
11235W        W78018  19.894   6.906   3.734
11236W        W78019   4.659  44.236   2.750
11237W        W78020  13.607  40.467   0.780
11238W        W78021  34.959  16.076   3.891
11239W        W78022   1.575   3.787  13.863
11240W        W78023  35.482   4.520   0.506
11241W        W78024  43.510  29.921  12.422
11242W        W78025   4.570   4.921   4.247
11243W        W78026  27.579  12.484   2.303
11244W        W78027  14.224  21.984   3.261
11245W        W78028  39.961  38.811  12.536
11246W        W78029  13.735  40.813  13.967
11247W        W78030  10.859  23.545  11.551
11248W        W78031  10.650  38.183   0.255
11249W        W78032  31.121  38.528   0.480
11250W        W78033  34.624  12.280  14.327
11251W        W78034  36.993  12.889  14.163
11252W        W78035   7.389   5.757  14.655
11253W        W78036  40.458   2.404  13.559
11254W        W78037  38.815  12.809  14.820
11255W        W78038   9.552  39.497   0.413
11256W        W78039   2.436  31.705   1.923
11257W        W78040  16.370  17.564   4.066
11258W        W78041   1.111  33.500  13.978
11259W        W78042  11.063   7.108  12.476
11260W        W78043  32.023  17.795   3.843
11261W        W78044  11.887   4.347  13.867
11262W        W78045  10.118  40.936  11.170
11263W        W78046  37.709   1.741  10.609
11264W        W78047  41.829  15.068  12.045
11265W        W78048  42.097  43.632   3.202
11266W        W78049   2.396  40.608   0.940
11267W        W78050  22.291  34.497  11.816
11268W        W78051  29.000  32.379   3.705
11269W        W78052  16.144  31.597   4.017
11270W        W78053  29.926  29.906  14.850
11271W        W78054  38.394   6.785  12.811
11272W        W78055  44.064   4.868   1.554
11273W        W78056  11.634  20.666  11.656
11274W        W78057  26.670  29.411   0.796
11275W        W78058  22.961  35.798   5.105
11276W        W78059   2.014   5.883  10.838
11277W        W78060  37.034   6.211  14.081
11278W        W78061  43.214  39.490  11.601
11279W        W78062  21.968   2.279  12.660
11280W        W78063  41.583  32.664   3.937
11281W        W78064  41.100  36.550   4.315
11282W        W78065  18.191  12.705   1.677
11283W        W78066  35.348  26.751  14.405
11284W        W78067  27.524  17.560  11.888
11285W        W78068   5.310   3.264  14.801
11286W        W78069  12.914  24.319   4.081
11287W        W78070  30.558  40.865   3.875
11288W        W78071   9.318  38.755   1.491
11289W        W78072  16.923  13.694   0.811
11290W        W78073  27.656  15.650  11.866
11291W        W78074   1.049   3.827  13.982
11292W        W78075   8.352  33.637  11.050
11293W        W78076  22.558  35.846   4.309
11294W        W78077  39.280  43.396  14.938
11295W        W78078  44.207   1.194   4.367
11296W        W78079  13.160   8.562  12.048
11297W        W78080  22.170  43.019   1.021
11298W        W78081  29.584   2.738   1.229
11299W        W78082  24.613  19.788  12.860
11300W        W78083  13.366  40.469  13.888
11301W        W78084  13.063  26.070  13.354
11302W        W78085   8.339   1.007  13.016
11303W        W78086  41.477  14.255   3.511
11304W        W78087  27.478  26.602   9.714
11305W        W78088  36.199   0.917  10.590
11306W        W78089  36.968  20.913   3.916
11307W        W78090   5.688   3.851  13.916
11308W        W78091  14.391  42.011  12.508
11309W        W78092  18.950   7.285  14.869
11310W        W78093   9.403  14.609   0.711
11311W        W78094  43.785  28.557   2.893
11312W        W78095   2.743  41.547   3.336
11313W        W78096  20.628   3.867   4.341
11314W        W78097  12.477  38.791   3.696
11315W        W78098   8.451  14.828  10.638
11316W        W78099   4.941   8.633   1.524
11317W        W78100  17.750  33.450  14.569
11318W        W78101  30.377   0.078  13.511
11319W        W78102   7.449  31.034  14.695
11320W        W78103  36.364  21.999   0.867
11321W        W78104   9.171  31.595   1.256
11322W        W78105  32.336  44.330   1.437
11323W        W78106  40.786  12.098   0.667
11324W        W78107  35.537  36.030  13.136
11325W        W78108  29.077   1.471  10.691
11326W        W78109  10.903  19.978  10.701
11327W        W78110   0.911   6.962  11.699
11328W        W78111  18.846  27.057   4.810
11329W        W78112  43.114  36.371   0.000
11330W        W78113  42.963  25.957   0.334
11331W        W78114  44.985  41.087   3.826
11332W        W78115   8.866  31.185   0.419
11333W        W78116  41.342   4.000  10.692
11334W        W78117  42.602   5.828  14.862
11335W        W78118  16.650  39.231  12.344
11336W        W78119  35.065   6.417  13.786
11337W        W78120  15.230  21.902  14.964
11338W        W78121  35.643  18.824  11.755
11339W        W78122  17.826   3.897  13.544
11340W        W78123  14.297   9.740  12.482
11341W        W78124  16.800  10.815   4.647
11342W        W78125  44.415  12.327  14.310
11343W        W78126  12.796  10.764   0.324
11344W        W78127  21.108  32.459  14.420
11345W        W78128  23.238  16.299   3.612
11346W        W78129  25.024  34.785   3.393
11347W        W78130  23.040  32.689   4.535
11348W        W78131  43.535  24.021  13.298
11349W        W78132  10.109  41.854   4.239
11350W        W78133  26.925  25.180  13.050
11351W        W78134  42.492  39.581   2.351
11352W        W78135   3.709  25.782  12.262
11353W        W78136  23.091  37.398   2.788
11354W        W78137  33.378  44.272   4.111
11355W        W78138  18.031  34.367  13.906
11356W        W78139  35.018  27.051  10.415
11357W        W78140  34.247  34.554   4.560
11358W        W78141  41.921  43.459  11.624
11359W        W78142  32.114  43.533   4.806
11360W        W78143  38.558  18.237   2.328
11361W        W78144  31.979  34.148   3.343
11362W        W78145  20.119  42.894  14.318
11363W        W78146  37.251  37.362   3.203
11364W        W78147  37.979  33.540  13.741
11365W        W78148  33.656  44.008   1.469
11366W        W78149  19.736  33.586   1.761
11367W        W78150  37.408  17.079   4.556
11368W        W78151  21.612  14.116   5.002
11369W        W78152  28.730  26.878   1.033
11370W        W78153   7.174  33.534  11.949
11371W        W78154  26.052  43.496  12.380
11372W        W78155  40.730  40.813  11.924
11373W        W78156  39.320  29.448  14.883
11374W        W78157  24.342  41.605  10.629
11375W        W78158   0.554  24.643  14.108
11376W        W78159  14.513   1.032   1.777
11377W        W78160  35.666  39.980  11.221
11378W        W78161  43.703   5.011   0.529
11379W        W78162  19.738  25.617  11.047
11380W        W78163  14.164  27.616  12.809
11381W        W78164   2.187  33.960  12.907
11382W        W78165  22.133  25.124   3.413
11383W        W78166  24.636  10.650  12.915
11384W        W78167  14.639  26.702  14.569
11385W        W78168  19.003  40.777   0.328
11386W        W78169  26.763  35.732   2.337
11387W        W78170   0.441  41.792  13.779
11388W        W78171   3.017  35.927   2.627
11389W        W78172  16.647   1.408  13.826
11390W        W78173   8.502  21.568   4.883
11391W        W78174  29.827  40.307  10.686
11392W        W78175  19.489   2.972   4.592
11393W        W78176  42.253  16.446  12.081
11394W        W78177  19.108  44.291  11.645
11395W        W78178  32.671  18.758  14.515
11396W        W78179  40.540  13.386  14.864
11397W        W78180  38.002  11.270   3.108
11398W        W78181  44.419  33.597   2.252
11399W        W78182  43.556  13.223  14.032
11400W        W78183  25.564  37.795  12.009
11401W        W78184  33.742  17.124  10.907
11402W        W78185  36.409  26.239  10.535
11403W        W78186  22.152  21.567  12.570
11404W        W78187  36.330  43.069   2.453
11405W        W78188  43.729  37.949   0.401
11406W        W78189  27.747  33.942   4.298
11407W        W78190  23.439  31.955   2.892
11408W        W78191  15.707  29.408  14.360
11409W        W78192  27.160   5.733   1.682
11410W        W78193  38.068  21.011  11.840
11411W        W78194  22.665  41.259  12.409
11412W        W78195  11.401   1.268  14.823
11413W        W78196  35.251  43.042   0.135
11414W        W78197  32.255  39.122   0.754
11415W        W78198   3.314  17.177   1.155
11416W        W78199  36.535   4.846  12.921
11417W        W78200  27.329   3.839  11.990
11418W        W78201   8.763  21.488   1.162
11419W        W78202  15.900   6.157  10.599
11420W        W78203  18.477  13.047   5.402
11421W        W78204  25.776  35.423   2.159
11422W        W78205  29.139  44.244   1.286
11423W        W78206  44.166  21.744  13.367
11424W        W78207  24.563  44.865  12.570
11425W        W78208   4.504   0.126  11.289
11426W        W78209   9.718  22.442   2.835
11427W        W78210  41.269   7.782   1.968
11428W        W78211   0.034  34.206   3.259
11429W        W78212   3.681  42.827   4.064
11430W        W78213  33.964   3.461   1.008
11431W        W78214  35.159  38.995  14.950
11432W        W78215  33.520  26.469  10.574
11433W        W78216   9.185   4.685  10.296
11434W        W78217  23.588  21.252   3.665
11435W        W78218  31.590   2.327  13.920
11436W        W78219   2.002   6.387  11.599
11437W        W78220  25.139  39.681  11.141
11438W        W78221   0.740   4.540  10.545
11439W        W78222   2.418  34.064   0.458
11440W        W78223  35.625  19.064   3.237
11441W        W78224  36.354  42.651   1.691
11442W        W78225   7.843   6.293   2.337
11443W        W78226  36.884  11.360   3.953
11444W        W78227   3.174  10.169  11.047
11445W        W78228  32.504  28.539   1.420
11446W        W78229  33.205   0.137  14.390
11447W        W78230  17.056  27.012   2.420
11448W        W78231  39.060  20.822  11.613
11449W        W78232   6.340  40.953   1.257
11450W        W78233  24.728  30.889   0.892
11451W        W78234  39.769  18.458  11.452
11452W        W78235  32.420   9.498   3.145
11453W        W78236  23.177  25.721  14.039
11454W        W78237   7.366  44.492   2.296
11455W        W78238   6.727  37.083  11.067
11456W        W78239  12.982  38.449  11.508
11457W        W78240  14.052  36.223  13.501
11458W        W78241  37.035   4.459   0.333
11459W        W78242  13.574  24.106  11.517
11460W        W78243  19.312  40.791   0.735
11461W        W78244  14.236  22.270  14.962
11462W        W78245  15.472  39.698  14.873
11463W        W78246  37.250   8.906   2.307
11464W        W78247  18.139   1.409   0.281
11465W        W78248   7.328   9.690  11.188
11466W        W78249  18.223  27.576   4.391
11467W        W78250  30.638  15.031  14.321
11468W        W78251  36.397  20.655   2.887
11469W        W78252  44.198  28.955   3.750
11470W        W78253  30.025  16.669   4.244
11471W        W78254  43.746  27.427  10.626
11472W        W78255  32.790  43.484  12.052
11473W        W78256  37.522  37.602  10.805
11474W        W78257  30.752  18.904  13.813
11475W        W78258  27.381  35.037   4.095
11476W        W78259  23.932  26.897   3.325
11477W        W78260  13.806  38.875  13.482
11478W        W78261  25.646  39.870  14.533
11479W        W78262  32.915  37.131   4.057
11480W        W78263  29.224   0.446  11.966
11481W        W78264  24.628  23.362   5.373
11482W        W78265   0.023   0.307   3.271
11483W        W78266  15.595  22.598  14.599
11484W        W78267  17.103  21.764   2.824
11485W        W78268  40.771  24.538   0.380
11486W        W78269  33.591   4.616   3.734
11487W        W78270   2.003  33.872   2.215
11488W        W78271  39.330  39.221   2.394
11489W        W78272  27.930  19.556  14.884
11490W        W78273  12.231  27.378   4.132
11491W        W78274  39.625  12.294  11.122
11492W        W78275  17.331  42.886   1.411
11493W        W78276   6.115   1.962  13.111
11494W        W78277  38.396   8.473  13.533
11495W        W78278  20.420  28.710  12.963
11496W        W78279  33.404  18.635   3.020
11497W        W78280  10.930  25.885   1.043
11498W        W78281  40.103  37.413   1.799
11499W        W78282   5.369  15.296   4.642
11500W        W78283   2.866  20.660  14.885
11501W        W78284  28.049  23.490   4.540
11502W        W78285  38.794  29.750   4.218
11503W        W78286   7.374  31.907  14.196
11504W        W78287  24.210  27.089  11.461
11505W        W78288  11.247  11.677  11.817
11506W        W78289   3.252  13.153  11.874
11507W        W78290  32.352  23.185  10.338
11508W        W78291  42.904  27.403   2.808
11509W        W78292  40.592  26.286   0.013
11510W        W78293  39.414  43.895   3.735
11511W        W78294  35.369  28.173  14.212
11512W        W78295   4.842  24.694   0.637
11513W        W78296  14.604   1.848   4.142
11514W        W78297  23.989  25.515   2.214
11515W        W78298  22.606  27.716  13.407
11516W        W78299  44.929   9.173   1.213
11517W        W78300  40.282   7.789  14.772
11518W        W78301  19.295   5.849   2.302
11519W        W78302   5.507  13.976  11.166
11520W        W78303  38.945   5.398  10.694
11521W        W78304   8.375  20.232  12.959
11522W        W78305  37.548  35.130  12.065
11523W        W78306  39.113   1.399   4.477
11524W        W78307  21.504  10.134  11.694
11525W        W78308  37.020  21.103   3.445
11526W        W78309  27.179   5.005   2.893
11527W        W78310  23.369  30.105  12.506
11528W        W78311  42.807  20.853  12.129
11529W        W78312  21.473  26.499  11.949
11530W        W78313  30.365  29.963  11.272
11531W        W78314   2.769  23.426  14.302
11532W        W78315   2.073   7.619   0.598
11533W        W78316  25.480  16.891  14.713
11534W        W78317  24.107  11.572  14.935
11535W        W78318  23.756   3.412  11.561
11536W        W78319  25.929   6.332  10.640
11537W        W78320  24.458  26.416   2.285
11538W        W78321  13.798   9.826   3.364
11539W        W78322  41.485  27.687  11.847
11540W        W78323  40.597  42.435   3.251
11541W        W78324  41.762  11.873   4.557
11542W        W78325  36.624   8.606  11.558
11543W        W78326  12.392  25.543  11.740
11544W        W78327  26.589  21.582   2.893
11545W        W78328  25.543  27.896  10.655
11546W        W78329  44.255  31.215   4.182
11547W        W78330   6.003   5.776  14.740
11548W        W78331  29.596  29.419   0.485
11549W        W78332   2.832  27.126   0.266
11550W        W78333  30.890  22.240  10.738
11551W        W78334  10.060   2.896  11.107
11552W        W78335  29.055  14.086   4.525
11553W        W78336   6.156  34.203   0.325
11554W        W78337   2.221  17.995  11.613
11555W        W78338  20.171  33.479  12.491
11556W        W78339  38.049   4.715  13.036
11557W        W78340  22.344   6.179  13.611
11558W        W78341   3.937  25.783  11.757
11559W        W78342  19.279   2.799  10.698
11560W        W78343  40.749   7.745   1.994
11561W        W78344  24.622  43.716   4.652
11562W        W78345  16.810  14.381   1.325
11563W        W78346  42.797  33.174   0.378
11564W        W78347   1.411  15.239   3.225
11565W        W78348  22.250   7.108  13.478
11566W        W78349  22.774  17.691  13.000
11567W        W78350  32.954  44.954   0.499
11568W        W78351  32.005  41.637   3.676
11569W        W78352  24.351  33.210   4.927
11570W        W78353  27.344  10.072   2.431
11571W        W78354  32.601  16.628   2.307
11572W        W78355   6.988  26.550  11.563
11573W        W78356  19.298   5.217  14.812
11574W        W78357  35.275  30.490  14.304
11575W        W78358  13.341  38.570   0.681
11576W        W78359  16.235  30.767   5.050
11577W        W78360  27.650  44.311   3.384
11578W        W78361   6.224  13.156  12.102
11579W        W78362  15.484  18.622   3.642
11580W        W78363  42.008  28.963  12.019
11581W        W78364  17.130  34.503  10.332
11582W        W78365  35.613  38.050  11.750
11583W        W78366  29.395  37.806  11.009
11584W        W78367  42.555  17.359  12.388
11585W        W78368  10.981   6.196   2.385
11586W        W78369   8.967  26.923  13.549
11587W        W78370   7.820  43.244  11.440
11588W        W78371  38.602   4.300   0.216
11589W        W78372  30.540  39.597  11.605
11590W        W78373  33.690   7.907  14.354
11591W        W78374  23.769  43.920   1.143
11592W        W78375  10.387  41.249   0.753
11593W        W78376  39.626  33.984   1.480
11594W        W78377   2.321  27.981  10.307
11595W        W78378  22.510  10.267  14.624
11596W        W78379  39.921  27.062  13.032
11597W        W78380  13.290  15.740   3.654
11598W        W78381  36.855  18.848   2.404
11599W        W78382  22.189  35.047  12.588
11600W        W78383  11.146   7.892  13.869
11601W        W78384  19.459  39.465   1.749
11602W        W78385  24.610  39.784   4.922
11603W        W78386  44.085  18.766  13.473
11604W        W78387  17.681  22.275  14.509
11605W        W78388  14.839   1.366   4.835
11606W        W78389  28.021  12.683  14.061
11607W        W78390  26.339   0.107   4.531
11608W        W78391  38.312  25.681  12.938
11609W        W78392  32.030   9.211  11.737
11610W        W78393   7.685  28.593   0.213
11611W        W78394  28.886  43.151   2.100
11612W        W78395  35.911  30.943  12.408
11613W        W78396  43.924  32.358   2.762
11614W        W78397  35.073  33.094   2.791
11615W        W78398  18.563   4.331   1.583
11616W        W78399  37.798  29.525  10.767
11617W        W78400  36.806   5.834   0.278
11618W        W78401  44.585  30.753   5.024
11619W        W78402   6.490   5.660   2.681
11620W        W78403  38.260  42.895  12.645
11621W        W78404  12.847  23.537  14.462
11622W        W78405  19.560  35.654  13.925
11623W        W78406  41.374  36.274   3.614
11624W        W78407  21.257   7.495  14.203
11625W        W78408  38.537   2.325  11.817
11626W        W78409  39.006  16.021   3.983
11627W        W78410  17.764  19.833  11.721
11628W        W78411   9.873  34.488   2.207
11629W        W78412   2.239  18.622   2.749
11630W        W78413   0.829  26.900  11.735
11631W        W78414  36.831  13.853   0.842
11632W        W78415  36.072  14.947   3.183
11633W        W78416  40.107  27.636   2.406
11634W        W78417  36.376  16.205   3.855
11635W        W78418  25.470   5.585  12.590
11636W        W78419  42.073  24.553  14.993
11637W        W78420  16.486  36.111   4.233
11638W        W78421   8.832  35.649   2.243
11639W        W78422  20.611  26.543  11.626
11640W        W78423   8.978  26.164  14.555
11641W        W78424  42.488  42.839  11.534
11642W        W78425   9.899  30.914  14.899
11643W        W78426   6.848  10.426  14.918
11644W        W78427   7.142  32.276  10.667
11645W        W78428  13.586  19.975   3.310
11646W        W78429  13.282  13.768  10.729
11647W        W78430  31.074  20.425   2.783
11648W        W78431  42.304   9.217   2.426
11649W        W78432  15.605   9.092   2.233
11650W        W78433  24.814  28.118  13.349
11651W        W78434  37.927  36.247   1.491
11652W        W78435  28.126  23.809   2.240
11653W        W78436  10.027   8.651   9.876
11654W        W78437   3.759  37.593   3.705
11655W        W78438   7.868  41.337  14.487
11656W        W78439  27.851  39.194   1.866
11657W        W78440   2.974   0.430   1.310
11658W        W78441  43.505   0.256   0.500
11659W        W78442   0.315  13.612   2.344
11660W        W78443  28.961  10.234   4.205
11661W        W78444   9.349   2.796   4.628
11662W        W78445  23.907  40.701   0.853
11663W        W78446  34.402  32.039  10.728
11664W        W78447  40.794  18.698   3.846
11665W        W78448  41.293  38.703  12.434
11666W        W78449  18.354  19.680   4.630
11667W        W78450  34.599  44.267   4.612
11668W        W78451  26.930   1.438   4.535
11669W        W78452  36.528  21.962  11.059
11670W        W78453  27.171  13.401  11.593
11671W        W78454  40.467  38.427  13.392
11672W        W78455  34.520  34.940   0.325
11673W        W78456  14.634   3.348   0.976
11674W        W78457  28.788  26.764   4.457
11675W        W78458  35.707  24.102   2.539
11676W        W78459  28.927  35.930  13.524
11677W        W78460  32.114  30.951  13.461
11678W        W78461  17.574  10.692   3.100
11679W        W78462  41.251   0.554   5.120
11680W        W78463  21.160  25.680  12.552
11681W        W78464   1.009  11.932   2.799
11682W        W78465  27.430  15.556  11.129
11683W        W78466   3.188   5.581   1.844
11684W        W78467  40.510  43.223  14.464
11685W        W78468  15.779  10.692  11.472
11686W        W78469  27.441  20.615   0.491
11687W        W78470  25.263  11.033  11.668
11688W        W78471  29.687  15.047  14.396
11689W        W78472  40.592  18.155   0.364
11690W        W78473  23.830   5.403   5.024
11691W        W78474  30.090  33.755   3.947
11692W        W78475  36.439  10.723   1.391
11693W        W78476  13.695  37.948   3.406
11694W        W78477   9.833   2.724   3.843
11695W        W78478  24.533  41.764  12.575
11696W        W78479  10.938  26.775   4.542
11697W        W78480  39.439  11.066   4.968
11698W        W78481  29.030  36.714  14.578
11699W        W78482  43.860  42.862   2.172
11700W        W78483  39.948  20.625   0.721
11701W        W78484  28.670  10.104  12.157
11702W        W78485   1.793  13.981   3.376
11703W        W78486   2.526  20.239  11.193
11704W        W78487  28.614  36.845  12.558
11705W        W78488   8.630  36.619   2.171
11706W        W78489  37.298  23.602   3.186
11707W        W78490  22.902  35.658  13.118
11708W        W78491  19.730  34.527  11.725
11709W        W78492  41.907  39.504  13.540
11710W        W78493  17.157  29.475  11.623
11711W        W78494  38.952   0.514  10.723
11712W        W78495  12.328  11.932   2.822
11713W        W78496  41.791  42.326  11.198
11714W        W78497  35.517  43.833   0.800
11715W        W78498  37.574  37.516   4.884
11716W        W78499  12.624  13.599  10.642
11717W        W78500   2.321   3.861   2.807
11718W        W78501  13.238  24.277  13.370
11719W        W78502  35.056   4.460   2.579
11720W        W78503  10.911  31.930  13.051
11721W        W78504  19.170  14.440   1.479
11722W        W78505  32.325  24.260   4.066
11723W        W78506  23.076  41.306  10.744
11724W        W78507  25.104  14.345  11.511
11725W        W78508  27.544  20.451  12.526
11726W        W78509  33.548  24.424  10.115
11727W        W78510  39.467  31.992   0.930
11728W        W78511  27.533  33.834  11.009
11729W        W78512  16.205  23.931  11.475
11730W        W78513   1.593  34.079  11.891
11731W        W78514   0.911  42.255   2.912
11732W        W78515  39.449   1.487   3.229
11733W        W78516  41.309  19.653  10.478
11734W        W78517  20.323   1.813  14.607
11735W        W78518  41.266  22.185   4.121
11736W        W78519  12.132   0.526   3.955
11737W        W78520  20.981  41.978  13.079
11738W        W78521  24.972  42.010   4.479
11739W        W78522  29.676  25.259   1.230
11740W        W78523  32.877   0.379   4.616
11741W        W78524  16.555   0.945  14.058
11742W        W78525  23.018   6.428  14.990
11743W        W78526   8.439   7.943  11.627
11744W        W78527  40.401  24.252  11.611
11745W        W78528  18.250  15.916   0.172
11746W        W78529  18.387  18.149   3.558
11747W        W78530  39.946  12.739  10.434
11748W        W78531  30.075  23.911  11.197
11749W        W78532  13.716  42.224   1.443
11750W        W78533  37.941  24.890  12.626
11751W        W78534  30.426  19.780  12.584
11752W        W78535  36.336  18.310  10.340
11753W        W78536  30.149   5.683  14.433
11754W        W78537  40.931  28.110   4.797
11755W        W78538  21.687  39.420  14.471
11756W        W78539  28.684  24.102   2.765
11757W        W78540  40.929  21.338  11.623
11758W        W78541  44.039  22.018   4.453
11759W        W78542  10.360  34.481  14.320
11760W        W78543  38.314  41.329  13.890
11761W        W78544  17.124   8.653   2.723
11762W        W78545  31.201  25.119  14.950
11763W        W78546  37.979  28.645   0.473
11764W        W78547  20.116  35.450   1.802
11765W        W78548  20.931   5.253   0.578
11766W        W78549  14.916   2.346   2.697
11767W        W78550  43.883  16.926   0.043
11768W        W78551  17.700  34.147  13.163
11769W        W78552  17.435  28.143  10.666
11770W        W78553   9.958   6.168   0.117
11771W        W78554  17.780  24.637  10.818
11772W        W78555  15.555  40.547   1.377
11773W        W78556  11.909  30.179   0.374
11774W        W78557  15.161  20.986   1.237
11775W        W78558  44.054  35.368   1.412
11776W        W78559  34.581  39.302  12.012
11777W        W78560  20.646  37.465   0.961
11778W        W78561  12.768  10.914   3.206
11779W        W78562  11.662  34.837   3.686
11780W        W78563   3.437  25.601  14.983
11781W        W78564  23.913   2.546   2.275
11782W        W78565   5.643  44.482   2.685
11783W        W78566  16.335  25.025  12.810
11784W        W78567  28.818  25.196  12.967
11785W        W78568  31.416  31.053   1.190
11786W        W78569  43.662  12.558   2.855
11787W        W78570  43.832  32.494  10.426
11788W        W78571  37.835   6.132  14.446
11789W        W78572  14.602  38.543  12.980
11790W        W78573  40.420   9.909  10.527
11791W        W78574   9.595   5.427  14.439
11792W        W78575  34.017  30.830  11.886
11793W        W78576  16.203  32.972   2.251
11794W        W78577  10.579  40.405   3.324
11795W        W78578  22.589  32.259   4.957
11796W        W78579  29.262  34.305   4.043
11797W        W78580  12.573  15.803  14.759
11798W        W78581   3.090  40.364   1.585
11799W        W78582  36.041  44.469  11.358
11800W        W78583  14.613  36.635  10.588
11801W        W78584  30.649  37.155   3.810
11802W        W78585  10.314  16.616   0.916
11803W        W78586   8.736  11.086  12.274
11804W        W78587   2.994  15.071  14.932
11805W        W78588  33.114  26.014  13.371
11806W        W78589   2.351  43.310   1.599
11807W        W78590  34.164  13.308  12.157
11808W        W78591   2.069  15.379   1.688
11809W        W78592   3.505  32.903  14.771
11810W        W78593  14.821  27.524   3.672
11811W        W78594  15.654  38.107   3.803
11812W        W78595  16.565   7.208   4.175
11813W        W78596  35.867   9.543  12.948
11814W        W78597  37.577  15.293   0.231
11815W        W78598  36.362   2.269   3.301
11816W        W78599  17.675  27.683  10.725
11817W        W78600  29.904  36.524   0.801
11818W        W78601  41.807  23.956  11.636
11819W        W78602   3.605  35.159  11.194
11820W        W78603  14.739  31.435  11.045
11821W        W78604   6.170  29.722   2.603
11822W        W78605  15.604  10.083   1.103
11823W        W78606  27.653  18.614  12.510
11824W        W78607  31.450  22.261  14.392
11825W        W78608  17.093  24.027   3.536
11826W        W78609  24.922  42.141  10.390
11827W        W78610  19.586  38.062  12.825
11828W        W78611  18.618   2.612   3.265
11829W        W78612  23.012   7.201   4.087
11830W        W78613  39.900  33.408   1.833
11831W        W78614  42.234  20.644   1.700
11832W        W78615   2.004  36.344  13.422
11833W        W78616  29.847  37.013  14.274
11834W        W78617   7.753  36.578   3.183
11835W        W78618   5.946  21.814   3.664
11836W        W78619  37.535  26.623  14.046
11837W        W78620  23.677  17.625   1.921
11838W        W78621  21.095   8.934  13.392
11839W        W78622   4.307  28.896  11.326
11840W        W78623  20.584   5.943  11.397
11841W        W78624  30.299  44.857   1.489
11842W        W78625  42.530   1.334  14.795
11843W        W78626  36.231  14.773  12.478
11844W        W78627  43.030   3.820   5.234
11845W        W78628  28.050   1.321   4.452
11846W        W78629  42.981  32.475  11.004
11847W        W78630  33.952  37.762   0.406
11848W        W78631   7.795  21.085  13.651
11849W        W78632  18.697  43.323  14.233
11850W        W78633  34.161  43.697  12.606
11851W        W78634  39.854  18.252   0.929
11852W        W78635  32.707  17.280   3.909
11853W        W78636  16.148  43.924   3.018
11854W        W78637  11.529  39.471  10.276
11855W        W78638  30.648   5.805   2.091
11856W        W78639   3.491  31.602   4.736
11857W        W78640  17.784  21.056  13.724
11858W        W78641  34.429  10.079   3.929
11859W        W78642   5.441  10.916  11.127
11860W        W78643  27.845   2.275  11.422
11861W        W78644   2.270  32.391  13.103
11862W        W78645   0.300  31.601  10.700
11863W        W78646  37.165  41.595   3.599
11864W        W78647  38.978  17.461   2.733
11865W        W78648   2.428  25.610  10.796
11866W        W78649  32.908  29.572  11.963
11867W        W78650  32.632  41.993   1.283
11868W        W78651  21.045   5.240   4.136
11869W        W78652  36.782  31.852   3.513
11870W        W78653  16.203   8.304   3.082
11871W        W78654  29.563  31.444   2.198
11872W        W78655  15.787  42.779  14.171
11873W        W78656   5.891  37.318   4.670
11874W        W78657   2.472   7.628  11.459
11875W        W78658  33.322   3.852   4.814
11876W        W78659  29.629  14.624  13.164
11877W        W78660  27.006  19.536  12.915
11878W        W78661  27.217  11.918   1.472
11879W        W78662  13.260  20.225  11.620
11880W        W78663  30.523  16.030  12.008
11881W        W78664  40.435  40.617  11.118
11882W        W78665   8.333  14.140   2.765
11883W        W78666   5.355   1.886  12.557
11884W        W78667  20.809  40.202  11.443
11885W        W78668  21.400  42.962  10.257
11886W        W78669  17.378  43.651  12.995
11887W        W78670  22.441  11.222  10.473
11888W        W78671   0.800  43.829   1.001
11889W        W78672  41.340  44.788   2.775
11890W        W78673   1.894   6.105   4.148
11891W        W78674  13.388  38.074  12.002
11892W        W78675  32.522  23.674  11.263
11893W        W78676  31.860  14.065   1.616
11894W        W78677   9.375  21.652  11.645
11895W        W78678  10.532  17.266   2.166
11896W        W78679  35.156  41.919  14.418
11897W        W78680  19.252  36.784   0.034
11898W        W78681  24.174   8.535   1.754
11899W        W78682   7.175  25.912   4.164
11900W        W78683  42.912  19.745  13.004
11901W        W78684  30.505  12.617  11.506
11902W        W78685  42.020   9.407   0.747
11903W        W78686  25.690   3.552   4.560
11904W        W78687  31.487  15.750   0.334
11905W        W78688   8.276  39.056   0.316
11906W        W78689  27.920  12.905   4.512
11907W        W78690   1.148  26.159   3.414
11908W        W78691   6.354  10.266   5.161
11909W        W78692  23.452   8.782  12.995
11910W        W78693  34.865  38.337   4.252
11911W        W78694  27.002   8.346  10.657
11912W        W78695  37.893  22.570  11.720
11913W        W78696  37.392  26.747   4.625
11914W        W78697   8.648  19.153  13.106
11915W        W78698  28.149  17.474   0.765
11916W        W78699  39.465  44.473  11.130
11917W        W78700  13.489  35.011   0.764
11918W        W78701  28.546  39.399   3.231
11919W        W78702  40.031  23.588   3.725
11920W        W78703   4.180  24.627  13.278
11921W        W78704  32.149   3.145   2.840
11922W        W78705  31.462   1.721   3.398
11923W        W78706  11.552  25.614  13.248
11924W        W78707  32.165  29.212  11.080
11925W        W78708  38.514   7.906   5.676
11926W        W78709   7.857  31.525   1.881
11927W        W78710   1.606  23.190   3.664
11928W        W78711  12.679   8.223   1.946
11929W        W78712  15.753  11.201   1.389
11930W        W78713  34.030  29.022   3.380
11931W        W78714  19.177  29.493   0.735
11932W        W78715   7.954   5.653  14.112
11933W        W78716   2.951   2.793  11.664
11934W        W78717  17.781  36.460   0.960
11935W        W78718   4.792  23.006   1.493
11936W        W78719  41.277  18.224  12.072
11937W        W78720  24.841   5.335  13.956
11938W        W78721  39.708  28.796   2.197
11939W        W78722  44.749   6.237  13.464
11940W        W78723  16.412  34.098  14.720
11941W        W78724  24.452  41.753   4.617
11942W        W78725  31.375  14.650   0.806
11943W        W78726  12.137  14.531  11.878
11944W        W78727  22.080   4.994   4.600
11945W        W78728   6.465   0.600  14.689
11946W        W78729  33.054   6.568   1.929
11947W        W78730  44.874  37.083   2.410
11948W        W78731  14.241  10.209   1.406
11949W        W78732  36.859  33.099   1.517
11950W        W78733  42.480   3.808   1.758
11951W        W78734  43.544   7.321  14.247
11952W        W78735  18.672  23.244   1.474
11953W        W78736   9.216  40.760   3.689
11954W        W78737   2.406   6.274  10.688
11955W        W78738   3.669   4.231  14.785
11956W        W78739  11.363  10.810  14.906
11957W        W78740  41.526  36.543  13.605
11958W        W78741  26.398  35.580   3.544
11959W        W78742  26.186  16.348   1.782
11960W        W78743  22.675  21.616  12.504
11961W        W78744   2.412  32.159   1.684
11962W        W78745   9.198  12.763  12.532
11963W        W78746  37.109  38.020  12.537
11964W        W78747  33.838   3.307   4.326
11965W        W78748  36.850  20.470  14.337
11966W        W78749  35.437   8.087   1.375
11967W        W78750  19.204  13.604  12.646
11968W        W78751   7.252  38.872  13.755
11969W        W78752  38.834  20.860   1.699
11970W        W78753   7.897  34.803  12.018
11971W        W78754  43.863  27.943  14.849
11972W        W78755  31.557  32.016   0.472
11973W        W78756  31.954  39.431   4.705
11974W        W78757  31.230  19.915   2.737
11975W        W78758  22.898  32.555   1.794
11976W        W78759  44.267   0.941   3.172
11977W        W78760   7.923  19.093   1.174
11978W        W78761  20.581  37.789   1.351
11979W        W78762  39.433  36.999  13.911
11980W        W78763  35.607  15.399  11.670
11981W        W78764  19.140  12.366   3.341
11982W        W78765  30.289  13.236  14.911
11983W        W78766   3.955   6.791   4.421
11984W        W78767   2.755  12.160   1.702
11985W        W78768   6.390  43.005   3.798
11986W        W78769   7.886  11.185  11.222
11987W        W78770  10.887  15.170  14.378
11988W        W78771   5.818  12.721  11.573
11989W        W78772  26.422  38.559   3.254
11990W        W78773  39.440  23.619   1.531
11991W        W78774   1.473  16.314   0.563
11992W        W78775  13.159   6.315  14.924
11993W        W78776  38.799  31.461   0.735
11994W        W78777  10.453  39.350  10.196
11995W        W78778  38.722  23.930  11.189
11996W        W78779  11.926  11.096  12.062
11997W        W78780  36.126  24.297   1.272
11998W        W78781  19.480  24.540  14.405
11999W        W78782  20.826  12.940  11.948
12000W        W78783  22.694  19.987  14.786
12001W        W78784  42.077   3.774   2.845
12002W        W78785  12.934  29.959  10.487
12003W        W78786   7.494   5.418   2.705
12004W        W78787   9.579  18.786  11.714
12005W        W78788  23.687   7.699   1.417
12006W        W78789   0.708   5.128   0.866
12007W        W78790  14.643  19.157   1.964
12008W        W78791   5.116  36.681  11.013
12009W        W78792  44.906  26.903   2.232
12010W        W78793   9.315  15.801   1.353
12011W        W78794  31.869  41.018   3.198
12012W        W78795  20.071  28.399  11.201
12013W        W78796   2.325  38.825   3.675
12014W        W78797  22.126  31.082   3.552
12015W        W78798  30.718   5.323   1.915
12016W        W78799   5.920  13.368  14.424
12017W        W78800  38.981   7.446   4.614
12018W        W78801  24.556  18.727  12.687
12019W        W78802  31.528   9.858  14.443
12020W        W78803  30.438   9.434  10.739
12021W        W78804  33.523  39.085  11.205
12022W        W78805  19.230   9.413   3.728
12023W        W78806  42.025   6.309  10.838
12024W        W78807  40.450  41.139   3.298
12025W        W78808  30.684   3.021  11.127
12026W        W78809  16.037   2.024  13.287
12027W        W78810  43.127  10.724  12.149
12028W        W78811   5.761   9.571  14.472
12029W        W78812   4.316   3.147  13.748
12030W        W78813  13.260  39.233  12.597
12031W        W78814   1.136   4.518   3.097
12032W        W78815   8.250  11.824  14.282
12033W        W78816  44.953  33.482  12.533
12034W        W78817   3.152  14.056   3.662
12035W        W78818  18.839  34.336  14.292
12036W        W78819  35.345  13.063  14.424
12037W        W78820   5.106   4.526   4.882
12038W        W78821  35.383  36.637  14.360
12039W        W78822  35.993  12.619   1.815
12040W        W78823  13.113  18.720  13.122
12041W        W78824   0.977  38.987   1.287
12042W        W78825   4.143  17.082  12.800
12043W        W78826  25.102  13.174   3.148
12044W        W78827   3.747  18.457  14.402
12045W        W78828  15.051  26.215   0.436
12046W        W78829   6.413  23.075  11.429
12047W        W78830   9.224   2.264   0.701
12048W        W78831  25.877  29.317   0.309
12049W        W78832  33.892  12.363   0.820
12050W        W78833  37.954  39.866  10.569
12051W        W78834   5.376  16.975   4.533
12052W        W78835  12.760  19.021   1.614
12053W        W78836  39.107  22.559  12.109
12054W        W78837  25.063  42.391   0.820
12055W        W78838  25.631  36.139   3.356
12056W        W78839  33.950  21.199   3.595
12057W        W78840  18.513   6.867   4.596
12058W        W78841  11.167   0.201  14.004
12059W        W78842  15.363  30.367   4.202
12060W        W78843   0.491   1.704  14.821
12061W        W78844  25.094   6.473  11.336
12062W        W78845  10.682  36.038  13.925
12063W        W78846  25.956  10.065   3.294
12064W        W78847  10.119  43.268   0.957
12065W        W78848  26.640  24.316   3.724
12066W        W78849   2.392   6.152  12.565
12067W        W78850  27.571   0.690   0.942
12068W        W78851  43.770  29.472  12.407
12069W        W78852   9.908   1.951   2.628
12070W        W78853  28.053  33.463   3.599
12071W        W78854  30.238   7.198   3.048
12072W        W78855  24.621  31.379   2.583
12073W        W78856  10.990  26.647   2.406
12074W        W78857  39.745   9.044   5.488
12075W        W78858  21.342  14.647  10.315
12076W        W78859  27.490   6.410  11.536
12077W        W78860  20.123   4.642   1.296
12078W        W78861  22.534  16.642  13.013
12079W        W78862  26.080  39.540   9.846
12080W        W78863  33.211   8.339   3.274
12081W        W78864  30.134  27.444   0.370
12082W        W78865  39.284   9.910  13.973
12083W        W78866   9.337  35.597   0.244
12084W        W78867  10.145  37.806   4.462
12085W        W78868  34.834  33.482  14.200
12086W        W78869  40.602  14.925  11.582
12087W        W78870   7.601  23.120  14.347
12088W        W78871  38.558   2.372  12.798
12089W        W78872   9.249  32.583  11.508
12090W        W78873  15.560  27.798  13.246
12091W        W78874  41.079   7.876   0.033
12092W        W78875  34.990  34.402  12.475
12093W        W78876  11.269   3.097   0.897
12094W        W78877  43.931  31.377  13.415
12095W        W78878  12.664  15.507  12.449
12096W        W78879  39.662  15.872  11.143
12097W        W78880  30.103  16.273  12.402
12098W        W78881  34.946  10.169   3.901
12099W        W78882  16.194  41.316   3.793
12100W        W78883   3.235   7.900  12.485
12101W        W78884  23.051  38.788  13.399
12102W        W78885  28.828   6.789  10.732
12103W        W78886  32.399   7.752   2.719
12104W        W78887  20.517  33.120   2.831
12105W        W78888  12.914  25.502  11.636
12106W        W78889  11.203  42.296   2.894
12107W        W78890  10.630   9.622   0.796
12108W        W78891  21.251  24.488  11.973
12109W        W78892  29.075  23.157  10.783
12110W        W78893   0.570   0.254   3.215
12111W        W78894  27.578   5.286   1.524
12112W        W78895  32.604  14.262  12.314
12113W        W78896   1.794  32.446  14.231
12114W        W78897  36.860  19.586   3.640
12115W        W78898  41.702   8.128  12.462
12116W        W78899   2.480  24.567   0.332
12117W        W78900  22.747  13.151   3.989
12118W        W78901   2.967   0.141   1.735
12119W        W78902   9.778  37.970  11.659
12120W        W78903  25.211  43.009   1.592
12121W        W78904   6.964  17.392  12.012
12122W        W78905  28.698  26.363   0.955
12123W        W78906   9.920   6.865   1.218
12124W        W78907   4.801   6.693   1.030
12125W        W78908  20.566  12.331  14.832
12126W        W78909  37.167  33.918  14.292
12127W        W78910   2.949  30.830   0.877
12128W        W78911  24.877   3.986   4.588
12129W        W78912  12.061  22.468  11.825
12130W        W78913  23.748  28.808   2.723
12131W        W78914  21.093  14.029  14.901
12132W        W78915  13.883  41.792   4.634
12133W        W78916  41.007  32.072   1.200
12134W        W78917  28.036   1.886   1.890
12135W        W78918  31.876  29.105   3.388
12136W        W78919   7.219   8.234   4.258
12137W        W78920  10.416  30.375   4.963
12138W        W78921  16.030  38.589   3.078
12139W        W78922  14.868  30.636   3.745
12140W        W78923  35.293  12.331  14.954
12141W        W78924  14.150  18.285  12.844
12142W        W78925  16.690   2.664  12.581
12143W        W78926  33.845   3.474   2.067
12144W        W78927  23.074  29.505   3.555
12145W        W78928  24.294   2.407   0.950
12146W        W78929  23.086  23.544  10.607
12147W        W78930  44.520  17.256  12.483
12148W        W78931  20.644   6.431   2.464
12149W        W78932  13.161  28.257   1.823
12150W        W78933  36.177  30.506  13.989
12151W        W78934  39.880  43.982   3.525
12152W        W78935  12.952  20.305   0.393
12153W        W78936  13.228  42.358   2.078
12154W        W78937   0.934   2.988  14.739
12155W        W78938  28.096  36.051   1.203
12156W        W78939   8.194  27.291   0.301
12157W        W78940  11.478  37.300  11.087
12158W        W78941  37.066  38.760  11.102
12159W        W78942  25.476   1.349   3.403
12160W        W78943  26.225  13.628   4.256
12161W        W78944   7.159  10.182  10.456
12162W        W78945  24.546  13.566  11.205
12163W        W78946   5.425  21.768   0.685
12164W        W78947  11.309   6.261  10.648
12165W        W78948  27.502  19.468   2.715
12166W        W78949   6.636  43.290  14.041
12167W        W78950  39.756  21.165   4.203
12168W        W78951  22.095  38.262   4.837
12169W        W78952  19.189  30.432   1.703
12170W        W78953  16.855   2.159   3.687
12171W        W78954  34.474   9.359   9.958
12172W        W78955  44.295   3.765   0.299
12173W        W78956  44.994  12.363   1.831
12174W        W78957   8.733  10.619  12.533
12175W        W78958   5.742   7.919   3.104
12176W        W78959  21.780   5.641   1.702
12177W        W78960  31.469   8.783  10.605
12178W        W78961  31.920  10.948  13.890
12179W        W78962  28.537  17.977   3.070
12180W        W78963  28.544  38.323   4.755
12181W        W78964  38.948  10.590   0.039
12182W        W78965  38.537  19.764   1.272
12183W        W78966  37.255  42.044   0.263
12184W        W78967  18.228  12.629   3.175
12185W        W78968   6.934  26.224   4.513
12186W        W78969  40.656  30.970   2.816
12187W        W78970  25.008  26.744  14.558
12188W        W78971  14.674  10.192  10.227
12189W        W78972   7.329  26.453   1.681
12190W        W78973  17.772  17.186   2.805
12191W        W78974  23.614  36.047   2.128
12192W        W78975  43.211  16.594  13.884
12193W        W78976  30.547   4.433   1.380
12194W        W78977  41.899  42.497  14.299
12195W        W78978  15.533  18.032  12.489
12196W        W78979  18.107  27.911  14.826
12197W        W78980   8.334  40.312   0.820
12198W        W78981  17.167   6.283  12.062
12199W        W78982  38.516   5.189  13.871
12200W        W78983  32.841  34.806   2.992
12201W        W78984  21.094  23.099   4.784
12202W        W78985  29.120  19.547  11.225
12203W        W78986  11.362  21.574   3.029
12204W        W78987   1.999  16.494  12.884
12205W        W78988  24.398   4.677   0.205
12206W        W78989  20.672  34.478  14.353
12207W        W78990  25.979  14.902  13.913
12208W        W78991   8.433  39.694  11.550
12209W        W78992  21.348  35.497   4.598
12210W        W78993  35.130  10.440  11.013
12211W        W78994  30.905  38.559  11.576
12212W        W78995   8.439  24.958   2.542
12213W        W78996   4.634  23.954  11.989
12214W        W78997   2.248  40.355  11.561
12215W        W78998   6.984  27.211  14.905
12216W        W78999  12.809  11.962  13.155
12217W        W79000   1.917  35.055   0.894
12218W        W79001  31.083   5.154   3.405
12219W        W79002   5.880   1.428  12.738
12220W        W79003  31.058  25.510  14.294
12221W        W79004   5.251  43.086  11.624
12222W        W79005   0.276  15.294   3.880
12223W        W79006  40.542  35.933  14.430
12224W        W79007  39.951  33.034   2.228
12225W        W79008  31.441   6.481  10.192
12226W        W79009  25.607  17.344  14.491
12227W        W79010  43.454  13.238  14.543
12228W        W79011  28.255  34.058  10.420
12229W        W79012  36.109  13.265   4.554
12230W        W79013  25.909  21.038  10.672
12231W        W79014  21.031   8.739  10.859
12232W        W79015  21.442  18.792  13.437
12233W        W79016  20.226  43.729   2.276
12234W        W79017  29.640  40.035  12.155
12235W        W79018  27.513   1.793  13.535
12236W        W79019  41.289  21.085  14.019
12237W        W79020  43.408   5.762   0.980
12238W        W79021  28.736  10.580  11.982
12239W        W79022  10.764  41.438   1.952
12240W        W79023  11.761  26.719   3.707
12241W        W79024  20.343  26.299   3.243
12242W        W79025   7.946  36.907   4.472
12243W        W79026  10.121  41.828   1.598
12244W        W79027   8.469  28.632  11.702
12245W        W79028   2.709  14.254   3.234
12246W        W79029  38.515  27.080  14.401
12247W        W79030   5.365  14.496  14.430
12248W        W79031  20.062  42.992  13.373
12249W        W79032  20.097   6.477  13.018
12250W        W79033  23.195  31.216   0.465
12251W        W79034  24.563  27.757   1.773
12252W        W79035  41.430  32.385  14.005
12253W        W79036  23.511  24.964   1.047
12254W        W79037  43.774  35.144  13.649
12255W        W79038   4.981   9.821  11.233
12256W        W79039  30.961   4.515  13.442
12257W        W79040  13.591  30.249   4.901
12258W        W79041  44.991   6.692   2.783
12259W        W79042  24.184   6.661   5.051
12260W        W79043   2.781  27.914   2.875
12261W        W79044  21.126  32.559   3.262
12262W        W79045   4.764   3.734   2.575
12263W        W79046   5.152  11.404  14.807
12264W        W79047  25.256   9.717  11.949
12265W        W79048   4.595  24.769   3.299
12266W        W79049  27.614   2.458  12.262
12267W        W79050   3.481   8.609  14.475
12268W        W79051  23.609   7.908   2.895
12269W        W79052   0.451   9.284   5.043
12270W        W79053  11.674  35.109  10.569
12271W        W79054  33.975  12.270   4.555
12272W        W79055  14.120  25.283   1.425
12273W        W79056   2.464  39.784   1.808
12274W        W79057  43.976  41.821  14.528
12275W        W79058  39.334  23.633  14.118
12276W        W79059  41.936  26.103   3.368
12277W        W79060   0.391   4.510   2.656
12278W        W79061  36.069  22.947  14.835
12279W        W79062  11.549   3.375  11.697
12280W        W79063  41.046  38.343  11.195
12281W        W79064  21.549   4.434  12.500
12282W        W79065  28.647  28.420  12.815
12283W        W79066   2.350  36.772  12.268
12284W        W79067   3.205  21.557  11.595
12285W        W79068  14.750   6.453  10.715
12286W        W79069  20.114  30.485   0.527
12287W        W79070  44.521   1.489  12.602
12288W        W79071  23.631  18.075   1.542
12289W        W79072   2.377  37.916  10.639
12290W        W79073  31.108  25.977  10.797
12291W        W79074  40.503  15.389  14.968
12292W        W79075  28.247  11.934   3.765
12293W        W79076  25.894  29.718  11.535
12294W        W79077   7.970  30.222   0.402
12295W        W79078  29.020  34.143   3.205
12296W        W79079  16.347  32.739   2.691
12297W        W79080   4.991  16.674  14.541
12298W        W79081   0.083  43.718  11.086
12299W        W79082  39.748  30.692   3.662
12300W        W79083  28.145  11.192   2.514
12301W        W79084  34.016  41.032   4.568
12302W        W79085  32.643  26.052   2.719
12303W        W79086  24.757  35.485   4.498
12304W        W79087  20.508  33.789   4.108
12305W        W79088   6.679  35.505   0.938
12306W        W79089  38.155  43.593  13.920
12307W        W79090  30.656  16.702  13.477
12308W        W79091  34.218  43.799  14.413
12309W        W79092   9.636   8.411  11.668
12310W        W79093  21.651   0.924  11.380
12311W        W79094  36.349  15.879   3.427
12312W        W79095  31.476  34.431  10.725
12313W        W79096  16.204  30.071   3.850
12314W        W79097  34.829  28.426   4.041
12315W        W79098  10.184   7.275  14.857
12316W        W79099  31.560  33.439   2.689
12317W        W79100  26.404  21.024  11.481
12318W        W79101  39.503  28.902   1.303
12319W        W79102  19.783  26.021  12.177
12320W        W79103  36.024  27.977   1.523
12321W        W79104   1.412  10.225  14.721
12322W        W79105  34.085   5.901   0.128
12323W        W79106  33.804   3.817  13.618
12324W        W79107   2.505  26.467   1.803
12325W        W79108   6.596  24.657   4.199
12326W        W79109  43.604   4.810   4.045
12327W        W79110  28.167   1.793  12.869
12328W        W79111  44.447  41.894  14.320
12329W        W79112  40.598  33.332   1.303
12330W        W79113  16.233  38.408   2.124
12331W        W79114  11.288   5.967   1.688
12332W        W79115  13.700  17.237   0.284
12333W        W79116  11.783  35.931  11.003
12334W        W79117  28.485  20.137   3.831
12335W        W79118  25.779  22.196  13.977
12336W        W79119  33.275  29.691   2.215
12337W        W79120  19.184  33.946  14.231
12338W        W79121  29.535  22.995  14.296
12339W        W79122  26.299  21.810  11.052
12340W        W79123  14.534  34.181  10.682
12341W        W79124  24.510   2.576  13.403
12342W        W79125  27.489  22.006  13.108
12343W        W79126  14.720  17.404  13.810
12344W        W79127   0.962   8.251   2.708
12345W        W79128  22.598  20.055   2.205
12346W        W79129  33.646  19.709  14.887
12347W        W79130   2.224  38.564  13.041
12348W        W79131  21.135  35.906  14.629
12349W        W79132   2.668   2.307  13.442
12350W        W79133  39.308  36.924  11.840
12351W        W79134  13.128  23.643   0.279
12352W        W79135   3.718   4.568   4.148
12353W        W79136  14.781  17.816   9.442
12354W        W79137  39.496   5.900   2.330
12355W        W79138  10.886  44.995  12.451
12356W        W79139  11.206   2.744   2.917
12357W        W79140  22.765  21.707  13.284
12358W        W79141   9.771   5.963  13.368
12359W        W79142  23.153   9.911  13.973
12360W        W79143  10.413  39.398  11.115
12361W        W79144  14.857   3.842  10.408
12362W        W79145  43.888  14.826   1.735
12363W        W79146  12.275  10.900   0.368
12364W        W79147  28.427   1.725   3.225
12365W        W79148   1.334  16.332   0.049
12366W        W79149  37.886  30.082  13.586
12367W        W79150  22.680   3.554   1.786
12368W        W79151  41.654  10.649   2.271
12369W        W79152   5.162  18.098   2.427
12370W        W79153  21.943  26.457   2.350
12371W        W79154  31.943  19.785  12.126
12372W        W79155  33.288  36.894  14.496
12373W        W79156  24.209  19.766   4.790
12374W        W79157   5.732   6.936   0.676
12375W        W79158  35.031   3.808   4.277
12376W        W79159  16.761  18.557   3.122
12377W        W79160  38.732  18.918  10.637
12378W        W79161  10.445  16.146  11.954
12379W        W79162  41.038  40.536  10.663
12380W        W79163  25.119   7.827   1.273
12381W        W79164  13.670  32.156  13.968
12382W        W79165  22.623  13.374  12.755
12383W        W79166  20.468  33.671  14.704
12384W        W79167  21.451   2.949   1.885
12385W        W79168  11.306  44.956   4.437
12386W        W79169  43.707  35.905   4.569
12387W        W79170   9.693  30.502  13.998
12388W        W79171  29.166  42.931   2.818
12389W        W79172  22.037  27.032  12.399
12390W        W79173  42.035  13.201  14.917
12391W        W79174  40.121  27.521  10.900
12392W        W79175  11.303  37.389   0.881
12393W        W79176   3.198  23.974   0.529
12394W        W79177  22.960   8.133  13.398
12395W        W79178  38.419  11.396  14.911
12396W        W79179  10.386  17.030   4.540
12397W        W79180   1.750  44.594   0.252
12398W        W79181   5.884  39.615   3.492
12399W        W79182   3.642  34.090  11.147
12400W        W79183  33.813  11.157  12.040
12401W        W79184  40.075  40.579  13.996
12402W        W79185  15.164  27.938  11.947
12403W        W79186  41.342   9.318  11.121
12404W        W79187   8.860  38.284   3.149
12405W        W79188  23.766  32.619   3.688
12406W        W79189  26.764  34.975  12.700
12407W        W79190  12.603  36.128   2.410
12408W        W79191  44.632  40.486  14.052
12409W        W79192  41.102  34.912  11.243
12410W        W79193  12.330  34.837  13.015
12411W        W79194   9.112  35.006  14.313
12412W        W79195  25.160  23.538   0.298
12413W        W79196   0.706  21.883   4.135
12414W        W79197  19.244  39.775   0.158
12415W        W79198  35.005  38.057   3.256
12416W        W79199   1.811   6.088   1.203
12417W        W79200  37.417  22.532   2.755
12418W        W79201   7.473  36.073   4.628
12419W        W79202  40.876  15.914   2.166
12420W        W79203  37.760  35.332  13.311
12421W        W79204  39.768  29.924   1.403
12422W        W79205   6.117  16.586  13.745
12423W        W79206  32.980  22.665  11.006
12424W        W79207  41.137   1.039   3.655
12425W        W79208  22.412  18.734   1.857
12426W        W79209  13.578   4.251  13.290
12427W        W79210  13.724  16.086  13.380
12428W        W79211  12.625  41.266  11.589
12429W        W79212  21.204   7.783   1.448
12430W        W79213  42.304   0.262  14.431
12431W        W79214   3.555  25.990   0.331
12432W        W79215  13.711   8.590   1.226
12433W        W79216   6.490   0.641   1.404
12434W        W79217  34.380  21.006  14.904
12435W        W79218  20.914  14.619  13.386
12436W        W79219  18.503  13.322   2.769
12437W        W79220  34.007  34.056  12.515
12438W        W79221  39.165  14.427   3.278
12439W        W79222  10.357  42.711  14.212
12440W        W79223  23.012   2.201  14.175
12441W        W79224  39.774  36.932   4.064
12442W        W79225  11.887   9.206   0.415
12443W        W79226  37.813   4.472   0.752
12444W        W79227  19.028  33.183  13.027
12445W        W79228   2.139   6.911   3.385
12446W        W79229  37.978  16.335  11.570
12447W        W79230   7.122  34.427  13.415
12448W        W79231  41.929  41.828   4.223
12449W        W79232  38.048  23.220   0.033
12450W        W79233  16.328  44.770  13.029
12451W        W79234  36.049  36.846  12.956
12452W        W79235  20.968  34.603  13.904
12453W        W79236  14.238  33.371  10.791
12454W        W79237  10.120  30.184  13.927
12455W        W79238  16.108  35.032   2.959
12456W        W79239  10.217  20.638   1.109
12457W        W79240  11.407   6.378   4.133
12458W        W79241   3.046  10.873   3.880
12459W        W79242  26.156   0.285  12.056
12460W        W79243  18.717   5.759   1.868
12461W        W79244   1.650  24.087   2.369
12462W        W79245  11.684  36.244  14.343
12463W        W79246   4.949  37.677   3.140
12464W        W79247  11.689  19.306  11.611
12465W        W79248  14.316  38.284   1.270
12466W        W79249   9.718   2.751   1.327
12467W        W79250  19.907  15.694  10.492
12468W        W79251   0.404  37.811  10.728
12469W        W79252  34.065  28.715   2.631
12470W        W79253   9.646  16.141  12.825
12471W        W79254  39.874  19.601   4.412
12472W        W79255  41.953   1.912   0.332
12473W        W79256  41.532   2.697   3.445
12474W        W79257  32.441  29.637  14.225
12475W        W79258  31.025   9.667   3.345
12476W        W79259  30.843  23.245  12.502
12477W        W79260  26.128   2.751  11.518
12478W        W79261   8.453   3.749  14.979
12479W        W79262  17.490  42.397  12.014
12480W        W79263  36.357  32.544  14.822
12481W        W79264  40.321  39.741  10.831
12482W        W79265  39.977  41.494   4.593
12483W        W79266  43.981  23.520  13.845
12484W        W79267  24.082  44.424   1.874
12485W        W79268  10.292   0.003   3.580
12486W        W79269  13.785  22.304  13.526
12487W        W79270  16.059  13.208   4.590
12488W        W79271   2.477   3.701  11.466
12489W        W79272  22.896  21.059   4.752
12490W        W79273   8.761  39.301   0.227
12491W        W79274   1.781   3.907   0.367
12492W        W79275  26.269  17.453  12.801
12493W        W79276   0.931  22.568   0.816
12494W        W79277  25.516  10.202   2.168
12495W        W79278  18.764  35.564  14.798
12496W        W79279  36.444   9.369  11.042
12497W        W79280  11.098  24.413   0.435
12498W        W79281  39.990  11.758  11.663
12499W        W79282   1.302   8.223  13.278
12500W        W79283   7.725  35.130  10.796
12501W        W79284   2.815  16.819   0.204
12502W        W79285  17.091  18.323  10.915
12503W        W79286  38.135   8.442   2.281
12504W        W79287   9.806  36.825   2.350
12505W        W79288  18.644  35.509   4.548
12506W        W79289  23.456  21.542   4.092
12507W        W79290  44.724  37.289  14.744
12508W        W79291  10.745  44.900   0.270
12509W        W79292  14.561  31.913  13.423
12510W        W79293  20.951  25.511  14.353
12511W        W79294   3.878  27.477   1.719
12512W        W79295  35.067  11.928   1.340
12513W        W79296  14.706   4.110   4.330
12514W        W79297  39.974  30.210   0.604
12515W        W79298  33.632  44.540   4.491
12516W        W79299   6.392   7.916  12.900
12517W        W79300  32.838   0.914  13.302
12518W        W79301   5.321  17.940  13.477
12519W        W79302  43.506  29.998  13.681
12520W        W79303  31.960  36.298   4.547
12521W        W79304  21.756   5.432  11.554
12522W        W79305  42.098   4.196   3.143
12523W        W79306  29.971  27.134   3.648
12524W        W79307  40.344  29.472  14.466
12525W        W79308  20.622  20.536  10.658
12526W        W79309  40.431  23.031  10.762
12527W        W79310  15.844   2.368   3.772
12528W        W79311   7.844  15.520  13.557
12529W        W79312   0.419  38.594   4.094
12530W        W79313  27.045  36.870   4.911
12531W        W79314  33.673  44.556   0.447
12532W        W79315  15.746   6.889   0.175
12533W        W79316  29.450  20.957  14.957
12534W        W79317   6.102  16.312   1.742
12535W        W79318   7.346  30.439   0.374
12536W        W79319  28.228  24.625   4.744
12537W        W79320   4.166  40.422  13.821
12538W        W79321  19.233  27.543   2.433
12539W        W79322  41.132  43.893  11.078
12540W        W79323  31.661   6.891  12.068
12541W        W79324  23.499   1.197   2.249
12542W        W79325  36.696  28.527  11.126
12543W        W79326  29.455  14.820   4.034
12544W        W79327  18.710  43.806  14.467
12545W        W79328  26.927  37.603  12.548
12546W        W79329  19.666  11.629  14.451
12547W        W79330  36.563  23.173  11.162
12548W        W79331   7.394  17.565   3.993
12549W        W79332  34.128  20.602   2.458
12550W        W79333  13.953  24.927   4.580
12551W        W79334  10.705  25.852   3.638
12552W        W79335   6.914  35.565  13.030
12553W        W79336  36.883  30.514   0.734
12554W        W79337  42.971  27.125  13.197
12555W        W79338  32.979  15.760  12.993
12556W        W79339  25.247   3.169   4.221
12557W        W79340  34.308  22.211   0.948
12558W        W79341  39.849  23.532  13.988
12559W        W79342  25.981   0.072  13.423
12560W        W79343  38.640  29.664  13.977
12561W        W79344   1.925   9.479  14.947
12562W        W79345  16.125   8.349   1.183
12563W        W79346   3.606  27.767   3.308
12564W        W79347  35.159   6.360   2.246
12565W        W79348  30.246   4.927  10.777
12566W        W79349  41.335  21.709  12.409
12567W        W79350  14.342  34.407   0.475
12568W        W79351  21.630  42.530   3.107
12569W        W79352  15.501  10.694   3.315
12570W        W79353   7.347  25.701  14.981
12571W        W79354   4.302  41.795  13.628
12572W        W79355  13.582  11.070   0.921
12573W        W79356  26.959  23.558  10.544
12574W        W79357  42.011   0.786  12.436
12575W        W79358   2.959  37.102   1.309
12576W        W79359  19.097   6.588  13.634
12577W        W79360  40.863   3.840  10.601
12578W        W79361  44.355  30.079   2.824
12579W        W79362   7.097  36.388  11.556
12580W        W79363  41.930  22.951   3.679
12581W        W79364  33.660   4.397   0.713
12582W        W79365  40.083  17.308   4.110
12583W        W79366  37.342  44.438   3.109
12584W        W79367  35.089  25.839  13.937
12585W        W79368  10.800   7.759  10.780
12586W        W79369   1.767  34.573   3.358
12587W        W79370  28.448  30.874   1.222
12588W        W79371   8.820  38.874   4.107
12589W        W79372  44.830  25.256   3.247
12590W        W79373  38.054  40.750  10.773
12591W        W79374  10.843  41.917   0.384
12592W        W79375   3.368  19.779   0.920
12593W        W79376  20.444   3.216   2.305
12594W        W79377  19.184  43.021  11.232
12595W        W79378   9.166  38.460   3.971
12596W        W79379  22.086  29.667  12.441
12597W        W79380  21.649  26.045  11.094
12598W        W79381   8.312  28.575   0.997
12599W        W79382  13.297  44.036  11.185
12600W        W79383  35.725  19.316  10.343
12601W        W79384  23.292  43.888   1.332
12602W        W79385  31.166  40.344  14.927
12603W        W79386  35.545   4.237   2.644
12604W        W79387  24.968   4.736   4.086
12605W        W79388  16.297  20.766  13.315
12606W        W79389  29.616  31.415  13.452
12607W        W79390  17.156  35.054   2.835
12608W        W79391   4.358  42.300   2.844
12609W        W79392  23.778  26.713   4.764
12610W        W79393  14.610  29.914   0.934
12611W        W79394  14.683  35.333   4.661
12612W        W79395  38.356  24.544  12.375
12613W        W79396  24.789   5.435   1.340
12614W        W79397  29.788   8.971   2.795
12615W        W79398  39.975  25.907   4.166
12616W        W79399  39.549  27.065   3.782
12617W        W79400   5.267  15.118  12.186
12618W        W79401  23.036  22.172  10.680
12619W        W79402  18.282  30.494   4.952
12620W        W79403  26.290   7.795   3.680
12621W        W79404   5.702  10.760  13.569
12622W        W79405  36.706  40.533   2.713
12623W        W79406  25.595  34.904  14.293
12624W        W79407  44.514  30.596   0.477
12625W        W79408   4.939   6.649  12.969
12626W        W79409  11.590   1.412  10.871
12627W        W79410   5.711  34.906   3.733
12628W        W79411  24.492   9.508   0.201
12629W        W79412  37.877  20.249  14.258
12630W        W79413  18.717  34.615  12.087
12631W        W79414  25.625  13.348   1.392
12632W        W79415   3.716  19.119   4.187
12633W        W79416  41.907   8.334   3.113
12634W        W79417  39.865  42.934   1.649
12635W        W79418   5.521  20.714   1.886
12636W        W79419  35.608   6.920   0.517
12637W        W79420  20.856  25.085  14.649
12638W        W79421  40.685  42.904   4.624
12639W        W79422  41.946  14.859  11.102
12640W        W79423  43.887  20.645   3.140
12641W        W79424  28.328   8.381  11.141
12642W        W79425  24.957  40.538  13.385
12643W        W79426   1.663   1.402  10.858
12644W        W79427   8.873   8.420   4.199
12645W        W79428  43.965  10.481   1.527
12646W        W79429  29.207   9.370  12.366
12647W        W79430  37.689  16.155  12.873
12648W        W79431  13.562  20.453   4.161
12649W        W79432  10.728  19.869  13.470
12650W        W79433  30.162  30.831   1.720
12651W        W79434  36.075   1.770  10.839
12652W        W79435  39.352  40.246   3.679
12653W        W79436  44.584  30.556   2.842
12654W        W79437  33.073  33.478   0.718
12655W        W79438  42.243  10.776  12.508
12656W        W79439  27.398  34.011   2.642
12657W        W79440  21.597   7.750   0.963
12658W        W79441   6.382  39.907   5.176
12659W        W79442   8.166  42.469   2.859
12660W        W79443   5.911  16.175  13.450
12661W        W79444  37.370   1.524   1.781
12662W        W79445   4.313  30.537   3.805
12663W        W79446  20.707  23.509  12.056
12664W        W79447  36.111  13.712  13.369
12665W        W79448   9.459  39.292  12.581
12666W        W79449  23.441   7.704   4.617
12667W        W79450  33.917  32.679   1.796
12668W        W79451  39.723  42.984   3.769
12669W        W79452   7.749  43.746  11.233
12670W        W79453   6.935  25.451   0.251
12671W        W79454  30.068  27.047  14.869
12672W        W79455  11.413  26.572   4.566
12673W        W79456  39.983   0.658   0.385
12674W        W79457  21.355  30.055   2.894
12675W        W79458  12.473  44.795  13.988
12676W        W79459  25.482   9.159  11.169
12677W        W79460  18.048  10.821  10.711
12678W        W79461  39.301  44.374  12.976
12679W        W79462   3.902  28.794   1.341
12680W        W79463  32.856  27.523   2.743
12681W        W79464  26.259  10.188   2.832
12682W        W79465   2.656   8.471  14.757
12683W        W79466  12.939  29.548   2.306
12684W        W79467  35.129  20.113  11.136
12685W        W79468  17.467  12.386   9.783
12686W        W79469  36.395  11.944  14.354
12687W        W79470   0.077  43.996   3.193
12688W        W79471   1.899  43.416   1.310
12689W        W79472  17.309  11.786  13.489
12690W        W79473  25.500  17.781   3.877
12691W        W79474  15.035  11.167   0.864
12692W        W79475  26.084  18.869   4.963
12693W        W79476  17.893  40.376  13.921
12694W        W79477  44.823  31.608  10.920
12695W        W79478  19.140  11.815  10.536
12696W        W79479   3.395   9.259   2.257
12697W        W79480  17.561  11.055   4.000
12698W        W79481   7.356  13.097   0.678
12699W        W79482  24.580  29.638  14.899
12700W        W79483  41.955   8.962   1.671
12701W        W79484  33.589  44.392  11.852
12702W        W79485  12.817  43.364  11.227
12703W        W79486  37.455  13.584  14.903
12704W        W79487  41.889  12.095   5.457
12705W        W79488  13.282  31.394  10.710
12706W        W79489  36.628   0.819   0.937
12707W        W79490   9.861  42.439  12.055
12708W        W79491  21.040  21.070   1.919
12709W        W79492   7.265   1.682  14.980
12710W        W79493   9.862   5.353  12.439
12711W        W79494  34.993   2.670   2.000
12712W        W79495  24.713  26.730  13.522
12713W        W79496  13.174  26.052   3.682
12714W        W79497  15.402   2.825   0.912
12715W        W79498  24.933   7.135  12.951
12716W        W79499  37.407  23.875   3.606
12717W        W79500   4.234  39.474  10.418
12718W        W79501  44.993  30.949  12.712
12719W        W79502  20.407  28.740  11.400
12720W        W79503  26.566  43.906  12.947
12721W        W79504   5.385   6.225  10.850
12722W        W79505   1.392  34.826  11.088
12723W        W79506  32.497   6.471  11.148
12724W        W79507   1.174  23.571  13.944
12725W        W79508  41.598  15.641   0.557
12726W        W79509  41.037  44.536   0.376
12727W        W79510  21.063  23.238   5.297
12728W        W79511  18.681  28.224  13.619
12729W        W79512   2.807  11.132  12.920
12730W        W79513  35.583   0.754   4.465
12731W        W79514  41.339  25.198   2.675
12732W        W79515   7.980  28.485  14.254
12733W        W79516  16.994   4.252   4.208
12734W        W79517  40.912   8.889   3.865
12735W        W79518   7.128   0.073   3.726
12736W        W79519   3.552  35.943   4.042
12737W        W79520   0.181   6.354  10.584
12738W        W79521  15.773  24.262  13.148
12739W        W79522  43.290  25.157   2.936
12740W        W79523  32.844  30.041   0.950
12741W        W79524  29.688   5.741   4.110
12742W        W79525  24.084  15.069   2.366
12743W        W79526  20.042  30.958   0.315
12744W        W79527   4.394  24.502  11.992
12745W        W79528  30.419  43.921   3.183
12746W        W79529  10.878  30.327   2.306
12747W        W79530   2.905  36.421  12.877
12748W        W79531  32.913  15.747  12.427
12749W        W79532   3.839  35.000   0.257
12750W        W79533   6.337  24.024   2.386
12751W        W79534  11.541  30.368  10.840
12752W        W79535  28.536  35.294   3.655
12753W        W79536  28.765   0.754  14.032
12754W        W79537  29.001  42.302  10.683
12755W        W79538  29.000  34.917   2.805
12756W        W79539  10.667  11.488   3.292
12757W        W79540  22.606  41.857  11.457
12758W        W79541  11.262   5.724   0.715
12759W        W79542  21.151  26.109   3.775
12760W        W79543   7.267  14.978  12.409
12761W        W79544  26.976  28.551   0.956
12762W        W79545  35.521  41.209  14.862
12763W        W79546  25.749  13.819  12.869
12764W        W79547   6.252  29.143   0.490
12765W        W79548   2.833  29.437   0.966
12766W        W79549  20.583  27.468   4.396
12767W        W79550  24.867  23.449  14.329
12768W        W79551  36.405  41.219   2.375
12769W        W79552  22.273  18.085   0.520
12770W        W79553  20.812  38.317  13.852
12771W        W79554  44.783  30.724   4.160
12772W        W79555   1.101  11.287   2.237
12773W        W79556  43.221  43.811   2.149
12774W        W79557  27.208  22.952  13.912
12775W        W79558  31.695  12.267   4.805
12776W        W79559   4.752  21.625   2.966
12777W        W79560  35.101   0.439  12.102
12778W        W79561  13.229  22.225  14.921
12779W        W79562  22.711  28.997   1.426
12780W        W79563  23.205  25.542   1.946
12781W        W79564  12.075  39.351  14.513
12782W        W79565  28.142  32.123   1.923
12783W        W79566  20.104  29.974   0.711
12784W        W79567  18.647  14.334  13.047
12785W        W79568  12.571  39.824   1.302
12786W        W79569  44.379  23.269  11.603
12787W        W79570   9.269  16.173  12.418
12788W        W79571  18.750  15.765   0.286
12789W        W79572  19.959  11.933   1.845
12790W        W79573   2.621  29.421   3.717
12791W        W79574  38.797  39.066   2.323
12792W        W79575  36.862  25.405  12.085
12793W        W79576   6.768  19.649  11.482
12794W        W79577  42.653  11.709   4.090
12795W        W79578  18.492   6.418   3.742
12796W        W79579  27.225  22.096   0.916
12797W        W79580  39.595  35.117   2.857
12798W        W79581  34.994   5.192   1.953
12799W        W79582   2.198  10.133  11.200
12800W        W79583   0.977  43.695  13.489
12801W        W79584  24.643  10.695   4.001
12802W        W79585   0.283   4.295   1.300
12803W        W79586   7.717  44.462   4.008
12804W        W79587  40.996  16.662  12.817
12805W        W79588   1.826  15.771   2.748
12806W        W79589  37.083  12.087  11.229
12807W        W79590  11.337   3.690   2.723
12808W        W79591   8.273  21.080  13.404
12809W        W79592  37.259  10.885   0.459
12810W        W79593  15.653  43.485  14.438
12811W        W79594  10.610  32.821  12.561
12812W        W79595  32.861  39.029   1.730
12813W        W79596  39.760  32.937   3.138
12814W        W79597  27.461  26.937  10.446
12815W        W79598   4.216  19.244   4.138
12816W        W79599  27.831  43.448   2.796
12817W        W79600   5.325  42.576   2.979
12818W        W79601  14.350   2.923  11.428
12819W        W79602  33.407  14.725  14.732
12820W        W79603  20.940   5.932   3.255
12821W        W79604   4.029   6.360   4.734
12822W        W79605  33.349   2.944  10.706
12823W        W79606  11.394  14.578   2.828
12824W        W79607  11.662  13.908   5.083
12825W        W79608  11.524   3.839  11.944
12826W        W79609  42.850  22.224   1.010
12827W        W79610  37.855  39.995   0.734
12828W        W79611  43.747  38.846   2.095
12829W        W79612  13.142   6.934   3.255
12830W        W79613  43.351  33.706  14.414
12831W        W79614  29.821  42.491   0.241
12832W        W79615  38.098  25.557  10.644
12833W        W79616   2.974  41.853   0.796
12834W        W79617   4.738  11.775  13.023
12835W        W79618  37.547  17.229  11.752
12836W        W79619  37.033  27.705   3.603
12837W        W79620  10.835   6.859   1.375
12838W        W79621  22.068  19.141  14.713
12839W        W79622  28.174  35.465  14.974
12840W        W79623  44.522  36.925   4.189
12841W        W79624  36.900  23.146  11.597
12842W        W79625  22.293  30.178   0.461
12843W        W79626  24.162   6.400  14.213
12844W        W79627  16.540  32.034  12.648
12845W        W79628   7.433  27.197  11.994
12846W        W79629  25.628  44.937   0.044
12847W        W79630  27.476  31.316  13.263
12848W        W79631  16.941  27.738  11.259
12849W        W79632  19.994  16.015   9.924
12850W        W79633  16.318  33.703   3.762
12851W        W79634  44.904  41.997   0.575
12852W        W79635   4.819   2.072  10.226
12853W        W79636  19.611  14.792  13.809
12854W        W79637  32.477  39.301  14.910
12855W        W79638  39.400  41.133  13.980
12856W        W79639  41.534  26.146   4.615
12857W        W79640   5.442  39.563  12.925
12858W        W79641   2.952  33.489  14.980
12859W        W79642   3.451  18.156  14.102
12860W        W79643   0.656  44.802  13.947
12861W        W79644  20.394   6.886   3.770
12862W        W79645   0.688  22.773  12.176
12863W        W79646  34.716   5.415  11.497
12864W        W79647  40.433  12.644   4.159
12865W        W79648   7.481   7.824  13.610
12866W        W79649  15.702  36.137   3.557
12867W        W79650  23.723  43.930  14.305
12868W        W79651  15.370  38.230  13.359
12869W        W79652  27.403  40.301  13.899
12870W        W79653   2.496   8.572  11.169
12871W        W79654  13.663  33.202   3.659
12872W        W79655  29.531   0.080  11.791
12873W        W79656  14.253  35.919   1.760
12874W        W79657  31.481  17.389  12.540
12875W        W79658  24.804  17.715  13.483
12876W        W79659  39.717  37.344   2.150
12877W        W79660  20.965  37.154  11.989
12878W        W79661  21.881  27.496   1.429
12879W        W79662  19.848  36.046  14.134
12880W        W79663  35.055  37.616  13.547
12881W        W79664  20.079  18.565  14.875
12882W        W79665  41.309  24.462  10.723
12883W        W79666  27.212  20.790   2.790
12884W        W79667  30.953  10.123   4.196
12885W        W79668  35.310  39.771  12.075
12886W        W79669  28.957  44.824   3.201
12887W        W79670   1.672   9.526  13.562
12888W        W79671  23.691  12.674  12.603
12889W        W79672   1.983  11.862  10.721
12890W        W79673  44.148  32.376  12.631
12891W        W79674  38.263  26.452   2.983
12892W        W79675   7.890  34.984   3.033
12893W        W79676  29.155  43.920  14.270
12894W        W79677  27.523  20.307   0.980
12895W        W79678  10.467  42.333   1.896
12896W        W79679  18.627  22.950  11.543
12897W        W79680  18.154  44.835  12.811
12898W        W79681   5.302  36.104  11.114
12899W        W79682  30.242  20.210   5.022
12900W        W79683  33.290  23.114  11.552
12901W        W79684  16.545  36.787  11.529
12902W        W79685  26.964  23.079   1.243
12903W        W79686  37.395  19.216   4.535
12904W        W79687  12.231  13.748   3.907
12905W        W79688  16.179  27.096   3.454
12906W        W79689  31.435  30.674   2.739
12907W        W79690  40.535  26.625   3.234
12908W        W79691   8.181  22.811  11.239
12909W        W79692  15.663   6.639   3.785
12910W        W79693   5.120  31.065  10.631
12911W        W79694  28.654  31.621  14.998
12912W        W79695  42.964  31.840   1.820
12913W        W79696  37.546  12.539  13.905
12914W        W79697  25.746  34.567   1.693
12915W        W79698  37.548  20.569   1.981
12916W        W79699  19.710  29.302   3.589
12917W        W79700  12.987  20.978  10.751
12918W        W79701  17.342  44.011  12.652
12919W        W79702  38.088  33.444   1.769
12920W        W79703  40.122  22.300  12.828
12921W        W79704  29.806  20.997  11.046
12922W        W79705  33.384  38.498   1.046
12923W        W79706  30.648  14.326  12.512
12924W        W79707   2.700  38.508  11.937
12925W        W79708  38.532  28.047  14.906
12926W        W79709  37.846  29.119  12.842
12927W        W79710  13.178  21.753   3.661
12928W        W79711  37.646  38.417   4.344
12929W        W79712  28.644   7.320  13.636
12930W        W79713   7.153  38.311   5.045
12931W        W79714   6.391  26.288   4.483
12932W        W79715   2.774  42.256  14.985
12933W        W79716  24.731  22.718  11.237
12934W        W79717  11.335  29.068   4.316
12935W        W79718  18.202  38.454  12.070
12936W        W79719  34.033  10.345  11.241
12937W        W79720  20.785  22.789  11.502
12938W        W79721  35.504  33.293  12.891
12939W        W79722  27.893   2.654   1.395
12940W        W79723  17.908   3.320   4.056
12941W        W79724  20.037  11.797  10.023
12942W        W79725  37.329  31.859   3.637
12943W        W79726  19.996   1.713   3.665
12944W        W79727  29.595  43.077  11.647
12945W        W79728  22.636  32.921   0.181
12946W        W79729  12.757  28.575   1.924
12947W        W79730   1.459  26.997   2.239
12948W        W79731  15.695   1.222   0.924
12949W        W79732   9.017  24.810  13.973
12950W        W79733   9.450  28.342  12.858
12951W        W79734   3.850  25.004  10.701
12952W        W79735  18.810  37.406   1.917
12953W        W79736  13.238  44.803  13.363
12954W        W79737  25.166   6.799  12.318
12955W        W79738  38.982  42.378  11.570
12956W        W79739  33.311  13.248   1.275
12957W        W79740  20.312  38.361  14.025
12958W        W79741  21.889  12.315  14.988
12959W        W79742  23.973   1.644  10.615
12960W        W79743  38.496  17.145  13.436
12961W        W79744  44.735  23.639   0.955
12962W        W79745  15.229  10.431   1.299
12963W        W79746  23.594   7.319   3.653
12964W        W79747  44.513  33.605  11.175
12965W        W79748  35.338   2.451   4.150
12966W        W79749  24.202  23.568   3.604
12967W        W79750  12.084   9.208  13.017
12968W        W79751  38.851  36.354   2.827
12969W        W79752  26.118  29.523   3.827
12970W        W79753  18.595  15.380   3.230
12971W        W79754  15.315  33.514   0.891
12972W        W79755   1.391  36.542   2.287
12973W        W79756  32.067  26.360  10.698
12974W        W79757  37.952  30.731  11.964
12975W        W79758  27.425  40.823   2.234
12976W        W79759  10.406  40.624   4.116
12977W        W79760  30.900  12.324   2.320
12978W        W79761  35.074  28.459   2.667
12979W        W79762  21.245  12.034   4.077
12980W        W79763   0.917   3.848  14.486
12981W        W79764  12.628  44.587   1.831
12982W        W79765  10.775  40.204  14.921
12983W        W79766  29.690   8.435   3.114
12984W        W79767   5.143   0.508   2.346
12985W        W79768  39.413  12.795  11.124
12986W        W79769  44.297  22.502   2.305
12987W        W79770  20.282  43.905   1.318
12988W        W79771  39.911  18.202  13.291
12989W        W79772  10.682   7.439  12.380
12990W        W79773   6.650  23.457   3.649
12991W        W79774  14.141   9.802  13.491
12992W        W79775  24.245  28.535   3.786
12993W        W79776   6.666  35.991   4.331
12994W        W79777  40.274  27.455  11.413
12995W        W79778  12.341  31.875  13.047
12996W        W79779   2.482   9.811  12.490
12997W        W79780  40.236  29.937  11.958
12998W        W79781   9.839  25.432  13.429
12999W        W79782  13.973  35.712   4.210
13000W        W79783  33.881  30.604  12.352
13001W        W79784  33.221  19.490   0.831
13002W        W79785  32.658   1.604   1.859
13003W        W79786  22.169  10.116  12.808
13004W        W79787  32.863  23.113  10.318
13005W        W79788  14.629   1.961  11.550
13006W        W79789  12.453  12.818  13.463
13007W        W79790  22.989  28.775   0.833
13008W        W79791  44.668   9.089  12.664
13009W        W79792  23.072  13.272  14.058
13010W        W79793  15.603  20.832  13.963
13011W        W79794  14.747  25.089   1.007
13012W        W79795   8.034   5.696  12.227
13013W        W79796  22.024  36.356  10.581
13014W        W79797  41.331  15.682   3.428
13015W        W79798  34.662  18.632   0.284
13016W        W79799  34.045  33.034   1.419
13017W        W79800  27.870  34.918   4.105
13018W        W79801  33.649  17.441  12.392
13019W        W79802  25.833   6.420  12.000
13020W        W79803  32.752   2.924   1.924
13021W        W79804  32.844  35.772  14.577
13022W        W79805  34.137   1.726   1.823
13023W        W79806  17.060  18.163   3.272
13024W        W79807   2.186  44.871   4.210
13025W        W79808  28.353  43.912  12.413
13026W        W79809  23.137  38.266   1.392
13027W        W79810  34.281  30.081  14.374
13028W        W79811  31.549  40.851  12.608
13029W        W79812   8.798  11.424  11.445
13030W        W79813  40.741  30.098   1.700
13031W        W79814  12.432  20.079   4.890
13032W        W79815  24.626  39.488   2.807
13033W        W79816  21.596  42.579  14.431
13034W        W79817  38.815   8.134   1.372
13035W        W79818   9.080   4.313  13.423
13036W        W79819  29.109  28.782   2.725
13037W        W79820   5.172  43.111   4.184
13038W        W79821   5.364  33.663   0.711
13039W        W79822   7.279  13.363   1.187
13040W        W79823  19.138  29.540  11.214
13041W        W79824  16.281  27.604  13.772
13042W        W79825  18.912  12.467   5.115
13043W        W79826  17.177   3.641   3.622
13044W        W79827   5.417  22.384   4.149
13045W        W79828  11.842  19.581  12.462
13046W        W79829  37.858  14.761   4.164
13047W        W79830  18.109  21.316  11.064
13048W        W79831  21.030  44.449   2.271
13049W        W79832  40.821  42.314   1.084
13050W        W79833  27.703  11.108  12.059
13051W        W79834  22.768  18.328   3.742
13052W        W79835   7.978  30.104  11.059
13053W        W79836  36.560  41.366  11.628
13054W        W79837  17.340   2.287  14.521
13055W        W79838   0.215  36.839   3.708
13056W        W79839  25.963  21.905  11.491
13057W        W79840  15.817   9.287   2.685
13058W        W79841  17.863  21.113  11.469
13059W        W79842  32.523  12.326   0.456
13060W        W79843  22.567  32.997   3.184
13061W        W79844   5.810  36.103  11.305
13062W        W79845  24.678  28.268  12.072
13063W        W79846  24.532  32.162  12.512
13064W        W79847   0.443  36.219   3.068
13065W        W79848  19.063  14.946   0.300
13066W        W79849  32.397  17.055   4.265
13067W        W79850  37.837  34.462  11.905
13068W        W79851  12.570  20.743  12.642
13069W        W79852  35.527  41.878   0.964
13070W        W79853  11.749   0.645   5.132
13071W        W79854   2.974  30.348   2.767
13072W        W79855  41.142  28.954  14.880
13073W        W79856  13.638   3.878   0.830
13074W        W79857  24.004  41.455  12.456
13075W        W79858  33.242  38.086   4.145
13076W        W79859  38.151  22.919  12.058
13077W        W79860   7.340  10.986   3.664
13078W        W79861   4.985  16.299   3.929
13079W        W79862  15.129  30.135  11.010
13080W        W79863  10.282   0.555   2.699
13081W        W79864  42.800  11.827  10.730
13082W        W79865  30.049  16.873   2.460
13083W        W79866  42.705  41.319   0.310
13084W        W79867  23.531  25.881   1.171
13085W        W79868  11.634  42.619   3.306
13086W        W79869  35.037  20.833   0.781
13087W        W79870  18.626   3.170   3.140
13088W        W79871  42.972  39.746   1.231
13089W        W79872  35.393   9.129  11.041
13090W        W79873  35.308  19.707  11.702
13091W        W79874  16.718  41.875  12.014
13092W        W79875  14.340  14.801   1.879
13093W        W79876  29.401  22.653   1.791
13094W        W79877   3.308  40.788  12.005
13095W        W79878  30.690  38.326   1.299
13096W        W79879  15.737  23.169  10.605
13097W        W79880  17.573  12.634  14.061
13098W        W79881   0.604   8.916   0.462
13099W        W79882   7.176  19.723   1.451
13100W        W79883  19.705  26.551  12.017
13101W        W79884  43.879  40.209  13.309
13102W        W79885   7.026   6.945  12.520
13103W        W79886  40.112  35.655  12.894
13104W        W79887  29.442   3.045  11.238
13105W        W79888   2.130  42.867  14.855
13106W        W79889   5.756  43.468   2.661
13107W        W79890  35.163  24.143   2.438
13108W        W79891  25.950  42.460  13.880
13109W        W79892  17.399   0.742   0.900
13110W        W79893  23.614   1.361  14.288
13111W        W79894   5.014  41.659  13.136
13112W        W79895   8.448  17.691   0.846
13113W        W79896  11.158  19.052   1.828
13114W        W79897  38.022  23.134   3.144
13115W        W79898  24.462  12.572   0.703
13116W        W79899  37.416  36.653   0.968
13117W        W79900  42.840  33.588  13.142
13118W        W79901   0.851  24.145   0.606
13119W        W79902  19.482  43.361  10.961
13120W        W79903   7.158  41.592   0.475
13121W        W79904   3.951  18.211  10.894
13122W        W79905  10.677  43.492   3.275
13123W        W79906  41.069  39.013  11.589
13124W        W79907   5.675  21.954   0.254
13125W        W79908   3.413  38.570  10.995
13126W        W79909  28.176  32.761   4.732
13127W        W79910  12.713  22.390   0.029
13128W        W79911  38.501  14.293   0.730
13129W        W79912  14.781  37.469  12.047
13130W        W79913  18.611  42.412   3.969
13131W        W79914  36.060  18.678  12.920
13132W        W79915  24.706   7.861  11.726
13133W        W79916   1.987  15.851  11.559
13134W        W79917  26.436  28.115  11.513
13135W        W79918   9.130  24.196   4.648
13136W        W79919   2.028  30.980  14.834
13137W        W79920  41.867  27.226  11.212
13138W        W79921  31.059   8.571  10.277
13139W        W79922   4.132  28.479   2.744
13140W        W79923  34.569  25.086  12.382
13141W        W79924  32.173  32.063   1.907
13142W        W79925  30.371  36.818   4.115
13143W        W79926  39.498  30.548   4.945
13144W        W79927   1.180  27.368   4.057
13145W        W79928  40.847  25.722   4.671
13146W        W79929   1.302  25.435   3.101
13147W        W79930  34.755  44.500   5.099
13148W        W79931  17.175   0.963   3.205
13149W        W79932   8.685  34.595  13.410
13150W        W79933   6.486   4.280  12.867
13151W        W79934  34.469   9.404  10.965
13152W        W79935  33.550  35.617   0.836
13153W        W79936  18.266  40.754  12.520
13154W        W79937   8.630   4.358  14.714
13155W        W79938  39.019  44.829   0.007
13156W        W79939  26.037  13.245   3.610
13157W        W79940  15.528  14.241   3.891
13158W        W79941  34.767   2.272   2.288
13159W        W79942  34.505  17.853  12.897
13160W        W79943   9.643  26.451  13.604
13161W        W79944   1.046  34.635   1.947
13162W        W79945  35.245  31.528  12.161
13163W        W79946  30.429  38.789   3.163
13164W        W79947   3.894  15.601  13.618
13165W        W79948  20.751  14.355  10.736
13166W        W79949  38.471  39.696  12.073
13167W        W79950  10.648  23.029   4.584
13168W        W79951  23.047  35.673  14.594
13169W        W79952  31.507  16.764  13.797
13170W        W79953  37.342  39.794  14.282
13171W        W79954  35.016  25.002  10.689
13172W        W79955  22.517  38.098  14.979
13173W        W79956  22.016  34.528  13.784
13174W        W79957  20.065  28.151  11.664
13175W        W79958  23.205  23.179  11.532
13176W        W79959  37.012  25.502  10.782
13177W        W79960  20.191  21.108  10.682
13178W        W79961  11.433  43.920  14.407
13179W        W79962  26.412  32.912   3.203
13180W        W79963   6.775  18.693  12.464
13181W        W79964  12.504  25.279  14.942
13182W        W79965  18.287  40.314  13.028
13183W        W79966  26.992  16.765  13.805
13184W        W79967  30.441  31.536  12.563
13185W        W79968   9.825  42.041   2.343
13186W        W79969   7.800   1.278   0.286
13187W        W79970  32.591   2.865   2.950
13188W        W79971  39.984  13.342  13.268
13189W        W79972  40.597  18.685   0.251
13190W        W79973  31.990  38.376  14.970
13191W        W79974  28.488   6.116   4.054
13192W        W79975  31.022   6.433   3.677
13193W        W79976   7.871  32.913  10.644
13194W        W79977   2.799  41.522   0.437
13195W        W79978  27.715  26.090  10.644
13196W        W79979  20.590   0.349   1.710
13197W        W79980  15.830  22.650   2.238
13198W        W79981  38.941  37.164   3.604
13199W        W79982  18.323   7.716   0.412
13200W        W79983  39.312  17.823   4.930
13201W        W79984  43.833  14.474   2.274
13202W        W79985  11.651  38.945   1.595
13203W        W79986  34.022  19.499   1.549
13204W        W79987  41.805  32.620  14.927
13205W        W79988  38.223  32.720  14.201
13206W        W79989   7.974  26.648   0.920
13207W        W79990   3.398   8.298  13.382
13208W        W79991  11.561   5.170   3.034
13209W        W79992  42.264  18.155   3.340
13210W        W79993  14.923  39.452   4.807
13211W        W79994   2.323  44.036   0.670
13212W        W79995  20.724   8.277   0.620
13213W        W79996  17.330  37.237  13.997
13214W        W79997  27.672  10.355  11.203
13215W        W79998  42.755  24.954  11.512
13216W        W79999  19.283  27.887   1.238
13217W        W80000   3.518  42.949   1.449
13218W        W80001  12.218  13.753   1.768
13219W        W80002  25.274   6.388   0.245
13220W        W80003  23.595  29.397   4.655
13221W        W80004  33.022   7.098   1.888
13222W        W80005  21.726  38.604  11.562
13223W        W80006  29.469  19.148   4.273
13224W        W80007  43.529  44.160  14.293
13225W        W80008  16.815  18.795  12.041
13226W        W80009  35.621  42.491   3.672
13227W        W80010   5.716  40.837  10.706
13228W        W80011   6.241   7.851   1.232
13229W        W80012   8.863   5.371  12.608
13230W        W80013  18.639  27.524   4.746
13231W        W80014  44.260  16.980   0.948
13232W        W80015  10.602   4.407  13.459
13233W        W80016   2.279  39.878  12.514
13234W        W80017  20.007  29.023  12.940
13235W        W80018  39.534  27.656   4.467
13236W        W80019  24.265   1.576   0.513
13237W        W80020  27.756  35.436   4.052
13238W        W80021  31.420  36.071  14.081
13239W        W80022  13.844   1.580   2.671
13240W        W80023  16.248   0.219  14.952
13241W        W80024   9.695   2.601   4.969
13242W        W80025  34.991  20.263   3.089
13243W        W80026   3.864   6.150   1.463
13244W        W80027  23.063  16.283   0.579
13245W        W80028   8.172  34.465  13.379
13246W        W80029  27.213  37.881  12.976
13247W        W80030  29.490  12.348   2.801
13248W        W80031  42.539  15.252  13.906
13249W        W80032  16.712  40.345   1.621
13250W        W80033  24.922  39.267  14.055
13251W        W80034  42.258   3.238   0.801
13252W        W80035  38.776  12.895  11.108
13253W        W80036   6.139  15.260   4.171
13254W        W80037  13.261  43.550   1.370
13255W        W80038  41.530  32.840  13.062
13256W        W80039   8.763   5.392   2.303
13257W        W80040   3.310  41.297  12.022
13258W        W80041  26.598   5.662   4.194
13259W        W80042  19.661  10.487   2.331
13260W        W80043   5.927   6.696  12.512
13261W        W80044  36.896  24.749   1.862
13262W        W80045  37.548  28.603  14.526
13263W        W80046  16.155  22.258   4.302
13264W        W80047  16.585  39.467   4.736
13265W        W80048  21.470  11.233   4.464
13266W        W80049  29.972  26.785  11.861
13267W        W80050   2.619  34.421   2.657
13268W        W80051   4.803  29.946   3.085
13269W        W80052   7.465  14.513  12.427
13270W        W80053  40.588  19.403  11.929
13271W        W80054  41.099  27.939  11.632
13272W        W80055  28.668  37.982   3.402
13273W        W80056   2.912   1.382   4.574
13274W        W80057  37.717  20.989  14.969
13275W        W80058  35.597  30.247  14.881
13276W        W80059  37.611  28.120   3.278
13277W        W80060   0.010   1.576   0.020
13278W        W80061   1.364  17.063  12.069
13279W        W80062  11.439   1.313  10.380
13280W        W80063  21.117  29.308  12.339
13281W        W80064  18.094  20.792   3.640
13282W        W80065  33.746  13.802  14.967
13283W        W80066  22.148  13.091   1.663
13284W        W80067  41.326  31.116  11.127
13285W        W80068  14.587  11.789  10.661
13286W        W80069   5.809   0.053  14.851
13287W        W80070  36.000  17.705  11.305
13288W        W80071  15.981  18.221  11.116
13289W        W80072   0.712  12.233   2.311
13290W        W80073  10.352  36.025   3.310
13291W        W80074  15.164  35.939   0.142
13292W        W80075  11.303  36.560   5.443
13293W        W80076  26.017   9.721  14.808
13294W        W80077  25.245  11.488  12.985
13295W        W80078  13.462   9.966  10.519
13296W        W80079   4.270   2.988  13.262
13297W        W80080  38.701   5.447  14.331
13298W        W80081   8.959   5.623  13.798
13299W        W80082   8.690   1.900   1.270
13300W        W80083  18.348  24.489   0.924
13301W        W80084  17.606  20.709  12.438
13302W        W80085  37.437  36.563   2.866
13303W        W80086  38.560  21.710   2.978
13304W        W80087  34.510  22.281  14.207
13305W        W80088   5.527   4.464   1.966
13306W        W80089   6.215   5.698   4.013
13307W        W80090  31.710  35.058  12.386
13308W        W80091  14.602  36.097   3.371
13309W        W80092   4.100  13.710   4.332
13310W        W80093  30.085  41.060  10.986
13311W        W80094  12.350  15.657   3.785
13312W        W80095  31.131  20.209   1.363
13313W        W80096   5.186  11.594  14.239
13314W        W80097  43.774  22.661  13.408
13315W        W80098  15.877  16.262   0.686
13316W        W80099  35.062  15.102   2.642
13317W        W80100  27.105   4.984  13.818
13318W        W80101  36.207  17.704   2.408
13319W        W80102  31.027  18.388  10.283
13320W        W80103  42.123  27.163  12.469
13321W        W80104  29.046  30.619   0.454
13322W        W80105  15.228   0.218  14.738
13323W        W80106  28.670  28.238  10.378
13324W        W80107   0.095  12.734  12.874
13325W        W80108  18.180  33.166   2.637
13326W        W80109  30.192  23.450   4.271
13327W        W80110  37.988  20.632   3.672
13328W        W80111  18.038  21.766  12.008
13329W        W80112  39.790  34.626  14.892
13330W        W80113  35.103   0.401   2.884
13331W        W80114  14.390  28.496   2.385
13332W        W80115  18.666  30.153   3.301
13333W        W80116  10.841  38.449  14.422
13334W        W80117   8.209  11.149   1.138
13335W        W80118   1.866  25.627  14.883
13336W        W80119  19.043  22.266   0.301
13337W        W80120  43.954  38.696  10.887
13338W        W80121  32.500  11.228   0.965
13339W        W80122  39.328  19.194   3.701
13340W        W80123  10.667  30.043  13.997
13341W        W80124  24.322  37.851   4.494
13342W        W80125  12.938  21.477   0.275
13343W        W80126   2.973  38.421   0.684
13344W        W80127   5.959  11.826   4.082
13345W        W80128  24.601  21.341  11.059
13346W        W80129  38.168  40.446  11.738
13347W        W80130  34.816  18.648  11.102
13348W        W80131   7.257  32.165  12.295
13349W        W80132  33.013   3.960   3.543
13350W        W80133  19.244  23.183  14.515
13351W        W80134  40.318   8.173   0.409
13352W        W80135  30.119   9.704   3.190
13353W        W80136  22.063  37.392   3.105
13354W        W80137  42.313  19.614  13.708
13355W        W80138  21.954  16.311   4.098
13356W        W80139   8.205  13.463  14.142
13357W        W80140   6.542  32.927  10.947
13358W        W80141  44.293  39.386  11.566
13359W        W80142  20.727  27.426  10.646
13360W        W80143   2.709   5.704   4.740
13361W        W80144  15.041  23.779   2.890
13362W        W80145  18.530   2.168  13.568
13363W        W80146   7.607  13.020   3.208
13364W        W80147  22.454   4.479   2.146
13365W        W80148   2.217  17.749   3.166
13366W        W80149  28.132  12.722  12.030
13367W        W80150  16.715   4.724   0.365
13368W        W80151  32.967  39.576  10.613
13369W        W80152   3.498  28.731   4.108
13370W        W80153  18.022  40.637   2.411
13371W        W80154  19.641  24.435  12.966
13372W        W80155  36.731  13.415  14.472
13373W        W80156  10.746  27.639  14.795
13374W        W80157   5.310  18.078   1.930
13375W        W80158  14.969  42.764   3.441
13376W        W80159  25.804   9.183   3.313
13377W        W80160  15.724  12.171   3.180
13378W        W80161  14.500  43.993   4.043
13379W        W80162   3.561  20.190   2.203
13380W        W80163  33.560   2.805  12.816
13381W        W80164   8.249  10.865   4.537
13382W        W80165   3.625   0.905   2.761
13383W        W80166   8.725   5.562   0.508
13384W        W80167  37.372  25.405  11.989
13385W        W80168  25.379   7.847  11.205
13386W        W80169  19.578  20.026  11.150
13387W        W80170  31.838  15.000  11.573
13388W        W80171  24.786   3.469   2.805
13389W        W80172   5.937  24.633  11.108
13390W        W80173  44.747  33.449  12.071
13391W        W80174   4.250  11.972   4.922
13392W        W80175  27.760  32.957  11.140
13393W        W80176   6.969  39.152  13.386
13394W        W80177  19.176  16.885   1.882
13395W        W80178  37.285  11.671   4.660
13396W        W80179   9.373  25.448   4.266
13397W        W80180   3.775   9.367   3.548
13398W        W80181  33.039  24.642  11.117
13399W        W80182  34.072  40.299  14.722
13400W        W80183  38.193   1.115  13.580
13401W        W80184   0.577   6.391   3.268
13402W        W80185  31.430   2.740  12.992
13403W        W80186  16.145  20.660  14.535
13404W        W80187   8.697   3.833   1.700
13405W        W80188  16.194   1.403  10.602
13406W        W80189  35.222  31.738   2.752
13407W        W80190  44.626  10.875  13.409
13408W        W80191   4.230  21.966  12.906
13409W        W80192  10.236  33.747   0.008
13410W        W80193   8.145  37.453  11.145
13411W        W80194   7.362  26.542  13.060
13412W        W80195  14.069  36.291   3.595
13413W        W80196  40.451  39.572   1.393
13414W        W80197  30.929  35.971  13.815
13415W        W80198  24.958  32.468  12.433
13416W        W80199  24.448  29.419  11.030
13417W        W80200  25.237  30.944   0.919
13418W        W80201  39.783  35.175   3.754
13419W        W80202  40.381  42.894   1.480
13420W        W80203  27.182  42.371  12.877
13421W        W80204   3.441   5.689   2.297
13422W        W80205   7.344   8.126   4.759
13423W        W80206  11.766  12.931  10.485
13424W        W80207   6.043   7.488   2.257
13425W        W80208  30.593  41.777   3.385
13426W        W80209  25.750   0.950   3.659
13427W        W80210  39.871  20.488   3.606
13428W        W80211  17.953  18.943  13.388
13429W        W80212  21.687  20.018  12.574
13430W        W80213  23.579  11.745  10.708
13431W        W80214   9.975  42.528   3.690
13432W        W80215  22.203  40.431   4.099
13433W        W80216  15.590   0.852  12.071
13434W        W80217  15.535  39.466   1.229
13435W        W80218   9.844  37.567  13.460
13436W        W80219  17.464  28.607  13.473
13437W        W80220   6.705  17.164  14.823
13438W        W80221   4.678  34.976  13.793
13439W        W80222   1.728  26.738  12.545
13440W        W80223  39.085   4.193  10.161
13441W        W80224  35.432  44.421  12.089
13442W        W80225   5.144  38.478   2.022
13443W        W80226   7.853  40.114   1.719
13444W        W80227   9.638  11.638  11.004
13445W        W80228  19.246  38.798  12.960
13446W        W80229   7.622  31.496  13.897
13447W        W80230  27.879  38.448   2.490
13448W        W80231  37.457   1.309  11.621
13449W        W80232  35.821  21.046  14.712
13450W        W80233  14.276  41.259   1.800
13451W        W80234  30.621  19.411  13.776
13452W        W80235  16.010  37.875  12.017
13453W        W80236   4.638  39.241   0.429
13454W        W80237   1.122  41.940   1.320
13455W        W80238  42.433  43.624  13.019
13456W        W80239   6.851  37.849  14.530
13457W        W80240  23.650  10.429  10.149
13458W        W80241  21.049  43.056  10.651
13459W        W80242  38.502  30.421  12.905
13460W        W80243  13.651  42.970  14.037
13461W        W80244   5.155  26.470   2.710
13462W        W80245   7.608  41.080  11.141
13463W        W80246  19.258  20.565   2.073
13464W        W80247  28.502  12.708  11.668
13465W        W80248  15.143   2.292  14.713
13466W        W80249  21.057   9.437  11.180
13467W        W80250  18.038   0.744  11.435
13468W        W80251   5.750  25.077  11.393
13469W        W80252  16.827  35.063   5.124
13470W        W80253  25.085  20.013   4.810
13471W        W80254  24.522  27.146   0.320
13472W        W80255  36.046  29.848   0.493
13473W        W80256  33.817  37.136  12.443
13474W        W80257  37.478   7.046  13.771
13475W        W80258   9.714  44.737  11.538
13476W        W80259  33.837  28.143   3.333
13477W        W80260  40.742   6.359  10.655
13478W        W80261  11.829  44.268  14.486
13479W        W80262  36.412  26.475   2.644
13480W        W80263  21.527  24.044  12.108
13481W        W80264  27.770  13.183  10.702
13482W        W80265  38.493   1.382  12.644
13483W        W80266  34.143  25.551   4.697
13484W        W80267   4.458  26.011   4.312
13485W        W80268  40.479  11.821   1.874
13486W        W80269   6.341  23.548   0.995
13487W        W80270  38.407  20.165  14.741
13488W        W80271  35.170   5.006   3.179
13489W        W80272  34.551   8.937  10.278
13490W        W80273  37.138   8.886  12.451
13491W        W80274   2.597  16.804   0.682
13492W        W80275  28.007   0.784  10.626
13493W        W80276  32.506  10.366  10.556
13494W        W80277  33.525  43.343   0.853
13495W        W80278   8.287   5.457   3.278
13496W        W80279  16.121  16.838   1.694
13497W        W80280  16.949  16.049   3.228
13498W        W80281  21.429  25.530   0.185
13499W        W80282  30.027  38.455   4.113
13500W        W80283  20.726  23.881  11.210
13501W        W80284  34.447  32.582  13.935
13502W        W80285  36.937  35.425   1.766
13503W        W80286  13.290   1.432   1.505
13504W        W80287  42.913  10.895  12.938
13505W        W80288   7.616  27.044   0.965
13506W        W80289  40.970  25.643   0.863
13507W        W80290   3.461  28.194  13.488
13508W        W80291  40.913  20.731   1.179
13509W        W80292  27.434  37.082  11.621
13510W        W80293  16.480  30.096   1.233
13511W        W80294  32.097  17.352  13.714
13512W        W80295  22.184  36.680   1.771
13513W        W80296   0.630  13.009   9.787
13514W        W80297   0.342  15.451  10.697
13515W        W80298  31.544  32.071   4.932
13516W        W80299  15.572  43.593   3.409
13517W        W80300   1.336  23.153  13.702
13518W        W80301  10.440   0.645  11.133
13519W        W80302  10.688  13.328  12.041
13520W        W80303  13.539  12.564   2.077
13521W        W80304  38.047  43.796   1.066
13522W        W80305  14.709  42.488   3.770
13523W        W80306  13.693   7.285   4.683
13524W        W80307  42.813   3.766   4.244
13525W        W80308  18.249  13.805  11.617
13526W        W80309  14.591  29.211   3.383
13527W        W80310  29.349   9.706   3.626
13528W        W80311   6.394   6.437  10.769
13529W        W80312   1.614   2.755  12.627
13530W        W80313   2.080  40.810   0.588
13531W        W80314  19.138  23.718   4.643
13532W        W80315   9.219  31.028  14.484
13533W        W80316   4.648  33.889  14.736
13534W        W80317  21.312   4.935   3.806
13535W        W80318   0.428  21.252   0.859
13536W        W80319  35.309  33.467  12.456
13537W        W80320  12.701  41.033  12.038
13538W        W80321  36.460   6.919   0.449
13539W        W80322  18.057  22.178   2.108
13540W        W80323   6.686  17.501   1.467
13541W        W80324   4.157  12.062  13.470
13542W        W80325   2.723  21.131   0.579
13543W        W80326  35.523  22.365  13.594
13544W        W80327  31.210  35.815  14.957
13545W        W80328  25.132  23.707  13.109
13546W        W80329  35.589  25.512   2.695
13547W        W80330  12.409  44.318   4.130
13548W        W80331  39.609   2.383   0.044
13549W        W80332  41.770  12.370   4.639
13550W        W80333  30.546  28.422   2.761
13551W        W80334  30.489   4.177   0.922
13552W        W80335  27.768  35.709   1.403
13553W        W80336  20.284  17.013   3.222
13554W        W80337  10.175   1.099  11.127
13555W        W80338  37.883  12.268   4.771
13556W        W80339  11.125  25.144   3.341
13557W        W80340  35.463  40.589  12.375
13558W        W80341   4.439  23.515   2.126
13559W        W80342  40.349  16.640  12.428
13560W        W80343   5.870  22.664  14.904
13561W        W80344  40.260  11.277   4.065
13562W        W80345  44.030  32.464   1.272
13563W        W80346   2.017  28.263   2.420
13564W        W80347   8.574  27.956  11.105
13565W        W80348  24.082  32.620   2.421
13566W        W80349  40.439  29.878  12.833
13567W        W80350  12.341  23.095   1.536
13568W        W80351  27.612  21.181  12.209
13569W        W80352  15.076  33.906   5.577
13570W        W80353   3.822   5.127   0.083
13571W        W80354  29.618  28.906   2.771
13572W        W80355  33.990   3.376  11.746
13573W        W80356  29.734  20.119  10.627
13574W        W80357  24.615  39.815  10.888
13575W        W80358  40.840  11.430  11.155
13576W        W80359  26.975  17.926   1.531
13577W        W80360   0.289  25.054  13.801
13578W        W80361  21.478   5.006  14.054
13579W        W80362  19.308  12.133   5.272
13580W        W80363   1.157  17.765   1.386
13581W        W80364  30.398   7.910  13.900
13582W        W80365  14.185   3.402   0.621
13583W        W80366  43.173  41.347  12.992
13584W        W80367  40.010  44.462  14.342
13585W        W80368   2.801  22.087   1.430
13586W        W80369  28.944  17.527   3.402
13587W        W80370  13.640  18.567  12.293
13588W        W80371  32.002   8.925   4.323
13589W        W80372  29.901   4.812   1.842
13590W        W80373  29.437  42.854   1.908
13591W        W80374  22.489  10.352  10.682
13592W        W80375  37.969  32.411   4.817
13593W        W80376  10.064  11.324   1.810
13594W        W80377  14.757   8.174  14.048
13595W        W80378  19.319  24.624   2.850
13596W        W80379   9.896  11.515  11.432
13597W        W80380   4.147  29.743   0.655
13598W        W80381  30.789  26.633   3.601
13599W        W80382  10.622  37.817   4.649
13600W        W80383  39.068  14.285   1.191
13601W        W80384  35.999  14.788   0.278
13602W        W80385  21.196  28.521  13.436
13603W        W80386   2.954   6.212  12.172
13604W        W80387  41.343  42.183   3.712
13605W        W80388  17.262  10.848   0.471
13606W        W80389  19.682  12.068  12.530
13607W        W80390   8.364  29.033  14.275
13608W        W80391  25.710   3.777   0.469
13609W        W80392  13.293  22.803  14.386
13610W        W80393  35.144  33.598  14.593
13611W        W80394  26.876  10.316   2.497
13612W        W80395   3.715  30.422  13.427
13613W        W80396   9.976  20.940  12.173
13614W        W80397   9.227  43.007  12.550
13615W        W80398   8.847  18.657   2.806
13616W        W80399  13.847  44.348  14.023
13617W        W80400  36.988  21.807  14.692
13618W        W80401   7.250   3.815   3.233
13619W        W80402  15.776  40.951   4.531
13620W        W80403  19.681  32.192   2.520
13621W        W80404  30.991  14.190   4.149
13622W        W80405   0.756  20.947  11.583
13623W        W80406  22.041  23.359   0.836
13624W        W80407  28.110  42.230   0.654
13625W        W80408  31.090  17.551   0.050
13626W        W80409  28.057  30.181   2.203
13627W        W80410  18.813   6.866  13.274
13628W        W80411  26.668   8.899   3.684
13629W        W80412  28.011   5.545   1.401
13630W        W80413  26.222  23.077   0.803
13631W        W80414  37.493   3.455   3.183
13632W        W80415  10.849  21.565   1.722
13633W        W80416  30.004  26.458  11.447
13634W        W80417   3.338  18.245   3.286
13635W        W80418   9.200   6.969  13.044
13636W        W80419  20.615  35.614   4.154
13637W        W80420  22.348  33.510   2.661
13638W        W80421  28.904   4.046   4.159
13639W        W80422   8.297  36.418   0.819
13640W        W80423  41.665  21.061  10.279
13641W        W80424  15.638  23.375  14.859
13642W        W80425  41.859  44.518  14.034
13643W        W80426  42.815  16.170  12.131
13644W        W80427  28.037  23.177   0.458
13645W        W80428  24.470   6.941   3.702
13646W        W80429  21.787  37.979   2.885
13647W        W80430  32.654  23.577  10.463
13648W        W80431   7.898  12.269   4.548
13649W        W80432  26.219   9.798   3.665
13650W        W80433  23.371  12.332  11.535
13651W        W80434   5.437  44.492  14.352
13652W        W80435  21.106  27.187   3.774
13653W        W80436  18.402  25.799   3.758
13654W        W80437  36.815  42.880   2.371
13655W        W80438   0.212  33.154  14.024
13656W        W80439  30.536   1.954  12.860
13657W        W80440   1.148  27.687  11.079
13658W        W80441   4.817  35.635   1.219
13659W        W80442   0.070  41.392  13.324
13660W        W80443   4.199  34.094   4.262
13661W        W80444  11.144   1.836   1.921
13662W        W80445  27.317  41.816   0.931
13663W        W80446  24.397  31.932   3.292
13664W        W80447  27.384  23.998   3.259
13665W        W80448  27.274  44.929   1.669
13666W        W80449  24.790   4.269   3.857
13667W        W80450   2.958  25.181   2.707
13668W        W80451  34.865  35.060   3.166
13669W        W80452   7.069  12.163  12.432
13670W        W80453  36.758  19.292  12.634
13671W        W80454  13.105  11.412   0.863
13672W        W80455  20.123  27.538   3.520
13673W        W80456  14.157   5.853  11.842
13674W        W80457  33.464  12.472   3.710
13675W        W80458  42.575   7.094   3.233
13676W        W80459  41.379  26.737   1.746
13677W        W80460  44.861  10.333   3.942
13678W        W80461  33.211  17.445   2.337
13679W        W80462   8.815  18.161   3.079
13680W        W80463  12.339  33.519   4.147
13681W        W80464  19.226  16.785   0.290
13682W        W80465  36.789  38.482  12.534
13683W        W80466  44.527   7.840   1.065
13684W        W80467  20.139  19.945   5.049
13685W        W80468  31.057  15.567   4.626
13686W        W80469  30.912   5.642   0.311
13687W        W80470  25.704  31.537   0.404
13688W        W80471  26.448  21.710  11.541
13689W        W80472  10.518  39.062  11.950
13690W        W80473  41.185   2.925  12.943
13691W        W80474  12.365  17.491   1.901
13692W        W80475   3.163   3.970  13.879
13693W        W80476  34.892  21.180  14.081
13694W        W80477  36.507  19.672   3.993
13695W        W80478   2.467  25.087   1.444
13696W        W80479  42.755  22.765   2.278
13697W        W80480  15.326  43.698  14.887
13698W        W80481  24.039   8.672   2.724
13699W        W80482  30.842  15.880  10.977
13700W        W80483  20.574   9.166  13.530
13701W        W80484  15.651  25.761  11.083
13702W        W80485  28.634  23.133  14.762
13703W        W80486  10.257  12.978  11.872
13704W        W80487   7.219  41.210  12.266
13705W        W80488  38.037  32.384   2.772
13706W        W80489  23.936   5.950  14.384
13707W        W80490  38.824  22.219  11.660
13708W        W80491  27.995   7.896  14.725
13709W        W80492  31.135   7.092   4.127
13710W        W80493  12.431  42.767  10.952
13711W        W80494  12.679  21.276  11.043
13712W        W80495  27.499   9.358   3.773
13713W        W80496  20.133  23.943  13.510
13714W        W80497  37.442  17.781   1.932
13715W        W80498   5.348  43.174  14.902
13716W        W80499  43.539  17.129  10.604
13717W        W80500   2.350  44.765   3.319
13718W        W80501  19.989  37.448  10.869
13719W        W80502   6.044  28.123   0.482
13720W        W80503  42.859  22.013   0.382
13721W        W80504  38.783  39.958   2.836
13722W        W80505  29.368  27.706   1.229
13723W        W80506  17.275  25.593   2.882
13724W        W80507  25.697  42.786  14.174
13725W        W80508  12.822   5.201   2.068
13726W        W80509  41.310   0.864   4.175
13727W        W80510  26.901  39.941   3.656
13728W        W80511  25.165   4.755   1.825
13729W        W80512  15.157  38.940  11.150
13730W        W80513  19.059  13.700  11.134
13731W        W80514   9.802  19.291  13.834
13732W        W80515  24.950   8.363  12.585
13733W        W80516  20.042  26.564  13.333
13734W        W80517  20.763   1.965   1.383
13735W        W80518  21.086  42.647  14.545
13736W        W80519   0.357  27.415   0.744
13737W        W80520  13.670  14.316   2.224
13738W        W80521  42.722   1.230  14.339
13739W        W80522   2.329  41.775   3.129
13740W        W80523   4.807  31.102  14.932
13741W        W80524  25.010  24.208  12.737
13742W        W80525  14.872  19.964  12.062
13743W        W80526   0.797  14.357  13.547
13744W        W80527   5.800  31.507  13.731
13745W        W80528  26.119  16.046   0.497
13746W        W80529  15.454  26.946  13.477
13747W        W80530  10.867  18.645  12.575
13748W        W80531  13.868  35.050   1.164
13749W        W80532   8.817  35.095  13.454
13750W        W80533  15.786  12.729  14.554
13751W        W80534  19.208  14.213  13.836
13752W        W80535   1.516  37.863  14.488
13753W        W80536  13.832  16.513   2.567
13754W        W80537   8.260  40.268   3.623
13755W        W80538  31.473   5.915   1.831
13756W        W80539   7.225  21.254   3.975
13757W        W80540  12.088  16.174   1.250
13758W        W80541  27.351  12.717  13.464
13759W        W80542  30.001   7.395   1.336
13760W        W80543  12.866   7.777  12.872
13761W        W80544  12.578  10.082  12.881
13762W        W80545  43.014  28.405  13.516
13763W        W80546   0.372  30.683   2.207
13764W        W80547  40.398  23.250   0.874
13765W        W80548  10.842   8.852   2.684
13766W        W80549   1.405  40.923  11.980
13767W        W80550  38.323   8.279  13.010
13768W        W80551  35.607  31.397  13.544
13769W        W80552  40.910  22.499  12.207
13770W        W80553  37.629  13.699  10.749
13771W        W80554  43.376   6.194   1.818
13772W        W80555  43.746  10.807   3.355
13773W        W80556  31.407  37.406  11.565
13774W        W80557  17.995  20.659  14.007
13775W        W80558  23.388   5.388  13.029
13776W        W80559   8.222   8.905  12.380
13777W        W80560  20.915  18.111   0.517
13778W        W80561  33.974  41.447  10.693
13779W        W80562  16.065   8.900   2.414
13780W        W80563  44.995  25.169  12.599
13781W        W80564  41.284   0.635   0.258
13782W        W80565  38.364  36.344   1.737
13783W        W80566  42.428  38.026  13.955
13784W        W80567   5.318   6.584   4.075
13785W        W80568   6.977   0.265   2.102
13786W        W80569  37.666  40.305  11.501
13787W        W80570  42.389  24.974   4.625
13788W        W80571  39.506   1.070   1.162
13789W        W80572  15.139   4.646   3.204
13790W        W80573  30.242  28.065  13.450
13791W        W80574  42.239   7.134  12.306
13792W        W80575  25.035  16.908  11.695
13793W        W80576  11.208  40.987   4.223
13794W        W80577   4.961  31.356   2.287
13795W        W80578  17.582  33.808   1.791
13796W        W80579  42.604  41.519   2.732
13797W        W80580  30.401  24.259  12.910
13798W        W80581  35.544  16.706   0.399
13799W        W80582  41.095  14.601  12.321
13800W        W80583   0.392  35.270   2.179
13801W        W80584  42.372  41.460  14.299
13802W        W80585  11.105  33.356   1.251
13803W        W80586   2.890   8.684   1.429
13804W        W80587  28.481  35.568  11.271
13805W        W80588  23.841  18.167   5.091
13806W        W80589  20.275  33.134   3.292
13807W        W80590  39.887  43.932  10.703
13808W        W80591  44.914  27.731   1.866
13809W        W80592   0.092   3.190   2.237
13810W        W80593  24.757  42.275  13.490
13811W        W80594  34.578  15.319  13.724
13812W        W80595  36.075  18.133  12.596
13813W        W80596  19.186  18.749  13.598
13814W        W80597  24.077  29.369  11.873
13815W        W80598  38.093  19.760  14.350
13816W        W80599  17.948  27.781  11.151
13817W        W80600  11.888  40.804  12.770
13818W        W80601  11.940  25.775  11.606
13819W        W80602  27.129  39.609  13.411
13820W        W80603   9.183   8.459  14.171
13821W        W80604  11.808  26.408  12.876
13822W        W80605  18.149  43.257  10.698
13823W        W80606  43.798   9.266  13.111
13824W        W80607  18.171  23.467  10.670
13825W        W80608  33.571  33.199  11.482
13826W        W80609  15.923   5.211  11.516
13827W        W80610  10.058  17.726  12.978
13828W        W80611   1.340  22.284  11.132
13829W        W80612  41.290  39.546  12.810
13830W        W80613  20.003  41.002   2.785
13831W        W80614  44.352  44.323  12.173
13832W        W80615  35.094  20.795  12.885
13833W        W80616  34.878  21.922  12.399
13834W        W80617  39.098  41.230   1.841
13835W        W80618  15.630  30.604  14.916
13836W        W80619  32.919  14.175  13.073
13837W        W80620  43.814  28.960  12.382
13838W        W80621  28.183  26.976  12.570
13839W        W80622  11.568  43.422  14.324
13840W        W80623  35.379   5.012  14.856
13841W        W80624  16.613  24.942   3.798
13842W        W80625  40.071  20.203  14.365
13843W        W80626  34.862  16.986   2.844
13844W        W80627  38.853  22.070  10.274
13845W        W80628  30.862  17.270   1.278
13846W        W80629   9.721  39.895  13.190
13847W        W80630  13.823  42.798  12.497
13848W        W80631  15.467   6.157  12.633
13849W        W80632  36.595  32.817  12.544
13850W        W80633  42.024  31.849  14.519
13851W        W80634  33.173  19.890  14.992
13852W        W80635  19.156  44.044  11.196
13853W        W80636   4.913  44.843  12.040
13854W        W80637  35.084  32.351  11.555
13855W        W80638  30.649  42.324  10.888
13856W        W80639  24.236   6.393   2.390
13857W        W80640  11.874   2.075   4.489
13858W        W80641   9.548  39.051  13.840
13859W        W80642  44.954   4.666   1.085
13860W        W80643  12.507  34.405  12.075
13861W        W80644  33.213  17.759  10.870
13862W        W80645  13.708  19.515  12.455
13863W        W80646  22.937  21.130   0.933
13864W        W80647  44.941  18.807  13.411
13865W        W80648  20.264  31.415  14.396
13866W        W80649   4.880   5.471  11.222
13867W        W80650   1.272   7.331  13.527
13868W        W80651  11.732  23.675   4.234
13869W        W80652  42.622  22.051   3.072
13870W        W80653   6.653  41.830  14.061
13871W        W80654  22.040  30.145   4.236
13872W        W80655  17.791   4.150  11.965
13873W        W80656  13.614   5.094   4.081
13874W        W80657  32.863  34.641  13.719
13875W        W80658  13.377   7.629   3.705
13876W        W80659  43.725   7.229  12.142
13877W        W80660   2.741   3.270  11.584
13878W        W80661  40.458   4.633   2.386
13879W        W80662  42.472  32.410  10.269
13880W        W80663   8.949  38.703  12.965
13881W        W80664  42.876  28.373  11.595
13882W        W80665  14.843  26.226   3.262
13883W        W80666   1.684  16.275  12.534
13884W        W80667   6.029   6.783   1.386
13885W        W80668  33.011   2.358  11.389
13886W        W80669  29.559  23.192   3.721
13887W        W80670  38.872   3.533   1.334
13888W        W80671  23.266  31.728   0.394
13889W        W80672  11.469  26.001   4.981
13890W        W80673  41.276   3.495   3.743
13891W        W80674   7.622   1.938  12.596
13892W        W80675  36.147  23.609  12.414
13893W        W80676  35.347  20.371   5.424
13894W        W80677   8.929  29.446  12.597
13895W        W80678  34.278   6.281  12.470
13896W        W80679  35.051  37.647  14.485
13897W        W80680  21.057  33.894  12.576
13898W        W80681   9.259   3.502   2.301
13899W        W80682  16.152   6.970  11.509
13900W        W80683  26.438   9.184  11.417
13901W        W80684  37.551  30.958  11.659
13902W        W80685  42.280  35.432  14.554
13903W        W80686  26.177  27.514   1.792
13904W        W80687  32.664  10.058  12.453
13905W        W80688  35.606   8.701  13.514
13906W        W80689  44.113  43.802   4.074
13907W        W80690  22.885  34.678   0.745
13908W        W80691   0.077  22.960   2.857
13909W        W80692  19.437   4.138   5.095
13910W        W80693   3.751  14.634  13.378
13911W        W80694  22.706  10.833  12.954
13912W        W80695   1.562  30.780  14.805
13913W        W80696  21.538  15.166   4.285
13914W        W80697  33.948  12.290  12.608
13915W        W80698  10.380  26.349   5.079
13916W        W80699   7.917  12.462   4.068
13917W        W80700  35.474  12.527  13.839
13918W        W80701   0.858  42.041   1.733
13919W        W80702   7.841  42.520  13.944
13920W        W80703  17.176  19.234  12.495
13921W        W80704  11.000  37.050   1.104
13922W        W80705  25.981  12.722  14.737
13923W        W80706   1.805   9.559   1.290
13924W        W80707   7.932  15.220   3.059
13925W        W80708  41.546  31.171  11.950
13926W        W80709   9.489  39.049  11.990
13927W        W80710  32.632   7.139  11.619
13928W        W80711  15.603  37.919   4.853
13929W        W80712   2.890  23.173   4.350
13930W        W80713  13.340  19.908  12.435
13931W        W80714  26.545  32.527  10.819
13932W        W80715   3.160  22.202   0.905
13933W        W80716  36.618  44.814   4.642
13934W        W80717  21.126  29.943  12.851
13935W        W80718  34.465  35.750  10.866
13936W        W80719  29.440  16.270  13.074
13937W        W80720  35.284  39.629   1.859
13938W        W80721  27.480  39.212  11.124
13939W        W80722  42.758   7.827   1.374
13940W        W80723   2.490  23.148   0.851
13941W        W80724   6.654   9.134  11.914
13942W        W80725  20.602   6.443   3.809
13943W        W80726   6.728   0.742   0.949
13944W        W80727   5.225  41.080  10.746
13945W        W80728  41.052  22.449  13.662
13946W        W80729  36.291  14.838   4.891
13947W        W80730  34.156  10.950  12.982
13948W        W80731  22.250  25.460   0.788
13949W        W80732  14.174   3.056  12.906
13950W        W80733   9.609  41.541  14.573
13951W        W80734   8.606  31.047  10.669
13952W        W80735  36.246  27.170  14.618
13953W        W80736  41.747  31.034  14.330
13954W        W80737  15.640  26.733   2.247
13955W        W80738  21.516  10.936  12.084
13956W        W80739  20.968   5.124  14.044
13957W        W80740   5.081  37.216  10.797
13958W        W80741  11.672  12.416  10.522
13959W        W80742  21.189   4.414   0.247
13960W        W80743  36.128  41.912   4.271
13961W        W80744  28.724   1.246  13.862
13962W        W80745  21.112  25.770  14.821
13963W        W80746  12.529  11.204  13.716
13964W        W80747  16.728  37.927  11.486
13965W        W80748  20.569   9.647  10.772
13966W        W80749  34.535  19.967  13.745
13967W        W80750  39.329  18.411  11.154
13968W        W80751   3.957  29.545   4.945
13969W        W80752  15.570   6.668   4.837
13970W        W80753   7.901  36.542  14.124
13971W        W80754  37.563  41.303   3.498
13972W        W80755  11.008  33.588  10.315
13973W        W80756  38.746  39.867  13.444
13974W        W80757  36.636   2.084  12.462
13975W        W80758  33.411  12.088  14.849
13976W        W80759   8.214  40.441   3.102
13977W        W80760  23.107  26.459  11.729
13978W        W80761   9.903  37.500  12.400
13979W        W80762  28.005  16.039  11.858
13980W        W80763  35.143  12.795   4.660
13981W        W80764  43.239   4.160   0.316
13982W        W80765  29.481  25.482   1.694
13983W        W80766  33.540  26.567   4.344
13984W        W80767  44.403  34.857   0.807
13985W        W80768   2.791  29.597   1.958
13986W        W80769   0.373  36.354   1.285
13987W        W80770   9.897  10.764   3.582
13988W        W80771  36.017  12.192   0.201
13989W        W80772  38.846  14.221   4.472
13990W        W80773  24.120  42.054   1.366
13991W        W80774   0.766   8.750  13.912
13992W        W80775  25.677   3.817   5.001
13993W        W80776  15.379  26.597   4.319
13994W        W80777  18.714  32.532   2.806
13995W        W80778  12.516  14.864   3.297
13996W        W80779   0.417   0.471  14.407
13997W        W80780   5.683  35.894  12.287
13998W        W80781  29.648  28.042  12.350
13999W        W80782  26.123  13.573  11.136
14000W        W80783  14.858  22.656   4.844
14001W        W80784  30.991  23.560   0.870
14002W        W80785   3.399   4.468   0.742
14003W        W80786  32.726  36.020  14.129
14004W        W80787  17.290  43.272  14.375
14005W        W80788  33.080  41.955  10.718
14006W        W80789  32.976  23.987  10.604
14007W        W80790  41.869  30.540  14.986
14008W        W80791  15.220  19.594   3.244
14009W        W80792   2.265   0.379  14.989
14010W        W80793  23.893   9.273   4.712
14011W        W80794  16.529  14.882  13.401
14012W        W80795  43.986  26.735   0.206
14013W        W80796  15.202  16.823  11.029
14014W        W80797  22.505   1.153   3.861
14015W        W80798  22.036  37.897   0.003
14016W        W80799  36.960  12.629  10.788
14017W        W80800  11.483  29.933  11.101
14018W        W80801   1.860  34.061   3.214
14019W        W80802  31.437   6.523  11.551
14020W        W80803  18.733   1.032  11.047
14021W        W80804  14.717  32.728   2.476
14022W        W80805   6.508  28.568  12.144
14023W        W80806   2.256  26.553   5.045
14024W        W80807   5.613  37.545  14.184
14025W        W80808  29.625  33.871  10.729
14026W        W80809   2.412  19.617   1.768
14027W        W80810   6.195  28.523  13.973
14028W        W80811  12.922  12.852  11.111
14029W        W80812   6.148  34.657  11.706
14030W        W80813  18.086   3.902  11.168
14031W        W80814   3.832  16.392   1.029
14032W        W80815  11.814   3.432   2.830
14033W        W80816  10.191  22.355  14.353
14034W        W80817   0.515  41.960   4.561
14035W        W80818  29.386  22.650   3.039
14036W        W80819   4.095  10.313  12.022
14037W        W80820  20.220   6.549   4.140
14038W        W80821  18.270  22.899   1.424
14039W        W80822   3.138  22.102   3.639
14040W        W80823  16.169  11.745   1.918
14041W        W80824   8.369  26.762   0.141
14042W        W80825   8.255  22.298   0.778
14043W        W80826  17.618  28.187  11.143
14044W        W80827   6.144  40.965   2.397
14045W        W80828  27.684  30.413   3.258
14046W        W80829  21.210  39.364   2.381
14047W        W80830  30.402  16.115   2.713
14048W        W80831  37.105  37.495   1.415
14049W        W80832  43.303  39.045  12.510
14050W        W80833  32.545  36.001  14.971
14051W        W80834  32.397   9.788   1.927
14052W        W80835  41.197  19.981   4.257
14053W        W80836  19.597  19.183  13.170
14054W        W80837   6.945  11.187  14.429
14055W        W80838   9.847  15.857   0.382
14056W        W80839  16.234  11.907  13.527
14057W        W80840   8.197  11.337   2.020
14058W        W80841  28.965  14.817   4.248
14059W        W80842  21.774   9.909  14.398
14060W        W80843  32.916  10.313   3.187
14061W        W80844  19.738  21.652   1.771
14062W        W80845  15.391  22.232   1.298
14063W        W80846  14.313   9.782   4.394
14064W        W80847  42.023  23.825  10.262
14065W        W80848  42.578  28.051  14.867
14066W        W80849  44.960  41.847  13.573
14067W        W80850  23.039   7.709  13.849
14068W        W80851  35.026  23.246   4.094
14069W        W80852  20.981  15.697  14.827
14070W        W80853  26.901  10.625  14.894
14071W        W80854  17.591  29.859   1.931
14072W        W80855  21.127  19.531  13.458
14073W        W80856   0.800  32.044   3.145
14074W        W80857  43.384  28.139  13.835
14075W        W80858  12.889   2.400   3.202
14076W        W80859  19.833  13.513   2.885
14077W        W80860  26.948  17.018   2.688
14078W        W80861  41.866  20.627   3.172
14079W        W80862  21.390  20.889   9.814
14080W        W80863  32.077  30.646   4.119
14081W        W80864  34.114  27.981   3.738
14082W        W80865  20.051  20.341  11.942
14083W        W80866  39.248  37.640  10.466
14084W        W80867  30.057   2.744  14.926
14085W        W80868  40.501  34.856  13.469
14086W        W80869   6.939  19.230  11.245
14087W        W80870  42.497  19.246   1.667
14088W        W80871  21.752   9.122  12.465
14089W        W80872  38.727  14.728   1.262
14090W        W80873   9.295  18.974   3.086
14091W        W80874  30.585  16.342   2.273
14092W        W80875  10.607  19.673  12.974
14093W        W80876  13.155  11.416  12.912
14094W        W80877   2.923  20.580  11.992
14095W        W80878  32.658  31.407  14.513
14096W        W80879  14.809  16.908   1.241
14097W        W80880   3.680  18.141   4.620
14098W        W80881  42.072  36.446   4.182
14099W        W80882  10.826   5.285   1.353
14100W        W80883  17.169  43.053   1.879
14101W        W80884  42.862  43.109   1.084
14102W        W80885  37.842  12.005  11.600
14103W        W80886  44.605  29.955   3.857
14104W        W80887  28.994  19.619   3.599
14105W        W80888  25.297  16.550   5.105
14106W        W80889  25.955  18.660  12.528
14107W        W80890  25.097  21.637   0.652
14108W        W80891  16.162   4.305   4.617
14109W        W80892   2.829   7.139   0.385
14110W        W80893  10.425   9.894   3.615
14111W        W80894   3.461   5.251   2.686
14112W        W80895  26.241  15.886  12.487
14113W        W80896  30.947  29.964  12.418
14114W        W80897  30.588   7.891   3.358
14115W        W80898  12.179  11.917  14.435
14116W        W80899  35.324  31.438  11.657
14117W        W80900  44.652   1.609   3.654
14118W        W80901  11.837  34.495   3.320
14119W        W80902  42.300  14.624  14.974
14120W        W80903   9.555   8.803   5.097
14121W        W80904  33.994  19.224  11.077
14122W        W80905  22.520  29.637   2.880
14123W        W80906   8.936  30.940   3.373
14124W        W80907  23.035  29.350  14.243
14125W        W80908  44.404  36.119  14.427
14126W        W80909  31.576   4.978  13.832
14127W        W80910   3.894   0.102   1.899
14128W        W80911  12.724   0.962   3.345
14129W        W80912  34.823   9.156  10.691
14130W        W80913  30.874  28.553   1.425
14131W        W80914   2.387  39.624   4.130
14132W        W80915   4.189  35.477  12.003
14133W        W80916  21.968  40.914  12.965
14134W        W80917  44.352  30.907  11.472
14135W        W80918   7.862   6.637  12.055
14136W        W80919   6.721  13.403  10.463
14137W        W80920  37.457  19.225  11.955
14138W        W80921  24.804  33.790  10.814
14139W        W80922   2.016  42.513  12.025
14140W        W80923  15.559  10.309  11.746
14141W        W80924   6.212   0.375   3.278
14142W        W80925  31.157  41.287  13.880
14143W        W80926  44.538   3.187  13.521
14144W        W80927   3.797   3.371   0.746
14145W        W80928  35.566  14.907   4.212
14146W        W80929  11.618  18.579  14.791
14147W        W80930  34.884  41.909  14.908
14148W        W80931  41.439   3.385  13.007
14149W        W80932  39.743  41.196  11.109
14150W        W80933  13.324   3.004   4.509
14151W        W80934  27.188  16.289   3.088
14152W        W80935  25.037  23.272  12.860
14153W        W80936  38.288  30.029  11.629
14154W        W80937   0.784   9.893  10.968
14155W        W80938  25.102   9.170   4.014
14156W        W80939  30.134  20.798   5.360
14157W        W80940  32.811  38.461   4.831
14158W        W80941   9.096  36.847   0.797
14159W        W80942  38.581   9.865   0.689
14160W        W80943   1.357  28.998  10.442
14161W        W80944  31.124  18.651   0.270
14162W        W80945   0.885  14.256   4.358
14163W        W80946  14.306  22.633   2.193
14164W        W80947   7.006  37.826   0.927
14165W        W80948  44.009  43.336   4.479
14166W        W80949  40.417  17.165  12.576
14167W        W80950  12.431  30.146   0.410
14168W        W80951  32.417  29.400   2.675
14169W        W80952  44.518  14.043  11.060
14170W        W80953  42.539  13.678   1.534
14171W        W80954  16.567   1.259   2.062
14172W        W80955  35.613  38.070   4.496
14173W        W80956  17.493  11.180   4.837
14174W        W80957  14.259  35.019   2.147
14175W        W80958  26.398  32.615   1.327
14176W        W80959  39.031  13.102   1.632
14177W        W80960  33.580   8.467   1.216
14178W        W80961  15.753  43.053  11.567
14179W        W80962  20.599  11.244  11.984
14180W        W80963   1.457  40.970   2.254
14181W        W80964  19.573   7.129   2.099
14182W        W80965  22.635  38.884   4.278
14183W        W80966  37.417  22.246  14.456
14184W        W80967   8.484   9.304  11.583
14185W        W80968  33.122  25.423   2.883
14186W        W80969  39.556  29.857   2.264
14187W        W80970  29.641  36.389   4.660
14188W        W80971   4.153  26.043   1.313
14189W        W80972   8.282  22.726  14.753
14190W        W80973  10.567  25.456  11.557
14191W        W80974  37.870  20.399  13.767
14192W        W80975  28.930  18.386  13.308
14193W        W80976  19.527  16.709   3.232
14194W        W80977   5.465  33.615  10.798
14195W        W80978  18.028  41.315   4.122
14196W        W80979  11.678   2.339  14.507
14197W        W80980  23.376  12.317  10.678
14198W        W80981  20.856  27.919   0.287
14199W        W80982  38.038   7.898   1.413
14200W        W80983  19.954  29.140  11.473
14201W        W80984  30.139  42.898  13.308
14202W        W80985  37.875  43.079   3.474
14203W        W80986  33.447  16.771   3.841
14204W        W80987  31.603  35.959   1.961
14205W        W80988   2.489  28.030  14.436
14206W        W80989  14.224  26.435   4.558
14207W        W80990  41.595   0.858  10.648
14208W        W80991  29.733  18.893  11.208
14209W        W80992   0.107  13.667  10.286
14210W        W80993  39.968  10.341  13.888
14211W        W80994  39.870  37.472   3.687
14212W        W80995  41.927   3.219  10.403
14213W        W80996  22.255  26.971  11.520
14214W        W80997  35.410  33.679   3.774
14215W        W80998  12.357  34.927   3.969
14216W        W80999  13.051  34.492   2.661
14217W        W81000  29.438  42.339   2.125
14218W        W81001  37.329  24.280  10.988
14219W        W81002  23.759  32.193   1.531
14220W        W81003  26.524   9.588  14.896
14221W        W81004   6.189   4.438  10.387
14222W        W81005  22.082  29.412   3.063
14223W        W81006   1.331  39.446  13.950
14224W        W81007   7.784  18.769  12.090
14225W        W81008  10.735   8.625  11.841
14226W        W81009  44.129   8.662  13.337
14227W        W81010  44.075  29.911  12.370
14228W        W81011  31.415  37.517   3.300
14229W        W81012  40.064  11.861  12.547
14230W        W81013   2.661   0.241   3.537
14231W        W81014   0.381  37.284  13.931
14232W        W81015  32.527  31.933   0.931
14233W        W81016  14.177   6.254   2.651
14234W        W81017   1.037  24.193  12.992
14235W        W81018  22.167   4.543  14.386
14236W        W81019  36.449  20.316   0.217
14237W        W81020  20.743   4.933   4.531
14238W        W81021   3.389  39.281  12.000
14239W        W81022  42.685  39.376  11.532
14240W        W81023  37.611   4.274  11.625
14241W        W81024  30.137  25.271  12.120
14242W        W81025   1.530  31.130  12.129
14243W        W81026  44.950  17.690   3.345
14244W        W81027  34.374   1.193  13.005
14245W        W81028  16.103   9.615  12.408
14246W        W81029  35.328  39.449  14.768
14247W        W81030  23.759   7.932  11.544
14248W        W81031  31.871   2.799   3.148
14249W        W81032  11.834  13.733  14.486
14250W        W81033  23.074   1.609  10.635
14251W        W81034  25.655   0.807  11.118
14252W        W81035  24.278  19.584  10.880
14253W        W81036  18.057  21.246   4.469
14254W        W81037  31.658   7.438  11.647
14255W        W81038   6.258   5.694  12.499
14256W        W81039   2.015  10.197   0.296
14257W        W81040  43.378  36.045  13.898
14258W        W81041  25.213  13.868  11.659
14259W        W81042   1.762  26.440  14.304
14260W        W81043  37.327  22.774   0.385
14261W        W81044  12.013  25.947  12.067
14262W        W81045  37.788  38.365   2.792
14263W        W81046  17.286  30.015  12.963
14264W        W81047   6.287   5.860  13.787
14265W        W81048  22.207   6.015   3.655
14266W        W81049  35.534  19.175  13.482
14267W        W81050   6.980  28.631  13.872
14268W        W81051  38.376  25.942   2.898
14269W        W81052  43.932  24.941  14.889
14270W        W81053  37.103   5.912  12.417
14271W        W81054  18.842  29.642   1.603
14272W        W81055  21.342  24.746  12.416
14273W        W81056  13.117  37.450   3.673
14274W        W81057  12.643  16.504   3.727
14275W        W81058  43.720  30.515   0.989
14276W        W81059  38.046  39.591   1.772
14277W        W81060  40.710  37.497   4.088
14278W        W81061  13.747  10.651  11.664
14279W        W81062   7.948   4.917  12.024
14280W        W81063   1.712  13.733  12.917
14281W        W81064  37.468  13.807  14.436
14282W        W81065   3.000   5.877  14.258
14283W        W81066  11.841  33.174   2.604
14284W        W81067  44.273  41.758   0.409
14285W        W81068  13.770   3.832   4.926
14286W        W81069  15.267  38.926   5.150
14287W        W81070  29.412  14.931   3.534
14288W        W81071  19.773  24.090  14.329
14289W        W81072   9.629  11.600   4.121
14290W        W81073  28.190  11.612  14.661
14291W        W81074   4.262   5.263  10.959
14292W        W81075  17.995  17.221   4.533
14293W        W81076  23.052  25.289   2.802
14294W        W81077   6.942  10.852   1.231
14295W        W81078  22.964   7.580  13.364
14296W        W81079  40.450  30.842   2.311
14297W        W81080  26.612  27.627  11.643
14298W        W81081  13.611   4.818   3.224
14299W        W81082  33.454  13.697  11.026
14300W        W81083   9.250  12.138  11.429
14301W        W81084  17.776  14.324  13.365
14302W        W81085  22.757  22.595  13.428
14303W        W81086  11.788  16.680  14.753
14304W        W81087  26.699  41.407   3.101
14305W        W81088  38.522  10.601   2.445
14306W        W81089  19.694  38.339  12.161
14307W        W81090  25.522  28.575  14.874
14308W        W81091   7.232  20.008   3.436
14309W        W81092  36.391  24.936   5.029
14310W        W81093   3.789   5.752  10.428
14311W        W81094  24.928  26.999   4.115
14312W        W81095  40.915  25.609  13.568
14313W        W81096   5.527   7.602  11.065
14314W        W81097   2.219  36.935   1.882
14315W        W81098   7.783   4.914  13.785
14316W        W81099  11.816   4.959  10.158
14317W        W81100  29.227  43.475  12.495
14318W        W81101  44.368  43.054   2.404
14319W        W81102  43.258   0.843  11.506
14320W        W81103  36.023  44.847   0.838
14321W        W81104  24.783  13.777  13.020
14322W        W81105  40.722  35.362  13.489
14323W        W81106  30.722  28.961  10.501
14324W        W81107  13.199   7.484   5.518
14325W        W81108  34.389  22.219  13.696
14326W        W81109  23.717  20.115  11.116
14327W        W81110  29.931  12.723   2.177
14328W        W81111  34.452  35.579   3.793
14329W        W81112  13.069  25.416  13.979
14330W        W81113  10.404  44.337   2.345
14331W        W81114  39.401   5.135   4.776
14332W        W81115   3.392  32.017   2.822
14333W        W81116  39.593  31.625   3.049
14334W        W81117  18.936  42.362   4.818
14335W        W81118  27.489   3.541   2.154
14336W        W81119  29.232  10.556  13.458
14337W        W81120  28.280  14.380  14.968
14338W        W81121  38.893  41.061  14.142
14339W        W81122  22.230  25.023   3.905
14340W        W81123  27.455  44.198  12.022
14341W        W81124  41.438  39.755   0.041
14342W        W81125   2.391   7.299  14.807
14343W        W81126  19.591  27.480   1.751
14344W        W81127  42.398  12.626   2.291
14345W        W81128  18.843  18.287   1.280
14346W        W81129  36.803  32.285   4.812
14347W        W81130   4.530  36.684   4.082
14348W        W81131  17.146  22.131   1.225
14349W        W81132  31.928  38.579   3.828
14350W        W81133   9.511  23.558  14.877
14351W        W81134  33.160  12.308  14.002
14352W        W81135  22.136  43.532  14.720
14353W        W81136  24.199   4.299  11.815
14354W        W81137  44.584  35.027   3.182
14355W        W81138  18.758   6.667  12.814
14356W        W81139  23.076  37.235   3.879
14357W        W81140  44.341  25.787  12.017
14358W        W81141  31.448  11.802   4.896
14359W        W81142  22.170   0.755   1.839
14360W        W81143   0.729  38.855  13.485
14361W        W81144  21.692   4.522  14.048
14362W        W81145  38.426  24.079  11.575
14363W        W81146   1.698  40.634  12.353
14364W        W81147   6.797  34.584  10.643
14365W        W81148  37.580   0.673  10.932
14366W        W81149  13.826  44.374   4.515
14367W        W81150   6.223   3.106   3.554
14368W        W81151  15.816  20.560  10.637
14369W        W81152  21.557  17.047  13.763
14370W        W81153   4.875   1.394   2.824
14371W        W81154  42.057   6.291  14.917
14372W        W81155  29.470  22.261   2.138
14373W        W81156  18.085   2.838  12.957
14374W        W81157   5.892  40.030  13.587
14375W        W81158   7.783  38.958  14.533
14376W        W81159  39.613  22.504  11.225
14377W        W81160   6.598  30.982   3.507
14378W        W81161  27.611  14.035  12.519
14379W        W81162   1.626   6.112   0.576
14380W        W81163  41.343   2.471   4.035
14381W        W81164   8.233  11.538  14.727
14382W        W81165  12.830  26.968   3.092
14383W        W81166  37.970  13.261  10.589
14384W        W81167   9.265  23.170  13.649
14385W        W81168  21.542   2.685  14.258
14386W        W81169  36.938  10.058   0.375
14387W        W81170  38.826   0.975  12.106
14388W        W81171  11.833  43.356  11.660
14389W        W81172  20.052  22.244   4.204
14390W        W81173  38.536   2.974   3.530
14391W        W81174  30.919  19.510  12.400
14392W        W81175  39.799   9.456   2.742
14393W        W81176  12.771  31.423  11.460
14394W        W81177  37.284  36.623  12.994
14395W        W81178  22.074  42.626  13.718
14396W        W81179   4.491  30.952  11.989
14397W        W81180  28.639   2.916   3.187
14398W        W81181   8.895  21.430   4.521
14399W        W81182  23.768  24.712   0.358
14400W        W81183  17.265  43.689  13.488
14401W        W81184  22.301   8.909  13.956
14402W        W81185  12.833   3.044   4.649
14403W        W81186  24.547   7.564  10.990
14404W        W81187   1.404  37.291   3.329
14405W        W81188  19.786  22.575  12.951
14406W        W81189  34.337  36.402   2.928
14407W        W81190  11.661  26.940   1.178
14408W        W81191   0.117  40.453  11.790
14409W        W81192  26.692   6.455   3.179
14410W        W81193  15.126  27.939   4.531
14411W        W81194  14.917  10.712   4.718
14412W        W81195  24.331  16.333  11.109
14413W        W81196  15.666  17.147   0.993
14414W        W81197  43.910  29.546  11.568
14415W        W81198  26.436  13.045   1.915
14416W        W81199  30.719  39.221   2.273
14417W        W81200  26.248   2.562   2.047
14418W        W81201  38.132  29.625  13.907
14419W        W81202  27.324   0.284  10.835
14420W        W81203  41.370  39.573  10.725
14421W        W81204  15.535  12.839   4.163
14422W        W81205  24.127  36.059   0.906
14423W        W81206  28.859  11.148  12.336
14424W        W81207   8.864   7.976   3.167
14425W        W81208   9.889   9.808   2.701
14426W        W81209   0.443  15.598   4.250
14427W        W81210  36.336  43.231   3.686
14428W        W81211  37.455   5.741  11.192
14429W        W81212  44.396  33.333  12.472
14430W        W81213  34.852   8.969   9.867
14431W        W81214   2.336  23.776   1.412
14432W        W81215  38.390  17.641  13.079
14433W        W81216   7.290  24.184   3.395
14434W        W81217   9.513  25.075   1.232
14435W        W81218  41.310  19.982   1.307
14436W        W81219  13.372   7.772  12.890
14437W        W81220  26.672  39.235   4.183
14438W        W81221   2.459  19.913  10.351
14439W        W81222  37.416  33.995   0.304
14440W        W81223  13.383  22.921   5.058
14441W        W81224  25.462  25.102   2.903
14442W        W81225  19.497  23.252   1.919
14443W        W81226   5.416  10.626   2.281
14444W        W81227  15.588  21.981  12.434
14445W        W81228  40.457  38.242   2.845
14446W        W81229  25.116   5.225  12.377
14447W        W81230  14.491  34.589  11.595
14448W        W81231  14.819  24.014  11.973
14449W        W81232  42.756  26.072  13.416
14450W        W81233  28.106  36.073   3.665
14451W        W81234  40.101  12.643   2.265
14452W        W81235  13.101  12.751   2.378
14453W        W81236  43.055  30.123   3.347
14454W        W81237   7.784   7.697  13.211
14455W        W81238  10.118  29.082  13.387
14456W        W81239  21.027  33.778   4.129
14457W        W81240  44.518   8.684  10.247
14458W        W81241  27.842  20.085  13.877
14459W        W81242  22.054   7.348   3.783
14460W        W81243  16.093  21.040   4.596
14461W        W81244  10.817  38.507  10.718
14462W        W81245  34.758  41.816  13.008
14463W        W81246  33.713   9.428   2.635
14464W        W81247  28.156  12.422  11.176
14465W        W81248  31.546  10.900  12.566
14466W        W81249  24.693  30.670   4.669
14467W        W81250  18.090  18.280  14.797
14468W        W81251   5.262   5.462   2.581
14469W        W81252   8.913  29.710  14.369
14470W        W81253  36.170  23.378  10.195
14471W        W81254   0.537  13.872   3.637
14472W        W81255  25.071  16.306   2.314
14473W        W81256   6.213   5.904   2.310
14474W        W81257   2.739  25.172  13.078
14475W        W81258  38.528  28.001  13.335
14476W        W81259  22.999  40.381  14.780
14477W        W81260  38.348  15.588  12.568
14478W        W81261  42.278  24.680   1.786
14479W        W81262  31.835  36.360   2.300
14480W        W81263  17.335   5.696  11.011
14481W        W81264  22.134  18.766   2.303
14482W        W81265   7.120  24.919  11.104
14483W        W81266   3.693  40.319   1.555
14484W        W81267  35.869  38.328   2.772
14485W        W81268  25.595  22.742   4.548
14486W        W81269  18.632  11.405   3.663
14487W        W81270   6.922  18.819   0.058
14488W        W81271  41.679  33.123  14.790
14489W        W81272   3.049  41.483   4.618
14490W        W81273  35.383  21.382  13.416
14491W        W81274   7.163  32.649   3.197
14492W        W81275  20.192  31.154  14.859
14493W        W81276  43.744  13.844   2.719
14494W        W81277  18.903   6.128   4.192
14495W        W81278   6.251  25.691  11.961
14496W        W81279  20.559  21.117   3.150
14497W        W81280   5.851  10.875  12.117
14498W        W81281  15.830  12.201  10.773
14499W        W81282  27.458  20.139   1.884
14500W        W81283  18.499  33.682  11.132
14501W        W81284   2.420   2.357   1.479
14502W        W81285   2.307  24.708   2.176
14503W        W81286  23.037   4.456   3.172
14504W        W81287   7.409  34.822  13.250
14505W        W81288   0.323   5.116  10.976
14506W        W81289  30.441  43.985   4.100
14507W        W81290  35.340  35.506  11.920
14508W        W81291  17.146   2.480  12.395
14509W        W81292   0.418  16.418   9.659
14510W        W81293  14.541  27.895  11.182
14511W        W81294  11.711  33.570   0.851
14512W        W81295  18.123  42.061   4.642
14513W        W81296  33.518  13.626   4.631
14514W        W81297  44.513  14.025   0.199
14515W        W81298  32.378  25.551   1.738
14516W        W81299  11.675  41.869  13.755
14517W        W81300  44.923  35.125   4.134
14518W        W81301  28.465  10.823  12.840
14519W        W81302  13.754  15.121   3.130
14520W        W81303  44.837  40.778  10.959
14521W        W81304  12.632  44.421   3.125
14522W        W81305  27.098  23.180  14.375
14523W        W81306  21.240  31.905   1.722
14524W        W81307   7.898  28.993   1.947
14525W        W81308  25.013  42.763   2.185
14526W        W81309  13.662  33.340   2.717
14527W        W81310  34.469  16.583   1.443
14528W        W81311  14.576  25.931   4.570
14529W        W81312  22.289  18.059   3.774
14530W        W81313   5.799   9.155   4.920
14531W        W81314  33.967  32.613  14.423
14532W        W81315  42.675  38.390  12.983
14533W        W81316  12.952  32.696   0.489
14534W        W81317  25.894  40.980   2.155
14535W        W81318  22.631  21.713  11.671
14536W        W81319  26.094  37.090   3.120
14537W        W81320   8.394  31.867  14.969
14538W        W81321  34.339  13.632  12.503
14539W        W81322  24.423  42.495   1.490
14540W        W81323  27.157  37.834  13.875
14541W        W81324  31.242  33.583   0.520
14542W        W81325  31.089  27.367  11.937
14543W        W81326  28.005  12.826   5.003
14544W        W81327   0.216   1.382   1.206
14545W        W81328  21.736  24.551  12.119
14546W        W81329  30.664   9.644  11.228
14547W        W81330  26.511   8.402  13.380
14548W        W81331  11.332  36.880  11.963
14549W        W81332  22.798   7.700  11.317
14550W        W81333   2.233  41.826  11.138
14551W        W81334  26.500  37.068  12.488
14552W        W81335  17.390  25.655  10.225
14553W        W81336  43.913  34.088  11.513
14554W        W81337  12.284  31.685  12.349
14555W        W81338  36.641   8.636  12.427
14556W        W81339  35.648   1.692  11.121
14557W        W81340  35.658   6.287  12.964
14558W        W81341  26.050  36.654  14.264
14559W        W81342   8.201  42.602   4.216
14560W        W81343  10.824  41.062  12.484
14561W        W81344   0.528  29.375   0.493
14562W        W81345   8.907  23.130   3.033
14563W        W81346  42.579  11.102   0.758
14564W        W81347  36.529  13.583   1.645
14565W        W81348  34.782  35.477  14.398
14566W        W81349   9.278  21.481   3.736
14567W        W81350  11.143  38.867   0.822
14568W        W81351  19.238  23.109   0.447
14569W        W81352  22.245  41.446   4.103
14570W        W81353  41.257  18.816   3.078
14571W        W81354  44.685  39.418   2.658
14572W        W81355  43.423   2.328  14.972
14573W        W81356  27.002  20.779   1.326
14574W        W81357  25.150  39.073   2.196
14575W        W81358  11.492  27.681  13.023
14576W        W81359  22.520  23.256  14.357
14577W        W81360  10.545  41.836  12.013
14578W        W81361  34.539   7.919  14.805
14579W        W81362  24.165  34.721   1.247
14580W        W81363   4.177  39.990  13.062
14581W        W81364  33.480  38.100   2.335
14582W        W81365   3.814  34.516  12.063
14583W        W81366  40.493  32.808   1.277
14584W        W81367   7.887  16.056   1.344
14585W        W81368   5.245  20.881  12.022
14586W        W81369  40.812   1.441  13.542
14587W        W81370  22.685  20.036   3.181
14588W        W81371  26.890  10.113  10.193
14589W        W81372  21.050  44.014  11.669
14590W        W81373  16.416   5.011  12.207
14591W        W81374  22.300  15.184  13.479
14592W        W81375  22.446  14.188  10.239
14593W        W81376  25.461  24.443   2.200
14594W        W81377  16.419  35.137  11.115
14595W        W81378  39.197  33.971  10.439
14596W        W81379   7.761  23.507   0.815
14597W        W81380   3.274  16.244   2.783
14598W        W81381  39.991   2.346   3.266
14599W        W81382  22.421  44.323   4.794
14600W        W81383  16.622  32.565   3.244
14601W        W81384  34.724  43.005   0.726
14602W        W81385   4.443  28.892   2.743
14603W        W81386  33.377  41.542   1.761
14604W        W81387   8.219  42.421   3.734
14605W        W81388  13.651  22.708   3.285
14606W        W81389  26.114  11.571   1.624
14607W        W81390  39.875  28.136   4.803
14608W        W81391  12.037  26.495  13.918
14609W        W81392  11.265  10.894   3.901
14610W        W81393   2.976  11.703  12.434
14611W        W81394  39.700  27.620   2.746
14612W        W81395   6.590   8.929  12.614
14613W        W81396  37.836  43.199  11.868
14614W        W81397  24.666   8.814  10.248
14615W        W81398   3.679  29.077   4.825
14616W        W81399  12.293  20.903   1.979
14617W        W81400  16.480   1.850   3.840
14618W        W81401   8.504   2.715  11.964
14619W        W81402  26.068  14.003   0.537
14620W        W81403  30.725  31.140   4.801
14621W        W81404  12.462  44.373  13.649
14622W        W81405   9.775  13.584   1.338
14623W        W81406   2.756  28.666   4.119
14624W        W81407  22.260   0.205   1.861
14625W        W81408  44.804  36.348   1.895
14626W        W81409  37.821   9.372   3.011
14627W        W81410   3.122  14.634  13.370
14628W        W81411  20.214  18.771   0.780
14629W        W81412  14.812  21.118   2.626
14630W        W81413  40.909  24.946  11.389
14631W        W81414  32.227  38.437  12.125
14632W        W81415  13.801  40.577  11.196
14633W        W81416  44.258  16.458   0.907
14634W        W81417  40.294   0.983  11.093
14635W        W81418  32.972   5.149   0.743
14636W        W81419  23.574  26.312  11.528
14637W        W81420  22.407   2.790  11.728
14638W        W81421  38.989  25.207   4.660
14639W        W81422  22.311  38.916  10.574
14640W        W81423   4.885  27.724   1.838
14641W        W81424  32.662  34.241   2.286
14642W        W81425  27.111  43.884  13.797
14643W        W81426  10.125  37.851  14.011
14644W        W81427   0.323  14.135  10.262
14645W        W81428  30.746  20.237   5.001
14646W        W81429  20.082  11.114  14.486
14647W        W81430  14.117  37.511   3.842
14648W        W81431  41.168  40.284   1.968
14649W        W81432  16.216  44.082   1.839
14650W        W81433   6.567  12.271  12.401
14651W        W81434  38.608  29.624  11.545
14652W        W81435  14.025  12.675  14.937
14653W        W81436  13.496  38.551  10.466
14654W        W81437  24.629  28.932  14.262
14655W        W81438  19.120  43.984   0.805
14656W        W81439  15.838  41.105  10.573
14657W        W81440  17.725  40.001  10.390
14658W        W81441  25.123  34.179  12.842
14659W        W81442   6.361  43.519  11.968
14660W        W81443  26.424  21.764   0.646
14661W        W81444   5.184  21.018  11.142
14662W        W81445  13.638   1.048   0.338
14663W        W81446  25.991  31.538  14.986
14664W        W81447   0.702  25.656  10.818
14665W        W81448  11.235   0.499   3.602
14666W        W81449  27.570  10.319   4.742
14667W        W81450  14.757  25.648   2.132
14668W        W81451  15.703  21.614   2.383
14669W        W81452  38.887  16.611  10.507
14670W        W81453  32.333  40.532  12.446
14671W        W81454  12.803  29.850   3.195
14672W        W81455  37.117   7.410  11.857
14673W        W81456  10.432  10.819  13.982
14674W        W81457  34.095  33.595   1.692
14675W        W81458  27.624   4.702  10.989
14676W        W81459   9.303  28.526   2.334
14677W        W81460  37.646  19.986   2.163
14678W        W81461  32.550  30.960  11.943
14679W        W81462   0.185  22.418   2.791
14680W        W81463  44.529  41.482  11.039
14681W        W81464  41.130   4.165   2.761
14682W        W81465   1.329  37.074   4.042
14683W        W81466  35.023  38.312   3.730
14684W        W81467   5.292  20.551   2.741
14685W        W81468   9.198  33.164  12.470
14686W        W81469  34.016  32.357   3.253
14687W        W81470  14.131  21.108   3.816
14688W        W81471   2.921  39.493  12.016
14689W        W81472  20.564  21.250  13.081
14690W        W81473  44.662  38.796   3.765
14691W        W81474  26.570  17.290   1.433
14692W        W81475  15.894  37.615  11.172
14693W        W81476  28.476  26.084   2.799
14694W        W81477  22.603   1.352   1.938
14695W        W81478  44.737  31.066   0.357
14696W        W81479  25.647  39.568   2.655
14697W        W81480  21.385  33.023  14.446
14698W        W81481  25.639   7.705  11.646
14699W        W81482  13.401  17.722   4.429
14700W        W81483  33.870  18.777  12.492
14701W        W81484   3.281  10.631   3.471
14702W        W81485  36.145  39.751  11.246
14703W        W81486  26.440  34.972  12.311
14704W        W81487  13.588  27.332  13.994
14705W        W81488  37.092   3.427  14.767
14706W        W81489  40.846  12.515  10.250
14707W        W81490  22.208   1.796  12.773
14708W        W81491  20.841   4.233   2.759
14709W        W81492  31.077  28.765  12.954
14710W        W81493  12.610   5.569  13.861
14711W        W81494   9.726  37.344   1.359
14712W        W81495   2.797  19.570   4.215
14713W        W81496  20.559  14.166   5.023
14714W        W81497   2.282  40.047  13.841
14715W        W81498  16.234  28.871  13.784
14716W        W81499  10.537   1.936   1.949
14717W        W81500  43.077  24.022   0.359
14718W        W81501   4.650  23.515   3.604
14719W        W81502  24.156   1.090  13.086
14720W        W81503  10.209   1.904  12.648
14721W        W81504  44.241  32.674   3.013
14722W        W81505  40.287   3.276  12.954
14723W        W81506  28.981  16.996   0.342
14724W        W81507   5.919  38.528  13.814
14725W        W81508   9.831  10.828   4.550
14726W        W81509  22.770  39.458   2.709
14727W        W81510  10.032  20.155   2.243
14728W        W81511   7.393  34.663   0.279
14729W        W81512  13.868  15.767  11.628
14730W        W81513  19.251   2.716  12.636
14731W        W81514  29.051  20.597  11.468
14732W        W81515  20.715  28.389   1.673
14733W        W81516  17.563  44.753   4.056
14734W        W81517  36.889  34.264   3.912
14735W        W81518  26.520  43.182   0.947
14736W        W81519  18.223  24.134   0.102
14737W        W81520  36.609   1.220   4.148
14738W        W81521  35.476  42.211  11.432
14739W        W81522  34.459  33.884   3.400
14740W        W81523  19.564  25.999   4.138
14741W        W81524  12.584  22.475   4.422
14742W        W81525  14.719  12.166   1.216
14743W        W81526  36.021  25.710  14.884
14744W        W81527  24.886  23.703   4.138
14745W        W81528   4.865  31.264   0.467
14746W        W81529   9.304   6.260  12.472
14747W        W81530  26.947  21.712   0.700
14748W        W81531  41.324  31.882  13.970
14749W        W81532  37.133  37.066   1.721
14750W        W81533  12.845  15.615  11.570
14751W        W81534  17.717  40.921  13.479
14752W        W81535  13.569   0.568   2.792
14753W        W81536  21.517  43.314  14.941
14754W        W81537  18.642  10.172  14.361
14755W        W81538   1.644  41.702  12.368
14756W        W81539  10.213  23.510   4.207
14757W        W81540  34.053   9.850  12.036
14758W        W81541  42.029  29.544   4.251
14759W        W81542  16.121  14.159   1.968
14760W        W81543  14.716  23.633  13.735
14761W        W81544  19.679  41.462   3.704
14762W        W81545  10.396  22.532  12.977
14763W        W81546   1.708  22.214   3.938
14764W        W81547  36.990  19.665  12.357
14765W        W81548  24.271  18.295   4.841
14766W        W81549  14.076  26.792   0.939
14767W        W81550  27.063  44.017   1.189
14768W        W81551  21.592  24.727   5.422
14769W        W81552  11.142  41.329  10.928
14770W        W81553  35.141  15.132  11.010
14771W        W81554  32.899  21.040  14.376
14772W        W81555  44.328   3.388  13.936
14773W        W81556  42.510  29.121   0.383
14774W        W81557   5.111  40.395   4.122
14775W        W81558   9.720  36.059   0.705
14776W        W81559   2.354  18.816  14.376
14777W        W81560  16.255  14.445  13.425
14778W        W81561  27.665   5.527   2.360
14779W        W81562  16.081  34.741  11.121
14780W        W81563  30.984  10.145   0.734
14781W        W81564  27.724  15.506   4.634
14782W        W81565  41.557  27.819   2.865
14783W        W81566   0.484  38.408  12.858
14784W        W81567  31.872  36.006  14.339
14785W        W81568  21.724   8.194  11.046
14786W        W81569  18.637  33.154  13.788
14787W        W81570  41.936   7.642  13.340
14788W        W81571  30.494   1.695  10.713
14789W        W81572   9.996  10.828   1.651
14790W        W81573  28.908  30.215   1.880
14791W        W81574   7.325  33.610  14.067
14792W        W81575  42.559   3.965   2.770
14793W        W81576   5.858  33.136   1.592
14794W        W81577  39.951   8.449  10.466
14795W        W81578  35.745   3.214   2.520
14796W        W81579  25.572   8.249  10.939
14797W        W81580  36.965   0.341   0.831
14798W        W81581  27.081  28.635   4.936
14799W        W81582  42.902  13.899   3.095
14800W        W81583   6.236  33.941  10.548
14801W        W81584   1.210  12.915   3.662
14802W        W81585  10.692  33.149   2.135
14803W        W81586  41.324  18.668   5.022
14804W        W81587  42.945   4.221   4.917
14805W        W81588  42.529   2.864  13.506
14806W        W81589  12.452  28.141  10.917
14807W        W81590  10.639  38.104   1.830
14808W        W81591   7.951  15.593  11.640
14809W        W81592   3.435  25.278   1.758
14810W        W81593  42.824   2.195   0.653
14811W        W81594  38.556  33.755  12.496
14812W        W81595   5.240   6.660  10.602
14813W        W81596  34.305  13.181   2.499
14814W        W81597  41.257   1.770   4.252
14815W        W81598  19.190  17.999  12.902
14816W        W81599   5.903  31.379   0.947
14817W        W81600  36.453   2.689  14.206
14818W        W81601   3.732  20.569  14.811
14819W        W81602   7.136  18.230   1.738
14820W        W81603  39.823  17.095  14.835
14821W        W81604  21.161  13.900  12.573
14822W        W81605   5.150  24.030  12.088
14823W        W81606   2.276   6.726  10.450
14824W        W81607  10.689   9.352   4.134
14825W        W81608   1.376  16.109   4.677
14826W        W81609   6.448  16.727  11.825
14827W        W81610   9.690  35.093   0.464
14828W        W81611  37.340  38.798   0.417
14829W        W81612  13.126   8.765  11.190
14830W        W81613  37.285  39.914   0.769
14831W        W81614   5.434  25.989  14.380
14832W        W81615  33.165   6.155   2.259
14833W        W81616  36.595  23.069  10.224
14834W        W81617   0.436   4.475   4.628
14835W        W81618   3.439  26.004   3.990
14836W        W81619  26.415  44.862   1.361
14837W        W81620  10.155  12.826  14.738
14838W        W81621  10.621  28.440   2.683
14839W        W81622  11.687  26.132   4.504
14840W        W81623   9.630  14.785   2.003
14841W        W81624  23.213  15.056   1.336
14842W        W81625  36.987   0.784   4.352
14843W        W81626  18.280  16.362  14.855
14844W        W81627   2.545  42.800   9.988
14845W        W81628  24.342   6.467  13.226
14846W        W81629   5.800  28.646  11.140
14847W        W81630   4.689  43.089  11.915
14848W        W81631  23.640   5.871   5.092
14849W        W81632  21.044  35.537  13.952
14850W        W81633  13.194  44.279  13.477
14851W        W81634  12.633   5.126   1.210
14852W        W81635  39.987   9.653   4.700
14853W        W81636  34.312  35.593   0.344
14854W        W81637  17.084  37.442   3.760
14855W        W81638  15.369   2.772   1.953
14856W        W81639  43.332   2.186   0.462
14857W        W81640   6.107   6.230  14.098
14858W        W81641   5.970  36.983  10.407
14859W        W81642  18.732  30.644   3.152
14860W        W81643  11.047   9.095  12.753
14861W        W81644   2.041  15.806  10.702
14862W        W81645  12.391  43.534  13.026
14863W        W81646   6.653  36.838  12.071
14864W        W81647  19.037  33.359  11.150
14865W        W81648  36.507  31.538   4.385
14866W        W81649  17.585  41.222  13.913
14867W        W81650  27.700  29.638   4.840
14868W        W81651  43.014  21.939   2.769
14869W        W81652  27.370  22.703   4.745
14870W        W81653   0.619   6.848   4.266
14871W        W81654  23.662   5.505  11.235
14872W        W81655  29.499   2.018  11.154
14873W        W81656   2.397  32.506   2.520
14874W        W81657  37.535  18.325   3.703
14875W        W81658  36.048  19.052   4.070
14876W        W81659   0.899   1.299   1.854
14877W        W81660   3.493   0.047   2.255
14878W        W81661  15.881  33.517  12.023
14879W        W81662  27.420   5.394   4.344
14880W        W81663   9.434  37.647   3.720
14881W        W81664  36.914   5.795  12.876
14882W        W81665   4.897  10.835  14.938
14883W        W81666  36.659  16.683  14.652
14884W        W81667  17.345  22.522   2.325
14885W        W81668  13.696  40.123   4.334
14886W        W81669   8.917  32.066  14.905
14887W        W81670   3.493  37.117   1.401
14888W        W81671   2.454   6.396  14.825
14889W        W81672  22.639  31.123   0.789
14890W        W81673  13.102   9.435  11.991
14891W        W81674  18.827  16.635   1.155
14892W        W81675  19.013  28.666   1.883
14893W        W81676  44.188  32.841   2.175
14894W        W81677   4.339  11.256   2.365
14895W        W81678  32.295  20.521  14.892
14896W        W81679   4.364  23.191   1.719
14897W        W81680  25.675  35.386  12.469
14898W        W81681   0.761  19.713  14.973
14899W        W81682   7.689  16.822  14.383
14900W        W81683  36.178  31.023  12.852
14901W        W81684  19.010  16.824   3.198
14902W        W81685   6.722  16.731   2.232
14903W        W81686  30.000  36.189  14.218
14904W        W81687  21.366   0.011  11.539
14905W        W81688  27.479  32.119   1.362
14906W        W81689   1.881  15.502   3.209
14907W        W81690  17.782  25.437  11.569
14908W        W81691  15.489   4.262   0.013
14909W        W81692   8.652  38.726  13.787
14910W        W81693  31.022  33.823  13.387
14911W        W81694  41.005  22.492  14.870
14912W        W81695  36.295  18.227  13.050
14913W        W81696  30.376   3.965   0.466
14914W        W81697  42.189  17.112  14.402
14915W        W81698  44.983  11.857   1.031
14916W        W81699  42.017  16.183   5.491
14917W        W81700  21.667   5.725  13.256
14918W        W81701   3.648   5.032  13.405
14919W        W81702  22.820  37.352  14.351
14920W        W81703  23.828  36.146  13.275
14921W        W81704  41.955   1.712   4.098
14922W        W81705  13.575  42.008  13.891
14923W        W81706  30.885  34.607  14.039
14924W        W81707  19.038  16.043   2.832
14925W        W81708  22.585   3.751   2.906
14926W        W81709   9.273  31.908   4.191
14927W        W81710  30.087  16.250  11.871
14928W        W81711  36.804  18.578  11.862
14929W        W81712   0.163  18.256   4.694
14930W        W81713   4.905  28.519  14.940
14931W        W81714  40.984  13.649  14.994
14932W        W81715  22.687  36.329  11.212
14933W        W81716  32.588  19.189  11.176
14934W        W81717  33.818  20.345   3.722
14935W        W81718  10.581  11.372   1.905
14936W        W81719  25.538  16.305   0.953
14937W        W81720  15.971   1.041   4.647
14938W        W81721   9.815  28.992  10.826
14939W        W81722  21.472  36.390  11.639
14940W        W81723   4.214  36.005  13.261
14941W        W81724  38.430  17.749  10.256
14942W        W81725   6.208  42.171  12.765
14943W        W81726   0.284  35.565  10.644
14944W        W81727  42.236  26.113  13.518
14945W        W81728  13.734  15.754   2.828
14946W        W81729  23.715  32.383   2.745
14947W        W81730  38.556  38.086   3.295
14948W        W81731  21.222  41.307   4.163
14949W        W81732  27.243  44.916  11.193
14950W        W81733  22.995  35.011   4.141
14951W        W81734   9.116  14.528  13.794
14952W        W81735  38.811  12.357  14.213
14953W        W81736  44.420   7.311   1.782
14954W        W81737  24.653   5.854   3.674
14955W        W81738  34.611   2.530   4.850
14956W        W81739  15.375  28.973  11.547
14957W        W81740  35.666  36.497   3.671
14958W        W81741   4.330  14.996  12.937
14959W        W81742   6.743   6.364   3.255
14960W        W81743  36.580  22.760  11.482
14961W        W81744  41.393  28.438  11.615
14962W        W81745  11.702   1.752   2.185
14963W        W81746   8.919   8.524  14.670
14964W        W81747  13.737  30.616  12.441
14965W        W81748  26.248   7.207   3.814
14966W        W81749  19.573  25.577  13.099
14967W        W81750  13.195  15.080   4.725
14968W        W81751  32.655   8.177  13.349
14969W        W81752   7.701  10.731   3.372
14970W        W81753  21.299  30.066   0.314
14971W        W81754   6.066  26.580   1.256
14972W        W81755   3.363  26.714  11.325
14973W        W81756  24.987  18.803   2.260
14974W        W81757   6.513  41.558   3.587
14975W        W81758  35.440  27.129   3.710
14976W        W81759   5.354   6.877   3.627
14977W        W81760   3.290   9.816  13.993
14978W        W81761  10.292  38.512   2.849
14979W        W81762   9.730  11.077   0.835
14980W        W81763  10.792  29.706   1.685
14981W        W81764   5.749   9.850  14.035
14982W        W81765  37.955  44.429   4.791
14983W        W81766  28.999  15.707  14.030
14984W        W81767  25.049  40.302   1.344
14985W        W81768  12.301  22.053  11.672
14986W        W81769  33.384  33.104  10.510
14987W        W81770  23.125  17.831  13.895
14988W        W81771  29.319  41.443   3.541
14989W        W81772  17.114  23.854  12.115
14990W        W81773  39.871  14.165   1.527
14991W        W81774  39.814   2.964  13.083
14992W        W81775  11.927  34.938   2.250
14993W        W81776  33.008  31.134   3.793
14994W        W81777  11.240  40.018   0.721
14995W        W81778  42.128  30.608  11.089
14996W        W81779  29.463   7.477   2.775
14997W        W81780   3.312  31.466  11.009
14998W        W81781  18.327  15.725  14.216
14999W        W81782  23.522   3.824  12.105
15000W        W81783  37.337  41.765  14.373
15001W        W81784  15.785   7.879   4.100
15002W        W81785  17.836  30.904  13.825
15003W        W81786  18.062  37.550   4.563
15004W        W81787  16.680  33.376  10.609
15005W        W81788  25.063   4.206  11.145
15006W        W81789  22.899  26.975  11.191
15007W        W81790  38.493  41.055  11.566
15008W        W81791   7.741   2.394   3.246
15009W        W81792  29.925  17.631  11.028
15010W        W81793   5.393  27.515  13.605
15011W        W81794  41.350  21.008  13.070
15012W        W81795  41.866  31.529  14.132
15013W        W81796  15.505  11.021   1.818
15014W        W81797  20.519  34.832  10.683
15015W        W81798  14.111  36.370  14.310
15016W        W81799  16.082  18.312   0.696
15017W        W81800  34.336  35.517   4.579
15018W        W81801  29.966   3.899   3.062
15019W        W81802  33.950   1.253   4.681
15020W        W81803   8.308  25.594   3.835
15021W        W81804  22.320  38.920   2.251
15022W        W81805  37.430  24.672  14.948
15023W        W81806  34.332  13.206   1.408
15024W        W81807  42.284  17.257   3.365
15025W        W81808   5.509  22.582   2.720
15026W        W81809  35.870   0.942   3.689
15027W        W81810  31.620   0.798   0.523
15028W        W81811   1.963  12.729  14.829
15029W        W81812  32.151  29.056   0.327
15030W        W81813  24.049  20.447  11.462
15031W        W81814  16.300   0.708  11.085
15032W        W81815  21.142   2.158  14.144
15033W        W81816   1.119  27.562   1.295
15034W        W81817  44.323   8.870  11.840
15035W        W81818  31.015  29.632  13.513
15036W        W81819  14.133  16.139   2.848
15037W        W81820  38.632  44.735  10.395
15038W        W81821  41.961  29.244  11.608
15039W        W81822  36.986  36.901  10.713
15040W        W81823  39.472   8.403  11.567
15041W        W81824  29.394  33.826   3.910
15042W        W81825  23.673   6.427  11.502
15043W        W81826  32.175   0.666  11.116
15044W        W81827  22.142  15.406   1.667
15045W        W81828  42.962  44.887  12.132
15046W        W81829  21.701  21.606  11.726
15047W        W81830  24.641  37.879  13.875
15048W        W81831  32.066  34.282   2.864
15049W        W81832  32.882  18.309   1.407
15050W        W81833   3.196   6.859  12.540
15051W        W81834   9.671  17.087   1.198
15052W        W81835  35.992   7.957   0.912
15053W        W81836  31.745  28.499  13.427
15054W        W81837  28.841  39.362   1.628
15055W        W81838   2.677  23.144  11.670
15056W        W81839  36.933  39.056   0.248
15057W        W81840  44.015  21.132   3.074
15058W        W81841  19.952  21.190  14.689
15059W        W81842  19.672  11.534  11.932
15060W        W81843  16.206  14.656  12.474
15061W        W81844  32.494  22.958  14.853
15062W        W81845   3.843  10.717  14.529
15063W        W81846  12.678  16.334  12.054
15064W        W81847   2.513  33.870   2.207
15065W        W81848  43.890  27.049  11.550
15066W        W81849  37.407  16.807   0.089
15067W        W81850  35.143   6.036  11.113
15068W        W81851  19.567  27.023  13.906
15069W        W81852  32.667  15.734  10.620
15070W        W81853  42.701  14.993   4.945
15071W        W81854  14.646   0.655   3.616
15072W        W81855  21.356  23.167  10.964
15073W        W81856  16.810  32.084   1.362
15074W        W81857   9.270   5.838  14.422
15075W        W81858   6.257   2.272   2.531
15076W        W81859  15.608  27.977  12.266
15077W        W81860  18.324  19.219   1.095
15078W        W81861   3.705  44.308  10.770
15079W        W81862  13.809  33.899  14.975
15080W        W81863  40.113  25.155   1.605
15081W        W81864  30.898  26.158   4.140
15082W        W81865   3.085  41.968   0.305
15083W        W81866  15.711   6.448  10.980
15084W        W81867   3.286   7.625  14.376
15085W        W81868  41.630  27.971  12.465
15086W        W81869  43.542  16.212  13.809
15087W        W81870  25.531  32.455   0.266
15088W        W81871   2.359  21.363   2.227
15089W        W81872  13.232  21.249   3.639
15090W        W81873  29.014   9.311  12.825
15091W        W81874   8.942  28.695   4.023
15092W        W81875   2.872  28.980  13.070
15093W        W81876  22.834  24.117   2.155
15094W        W81877  23.642  38.057   2.466
15095W        W81878   4.786  27.357   0.486
15096W        W81879  40.027  37.449   2.796
15097W        W81880  20.930  16.244  12.784
15098W        W81881  13.305  34.728  13.570
15099W        W81882  13.762   1.715  12.201
15100W        W81883  33.873   8.924   3.693
15101W        W81884   4.347  42.128  10.701
15102W        W81885  39.876   6.206  11.709
15103W        W81886  36.131   9.704   0.711
15104W        W81887  13.099   0.174   3.923
15105W        W81888   5.002  25.257  14.117
15106W        W81889  39.960  20.785  13.115
15107W        W81890  14.792   8.818  11.926
15108W        W81891   5.157  34.442   1.381
15109W        W81892  25.475  21.582   4.229
15110W        W81893   1.481   6.234   3.368
15111W        W81894  26.842  17.136   4.126
15112W        W81895  34.655  17.334  11.078
15113W        W81896  13.413   4.698   5.007
15114W        W81897  11.943  17.453  12.443
15115W        W81898   8.980   2.150   3.096
15116W        W81899   3.247   5.258  10.973
15117W        W81900  31.097  12.012  11.912
15118W        W81901  32.421   8.171   4.907
15119W        W81902  12.923  28.151  11.131
15120W        W81903  27.795  15.518   1.755
15121W        W81904  27.246   7.318   3.804
15122W        W81905   0.911  29.490   4.191
15123W        W81906  10.186  13.011  12.398
15124W        W81907   2.939  21.292   2.938
15125W        W81908  26.278   6.120   3.064
15126W        W81909  10.145  41.296  13.210
15127W        W81910  27.880  28.653  10.923
15128W        W81911  38.353  29.090   1.201
15129W        W81912  42.491  13.164   1.750
15130W        W81913  27.418  12.748   3.137
15131W        W81914  31.805  39.476  11.982
15132W        W81915  44.076  23.264   2.826
15133W        W81916  14.674   4.838   3.129
15134W        W81917  42.267  10.896   1.540
15135W        W81918   0.300  31.526  12.806
15136W        W81919  17.716  15.271  14.090
15137W        W81920  28.652  21.440  13.108
15138W        W81921  38.779  29.322  11.072
15139W        W81922  35.480   4.438   0.005
15140W        W81923  32.096  18.543  12.153
15141W        W81924   9.385  35.003   2.718
15142W        W81925  37.332   4.445   1.274
15143W        W81926  19.641  22.726  13.833
15144W        W81927   1.478  41.565   4.664
15145W        W81928   9.122   2.867   0.900
15146W        W81929  29.152  39.076  14.903
15147W        W81930   4.726  12.167  12.625
15148W        W81931  34.118  42.254  11.921
15149W        W81932  33.606  32.826  10.083
15150W        W81933  18.805  24.225   0.850
15151W        W81934  16.653  17.088  12.082
15152W        W81935  18.719  24.219   0.322
15153W        W81936   1.639   5.434  12.050
15154W        W81937  11.818   9.378   4.541
15155W        W81938  28.213  22.928  13.055
15156W        W81939  30.685  23.271   4.304
15157W        W81940  44.561  35.127  14.790
15158W        W81941  17.668  39.940   0.437
15159W        W81942  25.503  18.964  11.598
15160W        W81943   9.523   0.854   2.399
15161W        W81944  15.526  41.354   4.218
15162W        W81945  15.037  21.731   1.809
15163W        W81946  29.995  36.343  11.566
15164W        W81947  17.710   6.931  10.711
15165W        W81948  22.968  11.319  14.607
15166W        W81949  14.455  12.308   2.518
15167W        W81950  28.619   9.792   4.363
15168W        W81951   4.839  44.883  14.516
15169W        W81952  17.195   8.445   3.662
15170W        W81953  44.736  10.402  13.570
15171W        W81954  32.448  36.251  10.806
15172W        W81955  12.291  35.381  14.082
15173W        W81956  38.212  41.345  11.207
15174W        W81957  28.163  25.457  14.829
15175W        W81958  26.988  13.613   0.858
15176W        W81959   9.074  27.842  10.977
15177W        W81960  28.716  33.341  12.604
15178W        W81961  38.011   6.444  11.157
15179W        W81962   7.621   6.492   4.302
15180W        W81963  27.179   3.650   3.744
15181W        W81964  44.003  23.499   1.351
15182W        W81965  27.920   4.949  12.513
15183W        W81966  32.594  41.356   3.399
15184W        W81967  23.998   0.332  10.458
15185W        W81968  23.006  33.652   3.943
15186W        W81969   1.278  27.548   0.808
15187W        W81970  27.619  18.123  10.433
15188W        W81971   7.958   9.493   0.515
15189W        W81972  36.532   6.853  11.872
15190W        W81973  13.617  23.514  14.509
15191W        W81974  14.506  21.031   2.228
15192W        W81975  26.067  19.119   4.504
15193W        W81976  35.013  30.588   4.164
15194W        W81977  21.664  24.389  14.734
15195W        W81978  41.065  35.591   4.221
15196W        W81979  25.729  22.707  12.878
15197W        W81980  27.100  16.609  14.443
15198W        W81981  13.581  32.378   1.681
15199W        W81982  41.558  40.880   3.241
15200W        W81983  28.198  17.338  12.599
15201W        W81984  42.999   3.366  11.186
15202W        W81985  43.849  32.957   4.110
15203W        W81986  27.924  29.957  13.530
15204W        W81987  24.574  18.745   3.683
15205W        W81988  36.341  32.854  12.054
15206W        W81989  22.358  16.483   2.757
15207W        W81990   0.734  28.208   3.709
15208W        W81991  14.369  29.526   0.285
15209W        W81992   1.212  36.685  11.661
15210W        W81993  30.450  41.319   4.591
15211W        W81994   6.595   5.047  14.379
15212W        W81995   9.115  32.073  12.520
15213W        W81996  27.528   8.174  14.395
15214W        W81997   9.003  39.907  11.976
15215W        W81998  24.913  44.392  11.106
15216W        W81999   1.462  43.356  13.092
15217W        W82000  13.767  10.693  13.793
15218W        W82001  35.332  16.677  11.222
15219W        W82002  20.551  31.490   1.251
15220W        W82003   0.649  32.603   0.973
15221W        W82004  11.659  44.198  11.500
15222W        W82005   7.854  26.291  13.071
15223W        W82006  24.521  13.584  12.553
15224W        W82007   8.983  18.759  13.151
15225W        W82008  24.760  11.106  13.862
15226W        W82009   4.679   7.172   2.502
15227W        W82010   8.330  42.896  14.631
15228W        W82011   6.627  18.437  11.153
15229W        W82012   0.738  33.818  12.841
15230W        W82013  31.366  17.596   3.294
15231W        W82014  30.064  27.607   2.398
15232W        W82015  18.771  30.477  10.657
15233W        W82016  11.831  10.954  14.386
15234W        W82017  16.762   2.812  14.608
15235W        W82018  38.775  34.491   0.791
15236W        W82019  15.813  17.754   1.738
15237W        W82020  14.873  22.111   2.706
15238W        W82021  27.718  43.550  12.619
15239W        W82022  12.251   5.641  12.094
15240W        W82023  38.525  40.741   3.736
15241W        W82024  12.636  24.225   1.133
15242W        W82025  43.395   1.847  13.704
15243W        W82026   0.768  16.299   2.950
15244W        W82027  27.138  14.629  11.938
15245W        W82028   2.822  22.702   4.769
15246W        W82029  23.613  41.883   4.042
15247W        W82030  29.463   8.680  14.945
15248W        W82031  22.032   5.140  12.528
15249W        W82032   3.300  39.789  14.347
15250W        W82033  42.892   3.718  13.114
15251W        W82034  33.082  24.734  12.942
15252W        W82035  24.572  12.469  14.311
15253W        W82036   6.372  39.479   3.647
15254W        W82037  35.811  34.173   4.166
15255W        W82038   1.722  20.130  12.635
15256W        W82039  25.436  17.720  12.598
15257W        W82040  25.713   7.737  14.384
15258W        W82041  34.663  34.579   3.690
15259W        W82042   4.388  39.400  10.917
15260W        W82043  13.607  25.546  12.390
15261W        W82044   8.762  41.409  13.021
15262W        W82045  34.660   0.407   0.788
15263W        W82046  11.869   4.459  11.231
15264W        W82047  20.191   8.720   0.649
15265W        W82048  23.256   9.337   3.324
15266W        W82049  32.869  30.985   4.258
15267W        W82050  17.638  31.515   2.892
15268W        W82051  31.917   5.595  11.012
15269W        W82052   5.163   5.756  12.374
15270W        W82053  15.353  42.986   1.595
15271W        W82054  39.468  44.738  14.773
15272W        W82055  24.025  20.307  14.291
15273W        W82056  33.478   7.350   1.737
15274W        W82057  22.606  40.966   2.307
15275W        W82058  13.775  31.062  12.199
15276W        W82059  23.629   8.916   2.962
15277W        W82060   4.266  43.762  13.952
15278W        W82061  41.754   5.904  11.109
15279W        W82062  15.962  26.710   3.144
15280W        W82063  25.686  43.771   3.632
15281W        W82064  36.224   9.801  11.649
15282W        W82065  35.058  17.716  11.035
15283W        W82066  26.127  10.791  14.057
15284W        W82067  31.305   8.800   1.075
15285W        W82068  31.640  13.541  14.809
15286W        W82069  13.129  20.106  13.720
15287W        W82070  26.986  20.060  12.860
15288W        W82071  34.656  10.681   2.893
15289W        W82072  18.554   0.769  10.641
15290W        W82073  29.595  32.762   1.763
15291W        W82074  23.040  35.154  14.451
15292W        W82075  27.104  40.913   0.648
15293W        W82076  36.412   0.329   2.717
15294W        W82077  26.616  21.481   2.371
15295W        W82078  25.454  26.797  14.292
15296W        W82079  18.095   5.103  13.953
15297W        W82080  24.681  27.102  14.266
15298W        W82081  28.644   0.197   4.071
15299W        W82082  37.700  19.934   3.215
15300W        W82083  34.558  39.134   4.168
15301W        W82084  27.086  43.437   5.109
15302W        W82085  35.927  23.762  14.459
15303W        W82086   6.319  21.496  12.614
15304W        W82087  36.398  24.789  10.529
15305W        W82088   8.816  27.631   4.261
15306W        W82089  32.421  42.526  14.254
15307W        W82090  34.451  22.690  12.935
15308W        W82091  40.454  32.326   0.366
15309W        W82092  33.412  38.765   3.516
15310W        W82093  16.733  40.151   0.538
15311W        W82094  28.997  19.777  11.669
15312W        W82095   1.340   2.276   2.235
15313W        W82096  35.356   0.740  12.474
15314W        W82097  11.234   9.349  13.619
15315W        W82098  15.841  42.490  13.344
15316W        W82099  28.475  24.614   1.216
15317W        W82100  20.915  35.506  11.536
15318W        W82101   1.258  23.747   2.305
15319W        W82102  44.349  28.447   3.721
15320W        W82103  14.164  21.970  12.485
15321W        W82104   9.542  21.515  13.628
15322W        W82105  25.664  17.303  14.990
15323W        W82106  23.565  30.048  11.617
15324W        W82107   8.753  27.866  11.933
15325W        W82108  25.078  20.127   0.768
15326W        W82109   3.578  17.408   2.047
15327W        W82110  15.721   1.914   2.649
15328W        W82111  36.786   6.147   3.685
15329W        W82112  25.764  35.193  14.745
15330W        W82113  39.428  10.273  11.177
15331W        W82114  13.751  27.601   0.160
15332W        W82115   9.465  42.297   0.472
15333W        W82116  28.514  31.861  10.452
15334W        W82117  43.734  21.146  14.381
15335W        W82118   2.131  28.526   2.860
15336W        W82119  16.096   1.740  11.949
15337W        W82120  31.141  38.711   2.736
15338W        W82121   4.869  16.897   2.408
15339W        W82122  21.706  35.953  10.405
15340W        W82123  29.211  24.716   2.355
15341W        W82124  27.431  20.979   1.568
15342W        W82125  38.099  10.014   1.300
15343W        W82126  33.915  25.765  12.887
15344W        W82127  12.011   9.043   5.478
15345W        W82128  35.458   6.177  11.522
15346W        W82129   2.209  38.534   2.747
15347W        W82130   8.776  30.118  11.458
15348W        W82131  16.727   7.393   1.824
15349W        W82132  17.056   4.855   1.687
15350W        W82133  26.485  44.197   5.013
15351W        W82134   3.438  44.840  11.012
15352W        W82135  23.210  28.872   2.782
15353W        W82136  42.802  11.181   3.500
15354W        W82137  25.085   3.216   2.458
15355W        W82138  23.587  29.706   3.692
15356W        W82139   0.713  32.238   0.389
15357W        W82140  15.063  36.941   2.850
15358W        W82141  14.717   7.986   4.228
15359W        W82142  41.919  40.481   1.051
15360W        W82143  12.768   5.143  13.560
15361W        W82144  33.335  34.130   1.619
15362W        W82145  14.844  26.503   0.022
15363W        W82146  32.230  34.338   1.861
15364W        W82147   8.588  26.118   2.248
15365W        W82148  42.506   0.962   1.397
15366W        W82149  18.546   6.727  11.551
15367W        W82150  20.322   3.406   2.779
15368W        W82151  20.090  24.276   4.177
15369W        W82152  10.159  32.636  11.981
15370W        W82153  29.422  27.048   0.542
15371W        W82154  27.684  34.080  13.069
15372W        W82155   9.348  16.936  12.887
15373W        W82156  16.100   3.873   2.015
15374W        W82157  35.254   7.213  14.805
15375W        W82158  11.195   2.447   4.798
15376W        W82159  17.989  13.361   2.795
15377W        W82160  43.349   7.446  13.432
15378W        W82161  34.864  35.570  12.104
15379W        W82162  16.059  12.866   4.202
15380W        W82163  34.412  25.471  13.105
15381W        W82164  37.978  33.285   3.020
15382W        W82165  23.519  28.916   2.244
15383W        W82166  20.643   9.924   1.142
15384W        W82167  17.561   4.029  11.501
15385W        W82168  38.590   9.915  13.498
15386W        W82169  30.355  11.661  13.037
15387W        W82170  17.235   7.529   1.826
15388W        W82171   1.729  39.047  13.550
15389W        W82172  14.088   2.351   5.157
15390W        W82173   5.805  43.145   0.745
15391W        W82174  17.289  18.477  11.968
15392W        W82175  19.632   6.706   0.038
15393W        W82176   6.732  32.358   0.348
15394W        W82177  30.232  20.285  10.602
15395W        W82178  28.581   6.716  14.417
15396W        W82179  36.794  42.282  11.315
15397W        W82180  42.514  43.302   3.205
15398W        W82181  14.548   8.776   1.619
15399W        W82182  44.811  17.718   2.848
15400W        W82183  22.795  13.665   4.564
15401W        W82184   4.907   6.857   4.303
15402W        W82185  22.160  20.966  13.017
15403W        W82186  17.663  19.766  13.577
15404W        W82187  24.727  19.192  14.594
15405W        W82188   7.338  22.774   0.970
15406W        W82189  29.592   4.166   0.944
15407W        W82190  23.662  15.989   3.658
15408W        W82191  41.350  12.068   3.617
15409W        W82192  15.278  14.718   4.660
15410W        W82193  20.037   2.472   9.779
15411W        W82194  26.685  30.155   1.586
15412W        W82195  12.733  34.286  11.623
15413W        W82196  22.098  21.011   4.416
15414W        W82197  15.084   0.396   1.987
15415W        W82198  38.837  26.127   2.691
15416W        W82199  42.112  14.885   0.851
15417W        W82200  33.663  35.170   1.261
15418W        W82201   3.961  13.364   3.912
15419W        W82202  41.963  16.906  13.979
15420W        W82203  44.418  27.918   3.681
15421W        W82204  25.427  19.187  12.925
15422W        W82205  12.014  11.735   0.755
15423W        W82206   7.787   1.946   4.163
15424W        W82207  40.291  20.404   4.305
15425W        W82208  42.253  25.097  11.509
15426W        W82209  28.604  33.789  10.707
15427W        W82210  14.592  12.634   2.129
15428W        W82211  40.555  18.016   3.206
15429W        W82212  32.674  31.437   0.813
15430W        W82213  34.789   0.781  11.202
15431W        W82214   6.421  10.866  11.212
15432W        W82215  39.379  34.049  11.893
15433W        W82216  18.304  26.643  12.805
15434W        W82217   3.698  31.126  10.921
15435W        W82218   8.115  26.222   5.099
15436W        W82219  22.077  18.705   1.165
15437W        W82220  29.073   2.933  13.955
15438W        W82221  14.662  27.471   0.749
15439W        W82222  37.618   2.137  13.482
15440W        W82223   4.367   3.957   0.310
15441W        W82224  12.307  10.634  11.195
15442W        W82225   9.079  37.368   4.127
15443W        W82226  26.061  17.634   1.356
15444W        W82227   8.223   1.275   2.862
15445W        W82228   9.644   8.820  13.122
15446W        W82229  11.252  22.693  12.579
15447W        W82230   3.660  10.936  13.998
15448W        W82231  12.159  23.554   1.706
15449W        W82232  20.721  24.221  14.698
15450W        W82233  22.815  35.054  13.461
15451W        W82234  11.296  33.891   1.285
15452W        W82235  13.354   6.426  13.400
15453W        W82236  28.102  33.571  14.682
15454W        W82237   0.385  22.662  12.561
15455W        W82238  18.462  34.614  13.034
15456W        W82239  32.942   0.327  12.534
15457W        W82240   5.865   8.473  12.584
15458W        W82241  26.580  22.749  14.989
15459W        W82242  35.024  26.537   1.610
15460W        W82243  37.979   7.948   4.570
15461W        W82244   2.007  31.364  13.150
15462W        W82245  20.097  12.797  13.065
15463W        W82246  39.270  21.592  11.720
15464W        W82247  29.249  20.254  14.397
15465W        W82248  19.317   6.433  14.581
15466W        W82249   6.171  41.775  14.276
15467W        W82250  30.979  25.477   0.961
15468W        W82251  31.359  39.737  11.901
15469W        W82252  24.076  14.599  12.825
15470W        W82253   7.745  23.392   4.576
15471W        W82254  19.345  24.021  13.073
15472W        W82255  13.648  44.735  10.999
15473W        W82256   9.724   9.584  12.016
15474W        W82257  33.874  23.103   2.849
15475W        W82258  24.488   7.345   2.306
15476W        W82259  44.681  12.835   2.696
15477W        W82260   1.410   3.195  12.417
15478W        W82261   1.703  40.787   4.533
15479W        W82262   9.602  38.920  10.989
15480W        W82263  24.197   7.238  13.537
15481W        W82264  33.150  24.931   2.159
15482W        W82265   7.227  37.795   3.136
15483W        W82266  11.932  10.644  14.996
15484W        W82267  24.099   4.664  14.313
15485W        W82268  18.486   6.194  10.401
15486W        W82269  38.102  26.800   4.154
15487W        W82270  44.617   6.100   1.290
15488W        W82271  23.411   2.292  13.156
15489W        W82272  44.825  18.666   0.567
15490W        W82273  24.793  31.188   1.779
15491W        W82274  18.760   4.672  11.273
15492W        W82275  42.483  21.514   1.785
15493W        W82276  10.215  20.056  14.180
15494W        W82277  37.959  13.102   3.147
15495W        W82278  25.784  21.208  14.132
15496W        W82279  43.970  26.637  11.214
15497W        W82280  38.284  14.275   3.521
15498W        W82281  28.618  30.099  12.913
15499W        W82282  16.730   2.328   3.215
15500W        W82283   9.355  14.838  13.446
15501W        W82284   4.418   0.952  12.872
15502W        W82285  22.445   6.267  13.102
15503W        W82286  32.462  15.634   4.710
15504W        W82287  31.526   1.543   1.944
15505W        W82288   6.044  41.825   2.717
15506W        W82289  34.580  25.299  10.600
15507W        W82290  22.980  14.056  11.096
15508W        W82291  19.991  25.557   0.426
15509W        W82292  29.804  33.016  14.473
15510W        W82293   8.835   4.608  12.048
15511W        W82294  13.274  38.369   2.761
15512W        W82295  29.574  25.479  13.392
15513W        W82296  31.486  33.996  14.119
15514W        W82297  37.788  33.078   1.973
15515W        W82298  21.922  18.209   5.043
15516W        W82299   1.480  21.842  12.567
15517W        W82300   5.700  30.633  12.423
15518W        W82301   6.814  16.024   4.104
15519W        W82302  24.258  14.721   3.820
15520W        W82303  15.594  42.916   0.887
15521W        W82304   6.851  17.339  12.870
15522W        W82305  35.915  38.763  10.390
15523W        W82306  30.114   2.973   0.416
15524W        W82307  31.862   2.010  13.484
15525W        W82308   8.759   6.844  10.529
15526W        W82309  11.247  31.637  13.881
15527W        W82310  27.915  17.434  12.176
15528W        W82311  15.046  33.136  11.237
15529W        W82312  12.824  13.704   2.346
15530W        W82313  22.301  21.044   1.889
15531W        W82314  14.757  35.140  10.779
15532W        W82315   4.936  14.756  12.103
15533W        W82316  35.315   9.172   9.993
15534W        W82317  15.873   3.439   4.527
15535W        W82318   4.275   3.935   2.845
15536W        W82319  34.560  28.733   3.519
15537W        W82320  25.125  23.433   5.521
15538W        W82321  21.303  19.510   1.812
15539W        W82322  10.908  38.338   3.409
15540W        W82323  30.229   8.761  13.956
15541W        W82324   3.967  23.001  14.363
15542W        W82325  31.474  42.808  13.384
15543W        W82326   8.215  37.080  11.913
15544W        W82327   9.183  38.035  10.940
15545W        W82328  41.600   6.138   1.422
15546W        W82329   0.978  11.309   4.193
15547W        W82330  41.140   0.258   2.319
15548W        W82331   7.661   7.654   5.196
15549W        W82332  18.230   8.841  11.921
15550W        W82333  23.673  43.355  14.980
15551W        W82334  29.178   2.745   4.345
15552W        W82335   7.970   8.673   0.791
15553W        W82336   9.858   9.111  11.059
15554W        W82337  15.135  39.526   0.243
15555W        W82338   2.680  13.699   0.342
15556W        W82339  36.954   7.617  11.012
15557W        W82340  36.288  31.698   3.587
15558W        W82341  32.074  12.345   3.710
15559W        W82342   5.215  20.323   0.692
15560W        W82343   0.872   5.907  13.095
15561W        W82344  40.584  28.512   4.591
15562W        W82345   6.699  37.313   2.225
15563W        W82346   0.549   1.997   1.506
15564W        W82347  11.139  28.710  14.789
15565W        W82348  35.832  15.004   5.094
15566W        W82349  19.165  10.308  10.678
15567W        W82350  20.193  40.407  13.414
15568W        W82351  19.488  37.828  11.058
15569W        W82352  14.033  10.882  12.939
15570W        W82353  24.963  40.819  11.588
15571W        W82354  33.984  39.314  11.453
15572W        W82355   3.201  30.432   0.112
15573W        W82356  39.449  32.854  14.574
15574W        W82357  18.309  32.957  13.441
15575W        W82358  17.369  16.774   1.387
15576W        W82359  34.360   0.266   0.367
15577W        W82360  21.760   4.692   3.752
15578W        W82361  18.801  37.298   2.914
15579W        W82362  10.116  34.961  14.399
15580W        W82363  36.608  39.469  10.476
15581W        W82364  14.221  41.432  12.464
15582W        W82365  35.435  42.439   0.337
15583W        W82366  12.893  12.906   3.310
15584W        W82367  35.056  19.773  13.091
15585W        W82368  20.119   0.166  14.926
15586W        W82369  15.762  34.329  11.972
15587W        W82370  36.353   1.422  13.948
15588W        W82371  28.220  43.999   2.217
15589W        W82372  15.358  22.739   1.361
15590W        W82373  32.531  38.579   2.537
15591W        W82374  39.755  39.931  13.327
15592W        W82375  16.599  27.210  14.772
15593W        W82376  17.542   4.315  12.637
15594W        W82377   3.621   0.239   3.115
15595W        W82378  33.914  30.176  10.699
15596W        W82379  20.362  14.167   3.164
15597W        W82380  21.032  22.061  12.827
15598W        W82381  12.876  33.068   1.768
15599W        W82382  27.653  11.289   2.638
15600W        W82383  10.609   5.719  11.528
15601W        W82384  26.455  32.509   4.906
15602W        W82385   6.055  16.023  14.961
15603W        W82386  36.390  39.878   2.890
15604W        W82387  33.647  12.113  13.883
15605W        W82388   7.454  43.683  14.704
15606W        W82389  27.943  15.550  11.026
15607W        W82390  20.741   6.807   0.872
15608W        W82391  33.504  11.990   3.593
15609W        W82392  15.155   3.012   0.437
15610W        W82393  37.015  39.328   2.456
15611W        W82394  40.871  25.254  10.564
15612W        W82395  16.344  30.848   1.751
15613W        W82396  11.567  42.568  12.490
15614W        W82397   5.176  33.477   1.167
15615W        W82398   6.913  35.830   2.243
15616W        W82399  43.823   5.106   3.315
15617W        W82400   0.877   6.718   2.305
15618W        W82401  26.249  31.943  11.168
15619W        W82402  19.531  13.930  12.933
15620W        W82403  17.269  17.109  12.677
15621W        W82404  19.595  36.183   0.668
15622W        W82405  37.120  25.203   1.825
15623W        W82406  25.689  26.458  13.045
15624W        W82407   5.649  12.056   1.372
15625W        W82408  11.459  16.479  11.681
15626W        W82409  27.455   4.303   2.729
15627W        W82410   2.029  14.663  12.013
15628W        W82411  35.943  35.003   3.328
15629W        W82412  21.585  38.272  12.764
15630W        W82413  15.987  14.940  10.748
15631W        W82414   7.653   6.840   0.920
15632W        W82415  38.927  10.394  12.324
15633W        W82416  23.612  25.967  13.982
15634W        W82417  26.117   1.828   4.947
15635W        W82418   4.270  12.581  13.420
15636W        W82419  43.060   3.843   2.650
15637W        W82420  17.594  11.307   0.476
15638W        W82421  27.653   7.167   0.068
15639W        W82422   1.532  19.101   0.704
15640W        W82423  38.868  44.929   0.506
15641W        W82424  44.019   2.123   3.456
15642W        W82425  25.053  12.480   2.400
15643W        W82426  35.826  37.889  10.988
15644W        W82427  44.263  29.483   0.423
15645W        W82428  27.608  44.782   1.302
15646W        W82429  34.032   8.446  11.959
15647W        W82430  43.415  28.024   4.526
15648W        W82431  31.717  26.660  13.842
15649W        W82432  16.641  25.176   2.423
15650W        W82433  38.446   5.980  13.483
15651W        W82434  21.227  16.258   2.270
15652W        W82435  42.783  39.617   4.232
15653W        W82436  16.367  16.039  11.047
15654W        W82437  38.748  28.871   3.470
15655W        W82438  36.356  33.056   0.046
15656W        W82439  19.172  20.483   1.535
15657W        W82440  32.909   1.962   2.205
15658W        W82441   5.602  43.896  10.787
15659W        W82442  26.616  18.782  14.297
15660W        W82443  17.770  12.246   2.298
15661W        W82444  22.175  26.055  13.003
15662W        W82445  27.752  25.786  14.833
15663W        W82446  19.983  30.631   2.815
15664W        W82447   6.936   0.921  12.147
15665W        W82448  36.061  42.780   4.349
15666W        W82449  30.862   6.872  12.585
15667W        W82450  17.129   3.533  11.130
15668W        W82451  16.598  10.885  14.315
15669W        W82452  41.988  43.537  10.714
15670W        W82453   8.247  41.098  13.845
15671W        W82454  18.402   0.989  12.248
15672W        W82455  43.181  30.713   2.187
15673W        W82456  24.027  31.941   3.665
15674W        W82457  30.201  36.182  12.011
15675W        W82458   5.222   8.781   0.850
15676W        W82459  38.158   7.459  11.924
15677W        W82460  35.506  32.450  12.690
15678W        W82461  25.191  44.827  10.420
15679W        W82462  18.111  40.888   1.177
15680W        W82463  12.708  22.960   4.450
15681W        W82464  17.102  27.790   0.738
15682W        W82465  40.387  28.654  11.530
15683W        W82466  15.565  17.279  12.903
15684W        W82467  32.659  38.110   3.286
15685W        W82468  27.107  26.369   2.794
15686W        W82469  22.914   1.060   4.143
15687W        W82470  20.750  43.583  12.458
15688W        W82471  30.462  38.775   2.240
15689W        W82472  35.058   8.760   0.236
15690W        W82473   4.269  13.425  14.497
15691W        W82474  40.260  37.272  14.134
15692W        W82475   5.499  39.662   4.530
15693W        W82476  19.157  10.796   3.191
15694W        W82477   0.956   6.508  11.497
15695W        W82478  29.432   7.695  13.890
15696W        W82479   7.152  24.709   2.317
15697W        W82480  27.559  32.158  10.895
15698W        W82481  42.529  43.311   3.713
15699W        W82482  17.969  37.798   9.865
15700W        W82483  28.645   1.235   3.207
15701W        W82484  24.025  17.135  12.002
15702W        W82485   9.680  21.877   2.786
15703W        W82486  27.553  37.024   4.096
15704W        W82487  23.555  33.120   3.410
15705W        W82488  32.467   0.347  11.496
15706W        W82489  18.926  40.565   4.790
15707W        W82490  20.372  16.478   4.792
15708W        W82491  40.339  43.858  10.441
15709W        W82492   5.406  24.102   3.866
15710W        W82493  33.650  34.467  10.021
15711W        W82494  19.581   9.175   2.783
15712W        W82495  24.697   4.551  13.519
15713W        W82496  12.252  32.533   1.423
15714W        W82497  32.901   6.818   1.474
15715W        W82498  21.548  25.711   1.927
15716W        W82499  34.271  44.720  13.083
15717W        W82500  36.305  11.292   4.285
15718W        W82501  29.517  24.741   0.023
15719W        W82502   9.632  23.625  14.365
15720W        W82503  34.583  12.082  13.398
15721W        W82504  39.204  38.401  10.677
15722W        W82505  32.379  30.880  12.881
15723W        W82506   4.994  14.120   0.370
15724W        W82507   5.364   9.193  10.723
15725W        W82508  40.054  35.295  11.634
15726W        W82509  10.847  38.906   1.423
15727W        W82510  29.038  38.215   4.662
15728W        W82511  12.357   7.904  11.697
15729W        W82512  34.162  15.923   3.678
15730W        W82513  36.551  43.327   4.166
15731W        W82514  24.306  22.507  13.043
15732W        W82515  39.493   9.724   4.611
15733W        W82516  23.189   6.718   2.416
15734W        W82517  31.629  18.640  10.837
15735W        W82518  29.135  10.278  12.773
15736W        W82519   7.822  29.671   3.670
15737W        W82520  31.942   5.920  10.604
15738W        W82521  19.326   8.657   3.383
15739W        W82522  28.493  40.296  13.087
15740W        W82523  23.782  28.929  10.498
15741W        W82524  21.057  12.592   0.984
15742W        W82525   8.883  40.696   4.934
15743W        W82526  34.507  30.009  14.842
15744W        W82527  13.601  23.580  11.549
15745W        W82528  11.328   0.228  13.120
15746W        W82529  11.843  27.434  11.479
15747W        W82530  33.918  15.975   0.035
15748W        W82531  23.978  13.256   0.041
15749W        W82532  40.112  38.500   4.927
15750W        W82533   1.158  35.617  12.008
15751W        W82534  23.158  29.235   0.647
15752W        W82535   5.154  43.920  10.533
15753W        W82536  32.285  19.725   4.191
15754W        W82537  39.611  24.066   1.718
15755W        W82538  15.642   5.045  11.125
15756W        W82539   5.172  38.049  11.239
15757W        W82540   3.722  30.123  12.042
15758W        W82541  38.012  27.402  14.319
15759W        W82542  19.483  26.500  10.859
15760W        W82543  21.614  20.953  10.520
15761W        W82544  42.944  27.623   3.695
15762W        W82545   0.206  17.317   0.782
15763W        W82546  17.152  30.382   1.790
15764W        W82547  43.904  21.048  14.890
15765W        W82548  43.261  19.724   5.050
15766W        W82549  35.525  17.108   1.178
15767W        W82550  34.463   6.123  13.362
15768W        W82551  21.470  11.739  11.280
15769W        W82552  29.009  30.831   3.857
15770W        W82553  36.365  35.056  11.619
15771W        W82554  13.664  33.021   4.629
15772W        W82555  30.289  40.578   3.529
15773W        W82556  18.178  20.896   1.862
15774W        W82557  26.620  11.261   0.245
15775W        W82558  32.411  17.518   1.305
15776W        W82559  21.284  32.572   0.377
15777W        W82560  22.289   8.763  12.185
15778W        W82561   0.747  36.445  12.184
15779W        W82562  15.642  38.782   1.935
15780W        W82563   0.298   5.386   2.536
15781W        W82564   3.857   6.237   3.148
15782W        W82565  44.235  24.499   1.940
15783W        W82566  28.047  17.786   2.907
15784W        W82567  25.856  19.535  12.401
15785W        W82568  30.144  21.310   4.086
15786W        W82569  20.053  42.702  12.912
15787W        W82570  25.440   5.307  11.995
15788W        W82571   0.033  19.490   4.481
15789W        W82572  29.656  42.432   5.110
15790W        W82573  30.071  20.973  12.950
15791W        W82574  43.302   1.284   3.889
15792W        W82575  41.236  35.086  12.378
15793W        W82576  39.853  34.045  12.117
15794W        W82577  11.794  40.384  13.949
15795W        W82578   9.853  41.598   1.999
15796W        W82579  15.107  42.695  14.830
15797W        W82580  20.076   4.933  10.817
15798W        W82581  32.919  29.450  14.431
15799W        W82582   1.475  34.479  11.498
15800W        W82583  33.074  19.513   9.602
15801W        W82584  31.625  17.030   0.842
15802W        W82585  29.370  29.928  10.714
15803W        W82586   4.483  36.134  14.793
15804W        W82587   8.203   2.365   2.903
15805W        W82588  29.566   1.266  13.439
15806W        W82589  44.493   3.893   4.584
15807W        W82590  26.088   9.338   1.406
15808W        W82591  37.645  39.434  10.508
15809W        W82592  41.747   9.718  11.475
15810W        W82593  33.444  27.982  11.896
15811W        W82594  39.069  44.421   3.706
15812W        W82595  14.368  28.176   3.160
15813W        W82596  14.127  40.383  13.218
15814W        W82597  18.894  28.357  12.946
15815W        W82598  34.438  19.099   3.556
15816W        W82599  36.691  39.377   4.306
15817W        W82600  20.293  24.633   3.882
15818W        W82601  24.408  36.421  12.978
15819W        W82602  27.837  32.968  12.500
15820W        W82603  31.214   0.817   0.213
15821W        W82604  32.200  20.073   3.247
15822W        W82605  21.125   3.977   3.572
15823W        W82606   5.901  10.845   3.597
15824W        W82607  18.301   3.447  14.323
15825W        W82608  11.193   6.069  14.309
15826W        W82609  23.789  42.490  14.759
15827W        W82610   0.798  13.086  14.973
15828W        W82611  27.641  33.565   3.261
15829W        W82612  28.742  39.618  10.632
15830W        W82613  41.392  19.057  14.426
15831W        W82614   7.591  20.679  14.507
15832W        W82615  17.091  39.729   5.005
15833W        W82616  42.088   4.964   4.226
15834W        W82617  17.269  29.129  13.497
15835W        W82618  25.256   3.466   5.123
15836W        W82619  22.656  26.157  11.593
15837W        W82620  39.980  30.118   2.844
15838W        W82621  38.708  10.698  10.557
15839W        W82622  18.688  20.611  11.562
15840W        W82623  35.377  25.419   1.694
15841W        W82624  15.656  21.229  11.277
15842W        W82625  33.585  42.009  14.266
15843W        W82626  20.141   7.719   2.441
15844W        W82627  33.788   1.423   4.190
15845W        W82628  32.491  31.082   1.194
15846W        W82629  26.471  32.794   4.084
15847W        W82630   8.393  32.868   1.498
15848W        W82631  41.756  26.064  14.492
15849W        W82632  30.559   7.690  10.627
15850W        W82633  30.481  32.208  14.765
15851W        W82634  29.958  35.779   3.263
15852W        W82635  41.266  20.477  13.090
15853W        W82636  28.247  15.823   1.723
15854W        W82637  37.791   3.250   3.577
15855W        W82638  31.001  32.634   2.949
15856W        W82639  40.578  14.268  12.151
15857W        W82640   9.418   5.259  14.920
15858W        W82641   3.461  44.784  12.413
15859W        W82642   2.438  39.184   9.917
15860W        W82643  12.714  13.319  11.208
15861W        W82644  32.134  36.012   3.195
15862W        W82645   3.253  33.426   3.244
15863W        W82646  16.257  36.324   4.679
15864W        W82647  10.715   3.991   4.550
15865W        W82648   6.326  21.470   4.051
15866W        W82649  34.854  12.621  14.881
15867W        W82650  13.162  44.801   0.950
15868W        W82651   1.326  15.081   0.930
15869W        W82652   9.627  19.847   3.842
15870W        W82653  43.842   1.478  13.005
15871W        W82654   1.403  43.282  11.087
15872W        W82655  36.468   1.567  12.521
15873W        W82656   7.128  41.869   0.917
15874W        W82657   6.573  26.643  11.928
15875W        W82658  12.765   9.674   0.262
15876W        W82659  35.554  13.601   2.395
15877W        W82660  16.101  37.863   1.920
15878W        W82661  38.875   0.954   4.375
15879W        W82662  14.736  28.556  14.219
15880W        W82663  12.244  17.150   2.688
15881W        W82664  41.494  19.362   3.290
15882W        W82665   9.752  34.598  13.511
15883W        W82666  43.042  15.212   1.457
15884W        W82667  35.115  28.068   3.803
15885W        W82668  33.408  36.540   2.723
15886W        W82669   8.782  11.925   2.282
15887W        W82670  21.025  18.244  14.806
15888W        W82671   0.415   1.449  12.512
15889W        W82672  39.679   7.078  11.099
15890W        W82673  19.727  37.317   2.894
15891W        W82674   4.938  29.423  12.355
15892W        W82675  34.455   7.640  12.505
15893W        W82676  32.241  37.319   0.824
15894W        W82677  12.823   0.743  10.752
15895W        W82678  25.726  31.536  12.011
15896W        W82679  42.805   5.438   3.705
15897W        W82680   0.075   8.220   0.393
15898W        W82681  28.538   1.365  13.327
15899W        W82682  14.269  17.592   0.505
15900W        W82683   6.783  18.339  14.258
15901W        W82684  37.376   4.451   1.778
15902W        W82685  18.203   7.825  12.050
15903W        W82686  28.991  31.943  10.677
15904W        W82687  12.793  31.901   4.120
15905W        W82688  28.580  15.222   4.255
15906W        W82689  22.061   9.298  13.720
15907W        W82690   1.190  34.804  12.338
15908W        W82691  13.069  13.363   1.734
15909W        W82692  21.462   7.267  12.628
15910W        W82693   1.515   2.257   1.358
15911W        W82694  12.295  13.125   2.200
15912W        W82695  19.073  10.321  11.598
15913W        W82696  27.949  18.840   4.557
15914W        W82697  25.408  39.267  13.873
15915W        W82698  19.542  21.746   0.752
15916W        W82699  16.069  16.718  12.643
15917W        W82700  13.882  20.003   2.878
15918W        W82701  40.410  18.510   4.152
15919W        W82702  10.125  43.891   2.317
15920W        W82703  23.552  31.550  11.469
15921W        W82704  35.595  15.439  12.186
15922W        W82705  27.165  24.228   3.662
15923W        W82706  43.564   7.403  12.613
15924W        W82707  38.749  12.407   1.143
15925W        W82708   7.442   7.315  13.429
15926W        W82709  12.229  35.842   1.822
15927W        W82710  35.639  14.131   3.781
15928W        W82711  24.481  39.525  11.485
15929W        W82712  12.829  31.583  14.381
15930W        W82713  32.049  35.039   1.302
15931W        W82714   1.311  25.296   4.030
15932W        W82715  31.305  11.943   0.417
15933W        W82716   1.281  27.393  12.041
15934W        W82717  17.143   0.655  14.879
15935W        W82718  30.568  19.578  10.180
15936W        W82719  32.532  35.094  11.413
15937W        W82720  38.130  44.915   4.649
15938W        W82721  41.546  27.927  11.370
15939W        W82722  39.298   4.443   1.360
15940W        W82723  42.385   9.518   3.810
15941W        W82724   1.952  34.997  12.090
15942W        W82725  21.680  34.863   0.406
15943W        W82726  23.877  39.515   3.364
15944W        W82727  21.310  18.173   1.374
15945W        W82728  41.754  35.117  12.394
15946W        W82729  32.518  43.008   3.360
15947W        W82730  35.134   3.342   2.487
15948W        W82731   8.086  18.825   3.549
15949W        W82732  17.769  24.609  11.334
15950W        W82733  35.899  33.358   3.792
15951W        W82734   0.784  17.611  10.523
15952W        W82735   6.218  43.339  14.842
15953W        W82736  22.584  43.497   0.856
15954W        W82737   5.037  28.718   1.152
15955W        W82738  40.638  27.554  11.075
15956W        W82739  41.176  33.062  14.789
15957W        W82740  25.490   4.799  11.827
15958W        W82741   7.669  39.371  10.639
15959W        W82742   2.969   1.843  10.711
15960W        W82743  29.670  10.717  11.113
15961W        W82744  29.058  33.125   2.222
15962W        W82745   3.131  41.982   2.710
15963W        W82746  25.116  41.436  13.982
15964W        W82747  16.154  25.645  11.143
15965W        W82748   7.894  10.527   2.474
15966W        W82749   5.079  21.577   3.955
15967W        W82750  31.554   7.283   0.223
15968W        W82751  13.730  10.737  10.696
15969W        W82752  10.930  15.301   2.835
15970W        W82753   4.640   8.102  12.044
15971W        W82754   0.994  15.251  13.760
15972W        W82755  14.722  41.709  14.917
15973W        W82756  42.825  31.558  13.200
15974W        W82757  42.981  17.017  14.822
15975W        W82758  42.156   6.825  12.889
15976W        W82759   1.727  20.774  13.325
15977W        W82760  12.789  42.412  14.304
15978W        W82761  39.829   6.520  14.009
15979W        W82762   1.235  32.299   4.432
15980W        W82763  24.544  29.090   0.199
15981W        W82764  24.079  22.213  13.424
15982W        W82765   2.053  13.640   4.092
15983W        W82766  24.164  10.693  14.412
15984W        W82767  28.935   5.886  14.198
15985W        W82768  32.803  31.417  11.964
15986W        W82769  37.928   6.760  11.598
15987W        W82770  13.693  44.713   3.169
15988W        W82771  27.130  24.103  14.314
15989W        W82772  29.515  30.681   4.633
15990W        W82773  19.161  18.957  14.097
15991W        W82774   3.996   1.563  13.494
15992W        W82775  15.724  13.597   3.178
15993W        W82776  30.439  26.094   2.314
15994W        W82777   0.341  24.057   1.885
15995W        W82778  16.199  14.348  11.121
15996W        W82779   9.243  38.838  11.570
15997W        W82780  32.598  18.947   0.320
15998W        W82781  32.634  21.523   1.144
15999W        W82782  23.040  15.604   2.190
16000W        W82783  38.393  44.844  12.466
16001W        W82784  31.669  33.974   4.298
16002W        W82785  32.549  44.676  12.717
16003W        W82786  11.540   0.223  14.813
16004W        W82787  10.705  26.694   1.936
16005W        W82788   3.675  12.917  11.130
16006W        W82789  14.894  23.542   2.407
16007W        W82790   1.547   9.045  10.082
16008W        W82791  26.538  26.298  11.148
16009W        W82792   5.764  30.072  11.116
16010W        W82793  21.036  43.374   4.496
16011W        W82794  14.698  33.358   1.667
16012W        W82795  28.474   0.431  12.479
16013W        W82796  40.263  28.552  10.536
16014W        W82797  37.684  13.445  11.559
16015W        W82798  34.593  31.087  14.472
16016W        W82799  26.171  40.947   1.357
16017W        W82800  21.275  12.621   3.383
16018W        W82801  33.643  19.513  13.504
16019W        W82802  33.849  31.031  12.636
16020W        W82803   8.714  33.429  12.511
16021W        W82804  26.636   1.549   0.562
16022W        W82805   1.294  40.780   2.700
16023W        W82806  32.983  19.286   0.397
16024W        W82807   5.198   7.904   3.749
16025W        W82808   8.518  29.028   2.781
16026W        W82809  30.020  29.161  10.749
16027W        W82810  25.330  15.088  14.966
16028W        W82811  34.884  35.889  11.560
16029W        W82812  14.339  10.027  14.822
16030W        W82813  26.046   1.294  13.001
16031W        W82814   0.825   7.604   2.992
16032W        W82815  12.453  33.973  14.722
16033W        W82816   1.565   0.445   1.207
16034W        W82817  22.003  10.579  13.931
16035W        W82818   1.574  13.486  12.460
16036W        W82819   5.688  34.403  11.529
16037W        W82820   9.902   2.543   1.809
16038W        W82821   3.009   8.723   0.371
16039W        W82822   6.122  39.792  11.924
16040W        W82823  18.994   7.190   1.029
16041W        W82824  21.166  43.437  13.889
16042W        W82825   5.670  19.131  13.725
16043W        W82826  33.367  34.006  10.433
16044W        W82827  18.049  43.086   3.689
16045W        W82828  37.466  29.548  11.720
16046W        W82829  33.591  34.476   0.481
16047W        W82830  44.598  42.264  12.635
16048W        W82831  17.628  23.448  14.693
16049W        W82832  29.444   3.347  10.827
16050W        W82833   5.970  23.770  12.480
16051W        W82834  27.621  18.037  14.624
16052W        W82835  34.097  18.184  14.403
16053W        W82836  22.030  44.525   1.374
16054W        W82837  27.878  19.166  11.159
16055W        W82838  20.028  27.992  13.770
16056W        W82839   3.322  27.123  10.654
16057W        W82840   0.064   7.340  10.277
16058W        W82841  30.528  34.971   0.747
16059W        W82842  13.215  32.528   3.551
16060W        W82843  28.937  14.264   3.117
16061W        W82844  28.520  18.172   3.539
16062W        W82845  15.756  18.181   2.018
16063W        W82846  24.446  40.893   1.751
16064W        W82847  12.228  15.614  14.418
16065W        W82848  12.706  16.282   2.434
16066W        W82849  23.233  24.403   1.928
16067W        W82850  37.902  12.107   4.258
16068W        W82851  42.528  29.922  13.905
16069W        W82852  21.047  10.089  11.957
16070W        W82853  42.955  29.320  13.507
16071W        W82854  15.097  14.337  14.584
16072W        W82855  10.276  25.497   4.697
16073W        W82856  15.148  42.914  10.986
16074W        W82857  26.083  16.083   4.711
16075W        W82858  22.266  38.791   1.106
16076W        W82859  43.673   0.273   1.932
16077W        W82860  25.124   8.941   2.218
16078W        W82861  33.510   6.654  13.904
16079W        W82862  22.068  41.566   1.242
16080W        W82863  28.161  31.364   4.645
16081W        W82864  23.637   3.040   0.595
16082W        W82865   9.246  37.340   0.748
16083W        W82866  30.921  42.448   4.511
16084W        W82867   4.206  32.435  14.554
16085W        W82868  15.522   3.243   3.157
16086W        W82869  43.068   0.243   3.611
16087W        W82870   1.268   9.796   1.980
16088W        W82871  28.625  40.052  12.614
16089W        W82872  35.793  18.037  12.192
16090W        W82873  20.596  15.200  12.153
16091W        W82874  19.769  36.844   1.115
16092W        W82875  10.273  39.303   1.815
16093W        W82876  15.036  13.159   0.445
16094W        W82877  13.975  38.412  10.325
16095W        W82878  29.404  15.306   2.318
16096W        W82879  29.584  10.546   0.427
16097W        W82880  28.084  27.445  13.331
16098W        W82881  32.173  29.729  11.097
16099W        W82882  29.397   6.827  12.557
16100W        W82883  33.058  21.794  13.852
16101W        W82884   2.273  44.483  10.770
16102W        W82885  34.678  19.549  12.477
16103W        W82886   5.130  25.501   4.649
16104W        W82887  22.625  15.278   4.162
16105W        W82888  14.781  44.715  13.877
16106W        W82889   0.914  33.126   5.241
16107W        W82890  23.715  37.864   3.770
16108W        W82891  39.046  32.143  14.353
16109W        W82892  37.617   1.162  11.125
16110W        W82893  12.645  43.721   4.625
16111W        W82894  43.258   9.339   4.003
16112W        W82895   3.425  10.763  11.802
16113W        W82896  37.068  16.361  14.521
16114W        W82897   1.259  15.103   1.506
16115W        W82898  13.713  38.533   1.881
16116W        W82899  30.912   9.314  10.931
16117W        W82900  35.158  19.497   2.313
16118W        W82901   1.320  38.095   0.367
16119W        W82902  34.583  44.784   4.640
16120W        W82903  14.763  37.617  11.025
16121W        W82904  14.226  13.718  12.806
16122W        W82905  13.820  20.936  11.084
16123W        W82906  16.688  17.246   0.227
16124W        W82907  23.250   1.915   4.536
16125W        W82908  17.309  16.602  12.871
16126W        W82909  34.646  15.120  11.505
16127W        W82910  34.623  30.094   4.214
16128W        W82911  30.088  23.327   2.778
16129W        W82912  12.445  15.370   3.371
16130W        W82913  33.115  27.659   2.311
16131W        W82914  26.965  17.333   0.297
16132W        W82915  20.600  30.481  14.569
16133W        W82916  31.425  14.932   4.172
16134W        W82917  41.477  10.723  11.947
16135W        W82918  20.467  33.148  14.900
16136W        W82919  35.669  13.953  11.961
16137W        W82920  19.586  28.968  10.686
16138W        W82921  29.743  19.268   3.830
16139W        W82922  31.694  10.288   2.366
16140W        W82923   9.234  35.143  10.338
16141W        W82924  38.851  40.344  14.864
16142W        W82925   3.042   4.826  14.822
16143W        W82926   2.390  24.940   2.832
16144W        W82927  44.036  44.843   1.772
16145W        W82928  12.249  20.178   2.589
16146W        W82929  29.098  38.894   3.638
16147W        W82930  22.742  24.686  10.131
16148W        W82931  13.295  23.722   3.666
16149W        W82932  36.567  25.150   1.853
16150W        W82933   0.977  38.557  14.883
16151W        W82934  18.238  12.186  14.863
16152W        W82935  31.887  44.259   1.192
16153W        W82936  15.162  30.479   3.292
16154W        W82937  20.104  10.526   3.216
16155W        W82938   2.781  34.794  14.113
16156W        W82939  34.484   1.984  11.637
16157W        W82940  25.724   1.766  11.122
16158W        W82941  31.439   4.974   1.302
16159W        W82942  24.984   3.364  12.961
16160W        W82943  34.407  23.062   1.896
16161W        W82944  24.564  31.656   1.570
16162W        W82945  34.978  19.757   1.868
16163W        W82946   7.244   0.716   4.565
16164W        W82947  10.691  20.383  13.518
16165W        W82948  40.236  25.501   3.394
16166W        W82949  23.596  17.804  11.627
16167W        W82950   3.269  40.355  10.692
16168W        W82951   1.478  40.017  11.955
16169W        W82952  39.470  21.221   2.202
16170W        W82953   7.899  41.688  13.758
16171W        W82954   0.569   5.396   1.271
16172W        W82955   1.372  39.733   1.731
16173W        W82956  28.430   4.692  14.014
16174W        W82957   5.394  14.185  10.714
16175W        W82958   7.631  28.210  11.661
16176W        W82959  15.225  18.249  12.110
16177W        W82960  32.012   3.263   3.336
16178W        W82961  13.924  15.964   0.149
16179W        W82962  35.083   4.079  14.879
16180W        W82963  38.833  27.393  12.589
16181W        W82964  42.707  38.811  14.364
16182W        W82965  34.007   0.390  14.935
16183W        W82966  31.276  21.603   2.259
16184W        W82967   4.804   4.506   1.223
16185W        W82968   7.771  12.221  14.847
16186W        W82969  16.784  41.853  13.824
16187W        W82970  42.488  34.500  14.740
16188W        W82971  34.535  35.392  13.546
16189W        W82972   9.049   7.809   2.697
16190W        W82973  40.056   6.927  14.309
16191W        W82974  23.154   1.828  10.164
16192W        W82975  36.984  31.380   2.055
16193W        W82976  27.100  30.095   2.434
16194W        W82977  28.410  37.886  12.605
16195W        W82978  40.053   5.273   4.299
16196W        W82979  11.674  31.034  11.651
16197W        W82980   0.659  26.932  13.941
16198W        W82981  44.460  19.777  13.957
16199W        W82982   2.771  38.590   1.319
16200W        W82983  44.339  22.190   4.039
16201W        W82984  43.681   4.257  11.937
16202W        W82985  36.800  21.122  13.301
16203W        W82986  21.657  34.076  13.339
16204W        W82987  10.129  19.845   2.632
16205W        W82988   5.790  35.288  14.374
16206W        W82989  30.406  31.168  13.901
16207W        W82990  16.619  20.733   4.690
16208W        W82991  27.037  12.066  10.502
16209W        W82992   1.674  33.293   3.713
16210W        W82993  34.949  16.499  14.303
16211W        W82994  44.738  19.194  11.188
16212W        W82995  10.681   2.982   1.676
16213W        W82996  18.519  16.137  11.979
16214W        W82997  30.894  13.877  12.458
16215W        W82998  34.122   0.904   2.211
16216W        W82999  44.872  43.164  14.211
16217W        W83000  39.306  24.071  14.508
16218W        W83001   0.073  15.535   0.315
16219W        W83002  21.770  18.222   1.600
16220W        W83003  20.223  37.899   0.349
16221W        W83004  23.591  23.596   1.405
16222W        W83005  28.189  39.971   4.943
16223W        W83006  28.967   2.330   4.634
16224W        W83007   3.910   0.336  10.695
16225W        W83008  36.349  17.059   2.835
16226W        W83009   7.462  40.355   4.559
16227W        W83010   6.970  20.968   2.730
16228W        W83011  11.773   9.796   1.327
16229W        W83012  23.285  30.932   1.487
16230W        W83013  36.119  30.442  14.811
16231W        W83014  12.999  14.792   1.165
16232W        W83015  23.631  31.855   0.058
16233W        W83016  21.318  19.969   4.388
16234W        W83017  39.408  43.354  10.807
16235W        W83018  41.595  40.513  13.446
16236W        W83019  42.781   6.478  11.636
16237W        W83020  20.116   9.907   4.309
16238W        W83021  42.327  37.181   1.745
16239W        W83022  22.693  12.425   1.097
16240W        W83023  28.978  16.524  13.025
16241W        W83024  10.329  16.713   3.771
16242W        W83025  44.811  12.402  11.572
16243W        W83026  38.552  10.904  14.771
16244W        W83027   7.594  42.476  11.121
16245W        W83028   0.420  30.463   1.735
16246W        W83029  37.490  22.250   0.478
16247W        W83030   7.814  20.985  13.126
16248W        W83031  16.533  27.950  12.507
16249W        W83032  38.258  20.619  14.479
16250W        W83033  27.585   2.017   4.536
16251W        W83034   1.450  17.024   1.892
16252W        W83035  25.933  38.450   4.947
16253W        W83036   3.184  24.720   3.616
16254W        W83037  22.512  35.487  13.409
16255W        W83038  18.111   0.039   2.325
16256W        W83039  14.009  39.686   4.995
16257W        W83040  13.180  25.405   1.607
16258W        W83041  10.800  28.984   5.223
16259W        W83042  17.828  38.340   0.310
16260W        W83043  10.637  33.955   4.159
16261W        W83044  11.818   3.478   2.266
16262W        W83045  38.620   1.778  14.308
16263W        W83046   4.878  33.063   2.491
16264W        W83047   4.191  18.293   2.306
16265W        W83048  15.585  36.080   4.089
16266W        W83049  43.384   3.540  12.021
16267W        W83050  18.733  11.895   2.781
16268W        W83051   9.960   8.700   0.566
16269W        W83052  39.292  26.634   2.807
16270W        W83053  44.202  33.997   3.821
16271W        W83054  21.005  21.824   2.813
16272W        W83055  43.204  23.792   2.096
16273W        W83056  33.985  21.962  12.658
16274W        W83057  15.601  10.151  12.568
16275W        W83058  28.936  32.451  13.010
16276W        W83059   0.805  13.285   3.700
16277W        W83060  41.684  37.033  13.634
16278W        W83061  16.696  10.350   2.702
16279W        W83062   2.944  43.851   4.311
16280W        W83063  38.089  29.161   0.680
16281W        W83064  42.348  12.796  14.795
16282W        W83065  32.805  29.577   2.397
16283W        W83066  29.693  11.858   3.657
16284W        W83067  35.069  36.653  13.549
16285W        W83068  21.155  36.908   1.283
16286W        W83069   6.997  39.494   1.884
16287W        W83070   3.896  30.899  13.511
16288W        W83071   7.272  10.193  11.911
16289W        W83072  40.965   0.059  12.998
16290W        W83073  35.408  14.909  12.846
16291W        W83074   0.599  12.711  11.034
16292W        W83075  38.987  25.218  14.546
16293W        W83076   3.696   7.301   0.762
16294W        W83077  31.034   4.182  11.995
16295W        W83078  21.718  33.629  13.612
16296W        W83079  26.665  31.046   2.132
16297W        W83080  23.997   5.372  11.600
16298W        W83081  25.632  31.070   0.623
16299W        W83082  43.492  21.261   0.802
16300W        W83083  40.704  30.864   1.671
16301W        W83084  33.967  17.082  13.095
16302W        W83085  26.927  10.797   2.214
16303W        W83086  19.299  41.807  14.968
16304W        W83087  38.515   7.754   0.290
16305W        W83088  42.007   9.110  14.868
16306W        W83089  36.028  30.088   4.526
16307W        W83090  33.308  17.057  12.388
16308W        W83091  27.040  40.443   3.841
16309W        W83092   6.254  29.674   4.099
16310W        W83093  38.524  15.788   3.471
16311W        W83094  10.310  43.055  13.359
16312W        W83095  30.586  10.408   0.983
16313W        W83096  35.307  35.343  14.332
16314W        W83097  20.038  16.542   2.952
16315W        W83098  21.724   5.585   2.814
16316W        W83099  12.870   5.259  10.781
16317W        W83100   7.033   3.594  11.104
16318W        W83101  21.593  10.769   0.475
16319W        W83102   6.655   3.343   1.257
16320W        W83103   6.207  42.174  13.330
16321W        W83104  17.882  23.220  14.303
16322W        W83105   9.745  31.661   4.032
16323W        W83106  40.801  28.170   3.213
16324W        W83107  12.335  39.378   1.496
16325W        W83108  29.458  26.198  14.485
16326W        W83109   2.338  24.163  10.609
16327W        W83110  12.704  34.915   4.340
16328W        W83111  31.512  25.667  10.661
16329W        W83112  14.970   3.609  12.949
16330W        W83113   4.379   0.369  13.943
16331W        W83114   6.259   1.834  14.102
16332W        W83115  11.179  21.155   2.673
16333W        W83116  35.936  31.750  14.739
16334W        W83117  39.834  13.751   0.936
16335W        W83118  16.935  26.162   1.925
16336W        W83119   6.874  37.473   2.701
16337W        W83120  38.829  31.452  11.583
16338W        W83121  25.992  36.966   3.640
16339W        W83122  11.677   3.013   4.674
16340W        W83123  27.337  17.271   4.163
16341W        W83124  13.110  44.141   4.235
16342W        W83125  39.804   9.433   5.134
16343W        W83126  35.641  39.156   0.058
16344W        W83127   7.187  18.186   2.251
16345W        W83128   2.429  16.112   4.601
16346W        W83129  29.990   3.824   0.796
16347W        W83130  13.524  26.679   3.724
16348W        W83131  43.943  36.030  13.158
16349W        W83132  30.845  15.699   4.170
16350W        W83133  37.354  13.033  13.835
16351W        W83134   3.311  23.079  13.023
16352W        W83135  36.897  41.683   3.118
16353W        W83136  39.025  40.444  11.188
16354W        W83137   3.223  25.180   2.241
16355W        W83138  21.267  18.485  14.401
16356W        W83139  41.992  24.930   0.756
16357W        W83140  42.003  40.842   4.176
16358W        W83141   9.285  38.767  13.406
16359W        W83142  17.137  10.042  10.424
16360W        W83143  12.173  14.231   4.097
16361W        W83144  11.626   2.789   1.711
16362W        W83145  36.863  44.442   2.918
16363W        W83146  13.096   8.891  13.376
16364W        W83147  31.015  21.072   5.135
16365W        W83148   1.110  31.508   0.064
16366W        W83149  35.036  37.356   4.684
16367W        W83150   3.682  31.825  11.066
16368W        W83151  35.266  13.142   1.741
16369W        W83152  32.297  40.446   0.651
16370W        W83153   4.179  39.496   0.370
16371W        W83154  10.224   7.308  12.620
16372W        W83155  43.293  20.195  12.906
16373W        W83156  33.824  15.785  13.303
16374W        W83157  37.642  34.163  14.303
16375W        W83158  44.921  29.485  11.537
16376W        W83159  24.064  15.657   3.702
16377W        W83160   7.805  12.741   3.642
16378W        W83161   1.442   7.955   1.839
16379W        W83162  11.651  12.402   3.164
16380W        W83163   1.713  32.134  12.145
16381W        W83164  28.659  37.040   0.727
16382W        W83165   9.729   2.072  12.460
16383W        W83166   0.490  23.171   2.596
16384W        W83167  27.561   6.426   3.154
16385W        W83168  24.884  23.655  12.045
16386W        W83169  25.947   9.135  11.682
16387W        W83170  36.102  31.112  11.958
16388W        W83171  39.892  32.070   2.411
16389W        W83172  19.061  33.044  10.723
16390W        W83173  43.029  14.482  13.817
16391W        W83174  44.867  43.172   0.937
16392W        W83175  15.660  29.923   2.666
16393W        W83176  28.860  33.618   1.655
16394W        W83177  41.860  41.858  13.320
16395W        W83178  26.509  27.373   3.275
16396W        W83179  10.869   7.132  11.995
16397W        W83180  38.763   0.765  14.128
16398W        W83181  41.750  17.699   0.819
16399W        W83182  35.506   5.658  14.255
16400W        W83183  25.582  14.056  13.885
16401W        W83184   3.724  41.206   1.861
16402W        W83185  35.014  29.709   1.129
16403W        W83186  10.213  21.650   3.614
16404W        W83187  19.979   1.465   2.783
16405W        W83188   3.347  33.662   0.824
16406W        W83189  34.080   3.406  13.466
16407W        W83190   8.603   1.460   2.572
16408W        W83191  13.666  40.784   3.271
16409W        W83192   0.729   6.160  10.545
16410W        W83193  22.973   8.635   3.723
16411W        W83194  32.134  36.713  14.844
16412W        W83195   0.923  10.386  11.098
16413W        W83196   1.568   6.297   2.332
16414W        W83197  16.749  39.593  11.041
16415W        W83198  18.083   2.688   1.866
16416W        W83199  18.288   0.866   1.924
16417W        W83200   0.318  15.742  14.044
16418W        W83201  15.066  37.406  10.654
16419W        W83202  16.714  35.473   3.449
16420W        W83203  29.612  27.111   4.610
16421W        W83204  31.194  25.969   4.603
16422W        W83205  20.677   7.899  11.028
16423W        W83206  26.689  32.653   3.614
16424W        W83207  29.215   8.652  13.855
16425W        W83208  11.820  22.433   0.551
16426W        W83209  35.565  12.832  12.287
16427W        W83210   2.021  37.027  14.863
16428W        W83211   1.339  17.284   0.427
16429W        W83212  15.094  19.823   2.425
16430W        W83213  21.496  34.585  13.891
16431W        W83214  15.258   7.178   1.582
16432W        W83215   2.992  34.030   0.685
16433W        W83216  27.862  39.588  10.279
16434W        W83217  25.069  35.516   3.091
16435W        W83218   7.847  30.318   4.417
16436W        W83219  14.371  18.990   0.826
16437W        W83220  40.510   3.127   0.949
16438W        W83221   7.372  37.368  11.640
16439W        W83222   3.633  30.568  12.649
16440W        W83223  20.282  19.842   2.705
16441W        W83224  14.696  34.112   2.131
16442W        W83225  13.841  38.455  14.863
16443W        W83226  20.234  44.037  13.569
16444W        W83227  30.988  39.319   0.054
16445W        W83228  29.172  31.053   1.633
16446W        W83229  41.369  22.690   4.701
16447W        W83230   6.216  16.861  10.325
16448W        W83231  15.684  12.341   0.688
16449W        W83232   9.016  18.212   2.614
16450W        W83233  14.065  33.416   2.351
16451W        W83234   3.368  38.776  14.096
16452W        W83235   3.734  39.086   4.829
16453W        W83236  34.517  31.541  11.441
16454W        W83237  29.816  35.109   2.356
16455W        W83238  19.270   7.735   2.409
16456W        W83239   1.567  28.101   1.964
16457W        W83240  42.467  20.055  13.998
16458W        W83241   1.483  19.651  11.873
16459W        W83242  20.894  22.082   2.344
16460W        W83243   4.197  39.092  14.422
16461W        W83244  28.960  29.510   4.695
16462W        W83245  39.465  32.987   3.583
16463W        W83246  39.795  34.644   2.659
16464W        W83247  24.244  22.820   0.909
16465W        W83248  15.715   0.480   4.074
16466W        W83249   3.310  32.931  10.604
16467W        W83250  36.144  13.240  13.105
16468W        W83251  23.245  11.687  14.369
16469W        W83252  31.927   8.890  14.429
16470W        W83253  14.264  14.401  14.253
16471W        W83254  26.067   0.516   2.135
16472W        W83255   8.456  18.699   1.019
16473W        W83256  36.054  12.140   1.617
16474W        W83257   8.891  38.882   1.755
16475W        W83258  10.086  33.651   2.948
16476W        W83259   0.057   3.854  14.093
16477W        W83260  34.060   1.724   4.532
16478W        W83261  43.921   6.022   4.124
16479W        W83262  27.857  36.925   1.681
16480W        W83263  35.161   8.946   1.122
16481W        W83264  36.559   3.838  13.911
16482W        W83265  39.794   1.213  12.926
16483W        W83266  26.403  15.985  10.526
16484W        W83267  18.721  24.415  11.154
16485W        W83268  26.616   0.460   0.996
16486W        W83269   5.554  35.026  12.045
16487W        W83270   2.486  41.487   3.767
16488W        W83271  44.997   6.173   4.136
16489W        W83272  12.626   9.140   3.195
16490W        W83273  25.545  24.013  14.020
16491W        W83274  15.911  10.419  12.095
16492W        W83275  16.766  15.069   2.967
16493W        W83276  14.137  25.782   1.570
16494W        W83277  43.011  26.282  14.935
16495W        W83278  24.554  23.630  14.897
16496W        W83279  27.611  15.642   5.113
16497W        W83280  22.023  12.025   4.628
16498W        W83281  35.953   0.965   2.626
16499W        W83282   8.483   6.382   4.182
16500W        W83283  19.787  10.874  13.895
16501W        W83284   9.317  42.947   3.067
16502W        W83285  30.411  41.316   3.620
16503W        W83286   8.327  27.029  14.312
16504W        W83287  26.778  13.732   1.930
16505W        W83288  16.251   3.804   4.457
16506W        W83289  36.930  13.793   3.834
16507W        W83290  35.443  27.762   2.120
16508W        W83291  26.698  36.999   0.867
16509W        W83292  23.157  13.492  12.832
16510W        W83293  16.455   4.341  14.734
16511W        W83294  31.757   6.339   1.589
16512W        W83295  25.218  16.701   2.007
16513W        W83296  31.124  30.564   4.685
16514W        W83297  39.124  43.700  11.965
16515W        W83298  24.166  10.970  12.323
16516W        W83299  34.422  14.802   4.196
16517W        W83300   5.853  42.763   0.357
16518W        W83301   1.262  20.951  13.533
16519W        W83302  24.390   7.087  11.141
16520W        W83303  18.814  11.951   5.101
16521W        W83304  44.413   8.104  14.826
16522W        W83305  27.957  41.439   4.666
16523W        W83306   6.303  39.944   4.643
16524W        W83307  19.600  35.461  10.883
16525W        W83308   6.350  39.918  13.309
16526W        W83309   5.467  12.033  14.238
16527W        W83310  40.403  22.490   1.352
16528W        W83311  28.920  13.977  12.704
16529W        W83312  35.363   0.274  10.788
16530W        W83313   3.512   0.570   3.511
16531W        W83314  39.146  37.284   1.234
16532W        W83315  42.947  44.395   1.479
16533W        W83316  26.689  35.630  13.949
16534W        W83317  38.413  11.595   1.389
16535W        W83318   7.329  25.675  13.625
16536W        W83319  28.573  28.570   4.028
16537W        W83320  31.447   7.820  10.654
16538W        W83321  42.256  33.176  14.352
16539W        W83322   6.341  11.009  13.023
16540W        W83323  35.167  43.089   2.549
16541W        W83324  32.669  26.004   3.654
16542W        W83325  26.864  32.410   1.425
16543W        W83326  10.661  18.618  13.930
16544W        W83327  37.342  19.734   0.445
16545W        W83328  20.105  26.740   0.895
16546W        W83329  28.242   6.232  13.828
16547W        W83330  29.093  11.387   0.444
16548W        W83331   7.194  12.699  12.458
16549W        W83332  23.421  41.347  13.087
16550W        W83333  18.304  19.886  11.130
16551W        W83334  41.687  26.059  13.614
16552W        W83335  23.555  32.205  10.877
16553W        W83336  21.277  36.864  13.392
16554W        W83337   9.922  27.609  14.354
16555W        W83338  35.258  17.665  14.020
16556W        W83339  40.404  19.079  13.367
16557W        W83340  38.040  38.922  10.157
16558W        W83341   3.698  41.605   0.976
16559W        W83342  17.023  24.444  14.322
16560W        W83343  39.616   1.514   0.357
16561W        W83344  26.098  35.585  13.375
16562W        W83345  25.663  11.279   1.682
16563W        W83346  44.020  11.208   1.720
16564W        W83347  10.389   3.241   2.643
16565W        W83348  37.211  25.594  12.444
16566W        W83349  14.295  29.391   1.217
16567W        W83350  12.786  27.219  11.104
16568W        W83351  41.951  37.796  13.975
16569W        W83352  33.644   5.223   1.998
16570W        W83353  22.161  16.856  14.884
16571W        W83354  17.053   5.340  10.688
16572W        W83355  36.068  42.481  14.960
16573W        W83356  16.223   3.924  14.512
16574W        W83357  37.647  20.048  13.465
16575W        W83358  24.269  27.625   4.004
16576W        W83359  19.269  35.471   1.602
16577W        W83360  39.870  28.980   4.845
16578W        W83361  43.153  40.164   2.574
16579W        W83362  40.245  28.157   2.303
16580W        W83363  22.185  11.615   4.390
16581W        W83364  24.413  34.588  11.108
16582W        W83365  30.790  35.448   4.859
16583W        W83366   3.859  25.533  10.511
16584W        W83367  41.342  41.751  11.178
16585W        W83368  44.605  24.913   3.609
16586W        W83369  10.590  35.368   3.155
16587W        W83370  34.450   6.840  13.220
16588W        W83371  39.122  15.149   4.526
16589W        W83372   1.660  25.225   1.816
16590W        W83373  14.422   6.893  14.812
16591W        W83374   3.545   6.198   2.335
16592W        W83375   0.060   6.475  13.793
16593W        W83376  33.891  31.043  10.717
16594W        W83377  19.104  38.453   4.549
16595W        W83378  43.946  39.484  10.980
16596W        W83379   3.439  25.740  10.713
16597W        W83380  24.979  12.762   4.567
16598W        W83381  16.294   7.325   0.858
16599W        W83382  11.824  31.922   3.334
16600W        W83383  14.346  18.726   4.119
16601W        W83384  42.716   5.733   4.136
16602W        W83385  34.460  22.828  14.312
16603W        W83386  40.352  31.321   2.552
16604W        W83387  31.660  26.632   3.390
16605W        W83388  15.125  39.409   2.497
16606W        W83389  30.630  15.518  11.991
16607W        W83390  44.777  42.334   3.420
16608W        W83391  43.251  39.824   4.515
16609W        W83392  29.221  39.805  11.853
16610W        W83393  15.070  15.056  12.409
16611W        W83394   8.844  33.746  11.246
16612W        W83395  23.747  34.474  14.365
16613W        W83396   9.071  15.499   0.752
16614W        W83397  25.741   5.485  14.519
16615W        W83398  37.468  25.658   1.972
16616W        W83399  27.669   1.565   4.788
16617W        W83400  13.337  26.667   4.298
16618W        W83401   3.360   4.294   4.380
16619W        W83402  43.781  27.957   2.209
16620W        W83403  20.374  26.423   2.671
16621W        W83404  35.657  29.140   1.422
16622W        W83405  31.736  44.267  11.118
16623W        W83406  30.654  38.042  14.508
16624W        W83407  18.079  16.724  14.363
16625W        W83408  27.173  31.875  12.924
16626W        W83409  43.955  36.973   1.420
16627W        W83410  14.018  43.412   2.054
16628W        W83411  19.452   8.808  13.482
16629W        W83412  35.532  31.413   1.783
16630W        W83413  43.771  33.689  11.793
16631W        W83414  42.769  38.795   3.643
16632W        W83415   3.757  20.697   1.414
16633W        W83416   4.177   6.969   1.544
16634W        W83417  20.842  25.683   1.452
16635W        W83418  25.675  30.059   2.787
16636W        W83419  40.342   1.706  13.866
16637W        W83420  20.221   3.974  12.947
16638W        W83421  21.042  43.167   2.860
16639W        W83422  38.390  39.786  14.394
16640W        W83423  18.109   9.923   1.727
16641W        W83424  31.706  29.991  13.397
16642W        W83425  15.311  20.519  10.769
16643W        W83426  24.073  15.580  11.960
16644W        W83427  24.247  18.658   2.936
16645W        W83428  22.517   5.955   1.253
16646W        W83429  26.245   6.691  14.294
16647W        W83430  12.188  14.684   0.819
16648W        W83431  11.670   4.667   0.165
16649W        W83432  29.057  13.621   4.301
16650W        W83433  12.156   5.524  12.897
16651W        W83434  12.656   5.071  14.076
16652W        W83435   9.728  43.109  11.225
16653W        W83436  30.239  29.129  14.524
16654W        W83437  40.326   7.862   1.694
16655W        W83438  11.220   0.337   4.098
16656W        W83439   5.732  27.613   3.209
16657W        W83440  24.335   1.580   2.397
16658W        W83441  34.878  38.702  14.190
16659W        W83442   3.383  28.934   1.282
16660W        W83443  40.624   0.906   1.735
16661W        W83444  18.412  32.353  13.497
16662W        W83445  26.661  32.605  12.940
16663W        W83446  44.928  27.173   3.735
16664W        W83447   0.489  19.391  10.846
16665W        W83448   0.269  35.049  11.532
16666W        W83449   5.336  42.087  11.605
16667W        W83450   1.772  33.803  10.667
16668W        W83451  10.531  17.148   0.469
16669W        W83452  22.184   8.397  10.892
16670W        W83453  21.800  28.503   1.287
16671W        W83454  20.134  30.513  11.198
16672W        W83455   7.443   8.870  14.011
16673W        W83456   5.779  17.279   4.397
16674W        W83457  30.460  26.525   3.983
16675W        W83458  19.106  19.482  12.098
16676W        W83459  11.295   3.412   0.440
16677W        W83460  15.690  10.141  10.233
16678W        W83461  39.431  12.753   1.466
16679W        W83462  14.608  15.632  13.827
16680W        W83463  22.957   4.983   1.167
16681W        W83464  34.027  25.077   3.832
16682W        W83465   4.390  36.624   3.202
16683W        W83466  21.317  10.663  14.982
16684W        W83467  12.959   8.832   3.534
16685W        W83468  24.078   7.461   3.189
16686W        W83469  42.003  41.469   0.839
16687W        W83470  19.543  33.712   2.747
16688W        W83471  15.448  43.719  12.599
16689W        W83472  14.775  39.891   3.017
16690W        W83473  26.486  38.759  11.935
16691W        W83474  12.098  39.624   3.356
16692W        W83475  14.254  41.355   1.222
16693W        W83476  26.209  26.168  10.167
16694W        W83477  41.885  18.900  13.156
16695W        W83478  32.582   6.636  14.918
16696W        W83479  29.061  16.667   1.059
16697W        W83480  12.097  14.757   1.833
16698W        W83481  27.595  11.181  10.737
16699W        W83482  34.169  27.210  10.693
16700W        W83483  23.092  11.245   2.108
16701W        W83484  10.914  29.423   2.669
16702W        W83485   5.880  42.888  12.896
16703W        W83486  35.224  11.204   1.797
16704W        W83487  21.109  17.470  13.409
16705W        W83488   1.283  36.072   0.373
16706W        W83489   7.732  22.774   3.872
16707W        W83490  30.126  17.663   2.086
16708W        W83491  32.015  34.912   4.013
16709W        W83492  25.786   6.422   0.143
16710W        W83493  25.038  32.732   3.640
16711W        W83494   7.367  20.233  12.830
16712W        W83495  38.515   8.046  14.522
16713W        W83496  38.637  20.657   4.819
16714W        W83497   5.494  25.140   0.857
16715W        W83498  37.023  34.956  12.946
16716W        W83499  29.447   2.320   3.579
16717W        W83500  43.982  11.549  10.408
16718W        W83501  22.992  10.149   2.852
16719W        W83502  19.590  31.603   0.786
16720W        W83503  37.612   0.951   0.538
16721W        W83504  32.938  10.031   1.853
16722W        W83505   9.400  33.104   2.869
16723W        W83506  18.736  12.897  11.973
16724W        W83507  13.399  32.560   4.355
16725W        W83508  11.950  30.987  12.593
16726W        W83509   0.530  25.947   1.701
16727W        W83510   3.813  44.936  12.028
16728W        W83511  29.990  38.439  12.567
16729W        W83512  14.511  31.525   2.328
16730W        W83513  30.944  36.467  13.961
16731W        W83514  31.154  44.284  12.038
16732W        W83515  41.252  11.795   1.342
16733W        W83516   4.572  21.553   0.965
16734W        W83517  10.544   5.760   9.796
16735W        W83518   2.313  10.627   0.456
16736W        W83519  40.166  25.554   2.553
16737W        W83520   1.984  23.446  12.981
16738W        W83521   8.251  34.825   4.818
16739W        W83522   0.524  34.786  11.132
16740W        W83523  40.754  41.379  12.632
16741W        W83524  20.821  38.272   2.819
16742W        W83525   9.701  41.046  13.404
16743W        W83526   3.247   4.394   4.867
16744W        W83527  17.654  31.951  14.533
16745W        W83528  11.358  31.605  11.142
16746W        W83529  39.316  15.132   1.575
16747W        W83530   3.643  18.312   2.351
16748W        W83531  16.150  17.069  14.840
16749W        W83532  23.062  37.594   4.235
16750W        W83533   8.237  20.993   2.251
16751W        W83534  44.773  44.448   4.716
16752W        W83535  40.556  14.399  14.798
16753W        W83536  14.686  32.470   3.813
16754W        W83537  39.314  25.747   0.204
16755W        W83538   7.174  10.292  13.333
16756W        W83539  17.687  32.990  11.083
16757W        W83540  16.081  28.351   4.597
16758W        W83541  41.831  20.481  14.801
16759W        W83542  37.767  23.145   2.691
16760W        W83543  17.291  44.157  13.141
16761W        W83544  13.224   8.943   4.161
16762W        W83545   0.828  19.754  13.110
16763W        W83546  36.033  20.798  14.012
16764W        W83547  18.100  30.039   0.216
16765W        W83548   2.380  41.047   4.021
16766W        W83549  42.027   6.783  10.639
16767W        W83550  22.035  10.256   1.259
16768W        W83551   6.956   1.978  13.332
16769W        W83552  21.148   7.922   3.232
16770W        W83553   7.340  33.046   1.208
16771W        W83554  19.523   7.460  14.868
16772W        W83555   2.243  35.654   1.311
16773W        W83556  19.270   4.250  12.968
16774W        W83557   9.313  18.224   1.054
16775W        W83558  40.277  44.294  12.522
16776W        W83559   3.894  36.392   1.956
16777W        W83560   1.697  21.818  11.413
16778W        W83561   6.770  29.107   2.239
16779W        W83562  29.803  38.948   4.160
16780W        W83563  32.378  10.284   3.159
16781W        W83564  40.752  41.910   3.009
16782W        W83565  32.124   6.627   3.850
16783W        W83566  21.292  31.955  11.149
16784W        W83567  44.914  29.510  13.986
16785W        W83568  24.422  38.476  14.669
16786W        W83569  15.600  11.245  12.848
16787W        W83570   4.719   1.396  14.596
16788W        W83571   4.449  40.303   9.947
16789W        W83572  43.944  37.580  12.911
16790W        W83573  10.362  32.571  13.283
16791W        W83574  31.468  15.335  12.429
16792W        W83575  19.131  17.793   0.426
16793W        W83576  28.675   8.299  13.584
16794W        W83577  24.075   6.981   4.689
16795W        W83578  29.497  12.732  12.381
16796W        W83579  41.907  37.278  14.039
16797W        W83580   5.655   3.577   2.453
16798W        W83581  37.586  22.596  13.445
16799W        W83582  18.052  38.377  14.841
16800W        W83583  35.981  41.561  12.954
16801W        W83584  12.415  30.417  11.054
16802W        W83585  37.167  39.241   4.197
16803W        W83586  30.431  44.673  11.454
16804W        W83587  10.817   1.742   1.537
16805W        W83588  10.905  25.742  11.984
16806W        W83589   0.238   6.834  14.965
16807W        W83590   8.250   3.605   3.705
16808W        W83591  40.587  28.567  12.002
16809W        W83592  40.301  16.744  13.359
16810W        W83593  14.051  33.004  11.118
16811W        W83594  28.960  32.628   4.152
16812W        W83595   5.984  14.336   3.144
16813W        W83596  44.277  10.159   0.683
16814W        W83597   0.253   3.234   0.894
16815W        W83598  38.822  33.693  13.268
16816W        W83599   3.448  39.461  10.965
16817W        W83600  14.290  23.687   4.157
16818W        W83601  23.468  27.641  14.805
16819W        W83602   7.497  35.815   0.792
16820W        W83603  40.397  30.395  12.886
16821W        W83604  15.051  36.888  12.037
16822W        W83605  21.440   0.912   1.317
16823W        W83606  25.708  33.475   2.780
16824W        W83607  28.974  12.203   0.801
16825W        W83608   3.243  23.196  13.896
16826W        W83609  40.892   5.283  10.387
16827W        W83610  34.019  26.020   2.741
16828W        W83611  41.130  37.165   0.436
16829W        W83612  25.507  16.739  11.837
16830W        W83613   5.299  17.581   2.811
16831W        W83614  33.609  34.481  10.544
16832W        W83615  12.319   8.911   0.449
16833W        W83616  27.514   9.183  10.957
16834W        W83617  30.479  39.956  13.604
16835W        W83618  34.530  28.646   1.809
16836W        W83619   8.186   1.776   1.735
16837W        W83620  17.033  25.569  13.383
16838W        W83621  17.870  13.856  14.244
16839W        W83622  34.594  12.622  10.888
16840W        W83623  17.788  28.833  14.366
16841W        W83624  36.903  14.328  12.931
16842W        W83625  29.884   3.276  11.225
16843W        W83626  10.763  15.566  11.691
16844W        W83627  41.531  21.997   0.015
16845W        W83628  39.234  41.270  11.157
16846W        W83629  29.380  16.623   4.658
16847W        W83630  31.743   6.620  11.122
16848W        W83631  11.593   1.791   1.642
16849W        W83632  13.590   4.010  13.738
16850W        W83633  35.451  12.653   1.777
16851W        W83634  38.955  17.554   2.071
16852W        W83635  30.648  39.960   3.693
16853W        W83636  18.728  37.072   4.660
16854W        W83637  43.017  19.594  13.485
16855W        W83638  29.729  23.474   1.162
16856W        W83639  24.804   8.285   0.639
16857W        W83640  10.906   0.190   0.737
16858W        W83641  39.918  22.586  11.895
16859W        W83642  18.884  27.944  10.792
16860W        W83643  12.569  31.652  13.484
16861W        W83644  16.096   6.071   2.950
16862W        W83645  41.225  13.822   1.973
16863W        W83646  33.287  22.084  12.421
16864W        W83647  24.751  32.135  13.799
16865W        W83648  20.691   7.100   1.303
16866W        W83649  36.041  27.952   0.453
16867W        W83650  21.173  16.585  11.203
16868W        W83651  37.972  33.548   3.917
16869W        W83652   8.819   8.784   2.814
16870W        W83653  37.465  38.396  13.525
16871W        W83654  28.953   3.380  14.800
16872W        W83655  12.887   6.843   1.725
16873W        W83656  34.930  38.877  11.750
16874W        W83657  35.741   4.800  12.482
16875W        W83658   0.397   5.658  12.358
16876W        W83659  17.547  18.355  12.620
16877W        W83660  23.689  36.302  14.033
16878W        W83661   6.461   0.497   3.732
16879W        W83662  15.042  31.623   3.846
16880W        W83663  29.157  32.190  14.425
16881W        W83664  35.908  24.935  12.132
16882W        W83665  13.831  39.923   2.475
16883W        W83666   4.335  40.564  10.778
16884W        W83667  17.666  36.611   3.037
16885W        W83668  27.167  25.029  11.013
16886W        W83669  25.431  31.068  10.989
16887W        W83670  23.800  40.548  11.423
16888W        W83671  11.979  36.429   0.389
16889W        W83672  30.311  28.519   2.293
16890W        W83673  17.143  39.584   1.062
16891W        W83674  40.288   5.968  11.969
16892W        W83675  41.958  12.965  11.572
16893W        W83676  13.084   5.502   2.876
16894W        W83677  44.016  17.906  14.786
16895W        W83678   4.907  37.027  14.449
16896W        W83679   1.047  18.509   3.173
16897W        W83680  40.071  15.842  11.559
16898W        W83681  42.712  28.421  14.537
16899W        W83682  40.216   9.201  12.070
16900W        W83683  33.992  35.531  10.815
16901W        W83684   6.933  35.208   3.850
16902W        W83685  34.426  19.673   0.259
16903W        W83686  20.560  41.905  11.242
16904W        W83687  44.781  13.283  10.128
16905W        W83688  43.526  13.094  11.611
16906W        W83689  20.942  18.736  12.441
16907W        W83690   7.341  24.001  14.178
16908W        W83691  33.923  24.620   2.500
16909W        W83692  34.951  43.450  13.136
16910W        W83693  23.250  25.438   3.275
16911W        W83694  23.205  36.595  10.748
16912W        W83695  15.171  36.583  13.833
16913W        W83696  41.705  29.524  14.445
16914W        W83697  36.363  37.520  13.851
16915W        W83698  11.883   2.940   2.647
16916W        W83699  16.536   9.853   2.722
16917W        W83700  38.780   6.757   1.511
16918W        W83701  17.171  10.817   2.373
16919W        W83702  41.870  23.974  12.154
16920W        W83703   7.180  26.686  10.747
16921W        W83704  40.131  44.449   1.941
16922W        W83705  39.537  26.684  12.875
16923W        W83706   5.016   8.336  12.375
16924W        W83707  27.757  38.875   1.393
16925W        W83708  27.598   4.460   3.684
16926W        W83709  11.993  21.520  10.223
16927W        W83710  37.113  41.536   0.324
16928W        W83711  17.749  42.690   0.100
16929W        W83712  21.356  26.424  13.310
16930W        W83713  42.148  43.951   2.048
16931W        W83714  33.415  41.489   0.283
16932W        W83715   1.206  32.175   2.770
16933W        W83716   5.487  28.503  10.719
16934W        W83717  38.341   9.383   2.893
16935W        W83718  30.546  12.961   3.636
16936W        W83719  39.821   5.760   1.874
16937W        W83720  20.103  32.882  14.105
16938W        W83721  30.416  42.876  11.570
16939W        W83722   0.957  17.788   3.627
16940W        W83723  30.507  30.914  13.394
16941W        W83724  13.779  25.241   1.943
16942W        W83725  32.218  33.435   0.270
16943W        W83726  34.980  26.407   3.106
16944W        W83727  37.239  11.401   0.497
16945W        W83728  33.965  26.537   1.457
16946W        W83729  27.069   3.489  12.850
16947W        W83730  13.385  29.651   2.026
16948W        W83731  17.814   6.718  14.247
16949W        W83732  21.590  20.641   3.837
16950W        W83733  38.872  11.852  12.388
16951W        W83734  26.777  43.253  11.541
16952W        W83735  22.496  13.861  14.848
16953W        W83736   5.842  44.953  11.626
16954W        W83737   9.247  24.982   0.755
16955W        W83738  28.018   9.652   0.497
16956W        W83739  33.915  28.017  12.969
16957W        W83740   2.287  21.230  13.017
16958W        W83741  39.929  11.137   1.328
16959W        W83742  29.714   5.581   1.295
16960W        W83743   5.245  32.113   1.225
16961W        W83744  32.727  18.646   5.414
16962W        W83745  23.485  41.128   2.794
16963W        W83746  35.350   3.934   1.282
16964W        W83747  29.593  22.732   0.012
16965W        W83748  14.833  19.129  12.092
16966W        W83749   8.356   5.815   2.909
16967W        W83750  20.827  35.396   3.711
16968W        W83751  28.444  38.528  13.721
16969W        W83752  17.876  29.624   0.002
16970W        W83753   0.090  37.854   2.276
16971W        W83754  15.282  34.000   0.178
16972W        W83755  28.353  28.149   1.841
16973W        W83756  32.904  42.901   2.358
16974W        W83757  27.231  13.429   3.605
16975W        W83758  10.905  42.971  13.353
16976W        W83759   4.930  32.068  14.850
16977W        W83760   4.468   0.135   0.437
16978W        W83761  40.563  17.033   4.090
16979W        W83762  16.721  30.503   4.754
16980W        W83763   3.761  10.868  13.096
16981W        W83764  29.017  20.790  14.038
16982W        W83765  13.390  24.619   1.261
16983W        W83766  41.579  16.641  11.138
16984W        W83767  44.137   5.712  12.939
16985W        W83768   1.279  44.996   4.012
16986W        W83769   0.151  26.913  13.960
16987W        W83770  38.962   5.019   5.019
16988W        W83771  16.259  19.189   0.732
16989W        W83772  22.738  27.523   2.843
16990W        W83773  38.579  43.547   4.063
16991W        W83774   3.897   8.925  11.069
16992W        W83775  34.074  22.318   3.231
16993W        W83776  28.613  39.591   0.278
16994W        W83777   9.986  41.000  11.997
16995W        W83778  37.496  33.209  14.620
16996W        W83779   9.686  19.510   3.280
16997W        W83780  42.463   9.800  11.956
16998W        W83781  38.120  11.271   0.653
16999W        W83782  15.263  38.446   2.759
17000W        W83783  42.565  42.860  14.697
17001W        W83784  44.930  20.239  14.934
17002W        W83785  37.701  39.864   2.086
17003W        W83786  19.582  29.531  11.526
17004W        W83787  17.183  38.633  13.954
17005W        W83788  23.278   1.924   0.226
17006W        W83789  32.710  23.105  13.846
17007W        W83790  38.445   0.979   4.061
17008W        W83791  22.461  20.363  10.718
17009W        W83792  25.568  10.892   4.564
17010W        W83793  35.241  10.256   0.864
17011W        W83794  13.826  12.912   1.808
17012W        W83795  31.469   5.899   4.586
17013W        W83796  31.648   8.617  14.062
17014W        W83797  38.814  29.877  12.441
17015W        W83798  39.915  40.312   1.357
17016W        W83799  42.068  44.437   2.275
17017W        W83800  25.904  21.283  12.280
17018W        W83801  12.742  41.890  10.651
17019W        W83802  23.634  28.531  13.785
17020W        W83803  18.616  35.640   1.162
17021W        W83804  38.027  16.221  10.706
17022W        W83805  20.086  13.247   1.454
17023W        W83806   9.155  21.062  13.827
17024W        W83807  13.231  10.859  10.270
17025W        W83808  21.582   5.444  12.426
17026W        W83809  26.064  30.839  14.291
17027W        W83810  42.309  25.720  13.107
17028W        W83811  44.412   5.175   4.989
17029W        W83812  27.858   8.243   0.526
17030W        W83813  42.941  19.590   3.907
17031W        W83814  15.908  18.657   1.857
17032W        W83815   0.321  10.070   0.353
17033W        W83816  27.189  21.064  11.941
17034W        W83817   0.317   9.843  12.510
17035W        W83818  29.148  22.613  14.299
17036W        W83819  13.285   6.201   0.864
17037W        W83820   7.924  17.718  11.166
17038W        W83821  13.111   7.514   4.162
17039W        W83822  11.720  10.412   0.987
17040W        W83823   4.761  16.072  13.831
17041W        W83824  34.840   0.922   1.256
17042W        W83825   4.191  10.674   0.693
17043W        W83826  14.735   8.396  13.308
17044W        W83827  29.467   4.235   2.868
17045W        W83828  44.277  20.769   2.805
17046W        W83829  43.397  21.451  12.997
17047W        W83830  28.509   0.053  11.660
17048W        W83831  10.115  32.408  10.579
17049W        W83832  33.012   8.922  13.879
17050W        W83833  42.347   3.217  12.801
17051W        W83834  20.116   6.233  12.576
17052W        W83835  31.838   2.398  11.370
17053W        W83836  21.196  14.200   1.929
17054W        W83837  35.483  23.232  13.577
17055W        W83838  10.677   3.993  11.023
17056W        W83839  39.928  30.412   3.273
17057W        W83840  33.223  17.473   1.418
17058W        W83841   7.905  36.088   0.953
17059W        W83842  32.562  25.807   2.234
17060W        W83843  24.385  44.443   2.826
17061W        W83844  26.691  33.478   1.956
17062W        W83845  20.237  43.728   0.401
17063W        W83846  37.974  29.697   1.416
17064W        W83847  18.156  22.867  14.564
17065W        W83848   1.864  36.379   1.248
17066W        W83849   4.467   8.949   4.589
17067W        W83850  16.628  35.959  11.817
17068W        W83851  44.173  31.597   0.879
17069W        W83852  38.950  30.642  13.062
17070W        W83853  38.884  22.913  12.938
17071W        W83854   4.380  40.069   2.582
17072W        W83855  26.291   4.803   2.199
17073W        W83856  10.784  42.749  14.492
17074W        W83857  16.548   2.367  14.779
17075W        W83858  29.183  15.345   4.746
17076W        W83859   2.875  30.646  14.282
17077W        W83860  42.934  25.777  10.852
17078W        W83861  37.501  22.422  12.605
17079W        W83862   6.129  21.067   1.291
17080W        W83863  36.071  22.473   3.809
17081W        W83864  21.684  34.588   2.192
17082W        W83865  37.010  13.318  14.891
17083W        W83866  23.477  13.639   3.280
17084W        W83867   5.178   8.843  14.368
17085W        W83868   2.231  38.578   1.324
17086W        W83869   5.765  29.977  14.781
17087W        W83870  32.805  20.216   0.741
17088W        W83871  13.098   7.180   9.737
17089W        W83872  14.578  34.910  13.373
17090W        W83873  33.302   8.293  11.767
17091W        W83874  37.663  43.462   3.169
17092W        W83875   2.154   1.763  13.370
17093W        W83876   4.915  19.521   0.824
17094W        W83877  41.303  19.124   2.177
17095W        W83878  30.933  44.816  14.335
17096W        W83879  14.846  20.655   2.356
17097W        W83880   3.190  36.104   0.332
17098W        W83881  43.319  29.191   2.940
17099W        W83882   0.275  35.536   3.530
17100W        W83883   0.504  33.916   2.207
17101W        W83884  43.695  29.023  13.793
17102W        W83885  32.707  22.227   4.517
17103W        W83886   7.789  35.412   4.344
17104W        W83887  26.628  28.898  13.937
17105W        W83888  27.151  16.818   4.383
17106W        W83889   8.757  44.514   3.728
17107W        W83890  22.746  39.396  11.176
17108W        W83891   0.963  39.458   0.352
17109W        W83892  13.292  21.550   2.133
17110W        W83893  43.455  42.456   2.637
17111W        W83894  10.819  17.040  11.158
17112W        W83895  32.641  30.446   2.519
17113W        W83896   9.183  23.361  14.467
17114W        W83897  16.742  25.652   4.237
17115W        W83898  12.188  13.265   0.079
17116W        W83899  12.857  42.736  13.373
17117W        W83900  21.793   6.309  11.614
17118W        W83901  37.309  16.809  11.938
17119W        W83902  43.506  44.151  12.971
17120W        W83903  10.201  30.839   0.725
17121W        W83904  40.254   4.697  10.662
17122W        W83905  33.130  19.891  10.871
17123W        W83906  37.084  37.527  12.291
17124W        W83907  35.806  32.497  12.266
17125W        W83908  42.050  32.444   4.080
17126W        W83909  14.026  38.355   0.335
17127W        W83910  26.834   4.426   0.770
17128W        W83911  39.971  37.533  12.148
17129W        W83912  37.845  20.059   0.839
17130W        W83913   0.064  26.552   3.206
17131W        W83914  21.064  40.831   0.420
17132W        W83915  14.182  29.862   2.685
17133W        W83916  30.626   8.163  11.546
17134W        W83917  41.639   1.745   3.332
17135W        W83918  29.564  20.757   0.922
17136W        W83919  39.519  40.053   3.224
17137W        W83920  42.353   3.433   4.865
17138W        W83921  42.039  16.165  13.521
17139W        W83922   5.714   2.787  10.721
17140W        W83923  40.988   7.871  10.732
17141W        W83924  21.248   8.430   3.182
17142W        W83925  10.393   1.560  14.287
17143W        W83926  43.756   5.342  12.018
17144W        W83927  30.006  32.206   3.649
17145W        W83928  26.457  10.277  11.954
17146W        W83929  11.796  19.964  14.809
17147W        W83930  13.558  40.877  10.813
17148W        W83931  29.521  39.509   0.284
17149W        W83932  38.673   5.709  12.615
17150W        W83933   3.685  26.692  13.450
17151W        W83934   1.441  32.325  12.575
17152W        W83935  39.461   8.386  10.674
17153W        W83936  42.155   1.446   0.331
17154W        W83937  39.535  29.625  10.952
17155W        W83938  42.399   1.687   1.697
17156W        W83939  38.092  30.590   1.402
17157W        W83940  36.975   4.961  11.588
17158W        W83941  24.450   8.443  12.460
17159W        W83942   6.371   2.793   2.624
17160W        W83943  34.095  18.098  13.061
17161W        W83944  39.559  10.526   5.027
17162W        W83945  14.625  34.346  14.838
17163W        W83946  28.640   9.809  13.819
17164W        W83947   6.710   7.455  14.222
17165W        W83948  34.075   8.255  11.129
17166W        W83949  31.371  19.091   4.854
17167W        W83950  29.995   8.924   1.352
17168W        W83951  41.462  16.194  11.877
17169W        W83952  38.841  30.599  13.569
17170W        W83953   7.759  32.058   1.917
17171W        W83954  27.129   4.648   2.550
17172W        W83955  23.949  34.031   0.513
17173W        W83956   1.836  20.930   0.706
17174W        W83957   8.283  44.790  13.519
17175W        W83958  24.898  43.312  12.691
17176W        W83959  21.106  38.943   1.355
17177W        W83960  34.219  39.838   1.120
17178W        W83961  39.415  21.767  12.588
17179W        W83962  37.073  12.694  12.534
17180W        W83963  37.436  40.528   4.984
17181W        W83964  14.909   8.842   0.301
17182W        W83965  33.216  24.180   3.641
17183W        W83966   6.459  12.648  10.201
17184W        W83967  38.091  38.275  12.851
17185W        W83968  28.767  11.077   2.837
17186W        W83969  19.786  35.385   3.858
17187W        W83970  37.140  15.762  12.068
17188W        W83971  21.726  29.170  11.615
17189W        W83972   9.255  12.429  11.006
17190W        W83973  27.501  39.478  11.548
17191W        W83974  28.983  13.705   3.312
17192W        W83975   0.965  24.024   2.867
17193W        W83976  38.980  41.323  10.678
17194W        W83977  22.563  11.013  14.446
17195W        W83978  26.904  13.527  12.463
17196W        W83979   1.003  13.899   2.881
17197W        W83980   6.435   7.276  13.419
17198W        W83981  32.078  44.350   2.673
17199W        W83982  36.043  37.336   0.571
17200W        W83983  19.155  28.480   3.335
17201W        W83984  14.312  34.353  12.952
17202W        W83985  39.307  11.550  10.717
17203W        W83986  18.842  37.814   2.821
17204W        W83987  41.487  18.335  11.616
17205W        W83988  41.400  38.760   2.323
17206W        W83989   9.668  43.519   0.837
17207W        W83990  38.623  35.551   0.356
17208W        W83991   5.311   9.742  14.309
17209W        W83992   0.444  34.163   0.795
17210W        W83993  44.053  33.952   3.335
17211W        W83994  42.719  31.162  14.216
17212W        W83995  10.904   8.127  11.801
17213W        W83996  38.518  12.701  12.333
17214W        W83997   3.958  44.889   3.280
17215W        W83998   4.198  29.968  12.091
17216W        W83999  45.000   3.324  13.317
17217W        W84000  42.998  10.801   3.773
17218W        W84001  32.452  25.573  14.397
17219W        W84002   9.397  32.889  10.504
17220W        W84003  20.659  14.404  11.588
17221W        W84004  18.757   0.980   4.616
17222W        W84005  24.770  13.048   4.195
17223W        W84006   8.626  44.194   4.111
17224W        W84007  10.931  23.931   2.783
17225W        W84008  40.429  13.294   1.744
17226W        W84009   9.753  38.937  11.544
17227W        W84010  28.597   2.772  14.830
17228W        W84011  41.941   3.706   4.992
17229W        W84012  41.418  12.664   0.748
17230W        W84013   9.340  30.916   0.334
17231W        W84014  34.738   6.359  11.126
17232W        W84015  32.430  42.650  11.755
17233W        W84016  33.088  35.283  13.751
17234W        W84017   6.491  41.199   3.211
17235W        W84018  16.219  43.057  13.522
17236W        W84019  27.596  42.260   0.490
17237W        W84020  15.754  40.898  12.055
17238W        W84021  30.648  40.782  14.468
17239W        W84022  12.210  20.303   4.050
17240W        W84023   5.325  32.369  11.148
17241W        W84024  37.085   5.966   1.375
17242W        W84025  11.690  22.972   0.629
17243W        W84026  13.805  12.775  12.956
17244W        W84027  33.942  25.609   1.811
17245W        W84028  16.846   9.658   3.251
17246W        W84029  42.298  22.503   0.006
17247W        W84030  41.365  11.395   2.682
17248W        W84031  27.517  42.509   4.134
17249W        W84032  44.011   1.517   0.329
17250W        W84033  14.650  30.851  13.360
17251W        W84034  28.430   5.728   0.260
17252W        W84035  35.426  31.980   5.080
17253W        W84036  12.917  16.246   2.898
17254W        W84037   2.441  26.918  14.031
17255W        W84038   8.901  23.737   1.215
17256W        W84039  13.577  22.274   2.037
17257W        W84040  10.271   2.458  13.314
17258W        W84041  11.135  17.983   2.520
17259W        W84042  36.777  19.982  10.781
17260W        W84043  35.313   7.578  12.479
17261W        W84044  18.705   3.704   0.230
17262W        W84045  37.357   2.203  11.189
17263W        W84046  25.715   3.380  12.428
17264W        W84047  30.486  12.965  12.439
17265W        W84048   5.634  35.435   3.816
17266W        W84049  13.235  14.844   4.213
17267W        W84050  20.793   8.717   3.084
17268W        W84051  19.259  34.043   2.427
17269W        W84052   4.895  30.220   1.232
17270W        W84053   2.808  25.226  10.814
17271W        W84054  26.169   5.252   2.463
17272W        W84055  20.440  34.589  14.992
17273W        W84056  23.733  10.251  14.738
17274W        W84057  25.019  13.330  13.791
17275W        W84058  23.294  18.240   1.149
17276W        W84059  22.235  39.587   1.726
17277W        W84060  14.452  27.144  14.071
17278W        W84061  29.600  18.604  14.828
17279W        W84062  32.351  22.205  11.163
17280W        W84063  19.045  40.962   4.203
17281W        W84064   2.908  24.308   2.612
17282W        W84065  37.766  24.053   5.126
17283W        W84066  31.870  27.143  13.939
17284W        W84067   6.722  24.749  12.822
17285W        W84068   5.772  39.494  10.808
17286W        W84069  20.037  30.120   1.786
17287W        W84070  12.350   7.727   1.751
17288W        W84071   3.834  33.003   0.949
17289W        W84072  30.538  24.429  11.969
17290W        W84073   4.264  26.639   4.630
17291W        W84074   3.145   9.102  11.094
17292W        W84075  23.725   1.905  13.543
17293W        W84076  11.773  19.799   9.910
17294W        W84077   9.345   7.731   3.111
17295W        W84078  15.798  25.264  11.034
17296W        W84079  16.814  22.070   0.818
17297W        W84080  27.445  31.817  14.057
17298W        W84081   1.699  17.796  10.477
17299W        W84082   6.275   8.908   3.558
17300W        W84083  22.072  15.673   1.221
17301W        W84084   9.189  34.899   0.674
17302W        W84085  26.727   8.775  13.645
17303W        W84086   4.700  44.969  13.083
17304W        W84087  39.833   4.991  10.731
17305W        W84088  19.097  42.814   4.618
17306W        W84089   3.958  11.064   4.209
17307W        W84090  14.571  35.349  12.440
17308W        W84091  28.045   9.600   4.983
17309W        W84092  11.164  35.689   4.437
17310W        W84093  37.465  14.602   3.741
17311W        W84094  27.987  21.137   5.062
17312W        W84095  35.574  35.790   2.356
17313W        W84096  22.260   0.912   1.053
17314W        W84097  39.575  21.276  10.285
17315W        W84098   0.461   8.229   1.829
17316W        W84099  16.738  25.243  14.675
17317W        W84100  27.909  27.889  13.103
17318W        W84101  43.930  39.882   2.448
17319W        W84102   7.773  41.804  10.693
17320W        W84103  18.165  34.018  14.996
17321W        W84104  37.750  20.632  14.591
17322W        W84105  33.309  18.513   1.162
17323W        W84106  11.903  41.077  14.469
17324W        W84107  28.874   2.881   2.322
17325W        W84108  18.262  34.590   1.787
17326W        W84109  38.107  42.844  12.148
17327W        W84110  31.549  36.295  10.762
17328W        W84111  30.754  30.591   4.098
17329W        W84112  19.962  10.724   3.727
17330W        W84113  35.122  41.310   3.711
17331W        W84114  12.001  33.766   4.438
17332W        W84115   3.282  31.105  13.519
17333W        W84116  10.694  25.265   2.231
17334W        W84117  24.284  19.691  10.385
17335W        W84118  44.836  32.607  11.125
17336W        W84119  34.438  36.618   3.785
17337W        W84120  28.925  13.082  14.035
17338W        W84121   7.020  27.066   3.284
17339W        W84122   8.474   4.455  12.375
17340W        W84123  13.802  36.071   5.433
17341W        W84124  39.530  43.760   1.777
17342W        W84125  14.743  34.725   1.215
17343W        W84126  31.686   1.510   0.032
17344W        W84127  24.490  13.218   1.884
17345W        W84128  21.236  28.987  14.547
17346W        W84129  36.076  11.675  10.761
17347W        W84130  21.557  36.903  12.958
17348W        W84131  10.815  21.588  12.690
17349W        W84132  29.121  41.002   2.637
17350W        W84133  42.096   5.719  12.495
17351W        W84134   0.635  32.523   3.343
17352W        W84135  20.189  29.277   5.086
17353W        W84136  10.226  38.598   0.073
17354W        W84137  32.651  14.845  10.534
17355W        W84138  11.631   2.040   3.544
17356W        W84139  42.659   4.885   2.069
17357W        W84140  28.039  32.057   3.440
17358W        W84141   7.743   9.792  11.493
17359W        W84142  41.533  29.206  12.108
17360W        W84143  35.597  32.681   1.322
17361W        W84144  21.756  38.550   1.719
17362W        W84145  31.536   9.606   0.835
17363W        W84146  18.663  10.650   1.265
17364W        W84147  23.528  20.273  11.576
17365W        W84148  24.062  21.009   3.634
17366W        W84149  28.692  11.073  11.077
17367W        W84150  34.348  12.577  13.381
17368W        W84151  17.274  25.240  13.963
17369W        W84152  32.555  19.428  13.004
17370W        W84153  15.098  30.302  11.494
17371W        W84154  30.303  28.949  13.276
17372W        W84155   5.276  12.647  10.672
17373W        W84156  29.824  28.197  11.876
17374W        W84157   4.932  17.921   4.141
17375W        W84158  15.467  24.672  13.111
17376W        W84159  17.005  35.439   2.488
17377W        W84160   1.384  39.959  10.724
17378W        W84161  31.057  20.951   2.774
17379W        W84162  10.824   0.557   3.187
17380W        W84163  36.062  16.775  12.981
17381W        W84164  39.061  28.853   0.723
17382W        W84165   2.872  35.396   1.002
17383W        W84166  25.170   1.175   0.727
17384W        W84167  14.704  41.947  12.966
17385W        W84168  44.299   2.847   5.068
17386W        W84169   9.769   3.693   2.341
17387W        W84170  24.161  23.129   2.420
17388W        W84171  12.813  29.137  14.860
17389W        W84172  29.936  21.265  14.198
17390W        W84173  11.150  22.464  12.136
17391W        W84174  17.571   4.520  11.671
17392W        W84175  13.207  40.978  13.935
17393W        W84176   1.959  39.557   3.133
17394W        W84177  42.747  19.036  13.245
17395W        W84178   7.026   5.710   0.590
17396W        W84179  23.096   9.377   0.461
17397W        W84180   2.055  17.983  12.787
17398W        W84181  32.347  35.847  14.510
17399W        W84182  25.594  29.064  13.991
17400W        W84183  38.322  33.751  11.569
17401W        W84184   1.406  16.142  14.031
17402W        W84185  43.907  27.385   1.286
17403W        W84186   0.911  24.088   4.540
17404W        W84187  10.376   1.051   2.686
17405W        W84188   4.804  13.040   4.030
17406W        W84189  22.044  13.307  11.480
17407W        W84190  43.535  35.153   4.052
17408W        W84191  42.971  24.031  12.046
17409W        W84192  16.676  18.614  12.506
17410W        W84193  15.027  33.097   0.213
17411W        W84194   2.772  14.844   0.893
17412W        W84195  23.769   3.451   2.710
17413W        W84196   3.484  40.087  14.740
17414W        W84197  36.396   4.641   2.735
17415W        W84198  42.833  38.286   3.747
17416W        W84199  10.321  23.004   4.157
17417W        W84200  25.943  32.476   2.133
17418W        W84201  10.860  35.797   3.272
17419W        W84202  20.295   3.652  12.080
17420W        W84203  32.607  29.546   3.603
17421W        W84204  31.362   8.086  11.101
17422W        W84205   1.194  31.197   1.446
17423W        W84206  23.627  43.062  12.001
17424W        W84207  32.469  40.282   1.439
17425W        W84208  20.843  40.492  11.954
17426W        W84209  22.371   8.515  10.439
17427W        W84210  28.479   6.540  14.926
17428W        W84211  12.060  22.138  13.156
17429W        W84212   0.232  34.140  11.774
17430W        W84213   3.005   2.518   4.570
17431W        W84214  32.117  27.909   4.598
17432W        W84215  20.440  22.982   2.285
17433W        W84216  30.192   1.378   3.300
17434W        W84217   6.203  38.344   4.011
17435W        W84218  42.206  10.150   1.330
17436W        W84219  22.003  13.111   2.351
17437W        W84220  31.927  32.373   3.756
17438W        W84221  36.607  29.095  14.319
17439W        W84222  42.774  29.908  11.212
17440W        W84223  11.059   9.906   0.942
17441W        W84224   0.881  27.685   2.887
17442W        W84225  30.397  41.016   2.148
17443W        W84226  35.426  25.194  11.462
17444W        W84227  19.601  32.084   0.999
17445W        W84228  26.593  42.060  10.574
17446W        W84229   9.884  18.178  10.251
17447W        W84230  22.011  39.526  14.019
17448W        W84231  28.610  19.196  10.599
17449W        W84232  17.242  39.304   3.051
17450W        W84233   8.103  24.630   4.185
17451W        W84234  13.482  19.138  11.498
17452W        W84235  25.222  27.545  10.476
17453W        W84236   7.229  16.854   3.104
17454W        W84237  31.371  15.155  13.536
17455W        W84238  44.966  27.169   0.394
17456W        W84239  33.986  24.706  12.875
17457W        W84240  31.160  38.451  10.697
17458W        W84241  21.621  15.906  11.103
17459W        W84242  41.589   4.850   3.149
17460W        W84243  36.585  12.524  12.647
17461W        W84244  43.818  18.294   1.007
17462W        W84245  39.929  16.829  10.532
17463W        W84246  16.341  28.059   0.076
17464W        W84247  19.534   2.797  11.569
17465W        W84248  16.858  22.769   1.231
17466W        W84249  25.602  28.237   1.724
17467W        W84250   0.382  38.925   3.694
17468W        W84251   0.701  21.713  13.426
17469W        W84252   7.787   9.830   3.332
17470W        W84253  15.371  29.875  11.421
17471W        W84254  22.801  30.751  13.994
17472W        W84255  18.744   2.787   2.303
17473W        W84256   3.230  29.002   3.380
17474W        W84257  18.003   5.819   0.547
17475W        W84258   2.055  33.464   2.762
17476W        W84259  21.731  28.747  14.381
17477W        W84260  15.594  14.575   3.529
17478W        W84261  14.329  40.746   2.770
17479W        W84262  26.051  24.153   4.650
17480W        W84263  31.612  37.350   3.742
17481W        W84264  39.569  33.600   0.561
17482W        W84265  21.652  22.039   3.447
17483W        W84266  42.294   9.784   3.116
17484W        W84267  15.164  18.086   4.335
17485W        W84268  29.309  36.185   0.004
17486W        W84269   9.627   8.194   1.959
17487W        W84270   4.901  14.596  13.425
17488W        W84271  10.110  44.509   2.737
17489W        W84272  36.358  10.704   2.961
17490W        W84273  23.508  18.214  14.998
17491W        W84274  10.246  13.870  13.419
17492W        W84275  15.751   5.774   4.746
17493W        W84276  15.167  10.723   2.922
17494W        W84277   0.963  18.371   5.133
17495W        W84278  12.713  42.948   3.231
17496W        W84279  32.127  36.767   2.385
17497W        W84280   8.839  42.443   1.283
17498W        W84281   6.567   5.795  11.163
17499W        W84282  37.410  12.346   2.111
17500W        W84283  33.992  34.168   2.720
17501W        W84284   8.800  28.278   3.693
17502W        W84285  18.683  40.634  12.876
17503W        W84286  29.884   9.398   3.743
17504W        W84287   7.832  30.279  13.504
17505W        W84288  14.254  10.042  10.558
17506W        W84289  35.310   9.672  10.092
17507W        W84290  25.342  18.518   1.876
17508W        W84291   6.576  28.749   3.710
17509W        W84292   1.996  28.938  12.099
17510W        W84293  28.604  30.383  10.879
17511W        W84294  15.219   6.667   0.895
17512W        W84295  29.339  14.084   5.188
17513W        W84296  44.305  18.271   4.110
17514W        W84297   8.788  19.484   0.731
17515W        W84298  24.120  17.860   4.594
17516W        W84299  24.572   6.031  13.327
17517W        W84300  10.703   9.612   2.108
17518W        W84301   4.202  14.213  12.241
17519W        W84302  39.794   1.923   3.963
17520W        W84303   6.401  16.766   4.913
17521W        W84304   5.847  18.611   0.983
17522W        W84305  18.568  32.677  12.011
17523W        W84306   7.709  44.897  12.169
17524W        W84307  27.666  27.201   0.099
17525W        W84308   2.010  12.372   0.537
17526W        W84309  27.042  15.890  13.438
17527W        W84310   4.604   7.833   2.938
17528W        W84311  28.533  30.396   2.209
17529W        W84312  29.639  26.176   0.516
17530W        W84313  15.462  44.190  13.192
17531W        W84314   4.351  35.404   1.273
17532W        W84315  35.559  44.259   0.101
17533W        W84316   0.327   1.356   2.347
17534W        W84317  10.510  14.543  13.913
17535W        W84318  36.208  30.142  14.346
17536W        W84319  35.321  15.753  11.362
17537W        W84320  33.539  37.147   0.923
17538W        W84321   2.249  37.447   1.880
17539W        W84322  16.050  13.495  11.607
17540W        W84323   5.184   1.322  14.363
17541W        W84324   6.860  34.687   3.705
17542W        W84325   1.811  38.098  12.149
17543W        W84326  16.195  34.563   1.683
17544W        W84327   9.438  16.566  12.144
17545W        W84328  29.972  38.679  12.125
17546W        W84329   9.921  37.037  13.575
17547W        W84330  34.439  31.052   4.836
17548W        W84331   1.758  15.256   2.774
17549W        W84332   2.955  33.553   0.492
17550W        W84333  33.913  39.485  12.551
17551W        W84334  22.988  31.851  12.532
17552W        W84335   5.788  35.532   1.155
17553W        W84336   6.099   4.430   3.978
17554W        W84337  17.299  29.898  11.918
17555W        W84338  40.960  43.539   1.183
17556W        W84339  26.238   9.335   0.231
17557W        W84340  38.052  29.094  14.763
17558W        W84341  21.974  18.631  14.764
17559W        W84342   0.901  18.277  14.847
17560W        W84343  16.171   8.584   0.281
17561W        W84344   6.089  17.151  11.780
17562W        W84345  44.463  18.563   2.439
17563W        W84346   1.436  10.694  13.836
17564W        W84347  12.744  16.614   3.242
17565W        W84348  33.907  10.225   1.413
17566W        W84349  35.860  32.993  12.102
17567W        W84350  26.006  18.853  11.589
17568W        W84351  19.126  11.315   1.197
17569W        W84352  17.679   3.782   1.325
17570W        W84353  17.537   6.337  14.491
17571W        W84354   8.661  41.904   4.541
17572W        W84355   7.662  37.071  12.296
17573W        W84356  44.859  11.249  12.055
17574W        W84357   0.371  27.871  11.326
17575W        W84358  11.272  17.250  14.976
17576W        W84359   1.960  16.573  13.402
17577W        W84360  34.391  24.577   2.293
17578W        W84361   3.859   9.654  13.849
17579W        W84362  43.904  36.340  14.351
17580W        W84363   4.721   6.880  10.530
17581W        W84364  12.727  37.154   0.770
17582W        W84365  43.911  26.519  10.220
17583W        W84366  15.379  21.816  13.155
17584W        W84367   3.175  44.394  10.854
17585W        W84368   5.170  42.271  12.488
17586W        W84369  19.502  32.533   3.139
17587W        W84370  43.276   9.692  13.872
17588W        W84371  40.825  28.689   1.833
17589W        W84372  34.807  39.479  14.774
17590W        W84373   5.275   6.118   2.285
17591W        W84374   9.762  30.926  12.612
17592W        W84375  19.042   6.389   3.734
17593W        W84376   1.699  26.934   1.373
17594W        W84377  30.579  23.586   3.896
17595W        W84378   6.815  37.638  13.326
17596W        W84379  21.851   8.393   3.092
17597W        W84380  10.711  32.386  12.819
17598W        W84381  13.132  18.699  14.945
17599W        W84382  16.229  26.956  12.153
17600W        W84383  38.033   9.665  14.949
17601W        W84384  12.617   7.977  12.471
17602W        W84385   7.161  16.752  13.836
17603W        W84386  40.903  33.809   1.832
17604W        W84387  10.868  21.144   0.789
17605W        W84388   6.301  24.598  10.218
17606W        W84389  36.470  22.778   3.627
17607W        W84390  15.053  16.865   2.423
17608W        W84391  38.878  29.232   4.225
17609W        W84392  33.543  38.214  13.340
17610W        W84393  13.195   6.534   4.796
17611W        W84394  43.393  24.839  14.756
17612W        W84395  19.042  32.930   0.792
17613W        W84396  10.139  23.115  12.883
17614W        W84397   3.002  39.066   1.409
17615W        W84398  39.441   3.957   1.487
17616W        W84399  13.944  24.091   3.186
17617W        W84400  31.603  25.771  13.275
17618W        W84401  29.677  41.839   3.966
17619W        W84402  20.117  16.269   4.348
17620W        W84403   0.434   2.669   4.561
17621W        W84404  28.956  22.595   3.880
17622W        W84405  11.791  41.845  11.749
17623W        W84406  11.379  16.745   2.264
17624W        W84407  40.517  32.847   0.414
17625W        W84408  32.184  30.899   2.325
17626W        W84409  25.739   7.932   3.645
17627W        W84410  13.080  20.647   0.023
17628W        W84411  34.954   9.470   9.750
17629W        W84412  34.080  27.102   0.748
17630W        W84413  28.551  28.595   4.743
17631W        W84414  16.048  34.522   2.235
17632W        W84415  25.342   5.166  14.013
17633W        W84416  23.175   7.503   5.024
17634W        W84417  19.732  34.808   0.343
17635W        W84418  42.938  18.650   0.350
17636W        W84419  42.729   2.358  14.648
17637W        W84420  23.191  29.342   1.813
17638W        W84421  12.321  16.110  11.188
17639W        W84422  37.096   3.333  11.629
17640W        W84423  22.811  44.970  13.628
17641W        W84424  26.943   2.453   0.315
17642W        W84425  40.295  44.456  11.696
17643W        W84426  25.457  10.221  11.486
17644W        W84427  33.492  30.407   1.316
17645W        W84428  37.350  26.226   4.543
17646W        W84429  25.188  22.177  10.336
17647W        W84430   1.686  25.985   2.314
17648W        W84431  35.091  16.137   2.772
17649W        W84432   0.433  13.919  10.747
17650W        W84433   2.729  21.627   1.932
17651W        W84434   1.295  38.015   3.307
17652W        W84435  22.066  43.997   3.249
17653W        W84436  41.160  10.621   2.437
17654W        W84437  20.014  24.568  14.356
17655W        W84438   5.904  11.288   4.697
17656W        W84439  34.606  25.423   3.277
17657W        W84440   2.789  32.008  13.950
17658W        W84441   7.680  20.171  13.767
17659W        W84442  35.565  43.845   4.463
17660W        W84443   0.190  15.942  12.511
17661W        W84444  30.483  19.529   4.050
17662W        W84445   8.643   4.827   4.541
17663W        W84446   5.920  43.880   2.351
17664W        W84447  32.647  28.080  12.318
17665W        W84448  16.719  34.445  10.645
17666W        W84449  27.721  42.412  13.374
17667W        W84450  21.973  29.372  11.147
17668W        W84451  39.321   9.759  11.319
17669W        W84452   3.289  32.655   0.712
17670W        W84453   0.862  36.512   1.182
17671W        W84454  41.283  32.166   0.771
17672W        W84455  30.879  26.808  13.917
17673W        W84456  16.082  16.775  14.409
17674W        W84457  33.368  27.604   3.942
17675W        W84458   6.372  35.942  14.830
17676W        W84459  37.970  34.077   4.186
17677W        W84460   0.759  36.274  14.418
17678W        W84461  42.366  29.598  10.497
17679W        W84462  10.386  24.160   2.690
17680W        W84463  33.080  43.871  12.964
17681W        W84464  21.463   5.984   3.274
17682W        W84465   4.566  20.717  12.642
17683W        W84466  15.641  20.101  14.342
17684W        W84467   1.450  31.505   3.451
17685W        W84468   5.539   7.886   1.720
17686W        W84469  36.868  36.906  13.866
17687W        W84470  43.740  43.790   3.607
17688W        W84471   9.621  17.588   1.313
17689W        W84472  21.451   0.493   0.512
17690W        W84473   5.901  21.658  10.658
17691W        W84474  37.367  12.844   3.233
17692W        W84475  31.303  18.474   2.225
17693W        W84476  11.864  28.437   3.167
17694W        W84477  35.497  19.320   4.118
17695W        W84478  29.553  35.576  12.909
17696W        W84479  18.619  12.431   1.897
17697W        W84480  40.140   8.271  14.940
17698W        W84481  21.488  22.121   1.684
17699W        W84482  26.460  16.034   0.894
17700W        W84483  14.555  27.184   1.206
17701W        W84484  17.323  23.461  10.768
17702W        W84485   5.496  40.922  13.323
17703W        W84486  20.653  22.470  11.017
17704W        W84487  13.159  15.697   1.976
17705W        W84488  42.149  21.122   1.841
17706W        W84489  27.478  39.165  11.967
17707W        W84490  33.858   6.267   3.574
17708W        W84491  30.675   9.312  14.527
17709W        W84492  32.326  24.209   3.178
17710W        W84493  17.071   8.318   1.295
17711W        W84494  39.818  16.158   4.596
17712W        W84495  36.769  38.814  13.954
17713W        W84496  24.001  17.031   2.247
17714W        W84497  38.891   6.471  13.986
17715W        W84498  21.093  43.864   4.596
17716W        W84499  23.946   4.332   0.720
17717W        W84500  37.118  28.976  12.534
17718W        W84501   0.433  14.525   5.455
17719W        W84502   1.676   6.614   4.128
17720W        W84503   2.784  42.444   1.885
17721W        W84504  27.580  34.297  12.207
17722W        W84505   9.291   7.974  14.002
17723W        W84506  15.406  18.346  11.630
17724W        W84507  31.085   2.495  12.419
17725W        W84508  33.194   5.853  14.070
17726W        W84509  26.629  20.552  11.284
17727W        W84510  41.198  31.587  11.409
17728W        W84511   1.150  26.568   2.291
17729W        W84512  24.720  14.360  11.884
17730W        W84513  26.871  39.441  12.946
17731W        W84514  33.616  15.650   2.836
17732W        W84515  37.869  25.392  12.787
17733W        W84516   8.273   6.049  14.890
17734W        W84517  18.085   3.307  12.448
17735W        W84518  39.333  16.260  12.635
17736W        W84519  16.188   7.678   1.984
17737W        W84520  17.018  38.837  12.321
17738W        W84521   0.472  13.094  12.921
17739W        W84522  10.373  32.754  14.885
17740W        W84523   8.357  12.100   0.276
17741W        W84524   8.974  28.709  10.824
17742W        W84525  37.971  10.881   0.334
17743W        W84526  11.144  30.608   3.251
17744W        W84527  19.348  27.230  12.545
17745W        W84528  19.089   8.741  12.013
17746W        W84529  11.180  39.375  11.644
17747W        W84530  33.296  15.136   1.116
17748W        W84531   5.227  16.394  10.800
17749W        W84532  39.516  43.481  13.581
17750W        W84533  21.895  40.397  13.044
17751W        W84534  26.282  37.962   0.840
17752W        W84535  34.877  31.891  10.570
17753W        W84536  22.155  17.564   4.663
17754W        W84537  15.118  26.174  13.949
17755W        W84538   4.351  41.017   1.212
17756W        W84539  31.920  39.098  13.446
17757W        W84540  13.205   3.630  12.453
17758W        W84541  24.930  10.871   1.571
17759W        W84542   4.140   4.742   2.194
17760W        W84543   5.651   8.700  11.592
17761W        W84544   9.680  30.427  12.441
17762W        W84545   8.714   6.212   1.332
17763W        W84546  14.765  25.916  10.720
17764W        W84547   9.644  15.929  14.448
17765W        W84548  23.150  35.831   2.137
17766W        W84549   7.205  29.879   3.945
17767W        W84550  19.020   0.729  13.485
17768W        W84551  13.151  36.527  14.990
17769W        W84552  24.149  44.423  11.547
17770W        W84553  19.782   3.389   2.794
17771W        W84554   5.384  35.592  11.099
17772W        W84555  34.400  36.389   1.952
17773W        W84556  25.321  31.615  13.999
17774W        W84557  32.792  22.790   3.235
17775W        W84558  43.907  15.335  13.497
17776W        W84559  34.013  31.549  11.504
17777W        W84560  23.566  17.099  14.789
17778W        W84561  17.019  19.343   4.524
17779W        W84562  43.013  12.503  13.586
17780W        W84563  25.203  14.105  10.649
17781W        W84564  18.003  31.076   2.226
17782W        W84565  12.370   9.737  13.820
17783W        W84566   4.355  36.673  11.045
17784W        W84567  30.323  17.645  13.339
17785W        W84568  12.234  14.747   4.180
17786W        W84569  26.261  39.751   0.359
17787W        W84570  26.435  34.219   3.297
17788W        W84571  18.610  29.183   0.261
17789W        W84572  20.262   5.785   3.652
17790W        W84573  39.440   5.273  14.792
17791W        W84574  16.615  15.721  13.774
17792W        W84575   9.387  36.792   4.066
17793W        W84576  18.396  28.883   3.681
17794W        W84577  25.110  25.108  14.141
17795W        W84578  32.046   0.944  10.692
17796W        W84579  26.498  19.829   0.836
17797W        W84580  22.578  21.190  10.442
17798W        W84581   7.182  15.790   3.208
17799W        W84582  23.020  31.632  10.429
17800W        W84583  18.603   6.941   1.889
17801W        W84584  24.985  25.447   1.260
17802W        W84585  17.868  19.834   4.458
17803W        W84586   5.197  10.399  14.982
17804W        W84587  40.489  20.569   1.429
17805W        W84588  29.506  18.818   4.708
17806W        W84589  29.736  22.851  10.318
17807W        W84590   0.036  23.747   3.240
17808W        W84591  26.557  25.114  13.888
17809W        W84592  28.046  36.833  14.797
17810W        W84593   5.049   4.450   0.418
17811W        W84594  30.334  12.241   0.189
17812W        W84595  39.423  38.929   1.778
17813W        W84596  38.590  32.081  14.567
17814W        W84597  39.989  19.083   4.147
17815W        W84598  13.671  21.293  13.105
17816W        W84599  15.549  24.311   0.931
17817W        W84600  39.957  26.220  10.690
17818W        W84601  36.919  44.440  11.993
17819W        W84602   0.862  13.409   2.760
17820W        W84603   6.097  33.528   0.653
17821W        W84604  12.220  22.801   2.257
17822W        W84605  36.108  26.144  11.092
17823W        W84606  24.702   6.655   1.917
17824W        W84607  38.958  41.901  13.060
17825W        W84608  30.630  16.665   0.401
17826W        W84609  34.122   2.305  14.963
17827W        W84610  30.472   3.230   4.942
17828W        W84611  29.941  33.386   0.811
17829W        W84612  34.010  39.339   4.665
17830W        W84613   5.886   9.837   4.124
17831W        W84614  25.186  38.815  14.048
17832W        W84615   7.858  31.422  12.384
17833W        W84616  33.118  32.429   4.210
17834W        W84617  22.557  24.251   1.717
17835W        W84618   2.719  26.931  12.492
17836W        W84619  27.015   5.713   4.539
17837W        W84620  13.884  18.124   4.446
17838W        W84621  18.205   6.718  12.461
17839W        W84622  27.099  13.556  11.070
17840W        W84623  23.319  11.808  11.562
17841W        W84624  35.011  44.503   0.885
17842W        W84625  17.127  44.065  10.891
17843W        W84626   2.806  29.906   3.678
17844W        W84627  44.360  31.443  10.613
17845W        W84628  11.383  33.852   3.662
17846W        W84629  26.155   8.605   0.880
17847W        W84630  43.228  16.003  12.432
17848W        W84631  17.506   2.645   2.663
17849W        W84632  21.275   3.960  13.398
17850W        W84633  24.585  21.623  10.622
17851W        W84634  14.022  28.625   3.994
17852W        W84635  27.990  37.329  14.895
17853W        W84636  42.310  31.720  12.984
17854W        W84637  27.792  20.532  10.270
17855W        W84638  28.772   5.991  11.595
17856W        W84639  17.271  23.856   0.444
17857W        W84640  33.449  18.288   2.191
17858W        W84641  12.437  24.761  14.933
17859W        W84642  37.142  16.869  14.588
17860W        W84643  22.549  10.171  12.408
17861W        W84644  23.554   5.614  11.724
17862W        W84645   8.916   4.827  13.952
17863W        W84646  31.011  24.641  14.789
17864W        W84647  33.503  12.531  10.761
17865W        W84648   1.494  12.010   3.726
17866W        W84649  19.105  22.909  12.476
17867W        W84650  27.114  24.626  11.937
17868W        W84651  26.199  42.979   1.382
17869W        W84652  42.284   2.076  14.489
17870W        W84653  34.062  37.531   2.492
17871W        W84654  10.291   1.619  11.167
17872W        W84655  35.964  23.226  11.416
17873W        W84656  29.964  26.179  13.740
17874W        W84657  23.345   2.870  11.978
17875W        W84658  40.900  30.358   1.032
17876W        W84659   3.695  43.135  11.623
17877W        W84660  38.795  41.012   1.262
17878W        W84661  32.992   5.016   2.406
17879W        W84662  10.762  18.803   0.361
17880W        W84663   1.961  30.033  13.433
17881W        W84664  10.115  35.726   4.104
17882W        W84665   7.462   8.862  11.811
17883W        W84666  19.560  24.394  13.904
17884W        W84667  13.320  10.077   0.827
17885W        W84668   3.662  32.482   3.089
17886W        W84669   8.826  12.510  10.231
17887W        W84670   6.943  16.201  13.480
17888W        W84671   9.633  11.251   3.676
17889W        W84672   7.712  23.118   1.175
17890W        W84673   5.128  31.215   3.152
17891W        W84674  34.027   7.028   1.880
17892W        W84675   2.454  19.997  11.652
17893W        W84676  28.679  16.700  11.030
17894W        W84677   0.949  19.766  10.680
17895W        W84678  41.334  31.989  14.906
17896W        W84679  19.632  29.233   1.407
17897W        W84680  12.872   0.960   2.368
17898W        W84681  30.021  15.111   0.937
17899W        W84682  33.061  34.955  12.826
17900W        W84683   7.761   8.238  13.854
17901W        W84684  19.068  44.798   1.425
17902W        W84685   8.408  43.965   3.325
17903W        W84686  35.254  29.393  11.591
17904W        W84687  28.452  44.070   0.764
17905W        W84688  10.282   6.296   5.447
17906W        W84689  17.436  39.826   1.475
17907W        W84690  35.591  28.089  11.179
17908W        W84691  41.098   8.833   2.871
17909W        W84692  18.099  23.073   2.669
17910W        W84693  41.937  36.290   2.735
17911W        W84694   2.282  20.957   1.277
17912W        W84695  40.688   8.285  13.843
17913W        W84696  11.949  21.101  13.022
17914W        W84697  41.730  42.728   1.398
17915W        W84698  25.161   3.643  14.803
17916W        W84699  21.613  43.284   0.984
17917W        W84700  41.011  42.279   4.108
17918W        W84701  13.456  23.652  12.426
17919W        W84702  39.262  11.834  13.863
17920W        W84703  43.389  15.063   0.053
17921W        W84704  31.385  23.722  10.271
17922W        W84705  26.183  39.906  13.454
17923W        W84706  11.205  20.632  11.992
17924W        W84707  21.572   5.778   2.371
17925W        W84708  42.806   8.607  12.509
17926W        W84709  20.236  42.515  13.364
17927W        W84710  39.252  40.060  12.438
17928W        W84711  30.509   7.177   1.374
17929W        W84712   3.937   0.224  13.676
17930W        W84713  26.593  24.673   1.497
17931W        W84714   6.653  36.278   2.383
17932W        W84715   6.227   0.041   3.702
17933W        W84716  11.265  42.370  12.085
17934W        W84717  42.026   2.408  11.077
17935W        W84718  26.217  11.857  11.537
17936W        W84719  18.341  12.690  14.925
17937W        W84720   3.719  22.994   1.329
17938W        W84721   7.918  37.263  13.646
17939W        W84722  11.931  22.912  11.600
17940W        W84723  18.928  39.896  12.450
17941W        W84724  17.297  42.018   1.716
17942W        W84725  44.874   9.660  11.131
17943W        W84726  30.144  17.749  14.322
17944W        W84727  31.959  42.040  11.219
17945W        W84728  44.693  24.665   2.089
17946W        W84729   9.593  37.440  10.634
17947W        W84730  14.297   7.219  12.618
17948W        W84731  13.216  22.735   2.610
17949W        W84732   0.898   6.010  13.606
17950W        W84733   6.113  31.814   4.430
17951W        W84734   2.486  30.246  14.701
17952W        W84735  14.320  11.908   2.849
17953W        W84736  19.180   5.945  14.483
17954W        W84737  44.616  15.796   4.186
17955W        W84738  27.213   8.933   3.717
17956W        W84739  24.945  34.027  11.544
17957W        W84740  20.492  31.678   4.840
17958W        W84741  30.047  32.348   4.160
17959W        W84742  35.345  22.935  14.464
17960W        W84743  20.915  27.663   1.365
17961W        W84744  40.959  17.179   3.743
17962W        W84745  37.539  28.704  11.234
17963W        W84746   1.480  16.795  10.700
17964W        W84747   7.135   0.838  11.192
17965W        W84748   1.010  18.524  12.030
17966W        W84749  34.041   4.803   1.295
17967W        W84750  37.426  10.192  10.406
17968W        W84751  21.600  41.981  12.137
17969W        W84752   2.060  28.638  13.342
17970W        W84753  36.875   6.172   5.014
17971W        W84754  42.449  11.238   5.078
17972W        W84755  23.164  32.074  10.153
17973W        W84756   9.493  30.508   1.215
17974W        W84757  11.276  19.804   0.976
17975W        W84758  36.406  19.410  12.017
17976W        W84759  44.946  43.997  11.860
17977W        W84760  16.706  42.808  13.704
17978W        W84761  42.100   1.417   4.823
17979W        W84762   9.812  41.124   1.751
17980W        W84763  43.594  42.044  11.706
17981W        W84764  28.717  20.598  13.123
17982W        W84765  20.571   1.791  11.558
17983W        W84766  16.383  28.191  12.954
17984W        W84767  20.263  14.679   2.974
17985W        W84768   1.986   3.820  10.790
17986W        W84769  17.072  37.321  10.615
17987W        W84770   6.759  41.400  13.464
17988W        W84771  18.226  37.022  11.069
17989W        W84772  31.988  11.076   3.214
17990W        W84773  36.559  39.120   5.114
17991W        W84774   1.841  24.752   1.957
17992W        W84775   0.017  35.396  14.305
17993W        W84776  36.443   7.939   0.332
17994W        W84777  22.259  29.224   1.562
17995W        W84778  19.412   0.178  11.897
17996W        W84779  14.164  24.430  14.373
17997W        W84780  40.509   3.400  10.308
17998W        W84781  37.575  18.144  13.570
17999W        W84782  37.046  20.487   3.619
18000W        W84783   5.902  23.622   0.500
18001W        W84784  39.301  26.530  11.424
18002W        W84785  38.554  23.484   0.032
18003W        W84786  32.697  13.295  11.682
18004W        W84787  21.036   6.241   1.686
18005W        W84788  25.534  17.041   2.259
18006W        W84789  43.149   4.667   2.204
18007W        W84790  32.819  23.556   1.389
18008W        W84791   6.278  33.220  11.425
18009W        W84792   8.780   0.034  12.609
18010W        W84793  15.400  19.590  10.545
18011W        W84794  11.226  25.490   2.270
18012W        W84795  31.043  23.206   2.606
18013W        W84796   0.729  15.203  12.849
18014W        W84797   6.360  30.431  10.598
18015W        W84798  37.643   8.902  10.515
18016W        W84799   0.040  15.321   2.881
18017W        W84800  21.521   8.348   0.328
18018W        W84801  40.768  28.054  10.965
18019W        W84802  15.234   6.677   1.414
18020W        W84803   2.940  16.084  10.454
18021W        W84804   9.710  28.442   0.283
18022W        W84805  32.876  34.132   3.773
18023W        W84806   3.318  11.669  13.001
18024W        W84807  30.233  18.048   4.548
18025W        W84808  12.313  31.452   0.544
18026W        W84809  37.494  35.270  11.093
18027W        W84810   8.297  39.457  12.900
18028W        W84811   5.286  42.570  12.913
18029W        W84812  22.677   5.713   0.805
18030W        W84813   7.127  34.646   4.193
18031W        W84814  38.590  17.196   2.214
18032W        W84815  12.771   7.683   2.890
18033W        W84816  27.607   1.404  14.864
18034W        W84817  24.534  37.117  14.288
18035W        W84818  20.611  34.539  12.024
18036W        W84819  23.041  14.260  12.451
18037W        W84820  16.624  43.111   0.108
18038W        W84821  23.932  16.814  11.132
18039W        W84822   7.552  31.154   3.638
18040W        W84823  32.840  36.411  12.903
18041W        W84824  12.178  12.433  12.624
18042W        W84825  25.738   4.357  13.884
18043W        W84826  24.629  13.029  12.577
18044W        W84827  33.180  31.520  14.406
18045W        W84828  10.485   5.333   3.692
18046W        W84829  22.482  11.164  11.089
18047W        W84830  23.524  29.514   1.285
18048W        W84831  25.666  14.743   2.742
18049W        W84832   7.747   7.827   1.120
18050W        W84833   7.975  43.805   3.647
18051W        W84834  22.152  36.128   2.698
18052W        W84835  20.997  36.356  12.414
18053W        W84836  25.404  42.164   1.326
18054W        W84837  44.135   9.631  12.928
18055W        W84838  12.570  41.654  12.861
18056W        W84839  11.094   7.796   2.663
18057W        W84840  33.433  33.446  14.358
18058W        W84841  11.706  22.814   2.469
18059W        W84842  37.173  18.543   3.323
18060W        W84843  21.151   4.943   0.146
18061W        W84844  44.893   6.208  12.174
18062W        W84845  35.802  10.610   4.858
18063W        W84846  20.282  33.568   1.657
18064W        W84847  30.593  21.492   3.904
18065W        W84848  42.039   3.309   3.153
18066W        W84849  38.399  21.586  13.001
18067W        W84850   0.031  25.030   0.744
18068W        W84851  29.449  28.593   1.203
18069W        W84852  19.147  37.292  13.037
18070W        W84853  10.322  12.309  10.699
18071W        W84854  22.723  25.485  14.028
18072W        W84855  40.514  33.288  11.104
18073W        W84856  33.998  15.586  14.508
18074W        W84857  13.951   0.033  11.708
18075W        W84858  10.229  27.434  14.758
18076W        W84859  39.531   0.699   4.033
18077W        W84860  34.644  18.735   4.165
18078W        W84861  40.859  44.570   2.711
18079W        W84862  11.179  38.384   3.851
18080W        W84863   6.874  15.336   1.278
18081W        W84864  37.000   0.348  14.416
18082W        W84865  17.646  37.925  10.251
18083W        W84866  26.770  12.639   1.920
18084W        W84867  39.550   2.400  13.545
18085W        W84868   9.137  29.753  12.241
18086W        W84869  29.114  30.100  14.460
18087W        W84870   1.350  25.963   4.926
18088W        W84871  26.428  22.556  13.428
18089W        W84872  36.973  32.167   3.870
18090W        W84873  23.530  40.396   3.123
18091W        W84874   7.269  29.024  12.032
18092W        W84875  33.147  27.566  11.972
18093W        W84876  28.613  29.280  14.602
18094W        W84877   0.239   1.949   3.562
18095W        W84878  34.361  32.522  12.959
18096W        W84879  30.154  15.198  12.149
18097W        W84880   7.653  24.618   2.176
18098W        W84881  28.109  33.989   1.910
18099W        W84882   8.453  12.544   4.093
18100W        W84883   0.568  38.400  10.942
18101W        W84884  14.903   7.484   4.294
18102W        W84885  42.664  20.262   2.315
18103W        W84886  35.932   0.449   5.064
18104W        W84887   0.514  16.745  10.521
18105W        W84888  40.442  41.406  13.341
18106W        W84889  31.583  39.312   1.294
18107W        W84890  12.043  37.902   4.032
18108W        W84891   3.661  34.418   1.742
18109W        W84892  26.936  19.457  14.789
18110W        W84893   5.030  35.390  13.922
18111W        W84894  29.919  20.450  10.981
18112W        W84895  13.740  36.011   2.850
18113W        W84896  14.921  36.834   3.737
18114W        W84897  37.538  30.661  14.458
18115W        W84898  43.832  37.088  12.651
18116W        W84899  15.267   6.149  14.749
18117W        W84900   7.549   0.263  13.916
18118W        W84901  37.968  19.995  12.324
18119W        W84902  17.557  10.852  14.198
18120W        W84903  17.317   4.762   2.169
18121W        W84904  27.717   7.258   4.735
18122W        W84905   4.254   8.242  13.037
18123W        W84906  27.865  43.978   0.029
18124W        W84907  34.444  13.873  10.893
18125W        W84908   9.520  44.330  14.470
18126W        W84909   7.139  29.969  12.902
18127W        W84910   9.584   0.131  10.601
18128W        W84911  27.313   2.378  10.638
18129W        W84912  14.137  38.603   4.621
18130W        W84913  23.180  28.095   2.450
18131W        W84914  18.545  26.970  11.065
18132W        W84915  25.109  28.911   4.147
18133W        W84916   3.306   0.751  12.038
18134W        W84917  36.536   4.765   1.386
18135W        W84918  37.577   6.864   1.932
18136W        W84919  23.479  18.099   2.034
18137W        W84920  19.660  42.521   1.897
18138W        W84921   2.632   5.292  12.656
18139W        W84922  24.332   6.882  12.349
18140W        W84923   4.237   9.848   4.786
18141W        W84924  43.093  28.008   9.517
18142W        W84925   3.159  31.848  14.927
18143W        W84926   8.448  19.571   1.714
18144W        W84927  44.838   2.820  13.327
18145W        W84928  43.287  28.734   2.719
18146W        W84929  21.244  34.136  14.007
18147W        W84930  25.598  35.191  12.001
18148W        W84931  22.874  35.517   0.417
18149W        W84932   0.836  20.202   2.182
18150W        W84933  22.649  27.356   0.044
18151W        W84934  40.864   3.354  13.121
18152W        W84935  14.586  15.311  11.182
18153W        W84936  24.224  10.167  14.556
18154W        W84937  40.277   8.643   0.859
18155W        W84938   7.965  14.671  13.794
18156W        W84939  20.569  40.253   0.985
18157W        W84940  12.797  25.581  12.143
18158W        W84941  22.354  39.160   1.476
18159W        W84942  10.945  28.960  11.581
18160W        W84943  38.137  31.684   2.640
18161W        W84944  36.388  30.443   1.896
18162W        W84945  39.939  34.134  14.407
18163W        W84946  32.628  36.005   1.422
18164W        W84947  11.725  24.546   1.719
18165W        W84948   9.225   3.885  11.859
18166W        W84949  15.729  44.088   3.310
18167W        W84950  15.549  23.106   2.211
18168W        W84951   9.275  38.719   2.405
18169W        W84952  24.608  42.931   2.462
18170W        W84953  31.378   0.071   4.636
18171W        W84954  44.043   2.407  11.071
18172W        W84955  42.868   1.801   2.474
18173W        W84956  25.569  36.621   0.903
18174W        W84957   6.196  29.723  14.877
18175W        W84958  21.582  13.303   1.472
18176W        W84959   0.057  21.260  12.016
18177W        W84960  28.491  30.972   2.665
18178W        W84961  16.199  21.717   3.301
18179W        W84962  36.807  25.222  11.196
18180W        W84963  22.200  23.696  12.516
18181W        W84964  43.370  16.834   5.444
18182W        W84965  29.447  31.448  11.573
18183W        W84966  17.237  44.755   0.927
18184W        W84967  44.184  19.036  12.895
18185W        W84968  25.704  37.284  12.012
18186W        W84969  23.055  44.534  14.394
18187W        W84970  32.856  36.398   4.536
18188W        W84971  38.037  16.003  11.164
18189W        W84972  11.257  31.245  14.851
18190W        W84973   8.766  41.302  13.981
18191W        W84974   4.381  17.608  14.767
18192W        W84975  41.222  21.245  12.610
18193W        W84976  29.728  34.980  11.645
18194W        W84977  39.784   7.732   3.310
18195W        W84978  15.438  21.437   2.826
18196W        W84979  13.852  35.490  10.460
18197W        W84980  31.380  41.470   1.441
18198W        W84981   0.446  33.820   4.000
18199W        W84982   3.680  35.394  12.026
18200W        W84983  33.882  16.065   2.686
18201W        W84984  12.662  21.581   0.726
18202W        W84985  32.891   7.294   0.450
18203W        W84986   7.929  21.801   2.072
18204W        W84987   3.360  21.527   3.142
18205W        W84988  21.294   1.992   1.312
18206W        W84989   4.772  35.992  12.021
18207W        W84990  44.120  13.149   5.417
18208W        W84991  43.218   2.091   2.709
18209W        W84992  39.526   1.709   2.345
18210W        W84993  26.147  36.527   2.252
18211W        W84994  34.012  34.102  14.352
18212W        W84995   2.421  38.107   1.211
18213W        W84996   9.495   3.326  10.742
18214W        W84997  12.563  20.014   1.717
18215W        W84998   8.365  15.688   2.407
18216W        W84999  17.597  40.990   4.218
18217W        W85000  28.600  44.241  13.530
18218W        W85001  34.420   8.988  13.961
18219W        W85002   5.906  10.319   4.334
18220W        W85003  30.520  25.218   0.959
18221W        W85004  42.459  27.972  12.239
18222W        W85005  10.798  40.999   3.415
18223W        W85006   4.539  19.878   0.297
18224W        W85007  10.839   4.840  14.789
18225W        W85008  11.714   4.266   0.493
18226W        W85009   4.229  41.624  10.941
18227W        W85010  14.552  39.534   3.295
18228W        W85011  25.496   3.811   2.386
18229W        W85012  18.152   4.202   3.882
18230W        W85013  15.195  42.576   0.796
18231W        W85014  13.695  27.392  11.580
18232W        W85015  36.476  20.485  12.953
18233W        W85016  12.631  17.115   3.035
18234W        W85017  13.651   6.765   4.575
18235W        W85018   0.212   4.324   0.730
18236W        W85019   6.729   6.960   4.572
18237W        W85020  32.853  19.482  14.525
18238W        W85021  22.621  21.057   4.242
18239W        W85022  20.381  13.646   4.809
18240W        W85023   8.157  39.214   3.754
18241W        W85024  19.163  23.232  12.871
18242W        W85025  17.644  14.830  12.485
18243W        W85026   0.758  12.310   4.210
18244W        W85027  38.832   4.650   3.582
18245W        W85028  21.978  25.548   5.147
18246W        W85029  39.304  22.208  13.840
18247W        W85030  26.364  38.516   2.375
18248W        W85031   7.268  17.220   1.712
18249W        W85032  32.967  18.536  13.629
18250W        W85033  36.964  35.233   1.248
18251W        W85034  41.840  31.447   2.285
18252W        W85035  17.159  40.456   0.483
18253W        W85036  42.513  30.458   1.695
18254W        W85037   7.021   6.770  11.233
18255W        W85038  37.070  16.782   2.724
18256W        W85039   4.513  41.342   2.833
18257W        W85040  23.380   3.268  12.956
18258W        W85041   7.262  22.765  11.683
18259W        W85042  11.242  21.490  14.785
18260W        W85043  19.497  12.826   1.885
18261W        W85044  35.998  26.431  12.662
18262W        W85045  35.167  22.331   4.628
18263W        W85046  29.634  30.501   3.245
18264W        W85047   2.276  28.641   4.745
18265W        W85048  43.760  39.082   4.179
18266W        W85049  30.230  19.868   9.849
18267W        W85050  39.080   2.400   1.500
18268W        W85051  24.013  25.057  12.311
18269W        W85052  19.605  17.752   0.234
18270W        W85053  39.644  22.743  14.399
18271W        W85054  17.338  12.148   0.667
18272W        W85055  18.351  13.114  13.976
18273W        W85056   6.227   6.271   0.406
18274W        W85057  21.238   2.329   4.007
18275W        W85058  37.914  35.370  10.394
18276W        W85059  19.668  31.997   2.990
18277W        W85060   0.482  10.095  10.583
18278W        W85061  11.522  25.210   2.708
18279W        W85062  15.108   5.927  11.441
18280W        W85063  11.941   2.487  11.979
18281W        W85064  32.670  16.832   1.836
18282W        W85065  37.528  15.144  12.835
18283W        W85066  17.598   3.536   0.855
18284W        W85067  28.610  18.948   1.687
18285W        W85068  31.754  19.628  14.894
18286W        W85069  11.400  33.420  14.553
18287W        W85070  30.086  32.086   0.441
18288W        W85071  35.094  39.313  11.980
18289W        W85072  21.292  14.079  11.516
18290W        W85073  30.627   7.926  14.416
18291W        W85074  17.758   9.919  13.849
18292W        W85075  34.933   6.667   4.039
18293W        W85076  25.324  38.788   2.584
18294W        W85077  26.027  18.567  10.684
18295W        W85078  31.334  39.601   0.901
18296W        W85079  38.401  26.003  14.773
18297W        W85080  16.778  23.273   1.152
18298W        W85081  11.779  25.119   1.686
18299W        W85082  16.490  18.497  13.461
18300W        W85083  44.520   9.379  11.964
18301W        W85084  23.069  41.822  13.512
18302W        W85085  13.687  20.621   1.275
18303W        W85086   2.493  14.982   3.746
18304W        W85087  32.467  26.023  12.993
18305W        W85088  38.051  36.915  11.866
18306W        W85089  33.953   9.605   3.084
18307W        W85090  22.670  28.162  12.067
18308W        W85091  33.652  20.688  14.400
18309W        W85092  15.397  30.853  14.377
18310W        W85093  24.505  39.870  10.382
18311W        W85094  43.012  34.494   0.738
18312W        W85095  18.088   5.432   3.226
18313W        W85096   6.232  33.202   4.173
18314W        W85097  11.169  12.355  13.458
18315W        W85098  39.610   9.233   4.698
18316W        W85099  35.401  25.734   2.238
18317W        W85100   5.642  41.350  14.920
18318W        W85101   9.800  15.602   1.263
18319W        W85102  10.559  30.061   1.994
18320W        W85103  25.511  24.699   0.721
18321W        W85104  42.958  14.195  10.531
18322W        W85105  10.411  19.650  12.478
18323W        W85106  26.545  43.496  13.305
18324W        W85107  42.878  35.985   1.800
18325W        W85108   5.769   1.432   4.821
18326W        W85109  15.632   6.255   3.336
18327W        W85110   8.742  18.639   0.192
18328W        W85111   8.757  33.527   1.079
18329W        W85112   0.204  19.840   1.340
18330W        W85113  17.205  40.072   3.685
18331W        W85114  38.470   0.623   5.030
18332W        W85115   8.386   7.230   0.746
18333W        W85116  35.660  21.354  10.210
18334W        W85117  11.467  13.988   1.403
18335W        W85118   0.762  41.402   2.736
18336W        W85119   7.110   2.213  12.881
18337W        W85120   1.925  39.238  12.700
18338W        W85121  20.084  19.737   4.581
18339W        W85122  13.667   1.528   4.114
18340W        W85123  33.378  27.622  10.626
18341W        W85124  10.755  44.322  13.602
18342W        W85125  20.153  17.203   3.703
18343W        W85126  29.662  25.730   0.764
18344W        W85127  26.921  23.896   1.556
18345W        W85128  42.722   6.425   3.810
18346W        W85129   6.738   5.988   4.727
18347W        W85130  25.001  35.020   2.212
18348W        W85131  39.519  30.358   2.355
18349W        W85132  38.367  25.097  10.578
18350W        W85133  41.233   4.858   2.712
18351W        W85134  17.834  35.860  10.240
18352W        W85135  14.356  38.349  14.772
18353W        W85136   7.192  27.678  13.043
18354W        W85137  30.563  26.232  11.407
18355W        W85138  16.746  36.625   0.169
18356W        W85139   0.917  14.080   3.353
18357W        W85140  23.066  36.308  12.043
18358W        W85141  11.247  33.271   2.117
18359W        W85142  20.459   8.676   2.643
18360W        W85143   1.948   9.858   1.678
18361W        W85144  25.306  28.099  10.185
18362W        W85145  14.530   9.774   0.228
18363W        W85146  32.644  21.229  13.096
18364W        W85147  25.964  15.895   0.988
18365W        W85148  28.946  21.176   0.340
18366W        W85149   2.249  19.432   1.299
18367W        W85150  39.016  41.533   0.273
18368W        W85151   0.380   3.185  10.598
18369W        W85152  18.138   2.394   3.258
18370W        W85153  19.905  39.079   2.251
18371W        W85154  15.127  30.622  14.799
18372W        W85155  29.629   8.928   3.278
18373W        W85156   0.271  20.771  12.000
18374W        W85157  44.443  42.540   5.072
18375W        W85158  29.465  33.540  12.047
18376W        W85159  13.543  19.721  12.008
18377W        W85160   5.099  29.046  12.931
18378W        W85161  25.489  41.005   2.464
18379W        W85162  43.936  10.237   2.808
18380W        W85163  11.262  40.393  12.921
18381W        W85164   8.893  38.245  14.978
18382W        W85165  38.594  17.633  13.948
18383W        W85166  20.939  11.272   0.860
18384W        W85167   7.266  33.982   2.163
18385W        W85168  26.426  42.576   9.815
18386W        W85169  18.463   1.443  12.974
18387W        W85170  34.477  33.117  14.000
18388W        W85171  26.572  20.191  14.069
18389W        W85172  44.084  29.696   0.852
18390W        W85173  26.154  13.198  14.898
18391W        W85174  27.636  40.705  12.110
18392W        W85175  12.194  13.650  13.264
18393W        W85176  41.091  41.642  13.939
18394W        W85177   3.952   5.756  12.898
18395W        W85178  13.759  28.942   3.438
18396W        W85179   7.926   4.602  11.535
18397W        W85180  28.096  28.396  12.567
18398W        W85181  29.852  20.538   5.031
18399W        W85182  42.980  25.480  12.678
18400W        W85183  39.550  15.251   3.122
18401W        W85184  12.734  34.807  14.817
18402W        W85185  17.382   6.985  14.234
18403W        W85186  33.645   2.367  13.562
18404W        W85187  38.499  37.144  12.004
18405W        W85188  22.274  40.874  12.072
18406W        W85189  38.511   6.495   0.041
18407W        W85190  16.290  34.664   1.110
18408W        W85191  24.350  43.333   3.318
18409W        W85192   2.841  10.130   2.369
18410W        W85193  12.768   7.033  10.649
18411W        W85194   5.067   8.403  13.790
18412W        W85195  28.079  16.306   4.184
18413W        W85196   4.828  40.275  11.507
18414W        W85197  18.520  41.001   0.381
18415W        W85198  18.272  18.534  13.296
18416W        W85199  33.783  44.865  12.991
18417W        W85200  23.117  26.155  11.323
18418W        W85201  39.976   5.491  10.703
18419W        W85202  12.120  38.323   0.477
18420W        W85203  30.081  12.812  14.102
18421W        W85204  42.745  22.650  13.555
18422W        W85205   3.885   5.521   4.094
18423W        W85206  23.959  33.445  12.525
18424W        W85207  33.169  28.053   1.965
18425W        W85208  42.464  37.886   3.322
18426W        W85209  28.715  38.019   2.012
18427W        W85210  12.770   1.095  13.681
18428W        W85211  23.473  31.606  13.761
18429W        W85212   4.177  25.089   3.298
18430W        W85213   4.817  33.592  12.539
18431W        W85214  39.909  32.121   0.464
18432W        W85215   9.319  34.526  12.177
18433W        W85216  41.517  36.605   2.715
18434W        W85217  18.350  17.072   2.344
18435W        W85218  41.236  29.999   1.783
18436W        W85219  42.826  44.847   3.828
18437W        W85220  35.074   4.299   4.656
18438W        W85221  23.068  40.089  11.644
18439W        W85222  31.593  10.598   0.956
18440W        W85223   1.840  37.840  11.229
18441W        W85224   9.659  19.578   0.349
18442W        W85225  31.660  32.067   2.000
18443W        W85226  43.764  33.062   3.557
18444W        W85227   9.108  44.408   1.702
18445W        W85228  32.359  15.642   4.199
18446W        W85229   4.781  31.581   1.870
18447W        W85230  37.310  17.057  12.799
18448W        W85231  31.343  20.506  13.901
18449W        W85232   4.943  17.655   3.682
18450W        W85233  21.137   9.675   1.892
18451W        W85234  43.029  42.917  13.369
18452W        W85235   1.708   8.369   3.165
18453W        W85236   6.343  13.569   4.650
18454W        W85237  30.300  43.492   4.092
18455W        W85238  23.339  31.901   2.363
18456W        W85239   5.704  33.098  12.920
18457W        W85240  12.544  43.374  11.670
18458W        W85241  41.101  41.163  14.133
18459W        W85242  32.870  36.955  11.610
18460W        W85243  17.136  27.703  12.916
18461W        W85244   8.948   2.912   1.720
18462W        W85245  19.616  19.913   4.612
18463W        W85246  22.738  44.892  10.228
18464W        W85247  11.334  28.988   1.898
18465W        W85248  43.613  18.807   3.748
18466W        W85249  10.543  27.625   1.638
18467W        W85250  36.148  32.452   4.077
18468W        W85251  39.024   4.961  12.873
18469W        W85252  29.093   7.620  12.841
18470W        W85253  36.512  33.139  12.947
18471W        W85254   0.937  12.141  11.347
18472W        W85255  30.582  41.313  10.698
18473W        W85256  33.921  26.713  11.451
18474W        W85257   8.829  30.094   0.358
18475W        W85258   3.838  12.278   5.036
18476W        W85259  38.874  31.627  14.482
18477W        W85260   9.815  18.352  11.583
18478W        W85261  30.388  12.081  10.660
18479W        W85262  16.822  21.285   0.422
18480W        W85263  25.485  12.849  12.006
18481W        W85264  37.998  27.761   3.250
18482W        W85265  43.799  40.772   0.433
18483W        W85266   4.280  44.799   1.730
18484W        W85267  40.089  22.704  13.258
18485W        W85268   9.385  12.876   2.245
18486W        W85269  34.736  15.086   0.445
18487W        W85270  41.991  35.048  14.333
18488W        W85271  11.471  14.368   9.803
18489W        W85272  10.763  32.514  11.334
18490W        W85273  36.581  13.133   0.802
18491W        W85274  34.845  33.664  11.149
18492W        W85275   4.894  30.966  12.410
18493W        W85276  26.008  20.204  11.749
18494W        W85277  19.119  44.845  14.935
18495W        W85278  17.145   7.892   2.204
18496W        W85279  29.537  25.104  10.334
18497W        W85280  12.280  29.128   2.051
18498W        W85281  26.536  30.802   1.000
18499W        W85282  11.785  19.925  13.451
18500W        W85283  21.072  35.876   4.316
18501W        W85284  39.536  25.611  11.948
18502W        W85285  18.370   0.314  12.864
18503W        W85286  32.507  26.992  11.447
18504W        W85287  36.670  43.875  11.925
18505W        W85288  32.615  40.748   3.894
18506W        W85289  19.831  16.762  11.125
18507W        W85290  11.190  37.556  14.522
18508W        W85291   1.990  28.323   1.454
18509W        W85292   0.098   7.787  11.625
18510W        W85293  22.043  17.771   1.272
18511W        W85294  24.619  25.740   0.336
18512W        W85295   1.444  19.295   4.142
18513W        W85296  39.422  20.571   3.349
18514W        W85297  10.635  12.775   2.875
18515W        W85298   1.510  36.952  13.985
18516W        W85299  22.935  39.431  10.678
18517W        W85300  32.660  20.295   3.404
18518W        W85301  30.992  20.233   3.648
18519W        W85302  33.422   5.328   0.600
18520W        W85303   9.748   3.910   4.697
18521W        W85304  18.144  17.547  12.338
18522W        W85305  10.235   0.683   0.447
18523W        W85306  43.382   5.239  11.141
18524W        W85307  21.099  43.434   4.992
18525W        W85308  12.986  36.855   0.429
18526W        W85309  17.021   4.312   3.310
18527W        W85310  13.673  13.227   3.391
18528W        W85311  31.629  33.496   3.621
18529W        W85312  24.537  20.561   0.024
18530W        W85313   2.240   5.888   1.466
18531W        W85314   4.705  12.646   0.499
18532W        W85315   2.434   8.313  14.314
18533W        W85316   7.934   3.505   0.680
18534W        W85317  31.131   8.724  14.804
18535W        W85318  38.290  12.005   4.581
18536W        W85319  27.996  20.399   1.223
18537W        W85320  10.727  32.001  12.143
18538W        W85321  26.529  31.828   2.591
18539W        W85322  37.995   7.638   5.000
18540W        W85323   0.073  38.123   0.949
18541W        W85324  38.743  27.506   2.786
18542W        W85325   2.723   7.244   1.241
18543W        W85326  31.545  23.318  14.575
18544W        W85327  40.375   5.678   4.104
18545W        W85328  28.188  35.410  13.806
18546W        W85329  19.275  23.080   3.322
18547W        W85330  44.968  37.604  13.713
18548W        W85331  24.682  12.585  11.676
18549W        W85332   7.813  43.294   0.841
18550W        W85333  37.031  28.984   1.757
18551W        W85334  17.232  16.772  11.903
18552W        W85335  34.370   5.241  13.349
18553W        W85336  29.167  39.855  13.905
18554W        W85337  43.003  42.802  11.576
18555W        W85338  11.711  26.182   3.659
18556W        W85339   6.498  15.898  11.914
18557W        W85340  26.627  28.281   2.841
18558W        W85341  23.016   0.444   4.684
18559W        W85342  17.790  12.344  13.635
18560W        W85343  18.281  16.663   1.724
18561W        W85344  17.727  18.679   0.354
18562W        W85345  37.101  13.642  10.757
18563W        W85346  37.809  39.463  11.435
18564W        W85347   1.534  20.869   2.344
18565W        W85348  23.145  39.070   1.857
18566W        W85349  29.931  33.655   2.235
18567W        W85350  42.301  32.528   2.715
18568W        W85351  33.665  15.854   5.163
18569W        W85352  28.304  33.111  14.441
18570W        W85353  26.352  18.572  13.453
18571W        W85354   6.424  24.580   2.817
18572W        W85355  43.017  21.287   0.981
18573W        W85356  30.908   9.616  12.862
18574W        W85357   2.965   8.185   0.304
18575W        W85358  35.671  25.094  13.605
18576W        W85359   5.501  23.903   1.761
18577W        W85360   1.875  22.559  14.849
18578W        W85361  23.135  29.029  14.665
18579W        W85362  28.449   6.839   2.874
18580W        W85363  24.216  44.337  12.907
18581W        W85364  20.773   2.864   1.003
18582W        W85365  18.153  15.196  11.646
18583W        W85366  21.473   9.162  14.085
18584W        W85367  29.832  17.462  13.261
18585W        W85368  37.527  18.935   0.885
18586W        W85369   2.880  37.301  12.648
18587W        W85370  18.681  30.675   4.106
18588W        W85371  37.020   6.433   0.082
18589W        W85372  18.397  36.968  11.596
18590W        W85373  36.460  35.601   3.725
18591W        W85374  26.922  31.030  10.609
18592W        W85375  15.150  38.081  13.791
18593W        W85376   5.575  26.871  14.286
18594W        W85377  24.598  36.692   0.779
18595W        W85378   8.139  22.000   3.701
18596W        W85379  10.010  27.346   0.220
18597W        W85380   0.418  14.903   3.601
18598W        W85381  24.969  20.066   0.251
18599W        W85382  37.471  14.944  11.548
18600W        W85383  27.616  10.827  13.175
18601W        W85384   4.834  11.643   1.395
18602W        W85385   7.334  42.643   1.810
18603W        W85386  23.002  33.952  11.642
18604W        W85387  28.156  28.924   4.672
18605W        W85388  12.693  30.851   3.263
18606W        W85389  33.884  10.589   3.180
18607W        W85390  29.925  26.454   2.061
18608W        W85391   8.372  21.626  14.705
18609W        W85392  34.921  33.939  11.613
18610W        W85393  18.707  42.897   0.879
18611W        W85394  41.818  29.185  14.051
18612W        W85395   1.932  21.224   4.941
18613W        W85396   7.286  18.179   3.282
18614W        W85397  41.479  26.954   1.185
18615W        W85398   4.392  10.752   1.147
18616W        W85399   8.210  33.710  10.546
18617W        W85400   8.212   4.501   2.341
18618W        W85401  37.589  24.410  11.941
18619W        W85402   7.621  15.156  14.964
18620W        W85403  17.050  41.255   9.862
18621W        W85404  44.912   2.059   4.540
18622W        W85405  14.235  32.963  12.462
18623W        W85406  18.849  32.764  11.125
18624W        W85407  13.537  26.728   1.831
18625W        W85408  25.787  44.438  14.955
18626W        W85409  31.184   8.431   0.288
18627W        W85410  14.451   6.236   9.951
18628W        W85411  10.215  25.123   2.448
18629W        W85412   4.312  34.048  11.150
18630W        W85413  18.332   4.894   2.191
18631W        W85414  16.213  13.129  12.474
18632W        W85415  44.969  42.907   0.518
18633W        W85416  37.868  24.735   1.808
18634W        W85417  11.230  17.417  11.290
18635W        W85418   8.175  21.068   0.403
18636W        W85419  30.769  15.897  12.984
18637W        W85420  17.323   3.497   0.404
18638W        W85421  23.044  10.355  10.729
18639W        W85422  31.136  39.558   1.388
18640W        W85423   3.610  34.191  14.535
18641W        W85424  26.933   4.016   4.077
18642W        W85425  38.663   7.394  11.999
18643W        W85426  32.206  36.779  13.832
18644W        W85427  43.623  30.222  12.821
18645W        W85428   4.718   7.224   4.620
18646W        W85429   0.035  27.461  11.671
18647W        W85430  39.785  11.902  13.863
18648W        W85431  26.860  41.890  12.037
18649W        W85432  19.797   8.973  13.985
18650W        W85433  31.926  42.472  14.088
18651W        W85434   5.380   8.404   3.754
18652W        W85435  23.786  28.433  12.875
18653W        W85436   7.978  18.240   0.425
18654W        W85437  24.681   5.338   3.640
18655W        W85438   6.093  24.781  12.560
18656W        W85439  33.466  35.313   2.201
18657W        W85440  39.146  35.485  13.119
18658W        W85441   2.272  32.139  11.240
18659W        W85442  29.521  24.123  11.239
18660W        W85443   1.434  14.850   2.292
18661W        W85444   3.131  26.084  14.417
18662W        W85445  14.773  13.609  11.077
18663W        W85446   3.403  42.405   2.679
18664W        W85447  28.245  31.506  12.940
18665W        W85448  42.848  33.696  12.622
18666W        W85449  28.630  29.674  14.980
18667W        W85450  21.520  20.257  12.100
18668W        W85451   9.140  27.840  13.565
18669W        W85452   3.877  39.478   2.212
18670W        W85453  24.159  40.333  12.280
18671W        W85454  34.906  41.976   0.970
18672W        W85455  30.642  43.599   4.494
18673W        W85456  22.148  37.956   3.280
18674W        W85457  43.589  35.626   1.266
18675W        W85458  41.958  26.629   2.523
18676W        W85459  43.052  10.383  12.987
18677W        W85460  22.037  24.105   4.155
18678W        W85461  18.562   3.174  12.458
18679W        W85462   7.843   5.539  11.212
18680W        W85463  18.589  15.370   2.361
18681W        W85464  29.160   4.835   0.069
18682W        W85465   1.567   1.059  13.413
18683W        W85466  23.819  35.045  12.319
18684W        W85467   4.769  33.671   3.103
18685W        W85468   5.953  20.190   2.220
18686W        W85469   1.276   7.426  12.188
18687W        W85470  27.340  18.447   2.815
18688W        W85471  25.392  21.174   0.201
18689W        W85472  25.632  18.166   3.085
18690W        W85473   6.625   3.450   3.753
18691W        W85474  35.311  13.373   4.136
18692W        W85475   5.386   3.592   3.161
18693W        W85476   0.307  10.363  12.322
18694W        W85477  18.195  19.620  11.544
18695W        W85478   5.680  19.696  14.365
18696W        W85479  10.353  16.991   5.057
18697W        W85480  32.151  34.892   2.202
18698W        W85481  34.763  23.599  14.513
18699W        W85482  41.833   3.408   1.017
18700W        W85483  31.237   8.849  13.841
18701W        W85484  33.323  24.946   2.901
18702W        W85485   4.385  28.928  14.468
18703W        W85486   6.738   7.212   3.870
18704W        W85487  37.777   4.775   1.930
18705W        W85488  30.077  13.564  14.323
18706W        W85489  16.650  30.595   2.443
18707W        W85490  26.744  21.040   2.660
18708W        W85491   3.328  41.548   1.974
18709W        W85492   7.934  39.694  13.176
18710W        W85493  26.066  28.254  12.359
18711W        W85494  26.197  11.722  13.241
18712W        W85495  10.966  34.881   1.381
18713W        W85496  41.072  39.307  14.329
18714W        W85497  25.283  15.225  11.450
18715W        W85498  18.148  13.577  13.861
18716W        W85499  15.397  19.086  14.943
18717W        W85500  38.525  21.770  13.488
18718W        W85501   7.148  44.765   4.140
18719W        W85502  36.843   9.995   4.538
18720W        W85503  25.000  32.384   1.009
18721W        W85504  27.236  14.284  13.076
18722W        W85505   9.739  42.967   0.727
18723W        W85506  32.900  17.063   1.365
18724W        W85507  12.562  21.968  14.502
18725W        W85508  16.536  18.127   3.265
18726W        W85509  29.916  25.127   2.215
18727W        W85510  42.349   3.997   2.245
18728W        W85511  33.095  19.020   5.413
18729W        W85512  26.049  33.174   0.738
18730W        W85513  19.963  18.324   4.163
18731W        W85514  16.864  22.086  12.558
18732W        W85515   3.718  28.580  10.259
18733W        W85516  24.962  38.306   4.148
18734W        W85517   6.824  24.111   1.712
18735W        W85518  29.912  24.301  13.081
18736W        W85519  12.126  33.004  13.598
18737W        W85520  26.521  38.956   3.580
18738W        W85521   6.451  39.064  13.327
18739W        W85522  31.098   4.687  12.079
18740W        W85523  28.068  38.398   4.038
18741W        W85524  29.118  19.675   1.693
18742W        W85525   5.837  27.555   4.726
18743W        W85526  23.531  32.356  10.381
18744W        W85527   3.301   4.149   1.733
18745W        W85528   4.041  22.737  11.598
18746W        W85529  13.818  24.200  11.988
18747W        W85530  13.296  35.492  14.999
18748W        W85531   5.188  36.552   4.280
18749W        W85532   8.848  17.541   1.916
18750W        W85533  29.475  34.594  11.346
18751W        W85534  40.804  33.489  14.496
18752W        W85535  13.082  15.750   0.234
18753W        W85536  28.945  22.199  12.927
18754W        W85537  20.273  42.472   4.003
18755W        W85538  31.057  41.821   1.703
18756W        W85539   4.289  19.277   0.765
18757W        W85540   3.721  13.375  11.850
18758W        W85541  33.593   0.433   1.758
18759W        W85542   7.003   7.992  13.762
18760W        W85543   3.362  18.561   4.657
18761W        W85544   4.941   8.186  12.915
18762W        W85545  14.195  11.752  12.541
18763W        W85546  17.312   3.849   1.716
18764W        W85547  10.582  23.926   1.326
18765W        W85548  13.471  16.401  10.912
18766W        W85549   2.979  30.693   4.073
18767W        W85550  42.670  11.634   3.324
18768W        W85551  33.471   2.949   2.741
18769W        W85552  29.902  13.174   2.422
18770W        W85553   1.183  21.960  11.511
18771W        W85554  13.193  28.990   2.584
18772W        W85555  41.249   6.222   2.848
18773W        W85556   3.904  10.491  14.055
18774W        W85557  40.750  34.927  14.009
18775W        W85558  35.942  11.788   2.668
18776W        W85559  42.989  20.796  12.605
18777W        W85560   9.284  14.319   1.357
18778W        W85561  16.719   9.775  13.950
18779W        W85562  39.598   8.460   1.713
18780W        W85563   4.374  37.090  14.737
18781W        W85564  15.276   7.163   3.102
18782W        W85565  10.156  24.303   4.496
18783W        W85566  29.182   6.230   1.236
18784W        W85567  27.069   1.920   3.633
18785W        W85568  19.186   2.710   0.964
18786W        W85569  16.322  17.665  14.628
18787W        W85570  34.293   7.683  12.988
18788W        W85571  26.088  28.823  14.256
18789W        W85572   0.413  36.576   0.360
18790W        W85573   8.799   6.127  12.136
18791W        W85574   4.123  32.016  13.687
18792W        W85575  14.236  19.648   2.736
18793W        W85576  35.382  31.662   1.339
18794W        W85577   7.728  26.566  10.748
18795W        W85578   5.888  37.776   2.664
18796W        W85579   5.315  33.563  11.790
18797W        W85580  15.408  41.418  11.425
18798W        W85581  44.958   1.167  12.624
18799W        W85582  30.425  26.170  14.376
18800W        W85583  20.773  20.721  12.445
18801W        W85584  28.030   0.770  11.558
18802W        W85585  27.988  28.747  14.305
18803W        W85586   3.273  18.832   4.211
18804W        W85587   1.394  38.981   4.544
18805W        W85588   5.828   7.978   4.219
18806W        W85589   4.271   2.833  11.368
18807W        W85590  41.954  14.582  12.022
18808W        W85591  11.670  38.951  11.585
18809W        W85592  15.533  29.345  12.977
18810W        W85593  19.166  21.546  14.005
18811W        W85594   8.390  37.009  11.012
18812W        W85595  19.323  14.234   3.363
18813W        W85596  18.351   0.805  14.753
18814W        W85597   1.635  14.539  13.419
18815W        W85598  30.128  43.320   3.089
18816W        W85599   4.464   9.141  13.573
18817W        W85600  10.310  37.695   2.409
18818W        W85601   7.033   9.311   3.806
18819W        W85602  22.002  12.590   1.652
18820W        W85603  40.526  44.804   0.932
18821W        W85604  21.082  31.353   2.870
18822W        W85605   2.407  22.362   4.333
18823W        W85606   5.789  13.410  13.506
18824W        W85607  27.993   5.400   0.115
18825W        W85608   7.408  15.980  12.385
18826W        W85609  17.838  35.339  10.169
18827W        W85610  41.876  30.607  10.639
18828W        W85611  28.434  29.475   1.242
18829W        W85612  20.141  29.413   2.267
18830W        W85613  41.360  39.462   0.471
18831W        W85614  34.922  32.958   3.764
18832W        W85615  40.436  22.608  11.083
18833W        W85616  30.034   4.332   0.706
18834W        W85617   9.789  24.646  14.375
18835W        W85618  16.690  12.724   2.945
18836W        W85619   7.683  39.921   4.864
18837W        W85620  22.440   1.082   1.505
18838W        W85621  21.937  36.399   3.133
18839W        W85622  24.201  41.577   2.320
18840W        W85623   0.358  10.600  11.556
18841W        W85624  38.090  36.391   4.345
18842W        W85625  27.562  36.784   4.760
18843W        W85626  25.594  31.994  13.808
18844W        W85627  35.371  33.158   0.285
18845W        W85628  10.443  34.916   1.388
18846W        W85629  21.988  28.623   3.285
18847W        W85630  10.627  43.207   1.872
18848W        W85631  19.417  19.201  13.669
18849W        W85632  22.043  33.404  10.639
18850W        W85633   3.225  30.413   3.227
18851W        W85634  30.417  20.282   3.550
18852W        W85635  14.775   7.814  11.235
18853W        W85636  11.747  15.930  12.283
18854W        W85637   6.135   2.169  14.487
18855W        W85638  36.597  43.397   4.717
18856W        W85639  14.956  25.413  10.676
18857W        W85640  36.074  16.798   0.355
18858W        W85641  40.096  15.365  14.480
18859W        W85642  18.458  41.403  14.793
18860W        W85643  29.368  37.763   0.842
18861W        W85644  10.125   0.070   2.674
18862W        W85645  21.285  17.710   2.291
18863W        W85646  38.976   6.936  11.392
18864W        W85647   2.956  16.365   1.488
18865W        W85648  16.320  20.128  14.127
18866W        W85649  18.972   1.914  12.999
18867W        W85650  41.131  41.549  11.619
18868W        W85651   7.828  37.883   4.452
18869W        W85652  14.184   2.545   4.666
18870W        W85653  35.025  25.406   1.276
18871W        W85654   0.305   0.716   4.637
18872W        W85655  44.933  16.764  10.514
18873W        W85656  15.489  37.387  12.591
18874W        W85657  15.784  25.469  13.135
18875W        W85658  34.459   2.485  12.495
18876W        W85659  23.021  22.860  11.882
18877W        W85660   0.375  31.567   1.858
18878W        W85661   9.674  15.180  11.014
18879W        W85662   3.535  12.881  10.251
18880W        W85663  22.763   5.619  12.943
18881W        W85664  15.391  40.959  14.677
18882W        W85665  29.564  40.339  11.685
18883W        W85666   6.604  33.580   0.919
18884W        W85667  27.598  13.132  13.791
18885W        W85668  37.717  31.596   2.352
18886W        W85669   1.424   0.357   2.600
18887W        W85670  13.797   1.379  14.010
18888W        W85671  38.890  18.983   2.857
18889W        W85672  26.427  12.322   1.377
18890W        W85673  26.035  23.201  13.875
18891W        W85674  17.294   8.595   0.923
18892W        W85675   9.204  43.400   3.334
18893W        W85676  24.723  37.492   0.235
18894W        W85677  24.581   9.124   1.206
18895W        W85678   9.134  35.126   4.706
18896W        W85679  23.243  42.352  10.439
18897W        W85680   5.629   3.374   1.319
18898W        W85681  20.857  11.486  11.057
18899W        W85682  14.311  38.816   0.060
18900W        W85683  37.595  21.530   2.704
18901W        W85684  21.749  25.785   4.751
18902W        W85685  32.907  40.924   0.826
18903W        W85686  31.041  36.846  14.947
18904W        W85687  41.463  19.704   0.889
18905W        W85688   6.473  11.818   0.894
18906W        W85689   0.001   2.294   1.743
18907W        W85690   5.942  10.686  14.069
18908W        W85691   1.845  17.824   1.764
18909W        W85692   6.831  14.744   4.511
18910W        W85693  10.924   6.666  12.186
18911W        W85694  28.663  26.036   1.804
18912W        W85695  19.178   0.676  12.492
18913W        W85696  35.652  28.089  12.588
18914W        W85697  31.593   5.599   9.994
18915W        W85698  20.291  35.080  13.819
18916W        W85699  17.656  10.747   2.184
18917W        W85700  43.030  43.702  13.335
18918W        W85701  19.478   0.962   5.130
18919W        W85702   6.271  14.179  13.421
18920W        W85703  18.267   0.053  12.330
18921W        W85704   7.252   2.973   0.502
18922W        W85705  15.670  37.440  13.892
18923W        W85706  40.960  27.594  13.081
18924W        W85707  20.534   0.134  14.273
18925W        W85708  12.612  24.616   4.369
18926W        W85709  26.895  21.810   1.216
18927W        W85710   5.698   0.618  13.832
18928W        W85711  33.376  15.717   3.305
18929W        W85712  25.026  22.596   1.347
18930W        W85713  16.030  35.573  13.371
18931W        W85714  39.496  42.890  11.954
18932W        W85715   5.881   9.867   3.605
18933W        W85716  34.026   0.087  13.428
18934W        W85717   5.257  36.885   3.687
18935W        W85718   8.485  18.054   4.529
18936W        W85719  28.115  14.935   4.082
18937W        W85720  29.042   8.670   3.334
18938W        W85721   2.801  13.409   2.918
18939W        W85722  25.741  11.355  10.842
18940W        W85723   7.863  14.282   0.052
18941W        W85724  32.897   4.770  14.536
18942W        W85725   8.592  16.177   2.378
18943W        W85726   5.735   7.421   1.821
18944W        W85727   1.418  33.771   3.846
18945W        W85728  11.036  27.017   0.368
18946W        W85729  27.154  28.140   3.706
18947W        W85730  29.902  25.643   4.754
18948W        W85731  14.742   6.323  11.957
18949W        W85732  14.795  40.316  11.921
18950W        W85733   2.381  27.802   0.195
18951W        W85734  38.924   8.033   1.886
18952W        W85735   8.402  18.619   5.016
18953W        W85736  36.377  32.469   1.684
18954W        W85737   7.248   0.404   0.334
18955W        W85738  18.023  26.978  13.950
18956W        W85739  38.155  27.002   2.249
18957W        W85740   0.228  20.302   4.793
18958W        W85741   7.767   5.271   1.711
18959W        W85742  22.890  27.118   3.899
18960W        W85743   6.841  31.048  11.083
18961W        W85744  41.411   2.506   1.260
18962W        W85745   6.349   8.331  11.953
18963W        W85746  17.020  44.818   2.852
18964W        W85747  21.792   5.807  11.937
18965W        W85748  39.982  34.694   3.571
18966W        W85749  25.722  38.846  10.647
18967W        W85750  15.305  38.220   0.054
18968W        W85751  10.288   7.465   2.299
18969W        W85752  25.097  19.141  14.223
18970W        W85753   7.589  29.352  12.280
18971W        W85754   9.794  20.332  11.348
18972W        W85755  38.846  30.890  12.474
18973W        W85756   2.298   2.745  12.194
18974W        W85757   7.891  25.518  12.013
18975W        W85758  29.901  17.963  13.343
18976W        W85759  34.897  16.883   1.624
18977W        W85760   8.376  42.288   2.410
18978W        W85761   7.818   0.789   2.423
18979W        W85762  22.256  41.308   2.146
18980W        W85763  15.769  23.102  13.491
18981W        W85764  38.720  22.169   2.743
18982W        W85765  14.017  38.349   3.246
18983W        W85766  19.605  36.578  12.877
18984W        W85767  19.179  10.671  13.519
18985W        W85768   4.566  43.750   2.856
18986W        W85769  19.038   9.229  14.329
18987W        W85770   2.276  33.659   1.764
18988W        W85771  11.294   6.570  14.325
18989W        W85772  34.633  11.152  11.575
18990W        W85773  40.760   0.024   1.381
18991W        W85774  12.084  20.080  12.891
18992W        W85775   2.942  43.074   1.875
18993W        W85776  24.740  29.044   2.834
18994W        W85777  21.414  19.047   3.588
18995W        W85778   7.095  40.885  11.119
18996W        W85779  22.122  35.005  13.987
18997W        W85780  29.095  18.679   2.674
18998W        W85781  28.789  13.299  13.168
18999W        W85782  25.408  29.185   0.470
19000W        W85783   5.403  11.649   1.166
19001W        W85784  30.142   1.876   3.100
19002W        W85785  34.170  38.921   2.827
19003W        W85786  30.268  24.100   1.773
19004W        W85787  33.813  16.052   1.687
19005W        W85788  26.489  25.136   3.347
19006W        W85789   6.031  42.234  14.473
19007W        W85790   1.125  32.400   0.017
19008W        W85791  32.373  24.973  10.661
19009W        W85792  29.957  10.318   1.862
19010W        W85793  40.236  23.662   5.015
19011W        W85794  22.088  31.383   2.684
19012W        W85795  36.375  41.945   4.813
19013W        W85796  40.152  40.239   0.898
19014W        W85797  18.776   6.482   2.868
19015W        W85798  35.437  31.126  12.459
19016W        W85799  34.524  11.738   4.059
19017W        W85800  11.325  31.896   3.200
19018W        W85801  32.443  20.808  12.875
19019W        W85802  21.212   2.704  11.960
19020W        W85803  33.340  23.069   2.794
19021W        W85804  26.430  41.562  14.518
19022W        W85805   6.722  39.494  11.144
19023W        W85806  44.860  18.245  14.775
19024W        W85807  29.672   7.129  11.549
19025W        W85808  13.144  14.387   4.003
19026W        W85809   3.238  35.769  11.168
19027W        W85810  44.543  18.712   4.216
19028W        W85811  15.560   2.463  11.646
19029W        W85812   3.687   2.895  14.994
19030W        W85813   0.999  22.937  14.312
19031W        W85814  24.395  29.979  13.481
19032W        W85815   6.705  44.221  14.905
19033W        W85816   2.963  35.818  14.950
19034W        W85817  36.521  25.237   0.770
19035W        W85818   2.839  31.246  13.267
19036W        W85819   9.219  25.330   2.787
19037W        W85820  15.805  21.913  10.596
19038W        W85821  27.084   8.252  12.616
19039W        W85822  14.738   7.195   1.416
19040W        W85823  17.146   6.858   1.750
19041W        W85824  39.799   5.961   0.383
19042W        W85825  39.407  37.718  13.148
19043W        W85826   9.179  37.552  13.098
19044W        W85827   2.963  39.455  14.692
19045W        W85828   7.839  28.581  13.774
19046W        W85829  15.622   5.449  14.994
19047W        W85830  42.107  44.701  14.457
19048W        W85831  38.266  43.268   2.490
19049W        W85832  26.977   9.993  13.569
19050W        W85833  19.581  40.464  12.148
19051W        W85834  44.876  36.520   4.239
19052W        W85835  25.575   2.792  14.292
19053W        W85836  33.497  39.476   2.478
19054W        W85837  39.509  17.182  14.394
19055W        W85838  35.533  11.725  12.344
19056W        W85839  12.346  15.550  10.373
19057W        W85840  44.905  44.887  14.404
19058W        W85841  29.561  25.990  13.440
19059W        W85842   0.274   2.870  11.145
19060W        W85843   5.421  18.423  13.784
19061W        W85844   2.515  42.940   1.261
19062W        W85845  27.573  39.909  14.230
19063W        W85846   3.737  11.906   0.724
19064W        W85847   8.806  22.536   0.945
19065W        W85848  24.658  18.601  13.613
19066W        W85849  26.140  20.511  12.168
19067W        W85850  27.618   4.214  14.726
19068W        W85851  14.310   4.830   1.848
19069W        W85852  18.687  12.809  14.215
19070W        W85853  40.293   5.090   4.713
19071W        W85854  16.006   9.913  11.057
19072W        W85855  22.912  42.335   3.848
19073W        W85856  33.856  19.381   2.038
19074W        W85857  38.611  36.567   2.349
19075W        W85858  43.295  27.482  10.891
19076W        W85859   3.699  42.470  12.318
19077W        W85860  33.877  42.455  14.358
19078W        W85861  19.496  17.340   1.330
19079W        W85862  18.626  42.787   4.367
19080W        W85863  15.423  37.505  13.077
19081W        W85864  40.570   6.381   0.443
19082W        W85865  14.173  24.946  11.496
19083W        W85866  41.252  40.556  12.056
19084W        W85867  30.612  42.936   2.848
19085W        W85868  32.412   8.140   2.288
19086W        W85869  36.113  28.435   0.297
19087W        W85870  33.705  43.747   3.306
19088W        W85871  26.770  36.011  12.254
19089W        W85872  25.525  28.061   5.501
19090W        W85873   9.373  17.622  12.095
19091W        W85874  17.157   9.367   1.326
19092W        W85875  18.683  29.373  12.499
19093W        W85876  15.700  38.581   0.055
19094W        W85877   1.947   0.266  12.117
19095W        W85878  42.975  41.067   4.032
19096W        W85879  22.272   6.386   2.232
19097W        W85880  40.463  11.355  14.428
19098W        W85881  31.983  28.486   1.596
19099W        W85882  32.455  37.334  10.742
19100W        W85883   0.356  10.779   4.591
19101W        W85884  30.613  44.985  13.978
19102W        W85885   8.276  43.575   0.896
19103W        W85886   9.783  22.552   4.371
19104W        W85887   1.495   3.577   1.696
19105W        W85888  19.646  10.207  14.534
19106W        W85889  25.132  15.961  13.460
19107W        W85890  31.024   4.656   2.703
19108W        W85891   6.909  29.558   0.490
19109W        W85892  12.162   3.849   1.426
19110W        W85893  19.419  13.702   1.940
19111W        W85894  26.689   0.926  10.921
19112W        W85895  27.081  13.643  14.235
19113W        W85896  35.654   0.748  14.934
19114W        W85897  42.789  42.815   0.256
19115W        W85898  30.124  10.623   0.809
19116W        W85899  39.102  16.869   0.721
19117W        W85900  43.155  31.281   0.957
19118W        W85901  15.108   9.592   0.851
19119W        W85902  13.728  22.398  14.896
19120W        W85903  11.458  43.736  13.915
19121W        W85904  32.977  43.103   4.431
19122W        W85905  23.960   6.298   4.092
19123W        W85906  17.542  43.267  13.910
19124W        W85907   3.083   4.366  11.655
19125W        W85908  44.032  17.088   3.222
19126W        W85909  20.495  19.222  10.935
19127W        W85910  38.895  36.585  12.600
19128W        W85911  24.988   3.695   2.302
19129W        W85912  21.510  12.413   0.357
19130W        W85913  28.387  42.065   2.198
19131W        W85914  41.813  30.937   0.777
19132W        W85915   5.668  16.125  10.793
19133W        W85916  20.283  30.391   2.445
19134W        W85917  19.135  24.118  14.071
19135W        W85918  16.233  11.975   1.456
19136W        W85919   4.402  35.833  10.707
19137W        W85920  35.058  44.352   2.264
19138W        W85921  22.434  26.964   3.691
19139W        W85922  26.662  30.072  14.175
19140W        W85923  17.113  17.809  11.004
19141W        W85924  24.335  38.854   2.828
19142W        W85925  14.657  29.187   2.365
19143W        W85926  30.134  32.939  11.583
19144W        W85927  10.778  11.084   2.335
19145W        W85928  39.310  37.900   2.746
19146W        W85929   5.252  25.275  13.661
19147W        W85930  22.620  17.821   1.950
19148W        W85931   5.825   9.711  11.071
19149W        W85932  28.702  32.407  13.518
19150W        W85933  19.979  40.801  12.059
19151W        W85934  33.586  21.430  13.774
19152W        W85935  37.356   0.759  13.621
19153W        W85936  32.084  13.805  14.377
19154W        W85937  41.565  24.494   0.026
19155W        W85938  18.164   1.708  10.609
19156W        W85939  33.893  19.227   2.701
19157W        W85940   9.226  28.972  14.051
19158W        W85941  32.860   8.931   0.225
19159W        W85942   5.972  23.252   2.746
19160W        W85943  24.491  14.746  13.120
19161W        W85944  10.627  20.489   2.897
19162W        W85945  18.118  43.868  11.519
19163W        W85946   3.935  42.711   1.195
19164W        W85947  13.324   7.845   2.606
19165W        W85948  42.391   0.980   0.142
19166W        W85949  42.587  12.517  11.489
19167W        W85950  22.280  41.913  12.931
19168W        W85951  30.962   2.317   0.893
19169W        W85952  13.523  19.760  13.723
19170W        W85953  35.703  19.841  10.282
19171W        W85954  35.008  42.099   2.896
19172W        W85955   1.732   8.136  11.086
19173W        W85956   0.406  14.067  13.304
19174W        W85957  18.402  30.219  13.812
19175W        W85958  24.538  39.909   3.614
19176W        W85959  18.501  25.037   4.622
19177W        W85960  19.602   7.384  10.839
19178W        W85961  28.997  20.737   0.080
19179W        W85962  15.337  20.584   0.897
19180W        W85963  24.631  14.801  14.608
19181W        W85964   2.818   7.384   2.142
19182W        W85965  27.703  27.722   4.333
19183W        W85966  32.439  32.509   1.833
19184W        W85967   0.926  39.087  13.923
19185W        W85968   8.645  32.392   3.635
19186W        W85969  31.116   3.510   3.249
19187W        W85970  15.371  19.700   1.966
19188W        W85971  24.892  32.058   1.439
19189W        W85972  23.521  19.168   2.705
19190W        W85973  40.398   5.459  14.519
19191W        W85974  42.097  36.708   1.931
19192W        W85975  15.290   5.072   2.459
19193W        W85976  11.366  15.609   2.823
19194W        W85977   4.052  34.036  14.259
19195W        W85978  27.606  41.276   3.470
19196W        W85979   3.342  30.082   1.854
19197W        W85980   8.770   0.528   4.930
19198W        W85981  35.880  41.300   2.482
19199W        W85982  13.517  22.096  14.492
19200W        W85983  27.830  18.276   0.874
19201W        W85984  13.246  20.200  10.703
19202W        W85985  17.770  18.567  13.063
19203W        W85986  36.598  15.398   2.410
19204W        W85987  33.858   1.534  11.271
19205W        W85988  36.391  22.166   2.800
19206W        W85989  12.604  38.134   0.510
19207W        W85990   3.649  10.956   4.624
19208W        W85991  18.029  32.423  11.134
19209W        W85992  13.634  40.352  13.430
19210W        W85993  31.774  36.465   3.199
19211W        W85994  20.277  34.652   1.412
19212W        W85995  38.790  38.834   0.991
19213W        W85996  43.592  41.539  11.505
19214W        W85997  34.985  30.906  14.172
19215W        W85998  30.919   1.197   3.848
19216W        W85999  38.933  18.391  11.489
19217W        W86000  26.629  21.451  10.680
19218W        W86001  20.731  11.891   4.173
19219W        W86002  14.701  28.713   4.673
19220W        W86003   3.719  34.417   1.164
19221W        W86004  32.545  21.676  13.387
19222W        W86005   9.556  25.428  13.001
19223W        W86006  37.300  19.189   2.767
19224W        W86007  23.459  21.521   3.239
19225W        W86008   3.852  15.038  10.759
19226W        W86009  17.500   2.410  13.536
19227W        W86010  42.884  30.431   4.754
19228W        W86011  29.028   1.267  11.999
19229W        W86012  24.759  39.982  13.423
19230W        W86013   2.888  18.594   0.781
19231W        W86014   3.539  18.706  14.846
19232W        W86015  32.583  41.008  11.488
19233W        W86016  42.800  22.397   3.839
19234W        W86017  15.248  40.895  13.835
19235W        W86018  20.069  33.693  12.034
19236W        W86019   6.270   2.273  11.510
19237W        W86020  33.448  11.144   1.452
19238W        W86021  42.333   2.756  13.013
19239W        W86022  35.416  36.024   4.321
19240W        W86023   4.783  24.530  13.854
19241W        W86024  32.402  12.041  13.632
19242W        W86025  18.591  44.973   1.275
19243W        W86026  39.837   3.508  12.941
19244W        W86027   6.232  41.559  10.386
19245W        W86028  11.286   7.922  12.069
19246W        W86029  24.508  43.223  10.174
19247W        W86030   9.301  32.161   3.745
19248W        W86031  30.020  24.772  12.134
19249W        W86032  37.513  21.045   1.785
19250W        W86033  22.526  30.649  11.061
19251W        W86034  10.316  32.865   0.821
19252W        W86035   3.471  37.842   1.136
19253W        W86036  23.082  42.366  13.530
19254W        W86037  31.068  34.940   0.296
19255W        W86038   2.180  39.303  13.577
19256W        W86039   4.625  22.002   1.239
19257W        W86040  13.394   2.741   1.160
19258W        W86041   8.332  43.075  12.014
19259W        W86042  32.094  37.822   2.283
19260W        W86043  43.470  16.313   3.284
19261W        W86044   8.321  34.582  11.207
19262W        W86045   4.742  40.615   5.077
19263W        W86046  41.029  34.568  12.455
19264W        W86047  28.444  30.622  13.026
19265W        W86048  16.935   7.273  14.285
19266W        W86049  42.790  31.993   0.985
19267W        W86050  42.208  18.070  14.493
19268W        W86051  14.883  13.200  12.376
19269W        W86052  26.469  19.218  12.039
19270W        W86053  18.277  32.523   1.989
19271W        W86054  36.573  14.339   3.170
19272W        W86055  11.263  28.553  11.902
19273W        W86056  26.002  41.233   3.133
19274W        W86057  43.259  25.996   4.031
19275W        W86058  18.096  15.086  12.483
19276W        W86059  22.259  30.606   4.292
19277W        W86060  20.023  38.756   1.873
19278W        W86061  20.040   9.765   1.929
19279W        W86062  31.868  10.350  11.185
19280W        W86063  41.268  42.788   1.157
19281W        W86064   9.725  24.135  14.447
19282W        W86065  11.738   9.958  10.302
19283W        W86066   0.390  23.612  14.309
19284W        W86067  36.332   0.902  11.088
19285W        W86068  41.820  38.069   1.803
19286W        W86069  35.922  17.232  13.850
19287W        W86070  43.360  15.524  12.575
19288W        W86071  21.039  37.871  14.017
19289W        W86072  31.934  23.452  12.142
19290W        W86073  24.365  22.627   0.020
19291W        W86074  18.286  12.685  12.922
19292W        W86075  30.979  29.664  10.676
19293W        W86076   8.836  25.571   4.760
19294W        W86077  24.185  44.934  10.177
19295W        W86078  20.228  12.304   2.129
19296W        W86079  17.647  19.292  13.767
19297W        W86080  35.115   6.747  14.619
19298W        W86081   4.866  37.179   9.850
19299W        W86082  26.660  32.111   3.607
19300W        W86083  30.476  10.813  14.691
19301W        W86084   1.510  42.292  14.427
19302W        W86085  29.782  11.103   2.882
19303W        W86086  10.873  35.246  11.675
19304W        W86087  21.661   1.415  11.607
19305W        W86088  22.685   7.956  10.290
19306W        W86089  33.600  17.360   1.748
19307W        W86090   7.389  38.792   3.241
19308W        W86091   8.047  15.298   2.545
19309W        W86092   2.199  36.061   2.551
19310W        W86093  30.019  42.930  11.926
19311W        W86094  29.091  26.533  13.020
19312W        W86095  26.694  32.205  11.213
19313W        W86096  12.628  10.433   3.203
19314W        W86097  11.292  11.728   5.069
19315W        W86098  36.750  31.701  14.767
19316W        W86099  25.683  31.796  14.628
19317W        W86100  43.549   2.904   3.194
19318W        W86101   3.476  16.917  10.531
19319W        W86102  36.533  36.592  13.438
19320W        W86103  26.072  19.234   0.262
19321W        W86104  11.243  13.143   1.404
19322W        W86105  37.149  31.154  13.011
19323W        W86106   4.220  33.027  12.022
19324W        W86107  17.037  16.847   3.623
19325W        W86108  40.532  24.027   4.128
19326W        W86109  38.949  30.215   0.373
19327W        W86110  42.935  39.143   3.251
19328W        W86111  29.320   0.732   4.130
19329W        W86112  39.906  38.849  14.855
19330W        W86113  27.620  41.214  11.952
19331W        W86114  29.945  24.507   0.864
19332W        W86115   4.254  34.610   4.298
19333W        W86116  25.271   4.796   2.375
19334W        W86117  21.151   5.862  10.167
19335W        W86118  12.806  17.772  11.576
19336W        W86119  36.807   7.556  10.517
19337W        W86120  33.501  19.034  13.650
19338W        W86121   3.722  26.549  11.652
19339W        W86122  22.021   0.062   1.294
19340W        W86123  27.948   7.594   4.019
19341W        W86124  20.317  43.314   3.602
19342W        W86125   7.888  33.077   2.865
19343W        W86126   1.677   2.938   1.357
19344W        W86127   0.506  29.579   1.015
19345W        W86128  21.514   2.200  10.515
19346W        W86129  27.562  27.095  14.560
19347W        W86130  24.701  41.820   3.281
19348W        W86131   1.739  29.680  11.239
19349W        W86132  37.466  10.758   1.448
19350W        W86133  39.473  40.821   2.836
19351W        W86134   0.055   9.212  11.290
19352W        W86135  33.699   3.927   1.840
19353W        W86136  33.600  19.533   1.204
19354W        W86137  38.362  23.552  13.901
19355W        W86138  25.197  15.055  11.939
19356W        W86139   0.885   2.408  11.986
19357W        W86140  31.030   7.823   2.235
19358W        W86141   1.318   0.699  11.988
19359W        W86142  15.077   7.154  13.058
19360W        W86143  11.230  20.232   3.136
19361W        W86144   4.225  27.723   4.530
19362W        W86145  33.839   6.814  14.708
19363W        W86146  20.772  13.934   2.836
19364W        W86147  33.224  44.857   3.300
19365W        W86148  39.320  12.392   0.366
19366W        W86149  24.405   7.294   1.284
19367W        W86150  16.542  13.591  11.419
19368W        W86151  20.229  12.547  13.535
19369W        W86152  43.895   0.654  11.167
19370W        W86153  10.555   2.444   1.228
19371W        W86154  43.808   2.795   2.711
19372W        W86155  35.523  14.797   1.459
19373W        W86156  41.716  31.453  11.537
19374W        W86157  11.243   6.161  12.829
19375W        W86158  21.297  36.775  12.512
19376W        W86159   6.645  29.972  10.638
19377W        W86160  40.377  30.932  13.345
19378W        W86161  15.851  36.284  10.214
19379W        W86162   3.874  12.197   1.779
19380W        W86163   4.868  20.267   3.649
19381W        W86164  43.554  22.617   1.900
19382W        W86165   6.903  19.780  14.877
19383W        W86166   8.298  11.443  11.074
19384W        W86167  24.943  10.264   3.447
19385W        W86168  16.504  13.115   3.717
19386W        W86169   9.269   2.857   0.069
19387W        W86170  31.132  25.032   3.436
19388W        W86171  27.934  10.004  12.092
19389W        W86172  35.017   2.481   3.705
19390W        W86173  44.018  24.864  11.040
19391W        W86174  37.858   7.756  13.368
19392W        W86175  14.821  32.451   4.476
19393W        W86176  43.801  43.979   1.223
19394W        W86177  25.290   7.357   3.807
19395W        W86178  19.739   7.364   4.049
19396W        W86179   6.245  18.291  10.844
19397W        W86180  13.537  38.064   4.946
19398W        W86181   0.445  36.175  13.464
19399W        W86182  36.668  39.811  11.202
19400W        W86183  38.256  15.652   1.480
19401W        W86184  27.453   2.551  11.226
19402W        W86185  10.398   4.322   0.791
19403W        W86186   9.056  11.370   4.478
19404W        W86187   2.713   0.040  14.416
19405W        W86188  11.751  12.095  12.697
19406W        W86189  32.576  40.804   1.457
19407W        W86190  20.068  17.660  10.476
19408W        W86191  33.888  34.481   1.367
19409W        W86192  28.540  40.827   3.449
19410W        W86193   1.656  24.717  12.525
19411W        W86194  42.997   4.529  13.442
19412W        W86195  44.986  43.063   3.234
19413W        W86196   7.782  15.212   1.723
19414W        W86197  19.602   3.954  14.757
19415W        W86198  20.465  16.817   2.777
19416W        W86199  39.519  29.135   0.829
19417W        W86200  13.153  41.287  14.876
19418W        W86201  39.542  17.271  12.136
19419W        W86202  41.600  42.853  11.084
19420W        W86203  43.214  15.874  13.995
19421W        W86204  13.227  31.614  11.181
19422W        W86205  23.317  43.250   2.271
19423W        W86206  36.500   0.782   1.942
19424W        W86207   5.351  43.735   3.186
19425W        W86208  41.464  41.150  11.560
19426W        W86209  20.493  21.673   2.823
19427W        W86210   8.934  28.078   1.330
19428W        W86211  28.009  14.661   1.695
19429W        W86212  14.265  15.206   1.310
19430W        W86213  28.883  28.649  14.442
19431W        W86214  43.033   0.755  10.489
19432W        W86215  37.940  42.152   3.196
19433W        W86216  19.370   2.226   4.976
19434W        W86217  27.220   2.472   1.651
19435W        W86218   1.351   0.704  12.518
19436W        W86219  22.835   7.769   4.723
19437W        W86220  12.901  32.471  13.233
19438W        W86221   6.935  17.234  13.822
19439W        W86222  13.388  14.782   0.356
19440W        W86223  36.255  12.790   2.856
19441W        W86224   9.875  21.139  11.718
19442W        W86225  13.466  16.898   2.862
19443W        W86226  13.629  15.143  11.156
19444W        W86227  22.267  25.583   4.708
19445W        W86228  19.714  11.492   5.031
19446W        W86229  27.882  42.225   2.203
19447W        W86230  30.060  37.266   3.217
19448W        W86231  21.203  28.158  10.195
19449W        W86232  26.600   5.713  10.439
19450W        W86233  37.549  42.241  14.248
19451W        W86234  23.661   2.190   3.785
19452W        W86235   5.260  18.316   4.347
19453W        W86236  15.647  25.983   3.740
19454W        W86237   5.512  40.801  14.956
19455W        W86238   2.309  10.923  14.372
19456W        W86239   6.815  14.337  10.904
19457W        W86240  10.755  31.985   0.025
19458W        W86241  10.802  32.484   2.856
19459W        W86242  19.802   3.221  11.595
19460W        W86243  29.039  14.632   3.711
19461W        W86244  44.856   6.724  12.235
19462W        W86245  32.053  15.103  14.897
19463W        W86246  14.091  40.493   3.246
19464W        W86247  13.827  39.625   4.497
19465W        W86248  13.014  43.050   0.824
19466W        W86249  15.112  27.966   3.645
19467W        W86250  27.940  37.579   3.354
19468W        W86251  43.471  32.509  12.202
19469W        W86252  36.553  42.830   3.989
19470W        W86253  14.024  11.351   0.798
19471W        W86254   1.912   4.791  14.228
19472W        W86255  37.726  27.071   3.653
19473W        W86256   8.010  24.650   1.779
19474W        W86257  27.592   8.764  14.207
19475W        W86258  28.233  16.755  11.360
19476W        W86259   7.816  22.397  14.834
19477W        W86260  24.697  31.589   0.451
19478W        W86261  38.951  12.563   1.597
19479W        W86262  15.583  29.613  10.406
19480W        W86263   0.109  23.060   3.755
19481W        W86264  12.219   6.288   3.294
19482W        W86265  42.888  10.795   2.867
19483W        W86266  31.893  22.029  12.130
19484W        W86267  26.629  23.631   2.445
19485W        W86268  21.636  30.036  12.830
19486W        W86269  35.183  35.787  14.588
19487W        W86270  24.336   3.598  11.065
19488W        W86271   7.657   6.433   0.293
19489W        W86272   6.310  27.017  10.569
19490W        W86273   4.980   7.840  10.155
19491W        W86274  35.844   4.888  13.435
19492W        W86275  38.955  15.738   3.151
19493W        W86276  19.994   3.705   1.327
19494W        W86277  43.223  10.823   3.295
19495W        W86278   4.556  28.181   3.658
19496W        W86279   3.488  34.724   2.871
19497W        W86280  14.626   9.367   0.865
19498W        W86281  14.201   5.901   4.411
19499W        W86282   1.581  13.777   3.814
19500W        W86283  27.202  42.451   5.803
19501W        W86284  31.373  21.949  12.877
19502W        W86285  31.561  40.499  13.994
19503W        W86286  14.655   5.887  10.710
19504W        W86287  25.551  32.898  10.773
19505W        W86288  21.984  39.802   4.082
19506W        W86289  22.743  26.824  13.355
19507W        W86290  20.041  36.283  12.854
19508W        W86291  25.860  14.421   1.802
19509W        W86292  39.846  28.047  13.872
19510W        W86293  21.746  15.100   1.837
19511W        W86294  42.334  24.114  11.924
19512W        W86295  20.019  42.194  12.980
19513W        W86296  39.950  38.882   2.992
19514W        W86297  38.581  17.258   0.433
19515W        W86298  44.635   3.698   3.260
19516W        W86299  20.747   1.503   4.511
19517W        W86300  40.815  22.983   3.596
19518W        W86301   6.196  38.699  11.504
19519W        W86302  26.997   2.935   0.760
19520W        W86303   9.625  32.796   3.305
19521W        W86304  14.344  31.452   0.402
19522W        W86305  13.668  40.334   2.159
19523W        W86306  20.751   6.582  12.657
19524W        W86307  35.449  19.963  13.905
19525W        W86308  40.578  14.073   0.403
19526W        W86309   5.742  18.048  14.978
19527W        W86310  17.618  22.524  12.873
19528W        W86311  16.370  12.770  13.275
19529W        W86312   4.704  20.147   1.913
19530W        W86313  20.994  44.693  12.944
19531W        W86314   8.399  38.566  13.053
19532W        W86315  28.167  41.150   2.172
19533W        W86316  44.970  39.021  13.939
19534W        W86317  35.482  29.955   1.149
19535W        W86318   3.929  17.506  13.042
19536W        W86319  35.500  19.258  11.983
19537W        W86320  21.193  26.915  14.497
19538W        W86321  22.550  32.996  13.285
19539W        W86322  23.208   7.936   2.129
19540W        W86323   1.391  25.947  12.943
19541W        W86324   7.151   9.680  14.552
19542W        W86325   4.348  40.321   3.824
19543W        W86326  35.000  34.973   4.551
19544W        W86327   5.202  25.041   0.428
19545W        W86328  18.878   6.765   1.461
19546W        W86329  44.801  24.590  11.770
19547W        W86330  11.178   2.875  13.486
19548W        W86331  36.684  28.818   1.377
19549W        W86332  11.778  33.857  12.000
19550W        W86333  18.328   7.204   3.242
19551W        W86334  37.574  26.224   0.521
19552W        W86335  24.980  28.690  11.365
19553W        W86336  17.853   6.894  12.798
19554W        W86337  13.109  32.956   4.611
19555W        W86338  11.404   5.297   0.946
19556W        W86339  36.096  44.563   1.267
19557W        W86340  27.215  34.952   0.250
19558W        W86341  41.803  19.779  13.751
19559W        W86342  11.826  29.490  13.594
19560W        W86343  38.368   9.314   4.306
19561W        W86344  34.220  44.504  14.794
19562W        W86345  22.673  34.320  10.115
19563W        W86346  39.610   0.949  12.408
19564W        W86347  20.707   0.322   5.097
19565W        W86348  17.084   0.945  12.500
19566W        W86349   3.514  32.445  10.703
19567W        W86350  19.837  10.846   4.233
19568W        W86351  22.231  27.584   3.186
19569W        W86352  37.772  42.867   0.422
19570W        W86353  26.279  27.617   4.312
19571W        W86354  23.560  32.089   1.045
19572W        W86355  24.123  39.364   4.573
19573W        W86356  16.018  14.940  13.279
19574W        W86357  37.002   6.445  12.156
19575W        W86358  28.622  40.961   5.491
19576W        W86359   6.358   4.140   3.614
19577W        W86360  11.507  22.898  13.427
19578W        W86361  40.794  40.395   3.286
19579W        W86362  23.676  37.045  11.226
19580W        W86363  36.223  23.538  11.079
19581W        W86364  23.616  18.554   1.818
19582W        W86365  17.905  37.909   0.934
19583W        W86366  33.422   2.807  13.312
19584W        W86367  32.381  28.194   3.273
19585W        W86368   7.920  29.561   5.072
19586W        W86369   0.540   2.402  11.102
19587W        W86370   8.497  24.448   2.716
19588W        W86371  13.370  37.041  13.522
19589W        W86372  17.982  11.325  12.526
19590W        W86373  19.561  18.655  10.447
19591W        W86374   1.465   3.825  10.731
19592W        W86375  43.385   0.695   1.808
19593W        W86376  42.596  18.158  14.846
19594W        W86377   9.191  13.790  10.684
19595W        W86378  31.538  34.405  14.878
19596W        W86379   6.140  19.871   0.511
19597W        W86380  12.752  32.606  10.640
19598W        W86381  37.270   0.762   2.920
19599W        W86382  40.091  15.763   0.876
19600W        W86383  23.055  30.355   3.259
19601W        W86384  15.301  38.348   1.808
19602W        W86385   1.308  11.846   3.227
19603W        W86386  17.662  40.989  14.365
19604W        W86387   7.829  25.281  14.301
19605W        W86388  16.361  29.123  12.468
19606W        W86389  38.720  27.796   0.804
19607W        W86390  16.556  11.230   0.411
19608W        W86391  11.844   1.916   3.995
19609W        W86392  10.140  12.823  10.877
19610W        W86393  10.568  30.381  11.081
19611W        W86394  31.610   9.254   4.988
19612W        W86395  42.058  22.357   2.736
19613W        W86396   0.058  24.016   4.241
19614W        W86397   4.066  39.074  12.068
19615W        W86398   9.345  28.457  14.290
19616W        W86399  42.481  42.342  10.728
19617W        W86400   0.993   9.244  13.894
19618W        W86401  33.522  15.286  12.154
19619W        W86402  34.521  34.122  12.475
19620W        W86403   0.984  31.021   5.137
19621W        W86404  21.547  39.045   0.245
19622W        W86405  37.248   8.161   0.292
19623W        W86406   1.458  11.347   3.304
19624W        W86407  16.172  31.083  12.361
19625W        W86408  32.680  42.199  11.817
19626W        W86409  28.589   5.198   3.728
19627W        W86410   4.400  37.659  11.029
19628W        W86411  11.679   8.901   0.810
19629W        W86412  20.281  35.801  14.451
19630W        W86413  44.818  23.822  12.175
19631W        W86414   3.094  33.399   2.756
19632W        W86415  34.140   4.884  13.660
19633W        W86416  43.780  25.990   1.421
19634W        W86417  23.102  22.132   3.580
19635W        W86418  33.425  40.480   4.223
19636W        W86419  13.624  20.264  13.831
19637W        W86420  33.226  23.820   3.260
19638W        W86421   2.265  41.289   3.355
19639W        W86422  27.080  14.320  12.382
19640W        W86423  17.142  32.443  12.038
19641W        W86424  25.504  29.380  10.757
19642W        W86425  32.066  24.947  11.077
19643W        W86426   8.916  44.397  12.428
19644W        W86427  34.862  37.746  12.087
19645W        W86428  44.240  24.247  12.477
19646W        W86429  27.873  38.011  11.704
19647W        W86430  30.664  44.596   4.267
19648W        W86431  14.597  23.775  13.252
19649W        W86432  44.405  32.534  13.061
19650W        W86433  29.111  10.336   0.279
19651W        W86434  22.103  41.369   2.630
19652W        W86435  28.460   6.609   3.797
19653W        W86436  41.800  23.528   0.840
19654W        W86437  16.004  25.161   4.352
19655W        W86438  10.443  19.252   1.097
19656W        W86439  28.093  31.330  14.032
19657W        W86440  13.659   7.986   1.823
19658W        W86441   6.500  40.803  13.321
19659W        W86442  27.462  18.021  11.619
19660W        W86443   1.103  31.255   3.156
19661W        W86444  13.711  41.292   3.219
19662W        W86445  38.761  32.824   4.199
19663W        W86446  39.439  35.056  12.868
19664W        W86447  11.877   9.786   2.654
19665W        W86448  26.037   8.934   0.481
19666W        W86449  11.425  22.026   4.161
19667W        W86450  40.243   5.653   3.595
19668W        W86451  32.520  22.000   0.191
19669W        W86452  28.849  36.302  11.881
19670W        W86453  24.754  13.059   0.943
19671W        W86454   1.355  22.854   1.010
19672W        W86455   3.057  31.852  10.263
19673W        W86456  30.666  23.103  14.280
19674W        W86457  33.814  17.996  13.490
19675W        W86458  12.816  23.267   0.507
19676W        W86459  42.442  27.559   3.835
19677W        W86460  29.598   7.820  11.124
19678W        W86461  10.016   6.348  11.145
19679W        W86462   5.505  41.766  12.479
19680W        W86463  12.711  38.899  11.439
19681W        W86464  12.152  37.564   1.046
19682W        W86465  20.584  42.864  10.757
19683W        W86466  28.066  43.515  10.681
19684W        W86467  13.113  33.917  11.623
19685W        W86468  24.074  28.384   2.747
19686W        W86469  32.568  27.557   2.312
19687W        W86470  28.496  39.090   4.263
19688W        W86471  21.818  19.182   1.090
19689W        W86472  42.342  18.789   4.085
19690W        W86473   3.849  14.357  11.881
19691W        W86474  15.108  14.796  13.758
19692W        W86475  27.267  14.770   0.253
19693W        W86476  34.881  40.512   1.228
19694W        W86477  36.763  25.363  12.600
19695W        W86478   0.278  33.873  12.626
19696W        W86479   3.736  41.457   3.316
19697W        W86480  29.413  10.719  12.971
19698W        W86481  21.477  33.565  12.518
19699W        W86482  28.008  28.037  10.017
19700W        W86483   3.405  16.660   1.177
19701W        W86484  29.070  32.479  10.732
19702W        W86485   1.971  18.802   3.599
19703W        W86486  25.526   5.212  14.993
19704W        W86487  44.786  29.037   4.429
19705W        W86488  13.108   3.640   1.487
19706W        W86489  19.149  15.556  14.491
19707W        W86490   4.166  39.571   1.296
19708W        W86491  33.914  27.342   4.128
19709W        W86492   4.813   3.225  10.748
19710W        W86493   3.963  23.302   1.004
19711W        W86494  10.910   1.763   4.546
19712W        W86495  43.276  30.024   2.637
19713W        W86496  32.479   6.999   0.287
19714W        W86497  12.548  19.213   4.164
19715W        W86498  15.017  39.063  12.455
19716W        W86499  26.676  33.158   2.401
19717W        W86500  22.244   6.166   3.072
19718W        W86501  39.009   7.195   1.386
19719W        W86502   6.869  15.293  12.612
19720W        W86503   3.346  35.106  13.388
19721W        W86504  23.619   1.157  11.807
19722W        W86505  22.178  33.833  14.979
19723W        W86506  12.175   9.170   4.988
19724W        W86507  41.801  17.249   4.601
19725W        W86508  10.343  43.907  12.589
19726W        W86509   5.187  30.669  11.563
19727W        W86510  40.840   1.143   0.054
19728W        W86511   0.364   0.587   1.703
19729W        W86512  11.204  30.396   4.627
19730W        W86513  15.146   4.693  13.448
19731W        W86514   0.883  10.751   4.147
19732W        W86515   4.491   0.925  10.863
19733W        W86516  43.108   3.254  13.105
19734W        W86517  35.059   8.884  10.333
19735W        W86518  28.683  14.635   1.505
19736W        W86519  28.648  40.869  11.075
19737W        W86520  25.007  21.298  10.752
19738W        W86521   6.833  10.376   1.386
19739W        W86522   3.228  43.325  12.491
19740W        W86523  13.951  24.503  13.558
19741W        W86524   3.732  19.168  14.907
19742W        W86525   4.497  32.944   4.408
19743W        W86526  44.447  29.909  11.975
19744W        W86527  26.719  21.484  14.381
19745W        W86528  26.907  22.974  12.653
19746W        W86529  36.363  36.290  10.265
19747W        W86530  17.002   0.090  14.063
19748W        W86531  27.129  43.794   3.203
19749W        W86532  19.482   1.505   1.276
19750W        W86533   0.788  20.687  12.060
19751W        W86534  35.900  32.522  14.024
19752W        W86535   3.953  22.658  14.840
19753W        W86536  34.024  31.396   0.020
19754W        W86537  24.715  23.074   9.934
19755W        W86538  10.729  24.672  14.402
19756W        W86539  29.933  36.566   4.216
19757W        W86540  26.491   6.846   0.813
19758W        W86541  26.258  43.845  14.116
19759W        W86542   9.572  28.310  12.331
19760W        W86543   8.597  23.913  13.220
19761W        W86544  19.210  11.451  13.241
19762W        W86545  33.905   7.039   3.186
19763W        W86546  17.107  23.029   3.318
19764W        W86547  33.514   9.157  13.955
19765W        W86548   4.328  26.570  10.828
19766W        W86549   8.747  20.201   4.667
19767W        W86550   4.336  22.672  13.522
19768W        W86551   9.378  33.157   3.622
19769W        W86552  37.663  19.763  12.831
19770W        W86553  18.137  43.844  10.656
19771W        W86554  28.044  36.465  11.983
19772W        W86555  12.071   5.841  11.600
19773W        W86556  28.039   0.953  14.312
19774W        W86557  18.616   7.161  11.179
19775W        W86558  18.330  12.122  11.600
19776W        W86559  39.069   1.697  14.873
19777W        W86560  31.674   0.419  11.952
19778W        W86561   0.978  14.155   4.884
19779W        W86562  36.240   3.377  14.760
19780W        W86563   8.700  23.107  10.697
19781W        W86564  32.850  44.327   2.323
19782W        W86565   1.308  39.096   3.568
19783W        W86566  14.529   1.965  13.984
19784W        W86567   3.020  10.169  13.112
19785W        W86568  13.188  44.068  12.604
19786W        W86569  24.581  33.255  10.932
19787W        W86570  31.017  24.061   1.005
19788W        W86571  40.214  12.295   1.849
19789W        W86572  10.321  27.591   4.509
19790W        W86573  26.708  43.944   0.506
19791W        W86574  41.077  11.835  12.451
19792W        W86575  41.014  22.193  10.573
19793W        W86576  40.773   1.522  13.022
19794W        W86577  35.091  41.319  12.954
19795W        W86578  38.631  32.848  10.681
19796W        W86579  10.209  42.824  11.990
19797W        W86580  44.214  24.173  10.671
19798W        W86581  19.789  19.069   3.778
19799W        W86582  14.114  44.412   4.080
19800W        W86583  18.215  36.377   4.888
19801W        W86584   3.860  32.040   3.657
19802W        W86585   1.743  40.812  14.858
19803W        W86586  41.586  38.264  12.547
19804W        W86587   9.320  33.106  11.423
19805W        W86588  39.450   4.268   0.351
19806W        W86589  35.372  13.863  12.896
19807W        W86590  24.777  42.657   2.906
19808W        W86591  32.553  39.492   3.401
19809W        W86592  26.732  16.316  10.285
19810W        W86593   6.254  21.826  13.955
19811W        W86594   6.194   5.430   0.441
19812W        W86595  18.751  36.827   4.201
19813W        W86596   0.689   0.996   1.213
19814W        W86597  44.734  38.003   3.237
19815W        W86598   9.255  13.719   3.548
19816W        W86599   5.295   1.373   5.106
19817W        W86600  27.419  16.108  11.050
19818W        W86601  12.853  15.108   3.603
19819W        W86602   5.885  17.218   0.478
19820W        W86603  17.059  42.022   2.269
19821W        W86604  43.838  19.054  11.145
19822W        W86605  36.528  15.129  14.883
19823W        W86606  23.096   2.850   0.376
19824W        W86607  13.079  35.249   4.235
19825W        W86608   2.308  15.188  12.388
19826W        W86609  29.686  27.098  10.913
19827W        W86610  33.065  18.263   0.350
19828W        W86611  20.950  34.605  14.828
19829W        W86612  35.068  32.410   2.453
19830W        W86613  33.885   3.449  13.963
19831W        W86614  11.872  43.870  13.643
19832W        W86615  17.047  13.527  11.149
19833W        W86616  35.923   8.918  14.917
19834W        W86617  41.039  32.154   0.320
19835W        W86618  39.588   7.100  14.339
19836W        W86619   4.502   6.413   4.966
19837W        W86620  31.651   4.176  12.979
19838W        W86621  43.097  39.136  13.045
19839W        W86622  29.559  32.734  13.790
19840W        W86623   7.223  11.565   0.331
19841W        W86624  31.000  11.812   4.119
19842W        W86625  18.676  25.806  10.395
19843W        W86626  15.630  13.760   1.415
19844W        W86627  44.728   6.710  14.093
19845W        W86628  33.769  23.802   3.188
19846W        W86629   4.048  40.265  11.067
19847W        W86630  16.853  42.810  10.497
19848W        W86631  44.959  28.271  13.425
19849W        W86632  30.573  24.534  10.891
19850W        W86633  32.054  13.210  12.820
19851W        W86634  28.968  26.175  11.071
19852W        W86635  32.161   0.926  11.613
19853W        W86636   1.545   5.521   2.434
19854W        W86637  43.165  21.823   0.798
19855W        W86638  24.103   6.740  13.590
19856W        W86639   1.764  42.977  11.935
19857W        W86640  12.411  36.133   3.128
19858W        W86641   8.961  43.703  10.711
19859W        W86642   2.752  28.231  13.995
19860W        W86643  25.985  43.470   0.289
19861W        W86644  10.313  11.782  13.356
19862W        W86645  23.550  36.958   2.119
19863W        W86646   4.469  19.158  10.343
19864W        W86647  16.276  10.669  10.557
19865W        W86648  39.156  40.355  13.023
19866W        W86649  16.252  40.789  10.714
19867W        W86650  44.197  35.921   2.288
19868W        W86651  31.543  25.232  12.069
19869W        W86652  43.731  18.281   2.403
19870W        W86653   9.368   6.982  12.094
19871W        W86654   1.950  11.838   0.299
19872W        W86655  39.444  43.275  12.707
19873W        W86656  38.256   8.608   9.928
19874W        W86657  10.207  40.415   1.226
19875W        W86658  19.552  19.599  11.418
19876W        W86659  38.532  42.383  14.413
19877W        W86660   5.649  24.078   0.407
19878W        W86661  24.236  22.292   0.851
19879W        W86662  28.440  28.411   0.309
19880W        W86663  39.181  39.774   0.758
19881W        W86664  40.121  36.456   2.315
19882W        W86665  23.592  42.807   1.514
19883W        W86666  24.264   1.801   3.620
19884W        W86667  42.032  24.416  12.361
19885W        W86668  34.619  37.573   3.861
19886W        W86669  44.004  42.460   4.459
19887W        W86670  34.423   1.715  12.990
19888W        W86671  12.390  12.083  13.920
19889W        W86672  44.507  18.504   0.961
19890W        W86673  20.803  31.436  10.868
19891W        W86674  15.690   0.891  13.922
19892W        W86675  19.924  23.796  11.558
19893W        W86676   3.746   9.927  12.106
19894W        W86677  41.269   5.301   0.052
19895W        W86678   9.314   2.470   2.214
19896W        W86679  29.638   4.455  11.951
19897W        W86680  30.140  40.060   3.657
19898W        W86681  31.435   7.093  14.345
19899W        W86682  19.686  23.046  12.065
19900W        W86683  29.041  30.452  12.261
19901W        W86684  35.579   0.713   0.661
19902W        W86685  17.806  10.891   2.661
19903W        W86686   7.917  40.144   4.456
19904W        W86687   4.257  26.088  13.399
19905W        W86688  24.523  23.951   1.494
19906W        W86689   0.596  21.963  10.727
19907W        W86690  32.502   1.806   0.279
19908W        W86691   6.208  13.231   1.571
19909W        W86692  17.814  13.761   0.687
19910W        W86693   3.976  26.567   4.214
19911W        W86694  41.802  34.628   3.342
19912W        W86695  21.279  42.431  11.063
19913W        W86696  31.366  13.469   1.244
19914W        W86697  14.211   7.409  13.978
19915W        W86698  24.487  20.606  10.675
19916W        W86699  33.010  37.318   2.305
19917W        W86700  39.789  38.931  12.078
19918W        W86701  27.382  42.715  12.536
19919W        W86702  33.583  27.684   3.240
19920W        W86703  40.589  11.558   4.813
19921W        W86704  27.941  28.114   4.686
19922W        W86705  44.204  35.840   4.426
19923W        W86706  19.175  43.288  13.059
19924W        W86707  30.232   6.292   4.743
19925W        W86708  30.893  10.722  11.559
19926W        W86709   0.010   8.773  11.016
19927W        W86710  26.814   5.590  12.575
19928W        W86711  32.088  13.340  11.076
19929W        W86712  26.246  43.494  10.225
19930W        W86713  10.220  40.901  13.521
19931W        W86714  38.939   7.791  12.311
19932W        W86715  41.531  36.444   0.797
19933W        W86716  11.186  31.195   1.820
19934W        W86717  43.803  32.933  10.737
19935W        W86718  30.933  24.016   2.312
19936W        W86719   0.758  27.041   0.815
19937W        W86720   9.621  44.598   0.712
19938W        W86721  41.882  14.387   1.826
19939W        W86722  27.072   5.750   1.128
19940W        W86723   6.818  41.457  12.504
19941W        W86724  29.913  41.305   4.584
19942W        W86725  38.019   8.338   1.752
19943W        W86726  20.632  14.665   0.791
19944W        W86727  32.027  18.460  10.230
19945W        W86728  21.671  39.519   0.990
19946W        W86729   9.876  14.345  10.396
19947W        W86730  12.605  32.413  14.018
19948W        W86731  10.665  15.157  12.603
19949W        W86732   5.368   9.794  10.876
19950W        W86733  28.635   1.045   1.489
19951W        W86734  29.839   4.032   2.585
19952W        W86735  23.851   9.572  12.946
19953W        W86736  28.964  19.758   1.199
19954W        W86737  23.386  22.495  14.995
19955W        W86738  37.986  44.483   1.693
19956W        W86739  25.706  27.230  11.200
19957W        W86740  28.117   3.744   3.160
19958W        W86741  13.798  33.468   1.767
19959W        W86742   5.955   2.367  10.959
19960W        W86743  36.550   2.490  11.748
19961W        W86744  16.365  23.015   0.860
19962W        W86745  40.414  36.668   0.494
19963W        W86746  36.077  35.431   1.185
19964W        W86747  27.158  15.682  12.034
19965W        W86748  24.149   0.920   4.114
19966W        W86749  18.103  20.592  12.711
19967W        W86750  10.665   6.629   9.894
19968W        W86751  11.098  15.881  11.449
19969W        W86752  37.680   8.968  12.038
19970W        W86753   8.670  42.014  13.857
19971W        W86754   4.993  12.110   3.696
19972W        W86755  30.967   7.445  13.416
19973W        W86756  39.969   4.645  11.093
19974W        W86757  25.918  31.330   1.729
19975W        W86758   6.472  35.072   3.644
19976W        W86759  28.373  13.879  14.834
19977W        W86760  16.624  19.012  13.416
19978W        W86761  11.805  29.635   4.631
19979W        W86762   4.331  43.971  14.418
19980W        W86763  41.468   2.024  11.768
19981W        W86764   0.503  44.812  10.718
19982W        W86765  36.151  32.386  10.845
19983W        W86766   9.640   9.268   1.871
19984W        W86767   4.277  11.538  13.039
19985W        W86768  25.951  21.787   1.891
19986W        W86769  26.275   0.755   2.590
19987W        W86770  33.826   8.756   1.990
19988W        W86771  38.518  24.506  14.778
19989W        W86772  30.838   9.861   0.314
19990W        W86773  14.338   8.221  13.594
19991W        W86774  32.551  24.047  10.289
19992W        W86775   9.718  23.490   4.080
19993W        W86776  11.653  13.837  10.436
19994W        W86777  17.282  23.028   2.339
19995W        W86778   8.573  29.690   4.072
19996W        W86779   2.414  13.781  11.062
19997W        W86780  40.807   7.952   3.762
19998W        W86781  20.734   1.299  10.217
19999W        W86782   5.168  21.920  11.065
20000W        W86783  21.754   6.129  14.916
20001W        W86784  44.202  24.904   0.366
20002W        W86785  41.488  11.127  13.813
20003W        W86786  22.632  40.611  13.555
20004W        W86787  32.442  19.517  11.528
20005W        W86788   8.447  36.053  11.143
20006W        W86789  34.590  25.528  11.927
20007W        W86790  13.062  21.950   0.834
20008W        W86791   3.245   4.841  11.748
20009W        W86792  21.754  37.619  13.329
20010W        W86793  20.708  22.539  13.759
20011W        W86794  42.842  37.041  11.473
20012W        W86795  41.991  34.828  12.726
20013W        W86796  30.279  32.760  12.589
20014W        W86797  23.488  12.399   0.927
20015W        W86798  18.203  42.016   1.870
20016W        W86799  44.824  41.212  10.704
20017W        W86800  15.793  44.223   2.802
20018W        W86801  42.632  19.977  11.434
20019W        W86802  38.958  18.627  13.210
20020W        W86803  24.994  11.258   0.879
20021W        W86804   9.886  32.902  12.981
20022W        W86805  26.181  40.014   2.283
20023W        W86806  20.454  31.835   3.347
20024W        W86807  35.548  16.984   3.374
20025W        W86808  39.940  32.253  14.951
20026W        W86809  35.855   6.268  14.984
20027W        W86810   8.167  40.582  13.895
20028W        W86811  11.128  13.604  12.003
20029W        W86812  43.736  44.757   1.268
20030W        W86813   6.949   6.181  12.025
20031W        W86814  44.962  40.889  13.513
20032W        W86815  27.771  24.975   1.466
20033W        W86816  12.730  10.788   1.413
20034W        W86817  16.693  16.627   3.119
20035W        W86818  31.296   1.183   2.859
20036W        W86819  42.284  34.502  12.999
20037W        W86820  39.216   8.889   4.609
20038W        W86821   5.776  22.261  11.885
20039W        W86822  39.628  22.171  12.823
20040W        W86823   4.343  10.199  10.721
20041W        W86824  34.887  24.486   0.352
20042W        W86825  33.307  34.697   3.289
20043W        W86826  30.942  42.800   5.194
20044W        W86827  23.498   1.255   4.688
20045W        W86828  30.219  43.303   4.584
20046W        W86829  22.543  40.335   1.172
20047W        W86830  10.608  11.971  11.643
20048W        W86831  26.474  36.234  11.462
20049W        W86832  31.946  42.093  10.719
20050W        W86833  34.706  14.534  12.577
20051W        W86834   6.411  40.442   4.622
20052W        W86835  22.537  29.504  14.229
20053W        W86836  35.767  20.178   5.671
20054W        W86837  26.965  20.969  10.611
20055W        W86838   5.760   4.792  14.945
20056W        W86839  36.817  25.545   1.601
20057W        W86840   2.206  22.971  13.624
20058W        W86841  39.052  30.199  12.775
20059W        W86842  43.993  42.040  14.014
20060W        W86843  14.241  39.971   3.762
20061W        W86844  41.794  28.481   3.643
20062W        W86845  17.114  35.196   2.051
20063W        W86846   1.888  22.102  11.871
20064W        W86847  30.828  31.029   2.402
20065W        W86848   7.708  29.072  13.021
20066W        W86849  10.302  34.150  11.121
20067W        W86850  37.024  20.220  12.057
20068W        W86851  27.146   2.294   3.263
20069W        W86852   3.944  35.764   2.971
20070W        W86853  37.010  35.335  11.301
20071W        W86854  37.456  35.165   2.021
20072W        W86855  33.357  21.532  14.220
20073W        W86856  10.274  10.716   0.060
20074W        W86857   3.455  42.016   0.669
20075W        W86858  18.926  30.020   3.770
20076W        W86859  35.944   2.963   4.344
20077W        W86860  16.881  31.905   3.704
20078W        W86861   3.971  24.378  14.551
20079W        W86862  22.356  38.055   3.815
20080W        W86863   5.210  37.571  13.862
20081W        W86864   2.606  38.339  11.459
20082W        W86865  43.778  30.534   3.864
20083W        W86866  30.336   6.504  14.074
20084W        W86867  38.672  10.323   3.223
20085W        W86868   7.772  43.440   0.283
20086W        W86869  41.343   9.851   4.369
20087W        W86870   3.454  23.569  12.940
20088W        W86871  44.728  21.773  11.536
20089W        W86872   9.677  36.053   0.190
20090W        W86873   3.098   1.991   3.210
20091W        W86874  10.670  16.639   4.372
20092W        W86875   7.313  25.667   1.401
20093W        W86876  19.704  23.590   2.872
20094W        W86877  37.948   4.060  11.976
20095W        W86878   1.305  13.731   4.750
20096W        W86879  42.397  21.035  12.919
20097W        W86880  14.586  32.205   0.215
20098W        W86881  25.910  28.666   3.376
20099W        W86882  10.850  29.116  14.038
20100W        W86883  43.995  18.087  12.959
20101W        W86884  38.337   8.692  13.998
20102W        W86885  28.887  43.896   0.992
20103W        W86886  35.325  27.411   1.776
20104W        W86887  22.277  40.595  10.648
20105W        W86888   6.249   1.374   4.610
20106W        W86889  24.352   6.406   0.090
20107W        W86890  31.095  22.826  12.299
20108W        W86891  40.569  43.423   0.359
20109W        W86892  20.026  17.209  14.919
20110W        W86893   0.966  10.285   4.375
20111W        W86894  21.423   5.323  11.920
20112W        W86895   3.626  26.685   0.942
20113W        W86896  26.783  15.409  11.614
20114W        W86897  42.368  40.452   4.902
20115W        W86898  12.736   4.369  11.347
20116W        W86899  27.861  16.215   0.847
20117W        W86900  35.969  39.942   1.275
20118W        W86901  19.850  39.289  12.291
20119W        W86902  34.051  32.398  12.007
20120W        W86903  11.333  14.064  11.125
20121W        W86904  39.821  44.282  12.972
20122W        W86905  34.892  32.928   0.352
20123W        W86906  22.733   1.233   3.414
20124W        W86907   3.331  41.531   2.484
20125W        W86908   1.711  37.378   0.053
20126W        W86909  38.368  33.720   2.590
20127W        W86910  24.126  44.778   3.174
20128W        W86911  26.451  36.557   0.930
20129W        W86912  39.856  37.439  12.666
20130W        W86913  39.923  31.171  13.360
20131W        W86914  11.677   9.466   3.091
20132W        W86915  26.081  19.365   1.781
20133W        W86916  14.847  15.696   1.783
20134W        W86917   2.807  15.130   3.308
20135W        W86918   7.256  21.499   2.157
20136W        W86919  15.532   4.273   2.416
20137W        W86920  10.442   6.302   0.841
20138W        W86921  42.427   6.651   3.470
20139W        W86922  38.564  33.545  10.953
20140W        W86923  27.676  25.603   4.298
20141W        W86924  40.864  19.242  14.500
20142W        W86925  34.942  27.667  11.693
20143W        W86926  37.122  36.102   0.869
20144W        W86927  17.902  26.598  12.442
20145W        W86928  26.218  11.152   2.728
20146W        W86929  18.877   1.676   3.452
20147W        W86930  28.053  37.163  10.739
20148W        W86931  21.187  19.947   1.193
20149W        W86932  30.237  20.032  14.296
20150W        W86933  38.938  24.163  11.619
20151W        W86934   8.262   4.012  12.164
20152W        W86935  13.192  11.615   2.083
20153W        W86936   3.380  17.160  11.515
20154W        W86937  39.012  21.472   4.516
20155W        W86938  24.056  37.747   2.286
20156W        W86939  37.387  35.599  14.283
20157W        W86940  37.859   4.417   1.284
20158W        W86941  39.925   0.160   0.408
20159W        W86942   2.335  15.258   3.156
20160W        W86943  18.105  12.027  13.409
20161W        W86944  11.081  25.745   1.798
20162W        W86945  44.707  41.759  12.624
20163W        W86946  30.296  36.481   0.459
20164W        W86947  43.336  17.021   2.880
20165W        W86948  27.856  44.352  11.698
20166W        W86949  17.837  23.752   3.191
20167W        W86950   4.824  32.415  11.784
20168W        W86951  25.450  16.895  13.226
20169W        W86952   8.230  30.033  14.265
20170W        W86953  44.434  20.230  12.543
20171W        W86954  39.337   3.950   3.336
20172W        W86955  23.973  37.197   0.165
20173W        W86956  40.923  11.727  11.582
20174W        W86957   0.660  27.547  11.068
20175W        W86958   7.248  24.128   3.882
20176W        W86959  35.859  10.429   4.337
20177W        W86960  18.661  43.274  13.307
20178W        W86961  11.572   5.670   2.814
20179W        W86962  10.866  12.221   4.333
20180W        W86963  35.504   2.534   1.886
20181W        W86964  38.679  27.591  14.436
20182W        W86965  31.621   8.095  14.095
20183W        W86966   8.257   7.002  10.428
20184W        W86967   3.417  40.399   4.910
20185W        W86968  23.426   5.008  10.365
20186W        W86969  17.720  36.555  13.997
20187W        W86970  23.040   3.126  12.279
20188W        W86971   6.691  32.627  11.858
20189W        W86972  24.433  15.243   3.598
20190W        W86973  42.041  22.611   0.452
20191W        W86974  22.660  34.802   5.129
20192W        W86975  42.285  29.768  13.088
20193W        W86976  25.063  11.124  14.281
20194W        W86977  21.219  30.635  10.637
20195W        W86978  35.301  32.829  12.966
20196W        W86979  28.184  14.077  12.174
20197W        W86980  32.614  38.441   3.948
20198W        W86981  13.155  23.486  13.741
20199W        W86982   0.754  40.730   0.668
20200W        W86983   3.137  27.984   3.269
20201W        W86984   9.763  24.800   2.447
20202W        W86985  17.627  21.709   4.642
20203W        W86986   1.531  34.434  12.517
20204W        W86987  21.260  25.073  10.237
20205W        W86988  16.139  28.398  11.149
20206W        W86989   7.461  19.546  11.624
20207W        W86990  29.668  27.149  13.479
20208W        W86991   5.943  30.193   2.201
20209W        W86992  11.213   3.926   1.288
20210W        W86993   0.089  14.094   2.773
20211W        W86994   4.741  43.369   4.260
20212W        W86995  17.090  19.461   0.956
20213W        W86996  21.570  44.149  13.500
20214W        W86997   3.525   0.003   3.627
20215W        W86998  33.589  12.790   2.129
20216W        W86999  29.112   2.837  14.987
20217W        W87000   7.244  36.033   0.396
20218W        W87001  38.325   4.228  12.926
20219W        W87002  37.840  14.479   4.601
20220W        W87003  21.338  24.532   3.717
20221W        W87004  43.317  19.385  11.233
20222W        W87005  44.246  16.896  10.114
20223W        W87006   8.264  12.765  12.373
20224W        W87007   9.231  44.756   2.721
20225W        W87008  20.688   9.298  11.675
20226W        W87009  33.402   4.522   0.281
20227W        W87010   3.265   9.410   1.265
20228W        W87011   9.415  28.803  13.069
20229W        W87012  22.247  31.481  14.456
20230W        W87013  35.458   9.629  12.441
20231W        W87014  26.499  22.810  10.617
20232W        W87015  40.749   7.432   3.404
20233W        W87016  26.067  24.498  13.259
20234W        W87017  15.593  22.619   1.789
20235W        W87018   0.651  21.181  10.307
20236W        W87019  12.207  44.843  13.542
20237W        W87020   0.389  32.998  13.186
20238W        W87021   2.856  28.914  12.552
20239W        W87022  19.829  19.559  12.913
20240W        W87023  34.138  39.801   0.276
20241W        W87024  37.991  26.397  14.205
20242W        W87025   2.274  41.579   0.387
20243W        W87026  27.556  38.128   2.107
20244W        W87027  11.627  44.917   1.867
20245W        W87028  11.940  12.403  14.402
20246W        W87029  38.845  12.552   3.252
20247W        W87030  22.584   0.867  11.162
20248W        W87031  23.281  14.728  12.436
20249W        W87032   0.976   1.115   3.357
20250W        W87033  13.581  20.258   2.554
20251W        W87034  44.095   1.952  10.520
20252W        W87035  10.010  35.139   4.052
20253W        W87036  34.477  40.077   2.662
20254W        W87037  12.574  19.599  14.844
20255W        W87038  13.351  32.581  11.274
20256W        W87039  29.906  12.447   0.413
20257W        W87040   4.510  30.450   4.737
20258W        W87041  37.260  17.673  11.050
20259W        W87042  21.540   9.266   3.474
20260W        W87043   3.577  13.883  14.025
20261W        W87044  30.564  24.110  14.197
20262W        W87045   7.162  36.937  12.174
20263W        W87046  24.528  20.785   0.506
20264W        W87047  23.829   1.410   4.300
20265W        W87048   9.043   7.380  12.145
20266W        W87049  37.575  18.251   0.259
20267W        W87050  32.282   1.599  13.804
20268W        W87051  44.218  21.193  12.583
20269W        W87052   4.531  32.414   1.955
20270W        W87053  38.940  44.284   2.720
20271W        W87054   0.293  20.818   1.653
20272W        W87055   9.310  27.036  12.018
20273W        W87056  40.860  32.620   0.125
20274W        W87057  36.157  27.420  11.631
20275W        W87058   0.480  23.179  13.423
20276W        W87059  12.484  26.732  13.977
20277W        W87060   1.996   8.596  11.144
20278W        W87061   2.843  14.546   3.678
20279W        W87062   2.397  20.690  13.869
20280W        W87063   4.811  29.468  13.898
20281W        W87064  22.995  21.638   1.570
20282W        W87065   3.963  19.049  12.367
20283W        W87066  24.407  38.540  10.805
20284W        W87067  40.282  22.797   1.772
20285W        W87068  32.375  17.854  12.919
20286W        W87069   2.992  10.260  14.065
20287W        W87070  13.254  36.758   2.736
20288W        W87071  13.583  15.322  14.092
20289W        W87072  29.054  25.298  13.507
20290W        W87073   8.439  16.343  12.627
20291W        W87074   3.786  32.916  10.779
20292W        W87075  37.830   4.229  13.082
20293W        W87076  25.054  37.090   4.604
20294W        W87077  27.163  22.825  13.068
20295W        W87078   1.859  31.160  10.506
20296W        W87079  44.047  34.932   3.263
20297W        W87080   1.485   2.010   4.073
20298W        W87081  34.736  26.072   0.279
20299W        W87082  42.544  30.255  14.346
20300W        W87083  24.682  39.418   3.675
20301W        W87084  11.951  26.840   3.236
20302W        W87085  30.012   2.748   2.326
20303W        W87086  24.176  21.967  10.570
20304W        W87087  19.276  13.431  14.786
20305W        W87088   4.571  42.446   9.914
20306W        W87089  16.952  24.537  12.482
20307W        W87090  38.074   3.493  13.384
20308W        W87091  28.188  33.068   0.760
20309W        W87092  10.720  31.688   0.451
20310W        W87093  33.450   1.319   0.483
20311W        W87094   2.460   6.189   1.836
20312W        W87095  23.242   2.383   3.532
20313W        W87096   7.189   4.373  11.610
20314W        W87097   5.434  17.174   1.733
20315W        W87098  38.932  26.077  12.487
20316W        W87099  17.585  12.197  10.241
20317W        W87100   9.734   1.378  11.155
20318W        W87101  18.239  28.672  10.752
20319W        W87102   8.838  26.222   2.887
20320W        W87103   9.073  32.359   3.318
20321W        W87104  16.651   8.724  11.566
20322W        W87105  14.347  26.261   3.288
20323W        W87106   4.389  13.583  13.389
20324W        W87107  21.665  43.958   2.849
20325W        W87108  11.929   2.781   1.245
20326W        W87109  29.669   3.658   3.919
20327W        W87110  22.505  38.387   3.333
20328W        W87111  32.412  25.719  12.000
20329W        W87112  17.247   4.257  14.507
20330W        W87113  28.685  37.144  12.062
20331W        W87114   9.374  22.569  12.131
20332W        W87115  12.257  31.614   1.876
20333W        W87116  26.443  22.488  11.014
20334W        W87117  18.842  32.011  13.889
20335W        W87118  41.078   8.345   2.676
20336W        W87119  14.877   6.128  13.993
20337W        W87120  22.075   6.735   0.387
20338W        W87121  14.573  32.973  11.118
20339W        W87122  21.741  20.324   3.205
20340W        W87123  18.546  31.824  14.326
20341W        W87124  36.990  25.587   3.261
20342W        W87125  34.916   5.571   1.066
20343W        W87126  20.541  11.852   3.268
20344W        W87127   3.837   7.472  14.457
20345W        W87128   7.955  42.995   1.340
20346W        W87129  43.014  37.488  10.761
20347W        W87130  36.497  36.574   0.037
20348W        W87131   4.560  20.335   3.215
20349W        W87132  14.027  23.237  13.828
20350W        W87133   5.423  29.444  13.016
20351W        W87134  41.530  35.575  14.972
20352W        W87135  35.125  38.733   0.929
20353W        W87136  39.500   7.645  12.028
20354W        W87137  22.914  31.592   0.833
20355W        W87138  37.971  11.335   1.547
20356W        W87139  41.795  21.888  10.739
20357W        W87140  34.781   3.318   9.892
20358W        W87141  37.010   1.760  12.273
20359W        W87142   7.795  43.302  10.941
20360W        W87143  41.904   5.631   2.887
20361W        W87144  40.601  34.004  14.871
20362W        W87145  30.476  22.203   0.417
20363W        W87146  40.026  32.624   0.289
20364W        W87147  27.723  42.037   4.024
20365W        W87148  34.814  39.837  13.030
20366W        W87149  39.777  16.650  11.017
20367W        W87150  24.552  33.020   4.417
20368W        W87151  12.822  22.760  11.662
20369W        W87152  24.053   2.487   0.494
20370W        W87153  33.461  42.735   5.074
20371W        W87154   0.418   6.932   2.930
20372W        W87155  13.707  16.315   4.223
20373W        W87156  12.086   3.216   4.244
20374W        W87157  31.002  31.520   3.647
20375W        W87158  42.408  30.731  14.171
20376W        W87159  20.058  18.150  14.369
20377W        W87160   7.156  16.593   1.024
20378W        W87161  36.403  12.557   4.959
20379W        W87162  43.059  31.912   0.019
20380W        W87163  39.886  30.672   0.834
20381W        W87164   4.275   8.468  11.729
20382W        W87165  38.240  17.290   3.379
20383W        W87166   8.384  32.644  14.409
20384W        W87167   1.273   1.904   3.606
20385W        W87168  25.489  11.253   0.652
20386W        W87169  19.253  31.064  13.420
20387W        W87170  38.349  12.576   0.855
20388W        W87171  31.901  27.853   1.003
20389W        W87172  20.256   6.256   4.576
20390W        W87173  32.158  34.862   0.380
20391W        W87174  29.064  19.307  11.916
20392W        W87175  25.489  29.965   3.843
20393W        W87176  19.818  37.683  11.430
20394W        W87177  39.830  14.251  12.628
20395W        W87178  35.368   6.389  13.373
20396W        W87179  17.934  19.040   1.965
20397W        W87180   8.406  40.445  13.467
20398W        W87181  24.158   4.335  10.832
20399W        W87182  25.929  28.699  11.411
20400W        W87183  12.792   4.823  13.152
20401W        W87184  28.193   1.082  14.809
20402W        W87185  26.197  21.102  14.551
20403W        W87186  10.789  40.593   1.806
20404W        W87187  42.618   0.908  10.836
20405W        W87188  26.198  24.443   5.081
20406W        W87189  24.592  42.391   3.311
20407W        W87190  11.433   5.979   2.248
20408W        W87191  44.755  43.291   3.790
20409W        W87192  16.568   4.854  11.227
20410W        W87193  35.635   9.124   1.324
20411W        W87194  21.261  33.856  12.103
20412W        W87195   3.833  42.186   4.595
20413W        W87196  31.060   9.209  11.409
20414W        W87197  44.817  23.262  13.838
20415W        W87198  44.829  26.392   2.102
20416W        W87199  30.747  35.247  11.509
20417W        W87200   5.475  27.281  10.726
20418W        W87201  22.492  11.115   0.972
20419W        W87202  10.317  13.740  14.310
20420W        W87203  38.661  22.685   3.408
20421W        W87204   5.148  36.125  13.016
20422W        W87205   8.162  13.036  14.947
20423W        W87206  43.386  22.574   4.810
20424W        W87207   8.780   0.423  14.547
20425W        W87208  15.331   2.537  12.601
20426W        W87209  38.221   5.827   0.352
20427W        W87210  15.822  10.409   4.282
20428W        W87211   4.464   5.351   2.927
20429W        W87212  10.030  20.698  10.012
20430W        W87213  35.916  38.406   2.240
20431W        W87214  41.436   4.338  11.147
20432W        W87215  36.630  36.201   3.118
20433W        W87216  20.201  28.611   0.468
20434W        W87217  41.996   7.389  11.949
20435W        W87218  20.006  30.585  12.865
20436W        W87219  36.015  30.907   2.937
20437W        W87220  41.450  26.030   3.039
20438W        W87221   2.410   4.142  14.529
20439W        W87222  37.909  18.559  10.771
20440W        W87223  38.566  24.417  14.270
20441W        W87224  28.071  14.868  14.799
20442W        W87225  28.072  31.607   3.146
20443W        W87226  43.432  24.045   1.686
20444W        W87227  31.616   4.411   0.070
20445W        W87228  40.839  13.722   2.392
20446W        W87229  29.833  12.619   3.085
20447W        W87230  22.908  40.496  13.101
20448W        W87231  13.076  20.022   3.195
20449W        W87232  22.752  43.640  13.472
20450W        W87233  35.588   9.298  12.050
20451W        W87234  11.217  41.567   1.225
20452W        W87235  37.511  20.594   2.755
20453W        W87236  25.448  30.000  11.583
20454W        W87237  44.277  18.679  10.551
20455W        W87238  14.153  27.594  14.820
20456W        W87239  42.518  21.152   4.910
20457W        W87240  16.675  24.136   3.794
20458W        W87241  43.508   0.185  13.521
20459W        W87242  11.954  42.449   1.405
20460W        W87243  26.509  37.023   4.752
20461W        W87244  35.448  35.300   2.339
20462W        W87245  10.241  26.232   3.205
20463W        W87246  16.505  34.422   2.768
20464W        W87247  25.736  26.580  14.667
20465W        W87248  42.726  20.714   0.504
20466W        W87249  18.467  27.580   0.728
20467W        W87250  24.161  31.419   1.319
20468W        W87251  32.585  14.580  11.038
20469W        W87252  20.374  18.729  14.237
20470W        W87253  34.550  24.525  13.954
20471W        W87254  28.452   8.376  12.663
20472W        W87255  12.705  18.741  10.527
20473W        W87256  13.799  21.396  14.971
20474W        W87257  34.643  43.129  14.069
20475W        W87258  42.832  11.613  12.133
20476W        W87259  37.538  14.311  13.442
20477W        W87260  31.143  33.183  10.695
20478W        W87261  20.044  22.626  14.870
20479W        W87262  41.997  13.601  12.149
20480W        W87263   6.056  41.476  11.227
20481W        W87264  15.755   5.208   1.745
20482W        W87265  43.805   8.368   2.379
20483W        W87266  35.302  33.709   4.802
20484W        W87267  36.887  12.561  13.126
20485W        W87268  38.999  12.664  11.505
20486W        W87269  15.774  43.936  11.565
20487W        W87270   7.369  40.117  10.185
20488W        W87271  36.725   5.632   1.251
20489W        W87272  43.613  36.266  14.882
20490W        W87273  18.203  16.205   0.601
20491W        W87274  42.584  15.993  10.275
20492W        W87275  15.252  13.270  14.032
20493W        W87276  24.924  37.705   0.675
20494W        W87277  23.163  24.466  11.037
20495W        W87278  16.191  22.985   3.706
20496W        W87279  38.380  13.741  13.990
20497W        W87280  40.265  17.663  13.322
20498W        W87281   0.374  22.620   3.678
20499W        W87282  44.173  11.858  14.289
20500W        W87283  14.525  16.038  10.626
20501W        W87284  11.741  18.542   4.324
20502W        W87285  11.152  28.503  11.392
20503W        W87286  17.554  31.395   1.639
20504W        W87287  12.659  15.952   2.016
20505W        W87288   7.682  37.552  12.083
20506W        W87289  19.112  18.291   0.628
20507W        W87290  21.743  42.362  11.531
20508W        W87291  21.295  10.291   3.796
20509W        W87292   2.091  19.979  11.294
20510W        W87293   1.798   2.766  10.905
20511W        W87294   0.723  40.039  14.407
20512W        W87295  30.904  34.083  11.997
20513W        W87296  34.105  20.098   0.190
20514W        W87297  42.522   9.399   0.913
20515W        W87298  33.943  14.174  14.052
20516W        W87299  41.929  15.180   0.375
20517W        W87300  37.528   1.962   0.593
20518W        W87301   3.753   7.139   2.264
20519W        W87302  21.273  20.811  12.515
20520W        W87303  39.912  37.234   1.341
20521W        W87304  15.164  42.094  11.842
20522W        W87305  30.056  33.822   0.426
20523W        W87306  42.458  25.034   4.094
20524W        W87307   9.628   1.460   4.022
20525W        W87308  33.639  42.427  11.980
20526W        W87309  19.518  22.433   1.505
20527W        W87310   8.296  15.256   1.218
20528W        W87311  18.608   8.894   0.733
20529W        W87312  21.159  28.073  14.021
20530W        W87313   3.205  35.149   2.159
20531W        W87314   1.522  19.184   2.695
20532W        W87315  28.267  10.791  13.315
20533W        W87316   3.399  40.813  14.164
20534W        W87317  13.760   0.373  12.046
20535W        W87318  37.917  40.045   0.199
20536W        W87319  27.006  41.938   3.732
20537W        W87320  11.186  18.221  12.561
20538W        W87321  42.353  11.812  14.578
20539W        W87322  20.498   6.174   3.366
20540W        W87323  38.759  40.793  11.896
20541W        W87324  27.570  37.537   2.584
20542W        W87325  25.644  18.464   0.373
20543W        W87326  22.710  13.741   2.837
20544W        W87327   8.276  40.609   4.027
20545W        W87328  28.356  27.393   0.278
20546W        W87329   4.142  30.546   2.192
20547W        W87330  22.596   6.019  10.878
20548W        W87331  16.795  14.182   3.150
20549W        W87332  37.283   5.183   0.700
20550W        W87333  11.889  31.072  13.570
20551W        W87334  40.027   8.762   4.215
20552W        W87335  34.176  13.152  11.411
20553W        W87336  34.881  25.969  14.385
20554W        W87337   5.543  11.305  13.966
20555W        W87338  13.148  18.708  12.120
20556W        W87339  11.342  39.866  11.512
20557W        W87340  12.765   9.274   0.921
20558W        W87341  35.273  19.049   0.684
20559W        W87342   9.324  16.057   4.033
20560W        W87343   5.703  39.358   1.303
20561W        W87344  37.822  17.144   0.983
20562W        W87345   4.404  33.340   2.394
20563W        W87346   8.642  13.114  14.260
20564W        W87347  16.703   1.283  12.396
20565W        W87348   0.164   9.876   2.836
20566W        W87349  42.198  17.853  11.947
20567W        W87350   0.482  32.522  11.967
20568W        W87351  34.498  30.553   4.450
20569W        W87352  30.634   2.998   0.364
20570W        W87353  40.878  41.933   0.718
20571W        W87354  41.744  15.885   1.765
20572W        W87355  17.698  12.575   3.164
20573W        W87356  20.448  12.083  14.406
20574W        W87357   6.543  39.412   4.476
20575W        W87358  13.301  44.536   0.517
20576W        W87359  12.686   2.872   3.189
20577W        W87360  20.178   4.936  12.990
20578W        W87361  34.670  22.678   2.765
20579W        W87362   6.575  16.623   1.710
20580W        W87363  34.484   5.842   1.905
20581W        W87364  10.191  39.793   1.953
20582W        W87365  19.150   9.409   2.630
20583W        W87366  36.971  43.096  10.431
20584W        W87367  40.145  43.820  13.910
20585W        W87368  17.126  12.530  11.112
20586W        W87369  22.181  25.344  10.158
20587W        W87370  18.448  15.053  11.258
20588W        W87371  21.873  15.252   2.870
20589W        W87372   1.999   2.654  13.125
20590W        W87373  40.266  42.356   2.308
20591W        W87374  37.996  38.142  11.388
20592W        W87375  19.061  39.129   1.744
20593W        W87376  29.917   6.587   1.724
20594W        W87377  17.722  37.913  14.429
20595W        W87378  21.094   5.245  12.325
20596W        W87379   5.389  16.217  11.678
20597W        W87380  33.863  15.074  11.114
20598W        W87381  22.597   7.952   4.207
20599W        W87382   1.808   0.165  12.605
20600W        W87383  22.440  13.468  14.527
20601W        W87384   8.222   5.348   2.341
20602W        W87385  14.022  32.445   1.402
20603W        W87386  17.290  15.777  14.493
20604W        W87387  11.686  40.446  12.510
20605W        W87388  28.536  33.434   3.370
20606W        W87389  17.775  39.579  10.024
20607W        W87390  43.233   9.211   0.195
20608W        W87391  31.002  18.550   3.143
20609W        W87392  34.971   9.510  14.643
20610W        W87393  21.160  25.095  10.766
20611W        W87394  15.249  39.014  12.987
20612W        W87395  41.609  28.388  14.069
20613W        W87396  13.324   2.998   2.183
20614W        W87397  29.596  22.907  13.002
20615W        W87398  11.213  10.389   0.834
20616W        W87399  25.987  12.667  14.228
20617W        W87400  16.088   4.790  12.527
20618W        W87401  30.040  10.590  12.360
20619W        W87402  37.055  33.388   4.326
20620W        W87403  10.349  18.217   0.925
20621W        W87404  27.038  36.163   2.480
20622W        W87405  35.360  23.068  12.889
20623W        W87406  40.837  22.765  14.048
20624W        W87407   1.908  15.164  14.936
20625W        W87408  10.575  27.027  10.061
20626W        W87409  32.007  33.835  13.468
20627W        W87410  38.978  33.489  12.311
20628W        W87411   1.971  13.517   3.586
20629W        W87412  15.096   8.392  14.469
20630W        W87413  29.483  25.001  12.576
20631W        W87414   3.343  32.626  14.369
20632W        W87415   7.783  32.123  13.586
20633W        W87416  28.433  21.500   0.964
20634W        W87417   3.492  42.883  12.585
20635W        W87418  26.273  20.771   2.792
20636W        W87419   5.468   4.938   0.411
20637W        W87420  18.175  36.404  14.234
20638W        W87421  15.661  13.259   1.620
20639W        W87422  13.372  26.932  13.759
20640W        W87423  40.235  19.513   1.809
20641W        W87424  26.655  22.195  14.132
20642W        W87425   4.071   9.680  12.437
20643W        W87426  35.118   5.862   4.651
20644W        W87427  30.505  11.295   4.601
20645W        W87428  43.946  12.146   2.187
20646W        W87429   0.322  12.619   4.164
20647W        W87430  22.068   1.456   1.340
20648W        W87431  30.681  30.379  11.175
20649W        W87432  25.402  27.666  11.117
20650W        W87433  22.055   2.442  14.034
20651W        W87434  22.126  26.586  12.963
20652W        W87435  29.606  10.648   2.608
20653W        W87436   1.538   4.607  11.024
20654W        W87437  30.668  36.449   0.091
20655W        W87438  31.836  38.135   1.975
20656W        W87439  40.520   7.150  12.943
20657W        W87440  17.248  40.483  10.651
20658W        W87441  12.981  41.748   9.840
20659W        W87442  33.086   9.540   1.833
20660W        W87443  26.203   8.180   2.205
20661W        W87444  44.380   6.713  11.175
20662W        W87445  40.772  21.780  10.764
20663W        W87446  44.247   9.422  14.542
20664W        W87447  20.064  13.855  13.052
20665W        W87448   8.611  12.284   1.346
20666W        W87449  33.378  12.048  10.153
20667W        W87450  26.819  15.601   5.140
20668W        W87451  11.139  41.887   4.178
20669W        W87452  39.482  21.698   4.642
20670W        W87453  36.773  17.730  12.004
20671W        W87454   9.851  17.567  11.494
20672W        W87455  39.588  39.835  14.830
20673W        W87456  40.502  16.752  12.896
20674W        W87457  13.294  40.729  11.229
20675W        W87458   2.583  12.694  13.978
20676W        W87459  33.836  37.155   4.118
20677W        W87460  40.955   8.541   1.357
20678W        W87461  20.641  30.242   5.061
20679W        W87462  34.521  14.378   1.850
20680W        W87463  44.337  42.486   3.713
20681W        W87464  20.317   8.551   4.346
20682W        W87465  22.213  25.053  11.402
20683W        W87466  44.824   8.198   2.836
20684W        W87467  28.651  21.944   3.207
20685W        W87468  26.801  26.188  11.565
20686W        W87469  38.536  36.889   4.510
20687W        W87470  28.513  31.635   4.934
20688W        W87471  32.738  21.483   3.581
20689W        W87472  19.537   9.281  12.530
20690W        W87473  25.558  14.345  14.324
20691W        W87474  21.705  28.635   0.263
20692W        W87475   0.932   7.612  10.613
20693W        W87476   1.883   7.445  14.756
20694W        W87477  10.039  27.095   3.691
20695W        W87478  16.306   4.479  12.871
20696W        W87479  13.370  39.377  13.923
20697W        W87480   2.330  16.109   3.726
20698W        W87481  10.112   1.901  11.592
20699W        W87482  23.294   8.153   0.841
20700W        W87483   0.325  18.967   2.346
20701W        W87484  32.826  28.588   0.843
20702W        W87485   5.683  41.746   0.560
20703W        W87486   8.286  30.814   2.383
20704W        W87487   0.840  34.450  10.368
20705W        W87488  40.525  16.278  13.447
20706W        W87489   7.007  34.613   2.738
20707W        W87490   7.275   9.164   2.106
20708W        W87491  40.081   0.305   9.868
20709W        W87492   8.497  33.035  12.266
20710W        W87493  12.678   6.971  11.467
20711W        W87494  38.981  40.240   3.298
20712W        W87495  14.565  26.278  11.715
20713W        W87496  38.029   3.340  14.779
20714W        W87497  30.827  31.270  11.065
20715W        W87498  10.526   0.418  14.905
20716W        W87499  26.175  42.114   3.932
20717W        W87500  16.963  44.299   4.537
20718W        W87501  22.110  12.440   4.893
20719W        W87502  17.562  25.938   1.702
20720W        W87503  26.252  20.715  13.013
20721W        W87504  20.140  36.533   1.252
20722W        W87505  18.522   5.724   3.263
20723W        W87506  22.094  18.138  11.985
20724W        W87507  28.521  41.412   2.740
20725W        W87508  20.701   1.225   4.084
20726W        W87509   5.678  28.601   2.880
20727W        W87510   8.750  17.005   1.817
20728W        W87511  26.058  16.751   2.180
20729W        W87512   1.896  22.317   3.472
20730W        W87513  38.594   9.331  13.956
20731W        W87514  35.470  19.338  11.058
20732W        W87515   4.849  14.102   2.831
20733W        W87516  22.427  14.267   0.199
20734W        W87517  19.012  28.486   2.830
20735W        W87518  38.126  10.263   0.820
20736W        W87519  24.007  38.735   2.442
20737W        W87520  36.706   2.285  13.929
20738W        W87521  33.020   6.404  10.480
20739W        W87522  24.292  13.708   1.406
20740W        W87523  25.207   0.404   3.238
20741W        W87524  33.921   0.311  11.685
20742W        W87525  28.174  20.720   1.833
20743W        W87526  43.606  17.590  11.145
20744W        W87527  14.082  11.654  13.911
20745W        W87528  15.134  15.266  14.559
20746W        W87529  34.991  17.647   3.741
20747W        W87530   1.531  16.533   1.462
20748W        W87531  30.614  25.332   1.819
20749W        W87532  39.866   4.698   3.713
20750W        W87533  19.851   2.404   2.684
20751W        W87534  43.689  29.989   2.220
20752W        W87535   7.869  23.245   0.207
20753W        W87536  22.176  44.414  12.851
20754W        W87537  19.298  25.493  11.711
20755W        W87538   4.664  39.121   3.294
20756W        W87539  15.674  14.757   0.803
20757W        W87540  36.311  11.842   0.685
20758W        W87541  22.372  23.572  13.398
20759W        W87542  40.484  10.604  13.410
20760W        W87543  21.561   4.194   0.547
20761W        W87544  28.020   7.734   3.149
20762W        W87545   9.763   3.554   1.839
20763W        W87546   0.198  28.600   0.871
20764W        W87547  10.415  36.834   1.786
20765W        W87548  13.884  41.303  10.766
20766W        W87549  40.666  25.006  14.227
20767W        W87550  38.001  20.376   4.411
20768W        W87551  17.471  11.199  12.605
20769W        W87552  22.282   0.244  13.811
20770W        W87553  26.503  23.977  14.152
20771W        W87554  12.576  25.212  10.648
20772W        W87555   1.486  32.071   1.742
20773W        W87556   4.121  38.152  14.056
20774W        W87557  14.361  35.673  12.025
20775W        W87558  44.464  14.433  10.704
20776W        W87559  43.577  27.903   4.041
20777W        W87560  21.338   7.747  11.548
20778W        W87561  19.200  36.434   2.751
20779W        W87562   0.265  17.506   3.999
20780W        W87563  28.698  32.110   0.171
20781W        W87564  16.172  20.830  13.814
20782W        W87565  28.431  35.488  12.176
20783W        W87566  24.322  20.270  11.976
20784W        W87567  23.877  11.246  10.685
20785W        W87568   4.802  34.436   9.985
20786W        W87569  42.321  35.967   0.598
20787W        W87570  33.130  41.908  14.024
20788W        W87571  30.304  38.431  14.459
20789W        W87572  33.407  38.586   2.489
20790W        W87573  13.780  28.886  11.687
20791W        W87574  34.983  35.874   4.570
20792W        W87575  24.194  19.768   1.748
20793W        W87576  10.474  34.475  12.953
20794W        W87577  11.906   1.695   2.679
20795W        W87578  21.822  21.143  14.835
20796W        W87579  26.180  29.003   1.705
20797W        W87580  14.531   9.224   3.162
20798W        W87581  11.663  20.069   4.372
20799W        W87582   2.914  39.595  13.670
20800W        W87583  16.330  31.525  13.545
20801W        W87584  24.247  44.889  10.729
20802W        W87585  15.320  36.934  12.499
20803W        W87586  18.842  12.244   9.837
20804W        W87587  38.366  20.674  11.244
20805W        W87588  28.376  28.682   1.246
20806W        W87589  19.237  10.964  13.959
20807W        W87590  20.336   1.053  14.099
20808W        W87591  26.128   5.189  12.904
20809W        W87592  41.169  36.348  13.937
20810W        W87593  37.072  23.282  11.112
20811W        W87594  29.989  12.310  10.889
20812W        W87595  27.782  24.783   9.958
20813W        W87596  29.016   0.051  13.460
20814W        W87597  37.473  36.148   1.766
20815W        W87598  44.479   6.305   4.129
20816W        W87599   0.296  37.641   0.852
20817W        W87600  41.487  27.646   3.364
20818W        W87601  19.776   0.363  13.989
20819W        W87602   4.439   4.299  12.065
20820W        W87603   3.974  33.390   0.132
20821W        W87604  33.384   6.383   3.271
20822W        W87605  14.156   4.563  10.659
20823W        W87606  25.694  26.817   1.806
20824W        W87607   7.461  23.048   4.323
20825W        W87608  17.359  13.132  12.369
20826W        W87609  18.243  20.448  13.190
20827W        W87610   4.499   4.033  10.453
20828W        W87611  30.760  36.977  11.931
20829W        W87612   2.314  41.166   1.712
20830W        W87613  26.302  10.850  13.525
20831W        W87614  12.367  44.416  12.665
20832W        W87615  28.183  38.828  14.906
20833W        W87616   7.316  36.663  14.282
20834W        W87617  28.005  29.526   9.812
20835W        W87618  11.641  10.182  14.860
20836W        W87619   7.465  23.598   4.102
20837W        W87620  38.720  13.668  12.479
20838W        W87621  17.296  24.761  11.123
20839W        W87622   7.404   2.262   0.822
20840W        W87623  43.260   0.474   4.285
20841W        W87624  20.200   1.675  13.418
20842W        W87625  22.187  41.868  14.286
20843W        W87626  41.953  41.770   1.728
20844W        W87627  26.870  43.369  12.923
20845W        W87628  30.086  37.459  14.284
20846W        W87629  35.577   1.428   4.153
20847W        W87630   4.943  43.466   4.734
20848W        W87631  36.872  40.573  12.443
20849W        W87632  22.631  43.784  10.753
20850W        W87633  43.379  20.463  13.415
20851W        W87634  13.513  38.870  10.862
20852W        W87635  10.292  33.739  13.981
20853W        W87636  19.596  27.060  12.995
20854W        W87637  44.761  41.586  12.076
20855W        W87638  40.404  29.947   0.652
20856W        W87639  27.457  30.970  10.612
20857W        W87640  42.270  13.817   2.822
20858W        W87641  14.804   1.049  11.550
20859W        W87642   4.117  22.011  11.038
20860W        W87643  16.254   5.915  14.513
20861W        W87644  17.253  37.862  13.399
20862W        W87645  36.995   8.267  11.619
20863W        W87646  12.300  18.191   0.686
20864W        W87647  42.531  24.796  13.135
20865W        W87648   6.327  40.487   3.736
20866W        W87649  18.202   1.987  12.051
20867W        W87650  11.901  23.285   2.375
20868W        W87651   7.190  23.555   1.636
20869W        W87652  37.242  41.651   4.905
20870W        W87653   8.170  39.935   3.249
20871W        W87654  39.342  14.683   4.394
20872W        W87655  34.036  42.516   3.702
20873W        W87656  28.494  37.447  13.011
20874W        W87657  30.171   0.302   4.039
20875W        W87658   3.457   0.920   0.398
20876W        W87659   7.025  18.007   2.719
20877W        W87660  38.924   5.298   2.443
20878W        W87661   9.931  36.807   3.214
20879W        W87662  31.269  42.870  14.468
20880W        W87663  15.723  35.108   0.618
20881W        W87664  28.070  11.919  11.143
20882W        W87665  19.598  28.722   1.315
20883W        W87666  20.073  23.691  13.067
20884W        W87667  28.997  30.940  12.093
20885W        W87668   5.681  38.039  13.984
20886W        W87669  22.612  39.142  12.564
20887W        W87670  38.907  27.842  11.705
20888W        W87671  44.913  14.276  13.294
20889W        W87672  36.273  35.581  11.627
20890W        W87673  36.477  35.323   2.027
20891W        W87674  37.953  18.350  11.389
20892W        W87675   5.463  44.349  12.014
20893W        W87676  14.526  37.395   1.111
20894W        W87677  36.773  19.236   2.717
20895W        W87678  33.574   0.526  14.022
20896W        W87679   6.496  14.255   3.100
20897W        W87680  32.854  16.273  12.385
20898W        W87681  25.187  19.479   5.189
20899W        W87682   0.740  23.589  12.567
20900W        W87683  14.450  24.955  11.919
20901W        W87684  39.802  23.022   1.874
20902W        W87685  33.538   5.162   1.082
20903W        W87686  13.160  33.857   3.340
20904W        W87687  36.421  43.722   3.846
20905W        W87688  10.022  33.035   0.426
20906W        W87689  44.211  25.165  11.399
20907W        W87690  23.226   9.859   1.346
20908W        W87691  17.701  21.896   1.859
20909W        W87692  24.234  35.455  13.525
20910W        W87693  30.590  23.517  13.894
20911W        W87694   9.736   7.163   1.627
20912W        W87695  15.309  38.515   3.670
20913W        W87696  16.333  36.319   1.802
20914W        W87697   2.809   9.187   1.354
20915W        W87698  26.448  20.087   2.138
20916W        W87699   5.544   2.152   0.812
20917W        W87700  39.616  23.101   1.056
20918W        W87701  17.312  28.422   2.261
20919W        W87702  27.144   6.406   3.435
20920W        W87703  13.749   6.627  14.015
20921W        W87704  11.701   7.180  14.984
20922W        W87705   1.802  12.330  10.609
20923W        W87706   0.502  33.375  12.580
20924W        W87707   3.409  37.390   3.404
20925W        W87708   5.297  32.924   0.332
20926W        W87709  31.872  13.294   1.261
20927W        W87710  35.784  16.020  13.445
20928W        W87711   4.197  44.572   1.230
20929W        W87712  21.165  19.204  14.868
20930W        W87713  31.549  38.510  13.735
20931W        W87714   4.633  44.301   1.318
20932W        W87715  31.701  25.993   1.286
20933W        W87716  43.221  22.557  12.113
20934W        W87717  21.639  34.481   1.681
20935W        W87718  28.468  41.096  11.500
20936W        W87719  34.595  20.842  13.134
20937W        W87720  10.031  23.557  14.744
20938W        W87721  32.850  43.961   4.643
20939W        W87722  27.574  34.447   2.883
20940W        W87723   5.832  37.609  13.712
20941W        W87724  17.387  36.957   3.780
20942W        W87725   3.035  19.589   3.130
20943W        W87726  13.028   3.344   1.913
20944W        W87727  35.625  21.307   2.545
20945W        W87728   2.970  10.605  14.456
20946W        W87729  44.197  29.004  13.151
20947W        W87730  29.404  21.990  11.151
20948W        W87731  40.364  26.454  12.431
20949W        W87732  14.918  28.126   0.566
20950W        W87733  32.986  12.228  12.982
20951W        W87734  15.754  41.535  14.320
20952W        W87735   7.059  28.660  14.892
20953W        W87736  15.176   1.489  14.310
20954W        W87737  18.771  19.712   1.765
20955W        W87738  30.562  20.233   2.212
20956W        W87739  41.987   7.797  13.836
20957W        W87740  17.203   0.933  11.953
20958W        W87741  11.689  19.114   2.717
20959W        W87742   3.789  28.200   9.886
20960W        W87743   7.228  14.817   3.360
20961W        W87744   7.235   3.468  11.659
20962W        W87745   7.407  41.012   1.220
20963W        W87746  39.832  31.644  11.846
20964W        W87747  18.997  22.032  13.900
20965W        W87748  34.451   6.993   2.237
20966W        W87749  35.519   1.502   2.113
20967W        W87750  31.187  31.865   3.302
20968W        W87751  20.040   5.415  10.549
20969W        W87752   3.564  35.664   3.316
20970W        W87753  13.266  24.726   2.924
20971W        W87754  22.621  33.971   2.685
20972W        W87755  34.949  10.258   0.429
20973W        W87756  27.687  25.266  14.936
20974W        W87757  35.406   1.439   1.077
20975W        W87758  28.011  28.864  13.456
20976W        W87759  15.725  43.766   4.408
20977W        W87760  31.510  14.525  12.145
20978W        W87761  31.401  38.423  11.487
20979W        W87762   9.320  35.383   3.664
20980W        W87763  13.434  21.549   1.172
20981W        W87764  43.564  28.480  13.486
20982W        W87765  10.426  35.391  14.430
20983W        W87766  16.564  20.212   4.924
20984W        W87767  16.000  18.644   3.614
20985W        W87768  16.758   2.811   0.984
20986W        W87769  25.639   0.454  14.323
20987W        W87770   9.601  21.645   3.285
20988W        W87771  15.733  42.038  14.423
20989W        W87772   7.587  28.688   2.861
20990W        W87773  19.837  13.597   4.775
20991W        W87774  19.305  43.929   1.862
20992W        W87775  38.284  38.864  13.504
20993W        W87776  10.415   9.685  12.543
20994W        W87777   7.349  12.838  13.882
20995W        W87778   8.249  33.436   3.089
20996W        W87779  38.598  41.547  11.627
20997W        W87780   3.875  33.968   1.989
20998W        W87781  41.085   4.862   1.207
20999W        W87782  16.962   6.668   2.834
21000W        W87783  29.944  29.551   4.583
21001W        W87784   1.127  15.089   3.676
21002W        W87785  37.004  13.757  14.190
21003W        W87786  19.593  40.388   1.372
21004W        W87787  26.970  23.507  10.009
21005W        W87788  12.900  28.465   3.234
21006W        W87789  43.036  32.549  13.764
21007W        W87790  17.041  14.662   0.468
21008W        W87791  36.352  24.892   2.521
21009W        W87792  31.892   5.897  13.994
21010W        W87793  22.617  33.787   1.784
21011W        W87794  39.355  11.857   0.350
21012W        W87795  29.471  11.069   3.837
21013W        W87796  39.104  13.245  14.867
21014W        W87797  41.811   2.872  11.260
21015W        W87798  23.714  17.562   3.842
21016W        W87799  19.048  35.485   4.223
21017W        W87800  22.251  35.956   3.895
21018W        W87801   7.673  11.254   3.265
21019W        W87802   7.373  35.811  13.899
21020W        W87803  24.685  43.184   4.662
21021W        W87804  19.170  23.181   4.559
21022W        W87805  26.946  16.221  11.717
21023W        W87806  14.238   2.889   2.309
21024W        W87807  42.771  30.860   1.882
21025W        W87808  20.981  25.647   0.399
21026W        W87809  43.676   6.657  12.976
21027W        W87810   7.015  33.058   4.561
21028W        W87811  17.126  23.156  13.796
21029W        W87812  34.263  29.219  12.097
21030W        W87813   3.451  16.261  10.607
21031W        W87814  38.522  44.858  14.865
21032W        W87815   4.610  35.111  11.145
21033W        W87816  44.604  24.019  10.979
21034W        W87817   7.646  18.271   1.745
21035W        W87818  16.494   7.246   2.275
21036W        W87819  13.301  44.357   5.029
21037W        W87820  17.541   9.291  11.403
21038W        W87821   4.801  28.089   0.895
21039W        W87822  11.638  44.221  13.947
21040W        W87823  28.149  26.124   4.524
21041W        W87824  19.728  41.454  14.205
21042W        W87825  34.785   5.979   2.301
21043W        W87826  41.574   6.753   2.307
21044W        W87827  14.797  38.479   4.161
21045W        W87828   7.020  24.755   0.075
21046W        W87829   2.696  15.210   4.158
21047W        W87830  26.608  30.534  14.430
21048W        W87831   3.614  27.214  13.468
21049W        W87832  12.852   7.763   2.388
21050W        W87833   6.847  30.929   0.893
21051W        W87834  37.473  17.132  12.302
21052W        W87835  25.121  24.009  11.732
21053W        W87836   8.810  27.518   2.231
21054W        W87837  28.203  23.194   2.670
21055W        W87838  40.865  39.485   3.798
21056W        W87839   8.412   0.204   1.467
21057W        W87840  23.789   5.677   1.847
21058W        W87841  19.596  44.054  11.584
21059W        W87842  27.961   4.198   3.953
21060W        W87843  35.802  44.782  10.498
21061W        W87844   7.398   2.165  14.882
21062W        W87845  40.061  29.038  10.702
21063W        W87846   2.691  15.649   4.465
21064W        W87847  19.503  38.574  14.977
21065W        W87848   2.406  38.287   4.539
21066W        W87849  15.318  27.554  11.526
21067W        W87850  38.988  10.941   2.484
21068W        W87851  39.483  18.732   4.359
21069W        W87852  42.458  27.151  13.275
21070W        W87853  23.599  14.134   3.248
21071W        W87854  25.715  24.042   4.156
21072W        W87855  18.651  31.404  13.356
21073W        W87856  34.549   9.661  13.358
21074W        W87857   1.924  18.751   3.115
21075W        W87858  22.059   5.942   2.603
21076W        W87859  10.197  21.259  14.939
21077W        W87860  25.741  15.199  13.121
21078W        W87861   8.177  35.323  12.441
21079W        W87862  43.974   6.113   3.237
21080W        W87863  30.139   3.777   1.729
21081W        W87864  34.855  14.333   4.521
21082W        W87865   1.185  12.436   3.930
21083W        W87866  36.829  43.239   2.770
21084W        W87867  26.208  31.039   3.843
21085W        W87868  16.178  36.110  12.009
21086W        W87869  15.544  15.215  14.937
21087W        W87870  16.769  14.063  12.898
21088W        W87871  33.016  31.003  14.405
21089W        W87872   3.312  30.962  12.644
21090W        W87873  34.941  16.663  12.990
21091W        W87874  27.588   9.867  11.309
21092W        W87875   4.246   1.501   3.839
21093W        W87876  15.366  34.700   0.810
21094W        W87877  42.518  33.038   4.651
21095W        W87878  15.558  40.473  13.798
21096W        W87879  30.415   8.945   1.009
21097W        W87880  12.300  41.045  12.929
21098W        W87881  37.070  19.012  14.163
21099W        W87882   3.261  32.583  11.978
21100W        W87883  17.236  44.316   2.742
21101W        W87884  40.748  15.354  10.343
21102W        W87885   9.443  22.606   2.437
21103W        W87886  41.009  13.174  14.781
21104W        W87887  40.059  43.402   0.392
21105W        W87888  34.903  21.658  13.390
21106W        W87889   9.199  37.314   1.255
21107W        W87890  23.659  34.968  13.164
21108W        W87891  43.006   3.076  13.578
21109W        W87892  21.975  17.689  14.747
21110W        W87893  28.863  16.232  11.180
21111W        W87894  12.205  38.419   4.769
21112W        W87895  13.315  22.419  11.131
21113W        W87896  23.140  32.156   3.639
21114W        W87897  40.016  17.470  11.588
21115W        W87898   2.819  38.601   3.651
21116W        W87899  19.152  13.939   1.572
21117W        W87900   9.848  43.373  13.936
21118W        W87901  19.085  34.489  11.356
21119W        W87902  43.582   1.693   2.785
21120W        W87903   2.395  13.091   2.754
21121W        W87904  17.020  20.960   1.299
21122W        W87905  14.853  14.627   4.921
21123W        W87906  42.691  31.457   0.937
21124W        W87907  43.392  36.659   1.138
21125W        W87908  13.571  36.520  12.437
21126W        W87909  13.602  36.583   1.724
21127W        W87910   4.945   3.625   3.495
21128W        W87911  26.235  44.328  10.194
21129W        W87912  24.107  35.944  12.853
21130W        W87913  26.505  17.232  14.210
21131W        W87914  37.561  20.325   3.652
21132W        W87915   4.275  32.237  12.465
21133W        W87916  35.316  33.493  14.017
21134W        W87917  23.693  21.268  11.823
21135W        W87918  44.310  44.429   5.360
21136W        W87919  10.314  31.817   4.032
21137W        W87920  33.148   9.311   0.469
21138W        W87921  11.229  18.708   1.417
21139W        W87922   6.647  44.792  12.120
21140W        W87923  20.623  35.998  12.403
21141W        W87924   4.287   6.678  13.534
21142W        W87925  27.955  34.057   1.417
21143W        W87926  29.623  12.724  14.363
21144W        W87927  20.136  24.999  13.515
21145W        W87928  17.299  30.686   4.087
21146W        W87929  15.528  24.186   0.009
21147W        W87930   3.631  21.298   4.617
21148W        W87931  13.738  28.501  10.500
21149W        W87932  41.608  29.893   2.710
21150W        W87933  41.969  27.537   4.624
21151W        W87934   4.797  19.131   2.315
21152W        W87935  17.676  39.332  13.537
21153W        W87936   9.906  29.413   2.741
21154W        W87937  25.395  13.377   2.774
21155W        W87938   2.314  19.898   5.047
21156W        W87939  35.919  40.803  11.171
21157W        W87940  39.033   5.271  13.932
21158W        W87941  22.224  41.598  10.874
21159W        W87942  36.935  41.311   1.717
21160W        W87943  18.087  31.693   0.975
21161W        W87944   3.685  11.884  13.302
21162W        W87945  43.993  29.061  10.677
21163W        W87946  35.103  44.384  13.934
21164W        W87947  21.775  21.494  14.450
21165W        W87948  34.824  20.037  12.526
21166W        W87949  42.792   4.637   4.635
21167W        W87950  26.121  34.044   2.215
21168W        W87951  37.984  18.010   1.142
21169W        W87952  10.810  26.566  10.102
21170W        W87953  12.554  39.995  10.186
21171W        W87954  12.256  18.184   1.613
21172W        W87955  27.684   6.214  14.056
21173W        W87956  12.713  43.898  12.805
21174W        W87957  28.373  38.326   3.623
21175W        W87958  40.686  40.435  12.537
21176W        W87959  34.979  14.578  14.682
21177W        W87960  14.201  22.493  14.172
21178W        W87961  13.303  35.142   2.384
21179W        W87962  33.094  25.457   3.722
21180W        W87963  43.210  40.513  11.509
21181W        W87964   2.718   4.155  13.383
21182W        W87965   6.940  16.210  14.912
21183W        W87966  44.041   2.504  11.915
21184W        W87967   5.934  19.519  13.913
21185W        W87968  20.794  33.397  14.371
21186W        W87969  39.055   6.770   4.266
21187W        W87970  18.316  14.616  14.900
21188W        W87971  18.195  42.140  12.038
21189W        W87972  25.630   6.979   2.291
21190W        W87973  21.588  43.497   0.448
21191W        W87974   8.844  32.877   3.660
21192W        W87975  16.350   5.754  11.215
21193W        W87976  41.097  25.634   2.868
21194W        W87977  25.272  28.067  12.007
21195W        W87978   4.896  25.026   2.074
21196W        W87979  41.102  28.243  13.314
21197W        W87980  23.423   0.361   0.122
21198W        W87981   0.891  16.310  11.398
21199W        W87982  24.720  41.515   2.354
21200W        W87983  17.801   5.648  11.460
21201W        W87984  22.440  26.518  14.377
21202W        W87985  44.421   9.554  13.368
21203W        W87986  29.068  29.627  11.297
21204W        W87987  32.407   5.461   0.240
21205W        W87988  34.801  35.407   4.751
21206W        W87989  20.862  35.855   2.436
21207W        W87990   5.235  20.844   0.968
21208W        W87991  13.254  12.295   2.855
21209W        W87992  14.321  23.242   1.102
21210W        W87993  10.805   2.128  13.211
21211W        W87994  11.548   6.340   1.167
21212W        W87995  11.462  15.397   4.089
21213W        W87996   3.213   0.329  11.096
21214W        W87997   9.800  35.956  12.829
21215W        W87998  42.005  39.505   4.596
21216W        W87999   1.351  34.294   0.865
21217W        W88000  28.859  33.170   4.172
21218W        W88001  42.396  30.854   3.180
21219W        W88002   3.736  16.300  11.384
21220W        W88003  37.463   0.453   3.291
21221W        W88004  41.426  40.981  13.253
21222W        W88005   9.239  29.011  11.200
21223W        W88006  16.842  13.042  13.085
21224W        W88007  10.754  44.449  11.671
21225W        W88008  30.547  37.282   2.366
21226W        W88009  28.897   6.759  12.520
21227W        W88010   5.320  42.419  12.009
21228W        W88011  30.917  26.487  13.474
21229W        W88012  43.673  17.272   5.316
21230W        W88013  16.258  29.876  13.880
21231W        W88014   6.939  22.202  12.600
21232W        W88015  15.091  37.249  14.863
21233W        W88016  17.753  31.883  12.030
21234W        W88017   4.886  22.579  14.948
21235W        W88018  43.379   0.771   3.832
21236W        W88019  41.766  35.485  14.514
21237W        W88020  41.573   4.950   4.140
21238W        W88021  24.302  24.217   5.437
21239W        W88022  38.526   5.080   4.738
21240W        W88023  13.650  26.216   1.706
21241W        W88024  25.554  30.119   0.319
21242W        W88025  22.536   6.444   0.285
21243W        W88026  18.544  37.160   1.064
21244W        W88027   6.398  42.369  11.013
21245W        W88028  22.166  10.680  14.431
21246W        W88029   7.742  10.561  13.315
21247W        W88030  37.859  22.024  11.952
21248W        W88031  20.012  38.415  13.513
21249W        W88032  40.158  44.418   0.757
21250W        W88033  30.859  41.822  14.857
21251W        W88034  12.039  36.374  11.123
21252W        W88035  23.774   1.859   4.551
21253W        W88036   8.151  31.448   0.313
21254W        W88037   4.692  22.801   0.402
21255W        W88038   6.174  35.515   3.064
21256W        W88039  42.462  13.495  10.877
21257W        W88040  28.755  29.682   2.760
21258W        W88041  24.725   2.751   3.154
21259W        W88042  36.858   8.365   3.132
21260W        W88043  13.984  20.507   2.804
21261W        W88044  29.999  26.453   0.234
21262W        W88045   5.643  33.389   2.511
21263W        W88046   2.782  10.524  13.610
21264W        W88047   4.694  35.117   4.695
21265W        W88048  12.206  29.073   3.579
21266W        W88049  37.983  41.991   2.310
21267W        W88050  33.777   8.208  11.564
21268W        W88051   3.364  21.061  11.701
21269W        W88052   5.137  31.176  11.483
21270W        W88053  20.843   9.592  12.573
21271W        W88054  24.156  16.341  12.475
21272W        W88055  16.837  30.214  13.752
21273W        W88056   9.058  41.033   2.248
21274W        W88057  13.226  13.227   2.566
21275W        W88058  35.595   9.792   2.975
21276W        W88059  28.952  18.509  11.559
21277W        W88060  36.544  25.584   1.165
21278W        W88061  40.318  39.780   3.743
21279W        W88062  41.019  15.438   4.749
21280W        W88063  13.369  12.706   4.454
21281W        W88064  43.720  24.529   1.913
21282W        W88065  24.869  14.117  13.394
21283W        W88066  26.529  15.082  10.872
21284W        W88067  24.563  31.873   2.426
21285W        W88068  33.896  23.495   0.392
21286W        W88069   7.079   3.852   2.407
21287W        W88070  11.265   0.307   1.250
21288W        W88071  37.175  27.057   2.264
21289W        W88072  43.325  41.545  12.444
21290W        W88073   1.274  17.153   4.540
21291W        W88074  22.478  18.215   2.298
21292W        W88075  24.100  29.330  11.377
21293W        W88076  32.087  17.864   5.241
21294W        W88077  22.770  34.043  10.635
21295W        W88078  27.525  33.374  10.823
21296W        W88079  20.156  34.044   3.750
21297W        W88080  42.848  26.421   2.595
21298W        W88081  42.834  43.755  11.504
21299W        W88082  15.063  27.741  12.858
21300W        W88083   0.066  42.493  12.500
21301W        W88084  20.372   2.698   5.505
21302W        W88085  41.021   2.038   1.466
21303W        W88086   3.039  21.608  12.113
21304W        W88087  31.649  34.955   4.392
21305W        W88088  32.071   9.416   0.456
21306W        W88089  18.986   7.137   0.474
21307W        W88090  27.607  23.279  10.584
21308W        W88091  33.602  33.197   1.180
21309W        W88092   6.257  38.726   2.570
21310W        W88093  13.066  24.178  11.652
21311W        W88094  21.213  27.756   2.277
21312W        W88095   5.432  21.222  13.798
21313W        W88096  12.884  21.985   1.452
21314W        W88097   7.722   5.348  14.458
21315W        W88098  23.505  40.546   1.635
21316W        W88099   2.945  38.500  14.880
21317W        W88100  32.665  26.346   0.023
21318W        W88101  33.807   4.739  14.028
21319W        W88102  19.811  35.873   3.671
21320W        W88103   5.473  41.387   4.346
21321W        W88104   8.333  35.129   0.574
21322W        W88105  24.060  16.493   3.311
21323W        W88106  40.547  37.587   0.913
21324W        W88107  25.973  37.101  13.390
21325W        W88108  15.529  13.683   4.588
21326W        W88109   5.906  20.734  14.991
21327W        W88110  23.599  22.293   0.457
21328W        W88111   0.477  19.777   3.289
21329W        W88112  35.949   8.247  13.913
21330W        W88113  27.614  37.858   3.611
21331W        W88114  28.172  39.348   2.835
21332W        W88115  28.829  19.775   4.058
21333W        W88116  42.817   3.424   1.825
21334W        W88117  20.973  38.093   0.820
21335W        W88118  39.552  11.248  12.082
21336W        W88119   2.193  13.932   0.894
21337W        W88120   0.063   6.841  12.911
21338W        W88121   1.027   7.459  13.070
21339W        W88122  22.490   6.843   1.132
21340W        W88123  21.600  11.288  11.006
21341W        W88124  12.076   8.390  14.914
21342W        W88125  40.547  17.627  12.359
21343W        W88126  42.731   7.656  12.807
21344W        W88127  34.572  23.601   4.654
21345W        W88128  39.937  11.727   4.087
21346W        W88129  35.263  36.646  12.827
21347W        W88130  14.148  33.544   2.850
21348W        W88131  24.270  31.040   3.346
21349W        W88132  21.290  18.270  13.922
21350W        W88133   3.324  39.416   2.216
21351W        W88134  14.144  22.008  11.278
21352W        W88135  23.449  10.782   1.776
21353W        W88136  16.748  11.580   4.071
21354W        W88137  39.344  26.578  12.362
21355W        W88138   7.310  40.410   3.256
21356W        W88139   2.844   5.346   4.371
21357W        W88140   3.940   7.171  11.590
21358W        W88141   5.827  30.103  14.278
21359W        W88142  14.827  26.606   1.346
21360W        W88143  31.585   6.918   3.289
21361W        W88144  37.028  42.865   4.268
21362W        W88145  27.410   7.063   0.496
21363W        W88146  44.986  17.646   2.173
21364W        W88147  38.471  23.679  14.567
21365W        W88148  38.027  34.995   0.892
21366W        W88149   4.789  31.878   3.657
21367W        W88150  15.802  33.025   4.507
21368W        W88151  13.027  32.939  11.075
21369W        W88152  37.602  37.454  13.156
21370W        W88153  37.856  33.077   4.090
21371W        W88154  22.316   0.661  10.190
21372W        W88155   7.266  22.971  14.927
21373W        W88156   9.906  10.595  13.048
21374W        W88157  30.699  10.415  14.425
21375W        W88158  13.587  19.131   4.195
21376W        W88159  20.015  38.785  14.903
21377W        W88160   4.752  34.723   2.931
21378W        W88161  28.500  31.725   0.484
21379W        W88162   2.836  42.274   2.378
21380W        W88163  31.616   7.234   0.762
21381W        W88164  37.087   8.813   3.260
21382W        W88165  23.382  37.742   4.889
21383W        W88166  33.550  15.727  14.785
21384W        W88167   6.957  35.961   0.819
21385W        W88168  13.360  34.789  14.134
21386W        W88169  34.571  42.400   2.781
21387W        W88170   6.641   2.590  13.038
21388W        W88171   0.793  12.184   3.704
21389W        W88172  26.208  28.515  11.825
21390W        W88173  16.607  13.697  10.407
21391W        W88174  24.437  12.111  13.365
21392W        W88175  17.121   7.826  11.668
21393W        W88176  23.248   5.224   3.618
21394W        W88177  11.561  39.720   0.433
21395W        W88178   6.146  33.320   2.287
21396W        W88179  22.718  11.922  10.048
21397W        W88180  15.728  40.750   0.929
21398W        W88181   2.592   7.243  12.081
21399W        W88182   1.220  44.934  12.953
21400W        W88183  12.576  38.901  13.904
21401W        W88184  32.159   7.300   2.549
21402W        W88185  32.859  44.323  12.449
21403W        W88186  18.219  13.210   1.789
21404W        W88187  38.347  36.499  14.452
21405W        W88188  31.584  41.269  13.516
21406W        W88189  36.789   0.758   0.442
21407W        W88190  38.428   1.944   3.571
21408W        W88191  15.038   7.255  11.935
21409W        W88192  36.589   0.330   2.223
21410W        W88193  31.484  44.791   0.772
21411W        W88194  44.249  11.639   3.325
21412W        W88195  27.729  34.491  11.740
21413W        W88196   3.424  14.057  12.854
21414W        W88197   4.973  40.977   3.713
21415W        W88198  26.585   6.311  14.779
21416W        W88199  35.839   9.586   1.147
21417W        W88200   2.383  40.192  12.061
21418W        W88201  20.272  22.816  11.673
21419W        W88202   0.278  27.046  13.412
21420W        W88203  28.941  13.219   3.996
21421W        W88204  13.290  13.680  13.806
21422W        W88205  32.725  37.878  12.651
21423W        W88206  38.818  26.570  12.385
21424W        W88207  31.718  38.839  14.977
21425W        W88208  24.281  42.794   2.871
21426W        W88209  35.036  20.502  12.440
21427W        W88210  11.671   4.450   3.746
21428W        W88211  13.486  18.703   3.941
21429W        W88212  30.578  30.089   2.660
21430W        W88213  11.239  30.640   1.781
21431W        W88214  27.657  35.485  14.930
21432W        W88215  28.809  38.223   2.507
21433W        W88216  13.931   5.470  10.798
21434W        W88217  12.531  17.724  13.870
21435W        W88218  25.482  39.085  12.388
21436W        W88219  20.154  31.699  10.340
21437W        W88220  19.024  37.995  12.536
21438W        W88221  27.135  26.640  13.051
21439W        W88222  32.956  44.093   3.762
21440W        W88223   4.300   9.359   1.324
21441W        W88224  28.981   4.537   4.356
21442W        W88225   9.946  37.437   0.289
21443W        W88226  34.086  38.804   3.749
21444W        W88227  43.896  11.135  11.219
21445W        W88228   7.716  24.206   1.694
21446W        W88229  40.369  25.595   1.686
21447W        W88230  39.484   7.689   2.369
21448W        W88231   2.993  21.176   3.740
21449W        W88232  36.851  39.061  11.474
21450W        W88233  18.284  16.832   4.675
21451W        W88234  40.795  28.417  13.687
21452W        W88235   8.681  31.757  14.552
21453W        W88236  29.949  38.746   3.320
21454W        W88237  20.169  21.589  14.369
21455W        W88238  41.260  21.092   2.770
21456W        W88239  36.963  14.746  14.227
21457W        W88240  13.523  31.693   3.798
21458W        W88241  21.193  14.709   1.717
21459W        W88242  20.752  44.007  10.519
21460W        W88243  17.652  24.981  13.063
21461W        W88244  36.420   8.364   1.295
21462W        W88245  17.175  11.188  13.969
21463W        W88246  25.448  42.589  13.774
21464W        W88247  23.095  21.262   1.916
21465W        W88248  42.324   7.087   3.714
21466W        W88249  19.769  22.517   1.956
21467W        W88250   4.878  43.825  12.212
21468W        W88251  31.637  20.047  10.359
21469W        W88252   9.220  30.619  12.600
21470W        W88253  18.676  28.905  11.575
21471W        W88254  17.476  13.416   2.819
21472W        W88255  32.044  16.079   4.334
21473W        W88256   7.779   9.173   3.006
21474W        W88257  26.620   8.256   1.068
21475W        W88258  14.886   2.911   0.858
21476W        W88259  39.049  39.969  11.425
21477W        W88260   5.216  27.068   3.902
21478W        W88261  26.698  30.428  13.572
21479W        W88262   0.311  13.173  11.015
21480W        W88263   0.857  35.278  14.510
21481W        W88264  21.613  28.667  11.692
21482W        W88265  12.298  39.549   4.111
21483W        W88266  26.497  22.666  11.506
21484W        W88267   5.416   9.740   1.752
21485W        W88268  16.362   4.369  11.146
21486W        W88269  41.214  41.347  12.428
21487W        W88270  17.256  37.987   0.137
21488W        W88271   0.221  19.679   1.858
21489W        W88272  35.531  19.633   1.178
21490W        W88273   5.637  38.449   1.762
21491W        W88274  14.855  21.151  13.980
21492W        W88275  34.493   2.025  13.397
21493W        W88276  37.735   2.318  13.954
21494W        W88277  11.465  37.815  10.990
21495W        W88278   8.344  29.495   2.678
21496W        W88279   7.234  11.333  13.409
21497W        W88280  11.437  44.321   1.208
21498W        W88281  34.947  37.757  12.775
21499W        W88282  22.207  35.379   2.157
21500W        W88283   6.422   0.274   4.622
21501W        W88284  16.723   9.799  10.624
21502W        W88285  15.174   4.042   4.579
21503W        W88286  24.049  24.269   0.307
21504W        W88287   2.917  44.429   3.070
21505W        W88288   7.711  43.340   3.601
21506W        W88289   8.308  26.416  12.320
21507W        W88290   0.388  27.689   2.105
21508W        W88291   3.202  32.901  12.972
21509W        W88292  38.256  44.845   3.782
21510W        W88293  14.312   0.246   3.994
21511W        W88294  10.265  18.003   2.444
21512W        W88295  22.214   1.862   9.813
21513W        W88296  34.438  23.705   0.443
21514W        W88297  22.494  42.292  14.379
21515W        W88298  26.337   8.141   0.228
21516W        W88299  24.069   3.917  11.390
21517W        W88300  34.844   8.707  14.007
21518W        W88301   5.974  22.836   0.376
21519W        W88302  33.931  16.129   4.087
21520W        W88303   7.195  35.673  11.109
21521W        W88304   8.198   9.192   5.409
21522W        W88305  36.988  40.245   1.749
21523W        W88306  11.458   7.435  13.919
21524W        W88307  13.284  29.141  12.845
21525W        W88308  31.991  36.982  10.623
21526W        W88309  13.751  33.364  11.382
21527W        W88310  26.993   7.835  14.032
21528W        W88311  34.249   7.266  14.696
21529W        W88312  25.659   6.597   1.951
21530W        W88313   7.182   5.006   2.777
21531W        W88314  29.980  34.099   1.934
21532W        W88315  33.053   8.387   0.436
21533W        W88316   2.747   1.715   3.665
21534W        W88317  41.396  31.374  13.975
21535W        W88318  15.338  43.929  13.609
21536W        W88319  22.865  19.511  14.882
21537W        W88320  27.937  26.931   2.745
21538W        W88321  28.069  33.967   0.522
21539W        W88322  19.539   1.987  14.914
21540W        W88323  18.046   0.385   1.877
21541W        W88324  44.315   9.946   3.311
21542W        W88325  39.568  18.752   4.881
21543W        W88326   8.591  27.715  13.983
21544W        W88327  12.378  33.862   1.969
21545W        W88328   4.332   7.988   4.048
21546W        W88329  22.736  26.534  12.314
21547W        W88330   8.245  23.600  12.373
21548W        W88331   2.555   2.021   4.101
21549W        W88332  29.566  28.130   0.998
21550W        W88333  10.760  26.202  11.076
21551W        W88334  34.062  37.971  12.626
21552W        W88335  12.729  17.168   2.437
21553W        W88336  44.852  29.683  11.085
21554W        W88337   6.247  36.246  10.531
21555W        W88338   5.207  19.007  14.000
21556W        W88339   9.223  30.831   4.183
21557W        W88340  40.495  27.690  12.915
21558W        W88341  28.636  30.580  13.844
21559W        W88342   1.162  25.140  13.543
21560W        W88343  37.932  42.046   3.710
21561W        W88344  24.085  40.495   4.206
21562W        W88345  39.060  20.277  13.046
21563W        W88346  24.827  16.428   0.827
21564W        W88347   6.397  30.080   0.616
21565W        W88348  10.090  14.093   0.286
21566W        W88349  17.399  43.816   0.477
21567W        W88350  13.861  35.835  12.132
21568W        W88351  43.517  27.351   1.630
21569W        W88352  40.281  22.727   3.053
21570W        W88353  43.529  11.848  11.203
21571W        W88354   1.843  15.179   0.872
21572W        W88355  35.976  17.113   2.487
21573W        W88356   1.696   4.104  11.123
21574W        W88357  13.948  42.582   4.253
21575W        W88358  22.728  39.573  11.980
21576W        W88359  33.535   0.506   3.899
21577W        W88360  15.259  11.091  13.850
21578W        W88361  28.415   6.194  12.999
21579W        W88362  10.056  33.111  14.444
21580W        W88363  32.606   5.895   1.131
21581W        W88364  29.407  19.735  13.029
21582W        W88365  44.837  33.132   0.530
21583W        W88366  38.104  21.444  13.452
21584W        W88367  16.547  23.295  11.802
21585W        W88368  29.443  35.173   3.744
21586W        W88369  40.825  14.497  11.364
21587W        W88370  33.792   9.932  11.501
21588W        W88371   2.751   8.011   3.387
21589W        W88372  29.403   1.462   4.651
21590W        W88373   3.941  26.043   4.198
21591W        W88374   9.147   0.602  14.894
21592W        W88375  15.812  24.030  11.144
21593W        W88376  20.632   2.750   2.360
21594W        W88377  23.621  38.892   0.786
21595W        W88378  38.520  15.408  14.907
21596W        W88379   9.642  34.876  10.586
21597W        W88380  15.747  20.735   4.394
21598W        W88381  44.076  22.746   0.365
21599W        W88382  13.327  11.220  12.434
21600W        W88383  30.569  36.824  14.714
21601W        W88384  36.545  24.553  10.955
21602W        W88385  23.980  32.135   4.276
21603W        W88386  29.498  16.360   0.403
21604W        W88387  34.504   7.619  14.394
21605W        W88388  18.201  29.678  14.472
21606W        W88389  44.225  20.573   0.075
21607W        W88390  26.439  40.319  14.506
21608W        W88391   4.941  16.578  13.523
21609W        W88392  42.337  33.928   1.887
21610W        W88393   2.949  37.567   2.200
21611W        W88394   5.390   7.277   0.523
21612W        W88395  41.127  38.331  12.105
21613W        W88396  24.365   8.790  12.077
21614W        W88397  44.903  38.143  14.975
21615W        W88398  22.612  15.215   1.426
21616W        W88399  29.437   8.174   2.252
21617W        W88400  28.539  11.774   2.403
21618W        W88401  25.750  27.381  12.095
21619W        W88402  35.569  36.947   0.700
21620W        W88403   4.976  33.412   0.396
21621W        W88404  42.839  33.644  14.489
21622W        W88405  11.304  13.758  14.735
21623W        W88406   1.844  33.400  14.580
21624W        W88407   2.382  43.558  10.590
21625W        W88408  38.989  24.290  14.959
21626W        W88409  21.816  29.991   0.344
21627W        W88410   8.812  43.697   3.138
21628W        W88411  34.631  32.072   0.737
21629W        W88412  13.074  25.130   2.643
21630W        W88413  13.686   6.789  10.655
21631W        W88414  24.351  42.051   2.424
21632W        W88415  39.080   7.695   1.292
21633W        W88416   0.016   7.200   5.020
21634W        W88417  17.575  24.938   3.927
21635W        W88418  25.558  34.793   0.021
21636W        W88419  40.718  43.066  13.920
21637W        W88420  42.560   4.749   4.167
21638W        W88421  19.017  37.378  14.411
21639W        W88422   8.246  10.217   3.897
21640W        W88423  15.977  35.953   4.466
21641W        W88424  13.722  34.674   3.197
21642W        W88425  14.901   0.862  10.884
21643W        W88426  35.958  42.922  11.719
21644W        W88427  19.981  21.037   1.768
21645W        W88428  21.265  30.914  13.811
21646W        W88429  35.568  22.742   3.085
21647W        W88430   4.813   8.597  11.115
21648W        W88431   4.158  43.037   4.836
21649W        W88432  30.592  12.203  14.732
21650W        W88433  36.528  41.512   4.074
21651W        W88434   3.652  10.744   2.043
21652W        W88435  31.945  35.379   2.168
21653W        W88436  30.902  10.083  14.819
21654W        W88437  30.962  23.245  13.006
21655W        W88438   3.264  17.431   0.245
21656W        W88439  19.149  15.215   3.670
21657W        W88440  38.095  42.783   1.647
21658W        W88441  19.599  41.109  11.554
21659W        W88442   7.736  16.309  13.007
21660W        W88443  35.946  33.139  14.718
21661W        W88444  12.164   0.345   2.904
21662W        W88445  16.322  32.588   1.725
21663W        W88446  10.820  42.394   2.283
21664W        W88447  11.909  27.387   0.319
21665W        W88448  29.976  14.733  12.828
21666W        W88449  21.113   8.142  13.857
21667W        W88450  12.088  33.965  14.367
21668W        W88451  14.462   1.042   4.993
21669W        W88452   9.432  35.477  10.711
21670W        W88453  10.073   5.259  13.571
21671W        W88454   1.793   7.743  13.907
21672W        W88455   6.806   7.150  13.792
21673W        W88456  32.990  18.636   1.820
21674W        W88457  20.842  32.191   2.616
21675W        W88458  20.192   5.615  14.457
21676W        W88459  37.588  14.715   5.003
21677W        W88460  14.202  28.121  14.602
21678W        W88461   9.185  40.530   3.201
21679W        W88462  16.529  34.818  13.584
21680W        W88463  24.681  11.576  12.318
21681W        W88464  23.513  43.276  12.612
21682W        W88465  40.299  37.840   3.714
21683W        W88466   0.421  40.829   1.629
21684W        W88467  22.820  44.101  11.619
21685W        W88468  29.715  14.748  10.698
21686W        W88469  15.774  17.079  12.446
21687W        W88470   6.941  28.756   3.337
21688W        W88471   4.254   2.790  14.559
21689W        W88472   2.386  25.883  13.977
21690W        W88473  11.842  26.627   2.760
21691W        W88474  35.861  15.044  11.969
21692W        W88475   6.749  24.907  10.739
21693W        W88476  17.620   7.883   1.787
21694W        W88477  19.784  34.240  13.585
21695W        W88478  13.238  43.169  12.460
21696W        W88479  28.096   5.972  11.111
21697W        W88480   8.123  38.058  11.985
21698W        W88481  40.247  13.535   3.797
21699W        W88482  35.599   6.688  11.622
21700W        W88483  40.131   4.344   2.714
21701W        W88484  36.619  18.673   1.003
21702W        W88485  43.194  19.757   0.519
21703W        W88486  40.962  14.706  14.952
21704W        W88487  42.842  37.877  14.762
21705W        W88488  18.398  20.929   5.198
21706W        W88489   6.314  28.726  11.145
21707W        W88490  14.184  15.090  13.478
21708W        W88491  27.659  10.092  14.742
21709W        W88492  36.155   2.429   3.744
21710W        W88493  32.813  43.916  13.443
21711W        W88494  21.276  31.106   4.805
21712W        W88495   2.147  28.484  12.298
21713W        W88496   1.166   7.133  14.958
21714W        W88497  37.661  27.760   4.219
21715W        W88498   6.502  27.350   3.987
21716W        W88499  13.356  14.771   3.708
21717W        W88500  24.115  39.354   1.259
21718W        W88501   7.850  44.997   0.726
21719W        W88502  38.795   2.857   1.457
21720W        W88503  17.566  28.554  11.991
21721W        W88504  33.454  20.902  12.205
21722W        W88505  19.268  27.197  14.306
21723W        W88506   6.624  27.114   1.765
21724W        W88507  20.326   0.512  10.742
21725W        W88508  38.555  12.764  10.640
21726W        W88509   4.423  16.345   1.766
21727W        W88510  44.795  24.176  13.881
21728W        W88511  23.047  27.973  13.356
21729W        W88512  34.937   1.141  12.506
21730W        W88513  23.708  36.334  10.709
21731W        W88514   1.799   6.668  11.196
21732W        W88515  22.114  42.931   0.514
21733W        W88516  42.437  14.110   0.221
21734W        W88517   7.371  21.676  14.394
21735W        W88518  24.960  37.999   3.192
21736W        W88519   3.045  44.396  13.946
21737W        W88520  27.276  28.076  11.993
21738W        W88521  15.838  13.841   0.795
21739W        W88522  19.419  36.467  11.528
21740W        W88523  40.521  27.858   0.827
21741W        W88524  11.310  41.894   3.683
21742W        W88525  41.206  21.536  13.795
21743W        W88526  36.256  29.311  13.021
21744W        W88527  22.639  14.696  11.431
21745W        W88528  32.077   5.489   2.230
21746W        W88529  32.996   7.342   1.402
21747W        W88530  33.201  17.399   3.163
21748W        W88531   6.767  18.711   3.423
21749W        W88532  26.684   5.926  13.933
21750W        W88533  38.648   4.414  14.715
21751W        W88534   1.762  37.439  14.011
21752W        W88535  26.697  44.903   4.233
21753W        W88536  34.626   4.296  13.280
21754W        W88537   9.356  27.432   2.192
21755W        W88538  42.270  37.085   1.233
21756W        W88539  29.511  11.361  14.723
21757W        W88540  10.878  15.278  12.134
21758W        W88541  11.186  25.617   3.662
21759W        W88542  26.868   6.439  10.724
21760W        W88543  25.136  39.987   0.932
21761W        W88544  30.010   0.015   0.316
21762W        W88545   1.203  43.444   4.997
21763W        W88546   7.365  37.879   4.204
21764W        W88547  28.439  39.418  13.777
21765W        W88548  27.436  16.101  11.850
21766W        W88549  39.498  35.528  14.937
21767W        W88550  40.509  15.915  11.273
21768W        W88551  11.840   8.940  14.304
21769W        W88552  22.774  30.636  12.941
21770W        W88553   7.268   5.923  12.850
21771W        W88554  15.306  34.511   1.680
21772W        W88555  35.345  13.893   4.175
21773W        W88556  26.148  18.742   0.407
21774W        W88557  39.110  15.601  10.252
21775W        W88558   4.697  40.713  13.845
21776W        W88559  12.461  34.975  13.785
21777W        W88560  40.331  23.240  14.861
21778W        W88561  29.554  14.919   4.529
21779W        W88562  29.442  38.366   4.365
21780W        W88563  32.907  35.350   0.479
21781W        W88564  41.949   6.486   1.586
21782W        W88565  25.701   9.504  12.085
21783W        W88566  26.064  44.045  11.155
21784W        W88567  24.716  26.470   3.254
21785W        W88568  33.799  18.634   1.296
21786W        W88569  12.781  14.867   2.850
21787W        W88570  16.704   9.354   1.784
21788W        W88571   0.663  19.090  11.304
21789W        W88572   4.188  25.570  14.211
21790W        W88573   2.026   0.844  11.499
21791W        W88574  10.731  20.205   3.294
21792W        W88575   4.409  26.363  13.827
21793W        W88576  42.725  28.039   2.250
21794W        W88577  30.429   9.257  12.099
21795W        W88578  39.079   4.815   2.307
21796W        W88579   4.415  39.535   2.241
21797W        W88580   5.659  29.899  10.647
21798W        W88581  20.291  32.164  11.276
21799W        W88582   4.914   3.929   4.025
21800W        W88583  31.823  19.126   0.954
21801W        W88584  27.903   2.761  13.126
21802W        W88585  14.127  24.052   2.291
21803W        W88586   0.828  26.411  14.417
21804W        W88587  18.044  37.071   4.722
21805W        W88588  15.832  16.668  11.841
21806W        W88589  33.393  34.939  10.731
21807W        W88590  39.722  43.487  13.113
21808W        W88591  20.474  23.095  13.936
21809W        W88592  11.743  26.221  11.458
21810W        W88593   2.026  44.954  10.657
21811W        W88594  33.080  17.522  14.601
21812W        W88595  24.733   0.975   0.978
21813W        W88596  22.975  16.194  10.836
21814W        W88597  43.409   3.236   3.595
21815W        W88598  24.829  22.787  11.744
21816W        W88599  22.500  13.047  10.517
21817W        W88600   0.539  36.605   3.390
21818W        W88601  30.883  24.047  12.066
21819W        W88602  12.533   3.934  12.525
21820W        W88603   7.515   8.413   3.851
21821W        W88604  33.947  35.945   0.709
21822W        W88605  29.582   1.764  13.288
21823W        W88606   2.280  36.598  14.130
21824W        W88607   6.445  36.035   0.864
21825W        W88608  25.897  43.393   1.301
21826W        W88609  41.047  12.778   0.390
21827W        W88610  39.351  21.045  14.418
21828W        W88611  14.578  23.018   2.554
21829W        W88612   9.644   1.387   0.821
21830W        W88613  41.000   9.571   1.394
21831W        W88614   7.810   1.392  11.252
21832W        W88615  35.575  41.996  11.957
21833W        W88616  16.471  13.203   2.849
21834W        W88617  22.683  18.775   4.029
21835W        W88618  14.224  31.176   0.826
21836W        W88619  17.277   0.891   3.724
21837W        W88620  12.628  34.035  14.198
21838W        W88621   1.907  20.196  11.710
21839W        W88622   1.490   3.821   0.800
21840W        W88623  40.902  16.263  14.955
21841W        W88624  23.867  44.465  10.032
21842W        W88625   8.397   0.546  13.887
21843W        W88626   3.052  30.154   4.072
21844W        W88627  12.383  32.876  14.036
21845W        W88628  34.603  41.180  14.867
21846W        W88629  14.754  40.020   1.691
21847W        W88630  27.947  13.490  11.061
21848W        W88631   8.217   1.362  14.445
21849W        W88632  40.698  17.468  11.908
21850W        W88633  20.040   5.435   0.484
21851W        W88634  41.725  35.825  12.020
21852W        W88635   3.470  18.113   2.805
21853W        W88636  14.635  37.093  11.737
21854W        W88637  12.717  21.230   2.899
21855W        W88638   1.470  30.184   3.599
21856W        W88639  18.746  16.141   4.094
21857W        W88640   6.854   8.335   1.518
21858W        W88641  14.233   5.059  10.760
21859W        W88642  34.092  10.792  10.024
21860W        W88643  44.576  22.709   0.440
21861W        W88644  30.088  20.633   0.883
21862W        W88645  44.948   7.660   1.310
21863W        W88646   2.757  38.849   1.818
21864W        W88647  42.508  39.562   1.236
21865W        W88648  29.432  19.721   2.460
21866W        W88649   5.327  19.875  13.210
21867W        W88650  33.353  16.243   3.671
21868W        W88651  13.461  10.201  14.984
21869W        W88652  33.087   7.160  13.277
21870W        W88653  33.340  17.765  13.260
21871W        W88654   8.681  27.246   3.934
21872W        W88655  13.914   4.012  11.464
21873W        W88656  11.944  20.971   3.255
21874W        W88657  39.396   7.366  11.560
21875W        W88658  43.373   1.025   3.376
21876W        W88659  44.026  32.088  11.241
21877W        W88660  15.523  14.698   1.291
21878W        W88661  28.477  33.751   3.810
21879W        W88662  21.730  42.801   0.812
21880W        W88663  22.763  19.152   4.751
21881W        W88664  23.665   2.391   1.786
21882W        W88665  21.320  35.888  11.552
21883W        W88666  36.845  21.652  12.931
21884W        W88667  36.929  41.810  11.170
21885W        W88668   9.808  32.642   0.746
21886W        W88669  22.199  19.466  11.467
21887W        W88670   9.820  35.025   2.983
21888W        W88671  32.984  22.580  14.904
21889W        W88672  35.963  43.922   3.664
21890W        W88673   2.272  41.420  14.843
21891W        W88674  16.342  16.291   3.309
21892W        W88675  28.204  14.912   3.555
21893W        W88676  23.517  18.503  14.154
21894W        W88677  24.257  37.639  12.213
21895W        W88678  22.397  21.631   3.073
21896W        W88679   5.025  41.794  12.642
21897W        W88680  37.266   7.460  13.965
21898W        W88681  29.389  13.763  12.665
21899W        W88682   8.198  36.501   1.327
21900W        W88683  36.974  17.582  14.745
21901W        W88684  24.094   4.715  13.018
21902W        W88685  27.564   1.180   3.646
21903W        W88686   9.110  36.213   1.405
21904W        W88687   3.992  11.341  13.961
21905W        W88688  39.563  44.467  13.409
21906W        W88689  15.989  27.035  12.589
21907W        W88690  34.720  30.850  12.408
21908W        W88691  29.567   6.905   4.407
21909W        W88692  36.561  30.082   0.711
21910W        W88693   3.897   2.452  13.851
21911W        W88694  26.406  40.822  12.448
21912W        W88695  34.629  18.872  12.905
21913W        W88696  32.094   1.459  11.616
21914W        W88697  36.368  36.409  12.948
21915W        W88698  14.297  15.180   3.883
21916W        W88699  13.297  27.502   1.445
21917W        W88700   4.633   2.173  13.346
21918W        W88701  32.369  44.776   3.695
21919W        W88702  11.223  15.184  12.685
21920W        W88703   4.884  38.007  14.387
21921W        W88704  16.735  31.445  12.817
21922W        W88705  34.970  28.139  14.517
21923W        W88706  14.645  37.999  12.909
21924W        W88707  35.471  25.083   4.087
21925W        W88708  37.826  12.602   0.924
21926W        W88709  26.134  41.985  13.454
21927W        W88710  13.925   4.075  10.633
21928W        W88711  29.927   8.386   3.718
21929W        W88712  18.669  12.854   2.859
21930W        W88713  13.149  35.983  10.583
21931W        W88714  43.225  16.484   4.171
21932W        W88715  12.413  38.232   1.844
21933W        W88716  20.937  28.898  13.112
21934W        W88717  24.435  21.160   3.249
21935W        W88718  41.913  33.463  12.379
21936W        W88719  20.343  28.755   1.005
21937W        W88720  18.126  22.736   0.055
21938W        W88721  16.063   0.615  11.538
21939W        W88722   1.594  31.846  12.557
21940W        W88723  37.829   6.811  13.464
21941W        W88724  22.689  16.592  11.618
21942W        W88725  12.732  27.454  14.294
21943W        W88726   3.113  38.222  11.281
21944W        W88727   1.694  20.849  11.134
21945W        W88728   3.719  31.573   1.941
21946W        W88729  18.025  12.148   3.162
21947W        W88730  13.629  41.418   3.726
21948W        W88731  31.146   7.964  14.323
21949W        W88732  17.677   1.862  11.458
21950W        W88733  20.966  32.369   0.752
21951W        W88734  33.508   7.685  10.660
21952W        W88735  19.143  32.400   0.869
21953W        W88736  30.409  11.228  10.849
21954W        W88737  38.501  19.240   0.754
21955W        W88738  44.657   1.220  11.680
21956W        W88739  27.101   9.125  12.021
21957W        W88740  19.132  40.390  13.439
21958W        W88741  20.266  15.838   4.063
21959W        W88742  31.408   4.433   1.793
21960W        W88743   1.738  14.028   4.227
21961W        W88744  37.555  28.045  13.308
21962W        W88745  41.701   7.725  12.886
21963W        W88746   6.858  26.327  12.983
21964W        W88747  36.437  19.734   3.386
21965W        W88748  18.508  41.035  13.912
21966W        W88749  17.466  42.683   5.186
21967W        W88750  29.199  41.263   1.523
21968W        W88751   9.438  26.322   1.772
21969W        W88752  39.857   9.694  14.566
21970W        W88753  17.674   8.528   4.992
21971W        W88754  11.067  39.076  12.150
21972W        W88755  24.177  43.452  14.985
21973W        W88756   9.214  11.260   3.979
21974W        W88757  29.079  42.741  10.403
21975W        W88758   5.154   5.159   2.155
21976W        W88759  29.183  40.585  12.520
21977W        W88760  34.748  26.222  13.941
21978W        W88761   6.054  26.216  11.404
21979W        W88762   0.463   5.767   2.847
21980W        W88763  28.251  23.084  13.544
21981W        W88764  19.510   2.817  10.236
21982W        W88765  18.210  30.012   0.715
21983W        W88766   0.966  36.436   3.646
21984W        W88767  11.413  11.858   4.597
21985W        W88768  24.552  12.616  10.654
21986W        W88769  39.477  36.406  11.608
21987W        W88770  10.317  15.154   1.650
21988W        W88771  12.329  23.326   2.664
21989W        W88772  37.406  20.144   1.737
21990W        W88773  34.528  11.389  14.237
21991W        W88774  29.002  33.818  12.566
21992W        W88775  33.601  37.913  12.318
21993W        W88776   8.215  29.246  12.102
21994W        W88777  10.223   4.221   4.741
21995W        W88778  21.592  17.390   1.163
21996W        W88779   1.520   8.569  10.274
21997W        W88780  27.068  42.963   2.229
21998W        W88781  27.692  28.803  13.863
21999W        W88782  18.251  17.824   0.847
22000W        W88783  22.794  12.894  11.475
22001W        W88784  20.497  18.012   3.251
22002W        W88785  10.821  39.535  14.030
22003W        W88786  22.038  24.186   2.705
22004W        W88787  17.684  19.784   2.451
22005W        W88788  19.169  11.217   2.923
22006W        W88789  27.774  22.953   0.867
22007W        W88790  17.108  25.170   1.772
22008W        W88791  27.010  17.386   1.699
22009W        W88792  43.588  18.905  13.401
22010W        W88793  36.187  25.332  13.949
22011W        W88794  44.495  23.139   3.530
22012W        W88795  31.106   6.277   4.522
22013W        W88796  25.286  34.898   2.873
22014W        W88797   5.754  31.846  10.679
22015W        W88798  32.046  37.254   5.060
22016W        W88799  36.751  10.765   3.302
22017W        W88800   9.728  36.504  11.493
22018W        W88801  42.126   8.191   2.678
22019W        W88802  17.740  29.965  11.628
22020W        W88803   6.819   0.411   3.112
22021W        W88804  40.577  35.847  11.154
22022W        W88805  22.940  27.442  10.959
22023W        W88806  22.206   6.265  12.318
22024W        W88807   8.352  22.731   1.098
22025W        W88808   7.756  20.749   0.441
22026W        W88809  17.226  29.441   3.628
22027W        W88810  41.493   0.275   3.608
22028W        W88811  33.023  30.453  11.603
22029W        W88812  12.233  33.361   3.670
22030W        W88813   3.315  24.568  13.405
22031W        W88814  11.745  17.813  12.087
22032W        W88815   2.355  35.492  11.566
22033W        W88816  42.833  15.398   4.648
22034W        W88817  13.320  23.555   4.517
22035W        W88818  19.548  30.628   4.177
22036W        W88819   6.897   4.769   3.893
22037W        W88820  22.025  24.565  13.396
22038W        W88821  29.094  30.142  12.672
22039W        W88822   4.728  37.462  14.720
22040W        W88823  30.440  19.270  12.597
22041W        W88824   7.749  41.062  12.479
22042W        W88825   1.514  36.084  14.055
22043W        W88826  26.969  29.042  10.652
22044W        W88827  16.110  35.497   4.704
22045W        W88828   1.518  18.246   2.884
22046W        W88829  17.291  12.117  11.535
22047W        W88830  19.122  16.991  11.692
22048W        W88831  13.580   2.177  12.327
22049W        W88832   9.892  22.648  12.971
22050W        W88833  36.568  43.419  10.579
22051W        W88834  31.633  12.778  10.714
22052W        W88835  24.310  16.723   1.230
22053W        W88836   1.954  41.286   3.799
22054W        W88837  21.683  35.606   4.221
22055W        W88838  31.498  14.097  10.902
22056W        W88839  27.169  25.406  11.522
22057W        W88840  25.712  21.795  12.886
22058W        W88841  38.572   4.716  12.992
22059W        W88842  37.562  38.704   1.799
22060W        W88843  38.906   1.641   1.896
22061W        W88844  25.625  28.762   1.664
22062W        W88845   0.539  11.181  13.516
22063W        W88846  41.333   1.283   4.498
22064W        W88847   6.411  21.035  10.339
22065W        W88848  32.590   3.809   1.811
22066W        W88849   2.683  23.197   4.871
22067W        W88850  37.873  26.596   0.764
22068W        W88851   4.041  41.233   3.668
22069W        W88852  25.003   9.265  11.354
22070W        W88853   0.441  18.094  11.167
22071W        W88854  19.168   1.891  11.235
22072W        W88855   1.933  32.145  10.855
22073W        W88856  37.389  22.349   3.704
22074W        W88857  44.109  34.745  13.474
22075W        W88858  17.047  34.609  12.589
22076W        W88859   5.862   4.520   0.863
22077W        W88860   4.488  23.987   0.863
22078W        W88861   1.400   3.234  14.735
22079W        W88862  40.870  20.782  14.219
22080W        W88863  10.746  25.273   0.335
22081W        W88864  17.161  15.323   2.180
22082W        W88865  32.534  29.020   3.658
22083W        W88866  27.254  14.474   5.011
22084W        W88867  30.152  22.571   4.209
22085W        W88868  30.806  32.533  11.250
22086W        W88869  26.012   3.455  10.644
22087W        W88870  39.988  44.370   4.476
22088W        W88871  27.209  38.594   3.669
22089W        W88872  39.528   5.758  13.825
22090W        W88873  37.475  24.527  13.335
22091W        W88874   6.300  31.155  14.501
22092W        W88875   7.938  16.852  12.036
22093W        W88876  23.717  30.306  14.350
22094W        W88877  44.494   3.485  10.641
22095W        W88878  27.830  13.824   0.277
22096W        W88879  17.029   1.895  14.393
22097W        W88880  35.726  18.069  13.925
22098W        W88881   2.437  17.470  10.039
22099W        W88882  36.490  14.800  14.442
22100W        W88883  10.675  44.560   3.327
22101W        W88884  15.772  39.893  13.160
22102W        W88885  27.449  11.353  14.397
22103W        W88886  37.851   7.021  12.073
22104W        W88887  10.379  22.417   4.077
22105W        W88888   8.483   6.697   1.357
22106W        W88889  18.916  31.901   1.752
22107W        W88890  31.417   6.392   1.204
22108W        W88891   0.473  26.693  12.056
22109W        W88892   9.215  39.472  12.169
22110W        W88893  31.090   7.362   2.819
22111W        W88894  27.241   1.321  13.916
22112W        W88895  20.583  18.454  14.956
22113W        W88896  34.409   0.232  10.813
22114W        W88897  10.374  35.133   3.605
22115W        W88898   7.366  22.940  12.132
22116W        W88899  23.482   5.989  11.331
22117W        W88900  29.316  40.121   0.917
22118W        W88901  17.720  36.701   1.930
22119W        W88902  28.632  43.390   1.717
22120W        W88903  38.245  33.434  14.807
22121W        W88904  21.145  19.116   4.482
22122W        W88905  17.045  41.411   3.369
22123W        W88906  17.393  36.041   1.782
22124W        W88907  15.959  27.123  13.409
22125W        W88908  12.286  38.092   0.936
22126W        W88909  37.498  13.326   3.265
22127W        W88910  29.741   0.890  11.539
22128W        W88911  10.333   4.734   2.906
22129W        W88912  42.262  10.200   4.238
22130W        W88913   1.437  18.502   4.688
22131W        W88914  28.285   7.725   1.181
22132W        W88915  40.464   3.276   5.284
22133W        W88916  38.088  36.274  11.044
22134W        W88917   1.665  32.965  13.751
22135W        W88918  42.865  35.803  13.790
22136W        W88919  19.232   3.726   1.901
22137W        W88920   3.480  16.730   3.174
22138W        W88921   6.388  27.545   1.864
22139W        W88922  41.978  23.694  13.945
22140W        W88923  15.710  18.728   3.181
22141W        W88924  35.595  22.236  12.019
22142W        W88925  25.538  37.492   4.997
22143W        W88926  22.422  35.651   1.747
22144W        W88927  24.228  40.333  14.533
22145W        W88928  26.004  22.664   3.741
22146W        W88929  11.596  17.907  13.806
22147W        W88930  38.548  44.787  10.913
22148W        W88931  16.405  39.831  14.406
22149W        W88932   2.172  33.077  11.214
22150W        W88933   2.891  31.671  10.785
22151W        W88934  41.813  33.564   1.307
22152W        W88935   5.835  42.636   0.893
22153W        W88936  30.876  41.916  12.112
22154W        W88937  12.990  44.794  11.585
22155W        W88938  26.442  38.855  13.531
22156W        W88939   9.196  41.332  11.199
22157W        W88940  21.219  25.682  13.889
22158W        W88941  20.966   9.379   2.289
22159W        W88942  34.950  34.190  11.156
22160W        W88943  21.947  10.312   2.916
22161W        W88944  39.849  30.825   4.552
22162W        W88945  36.095   5.819   4.701
22163W        W88946  43.220   6.245   3.700
22164W        W88947   5.290  32.062  11.561
22165W        W88948  29.929  20.812  10.253
22166W        W88949  41.073  15.294  10.761
22167W        W88950  39.326  25.270   2.298
22168W        W88951  35.352  20.210  11.587
22169W        W88952  20.249  35.394   0.861
22170W        W88953  37.822   3.783   0.542
22171W        W88954  43.774  37.044   3.893
22172W        W88955  19.268  42.118  10.828
22173W        W88956  36.812  11.671   1.771
22174W        W88957  16.792  31.487  13.332
22175W        W88958  17.697  31.626  13.366
22176W        W88959  20.594  38.645   4.589
22177W        W88960   3.202   5.757  13.202
22178W        W88961  11.139  43.367   0.856
22179W        W88962  12.291  31.011  14.843
22180W        W88963  10.361  16.697   2.422
22181W        W88964   3.949  36.227  11.871
22182W        W88965  39.754  33.190  14.838
22183W        W88966  29.607  43.344   1.925
22184W        W88967  13.628  36.025  12.593
22185W        W88968   4.704  41.915  14.481
22186W        W88969  22.813  19.704  14.376
22187W        W88970   3.278  25.498  14.494
22188W        W88971   5.272  22.573   3.695
22189W        W88972  11.372   2.313  12.007
22190W        W88973  43.775  15.235  12.094
22191W        W88974  24.333   5.420  13.920
22192W        W88975  23.491  39.333  11.577
22193W        W88976  39.310   1.254   0.025
22194W        W88977  18.827  42.211  11.683
22195W        W88978  18.010  41.229   1.572
22196W        W88979   6.714   9.873   1.264
22197W        W88980  43.493  12.585   3.787
22198W        W88981   5.322  26.827  13.807
22199W        W88982  32.125  13.275  14.483
22200W        W88983  22.036  27.737   4.541
22201W        W88984   6.451   6.366  14.469
22202W        W88985  35.872  20.280   3.423
22203W        W88986  22.763  44.472  13.803
22204W        W88987   5.664  11.249  14.805
22205W        W88988   4.394  19.729  11.186
22206W        W88989  14.258  44.834   4.341
22207W        W88990  26.474  37.051  14.960
22208W        W88991   1.641  22.846  14.460
22209W        W88992  32.774  28.065   0.448
22210W        W88993  34.433  24.707   1.353
22211W        W88994   9.748  12.296   3.746
22212W        W88995  24.001  20.099   2.601
22213W        W88996  39.396  33.925  12.383
22214W        W88997  17.439  37.842  13.941
22215W        W88998  25.922  20.710  11.548
22216W        W88999   4.780   8.936   4.171
22217W        W89000  37.399   9.644  12.862
22218W        W89001   5.159   8.214   1.775
22219W        W89002   7.409  44.904   1.018
22220W        W89003   3.417  10.179   0.831
22221W        W89004  37.998  20.879   0.404
22222W        W89005   4.246  37.008   1.856
22223W        W89006  43.404   7.957   3.139
22224W        W89007  43.599  27.647   0.938
22225W        W89008  17.440  31.679  14.928
22226W        W89009  19.285  27.666   3.953
22227W        W89010   7.839   8.443   0.258
22228W        W89011   9.143  38.433   1.873
22229W        W89012   1.879  24.596   2.464
22230W        W89013   2.483  32.527   1.028
22231W        W89014  12.454  39.329  11.287
22232W        W89015  16.558   5.010   4.606
22233W        W89016   6.903   0.728   2.347
22234W        W89017  39.671  32.183  13.324
22235W        W89018   2.900  37.509   0.747
22236W        W89019   2.148  13.362  11.091
22237W        W89020  24.838  35.511   1.277
22238W        W89021   0.765   3.254   0.822
22239W        W89022  38.596  36.195  11.015
22240W        W89023  29.229  43.026   4.562
22241W        W89024   1.301  34.686  14.532
22242W        W89025  19.180  21.137  13.082
22243W        W89026   5.150  23.239   2.359
22244W        W89027  11.885   9.953   1.804
22245W        W89028  39.886   6.180   2.831
22246W        W89029  32.610  42.816   0.695
22247W        W89030  20.755  36.335   2.787
22248W        W89031  23.502  24.250   0.289
22249W        W89032  28.141   3.535  14.820
22250W        W89033  32.946  16.090   1.374
22251W        W89034  19.652  28.623   4.625
22252W        W89035   8.847  17.524  14.286
22253W        W89036   4.913   1.844   2.197
22254W        W89037  26.521   0.202  12.427
22255W        W89038  22.495   1.361   1.040
22256W        W89039   4.212  31.863  12.918
22257W        W89040  17.211  12.141  12.872
22258W        W89041  10.339  31.507   2.077
22259W        W89042   2.405  44.307   3.071
22260W        W89043   4.695   6.803  11.943
22261W        W89044  21.225  37.160   1.764
22262W        W89045  37.859  27.012   4.571
22263W        W89046  29.483  36.982   4.317
22264W        W89047  24.263  28.936   2.673
22265W        W89048  12.294   7.434  11.962
22266W        W89049   3.738  27.736   3.921
22267W        W89050  18.879  12.921   3.787
22268W        W89051  19.856  40.379   0.355
22269W        W89052  19.228   3.734   0.970
22270W        W89053  21.307  31.624  13.460
22271W        W89054   4.305  26.157   0.824
22272W        W89055  30.080  22.869   1.879
22273W        W89056  33.413   2.645  14.890
22274W        W89057  24.379  39.538   3.272
22275W        W89058  11.843   8.107  11.174
22276W        W89059   1.294   1.388   4.155
22277W        W89060  21.682  36.654  14.032
22278W        W89061  15.587  30.975   2.921
22279W        W89062   2.519  10.168   0.286
22280W        W89063  38.553   0.719   0.024
22281W        W89064   1.416   7.357  14.545
22282W        W89065  11.668   7.260   1.482
22283W        W89066   6.500  15.145   3.211
22284W        W89067   4.360  31.181  13.657
22285W        W89068  43.216  39.198  11.181
22286W        W89069  13.261  23.515  12.886
22287W        W89070   4.417   4.812  10.670
22288W        W89071   3.956  31.514  13.743
22289W        W89072  34.043   6.782  13.808
22290W        W89073  12.309   3.921  13.396
22291W        W89074  43.752  26.399   1.006
22292W        W89075   0.945  33.967  14.938
22293W        W89076  17.187  36.370   0.121
22294W        W89077   1.281  14.818  10.652
22295W        W89078  32.429  40.866   3.248
22296W        W89079  37.333  42.502   0.871
22297W        W89080  34.096  22.708   1.005
22298W        W89081   0.760  33.112  13.964
22299W        W89082  33.508  14.267   1.227
22300W        W89083  40.379  13.278  12.518
22301W        W89084   5.230  12.607   3.101
22302W        W89085   4.769  13.094   0.183
22303W        W89086  40.812  18.663   2.834
22304W        W89087  41.754  27.912   4.149
22305W        W89088  27.705   1.936  13.053
22306W        W89089  15.558  16.973  10.657
22307W        W89090  12.306  35.930  11.130
22308W        W89091  39.964  29.651   2.537
22309W        W89092   3.871  44.821  10.720
22310W        W89093   9.745   8.971  13.936
22311W        W89094  39.982  15.262   3.401
22312W        W89095   8.792  20.637  10.947
22313W        W89096  28.727  28.449  10.877
22314W        W89097  27.085   5.969  14.888
22315W        W89098  12.903  14.220   0.412
22316W        W89099  30.840  38.433  12.061
22317W        W89100  30.606  30.907  14.298
22318W        W89101  32.765  14.984  13.385
22319W        W89102  17.045  33.084   3.801
22320W        W89103  10.775  27.312  13.548
22321W        W89104  41.524  27.520  10.955
22322W        W89105  15.043  19.504  14.265
22323W        W89106   4.886  44.830   0.454
22324W        W89107   4.761  35.293   4.058
22325W        W89108  38.114  11.246  12.478
22326W        W89109  42.899   8.809   0.323
22327W        W89110  24.003  42.264  12.023
22328W        W89111  38.038  39.759   1.281
22329W        W89112  15.052  30.136   0.679
22330W        W89113  10.467  12.715   0.874
22331W        W89114  30.724  26.358  14.773
22332W        W89115  25.127  11.505  12.029
22333W        W89116  20.344  36.025  13.951
22334W        W89117  39.575  40.649  13.880
22335W        W89118  12.596  42.381  10.657
22336W        W89119   1.356  15.565   2.809
22337W        W89120  39.055  21.645  10.494
22338W        W89121  18.149   4.735   0.806
22339W        W89122  13.267  29.470  14.792
22340W        W89123  40.891  31.967  12.009
22341W        W89124  37.590  31.596   1.387
22342W        W89125  23.086   7.323   4.569
22343W        W89126  24.085  33.396  13.876
22344W        W89127  44.325  37.881  12.526
22345W        W89128  25.787  38.708   4.009
22346W        W89129  30.640   4.537  11.896
22347W        W89130  12.522  12.307  11.683
22348W        W89131  42.558  17.603   2.228
22349W        W89132   0.897  36.703   2.137
22350W        W89133  29.622  42.597  13.281
22351W        W89134   8.315  32.114  11.461
22352W        W89135   9.109   1.513   0.053
22353W        W89136  35.509   5.274   4.539
22354W        W89137   5.189  43.982  11.072
22355W        W89138   6.280   9.176   4.556
22356W        W89139  16.815  19.306  13.020
22357W        W89140  24.599  32.294  11.175
22358W        W89141  41.299  30.517  11.568
22359W        W89142  21.151  11.607   0.229
22360W        W89143   8.347   5.817   1.220
22361W        W89144  44.512   9.846  14.391
22362W        W89145  37.704  39.334   4.054
22363W        W89146  24.331  12.935  14.244
22364W        W89147  38.316   1.183  14.999
22365W        W89148  14.153   5.460  13.877
22366W        W89149  42.934  31.034  14.679
22367W        W89150  22.986  12.086   4.742
22368W        W89151  22.197  23.339   3.685
22369W        W89152  15.039   5.969  12.342
22370W        W89153  23.062  30.200  11.521
22371W        W89154   1.909   4.827   2.844
22372W        W89155  37.597   7.642  11.525
22373W        W89156   9.872  27.058  13.754
22374W        W89157  21.783  18.800   3.279
22375W        W89158  43.471  20.500  11.616
22376W        W89159  40.947  38.282   1.186
22377W        W89160   4.321  31.619  13.382
22378W        W89161   7.706  39.974  11.925
22379W        W89162  23.165  14.292   2.428
22380W        W89163   7.430   3.260   0.939
22381W        W89164  13.527  14.656  14.790
22382W        W89165   9.972  34.602  11.013
22383W        W89166  16.318   1.047  11.473
22384W        W89167  30.535  11.750   1.664
22385W        W89168  19.590  33.494   0.700
22386W        W89169  14.560   4.904  14.505
22387W        W89170  35.159  31.151   0.907
22388W        W89171  32.986  11.082   1.737
22389W        W89172  32.401   5.830   0.661
22390W        W89173  27.069  33.606  11.654
22391W        W89174  25.519  15.402   1.211
22392W        W89175  17.863  20.283  12.036
22393W        W89176  25.203   0.849  11.978
22394W        W89177  15.585  20.436   0.440
22395W        W89178  33.609  15.684   0.339
22396W        W89179  24.414  13.422  14.414
22397W        W89180   4.910  13.156   1.710
22398W        W89181   3.530   3.950   3.766
22399W        W89182   8.200  20.624   4.550
22400W        W89183  16.377  20.100   2.764
22401W        W89184   0.470  17.021   4.035
22402W        W89185  30.129  22.589  13.694
22403W        W89186  25.025  15.116  10.666
22404W        W89187   8.912  37.201  11.579
22405W        W89188   0.968  41.704   4.560
22406W        W89189  11.315  27.008   0.806
22407W        W89190  28.224  32.598   1.711
22408W        W89191  31.262  43.312   3.294
22409W        W89192  37.289  19.988   0.907
22410W        W89193  10.289  23.298  11.533
22411W        W89194   9.009  14.676  11.464
22412W        W89195  39.256  18.611   0.531
22413W        W89196   2.446  13.116   1.232
22414W        W89197  40.364  40.536  12.136
22415W        W89198   3.476  42.462  10.702
22416W        W89199   0.075  25.025   2.852
22417W        W89200  37.324   5.310  10.959
22418W        W89201  19.116  22.829   2.904
22419W        W89202   2.500  41.329  14.373
22420W        W89203  12.233  35.991   4.540
22421W        W89204  13.667  32.836   1.276
22422W        W89205   5.946  13.722  12.928
22423W        W89206  22.004   2.117  13.143
22424W        W89207  31.934  39.640   1.789
22425W        W89208   9.262   0.327  14.377
22426W        W89209  29.776  15.558  14.560
22427W        W89210  35.112   9.718  13.300
22428W        W89211  13.316   4.041  12.096
22429W        W89212   0.821  11.399   0.356
22430W        W89213  22.116  28.200   3.887
22431W        W89214  20.081  17.160   4.212
22432W        W89215  21.698  16.577  13.869
22433W        W89216  37.170   2.430   4.535
22434W        W89217  40.004  24.395   2.874
22435W        W89218  31.732  18.092   4.874
22436W        W89219  28.585  42.907   3.894
22437W        W89220  40.642   1.788   3.749
22438W        W89221  32.129  38.403  10.323
22439W        W89222  40.034  20.216   1.832
22440W        W89223  12.358  43.140  11.272
22441W        W89224  23.923  35.427  13.059
22442W        W89225  22.327  33.422   0.893
22443W        W89226  30.971   9.807  13.338
22444W        W89227   3.165  41.644  11.628
22445W        W89228  23.525  25.955  14.872
22446W        W89229  31.420  34.013  11.538
22447W        W89230  14.171  43.972  10.717
22448W        W89231   6.503  38.556  11.113
22449W        W89232   1.015  29.754   2.673
22450W        W89233   2.856  14.873  12.410
22451W        W89234  21.996  27.668  10.593
22452W        W89235  32.678   2.684  12.395
22453W        W89236  28.237  35.522  12.975
22454W        W89237  25.404  23.653   4.229
22455W        W89238   4.768  36.853  13.937
22456W        W89239  32.574  12.249   3.823
22457W        W89240  41.352  28.876   2.738
22458W        W89241  23.640  10.267  13.846
22459W        W89242  32.977  32.496  14.379
22460W        W89243   6.767  15.188  13.575
22461W        W89244  32.422  42.440  13.299
22462W        W89245  31.278  34.613   2.258
22463W        W89246  32.311  16.593  14.788
22464W        W89247  20.115  27.232  13.084
22465W        W89248  20.809  36.941  11.563
22466W        W89249   4.955  42.812   0.408
22467W        W89250  30.357  20.680   2.405
22468W        W89251  39.044  21.741   1.277
22469W        W89252   8.150  41.193  11.193
22470W        W89253   3.402   0.235  11.964
22471W        W89254  22.684  10.094   3.265
22472W        W89255  39.690  43.466   3.529
22473W        W89256  37.379   6.398  14.409
22474W        W89257  41.904  27.947  12.021
22475W        W89258  18.282   0.365   1.426
22476W        W89259  37.180   6.887   2.405
22477W        W89260   5.714  33.917  11.364
22478W        W89261  19.670  28.358  13.534
22479W        W89262  29.457   8.103   3.840
22480W        W89263  44.021  41.746  11.724
22481W        W89264  32.989  21.937  13.344
22482W        W89265  35.143  17.575   2.345
22483W        W89266   1.281  44.414   4.118
22484W        W89267  42.798  37.367   2.168
22485W        W89268  18.447  22.023  11.424
22486W        W89269  17.248  27.993  14.964
22487W        W89270  33.364  23.972   4.088
22488W        W89271  43.950   6.840  10.457
22489W        W89272  35.623  34.638   4.469
22490W        W89273  35.586  30.014   1.672
22491W        W89274  20.633  24.474   3.304
22492W        W89275  15.114  39.861   1.110
22493W        W89276   3.864  25.278  12.506
22494W        W89277  42.780  41.995   2.934
22495W        W89278   5.924  29.351   1.173
22496W        W89279  41.877  16.965   2.662
22497W        W89280   6.759  11.669   4.273
22498W        W89281   2.696   0.378  11.088
22499W        W89282  28.159  42.405   1.144
22500W        W89283  30.961  32.847   4.285
22501W        W89284  17.330  14.558   1.666
22502W        W89285   7.311   0.512   3.239
22503W        W89286  12.249   1.428  14.764
22504W        W89287  30.946   3.658   1.091
22505W        W89288  19.809  41.774  14.961
22506W        W89289  42.819  20.185  14.720
22507W        W89290  18.598  24.589  13.008
22508W        W89291   9.321  20.356  13.021
22509W        W89292  35.365  30.322   3.329
22510W        W89293  10.883   7.261  11.464
22511W        W89294   4.999  10.253  11.515
22512W        W89295  23.725   9.155   3.416
22513W        W89296  14.615  30.503  10.607
22514W        W89297  20.039   1.854  11.105
22515W        W89298   6.299  44.241   4.216
22516W        W89299  36.065  41.250   1.990
22517W        W89300   1.844  42.507   3.346
22518W        W89301  31.186  40.970  13.397
22519W        W89302   2.227   7.397   2.740
22520W        W89303  39.381  44.925  14.303
22521W        W89304  17.035  40.792   1.468
22522W        W89305   7.458  11.334   4.612
22523W        W89306  18.526  43.496   1.709
22524W        W89307  18.496   4.364  12.491
22525W        W89308  34.378  43.312  14.471
22526W        W89309  38.993  35.411  14.971
22527W        W89310  18.117  42.074   3.708
22528W        W89311  36.047  34.386  11.206
22529W        W89312   6.495   7.304   2.411
22530W        W89313  35.488  36.913  11.835
22531W        W89314  21.106  15.094   4.034
22532W        W89315  44.374  28.971   2.491
22533W        W89316  26.247  29.168   2.757
22534W        W89317   9.953  11.469  12.531
22535W        W89318  41.080  29.283  13.477
22536W        W89319  41.274  12.100   4.678
22537W        W89320  44.180  22.602  11.917
22538W        W89321  30.819  16.419   2.770
22539W        W89322  40.313  16.543  14.250
22540W        W89323  21.467   7.705  12.338
22541W        W89324  20.729   3.699  13.089
22542W        W89325   5.838   2.824   4.929
22543W        W89326  18.211  33.864   3.853
22544W        W89327  12.538   5.770   4.748
22545W        W89328   1.406  17.540   1.851
22546W        W89329  38.457  29.029   2.214
22547W        W89330  38.026  39.408   4.497
22548W        W89331  23.574  21.263   0.385
22549W        W89332  15.875  19.553  12.084
22550W        W89333  24.078   6.479   4.568
22551W        W89334  38.972   0.253   2.930
22552W        W89335  42.831  37.720  12.094
22553W        W89336  36.521  17.276  12.080
22554W        W89337  29.200  30.444   4.230
22555W        W89338  37.822   4.833  10.382
22556W        W89339  20.100  41.296  11.530
22557W        W89340  29.623  20.724  10.654
22558W        W89341   1.488   9.198   4.134
22559W        W89342   0.404  35.522  14.619
22560W        W89343  31.441  23.190   2.219
22561W        W89344   0.635  18.182   3.754
22562W        W89345  18.262  34.561   0.868
22563W        W89346  36.582  13.434   3.412
22564W        W89347  29.385   0.661   0.393
22565W        W89348  29.312   5.894  14.544
22566W        W89349  14.705  39.211  11.082
22567W        W89350  22.045  44.836   4.196
22568W        W89351   2.772  38.994  14.819
22569W        W89352  17.205  44.410   3.671
22570W        W89353  10.524  39.946  12.087
22571W        W89354  44.750  22.734  13.058
22572W        W89355  14.496  39.067  12.274
22573W        W89356  28.668  35.402  14.820
22574W        W89357   7.789  12.182   3.635
22575W        W89358   6.355  24.261  14.920
22576W        W89359   2.246   5.805   2.804
22577W        W89360  38.039  32.669  11.111
22578W        W89361  21.975   9.368   1.405
22579W        W89362  37.855  24.277  14.228
22580W        W89363  29.189   5.211  11.565
22581W        W89364   7.489  27.241  14.977
22582W        W89365  14.368  31.930  12.397
22583W        W89366  39.273  14.297  13.053
22584W        W89367   7.850  21.022  12.435
22585W        W89368  10.601  20.868  13.630
22586W        W89369  28.863  40.609  14.848
22587W        W89370  22.752   7.766  12.903
22588W        W89371   2.541  17.140  13.321
22589W        W89372   7.429  29.959   3.469
22590W        W89373  17.669   8.580  12.622
22591W        W89374   4.691  24.225   0.414
22592W        W89375   0.517  34.360   1.265
22593W        W89376  33.288  19.525   4.190
22594W        W89377  13.822  23.143  11.681
22595W        W89378  35.798  41.856  14.337
22596W        W89379  30.126   5.880   1.254
22597W        W89380   6.662  23.881  10.312
22598W        W89381   4.187  10.338  14.750
22599W        W89382   4.494  33.395  13.990
22600W        W89383  24.045  24.632  11.428
22601W        W89384  43.485  21.688  12.535
22602W        W89385   5.701  30.711   0.820
22603W        W89386  14.737  11.777   4.213
22604W        W89387  30.615   0.798  11.566
22605W        W89388  27.420  31.220  11.602
22606W        W89389  19.879  29.625   1.889
22607W        W89390   7.213  15.711  12.784
22608W        W89391   5.574  14.389  13.514
22609W        W89392  37.312  31.781   2.119
22610W        W89393  29.036  20.817  11.935
22611W        W89394  21.678  44.922   4.811
22612W        W89395  38.750  44.239   2.189
22613W        W89396  16.695  25.490   4.770
22614W        W89397   3.865  23.887  10.788
22615W        W89398  32.098   9.355   1.983
22616W        W89399   9.466  16.971  13.837
22617W        W89400   1.326  27.090   3.163
22618W        W89401  44.915  41.181   0.927
22619W        W89402  31.042  20.010  11.595
22620W        W89403  18.004  13.708   2.405
22621W        W89404  16.518  30.416  12.678
22622W        W89405   3.723   2.779   1.419
22623W        W89406  28.876  39.453  12.024
22624W        W89407  11.740  17.213   2.867
22625W        W89408  21.103  17.536   4.600
22626W        W89409  44.332  31.753  14.877
22627W        W89410  35.506   7.802   0.944
22628W        W89411  22.542  32.482  11.373
22629W        W89412  10.380   0.069   0.886
22630W        W89413  24.250   9.128   0.755
22631W        W89414  25.978  12.143  14.320
22632W        W89415  31.612  16.582   3.198
22633W        W89416  40.982  41.877   1.295
22634W        W89417   2.054  44.476  13.904
22635W        W89418  33.109  20.533   2.191
22636W        W89419  20.043  10.817  14.950
22637W        W89420  24.219  34.228   1.418
22638W        W89421   0.282  22.201  14.383
22639W        W89422  43.618  31.873   3.619
22640W        W89423  13.251  34.103   0.391
22641W        W89424  18.719  23.194  14.522
22642W        W89425  15.660  17.556  13.816
22643W        W89426  18.509  42.043   3.340
22644W        W89427   1.494   6.904   0.409
22645W        W89428  43.162  43.974  12.468
22646W        W89429  16.504  38.143  11.086
22647W        W89430  38.728  17.129  13.920
22648W        W89431  10.627   8.585   3.139
22649W        W89432   6.253  25.060  10.737
22650W        W89433  36.623  24.454  11.448
22651W        W89434  22.471  21.901  12.906
22652W        W89435   4.726  21.042   0.867
22653W        W89436  36.065  22.052   5.024
22654W        W89437  17.131  17.940  13.020
22655W        W89438  29.885  20.359   4.236
22656W        W89439   4.964  16.136   4.444
22657W        W89440  33.029  42.524  13.309
22658W        W89441  16.564   9.438  11.681
22659W        W89442  36.162  21.558  11.039
22660W        W89443  43.587   8.810  12.945
22661W        W89444  13.253  31.064  12.212
22662W        W89445   8.417   4.308  14.235
22663W        W89446  14.871  43.345  10.978
22664W        W89447  21.439  30.921  11.781
22665W        W89448   2.191  15.669   4.823
22666W        W89449  35.486  31.336   3.183
22667W        W89450  37.165   6.511   3.680
22668W        W89451  18.486   3.734  11.451
22669W        W89452  33.576  27.131   0.856
22670W        W89453  31.372   2.425   4.262
22671W        W89454  34.596  26.295  11.376
22672W        W89455  24.258  29.016  12.177
22673W        W89456  12.026  30.755  11.908
22674W        W89457  38.593  27.690  10.534
22675W        W89458  11.705  40.483   4.089
22676W        W89459  27.180  35.566  12.419
22677W        W89460   8.364  30.031   0.674
22678W        W89461  12.123  21.977   1.799
22679W        W89462  21.533  23.638  11.775
22680W        W89463  20.086  31.423   0.961
22681W        W89464  25.550  14.578  13.863
22682W        W89465  14.837  22.072   4.078
22683W        W89466   5.290  31.912   2.871
22684W        W89467   7.708  20.462  10.703
22685W        W89468  19.822  32.185   1.488
22686W        W89469  29.528  38.726   0.742
22687W        W89470  30.615  23.737  10.498
22688W        W89471  10.759  40.307  13.032
22689W        W89472  40.278  27.178  13.962
22690W        W89473   4.374  26.151   2.346
22691W        W89474  22.019  41.769   2.290
22692W        W89475  25.186  24.730  13.427
22693W        W89476  35.561  39.907  14.703
22694W        W89477   1.349  31.357   4.904
22695W        W89478  16.695   9.927  11.805
22696W        W89479  15.651  37.024  11.643
22697W        W89480  14.399  43.077  10.483
22698W        W89481  16.705  29.450  14.454
22699W        W89482  12.305   6.776   3.110
22700W        W89483  39.940  39.440  14.748
22701W        W89484  21.760  33.102   4.280
22702W        W89485  35.390  25.155   4.609
22703W        W89486   8.306  41.918  13.505
22704W        W89487  41.416  41.412  12.926
22705W        W89488  37.647  15.239   4.298
22706W        W89489   8.423  27.447  13.048
22707W        W89490  39.035   0.761   3.030
22708W        W89491   1.931  22.772   3.772
22709W        W89492   1.268  23.564   3.774
22710W        W89493   1.259  11.197  13.963
22711W        W89494  28.643  22.248   4.110
22712W        W89495   0.747  37.174   2.326
22713W        W89496  19.918  10.361  10.281
22714W        W89497  34.146  14.109   1.028
22715W        W89498  12.745   0.212   0.303
22716W        W89499  20.038  18.024   1.610
22717W        W89500  23.376  16.356   2.781
22718W        W89501  42.353  30.132   2.118
22719W        W89502   1.128  30.235  11.417
22720W        W89503  28.167  13.745   2.102
22721W        W89504  18.605  21.566   0.118
22722W        W89505  24.116  28.602  10.768
22723W        W89506   7.858  40.317   3.970
22724W        W89507  44.356  11.226  10.952
22725W        W89508  38.538  14.587  12.446
22726W        W89509  15.796  16.682  14.878
22727W        W89510   1.717  23.821  11.174
22728W        W89511  44.607  16.222  11.670
22729W        W89512  28.573  36.814  14.835
22730W        W89513   0.742  38.862   3.339
22731W        W89514  22.955  12.597  14.394
22732W        W89515   3.672  39.022  11.172
22733W        W89516  39.094  42.365   4.079
22734W        W89517  39.527  23.360   0.071
22735W        W89518  26.050  13.312  11.571
22736W        W89519  28.172   4.814   2.862
22737W        W89520  23.467  15.633  14.958
22738W        W89521  37.068  10.396  14.019
22739W        W89522  31.445  19.627   0.313
22740W        W89523  16.228  21.576  14.994
22741W        W89524   4.669  41.344  12.487
22742W        W89525   3.985  26.401   3.346
22743W        W89526  41.997  43.982   0.401
22744W        W89527  34.906  42.461  11.594
22745W        W89528  34.538   2.928   1.236
22746W        W89529  38.476  43.983   2.669
22747W        W89530  23.023   5.932   1.413
22748W        W89531  32.501  38.440   0.011
22749W        W89532  10.101  38.852   1.991
22750W        W89533   1.178  34.624   0.497
22751W        W89534  36.242   5.233  13.546
22752W        W89535  18.532  41.278   1.652
22753W        W89536  12.299  27.716  14.149
22754W        W89537  31.691  12.388   1.352
22755W        W89538   2.421   6.099  11.550
22756W        W89539  23.362  43.424  11.249
22757W        W89540  11.651  24.339  11.134
22758W        W89541  24.527  19.846   3.601
22759W        W89542  22.261  39.448   2.905
22760W        W89543  29.198  44.330   4.111
22761W        W89544  29.475  26.630   0.258
22762W        W89545  40.552  34.406  11.537
22763W        W89546  19.713  26.046  12.739
22764W        W89547  31.001  13.820   2.943
22765W        W89548  36.049  40.840   0.722
22766W        W89549   9.167  35.135   1.943
22767W        W89550   8.952  10.200  14.320
22768W        W89551   5.942  32.405   0.570
22769W        W89552   6.681  26.218  14.957
22770W        W89553  21.439   6.778  13.871
22771W        W89554  37.177   9.933   1.701
22772W        W89555  14.002  18.705  11.153
22773W        W89556  40.807  11.597   4.078
22774W        W89557  34.115  37.568  10.649
22775W        W89558  11.515  28.989   0.025
22776W        W89559   8.579  41.849   1.807
22777W        W89560   1.889  23.066  11.383
22778W        W89561  16.422  37.801   3.239
22779W        W89562  32.668  37.632  13.105
22780W        W89563  32.410  10.629  13.356
22781W        W89564  35.975  39.535   0.227
22782W        W89565  23.958  14.395   0.072
22783W        W89566  12.646  28.014   3.285
22784W        W89567  26.951   8.103  12.134
22785W        W89568  18.460  19.036  13.356
22786W        W89569  18.750  11.545  12.365
22787W        W89570  10.306   0.306   3.142
22788W        W89571  18.831  23.730   2.926
22789W        W89572  21.677   8.353  12.041
22790W        W89573   8.737  24.103  14.186
22791W        W89574  31.942  18.952  13.380
22792W        W89575  43.796  22.247  11.487
22793W        W89576   2.239  11.059   2.766
22794W        W89577  35.000  23.647   3.201
22795W        W89578   4.191  37.199   2.790
22796W        W89579  36.354  15.713  12.577
22797W        W89580  23.958  15.601  12.811
22798W        W89581   6.470  33.933  11.078
22799W        W89582   4.246  32.398   1.504
22800W        W89583  14.703   9.685  14.276
22801W        W89584  36.846  41.552   4.570
22802W        W89585  16.622  13.689   3.079
22803W        W89586   9.543  27.619  10.987
22804W        W89587  25.749  44.882   0.966
22805W        W89588  22.632   0.952   0.722
22806W        W89589  42.460  13.378  12.764
22807W        W89590  28.985   1.972  14.487
22808W        W89591   1.205  13.832   4.192
22809W        W89592  29.472   6.368  11.977
22810W        W89593  36.373  10.179  14.553
22811W        W89594  43.814  16.252  11.058
22812W        W89595  37.481  21.711  14.435
22813W        W89596  22.637  42.284   0.751
22814W        W89597  24.196  10.398  12.998
22815W        W89598   5.698  36.493  11.689
22816W        W89599  31.428  39.346   0.352
22817W        W89600  38.869  20.196  14.478
22818W        W89601  19.066  35.351  10.835
22819W        W89602   4.447  28.165   1.790
22820W        W89603  27.758  20.595  12.051
22821W        W89604  38.928  34.341   2.779
22822W        W89605  39.942   5.501  14.032
22823W        W89606  23.083  34.139  14.499
22824W        W89607  21.136   5.967  14.347
22825W        W89608   9.155  36.894  14.233
22826W        W89609  35.437  20.498   2.177
22827W        W89610  15.991  15.242  12.840
22828W        W89611  39.040  28.381  13.812
22829W        W89612   5.317  24.739   1.565
22830W        W89613   5.248  40.564  11.555
22831W        W89614  11.482  14.205   0.494
22832W        W89615  28.554  23.726  12.915
22833W        W89616  40.790   3.023   2.034
22834W        W89617  11.623  11.698  11.451
22835W        W89618  28.814  18.259   1.042
22836W        W89619   2.951   8.176   1.468
22837W        W89620   4.227  38.223   1.250
22838W        W89621  31.886  32.463   0.015
22839W        W89622  43.027  32.964  14.050
22840W        W89623  15.524  22.132   4.911
22841W        W89624   8.608   9.852  11.544
22842W        W89625  25.615   2.371  14.003
22843W        W89626  15.879  17.665   4.270
22844W        W89627  13.843  29.663   2.311
22845W        W89628  32.591  20.024   2.918
22846W        W89629  37.228   0.861  14.100
22847W        W89630  37.874  44.290  10.564
22848W        W89631  23.315  39.296  12.511
22849W        W89632   8.906  25.669   4.156
22850W        W89633   4.969  19.029  10.308
22851W        W89634  25.788  31.033   0.136
22852W        W89635   7.161   6.856   3.244
22853W        W89636  37.023  22.495  12.354
22854W        W89637  38.220  44.112   1.427
22855W        W89638   8.677  26.643  10.612
22856W        W89639  35.871  21.066   0.299
22857W        W89640  22.565  23.947   1.279
22858W        W89641  34.453  32.090   2.251
22859W        W89642  17.689  16.402  10.304
22860W        W89643  38.009  10.676  14.827
22861W        W89644  26.317  32.972  14.388
22862W        W89645   0.983  10.643   1.190
22863W        W89646  42.076   3.845  12.545
22864W        W89647  26.596   3.951   0.904
22865W        W89648   1.733   6.647   3.243
22866W        W89649   0.592  24.448   3.738
22867W        W89650  23.809  18.314   4.571
22868W        W89651  23.287  30.761   4.723
22869W        W89652  42.706  24.498   1.950
22870W        W89653  15.280  26.028   0.878
22871W        W89654  16.941   5.493   1.921
22872W        W89655  42.222   6.890   1.794
22873W        W89656  29.567   5.046   5.203
22874W        W89657  36.355  27.656  12.043
22875W        W89658  19.809   9.617   1.015
22876W        W89659  29.454  38.251   0.905
22877W        W89660  28.159   3.901   0.841
22878W        W89661  32.086  33.021  12.844
22879W        W89662  30.524   3.253   1.890
22880W        W89663  20.479  19.556   4.873
22881W        W89664  28.893  12.747   3.213
22882W        W89665  35.804   2.052   0.026
22883W        W89666  17.221  23.190   2.837
22884W        W89667  32.482   4.227  11.952
22885W        W89668   6.315  19.296   3.485
22886W        W89669  14.208  22.971  10.949
22887W        W89670  36.538   5.841   3.059
22888W        W89671  42.849  29.063   2.617
22889W        W89672  10.118  28.957   4.482
22890W        W89673  23.527  36.492   3.297
22891W        W89674  36.549  12.209   4.614
22892W        W89675   3.907  17.843   2.212
22893W        W89676   8.778  12.633  12.147
22894W        W89677  35.333  43.249   0.916
22895W        W89678  31.106  35.616  12.014
22896W        W89679  18.263  23.913  10.403
22897W        W89680   4.245  32.101  14.167
22898W        W89681  18.356  34.524  14.286
22899W        W89682   5.844  21.209   2.301
22900W        W89683   5.837  16.587  10.595
22901W        W89684  40.008  27.618   4.669
22902W        W89685   9.197  19.743   2.200
22903W        W89686  17.792  17.676  14.354
22904W        W89687  18.586   8.728  13.556
22905W        W89688  39.207   6.334   0.767
22906W        W89689   1.198  18.723   0.496
22907W        W89690  22.204  38.403  12.590
22908W        W89691  38.522  34.085  14.302
22909W        W89692  26.384  10.705  14.905
22910W        W89693  40.190   0.742   4.672
22911W        W89694  10.198  10.735  11.747
22912W        W89695  25.544  37.927   0.029
22913W        W89696  17.338  14.348   0.203
22914W        W89697  14.614   8.677  13.743
22915W        W89698  31.865  19.108   4.720
22916W        W89699  10.653   4.636  13.988
22917W        W89700   4.782  11.345   4.100
22918W        W89701  10.005  20.149  10.599
22919W        W89702  30.418  38.559   1.749
22920W        W89703  23.484  42.088   2.742
22921W        W89704  29.997  20.006  13.841
22922W        W89705  21.044  22.068  13.828
22923W        W89706  33.909  39.611   0.771
22924W        W89707   5.326  14.731  11.745
22925W        W89708  31.914   8.155   3.156
22926W        W89709  30.555  41.650   1.587
22927W        W89710  10.455  39.293  12.442
22928W        W89711  17.114  44.976   1.375
22929W        W89712   3.518  20.598  12.580
22930W        W89713  19.966  33.439   3.002
22931W        W89714  11.128   8.350  14.967
22932W        W89715  27.977  35.431  12.020
22933W        W89716  41.904   9.929   2.776
22934W        W89717  43.423  31.729  11.594
22935W        W89718   1.539  15.139  10.946
22936W        W89719   6.458  19.926   0.092
22937W        W89720  32.605  32.560  11.562
22938W        W89721  26.714  40.014  12.589
22939W        W89722   3.019  41.445  11.170
22940W        W89723  24.420  40.436   2.852
22941W        W89724  14.144  26.356   2.816
22942W        W89725  31.502  34.861   4.886
22943W        W89726   8.396  16.604   1.758
22944W        W89727  38.566  29.093  10.532
22945W        W89728   5.640  28.995  10.796
22946W        W89729  36.768  35.390  12.971
22947W        W89730  29.304  33.319   3.974
22948W        W89731  39.894  19.105   3.640
22949W        W89732   3.592  39.871   0.207
22950W        W89733   7.844  19.439  12.977
22951W        W89734   2.861  11.847   2.656
22952W        W89735  13.258   7.772   1.579
22953W        W89736  38.309  30.694  12.496
22954W        W89737  21.835   9.649  13.420
22955W        W89738  40.303  28.770   0.977
22956W        W89739   1.236   5.902   0.280
22957W        W89740  44.451  12.776  10.842
22958W        W89741  14.759  41.438   1.872
22959W        W89742  16.286   6.437  14.571
22960W        W89743   7.706  22.673   2.942
22961W        W89744  37.118  42.084   3.389
22962W        W89745  11.834  18.506   2.142
22963W        W89746   0.956  29.527  10.901
22964W        W89747  27.640  17.228  14.786
22965W        W89748  40.599  23.262   2.260
22966W        W89749  37.047  24.952   0.999
22967W        W89750  29.030   5.011   2.657
22968W        W89751   5.192  24.470  11.579
22969W        W89752   1.009  19.648  10.148
22970W        W89753  43.409  11.345  11.181
22971W        W89754  10.914  15.078   3.679
22972W        W89755  10.583  35.924   2.324
22973W        W89756  40.306  21.302  12.382
22974W        W89757  35.632  31.381   0.991
22975W        W89758  36.676  36.980   4.211
22976W        W89759  12.368  40.388  10.502
22977W        W89760  24.753  23.189   0.895
22978W        W89761  26.101  24.373   4.189
22979W        W89762  17.870   4.745  11.304
22980W        W89763   4.288  27.202   3.663
22981W        W89764  44.761   7.749   3.505
22982W        W89765  27.025  14.721  12.910
22983W        W89766  30.642  30.995  10.630
22984W        W89767  40.464  35.098   2.771
22985W        W89768  25.753  30.471  14.942
22986W        W89769  34.043  10.369   4.147
22987W        W89770   4.883  30.604  11.975
22988W        W89771   9.230  31.642  12.800
22989W        W89772   8.198  37.041  10.524
22990W        W89773  26.162   8.232   3.348
22991W        W89774   0.967  36.558  10.776
22992W        W89775  27.936  35.390   0.454
22993W        W89776  25.624  17.319  10.155
22994W        W89777  38.578  29.818  14.513
22995W        W89778  29.181  40.425   1.317
22996W        W89779  22.305  15.698   4.263
22997W        W89780  40.442   0.889   0.271
22998W        W89781  43.986  18.680   4.155
22999W        W89782   9.851   3.059   1.736
23000W        W89783  28.955  40.481   0.828
23001W        W89784   9.686  37.487  12.929
23002W        W89785   3.866   1.234  13.116
23003W        W89786  44.447  29.162  11.205
23004W        W89787  15.053  31.047  11.186
23005W        W89788   6.638  22.216  12.175
23006W        W89789  22.619  29.643   0.692
23007W        W89790  44.284  44.156  13.381
23008W        W89791  15.670  37.079  14.415
23009W        W89792  17.043  11.776  11.901
23010W        W89793   2.938  39.059   2.258
23011W        W89794  19.947  23.260  11.169
23012W        W89795  42.547  14.228  10.217
23013W        W89796  20.181  22.285   0.736
23014W        W89797  24.050  41.911   4.323
23015W        W89798  35.910  39.843   2.694
23016W        W89799  40.450   7.496  11.938
23017W        W89800  30.570  38.115  13.599
23018W        W89801  10.622  34.928  14.319
23019W        W89802  26.249  10.672   1.759
23020W        W89803  33.369  30.940   4.093
23021W        W89804  44.824  32.631   0.508
23022W        W89805  17.789  34.175   4.615
23023W        W89806  26.650  20.813   3.792
23024W        W89807  10.236  30.607  10.316
23025W        W89808  17.863  43.475  12.983
23026W        W89809   6.702  44.237  13.543
23027W        W89810  13.629   1.667  14.454
23028W        W89811  31.254  38.466   3.170
23029W        W89812  37.251  38.759   4.513
23030W        W89813  35.819  37.637  12.453
23031W        W89814  30.184  41.045  14.279
23032W        W89815  37.928  25.539  14.328
23033W        W89816   6.164  30.408  14.007
23034W        W89817  18.783  13.795   3.701
23035W        W89818   6.889  16.001   2.731
23036W        W89819  42.854  32.387  14.917
23037W        W89820  18.128  30.136  12.326
23038W        W89821  37.037  37.319   3.669
23039W        W89822   0.874  17.466  12.231
23040W        W89823  14.236  32.908   2.330
23041W        W89824  18.705  30.621  13.960
23042W        W89825  26.484  29.178   3.692
23043W        W89826  25.532  10.691   0.995
23044W        W89827   2.907  29.203  12.100
23045W        W89828  10.762   2.342   0.294
23046W        W89829  34.905  28.296  12.896
23047W        W89830  18.319  44.057  11.102
23048W        W89831  24.044  21.636   4.588
23049W        W89832  20.571   9.217  14.451
23050W        W89833  10.687  38.783   3.229
23051W        W89834  24.190  41.056   2.209
23052W        W89835  38.433  40.865  11.102
23053W        W89836  22.606  36.867   0.071
23054W        W89837  37.348  41.922  10.887
23055W        W89838  11.858  22.256   0.043
23056W        W89839  31.590  24.818  13.430
23057W        W89840  30.983  15.196   4.239
23058W        W89841   1.270  41.318   2.649
23059W        W89842  22.171  31.478   4.222
23060W        W89843   9.439   6.449   2.349
23061W        W89844  31.578  14.560  10.692
23062W        W89845   9.094  27.417   3.647
23063W        W89846  12.402  13.129  13.921
23064W        W89847  41.055   4.284  12.987
23065W        W89848  16.066   4.393  13.350
23066W        W89849   1.603  19.536   0.415
23067W        W89850  40.804  17.270   0.104
23068W        W89851  24.280  17.691  13.367
23069W        W89852  32.185  38.765  11.465
23070W        W89853  19.160  41.812   3.746
23071W        W89854  21.160   3.427  13.337
23072W        W89855  27.925  32.570   2.170
23073W        W89856  24.186  38.266  14.182
23074W        W89857  43.375  12.113  12.560
23075W        W89858   6.690  18.588  13.334
23076W        W89859  25.389  26.891  12.999
23077W        W89860  22.246  14.359  11.441
23078W        W89861  24.519  28.548   2.377
23079W        W89862  24.668  15.541   3.218
23080W        W89863  38.583  29.496   0.372
23081W        W89864  16.831  28.908  12.579
23082W        W89865   5.966  41.697   4.965
23083W        W89866   5.810  24.602  12.981
23084W        W89867   2.481  17.620   4.644
23085W        W89868  31.881  23.993   0.694
23086W        W89869  20.430  14.606   1.261
23087W        W89870   2.585  28.577  13.262
23088W        W89871  34.578  10.773  10.226
23089W        W89872  21.703  42.759  12.909
23090W        W89873  15.794  10.227   4.793
23091W        W89874   8.370  40.367  12.089
23092W        W89875  10.128  35.204   2.135
23093W        W89876  32.108  21.741  14.975
23094W        W89877  13.680  12.806  10.631
23095W        W89878  20.742  15.652  13.016
23096W        W89879  29.096  31.131   0.445
23097W        W89880  22.566  29.703  13.204
23098W        W89881  44.259   5.301   3.053
23099W        W89882  16.323  15.717  12.401
23100W        W89883  27.720  14.833  12.998
23101W        W89884  38.882  36.046  10.611
23102W        W89885  25.575  31.875  12.798
23103W        W89886  23.329  27.704  14.261
23104W        W89887  25.942  29.097  10.613
23105W        W89888  25.908   5.446  12.354
23106W        W89889  30.806  22.973   4.690
23107W        W89890  37.923   0.141   3.454
23108W        W89891  15.246  20.320  12.027
23109W        W89892  18.221  26.411   4.315
23110W        W89893  35.149   5.820   3.658
23111W        W89894  44.039  13.080  10.701
23112W        W89895  31.641  40.969   2.739
23113W        W89896  34.125  13.155  10.593
23114W        W89897  12.648  27.492   2.357
23115W        W89898  15.631  29.949  14.342
23116W        W89899  32.111  35.848  13.378
23117W        W89900  27.948  14.747   0.701
23118W        W89901   6.373  36.458  12.534
23119W        W89902  30.600  11.401   2.300
23120W        W89903  29.170  30.112  13.550
23121W        W89904  12.197  20.801   4.416
23122W        W89905  10.875  32.147  11.676
23123W        W89906  26.001  30.871  12.587
23124W        W89907  26.729  38.992  11.560
23125W        W89908  20.068   1.874  11.612
23126W        W89909  27.979  42.824  11.067
23127W        W89910  42.831   4.760   1.209
23128W        W89911  34.968   1.187  14.326
23129W        W89912   6.683  43.398   2.146
23130W        W89913  29.065  27.237   0.859
23131W        W89914  31.394  42.511  12.957
23132W        W89915  41.921  44.529   1.313
23133W        W89916  18.667  32.128   3.233
23134W        W89917  22.585  23.018  12.099
23135W        W89918  23.063   3.900   5.531
23136W        W89919   1.053   5.022   3.105
23137W        W89920   9.481  21.214  10.520
23138W        W89921  19.080  13.714  13.120
23139W        W89922  31.162  23.221  10.741
23140W        W89923  37.834   7.761  10.024
23141W        W89924   3.409   0.488   2.560
23142W        W89925   3.494  44.474   4.332
23143W        W89926  34.231   6.112   2.256
23144W        W89927  39.000   6.516  11.722
23145W        W89928  33.033  22.771   1.309
23146W        W89929  10.460  11.198  14.346
23147W        W89930  26.061   4.848   3.193
23148W        W89931  26.199  37.552   3.353
23149W        W89932   3.670  15.686  11.773
23150W        W89933  22.517   5.836  11.372
23151W        W89934  28.726  33.846   4.604
23152W        W89935  11.501  41.235  10.557
23153W        W89936  41.284  19.988   2.268
23154W        W89937  14.837  32.948   4.620
23155W        W89938   5.808  26.743   3.427
23156W        W89939   6.610   4.066  11.107
23157W        W89940   7.462  42.936   4.618
23158W        W89941  32.499  13.278   2.387
23159W        W89942  15.770   5.002   2.780
23160W        W89943   4.979  42.033   3.308
23161W        W89944  11.840  33.127  14.828
23162W        W89945  14.314   9.757   2.264
23163W        W89946  44.020   9.251  14.113
23164W        W89947  15.370  24.022   1.327
23165W        W89948   4.788  35.482   0.722
23166W        W89949  23.414  22.540  11.920
23167W        W89950  30.461  13.674   3.180
23168W        W89951  32.416  28.042   2.206
23169W        W89952  38.568  31.661   0.024
23170W        W89953  13.206   8.665   1.117
23171W        W89954   2.018  20.585   0.160
23172W        W89955   8.983  37.989  13.276
23173W        W89956  33.120  39.079  14.327
23174W        W89957  17.645  38.955   1.687
23175W        W89958  26.792  12.585   4.568
23176W        W89959  36.320  18.282   0.839
23177W        W89960  19.708  28.002   1.852
23178W        W89961   7.757  22.740  10.971
23179W        W89962  36.645   3.221   0.032
23180W        W89963  24.460  11.976   4.274
23181W        W89964  42.584  43.795   3.357
23182W        W89965   1.328  18.264   1.293
23183W        W89966  28.451  10.808   4.570
23184W        W89967   7.912  18.261   1.301
23185W        W89968  34.089  28.212  14.492
23186W        W89969   9.637  38.243   4.132
23187W        W89970  22.805  43.920  13.047
23188W        W89971   1.486  28.460   1.617
23189W        W89972  39.816  35.684  10.825
23190W        W89973  32.245   4.219  11.508
23191W        W89974  35.822   0.196   1.812
23192W        W89975  23.116  33.450   1.341
23193W        W89976  19.109  24.627  13.966
23194W        W89977  41.125  41.969  14.735
23195W        W89978  40.738  18.164  11.159
23196W        W89979  32.982   5.073   1.545
23197W        W89980  43.803  32.104   3.197
23198W        W89981  12.787  10.808  12.509
23199W        W89982  35.949  18.568   3.827
23200W        W89983  29.498  12.419  10.687
23201W        W89984  23.220  34.709  13.078
23202W        W89985   4.411  33.120  13.377
23203W        W89986   5.382   6.778   0.304
23204W        W89987  31.913  27.517  10.520
23205W        W89988   8.894  10.261   3.165
23206W        W89989  42.742  37.466  13.568
23207W        W89990   5.570  37.605  11.476
23208W        W89991  40.965   3.878  13.310
23209W        W89992  12.672  21.128  14.972
23210W        W89993   7.266  43.824  11.437
23211W        W89994   0.849  30.915   2.239
23212W        W89995  43.746  19.108   1.789
23213W        W89996  38.921  26.608   4.596
23214W        W89997  38.889  16.102   4.851
23215W        W89998  26.447  25.137  13.373
23216W        W89999  28.762   4.776   0.435
23217W        W90000   5.341  25.514   4.145
23218W        W90001  34.326  34.023   1.874
23219W        W90002  32.211  10.168  13.507
23220W        W90003  30.877  22.741   1.601
23221W        W90004  38.804  43.404   1.916
23222W        W90005  31.060  13.778  14.485
23223W        W90006  31.960  12.176   2.760
23224W        W90007  37.030  31.223   1.564
23225W        W90008   5.867  16.291  11.270
23226W        W90009  28.712  10.573  13.509
23227W        W90010   1.768   0.901  14.574
23228W        W90011  27.737   0.373   2.788
23229W        W90012   8.695  30.685  13.988
23230W        W90013  13.070  12.410   3.317
23231W        W90014   6.560  42.586  11.494
23232W        W90015   8.379  22.243   2.862
23233W        W90016   7.705  19.306   4.934
23234W        W90017  21.579  38.517  14.509
23235W        W90018  34.544  18.355  12.959
23236W        W90019  39.808  17.705  12.008
23237W        W90020  22.777  26.738   3.404
23238W        W90021  21.221  34.287   4.135
23239W        W90022  44.759   2.131   3.646
23240W        W90023  10.256  24.278  13.407
23241W        W90024  33.688   5.758  14.834
23242W        W90025  40.438  22.179   2.315
23243W        W90026  35.025  24.611   3.073
23244W        W90027  23.126  14.768  13.793
23245W        W90028   3.985   9.172  10.627
23246W        W90029  43.572   1.414  13.468
23247W        W90030   2.160  35.200   2.111
23248W        W90031   5.465  25.947   1.413
23249W        W90032   7.410  40.618   4.121
23250W        W90033  13.121  23.093   2.195
23251W        W90034  16.582  44.393   1.680
23252W        W90035  22.459  36.469  14.409
23253W        W90036   0.446  25.929   2.443
23254W        W90037   0.193  27.299  12.979
23255W        W90038   6.891  31.429   0.829
23256W        W90039  32.271   5.944   0.178
23257W        W90040  11.211  32.231   1.716
23258W        W90041   2.425  29.353   0.279
23259W        W90042  36.554  38.610   3.729
23260W        W90043  19.079  28.080   3.654
23261W        W90044  27.114  32.979   3.632
23262W        W90045   4.423  21.760   1.907
23263W        W90046  15.691  42.839   1.943
23264W        W90047  11.842  13.874   2.398
23265W        W90048   9.419  39.499  14.077
23266W        W90049   4.251  41.448   1.733
23267W        W90050   5.651   0.809   1.814
23268W        W90051   2.498  28.166   2.204
23269W        W90052   3.532   8.317  12.480
23270W        W90053  42.772  16.156  12.631
23271W        W90054  35.877  39.427  11.556
23272W        W90055   0.766  15.003  11.887
23273W        W90056  10.144  34.578   1.140
23274W        W90057  28.128  41.155  14.755
23275W        W90058  11.369   8.923   3.738
23276W        W90059   6.874   8.338   2.531
23277W        W90060  33.055  37.066   0.762
23278W        W90061   7.559   8.822   3.336
23279W        W90062  16.403   7.369  10.700
23280W        W90063  17.585  30.649  13.452
23281W        W90064  35.537  33.699   0.368
23282W        W90065  25.025   9.258  11.857
23283W        W90066  26.956  28.435   4.091
23284W        W90067  43.517  22.612  11.176
23285W        W90068  39.468  31.508   1.944
23286W        W90069  29.455  19.850   4.785
23287W        W90070  25.126   3.880   2.775
23288W        W90071  29.071  33.413   2.671
23289W        W90072  38.199  17.522   2.269
23290W        W90073   3.671  42.963   4.989
23291W        W90074  11.707  42.238   4.972
23292W        W90075  23.428   7.720  14.484
23293W        W90076  19.165  20.223  11.395
23294W        W90077  32.942  28.962  10.588
23295W        W90078  24.051  12.924   0.429
23296W        W90079  37.140  21.438   0.720
23297W        W90080   1.187  25.928   2.378
23298W        W90081  30.480   6.181  11.540
23299W        W90082  17.379   1.246  13.060
23300W        W90083  12.000  16.773   2.954
23301W        W90084   6.028  36.639   3.808
23302W        W90085  14.410  43.246   2.342
23303W        W90086  20.072  37.263  12.899
23304W        W90087  24.431  38.998   2.327
23305W        W90088  42.490  44.827  13.061
23306W        W90089  37.579  24.730  11.013
23307W        W90090  10.698   9.562   3.315
23308W        W90091  37.815  11.422  14.307
23309W        W90092  32.263   5.410   1.752
23310W        W90093  23.114  44.462   2.620
23311W        W90094  22.106  38.413  14.821
23312W        W90095  10.337   3.329  11.141
23313W        W90096   9.313  23.178   3.829
23314W        W90097  27.475   2.281  13.772
23315W        W90098  38.586  34.861   4.199
23316W        W90099  36.692   2.177   1.636
23317W        W90100   8.765  37.667   2.302
23318W        W90101  44.440  32.269  14.771
23319W        W90102  27.683   2.418   3.213
23320W        W90103  12.161   2.361  14.705
23321W        W90104  44.164  34.573  13.982
23322W        W90105  34.910  30.057  10.622
23323W        W90106  21.594   3.187  14.392
23324W        W90107  31.777  21.261  13.944
23325W        W90108  11.840  10.576   0.497
23326W        W90109   2.688  16.062   4.149
23327W        W90110  16.291   0.891  10.622
23328W        W90111  12.092  39.134  11.868
23329W        W90112  43.413  18.865   0.301
23330W        W90113  35.374  12.172  10.735
23331W        W90114  30.976  30.798  11.172
23332W        W90115  29.191  34.827   4.116
23333W        W90116  12.917   2.774   1.955
23334W        W90117  36.744  26.079   2.465
23335W        W90118  14.902  34.934   0.749
23336W        W90119  10.817  23.977   1.785
23337W        W90120  20.584  10.428   2.924
23338W        W90121   7.302  11.161  11.880
23339W        W90122  37.618  40.888  14.867
23340W        W90123  14.334  31.399  12.486
23341W        W90124   7.446   0.421  11.237
23342W        W90125  12.894  32.001  11.996
23343W        W90126  10.910   2.003  12.003
23344W        W90127   3.771  11.396  13.054
23345W        W90128  40.938   2.981  13.876
23346W        W90129   3.265  27.704  11.165
23347W        W90130   6.722  11.351   0.949
23348W        W90131  14.223   1.158   4.463
23349W        W90132  17.053  39.474  14.119
23350W        W90133  36.467  15.542   1.641
23351W        W90134  30.148   7.995  14.725
23352W        W90135  26.647   5.402  13.760
23353W        W90136   2.474  32.093  14.350
23354W        W90137  40.797  40.786   4.565
23355W        W90138  17.076  12.289  10.117
23356W        W90139   6.703   8.969   4.944
23357W        W90140  32.659   5.259  10.674
23358W        W90141   5.419  34.677  11.084
23359W        W90142  15.750  19.268   0.720
23360W        W90143  34.948  18.248   1.468
23361W        W90144  30.580   9.967   3.318
23362W        W90145  13.094  42.885  12.036
23363W        W90146  26.600  43.749  14.515
23364W        W90147   3.465  37.472   0.055
23365W        W90148  24.206  11.477  12.116
23366W        W90149  30.599   8.274   2.731
23367W        W90150  44.151   1.941  14.769
23368W        W90151  43.648  10.699  10.044
23369W        W90152  23.575  19.408   2.249
23370W        W90153  36.826  42.447  11.813
23371W        W90154  21.483  42.916  10.891
23372W        W90155  39.519  34.361  10.574
23373W        W90156  11.621  42.621   2.792
23374W        W90157  35.360  27.787  13.871
23375W        W90158   5.495   0.343  11.670
23376W        W90159  25.196  10.866  10.509
23377W        W90160  17.569  30.405   0.832
23378W        W90161  38.887  17.649   3.822
23379W        W90162   3.953  15.661  12.621
23380W        W90163  29.972   4.823   0.493
23381W        W90164  30.474  21.340  14.935
23382W        W90165   1.218   4.837   0.373
23383W        W90166  41.692  26.632  12.510
23384W        W90167  37.849   3.836  11.535
23385W        W90168  10.463  27.169  11.051
23386W        W90169  19.578   3.137   3.709
23387W        W90170  42.329   1.989  10.875
23388W        W90171  30.510  40.684  13.969
23389W        W90172  31.138  30.512   3.658
23390W        W90173   0.211   4.305  12.967
23391W        W90174  11.145   8.985   1.767
23392W        W90175  19.576  18.222  14.255
23393W        W90176  19.265  28.122   0.758
23394W        W90177  29.721  30.739   2.772
23395W        W90178  28.872  15.562   2.950
23396W        W90179  28.671  41.413  11.113
23397W        W90180  21.621  32.011   0.210
23398W        W90181  34.840  12.182  10.747
23399W        W90182   7.792  23.261   2.171
23400W        W90183  22.333  32.618   2.872
23401W        W90184  10.636  15.896   1.696
23402W        W90185   2.003  15.040  11.133
23403W        W90186  37.995   0.926   1.413
23404W        W90187  29.157  22.480  12.536
23405W        W90188  15.388  33.480   2.225
23406W        W90189  33.937  43.668   2.056
23407W        W90190   6.671  35.493   2.567
23408W        W90191  16.054  33.691   1.192
23409W        W90192  44.252  22.253   1.830
23410W        W90193  22.735  41.088  11.937
23411W        W90194  35.092  29.087   0.320
23412W        W90195   4.807  13.098   2.617
23413W        W90196  13.429  23.342  11.984
23414W        W90197  21.580  44.669  10.643
23415W        W90198  31.825  22.413   3.249
23416W        W90199  13.134  27.967  11.977
23417W        W90200  10.202  31.295   1.629
23418W        W90201  14.037  12.269  14.228
23419W        W90202  41.480  41.808   1.430
23420W        W90203  27.117  11.371  13.823
23421W        W90204   5.994  35.123   3.364
23422W        W90205   8.916  17.349  11.225
23423W        W90206  32.034  40.490   1.206
23424W        W90207   3.300   6.602   2.105
23425W        W90208  23.761  31.229  11.098
23426W        W90209  40.295   6.152  11.428
23427W        W90210  30.079  36.047   4.729
23428W        W90211  20.143  10.060   0.825
23429W        W90212  22.452  31.068   3.988
23430W        W90213  27.239   2.858   4.050
23431W        W90214   2.328  25.971   1.777
23432W        W90215  24.530  29.504   3.702
23433W        W90216  19.535  17.101  14.993
23434W        W90217   0.687  10.800  13.156
23435W        W90218  15.609  34.421  12.665
23436W        W90219  14.147  39.548   1.163
23437W        W90220  39.778  24.824   1.399
23438W        W90221  25.669  40.385   0.504
23439W        W90222  43.894  17.474  13.371
23440W        W90223   1.911  12.647   4.191
23441W        W90224  37.514  43.695   0.082
23442W        W90225  34.027  31.983   0.696
23443W        W90226  11.314  24.484  11.557
23444W        W90227  22.625  13.272   3.026
23445W        W90228  40.006  20.971  12.625
23446W        W90229  40.175  35.408  10.442
23447W        W90230   0.184  40.254  10.389
23448W        W90231  14.154  41.465  11.176
23449W        W90232   5.152  11.244  12.983
23450W        W90233   4.690  15.765  14.897
23451W        W90234  25.315  11.189   2.713
23452W        W90235  44.356  31.537   3.817
23453W        W90236   8.783  37.228   4.530
23454W        W90237  44.656  22.221  13.822
23455W        W90238   4.381   3.374  10.010
23456W        W90239  27.680  42.965   2.938
23457W        W90240  18.845  19.558   4.713
23458W        W90241   7.751  41.903  11.547
23459W        W90242  29.982  15.804   1.742
23460W        W90243  31.202   5.382  10.555
23461W        W90244  24.664  44.693   0.353
23462W        W90245  21.668   8.159  12.521
23463W        W90246   1.828  21.469  12.393
23464W        W90247  31.905  33.358  11.046
23465W        W90248   2.142  17.582   0.792
23466W        W90249  33.936  17.069   2.682
23467W        W90250   6.851  40.323  11.873
23468W        W90251  17.561  13.127   5.129
23469W        W90252   9.460  28.629  10.917
23470W        W90253  30.399  40.459   4.545
23471W        W90254  37.341  41.765  10.408
23472W        W90255   7.737  18.790   2.713
23473W        W90256  12.088  41.365   2.687
23474W        W90257  16.558  10.122  10.999
23475W        W90258  19.720  36.312  12.448
23476W        W90259  42.391  42.953  13.389
23477W        W90260  42.486  24.666   3.156
23478W        W90261  29.661  38.516   0.201
23479W        W90262  25.495  37.411  12.979
23480W        W90263  34.911  24.611  13.468
23481W        W90264  27.924  35.433   1.822
23482W        W90265  21.510  37.691  12.442
23483W        W90266  19.033  32.510  10.713
23484W        W90267  34.490  16.349  13.103
23485W        W90268   9.749  31.703   2.598
23486W        W90269  25.277  43.955   2.627
23487W        W90270  41.787  35.540   3.123
23488W        W90271   5.167  42.980  12.126
23489W        W90272   5.321  36.101  14.341
23490W        W90273   9.629  36.898  14.004
23491W        W90274   0.434  13.706   4.879
23492W        W90275   8.345  43.089  12.523
23493W        W90276  39.033  19.036   4.303
23494W        W90277  19.816  18.499   3.454
23495W        W90278  39.759   6.887   0.305
23496W        W90279  32.176  25.046  12.299
23497W        W90280  19.772  12.841   1.405
23498W        W90281   6.441  15.261   0.409
23499W        W90282  26.973   9.686  14.670
23500W        W90283  44.552   3.854  13.984
23501W        W90284  21.806  17.473   1.913
23502W        W90285  17.377  14.176   2.808
23503W        W90286  16.364  42.905  10.741
23504W        W90287  21.750  43.835   3.828
23505W        W90288  16.415  10.722   0.571
23506W        W90289  38.790   5.939  14.478
23507W        W90290  34.025   0.329  12.986
23508W        W90291  17.712  43.888  14.829
23509W        W90292  22.633  25.929   2.598
23510W        W90293   0.424  27.493   1.630
23511W        W90294  28.756  34.925  12.887
23512W        W90295  16.417  13.257   9.702
23513W        W90296  15.371  44.533   3.748
23514W        W90297  22.661  20.092  10.334
23515W        W90298  32.417  25.118   4.089
23516W        W90299  42.996   8.978  11.207
23517W        W90300  44.568   6.242  13.947
23518W        W90301   9.883  35.120  12.514
23519W        W90302  18.737  30.772  12.999
23520W        W90303   0.297  32.857   0.447
23521W        W90304   8.544   5.289   1.361
23522W        W90305  27.719  35.005   0.187
23523W        W90306  22.209  36.152   1.746
23524W        W90307  30.679  26.876  14.782
23525W        W90308   6.691  35.326  14.394
23526W        W90309  34.963  38.394   4.772
23527W        W90310  25.474  21.738   4.726
23528W        W90311  14.360  42.602  11.903
23529W        W90312   3.298  36.365   0.773
23530W        W90313  25.170  21.125   1.091
23531W        W90314  18.123  33.892  12.366
23532W        W90315  30.459  10.885  12.466
23533W        W90316  40.465  33.161  13.871
23534W        W90317  29.351  28.931  12.905
23535W        W90318  25.921  42.040   1.341
23536W        W90319   1.686  27.723  11.166
23537W        W90320  16.044  12.434   1.360
23538W        W90321  37.090  29.916  14.445
23539W        W90322  10.610  30.687   2.586
23540W        W90323   2.911  37.120  14.365
23541W        W90324  25.731  29.078   4.275
23542W        W90325   0.865  30.396  13.663
23543W        W90326  18.968   9.067   3.465
23544W        W90327   1.392   1.499   1.836
23545W        W90328   6.251  19.230   1.449
23546W        W90329   4.216  10.868   3.202
23547W        W90330   6.939  42.274  14.717
23548W        W90331  15.330  42.779   3.081
23549W        W90332  17.687  15.612  12.888
23550W        W90333  44.701  41.552   4.533
23551W        W90334  11.750  13.118   4.026
23552W        W90335  32.101  11.706   4.072
23553W        W90336   1.405   4.837   2.788
23554W        W90337  16.044  31.324  11.920
23555W        W90338  22.731   5.919  13.375
23556W        W90339  21.166  30.367   4.332
23557W        W90340  43.034   4.303   2.941
23558W        W90341   3.181  36.418   2.438
23559W        W90342   7.289  39.609  10.372
23560W        W90343   3.695  37.864   2.978
23561W        W90344  15.182  22.420  14.852
23562W        W90345  38.537  35.320  13.915
23563W        W90346  11.691  35.965   0.259
23564W        W90347  15.289   0.726  14.733
23565W        W90348  31.544  11.961  13.372
23566W        W90349  39.093  28.845  13.556
23567W        W90350  23.998  23.396   9.858
23568W        W90351  26.462  16.981  12.858
23569W        W90352  34.790  25.559   0.335
23570W        W90353  31.007  21.108  13.104
23571W        W90354  26.376  21.529   4.957
23572W        W90355  15.299  31.318  11.624
23573W        W90356  26.187   1.957   3.651
23574W        W90357  28.988   9.213   0.992
23575W        W90358   9.304  24.959   3.116
23576W        W90359   2.699  12.329  13.302
23577W        W90360  26.698  43.355  14.902
23578W        W90361  30.729   2.406   2.253
23579W        W90362   8.812   5.853  10.740
23580W        W90363   1.760  14.225  12.009
23581W        W90364  33.343  40.636   1.942
23582W        W90365  11.211  19.741   4.360
23583W        W90366  25.028  40.917  12.621
23584W        W90367   1.027  28.068  10.729
23585W        W90368   0.373  40.901   2.646
23586W        W90369  34.828   9.721  14.188
23587W        W90370  37.740  39.090   0.218
23588W        W90371   0.412  17.296  11.985
23589W        W90372  16.842  31.077  11.030
23590W        W90373  31.450  39.264  13.394
23591W        W90374   3.410  13.788   1.811
23592W        W90375  37.518   0.245   3.749
23593W        W90376   6.359  28.655   1.381
23594W        W90377  32.029   5.248  14.945
23595W        W90378  17.223  40.782  13.426
23596W        W90379  22.811  19.875  13.520
23597W        W90380  44.424  26.437   0.480
23598W        W90381  41.431  22.999   2.341
23599W        W90382  10.895  17.512   0.433
23600W        W90383   9.463  22.908   3.000
23601W        W90384  36.003  30.593   4.360
23602W        W90385  18.770  40.981  14.902
23603W        W90386   1.922  40.933   3.147
23604W        W90387   5.415   2.231   1.699
23605W        W90388   8.394  11.546   0.216
23606W        W90389  37.576   9.615   1.798
23607W        W90390   1.501  18.055  11.267
23608W        W90391  21.268  33.673  13.008
23609W        W90392  24.205  31.494   4.608
23610W        W90393  33.179   7.875  14.352
23611W        W90394  12.188   9.195  14.581
23612W        W90395  10.150   4.955  12.630
23613W        W90396  17.177   5.373   3.231
23614W        W90397  25.057  32.496   4.126
23615W        W90398  36.511  28.077  14.515
23616W        W90399  17.162  17.156   0.021
23617W        W90400  16.816  20.632   0.843
23618W        W90401   7.734  27.173   0.479
23619W        W90402  20.012  12.822  11.231
23620W        W90403  30.629  26.754   0.960
23621W        W90404  21.272  42.161  14.572
23622W        W90405   7.195  11.616  12.110
23623W        W90406  21.983  14.135   9.510
23624W        W90407  40.380  29.073   4.720
23625W        W90408  23.582   7.393  12.844
23626W        W90409  34.344  12.654   2.661
23627W        W90410  24.059  19.113  12.232
23628W        W90411  30.954  12.866  11.559
23629W        W90412   0.236   7.107   4.568
23630W        W90413  13.353  25.062   3.351
23631W        W90414  34.255  27.157  13.386
23632W        W90415  35.523  31.846  14.449
23633W        W90416  18.517   7.355  12.242
23634W        W90417  38.658  28.590   1.262
23635W        W90418  33.541  15.240  10.707
23636W        W90419  27.113  18.327   3.328
23637W        W90420   9.635  18.791  13.970
23638W        W90421  38.442  39.401  14.803
23639W        W90422  10.592  26.198  11.986
23640W        W90423  20.803  25.732   3.776
23641W        W90424   7.202  19.600   2.799
23642W        W90425  39.707  21.478   0.965
23643W        W90426  44.451   8.933   3.248
23644W        W90427   9.334  42.275   2.411
23645W        W90428   6.540  23.591  14.066
23646W        W90429  12.175  32.716  14.882
23647W        W90430  34.285  16.589  11.494
23648W        W90431  19.578  22.528   3.743
23649W        W90432  15.351   7.918   1.297
23650W        W90433  24.195  28.130  10.990
23651W        W90434  11.631  21.027   1.366
23652W        W90435  36.235   4.685  12.534
23653W        W90436  20.335  44.852  13.347
23654W        W90437  39.903   2.520   2.404
23655W        W90438  31.929   1.345  14.096
23656W        W90439  15.868  13.221  13.907
23657W        W90440  37.875  18.535  14.897
23658W        W90441   3.246  21.010   1.872
23659W        W90442  28.337   5.385   1.759
23660W        W90443  36.992  22.295  13.768
23661W        W90444  11.317   9.690   0.501
23662W        W90445  25.843   4.782  10.536
23663W        W90446  11.587  21.082   0.274
23664W        W90447  41.262   7.240   2.732
23665W        W90448  24.492   6.707   0.891
23666W        W90449  14.790  11.632  11.092
23667W        W90450  20.030   4.362  10.636
23668W        W90451  16.935  25.481  11.660
23669W        W90452  20.942   4.446   4.497
23670W        W90453  13.608  34.046  10.603
23671W        W90454  26.457  16.950   3.857
23672W        W90455  37.277  35.741  11.100
23673W        W90456   5.891  30.862   4.842
23674W        W90457  36.009  22.093   1.965
23675W        W90458   2.041  25.691   4.411
23676W        W90459  40.525  25.675   2.196
23677W        W90460   5.233  44.841  10.478
23678W        W90461  19.005   4.369  12.450
23679W        W90462  15.357  14.612   0.401
23680W        W90463  42.388  16.630  14.182
23681W        W90464  39.404  12.774  14.347
23682W        W90465  37.323  12.929   4.543
23683W        W90466  28.957  11.162   3.677
23684W        W90467  28.387   3.232   0.588
23685W        W90468   9.181  41.423  12.697
23686W        W90469  38.311  29.870   1.844
23687W        W90470  24.677  16.180   1.290
23688W        W90471   0.760  26.015   4.203
23689W        W90472  22.021   6.792   3.065
23690W        W90473  26.254  34.907   0.523
23691W        W90474  42.703  23.009  11.074
23692W        W90475  44.894  28.960   1.226
23693W        W90476  25.493  20.186  11.095
23694W        W90477  33.432  35.870  13.332
23695W        W90478   9.928  42.956  12.421
23696W        W90479  33.626  18.596  13.407
23697W        W90480  35.122  14.218   3.677
23698W        W90481   2.759  19.105   3.187
23699W        W90482   8.485  40.947  12.836
23700W        W90483  33.661  20.911  13.666
23701W        W90484  43.261  20.628  12.069
23702W        W90485  12.920  17.481   3.275
23703W        W90486  26.574  32.697  12.081
23704W        W90487  43.261  37.059   0.808
23705W        W90488  28.571  33.636   2.885
23706W        W90489  34.213   5.751   1.485
23707W        W90490  15.213   2.376   1.136
23708W        W90491   8.892  16.719   3.590
23709W        W90492  19.276   4.284  13.786
23710W        W90493  17.609   7.298   1.326
23711W        W90494  16.122  32.289  11.101
23712W        W90495  14.844  24.316  11.539
23713W        W90496  37.877   0.533   5.041
23714W        W90497  29.509  18.849  13.153
23715W        W90498  18.634  12.607   1.394
23716W        W90499   7.195  21.969  11.071
23717W        W90500  24.928  25.990   3.385
23718W        W90501   2.248  33.032   0.318
23719W        W90502  43.515   3.279  11.113
23720W        W90503  28.394  20.505  11.159
23721W        W90504  33.108  15.558  11.983
23722W        W90505  12.137  41.279   1.767
23723W        W90506  27.934  37.678  12.545
23724W        W90507   4.019  31.431  12.515
23725W        W90508   5.881   2.237   3.764
23726W        W90509  35.994  41.326   0.989
23727W        W90510  31.360  33.603   2.243
23728W        W90511  41.918  19.764   1.158
23729W        W90512   0.917  13.111  14.108
23730W        W90513  41.369   2.470  14.132
23731W        W90514  21.627  24.023  11.065
23732W        W90515  17.097   7.876   4.490
23733W        W90516  20.705  27.909  10.461
23734W        W90517  43.404  27.985   0.600
23735W        W90518  15.038   9.726   2.663
23736W        W90519  22.210  13.897  14.400
23737W        W90520   6.427  35.605   1.680
23738W        W90521  26.684  32.437   1.911
23739W        W90522  42.009  29.476  12.054
23740W        W90523  22.592  28.501   3.206
23741W        W90524  24.779  14.814  12.157
23742W        W90525  28.555  14.806   2.471
23743W        W90526  43.962  34.565   0.793
23744W        W90527   3.897  10.253   0.606
23745W        W90528  16.101   5.266   4.670
23746W        W90529  20.254   4.149   1.350
23747W        W90530  43.257  25.363   3.411
23748W        W90531   7.517  11.853   2.484
23749W        W90532  33.388  23.016   1.860
23750W        W90533  12.736  44.085  13.300
23751W        W90534  19.218  42.411   3.845
23752W        W90535  40.486   8.845   5.057
23753W        W90536  42.950  26.995  11.942
23754W        W90537  17.139  32.893   1.781
23755W        W90538  16.868   8.153  12.820
23756W        W90539  32.607  10.755   2.488
23757W        W90540  11.689  31.406   3.265
23758W        W90541  16.191  12.587  12.451
23759W        W90542   4.191  37.546   1.705
23760W        W90543  12.628   4.190   0.965
23761W        W90544  32.103  16.720  10.533
23762W        W90545  11.662  35.830  13.297
23763W        W90546  31.615  41.470  10.554
23764W        W90547  13.670  25.648   2.881
23765W        W90548  21.250  39.015   4.121
23766W        W90549  28.550  41.858  13.369
23767W        W90550  35.483  15.740   0.416
23768W        W90551  42.290  40.360  11.519
23769W        W90552   1.789  32.795  11.400
23770W        W90553  41.321  37.016  14.946
23771W        W90554  20.273  17.530   2.398
23772W        W90555  26.217  32.560  13.824
23773W        W90556  34.520  43.426   2.731
23774W        W90557   5.965  27.177  10.929
23775W        W90558  39.793  24.501   0.938
23776W        W90559   4.385   6.915  11.475
23777W        W90560   8.000  14.603  10.751
23778W        W90561  19.399  36.149  11.135
23779W        W90562  20.693   6.040   0.252
23780W        W90563   7.369   2.882   1.504
23781W        W90564  13.654  17.922   4.854
23782W        W90565  32.504  35.579   2.885
23783W        W90566  43.841  31.451   2.465
23784W        W90567  42.461   5.385  12.671
23785W        W90568  31.120  12.600   3.159
23786W        W90569  12.858  44.072  13.814
23787W        W90570  13.281  33.979  14.290
23788W        W90571  41.409   4.797   3.622
23789W        W90572  28.978   4.554  12.567
23790W        W90573  30.686  31.564   4.057
23791W        W90574  16.141   1.418   0.714
23792W        W90575   4.989  23.976   1.840
23793W        W90576  26.164  21.094   0.827
23794W        W90577   1.000  21.229  11.929
23795W        W90578   3.852   3.204   3.903
23796W        W90579  32.482   7.035   1.686
23797W        W90580  44.341  31.292  14.604
23798W        W90581  20.814  11.780   2.791
23799W        W90582  19.187   2.709  14.008
23800W        W90583  44.484   8.973  14.389
23801W        W90584  13.078  44.293   0.948
23802W        W90585  27.557  40.849   3.106
23803W        W90586  27.456  12.329  14.328
23804W        W90587   7.750  21.121   3.844
23805W        W90588  21.288  37.904  12.959
23806W        W90589  27.684  42.928   1.188
23807W        W90590  37.077  24.314  14.851
23808W        W90591   9.370   4.716   4.975
23809W        W90592  35.457   5.804  10.094
23810W        W90593   8.958  42.149   3.210
23811W        W90594  27.616   8.208   3.879
23812W        W90595  35.308   8.916  13.918
23813W        W90596  26.481  36.117   4.887
23814W        W90597   5.397  14.769   2.512
23815W        W90598  16.513  12.646   0.439
23816W        W90599  40.489  37.941  10.476
23817W        W90600  27.131   5.523  13.890
23818W        W90601  42.745   2.040  11.609
23819W        W90602  31.962  27.000  12.180
23820W        W90603  39.625  12.039  14.892
23821W        W90604  17.153  25.679   1.922
23822W        W90605   4.782  25.759  10.799
23823W        W90606  23.954   3.215  14.748
23824W        W90607  33.606  20.642   2.404
23825W        W90608  23.823  43.969   3.661
23826W        W90609  12.312  21.806  13.443
23827W        W90610  33.525  32.373   3.627
23828W        W90611  40.773  17.986  14.011
23829W        W90612  20.325  33.052   0.416
23830W        W90613  27.653  15.096   4.261
23831W        W90614  24.975  11.793   1.217
23832W        W90615   9.598   6.704  12.462
23833W        W90616  40.817  28.409  12.464
23834W        W90617   8.327  22.996   0.191
23835W        W90618  42.833  41.275  11.190
23836W        W90619  25.213   7.421  14.962
23837W        W90620  29.049   3.420  13.763
23838W        W90621  27.748   6.359   2.685
23839W        W90622  38.493  33.277  12.359
23840W        W90623  20.620  40.866   0.678
23841W        W90624   0.252  20.756  13.501
23842W        W90625  37.777   5.592  14.428
23843W        W90626  11.338  38.603   5.071
23844W        W90627  14.755   9.641   1.712
23845W        W90628  35.357  41.404   1.667
23846W        W90629  39.357  30.990  14.119
23847W        W90630  35.005  11.225  10.722
23848W        W90631  43.982  44.255   2.391
23849W        W90632  16.661   6.966   3.673
23850W        W90633  44.970  24.819  13.035
23851W        W90634   8.099  10.407   0.307
23852W        W90635   5.142  35.571   3.848
23853W        W90636  22.535  32.954   0.670
23854W        W90637  16.503  40.851  12.984
23855W        W90638  10.167  37.542   1.536
23856W        W90639  44.951  30.933   2.341
23857W        W90640  19.687  31.335  11.949
23858W        W90641  17.211  33.567  13.765
23859W        W90642  32.666  10.757   0.523
23860W        W90643  16.776  42.018   4.069
23861W        W90644  24.539  39.074   1.793
23862W        W90645   0.226  26.908   0.769
23863W        W90646  20.529  25.782  13.311
23864W        W90647   0.642  44.261   2.872
23865W        W90648  26.494  35.375   0.702
23866W        W90649  35.570  36.508  14.925
23867W        W90650  24.546  44.658   3.500
23868W        W90651  14.542  11.327   0.884
23869W        W90652   8.422  41.209   0.699
23870W        W90653  12.853   8.216   0.007
23871W        W90654  31.817   6.395  11.894
23872W        W90655  10.591  37.315   0.101
23873W        W90656  39.864  39.656  13.797
23874W        W90657  16.322  13.794  12.834
23875W        W90658  24.736  44.475   4.374
23876W        W90659   8.665  10.078   3.598
23877W        W90660  26.958  34.431   0.956
23878W        W90661  35.592   1.265  14.990
23879W        W90662   9.354  34.320   2.085
23880W        W90663   9.120  11.747   4.144
23881W        W90664  17.673  29.173   3.312
23882W        W90665  36.277   0.918  12.967
23883W        W90666   5.157  18.698   3.116
23884W        W90667  23.002  29.389  10.963
23885W        W90668  15.682  31.108  13.559
23886W        W90669  12.986  31.136   2.896
23887W        W90670  23.745  18.339  11.507
23888W        W90671  16.562  42.393   1.790
23889W        W90672   5.258  21.169  12.907
23890W        W90673  26.728   2.733  12.500
23891W        W90674  26.485  12.600  13.913
23892W        W90675  31.369  40.519   0.948
23893W        W90676   5.713  29.899  13.796
23894W        W90677  34.046  36.643   4.125
23895W        W90678   7.826  38.684  12.992
23896W        W90679  21.270  26.178  11.580
23897W        W90680  39.571  21.051  12.883
23898W        W90681  36.923  43.864  13.862
23899W        W90682   2.076  26.771  11.113
23900W        W90683   8.715  32.252  14.413
23901W        W90684   5.867  25.484   4.009
23902W        W90685   5.134  34.496  11.488
23903W        W90686  20.487   0.460  14.694
23904W        W90687  43.210   2.632   1.915
23905W        W90688  19.450   4.575  12.545
23906W        W90689  17.743  25.627   4.520
23907W        W90690  22.275   6.963  14.962
23908W        W90691  39.343   1.988   0.238
23909W        W90692  38.816  13.057  10.250
23910W        W90693  31.094  11.593   0.044
23911W        W90694  41.600   8.215   0.718
23912W        W90695  30.012  28.456  12.288
23913W        W90696  24.539   1.904  13.344
23914W        W90697  22.656  36.928   3.796
23915W        W90698  42.677  18.557  13.057
23916W        W90699  32.856   9.696  11.467
23917W        W90700   7.698  43.465   1.359
23918W        W90701   8.190   0.260   0.342
23919W        W90702  42.948  27.893   1.815
23920W        W90703  41.103  21.728  12.928
23921W        W90704  24.947  44.010  14.827
23922W        W90705  23.113   9.646  13.496
23923W        W90706  31.649  41.741  12.532
23924W        W90707  16.700  33.909   2.217
23925W        W90708  24.702  28.271   1.629
23926W        W90709  41.061  40.102  14.967
23927W        W90710  20.743  14.436   4.630
23928W        W90711  23.565  22.244  10.638
23929W        W90712  17.002  26.464  10.628
23930W        W90713  30.959  43.041  12.519
23931W        W90714  29.110   8.728  11.031
23932W        W90715  39.007  22.006  10.865
23933W        W90716  25.209  41.357  14.961
23934W        W90717  27.983  27.144  14.249
23935W        W90718   1.898   6.040   3.608
23936W        W90719   9.758  18.557  12.647
23937W        W90720  10.363   9.410   0.402
23938W        W90721  14.713   8.936   5.137
23939W        W90722  31.190  21.844  10.461
23940W        W90723  26.560  10.573  13.896
23941W        W90724  24.015  29.716   0.589
23942W        W90725   4.734  36.556  14.584
23943W        W90726  31.591  26.170  10.754
23944W        W90727  35.421  36.376  10.398
23945W        W90728   9.454  31.190  14.910
23946W        W90729  21.716  36.919   3.909
23947W        W90730   6.906  34.965   1.819
23948W        W90731   2.047   1.321  14.522
23949W        W90732  24.733  12.826   1.644
23950W        W90733  29.535  10.628  12.463
23951W        W90734  17.807  26.596   3.663
23952W        W90735  33.888  28.682   1.274
23953W        W90736  17.257  24.150  13.452
23954W        W90737   4.363  19.676   4.378
23955W        W90738   4.187  24.037   1.299
23956W        W90739   0.771  37.621   1.306
23957W        W90740  41.451   9.402  12.579
23958W        W90741  32.161  33.583  14.788
23959W        W90742  26.980  38.896   4.403
23960W        W90743   5.260  41.077  11.544
23961W        W90744  21.480   8.494  14.369
23962W        W90745  43.894  14.663   0.697
23963W        W90746  11.206  31.932  13.469
23964W        W90747  40.501  11.274  10.359
23965W        W90748   9.397  29.370   0.376
23966W        W90749  39.978  27.088   3.305
23967W        W90750  19.269  31.818   2.704
23968W        W90751  28.932  17.092   2.351
23969W        W90752  42.294  13.857  11.238
23970W        W90753  24.513  32.130  11.650
23971W        W90754  26.143  39.765  13.963
23972W        W90755   4.462  22.224   2.136
23973W        W90756   7.322   3.621  13.568
23974W        W90757  19.758  44.904  12.189
23975W        W90758   4.380  40.497  11.407
23976W        W90759  33.526  36.868  13.691
23977W        W90760   6.799  31.003  11.949
23978W        W90761  35.014  33.420   0.558
23979W        W90762  29.769  41.680  11.695
23980W        W90763  40.923  44.032   3.607
23981W        W90764   5.407  29.402  12.061
23982W        W90765  26.265   6.963   4.340
23983W        W90766   3.972  43.934   4.575
23984W        W90767  27.035   9.628  12.971
23985W        W90768  13.958  15.623   2.333
23986W        W90769  20.264  27.741   3.974
23987W        W90770  24.526   9.647   3.236
23988W        W90771  39.432  13.226  14.024
23989W        W90772   8.159   3.003  13.791
23990W        W90773   4.192   7.572   0.661
23991W        W90774  27.563   0.936  11.445
23992W        W90775   1.676  27.968   4.565
23993W        W90776  30.695  41.322   4.101
23994W        W90777  15.871   2.494  12.045
23995W        W90778  24.522  34.505  11.969
23996W        W90779  11.089  26.227  11.965
23997W        W90780  22.088  24.126   0.427
23998W        W90781  25.822   8.634  10.044
23999W        W90782  14.711   6.804   4.303
24000W        W90783  40.388  29.490   1.839
24001W        W90784  24.192   0.743   2.200
24002W        W90785  19.580  21.346   3.209
24003W        W90786  17.881   0.904   4.257
24004W        W90787   9.474   7.751   1.751
24005W        W90788   6.359  18.834   1.811
24006W        W90789  39.261  27.999   3.727
24007W        W90790  36.438  26.432  14.415
24008W        W90791  42.466   4.923   3.102
24009W        W90792  17.720  15.147   2.866
24010W        W90793  23.387  41.903  10.180
24011W        W90794  23.045  43.562   4.724
24012W        W90795  34.421  15.737   4.637
24013W        W90796  17.165  11.886   1.547
24014W        W90797  43.479  26.866   3.826
24015W        W90798  36.710  27.175   0.927
24016W        W90799  31.346  41.011   1.791
24017W        W90800   9.889  37.405   3.690
24018W        W90801  18.280  28.412   3.312
24019W        W90802  38.308  38.291  11.005
24020W        W90803  40.194  34.924  12.492
24021W        W90804   2.873  35.306  13.876
24022W        W90805  11.099  24.294  13.533
24023W        W90806  38.130   1.992  13.437
24024W        W90807   1.731   5.755   0.213
24025W        W90808  23.953  42.438   1.676
24026W        W90809  40.070   9.357  13.711
24027W        W90810  43.679  37.149   4.410
24028W        W90811   9.983  34.991   4.574
24029W        W90812  31.318  12.060  11.118
24030W        W90813  43.895  28.186   0.335
24031W        W90814   0.027  33.831  14.781
24032W        W90815  16.106   2.493  10.668
24033W        W90816  37.082  23.990   1.514
24034W        W90817  26.683  31.682  11.115
24035W        W90818  22.182  18.964  11.654
24036W        W90819  29.099  31.391  12.840
24037W        W90820   6.681  44.783  10.688
24038W        W90821   0.362  44.032   1.266
24039W        W90822  20.759   9.202   4.156
24040W        W90823   7.145   3.748   4.428
24041W        W90824  12.899   4.798  11.083
24042W        W90825   3.446  35.236   4.030
24043W        W90826   6.804  20.032  11.988
24044W        W90827  42.286  20.205   4.372
24045W        W90828   1.684  35.872  14.526
24046W        W90829  42.295  42.957   2.343
24047W        W90830  27.295  26.088  11.659
24048W        W90831  11.890   8.961   2.913
24049W        W90832  37.294  25.147  11.037
24050W        W90833  33.429  27.009  12.044
24051W        W90834   4.918  37.618  11.095
24052W        W90835  14.811  14.783  11.856
24053W        W90836  34.844  39.392  12.446
24054W        W90837   1.798   7.694   9.998
24055W        W90838   8.760  28.730  11.293
24056W        W90839  43.046   4.485  10.625
24057W        W90840  28.541  40.546  13.928
24058W        W90841   0.338   4.268   3.150
24059W        W90842  43.858  34.281  10.981
24060W        W90843  12.445  31.602   1.016
24061W        W90844   5.349   5.744  13.799
24062W        W90845  14.259  33.953   0.264
24063W        W90846  30.350  24.116  11.588
24064W        W90847  14.335  22.148   4.152
24065W        W90848  24.315  33.917  10.723
24066W        W90849  42.215  13.725   3.602
24067W        W90850  26.216   3.738  11.589
24068W        W90851   4.294  35.866   3.732
24069W        W90852  30.156  28.862   4.627
24070W        W90853  44.292  31.271   3.390
24071W        W90854   5.527  13.912   2.302
24072W        W90855  19.026  23.199  14.982
24073W        W90856  17.833   9.611   3.161
24074W        W90857  35.206   8.878   1.643
24075W        W90858   2.581  36.001   1.792
24076W        W90859  24.088  26.663   1.218
24077W        W90860  36.584  34.019  11.638
24078W        W90861   0.318  30.623  14.353
24079W        W90862  12.328  32.601  11.484
24080W        W90863  29.913  26.426  14.385
24081W        W90864   9.426  29.878  14.348
24082W        W90865  26.172  41.790  11.626
24083W        W90866   3.327   7.855  10.747
24084W        W90867   6.362  38.958  12.831
24085W        W90868  11.137   6.934   0.700
24086W        W90869   4.319  12.897  14.679
24087W        W90870   2.290  31.894  13.896
24088W        W90871   5.269  26.396   0.048
24089W        W90872  22.945  27.234  12.447
24090W        W90873  22.233  26.894   2.276
24091W        W90874  18.528  34.718  14.812
24092W        W90875  35.145  25.977  12.574
24093W        W90876  44.387  13.750   0.837
24094W        W90877  13.303  15.039   2.858
24095W        W90878  13.762   4.360   3.066
24096W        W90879  38.603   8.207   9.834
24097W        W90880  34.594  10.373  11.042
24098W        W90881   8.621  39.434   3.672
24099W        W90882  16.089   2.279   4.207
24100W        W90883   8.737  42.482   3.701
24101W        W90884   3.687  23.400  10.760
24102W        W90885  24.598  16.644  11.503
24103W        W90886  39.575  25.684  12.908
24104W        W90887  21.460  16.202   2.725
24105W        W90888   3.012   0.223  13.993
24106W        W90889  11.704  33.074  13.297
24107W        W90890  27.107   6.312  11.171
24108W        W90891  31.993   5.633   2.712
24109W        W90892  29.379  19.178  11.484
24110W        W90893  21.549  31.618   4.475
24111W        W90894  39.582  39.136   1.328
24112W        W90895  44.041  25.482  14.892
24113W        W90896  22.561   5.236  12.642
24114W        W90897  26.705   8.140   2.053
24115W        W90898  10.881  37.352  12.078
24116W        W90899   5.282  44.011  14.389
24117W        W90900  34.976  15.180  12.899
24118W        W90901  42.780  33.731   1.266
24119W        W90902   4.471  30.780   2.614
24120W        W90903  35.163  19.404   0.286
24121W        W90904  10.309  15.724   4.585
24122W        W90905  16.235  34.943   2.470
24123W        W90906  25.454  24.479  14.822
24124W        W90907  24.567  28.078   2.172
24125W        W90908  36.983  44.664  11.502
24126W        W90909   1.972  12.172   3.750
24127W        W90910  20.768  27.151   0.305
24128W        W90911   6.492  37.585   5.109
24129W        W90912  20.950  23.114   2.488
24130W        W90913   2.246  41.458  10.694
24131W        W90914  35.685  10.843   3.720
24132W        W90915  30.610  36.964  12.821
24133W        W90916   2.236   5.156  12.350
24134W        W90917   3.682  41.557  11.622
24135W        W90918   9.116  36.513   0.006
24136W        W90919  13.035  11.462  12.057
24137W        W90920   8.716  14.396  12.170
24138W        W90921  10.911  33.999   4.592
24139W        W90922  42.343  44.706   3.718
24140W        W90923  18.265  27.128  11.652
24141W        W90924  22.570  37.860   1.821
24142W        W90925  20.254   5.429  12.939
24143W        W90926  42.515  11.800   1.414
24144W        W90927  34.122  22.637   4.581
24145W        W90928  13.201  28.421  13.542
24146W        W90929  28.023  18.895   1.047
24147W        W90930  39.506  35.424   4.535
24148W        W90931  35.024   4.183  10.256
24149W        W90932   8.153  19.190   1.877
24150W        W90933  29.884  39.453   5.006
24151W        W90934  34.713  19.995   4.066
24152W        W90935  44.172  25.572   3.440
24153W        W90936  22.022  42.587   0.165
24154W        W90937  27.712   6.612  12.883
24155W        W90938   7.185   9.732  11.680
24156W        W90939  22.634   4.416  11.148
24157W        W90940  40.854  29.145   3.195
24158W        W90941  13.597  10.433  12.844
24159W        W90942  21.699  28.707   2.293
24160W        W90943  39.778  44.348  11.576
24161W        W90944  41.392  27.505  14.540
24162W        W90945  31.482  30.079   1.331
24163W        W90946   5.290  16.567   2.387
24164W        W90947  38.090  39.070  11.172
24165W        W90948  43.449  21.229   3.237
24166W        W90949   6.410  20.642   3.726
24167W        W90950  44.496  29.206   1.501
24168W        W90951  32.716  34.023   2.850
24169W        W90952   9.370  33.083   4.556
24170W        W90953  31.093  40.635   4.591
24171W        W90954  10.974  20.511  10.601
24172W        W90955   1.212  32.011  12.143
24173W        W90956  14.750  23.487  12.004
24174W        W90957  19.318   7.514   0.750
24175W        W90958   8.702   5.937   2.187
24176W        W90959  19.700  20.542   0.503
24177W        W90960  26.658  15.501   4.138
24178W        W90961  43.169  24.725   0.664
24179W        W90962   9.809  26.438   1.435
24180W        W90963  44.815   0.183  12.467
24181W        W90964  40.220  29.023  12.796
24182W        W90965  24.214   8.500  13.792
24183W        W90966   6.879  26.466  14.520
24184W        W90967  36.123   5.837   3.725
24185W        W90968   2.588  41.890   4.082
24186W        W90969  40.838  21.529  13.409
24187W        W90970  39.924   2.873   4.416
24188W        W90971  44.901  43.690  14.086
24189W        W90972  20.702  16.029   3.113
24190W        W90973  34.967   3.790  14.412
24191W        W90974  21.292  23.395  10.484
24192W        W90975   8.806  10.273   2.633
24193W        W90976  37.990  19.489  12.482
24194W        W90977  32.993  33.079  11.632
24195W        W90978  26.361   3.724   9.783
24196W        W90979  35.438   8.356  13.129
24197W        W90980  19.651  33.030   4.653
24198W        W90981  14.672  26.479   3.721
24199W        W90982  17.069  19.711  11.177
24200W        W90983  41.624  20.152  13.315
24201W        W90984  11.909  24.260   2.812
24202W        W90985   7.788  44.894   1.975
24203W        W90986  19.931  13.602   1.995
24204W        W90987   8.625  32.206   0.301
24205W        W90988  32.065  39.812   0.739
24206W        W90989   4.827   7.765  11.561
24207W        W90990  39.746   4.913  14.996
24208W        W90991  43.685   3.930  12.658
24209W        W90992  32.993   4.570  12.731
24210W        W90993  15.069   2.756  12.028
24211W        W90994  26.608   7.277   2.538
24212W        W90995  32.291  39.018  13.782
24213W        W90996  25.113  31.492  12.430
24214W        W90997  16.358  39.875   2.313
24215W        W90998  39.894  25.513   0.670
24216W        W90999  34.989  20.376   0.527
24217W        W91000  13.862  41.263   0.262
24218W        W91001  10.666  44.329  10.052
24219W        W91002  32.785  43.461   3.381
24220W        W91003  12.655   9.933  10.720
24221W        W91004   0.571  28.045  12.151
24222W        W91005   2.797   6.493  12.571
24223W        W91006  14.625  12.818  13.084
24224W        W91007  36.023  17.973  14.526
24225W        W91008  25.417  34.939  12.491
24226W        W91009  16.721  17.740   0.692
24227W        W91010  16.103  13.989   0.238
24228W        W91011  36.455  12.368   0.569
24229W        W91012  27.956  22.228   1.755
24230W        W91013  28.431  32.686   4.048
24231W        W91014  19.535  41.697   5.062
24232W        W91015  34.656  34.168   2.257
24233W        W91016   7.919   8.660  14.130
24234W        W91017   0.776  26.564  11.317
24235W        W91018  13.173  29.511   3.298
24236W        W91019  19.032  13.709  13.807
24237W        W91020  17.539  18.046  11.795
24238W        W91021  32.915  42.697  11.666
24239W        W91022  20.111   3.228  13.472
24240W        W91023  22.479   3.528   0.458
24241W        W91024  17.670  28.130  13.595
24242W        W91025   3.250  21.871   4.113
24243W        W91026   5.823   5.819   1.401
24244W        W91027  17.741   3.321   2.201
24245W        W91028   0.253   8.322   0.880
24246W        W91029  31.825   2.685   4.179
24247W        W91030  15.256  38.006   0.541
24248W        W91031  20.097   4.005   2.206
24249W        W91032  32.461  20.787  14.356
24250W        W91033  33.616   3.687  11.458
24251W        W91034   3.724  10.007  14.198
24252W        W91035  31.166  42.711   2.817
24253W        W91036  18.014  19.667   1.347
24254W        W91037  38.584  35.061  13.464
24255W        W91038  31.574   9.443   0.309
24256W        W91039  31.875   9.169  11.224
24257W        W91040  41.501  19.680   4.872
24258W        W91041  13.751  28.928   1.933
24259W        W91042  22.258  39.369  13.540
24260W        W91043  18.703  14.828  13.824
24261W        W91044  27.042  42.317   2.862
24262W        W91045   5.804  36.581   3.336
24263W        W91046  22.781  44.442   1.660
24264W        W91047  11.688  26.107   2.838
24265W        W91048  40.699   9.687  12.493
24266W        W91049  36.790  11.244   4.444
24267W        W91050  41.858  34.188  11.596
24268W        W91051   4.440  30.750   4.322
24269W        W91052  39.151   1.811  12.799
24270W        W91053  35.487  39.051  11.574
24271W        W91054   5.804  34.792  14.524
24272W        W91055   7.451   0.775  12.133
24273W        W91056  41.075  36.881   1.825
24274W        W91057  43.176  19.274  13.070
24275W        W91058  30.064  41.830  12.508
24276W        W91059  27.614  22.029   3.225
24277W        W91060  36.334   5.182   2.737
24278W        W91061  21.792  26.542   0.034
24279W        W91062  42.805  39.970  12.025
24280W        W91063  33.488  12.803   0.637
24281W        W91064   3.725  15.678   2.680
24282W        W91065  16.538  20.152  12.317
24283W        W91066   1.492  21.053  11.927
24284W        W91067   6.416   7.804   4.391
24285W        W91068  38.012   9.185  12.636
24286W        W91069  21.540  32.593   1.420
24287W        W91070   2.599  16.795  12.104
24288W        W91071  19.241  25.278   3.214
24289W        W91072  14.624  17.048  14.795
24290W        W91073  11.216  24.556  10.606
24291W        W91074  39.902  25.180   0.225
24292W        W91075  43.598   1.897  13.221
24293W        W91076  21.101  12.590  10.623
24294W        W91077  14.636  43.239   1.296
24295W        W91078  44.809  13.281  14.786
24296W        W91079  21.501  28.237   2.250
24297W        W91080  22.348  16.364   3.643
24298W        W91081  38.174  41.947   1.837
24299W        W91082  31.045   3.296   1.465
24300W        W91083  37.397   6.549  13.908
24301W        W91084  26.481   1.072   2.944
24302W        W91085  34.851   4.713   2.187
24303W        W91086  28.440  35.675   2.857
24304W        W91087   2.440  21.310   4.520
24305W        W91088  12.076  42.109  10.529
24306W        W91089  31.599  28.922  14.442
24307W        W91090  38.308  42.431   2.236
24308W        W91091  36.521  29.345   2.240
24309W        W91092  29.894  17.179  10.763
24310W        W91093   9.104  29.034   4.507
24311W        W91094  16.418  44.295   4.466
24312W        W91095   7.702  13.683   3.357
24313W        W91096  15.655  14.861  11.571
24314W        W91097  37.062  43.433  12.605
24315W        W91098  14.642   6.390  12.436
24316W        W91099   7.878  43.240  12.589
24317W        W91100   3.664  17.246  12.683
24318W        W91101  18.296  13.830  14.561
24319W        W91102   3.463  33.898   3.260
24320W        W91103  15.125  19.639  10.992
24321W        W91104  23.657   2.776  12.939
24322W        W91105   6.484  23.151  13.031
24323W        W91106  30.984  11.859   5.244
24324W        W91107   6.651  35.071  13.896
24325W        W91108  26.162  40.024  12.121
24326W        W91109  17.073  13.746   2.772
24327W        W91110  30.089  11.395   4.325
24328W        W91111  42.415  37.055  11.148
24329W        W91112  14.133  43.015   1.234
24330W        W91113   6.394  18.846   4.857
24331W        W91114  34.857  40.702   4.121
24332W        W91115  40.405  36.236   3.287
24333W        W91116   1.049   6.192   3.061
24334W        W91117  37.395  12.620   1.225
24335W        W91118  42.764  17.670   0.016
24336W        W91119  34.158   0.373   0.896
24337W        W91120  38.592  13.089   0.857
24338W        W91121  38.425  32.930  13.370
24339W        W91122  36.443  44.450   3.625
24340W        W91123  24.143  12.780  14.940
24341W        W91124   8.276  22.433  10.421
24342W        W91125   7.469  30.564   4.148
24343W        W91126  36.862  20.163  14.886
24344W        W91127   2.388  33.172   1.638
24345W        W91128   6.918  26.981   1.375
24346W        W91129  11.217  23.636   1.791
24347W        W91130  10.260  41.270  12.711
24348W        W91131  35.954  32.070  11.661
24349W        W91132  42.291  20.224   3.373
24350W        W91133  31.027  34.334  11.556
24351W        W91134   3.825  12.112  14.750
24352W        W91135  18.721  18.050   0.839
24353W        W91136  44.365   6.672   4.490
24354W        W91137  23.243  19.627  13.248
24355W        W91138  21.225  19.364   4.975
24356W        W91139  31.861  38.449  11.758
24357W        W91140  31.455  22.088   1.256
24358W        W91141  23.408  23.638  14.478
24359W        W91142  25.461  12.168   4.062
24360W        W91143  21.446  44.809  13.776
24361W        W91144  29.549   1.758  10.710
24362W        W91145  13.690  11.369  10.871
24363W        W91146  40.629   0.151  13.709
24364W        W91147   4.772  10.792   4.452
24365W        W91148  35.589  30.069  13.015
24366W        W91149  37.818  22.017   3.958
24367W        W91150   1.762  25.263   0.292
24368W        W91151  13.498   0.979   1.683
24369W        W91152  38.562  34.967   0.843
24370W        W91153   2.465  35.612   2.796
24371W        W91154   9.744  29.077  12.123
24372W        W91155  21.988  28.917   0.627
24373W        W91156   4.770  19.791   4.912
24374W        W91157  11.785   1.333   1.897
24375W        W91158  30.943   2.594   0.236
24376W        W91159  29.889  27.609  10.702
24377W        W91160  40.860  36.748  14.021
24378W        W91161  34.245  38.620  12.523
24379W        W91162   4.187  41.775   0.812
24380W        W91163  18.038   5.962  11.987
24381W        W91164  14.680   1.319   2.819
24382W        W91165  16.016   5.539   3.842
24383W        W91166  28.172  19.918   1.218
24384W        W91167  17.443  40.527   4.418
24385W        W91168  35.937  42.996  14.891
24386W        W91169   3.118  35.016   3.691
24387W        W91170   6.135   0.361  13.926
24388W        W91171  30.966  22.480   3.293
24389W        W91172  38.377  25.432   2.856
24390W        W91173  44.253   0.291   9.770
24391W        W91174   7.656  31.569   4.573
24392W        W91175  32.225  36.528  10.427
24393W        W91176  33.891  20.246  14.247
24394W        W91177  43.238  20.148   4.703
24395W        W91178  30.088   4.634   1.407
24396W        W91179   6.978  18.171  12.438
24397W        W91180  40.923  21.272   2.315
24398W        W91181   4.310  14.598  14.495
24399W        W91182  21.249  37.509   3.311
24400W        W91183  39.193  39.359   3.560
24401W        W91184  18.051  23.789  13.220
24402W        W91185   6.375  42.508   1.686
24403W        W91186  26.099   1.140  14.841
24404W        W91187  16.028  36.243  13.393
24405W        W91188  32.329  37.595   2.692
24406W        W91189  39.977   8.964   5.024
24407W        W91190  17.555  23.468  12.915
24408W        W91191   8.587   7.624   2.891
24409W        W91192  13.623  37.447   3.664
24410W        W91193  19.625  14.392  13.436
24411W        W91194  44.266   6.808   1.832
24412W        W91195  23.618  20.520   0.021
24413W        W91196  13.197  17.092  14.272
24414W        W91197   3.476   3.272  11.981
24415W        W91198  37.289   9.291   3.200
24416W        W91199  33.382  43.376  14.795
24417W        W91200  32.049  18.736   2.802
24418W        W91201  20.075   1.218   0.948
24419W        W91202   9.359  32.948  12.953
24420W        W91203  12.029  28.933  14.867
24421W        W91204  20.641  14.776   2.592
24422W        W91205   6.425  24.844  11.172
24423W        W91206  20.781  29.132  14.773
24424W        W91207  31.098   3.209   0.467
24425W        W91208   3.672  26.595  14.734
24426W        W91209   5.728   8.582  11.115
24427W        W91210  22.434  27.245   4.156
24428W        W91211  29.172  29.597  13.518
24429W        W91212  17.338  40.401   3.307
24430W        W91213  24.638  27.121   9.739
24431W        W91214  23.491   6.437   0.678
24432W        W91215   1.554   5.587  14.195
24433W        W91216  39.457  12.603  13.414
24434W        W91217  10.211  27.649   1.162
24435W        W91218  10.709  22.248  11.958
24436W        W91219   0.900  20.276  10.737
24437W        W91220   4.913   5.399   1.255
24438W        W91221  26.208  10.683  11.640
24439W        W91222  15.264  32.116  11.982
24440W        W91223  35.082  29.653  12.013
24441W        W91224  44.236   2.848  13.272
24442W        W91225  28.192  28.463   4.390
24443W        W91226  31.607  31.675  10.522
24444W        W91227  37.121  41.935   2.125
24445W        W91228   7.473   6.847  14.930
24446W        W91229   9.866  44.979   0.417
24447W        W91230   1.561  27.704  13.398
24448W        W91231  40.023   2.295   0.434
24449W        W91232   8.740   1.855   3.908
24450W        W91233  18.048  38.295  14.328
24451W        W91234  42.984  43.564   0.344
24452W        W91235  14.255  28.203  11.548
24453W        W91236  16.843  35.468  11.078
24454W        W91237  25.960  11.157  14.381
24455W        W91238  29.459  35.678  14.924
24456W        W91239  28.936  17.949   3.812
24457W        W91240  43.194  40.506  12.812
24458W        W91241  38.978   4.031   1.269
24459W        W91242  16.634   3.210  14.906
24460W        W91243  35.579   3.030   3.334
24461W        W91244  10.166  14.382   1.210
24462W        W91245  32.920  25.725   1.844
24463W        W91246  28.020  23.312  11.699
24464W        W91247  44.333  17.051  12.917
24465W        W91248   5.965  31.437   3.351
24466W        W91249  18.566  15.688   1.536
24467W        W91250  30.959  24.709  12.915
24468W        W91251  32.138  23.648  11.625
24469W        W91252  26.559   0.242   0.549
24470W        W91253  22.106  36.050   0.333
24471W        W91254  29.829   4.216  14.875
24472W        W91255   9.414  20.541   1.695
24473W        W91256  35.481  31.652   0.415
24474W        W91257   8.628  11.036  10.201
24475W        W91258  37.744   5.378   1.326
24476W        W91259  27.042  18.579  13.240
24477W        W91260  36.094  34.972   1.943
24478W        W91261  22.223  19.988  11.678
24479W        W91262  17.920  34.493   2.153
24480W        W91263  21.979  26.679   3.603
24481W        W91264  39.823  19.862  10.715
24482W        W91265  22.184  44.877  13.046
24483W        W91266  20.199  29.915   2.257
24484W        W91267   8.638   6.676  11.893
24485W        W91268  37.210  17.525   2.317
24486W        W91269   7.669  14.091   1.975
24487W        W91270  19.618   1.378   0.789
24488W        W91271  20.135  39.847  13.805
24489W        W91272  42.366  43.053  12.884
24490W        W91273  37.359  20.197  11.631
24491W        W91274   5.693  36.924  14.876
24492W        W91275   7.225   1.979   0.419
24493W        W91276   1.900  35.605   1.716
24494W        W91277   8.449  20.381  14.851
24495W        W91278   7.117  37.890  13.718
24496W        W91279  32.281  39.581  11.169
24497W        W91280  40.399   8.911  14.830
24498W        W91281  42.703  22.031  12.372
24499W        W91282  27.436  14.461   1.861
24500W        W91283  34.688  39.764  11.203
24501W        W91284  43.230  28.215   1.521
24502W        W91285   7.208  43.654  11.905
24503W        W91286   2.778  36.298  12.389
24504W        W91287   5.986   1.681  14.543
24505W        W91288  40.783  34.344  12.023
24506W        W91289  39.098  26.951  12.629
24507W        W91290  31.115  24.692  14.275
24508W        W91291  20.457  40.819  10.654
24509W        W91292   7.384   2.441   4.581
24510W        W91293   5.176  28.436  14.190
24511W        W91294   3.829  18.100   3.195
24512W        W91295  29.118  22.973  14.958
24513W        W91296  21.166  41.049  12.516
24514W        W91297  28.715   1.934   4.240
24515W        W91298  39.061  24.906   3.358
24516W        W91299  42.541  16.488   1.753
24517W        W91300   8.219  23.091  12.518
24518W        W91301  25.738   5.032  10.963
24519W        W91302  12.147  22.144   2.729
24520W        W91303  17.601  19.306  13.261
24521W        W91304  28.461  22.756   3.594
24522W        W91305  30.427  34.430  13.836
24523W        W91306  28.885  26.164  12.653
24524W        W91307  17.572  21.696  11.513
24525W        W91308   9.740  22.159   2.355
24526W        W91309  18.085   2.827  13.512
24527W        W91310  23.722  39.150  11.146
24528W        W91311  30.607   1.417   4.221
24529W        W91312   5.362   8.399   1.333
24530W        W91313  23.702  22.586  14.256
24531W        W91314  35.585  42.356   2.742
24532W        W91315  34.934  40.399   0.281
24533W        W91316  36.901  32.932   4.583
24534W        W91317  17.964  10.421   2.857
24535W        W91318   3.174  13.118  11.036
24536W        W91319  21.295  39.870   0.257
24537W        W91320  14.783   7.742   0.308
24538W        W91321  17.511   7.177   2.419
24539W        W91322  22.617   3.427  11.099
24540W        W91323  44.438   4.220  14.351
24541W        W91324  16.722  38.516   1.442
24542W        W91325  30.856   3.145  11.999
24543W        W91326  11.967  11.597   9.852
24544W        W91327  41.253  15.134   2.253
24545W        W91328  25.782  32.209   3.147
24546W        W91329  43.086  40.841   3.211
24547W        W91330  13.095  29.422  10.711
24548W        W91331  22.260  25.942   4.350
24549W        W91332  26.212  33.326  13.990
24550W        W91333  10.062   2.419  11.524
24551W        W91334   2.495   9.076  11.871
24552W        W91335   0.242  28.257   4.503
24553W        W91336  35.282  41.606  11.039
24554W        W91337  42.768  19.557  13.949
24555W        W91338  15.784  18.027   2.883
24556W        W91339  26.662  26.987  14.764
24557W        W91340  20.060  35.845  13.117
24558W        W91341   5.421   6.390  13.067
24559W        W91342  40.612  30.419  14.457
24560W        W91343  12.620  20.645   3.637
24561W        W91344  37.136  31.727   1.646
24562W        W91345  22.081  35.397  11.951
24563W        W91346  43.375  26.569   2.369
24564W        W91347  25.527   3.257  11.898
24565W        W91348  35.252  36.700   1.389
24566W        W91349  21.207  15.244  14.709
24567W        W91350   2.136  33.651   0.597
24568W        W91351  33.884  23.933   4.160
24569W        W91352  41.246  18.689   3.578
24570W        W91353  23.486  44.928   4.099
24571W        W91354  21.481  15.764  14.844
24572W        W91355  34.647   6.651  11.578
24573W        W91356   6.879  17.515   2.768
24574W        W91357  12.887  25.038   3.119
24575W        W91358  34.867  14.615   2.706
24576W        W91359  24.696  18.049   2.461
24577W        W91360  19.051  15.062  14.377
24578W        W91361  37.505   5.661   2.138
24579W        W91362  25.644   4.642   1.617
24580W        W91363   2.094  23.274   3.777
24581W        W91364   2.664  25.493  11.231
24582W        W91365   3.912   8.962  14.375
24583W        W91366  34.911  44.819   0.478
24584W        W91367  14.129  40.307  12.458
24585W        W91368  12.713  25.737   3.754
24586W        W91369   9.472   6.363   0.688
24587W        W91370  39.600   9.737   1.947
24588W        W91371  23.560  28.180  12.056
24589W        W91372   5.959  32.210  14.750
24590W        W91373  44.997   7.725   0.287
24591W        W91374  23.698  35.616  11.554
24592W        W91375  41.005  42.152  13.693
24593W        W91376  43.082  12.746   0.279
24594W        W91377  11.328  13.312   2.312
24595W        W91378   7.911  36.108   1.893
24596W        W91379  21.630  32.850  11.837
24597W        W91380  10.155   4.682   3.780
24598W        W91381  19.226  38.168   4.145
24599W        W91382  20.555  17.599   4.564
24600W        W91383  13.138  39.917   1.329
24601W        W91384  16.705  26.685   4.388
24602W        W91385  39.150  31.562  11.197
24603W        W91386  25.918  38.382   1.490
24604W        W91387  39.342   6.743  14.030
24605W        W91388  23.446   6.925   3.909
24606W        W91389  40.413  10.311  10.841
24607W        W91390  35.605  25.038  14.545
24608W        W91391   8.894  18.762   3.316
24609W        W91392  37.029   6.434  11.178
24610W        W91393  40.041   4.514  13.762
24611W        W91394  26.999  12.288  11.499
24612W        W91395  21.046  26.977  12.614
24613W        W91396  23.141  18.969  11.510
24614W        W91397  30.383  39.460  13.791
24615W        W91398  30.912  28.062   1.299
24616W        W91399   1.865   9.063  13.422
24617W        W91400  33.148  10.574   3.740
24618W        W91401  17.728  44.212   1.406
24619W        W91402   8.186  29.844   1.843
24620W        W91403  14.831  33.401  14.835
24621W        W91404  20.553   7.681  13.386
24622W        W91405  18.806  38.278   1.967
24623W        W91406  16.838   7.711  14.564
24624W        W91407  41.327   9.636   0.054
24625W        W91408   4.952  25.682   0.802
24626W        W91409  33.300  30.248   2.635
24627W        W91410  18.588  24.064  10.792
24628W        W91411  39.026  43.570   3.792
24629W        W91412  39.315  15.745  12.420
24630W        W91413  29.433  38.265  11.849
24631W        W91414   7.246  35.628   4.411
24632W        W91415  34.039  20.019   1.711
24633W        W91416  40.471  18.101   2.148
24634W        W91417  11.641  42.094   2.715
24635W        W91418  10.127  43.510  14.399
24636W        W91419  29.557  33.182   2.711
24637W        W91420   3.496  36.914   3.223
24638W        W91421  44.817  23.537   3.688
24639W        W91422  21.031  18.660   2.733
24640W        W91423  18.522  26.106   0.005
24641W        W91424  20.686  35.087   0.862
24642W        W91425  44.717   9.634   2.762
24643W        W91426   4.667  32.059   5.166
24644W        W91427  25.979  28.112   4.156
24645W        W91428  31.974  20.963   3.251
24646W        W91429  32.275  37.933  12.401
24647W        W91430  33.960  43.535  10.669
24648W        W91431  28.194  36.830   0.693
24649W        W91432  12.492  37.624   4.183
24650W        W91433  31.935  15.378  14.480
24651W        W91434  19.141  22.543  13.828
24652W        W91435  34.609  34.884   1.450
24653W        W91436  39.018   1.929   2.331
24654W        W91437  31.325  32.030  10.789
24655W        W91438  18.486  43.288   4.227
24656W        W91439  32.089   0.798  14.807
24657W        W91440  15.831  43.821   2.050
24658W        W91441  13.860   6.229  14.804
24659W        W91442  40.874  27.552  12.563
24660W        W91443  44.428  19.213  11.975
24661W        W91444  28.097  29.543  10.900
24662W        W91445  16.861  11.903  14.459
24663W        W91446   1.426  17.748  14.463
24664W        W91447   7.783   5.839   2.632
24665W        W91448  29.030  16.678  14.887
24666W        W91449  42.794  30.563  12.927
24667W        W91450  22.130   9.718   3.707
24668W        W91451  26.466  13.591  11.524
24669W        W91452  21.555  26.916   3.197
24670W        W91453  41.875  44.993   3.818
24671W        W91454  44.615  32.815   0.997
24672W        W91455  32.586  11.428   1.939
24673W        W91456  32.902  20.482  13.499
24674W        W91457  33.626  36.818  11.176
24675W        W91458  30.486  28.011  12.970
24676W        W91459   3.307  36.065  14.218
24677W        W91460  43.215  44.765  13.765
24678W        W91461  36.640  16.068  13.813
24679W        W91462  39.809  36.549   3.717
24680W        W91463   1.720  18.856   4.917
24681W        W91464  36.922  21.031   2.949
24682W        W91465  21.092  41.079  13.043
24683W        W91466  36.318  32.344  12.054
24684W        W91467   2.798  10.722   3.385
24685W        W91468  25.410  13.687   3.187
24686W        W91469  16.706  24.968  13.799
24687W        W91470  30.182  27.574  12.927
24688W        W91471   1.020   3.068   2.477
24689W        W91472   5.918  26.489  14.484
24690W        W91473  20.059  12.292   4.663
24691W        W91474  31.121   4.924   4.551
24692W        W91475   6.372  28.093   3.263
24693W        W91476  34.799  15.614   4.241
24694W        W91477   6.162  17.061  13.049
24695W        W91478   0.462  40.817   4.447
24696W        W91479  31.831   9.731   4.906
24697W        W91480  18.586   5.938  11.976
24698W        W91481   0.851  13.323  12.600
24699W        W91482   1.934  43.240   0.823
24700W        W91483   2.491  32.174   3.158
24701W        W91484  12.302   0.561   0.343
24702W        W91485  42.816  35.402   0.490
24703W        W91486  30.501  16.833  11.097
24704W        W91487  25.017  38.859   1.726
24705W        W91488  21.777  27.345  13.347
24706W        W91489  26.057  14.306   0.953
24707W        W91490   2.848  41.028  12.050
24708W        W91491  16.279  39.302   1.252
24709W        W91492  24.672   9.908   4.457
24710W        W91493   9.822  33.495   0.242
24711W        W91494  22.068  16.500   3.219
24712W        W91495  25.448   6.511   2.936
24713W        W91496  32.137  22.093  11.677
24714W        W91497  28.417  15.285  10.366
24715W        W91498  20.017  11.050   0.958
24716W        W91499  33.270  18.993   4.727
24717W        W91500   2.960   2.996   0.206
24718W        W91501  18.461  38.553  14.170
24719W        W91502  27.027  36.132   3.387
24720W        W91503  36.303   0.254  11.964
24721W        W91504  26.046  20.366  12.673
24722W        W91505   5.802   5.837  13.571
24723W        W91506  41.393  23.115   4.386
24724W        W91507   2.327  38.338  12.385
24725W        W91508  18.325   0.391  14.113
24726W        W91509  10.276  42.563  13.332
24727W        W91510  16.796  19.580  11.640
24728W        W91511  12.337  18.334  14.768
24729W        W91512  36.561  23.122  14.973
24730W        W91513   2.538  37.041  14.011
24731W        W91514  15.656  33.998  14.186
24732W        W91515  38.629  22.806  13.430
24733W        W91516   7.418  29.442   0.416
24734W        W91517   1.975  36.486  14.877
24735W        W91518  37.337   4.730   4.543
24736W        W91519  27.428  30.724  12.512
24737W        W91520  40.359   4.899  12.458
24738W        W91521   4.211  36.415   4.400
24739W        W91522  23.620   6.922  13.471
24740W        W91523  28.383  20.178   0.473
24741W        W91524   7.843  34.355  11.093
24742W        W91525  10.647  23.028  12.926
24743W        W91526  10.205   4.132  10.668
24744W        W91527  31.692  44.694  11.571
24745W        W91528   1.719   5.865   4.857
24746W        W91529  14.035  35.556  11.585
24747W        W91530  12.415   6.318   2.819
24748W        W91531  25.441  11.595   3.327
24749W        W91532  32.884  30.459  13.573
24750W        W91533  16.409  25.642  11.606
24751W        W91534  41.476  29.175   1.141
24752W        W91535  29.414  20.486   1.342
24753W        W91536  20.605  25.906   1.966
24754W        W91537   0.933  14.112  10.975
24755W        W91538  38.781  34.407  14.863
24756W        W91539  42.177  33.456   1.675
24757W        W91540  37.251  40.531   3.857
24758W        W91541  15.805  18.285  14.036
24759W        W91542  14.638   6.284   1.903
24760W        W91543  24.960   8.475  11.662
24761W        W91544  32.956  28.007  12.941
24762W        W91545  15.629  17.658  13.301
24763W        W91546  37.932  19.889  13.867
24764W        W91547  26.242  30.799   0.296
24765W        W91548  14.515  14.061  13.930
24766W        W91549  15.637  43.870  12.056
24767W        W91550  35.444  19.947   0.744
24768W        W91551  40.344  32.328   2.413
24769W        W91552  32.162  43.691  12.426
24770W        W91553  36.558  10.597  14.327
24771W        W91554   3.285  18.355   1.691
24772W        W91555  20.335  16.706  11.110
24773W        W91556   1.278  31.000   0.191
24774W        W91557  31.476  29.129  11.373
24775W        W91558   2.861  13.946   2.849
24776W        W91559  10.769  41.627  11.174
24777W        W91560  22.224   2.279   0.452
24778W        W91561  31.420   8.219   3.134
24779W        W91562  29.013  31.491  13.916
24780W        W91563   8.557  41.246   2.137
24781W        W91564  34.998  31.002  13.522
24782W        W91565  36.512  21.059  13.865
24783W        W91566  16.782  14.587  12.949
24784W        W91567   1.831  17.808  10.965
24785W        W91568  31.596   4.949  14.898
24786W        W91569  29.195   6.045   1.910
24787W        W91570  17.566  36.327  12.404
24788W        W91571   6.191  37.390  14.904
24789W        W91572  13.707  19.262   1.191
24790W        W91573  20.738   3.883   1.839
24791W        W91574  34.694  11.480   3.618
24792W        W91575  27.612  33.525  13.486
24793W        W91576   1.437  19.083  10.773
24794W        W91577  36.578  42.038   1.013
24795W        W91578  28.206   7.191  13.878
24796W        W91579  30.109  41.502   4.146
24797W        W91580  33.232  38.731  14.696
24798W        W91581  34.342  33.896  13.449
24799W        W91582  26.103  23.773  13.863
24800W        W91583  33.520  21.198  12.643
24801W        W91584   1.862   8.032  13.511
24802W        W91585  14.049  44.114  11.549
24803W        W91586   9.328  34.093   2.815
24804W        W91587  11.232  44.864   0.965
24805W        W91588   0.311   5.273  13.800
24806W        W91589  37.982   6.913   3.692
24807W        W91590  10.649   5.855   0.055
24808W        W91591  32.729   8.339   4.044
24809W        W91592   3.425  32.342  11.546
24810W        W91593   3.311  12.108   2.750
24811W        W91594  41.410   0.944  12.172
24812W        W91595  16.027  14.819   1.236
24813W        W91596   6.866  27.727  12.283
24814W        W91597  18.070   5.842   4.392
24815W        W91598  19.781  19.618   2.760
24816W        W91599  44.325  11.910   1.261
24817W        W91600  23.000  20.107   2.639
24818W        W91601  11.724  27.441   2.378
24819W        W91602  18.479  15.306  10.820
24820W        W91603  22.733  12.944  10.970
24821W        W91604  44.779  22.494  14.532
24822W        W91605  35.924   3.837   3.670
24823W        W91606  10.697  14.826   0.857
24824W        W91607  15.790  11.721   1.337
24825W        W91608  43.297  29.660   2.216
24826W        W91609   8.502  38.491   4.185
24827W        W91610  22.813  43.395  11.080
24828W        W91611  19.708  11.388  13.970
24829W        W91612   7.353  13.081   4.506
24830W        W91613  35.260  44.859   2.279
24831W        W91614  17.499  26.923  13.885
24832W        W91615  33.424   4.202  12.806
24833W        W91616  36.268  17.757  12.155
24834W        W91617  44.304  23.561   3.713
24835W        W91618   6.950  44.504  14.554
24836W        W91619  23.155  36.178  11.053
24837W        W91620   6.931  31.981   3.662
24838W        W91621  28.763  28.473  12.120
24839W        W91622  18.666  35.799   4.088
24840W        W91623  17.821  25.803   1.234
24841W        W91624  44.808  26.203  11.531
24842W        W91625  34.691   8.274   2.701
24843W        W91626  18.176  36.490   3.775
24844W        W91627  16.198   7.291  12.027
24845W        W91628  22.235   4.693  11.089
24846W        W91629  40.305  32.517  11.570
24847W        W91630  37.856  32.808   3.213
24848W        W91631  40.782   4.919  11.535
24849W        W91632   0.236   0.520  11.223
24850W        W91633  21.977   4.405   1.999
24851W        W91634  11.331   4.925  10.437
24852W        W91635   1.928  26.765   4.187
24853W        W91636  10.719  30.043  14.504
24854W        W91637  37.699  14.480  11.450
24855W        W91638  27.026  27.494   1.674
24856W        W91639   6.391  20.651  11.880
24857W        W91640  24.269  25.055  14.652
24858W        W91641  44.371   0.338   2.454
24859W        W91642  14.601   6.163   1.395
24860W        W91643  14.758   3.796  11.648
24861W        W91644  15.977  41.592   3.399
24862W        W91645  13.970  40.982  14.427
24863W        W91646  30.017  24.453   3.665
24864W        W91647  20.730  39.124   4.802
24865W        W91648   8.680  42.538   0.095
24866W        W91649   1.304   2.433  13.490
24867W        W91650   6.570  38.361  11.631
24868W        W91651  29.518  12.908   1.446
24869W        W91652   8.685  18.707   1.487
24870W        W91653   9.939   5.294  14.782
24871W        W91654  23.101   1.421   1.696
24872W        W91655  19.371   4.252   0.114
24873W        W91656  38.476  27.057   2.705
24874W        W91657  31.665   3.355  11.185
24875W        W91658  33.275  33.615   2.336
24876W        W91659   3.011  10.272   4.667
24877W        W91660  38.798  30.588  11.416
24878W        W91661   9.593  41.909  13.722
24879W        W91662  39.382  39.533  12.426
24880W        W91663   7.010  41.225   4.719
24881W        W91664  14.248  33.588   1.519
24882W        W91665  39.508  13.271  14.536
24883W        W91666  15.286  26.985  11.857
24884W        W91667  15.559   3.377  11.639
24885W        W91668  29.115  44.415  12.632
24886W        W91669   3.180  10.253   4.163
24887W        W91670  31.493  28.400   4.364
24888W        W91671  39.920  21.728  11.060
24889W        W91672  37.614   0.484  11.616
24890W        W91673  18.225  14.109  14.975
24891W        W91674  23.013  41.967  11.161
24892W        W91675  20.492  39.615   4.200
24893W        W91676  42.584  32.004  13.405
24894W        W91677  33.982   4.623   4.209
24895W        W91678  14.097  25.328   2.877
24896W        W91679  27.648  15.732   1.295
24897W        W91680  13.497  30.817  14.467
24898W        W91681  16.215  22.023  13.797
24899W        W91682  29.122  25.633  13.131
24900W        W91683  27.029  22.282   1.908
24901W        W91684   4.959  39.777  12.882
24902W        W91685  14.622  28.938   1.890
24903W        W91686   9.829  19.792  13.977
24904W        W91687  35.017   7.591   0.945
24905W        W91688  42.415   5.060   1.217
24906W        W91689  19.652  17.577   0.846
24907W        W91690  10.526  30.718  11.819
24908W        W91691  11.767  23.707   1.369
24909W        W91692  11.348  38.584  14.324
24910W        W91693   4.425  36.404  11.894
24911W        W91694  28.075   4.450  11.192
24912W        W91695  12.420  37.680  10.899
24913W        W91696  42.565   2.998  12.385
24914W        W91697  32.222  11.468   4.548
24915W        W91698  26.671  38.974   2.072
24916W        W91699   1.960  31.422  11.539
24917W        W91700  42.080  34.363  12.538
24918W        W91701   4.829   6.327  11.722
24919W        W91702  43.060  22.507   0.386
24920W        W91703  25.207   6.708   1.640
24921W        W91704   1.853  10.608   3.301
24922W        W91705  11.876  15.811   2.342
24923W        W91706   3.740  12.275   3.307
24924W        W91707  11.249  23.197  13.908
24925W        W91708   5.819  15.085   1.985
24926W        W91709  34.187  44.117  13.946
24927W        W91710   3.946  36.316  13.572
24928W        W91711  32.898  32.504  11.122
24929W        W91712  37.106   7.964  10.648
24930W        W91713   8.976  10.071   1.152
24931W        W91714  32.618  25.398   0.892
24932W        W91715  42.352  38.420  14.326
24933W        W91716  40.590  32.363  11.184
24934W        W91717  28.966  20.061   0.370
24935W        W91718  39.592  18.089   2.307
24936W        W91719  32.913  30.475  14.534
24937W        W91720  19.258  43.353   4.265
24938W        W91721  43.946  40.376  11.069
24939W        W91722   3.692  32.964   3.922
24940W        W91723  28.523   7.637   3.900
24941W        W91724  27.481   9.724  11.842
24942W        W91725  32.114  25.762   4.550
24943W        W91726  22.441  25.701   1.674
24944W        W91727  37.814   1.961   4.066
24945W        W91728  27.616  11.113   1.670
24946W        W91729   8.840  31.198   1.188
24947W        W91730   7.254   9.923   3.856
24948W        W91731   6.892  38.034   3.477
24949W        W91732   4.486  38.848  12.494
24950W        W91733  14.736  11.177   4.877
24951W        W91734   6.337  11.835   1.866
24952W        W91735   4.902  42.035  14.943
24953W        W91736  40.895  39.453   2.779
24954W        W91737   6.556  24.469  11.529
24955W        W91738  33.255  35.820  10.439
24956W        W91739  27.639   7.212  13.535
24957W        W91740  14.116  24.541   3.368
24958W        W91741  38.351  40.559   0.970
24959W        W91742  16.282  20.587  10.411
24960W        W91743  23.950   5.556   3.220
24961W        W91744  41.474  24.550  11.637
24962W        W91745  37.302  16.056   3.980
24963W        W91746  32.398  39.064  11.084
24964W        W91747  16.816  24.011   3.113
24965W        W91748  24.649   4.989   4.421
24966W        W91749  27.104  44.914   2.213
24967W        W91750  11.623  40.052   1.344
24968W        W91751  26.331   3.497   1.023
24969W        W91752  28.892  16.337   1.851
24970W        W91753  16.698  43.879   1.729
24971W        W91754   4.838  35.986  10.443
24972W        W91755  35.601  37.145  10.894
24973W        W91756   0.892  35.996  14.892
24974W        W91757  41.826  30.008  12.916
24975W        W91758   3.123   8.283  14.776
24976W        W91759   6.756  41.789   4.310
24977W        W91760  20.739  25.002   2.258
24978W        W91761  15.381   9.192  13.356
24979W        W91762  40.051  38.578  13.067
24980W        W91763  28.008  42.874  13.322
24981W        W91764  12.497  42.896   0.830
24982W        W91765   7.148  31.810   4.089
24983W        W91766  22.315   0.811   2.749
24984W        W91767   6.926  10.842  12.093
24985W        W91768   6.876  44.849   0.819
24986W        W91769  32.952   5.041  14.096
24987W        W91770  39.495   1.055  13.317
24988W        W91771  29.477   6.757  13.870
24989W        W91772  43.734  15.735   4.600
24990W        W91773   2.849  35.104   3.263
24991W        W91774  11.216  41.017   4.743
24992W        W91775  34.518   2.290  11.036
24993W        W91776  22.680   6.588  12.087
24994W        W91777  20.695  17.776  11.928
24995W        W91778   0.760  13.830  14.516
24996W        W91779  32.405  35.909  11.650
24997W        W91780   3.177  24.341   4.522
24998W        W91781  26.992  12.333   3.754
24999W        W91782  34.920   8.902  11.150
25000W        W91783  16.036  25.891  12.942
25001W        W91784  31.092   5.758  14.841
25002W        W91785   5.588  31.551   4.563
25003W        W91786  29.917  35.395   4.510
25004W        W91787  12.842  13.933   3.186
25005W        W91788   1.957  33.408  12.156
25006W        W91789   9.764  37.918   0.488
25007W        W91790  33.072  16.258  12.857
25008W        W91791  37.249  16.334   3.045
25009W        W91792  13.605  11.997  11.591
25010W        W91793  21.796   3.947  13.479
25011W        W91794  19.751  40.109  14.048
25012W        W91795  29.418  25.745   1.239
25013W        W91796  42.624  24.354  11.180
25014W        W91797  35.012   1.994  13.957
25015W        W91798  16.603  23.559  11.377
25016W        W91799  39.098  19.183   2.315
25017W        W91800  33.858  42.892  12.029
25018W        W91801  22.521  30.738  13.405
25019W        W91802  15.068  24.964   4.730
25020W        W91803  23.333  26.689  11.273
25021W        W91804   8.801  10.821  10.651
25022W        W91805  21.565  19.198  13.018
25023W        W91806   9.111  17.354   3.656
25024W        W91807   1.864  42.053   3.084
25025W        W91808   9.169  22.128   0.850
25026W        W91809   1.819  29.040   3.342
25027W        W91810  34.636  14.046  12.411
25028W        W91811  37.936  10.373  14.410
25029W        W91812  23.998  13.356  14.060
25030W        W91813  37.489   7.150  13.239
25031W        W91814   1.238   3.903   0.283
25032W        W91815  42.971   9.505  11.168
25033W        W91816  34.987  44.299  13.434
25034W        W91817  43.807   9.887   3.213
25035W        W91818  18.177   9.315  12.626
25036W        W91819  17.656  42.945  13.523
25037W        W91820  13.069  30.533  14.772
25038W        W91821  14.855  37.717   3.247
25039W        W91822   2.544  10.790   3.813
25040W        W91823  36.702  35.566   4.194
25041W        W91824  27.017  37.792   0.113
25042W        W91825  17.660   4.631   3.247
25043W        W91826   1.779  14.236  10.734
25044W        W91827  38.976  32.737   1.633
25045W        W91828  30.285  21.093   4.529
25046W        W91829  41.651  33.495   3.625
25047W        W91830  23.430   0.326  11.815
25048W        W91831  24.085  41.776   0.911
25049W        W91832  28.458  22.586  11.640
25050W        W91833   7.882  18.710   1.885
25051W        W91834  18.097  20.404   0.204
25052W        W91835  38.305   1.014   2.582
25053W        W91836  40.890  31.970   2.553
25054W        W91837   0.328   1.239  13.879
25055W        W91838  36.627  43.272  11.102
25056W        W91839  27.644  11.422  12.952
25057W        W91840  18.771  29.448   3.683
25058W        W91841  19.270  33.855  11.122
25059W        W91842  12.712  25.592   0.824
25060W        W91843   5.852  12.793  13.435
25061W        W91844  16.180  37.270   3.225
25062W        W91845  18.549  42.268   4.469
25063W        W91846  31.184  15.117   2.497
25064W        W91847   0.863  32.983  12.444
25065W        W91848  26.021  12.726   2.686
25066W        W91849  34.438  30.068  13.885
25067W        W91850  30.061  23.517   0.230
25068W        W91851  44.095  40.361   2.573
25069W        W91852  18.363  31.068  13.876
25070W        W91853  15.136  39.984  10.876
25071W        W91854  11.790  34.468   2.413
25072W        W91855  29.582   8.612   1.358
25073W        W91856  11.216  36.611   2.268
25074W        W91857  17.056  29.491  10.167
25075W        W91858  19.636  35.569   1.962
25076W        W91859  23.554  36.500   4.842
25077W        W91860  29.716   2.863   1.712
25078W        W91861  39.904  33.175   0.976
25079W        W91862  11.387  20.172  10.611
25080W        W91863  24.921   0.856   4.583
25081W        W91864  31.068  20.549  11.621
25082W        W91865  29.000   7.493   4.512
25083W        W91866   7.381  30.467  11.546
25084W        W91867  34.554   4.209   3.472
25085W        W91868  23.637  38.912  12.505
25086W        W91869   3.721  36.375  12.493
25087W        W91870  41.818  20.987  11.993
25088W        W91871  16.243  18.737  10.814
25089W        W91872  24.499  28.687  14.814
25090W        W91873  10.704  21.466   3.712
25091W        W91874  15.238   9.635  12.102
25092W        W91875  32.506  22.719  11.199
25093W        W91876  30.574   1.707  12.284
25094W        W91877   3.469  14.527  11.079
25095W        W91878  44.703  25.049  11.529
25096W        W91879  34.099  27.039   4.554
25097W        W91880  23.944   2.879   1.875
25098W        W91881  23.846  11.237  13.545
25099W        W91882   3.763  31.492   0.772
25100W        W91883  40.819  11.219   1.259
25101W        W91884   0.608  16.483   4.601
25102W        W91885  17.231  42.437   2.551
25103W        W91886  41.743  21.444   3.679
25104W        W91887   3.899   4.313   3.733
25105W        W91888  36.335  44.333   1.646
25106W        W91889  40.069  26.577  12.974
25107W        W91890   6.706   1.995   1.413
25108W        W91891  42.566  43.269   0.442
25109W        W91892   1.021  30.414  14.176
25110W        W91893   3.854  38.616  13.991
25111W        W91894  26.032  27.208   4.047
25112W        W91895   1.597  19.205  11.650
25113W        W91896  17.543   8.762  10.327
25114W        W91897   1.412   8.277  14.579
25115W        W91898  18.626  20.196   1.916
25116W        W91899   7.245  31.451  13.496
25117W        W91900  27.906  15.338   3.787
25118W        W91901  29.555  31.189  14.797
25119W        W91902  27.148  30.464  14.471
25120W        W91903  18.828   6.866   3.707
25121W        W91904  35.830  20.104  12.493
25122W        W91905  35.811  11.369  14.958
25123W        W91906  22.453  17.716   0.903
25124W        W91907  22.935  13.553  11.108
25125W        W91908  34.922  42.386  14.384
25126W        W91909  22.406  39.808  13.743
25127W        W91910  14.168  10.301   3.719
25128W        W91911  40.389  17.483   0.857
25129W        W91912  36.483  12.844  10.886
25130W        W91913   1.468  20.022  13.076
25131W        W91914  33.380  42.706  12.336
25132W        W91915   0.944  23.952  11.164
25133W        W91916  18.208  24.686  11.600
25134W        W91917   2.174  37.547   0.266
25135W        W91918  44.702  24.061  12.590
25136W        W91919  38.123   6.402   2.301
25137W        W91920  20.608   6.878  13.062
25138W        W91921  10.607  28.528  12.419
25139W        W91922  36.116  12.534  11.051
25140W        W91923  14.437  37.078  13.415
25141W        W91924  12.766   2.928  10.431
25142W        W91925  44.756   2.283   0.260
25143W        W91926  17.550  13.142   3.649
25144W        W91927  39.972  43.480   1.706
25145W        W91928  42.101  44.062   1.193
25146W        W91929  40.300  20.112   1.285
25147W        W91930  27.916   6.458  11.203
25148W        W91931  23.243  10.664  10.359
25149W        W91932  16.319  20.345  13.670
25150W        W91933  27.940   4.356   2.956
25151W        W91934   4.150  40.954  12.139
25152W        W91935   9.737   0.737   1.956
25153W        W91936   9.354  20.807   3.162
25154W        W91937  15.334  33.150  10.794
25155W        W91938  42.943  11.324   2.561
25156W        W91939  37.033   8.854  13.332
25157W        W91940  12.781  26.205   1.963
25158W        W91941  13.047  40.913  10.776
25159W        W91942   1.014  32.622   1.463
25160W        W91943  43.994   5.459  10.601
25161W        W91944  31.846  22.763   0.401
25162W        W91945  37.893  25.029   2.241
25163W        W91946  23.525  19.678   1.296
25164W        W91947   5.892  39.372  14.837
25165W        W91948  27.520  43.725  14.085
25166W        W91949  38.300   3.005   3.081
25167W        W91950  22.025   1.394  14.782
25168W        W91951  32.464  30.266   1.278
25169W        W91952  22.620   7.381  13.755
25170W        W91953  16.790   3.251   1.286
25171W        W91954   7.511  35.370  14.164
25172W        W91955  44.518   8.152  13.916
25173W        W91956  12.711  25.521   3.256
25174W        W91957  37.391  37.007  13.312
25175W        W91958  36.001  25.244   3.145
25176W        W91959  41.603  19.777   3.928
25177W        W91960  37.869  37.889  13.093
25178W        W91961  14.184   9.249  12.594
25179W        W91962   0.579  38.561   0.931
25180W        W91963  42.815  24.918   2.813
25181W        W91964  32.453  13.253   0.004
25182W        W91965  23.212  38.822   3.200
25183W        W91966  11.584  25.635   1.861
25184W        W91967  38.452  34.862  14.839
25185W        W91968  34.975  35.691  11.111
25186W        W91969   9.961  34.455  13.026
25187W        W91970  18.667  37.511   1.441
25188W        W91971   1.999   8.350  11.676
25189W        W91972   2.548  31.589  14.455
25190W        W91973   7.731   6.123  13.003
25191W        W91974  16.226  27.055   1.038
25192W        W91975  24.962  29.448   1.276
25193W        W91976  24.637  31.810  14.203
25194W        W91977  14.192  23.709  13.853
25195W        W91978  16.527  17.047  14.279
25196W        W91979  16.562  35.066   0.211
25197W        W91980  43.325  24.582   0.201
25198W        W91981   0.675  26.100   3.666
25199W        W91982  12.061  19.231   4.002
25200W        W91983  32.584  29.333  11.620
25201W        W91984  11.163  43.789  11.150
25202W        W91985  15.277  26.492   3.301
25203W        W91986  40.233  13.157   4.175
25204W        W91987  29.042  29.412  14.861
25205W        W91988   2.529  38.147   0.711
25206W        W91989  13.802   7.187  13.159
25207W        W91990  16.063   8.194  14.397
25208W        W91991  29.973   9.254   0.287
25209W        W91992  28.648  22.521  14.026
25210W        W91993   7.678  14.694  14.724
25211W        W91994   4.387  25.866  13.852
25212W        W91995  36.000  13.170   3.115
25213W        W91996  31.317   8.757   4.831
25214W        W91997  14.134  43.867  12.890
25215W        W91998  21.942  31.022  11.553
25216W        W91999  28.567   8.821  10.974
25217W        W92000  28.549  40.822   1.920
25218W        W92001   6.698  28.917  10.793
25219W        W92002  12.375  22.890  11.870
25220W        W92003   6.234  10.328   1.666
25221W        W92004  13.673  35.183  11.709
25222W        W92005  16.929   6.494   3.700
25223W        W92006  21.077  12.533   4.896
25224W        W92007  35.614  27.964   0.745
25225W        W92008  42.444  43.952  13.978
25226W        W92009  12.725  28.068   4.753
25227W        W92010  41.988  25.502   1.954
25228W        W92011  39.358  15.197  12.567
25229W        W92012   9.582   8.084  12.658
25230W        W92013   5.400  15.054  10.996
25231W        W92014  33.558  32.878   3.621
25232W        W92015  17.304  11.035   2.831
25233W        W92016  37.683  21.538   4.599
25234W        W92017   0.299  37.855   1.324
25235W        W92018   8.203  32.119  12.212
25236W        W92019  32.038  14.517   3.626
25237W        W92020  27.877  14.161  11.250
25238W        W92021  18.653  25.641   4.210
25239W        W92022  22.483   4.913  10.250
25240W        W92023  24.188  32.528  12.989
25241W        W92024  12.399  14.566   4.633
25242W        W92025   2.426  33.779  12.485
25243W        W92026  18.780   0.916   2.795
25244W        W92027  43.312  35.831  14.914
25245W        W92028  32.950  35.938  11.635
25246W        W92029  15.397  28.997   3.148
25247W        W92030   0.542  16.943   1.426
25248W        W92031  41.159   7.142  10.217
25249W        W92032  31.346   2.009  13.308
25250W        W92033  43.573  39.919   1.701
25251W        W92034   1.007  39.075  12.559
25252W        W92035  31.774  24.585   0.469
25253W        W92036  37.487  16.734  11.445
25254W        W92037   8.207  20.462   0.470
25255W        W92038  16.767  20.042  11.411
25256W        W92039   2.707  10.877   0.214
25257W        W92040  37.728  13.363  14.339
25258W        W92041  14.127   4.982   4.050
25259W        W92042  19.969  24.124  10.595
25260W        W92043  18.327   1.193   0.703
25261W        W92044  42.890  18.262   1.241
25262W        W92045  15.515  44.958   0.280
25263W        W92046  20.129  15.705  13.306
25264W        W92047  33.480  27.177  14.392
25265W        W92048   9.541  25.437  14.873
25266W        W92049   0.372  15.842  12.006
25267W        W92050   1.784  27.435  12.982
25268W        W92051  42.870  17.531   9.954
25269W        W92052   8.761  38.287   0.484
25270W        W92053   7.225  18.551   3.619
25271W        W92054  17.651  14.027  12.942
25272W        W92055   5.458  25.634   0.992
25273W        W92056  37.621  38.380  12.212
25274W        W92057  41.315   3.892  14.343
25275W        W92058   5.870  36.762   2.816
25276W        W92059  13.394  21.214   2.732
25277W        W92060   6.512   8.502  10.894
25278W        W92061  14.805  25.486   3.846
25279W        W92062   2.663  21.610   0.282
25280W        W92063  32.816  13.791  12.408
25281W        W92064  39.371  23.959   2.550
25282W        W92065  25.215   8.234   0.957
25283W        W92066  20.492  31.677   0.775
25284W        W92067  38.100  27.522  10.677
25285W        W92068   0.064  18.020   0.490
25286W        W92069  36.922  19.476   1.630
25287W        W92070   6.305  34.036  14.322
25288W        W92071  27.670  40.919   0.662
25289W        W92072  40.453  20.777   3.983
25290W        W92073   1.372  27.456  13.820
25291W        W92074  32.609  12.804   0.747
25292W        W92075  22.298  27.485   1.798
25293W        W92076  17.294  34.348  11.218
25294W        W92077   5.286   7.691  13.420
25295W        W92078  24.243   2.960   2.311
25296W        W92079  38.957  13.340   2.664
25297W        W92080  21.048  25.733   4.938
25298W        W92081  43.459  29.027   0.969
25299W        W92082   2.895  29.954   0.964
25300W        W92083  39.761  21.406  13.819
25301W        W92084  20.299  36.029   3.666
25302W        W92085  16.151  41.884  14.061
25303W        W92086  38.051  10.147   3.938
25304W        W92087  11.730   5.240   2.539
25305W        W92088  17.300  23.031   1.000
25306W        W92089  35.702  18.310   1.903
25307W        W92090  37.167   1.000  10.917
25308W        W92091   4.456  15.413   0.602
25309W        W92092   8.719  10.331  11.678
25310W        W92093  37.848  22.941   3.629
25311W        W92094  30.372  17.101  10.553
25312W        W92095  40.138  16.336   2.916
25313W        W92096   7.282  13.263  13.628
25314W        W92097   4.247   4.272   1.919
25315W        W92098  35.926  36.688  11.578
25316W        W92099  17.793  11.631  13.443
25317W        W92100  25.143   9.939   2.428
25318W        W92101  39.036  19.698   1.234
25319W        W92102   6.456  32.088  11.053
25320W        W92103  12.386  29.102  11.601
25321W        W92104  32.621  32.561   3.296
25322W        W92105  34.134  40.521  12.172
25323W        W92106  15.730  29.840  12.964
25324W        W92107  26.582   2.062   1.996
25325W        W92108  27.355  25.279   3.783
25326W        W92109  27.196  11.851   3.759
25327W        W92110  37.962  35.400  10.909
25328W        W92111  39.289   7.886  10.674
25329W        W92112   7.896  28.169   1.361
25330W        W92113   2.517  41.389  11.122
25331W        W92114  28.171  15.836  10.061
25332W        W92115  31.558  15.930   2.648
25333W        W92116  21.514  14.821   2.936
25334W        W92117   9.869   7.673   0.352
25335W        W92118   3.903   0.898  11.036
25336W        W92119  42.487  12.438   2.819
25337W        W92120  19.908  24.072  11.115
25338W        W92121  18.581  19.673   3.729
25339W        W92122  21.251   1.696  12.236
25340W        W92123  25.502  39.357   4.567
25341W        W92124  10.302  43.968   3.629
25342W        W92125  35.691  11.651   3.112
25343W        W92126  31.001  30.547  13.472
25344W        W92127  12.409  30.477   2.094
25345W        W92128  44.232  27.867  11.206
25346W        W92129  40.786  20.041   3.927
25347W        W92130  37.418  14.602  14.009
25348W        W92131  17.646  20.560  14.989
25349W        W92132  24.083  22.623   2.629
25350W        W92133  33.858  29.624  12.873
25351W        W92134   6.686  20.284  12.418
25352W        W92135   7.740  38.882   3.788
25353W        W92136  14.634  40.519  13.342
25354W        W92137  43.476  43.334   3.651
25355W        W92138  25.016  37.793  14.273
25356W        W92139  40.939  14.638   1.976
25357W        W92140   9.391  18.020   4.779
25358W        W92141  11.144  37.374  13.046
25359W        W92142  25.581  19.313   1.669
25360W        W92143  36.448   1.380   1.809
25361W        W92144   8.620  23.799  12.664
25362W        W92145  36.832  22.987  14.498
25363W        W92146  19.659  13.234   0.595
25364W        W92147  25.679  12.120  12.499
25365W        W92148  21.268  35.959  14.107
25366W        W92149   7.274   1.555   2.435
25367W        W92150   1.414  36.102   3.667
25368W        W92151  31.390  17.974   2.331
25369W        W92152  36.414  18.544  12.314
25370W        W92153  22.466  34.380   0.885
25371W        W92154   4.251   3.723  14.477
25372W        W92155  39.383  41.947  11.740
25373W        W92156   1.699   6.446  11.999
25374W        W92157  21.745  36.088  13.478
25375W        W92158   8.737  40.686  11.619
25376W        W92159  31.464  39.327   3.871
25377W        W92160  36.615   5.267   2.275
25378W        W92161   6.429  42.485  13.709
25379W        W92162  34.449  44.787  11.147
25380W        W92163  20.210  16.036   1.258
25381W        W92164  21.654   3.204  12.994
25382W        W92165   2.758  18.839  13.969
25383W        W92166  40.466  38.976   5.113
25384W        W92167  30.557  36.325  14.598
25385W        W92168  20.671  16.168   4.494
25386W        W92169  31.765   3.794   0.757
25387W        W92170  28.971  27.115   2.737
25388W        W92171  43.162  44.382   1.016
25389W        W92172  17.698  35.041  10.610
25390W        W92173  21.628   7.284   4.554
25391W        W92174  31.525  36.935   4.344
25392W        W92175   9.641  36.329   2.308
25393W        W92176  23.596  16.625  13.013
25394W        W92177  41.714   9.274   0.281
25395W        W92178  13.926  37.840   0.428
25396W        W92179  43.207  22.565  10.751
25397W        W92180  31.133  29.018   4.979
25398W        W92181  35.421  10.667   4.145
25399W        W92182  36.044  39.431   1.234
25400W        W92183  12.109  44.587   1.732
25401W        W92184  40.789  14.138   1.265
25402W        W92185  27.033  17.155  11.249
25403W        W92186  14.562  28.402  12.599
25404W        W92187   4.078   4.007  13.344
25405W        W92188  11.433  15.977  11.831
25406W        W92189  16.039  31.968   3.213
25407W        W92190  23.164  34.745   1.348
25408W        W92191  33.493  44.824   2.564
25409W        W92192   2.803  41.545  11.988
25410W        W92193   3.765  22.174   2.353
25411W        W92194  34.695   8.667   1.565
25412W        W92195  18.975  23.649  14.460
25413W        W92196   4.161   1.530   0.330
25414W        W92197  42.478  11.760   5.031
25415W        W92198  31.833  17.162  14.128
25416W        W92199  23.494  27.057   2.684
25417W        W92200  30.585  24.106  14.727
25418W        W92201  29.904  20.239   9.632
25419W        W92202  43.936  13.510   9.967
25420W        W92203   4.894  41.950   4.584
25421W        W92204  38.597  26.217  13.448
25422W        W92205  34.546  38.537  13.432
25423W        W92206  36.146  21.994  12.703
25424W        W92207  32.716  29.954  11.131
25425W        W92208  24.258  31.099  10.613
25426W        W92209  32.101  43.422   1.759
25427W        W92210  12.652  30.480  11.522
25428W        W92211  39.775  29.148   2.568
25429W        W92212  38.761   0.234  14.061
25430W        W92213   1.891  15.676   1.278
25431W        W92214  44.356   0.189  11.298
25432W        W92215   1.944   4.062   2.351
25433W        W92216  31.228  31.066   4.846
25434W        W92217   3.338  19.854  14.428
25435W        W92218  36.286  33.106   3.201
25436W        W92219  32.089   4.873   1.528
25437W        W92220  43.488  28.624   1.303
25438W        W92221  18.986  41.211  12.943
25439W        W92222  12.893  37.436   3.209
25440W        W92223  11.261  12.313  12.589
25441W        W92224   3.797  24.923   2.323
25442W        W92225  25.541   7.777   1.777
25443W        W92226   6.660  35.559   3.570
25444W        W92227  34.022  18.655   4.139
25445W        W92228   0.907  32.368  12.838
25446W        W92229  31.677   4.289   3.917
25447W        W92230  35.562  43.377   4.231
25448W        W92231   4.554  43.712   3.870
25449W        W92232  20.155  19.625  13.781
25450W        W92233  29.925   9.837  14.456
25451W        W92234  44.832  43.037  10.678
25452W        W92235  25.837  15.609   4.711
25453W        W92236  22.108   4.745  10.574
25454W        W92237  12.566   0.005  14.457
25455W        W92238   2.515   6.733  13.454
25456W        W92239  37.751  43.700  14.224
25457W        W92240  29.295  40.294   1.812
25458W        W92241  22.605  31.318   3.555
25459W        W92242  32.483  14.779  12.042
25460W        W92243  10.829  18.874   4.555
25461W        W92244   6.388  34.520   1.507
25462W        W92245  31.663  35.940   2.993
25463W        W92246   1.370  16.218  14.533
25464W        W92247  36.695  11.628   3.199
25465W        W92248  10.264  19.635  13.348
25466W        W92249  19.104  31.594   3.788
25467W        W92250   9.234  16.331   1.367
25468W        W92251   3.068  33.697  11.568
25469W        W92252   0.339  25.099   3.290
25470W        W92253   1.289  19.543  13.178
25471W        W92254  14.397   4.842  10.298
25472W        W92255  32.067  34.781   2.710
25473W        W92256   8.166  10.294   4.862
25474W        W92257   5.354  12.102   0.899
25475W        W92258  20.790   5.782   0.740
25476W        W92259  34.576   9.456  13.829
25477W        W92260  17.182   0.480  10.957
25478W        W92261  33.201  15.117  12.544
25479W        W92262  40.740  44.982   0.378
25480W        W92263  42.544  15.386   1.463
25481W        W92264  30.766   2.784   1.832
25482W        W92265   0.754   3.990   0.478
25483W        W92266  13.609  21.485  11.063
25484W        W92267   9.648   3.425   3.695
25485W        W92268   5.950  14.171   2.138
25486W        W92269  35.542   2.031   1.710
25487W        W92270  33.079  18.210   4.181
25488W        W92271  26.280  14.720   3.529
25489W        W92272  33.957  22.601  10.172
25490W        W92273  30.509  32.305   3.745
25491W        W92274  40.540  39.548   2.344
25492W        W92275  37.342  14.200  14.781
25493W        W92276  15.056   7.531   0.716
25494W        W92277   6.732  44.262   0.723
25495W        W92278  34.929  25.145   1.706
25496W        W92279  41.819   4.141   0.402
25497W        W92280   7.413  21.231   2.604
25498W        W92281   9.252   5.518   0.426
25499W        W92282  20.802   3.933  12.112
25500W        W92283  12.565  40.733  11.643
25501W        W92284  44.968  41.145   1.806
25502W        W92285   6.296  21.125   3.645
25503W        W92286  20.205   1.509   2.298
25504W        W92287   9.126  38.573   3.468
25505W        W92288   7.275  26.991  11.510
25506W        W92289  20.901  30.433   1.719
25507W        W92290  31.912  14.182   2.186
25508W        W92291  22.931  20.538   4.803
25509W        W92292  22.139  24.223   1.354
25510W        W92293  37.774  17.235  10.747
25511W        W92294  30.606  14.804   4.080
25512W        W92295  33.440  35.879   3.750
25513W        W92296   8.892  41.309   0.897
25514W        W92297  38.234  27.059   3.731
25515W        W92298  33.997  30.508  11.472
25516W        W92299  24.605  25.784  14.421
25517W        W92300  25.284   8.124   4.803
25518W        W92301  25.536  19.969  12.487
25519W        W92302  31.150   0.271   3.949
25520W        W92303   9.556  12.213  12.023
25521W        W92304  41.825  35.217   1.906
25522W        W92305  35.794  23.121  13.199
25523W        W92306  19.964  23.099  14.014
25524W        W92307  38.953  13.067   2.156
25525W        W92308  20.451   8.594   3.523
25526W        W92309  41.806  29.192   2.953
25527W        W92310  15.115  37.742  12.491
25528W        W92311  22.133  25.655   2.556
25529W        W92312  20.092   8.884   1.656
25530W        W92313  19.290  25.758  12.713
25531W        W92314  39.859  35.486   4.163
25532W        W92315   0.330   9.211   4.558
25533W        W92316  33.412  43.489   0.371
25534W        W92317  35.065  17.981   4.155
25535W        W92318  23.368  29.645  14.522
25536W        W92319  20.768  31.017   3.146
25537W        W92320  29.732  41.885   3.466
25538W        W92321   7.146  28.046   1.833
25539W        W92322  23.976  23.190  13.839
25540W        W92323  30.417  36.645  11.691
25541W        W92324  25.740   3.027  13.254
25542W        W92325  35.950  21.301   4.158
25543W        W92326   5.495  15.814  14.530
25544W        W92327   7.939  16.084  10.402
25545W        W92328   3.103  24.050  12.129
25546W        W92329  43.912  12.924   3.121
25547W        W92330  29.068  27.217   4.679
25548W        W92331  13.161  18.108  14.385
25549W        W92332  24.232   2.840  12.999
25550W        W92333   3.511   0.160  14.030
25551W        W92334   5.216  13.754   2.712
25552W        W92335  44.874   7.367  14.798
25553W        W92336   9.927  29.572  13.583
25554W        W92337  13.845  20.824   2.426
25555W        W92338  17.743  12.234  10.726
25556W        W92339   4.692  22.059  13.195
25557W        W92340  25.025  15.583  13.096
25558W        W92341  31.285  21.667  10.942
25559W        W92342  12.856   4.228  14.012
25560W        W92343  14.078  10.380  13.049
25561W        W92344   5.899  27.936  14.409
25562W        W92345  32.816   2.836  10.695
25563W        W92346  13.200  35.139  12.589
25564W        W92347  42.157  35.440   1.394
25565W        W92348   1.351   5.354   0.292
25566W        W92349  37.349   7.871  14.869
25567W        W92350  28.040   6.089   4.293
25568W        W92351  20.700  41.972  11.724
25569W        W92352  31.831  32.944  13.840
25570W        W92353   3.325  36.650   0.321
25571W        W92354  31.611  16.815   2.633
25572W        W92355  29.986  34.279   0.183
25573W        W92356  40.495  43.383   4.697
25574W        W92357  32.712   2.329  13.391
25575W        W92358  14.891  27.436   4.553
25576W        W92359  35.350  36.371   2.937
25577W        W92360  41.697  16.428  14.860
25578W        W92361  20.017  22.118  13.001
25579W        W92362   0.353  42.527   1.399
25580W        W92363  26.461  40.343  13.089
25581W        W92364  33.559  20.713   1.884
25582W        W92365  16.509  41.263   1.339
25583W        W92366  33.451  22.497  10.233
25584W        W92367  17.826  17.063  14.011
25585W        W92368   1.734  31.801  13.080
25586W        W92369  39.565  43.509   1.317
25587W        W92370  30.915  12.555  14.920
25588W        W92371  16.352  19.280   2.606
25589W        W92372  23.140   2.422  11.926
25590W        W92373  26.706   0.886   3.372
25591W        W92374   1.527  42.921   3.344
25592W        W92375   7.448   5.625  11.548
25593W        W92376  18.246  25.621  13.606
25594W        W92377   8.811  23.522  11.026
25595W        W92378  11.106   5.957   4.984
25596W        W92379  17.046   9.962   2.765
25597W        W92380  18.593  32.328  14.226
25598W        W92381  38.067  43.422  12.525
25599W        W92382   0.535  38.087   0.712
25600W        W92383  19.668  15.018   1.063
25601W        W92384  39.531  15.257   3.678
25602W        W92385  33.570  36.658  14.151
25603W        W92386  39.915  44.175   4.001
25604W        W92387  19.047  18.754   1.454
25605W        W92388  41.459   0.015   1.955
25606W        W92389  20.835   0.349  12.981
25607W        W92390  22.162  15.180  14.945
25608W        W92391   3.695  11.840   1.307
25609W        W92392   8.481  22.132  14.852
25610W        W92393   4.356   8.200  13.524
25611W        W92394   0.909  22.913   2.396
25612W        W92395  14.011  26.027  13.144
25613W        W92396  19.444  17.800  11.353
25614W        W92397  33.061  34.417   0.421
25615W        W92398  12.030  43.932  10.784
25616W        W92399  24.551  37.082   4.879
25617W        W92400  43.466   9.301   4.896
25618W        W92401  44.420  33.547   3.267
25619W        W92402  42.326  27.078   3.087
25620W        W92403   7.395  38.362  13.775
25621W        W92404  12.657  17.267  13.574
25622W        W92405   2.367  30.164   3.578
25623W        W92406  25.219  36.506  10.460
25624W        W92407  11.219   9.931   0.047
25625W        W92408   6.731  34.063  10.643
25626W        W92409  44.942   3.381   0.036
25627W        W92410   9.404  12.338  14.961
25628W        W92411  23.331   8.180   2.568
25629W        W92412  29.058  40.718   4.673
25630W        W92413  27.196  20.082  12.393
25631W        W92414  15.406  15.688  14.708
25632W        W92415  38.423  40.084   2.390
25633W        W92416  32.016  37.094  14.543
25634W        W92417  21.061  18.648   1.337
25635W        W92418  31.532  14.648   3.705
25636W        W92419  12.118   8.639   0.919
25637W        W92420  34.152  29.216   4.168
25638W        W92421  41.022  17.082  11.954
25639W        W92422   1.489  18.742   1.446
25640W        W92423  31.543  34.945  14.864
25641W        W92424  13.020   5.897  14.616
25642W        W92425  20.363   1.977  12.023
25643W        W92426  20.127  35.872   3.196
25644W        W92427  42.498  44.847   1.962
25645W        W92428  37.055  25.637  14.890
25646W        W92429  36.607  26.582   4.185
25647W        W92430  17.533  27.040   3.761
25648W        W92431  28.488   1.316  14.338
25649W        W92432  20.242  21.995   3.598
25650W        W92433  14.301  34.497  12.060
25651W        W92434  37.510   6.260  11.070
25652W        W92435  13.956  33.852   2.069
25653W        W92436  24.991   4.816  13.863
25654W        W92437   7.477  30.050  11.162
25655W        W92438   5.275  38.324   4.215
25656W        W92439  43.995  21.648   1.956
25657W        W92440   5.098  24.663   3.255
25658W        W92441  31.453  42.553  13.843
25659W        W92442  11.062   7.809   0.592
25660W        W92443  26.530  23.762   2.920
25661W        W92444  39.132  28.520   2.841
25662W        W92445   6.901  25.493  13.430
25663W        W92446  42.075  18.701  14.895
25664W        W92447   4.201  21.836  13.869
25665W        W92448  39.305  36.420  14.619
25666W        W92449   2.740  11.248   3.631
25667W        W92450   0.265  36.426  14.430
25668W        W92451  16.310  14.346  12.900
25669W        W92452   0.754  26.745  12.580
25670W        W92453  39.028  43.065   1.597
25671W        W92454  38.418   2.460  10.651
25672W        W92455  15.359  30.620  11.178
25673W        W92456  30.928  12.841  13.022
25674W        W92457  11.732  14.104  11.428
25675W        W92458  11.385  33.495   0.401
25676W        W92459   9.779  23.049  10.377
25677W        W92460  25.065  31.467   4.172
25678W        W92461  13.469  32.992  12.478
25679W        W92462  28.454   7.651   0.518
25680W        W92463  43.642   7.251  11.127
25681W        W92464  39.636  13.833   9.867
25682W        W92465  24.519  27.613   2.980
25683W        W92466  14.655  11.489   0.072
25684W        W92467   5.655  15.123   4.249
25685W        W92468   9.240  11.114  11.429
25686W        W92469  10.835   5.353   0.022
25687W        W92470  23.587  23.898  11.506
25688W        W92471  41.327  31.409   3.926
25689W        W92472  40.921  37.369  11.202
25690W        W92473  14.585  27.040  12.937
25691W        W92474   5.436  20.553   0.226
25692W        W92475  36.483  30.515   4.155
25693W        W92476   4.625  14.323   1.327
25694W        W92477  14.605  31.544  10.567
25695W        W92478  17.418  26.560   2.744
25696W        W92479  27.926  21.672   4.264
25697W        W92480   5.570  35.282  13.890
25698W        W92481  40.678  22.744  10.393
25699W        W92482  14.864  11.272  12.551
25700W        W92483  36.061  36.599  12.500
25701W        W92484  10.126  35.565  14.872
25702W        W92485  19.131  21.074  14.935
25703W        W92486   4.939  36.886  11.611
25704W        W92487   1.335  41.494   4.174
25705W        W92488  21.756  18.065   3.761
25706W        W92489  34.903   3.130  14.996
25707W        W92490  23.952  23.980   5.045
25708W        W92491   2.434  14.805   1.327
25709W        W92492   2.096  31.896   4.033
25710W        W92493  20.285  18.472   3.222
25711W        W92494  35.244  21.647  10.310
25712W        W92495  30.082  37.979  11.664
25713W        W92496  32.943  42.263  11.381
25714W        W92497  31.783  19.841   4.212
25715W        W92498  35.977  35.431  11.214
25716W        W92499  10.870  24.132   4.097
25717W        W92500  34.905  27.448  13.973
25718W        W92501  18.141  41.761  12.900
25719W        W92502  38.853  24.461   0.458
25720W        W92503  38.879  32.668   3.325
25721W        W92504   1.102  15.612   3.607
25722W        W92505  22.030  38.401  10.697
25723W        W92506   3.299  35.995   3.607
25724W        W92507  12.697   8.861  13.720
25725W        W92508  28.200  30.888  13.738
25726W        W92509  37.788  27.649  10.106
25727W        W92510  13.691  31.146  13.658
25728W        W92511   9.158  10.685  14.461
25729W        W92512   8.002   3.314   4.654
25730W        W92513  42.346   0.447  10.759
25731W        W92514  26.589  11.352   4.177
25732W        W92515  23.510  34.443  13.463
25733W        W92516  15.609  11.460  14.880
25734W        W92517  31.540  10.215   1.868
25735W        W92518  39.127   9.046   3.311
25736W        W92519  39.453  44.992   0.234
25737W        W92520  37.328  39.610   3.844
25738W        W92521  38.015  30.467   4.684
25739W        W92522  28.234  33.272  11.488
25740W        W92523  13.660  33.427  12.285
25741W        W92524  12.334   0.540   1.385
25742W        W92525   5.501  17.850  12.561
25743W        W92526  34.394  25.987  13.077
25744W        W92527  16.707  26.299  14.377
25745W        W92528   6.246   4.793  13.956
25746W        W92529  20.555  12.255   4.598
25747W        W92530  37.905  26.006   0.049
25748W        W92531  15.831  22.636  10.724
25749W        W92532  35.195  21.169  14.540
25750W        W92533   7.977  30.536   3.974
25751W        W92534  31.766   3.292  14.449
25752W        W92535  28.460  21.970   4.525
25753W        W92536  38.118   5.272   4.493
25754W        W92537  35.447   3.365  10.621
25755W        W92538   1.276   7.055  12.581
25756W        W92539  39.024  18.016   1.180
25757W        W92540  33.807  44.051  13.554
25758W        W92541  23.502  24.234   4.133
25759W        W92542  30.156   8.107   4.160
25760W        W92543  11.775  42.350  12.001
25761W        W92544  23.447  10.379   2.845
25762W        W92545   1.704   8.847   0.407
25763W        W92546  29.039   1.795  11.190
25764W        W92547  23.747  29.574  14.893
25765W        W92548  35.371  42.449  12.765
25766W        W92549  32.549  22.786   4.129
25767W        W92550   8.157  33.906  11.414
25768W        W92551  20.180  17.403   0.838
25769W        W92552  23.027  11.882  10.684
25770W        W92553   0.916   3.245   3.335
25771W        W92554  29.620   8.505   2.609
25772W        W92555  35.605  16.217  11.178
25773W        W92556  37.319  44.045  14.159
25774W        W92557  24.113  43.317   5.260
25775W        W92558  33.018  19.831  12.143
25776W        W92559  18.510  39.306  10.993
25777W        W92560  22.100  27.733   3.672
25778W        W92561  32.453   4.631  14.799
25779W        W92562  19.717  20.049  14.419
25780W        W92563  14.487  34.832  14.816
25781W        W92564   4.688  23.776   4.038
25782W        W92565   5.931  39.017   0.369
25783W        W92566  20.563  21.581  11.402
25784W        W92567  30.936   1.391   0.876
25785W        W92568  31.109  32.361   5.013
25786W        W92569  19.100  35.442   4.768
25787W        W92570  32.251   3.769  11.875
25788W        W92571  33.568  34.180  13.746
25789W        W92572  17.056  29.037  13.022
25790W        W92573   7.796  24.203   2.703
25791W        W92574  12.284  26.677   2.377
25792W        W92575  37.820  36.960   0.023
25793W        W92576  22.030  30.932  13.373
25794W        W92577  43.441  44.030   3.223
25795W        W92578  32.730  34.303   1.733
25796W        W92579  20.177  28.366   3.091
25797W        W92580  18.775  34.474   0.669
25798W        W92581  13.379   6.983  12.039
25799W        W92582  27.577  42.469  10.663
25800W        W92583  20.534   6.792   2.833
25801W        W92584  33.219  44.536   3.698
25802W        W92585   3.729  24.646   2.789
25803W        W92586  25.506  15.042  14.116
25804W        W92587  22.932  37.540  10.281
25805W        W92588   5.934  13.685   1.366
25806W        W92589  21.706  14.589   1.827
25807W        W92590  28.200  27.614  14.337
25808W        W92591   9.728  44.646  13.056
25809W        W92592  12.258  18.549  13.063
25810W        W92593  13.450  43.299   2.250
25811W        W92594  38.009  20.231   4.910
25812W        W92595   2.487   3.823  10.636
25813W        W92596  10.716  28.552   1.326
25814W        W92597  18.640  18.162  14.756
25815W        W92598  18.528  21.556   4.529
25816W        W92599  27.297  28.904   4.143
25817W        W92600  24.254  21.483   3.632
25818W        W92601  19.182   3.700  12.986
25819W        W92602  22.670  15.011   3.685
25820W        W92603  26.607   0.488   2.889
25821W        W92604  20.472  41.802   1.159
25822W        W92605  44.496   4.878   4.564
25823W        W92606   7.633  19.644  13.387
25824W        W92607  31.386  30.852   3.996
25825W        W92608  35.403  17.156  13.895
25826W        W92609  39.328  10.976  14.040
25827W        W92610  14.811   8.693   3.721
25828W        W92611  26.459  10.711  11.143
25829W        W92612  16.193   3.894  11.187
25830W        W92613  22.495  14.170   1.197
25831W        W92614  10.306   4.036  13.126
25832W        W92615  43.601  40.010  12.608
25833W        W92616  29.415  30.246  11.125
25834W        W92617  29.499  42.298  12.861
25835W        W92618  26.089  34.827   1.374
25836W        W92619  42.038   0.378   2.816
25837W        W92620  21.168   7.306   1.223
25838W        W92621  31.098  41.301   2.233
25839W        W92622  26.236  22.021  11.915
25840W        W92623  33.358  28.610   4.036
25841W        W92624  34.340  41.512   2.845
25842W        W92625  20.025  36.923  13.905
25843W        W92626  30.911  20.074   0.917
25844W        W92627  34.397   7.792   2.721
25845W        W92628  37.561  41.899  13.796
25846W        W92629  15.633  19.682  10.999
25847W        W92630  10.760  15.336   0.340
25848W        W92631   7.528  19.609  10.264
25849W        W92632  36.563   4.224   4.101
25850W        W92633  10.471   1.376   1.372
25851W        W92634  39.076  19.497   4.064
25852W        W92635  16.616  23.675  13.366
25853W        W92636   0.308  29.108   0.912
25854W        W92637  39.894  35.390   0.852
25855W        W92638  38.323  33.988  13.354
25856W        W92639  24.937  23.182   4.556
25857W        W92640  40.332  30.722  10.604
25858W        W92641   0.702  24.839  13.528
25859W        W92642  41.516  10.319   1.651
25860W        W92643   4.326   0.953  11.342
25861W        W92644  31.151  25.504  11.004
25862W        W92645  23.527   9.587  14.238
25863W        W92646   0.177  24.593   4.059
25864W        W92647  30.319   4.459  11.042
25865W        W92648  10.869  16.067   2.156
25866W        W92649   6.147  28.919   0.943
25867W        W92650   1.884   5.239  13.966
25868W        W92651  20.481  26.982   1.211
25869W        W92652  29.422  33.046   1.364
25870W        W92653  15.602  13.707   2.329
25871W        W92654   4.651  12.200  13.341
25872W        W92655  25.117  28.747  13.966
25873W        W92656  25.902  22.557  13.525
25874W        W92657  18.004  26.152   3.343
25875W        W92658  18.619  25.626  10.903
25876W        W92659  40.937  33.458  13.980
25877W        W92660  23.307  30.444  10.808
25878W        W92661  10.314   6.305  12.445
25879W        W92662  11.099  23.653  12.337
25880W        W92663  34.824  12.841   1.255
25881W        W92664   3.796   2.497  10.789
25882W        W92665   6.802   1.389   3.215
25883W        W92666  39.472   0.048  12.090
25884W        W92667  20.069  43.869  11.238
25885W        W92668   7.200   2.974  14.495
25886W        W92669  30.937   8.486   1.273
25887W        W92670   4.526  27.422  13.588
25888W        W92671  21.472  44.053  10.063
25889W        W92672  18.310  37.509   0.189
25890W        W92673  42.591  41.455   3.711
25891W        W92674  33.526  10.757  14.802
25892W        W92675  34.290  26.020  11.076
25893W        W92676  18.824  38.464  12.523
25894W        W92677  38.416  41.995   0.947
25895W        W92678  44.872  34.369  14.350
25896W        W92679  28.306  25.679   1.689
25897W        W92680  21.121  12.100   1.038
25898W        W92681  12.667   9.346  13.995
25899W        W92682  14.751   1.481  14.840
25900W        W92683  40.034   5.859  12.434
25901W        W92684  22.508   7.398  14.860
25902W        W92685  29.233  42.237  11.137
25903W        W92686  40.430  34.977  14.433
25904W        W92687  10.780   3.236  13.304
25905W        W92688  11.643   7.196   0.520
25906W        W92689   7.925  43.991   3.158
25907W        W92690  12.785  39.276   1.234
25908W        W92691  22.186  31.451   1.403
25909W        W92692  12.030  31.431   0.005
25910W        W92693  28.089  16.802   0.157
25911W        W92694   9.694  25.967  11.211
25912W        W92695  17.371   4.742  13.252
25913W        W92696  30.521  40.855  12.644
25914W        W92697  36.473  41.098   3.322
25915W        W92698  19.468  39.640   4.086
25916W        W92699  24.537  20.205  14.435
25917W        W92700  39.947  18.764  11.962
25918W        W92701  24.581  10.181  12.012
25919W        W92702  37.092  18.301  13.483
25920W        W92703   2.527  19.061   3.648
25921W        W92704  27.121  32.139   3.349
25922W        W92705  16.409  12.210  14.787
25923W        W92706  23.892  28.376   1.015
25924W        W92707  13.903  11.794   1.903
25925W        W92708   1.923   0.258   4.520
25926W        W92709  17.922  24.106  12.654
25927W        W92710  13.725  15.528  14.960
25928W        W92711  11.209  17.002   2.684
25929W        W92712  39.771  28.968  13.063
25930W        W92713  19.367  18.638  14.472
25931W        W92714   9.188  23.985  12.057
25932W        W92715  35.052  32.435   3.898
25933W        W92716  42.370  12.748  14.215
25934W        W92717   6.263  15.353  10.371
25935W        W92718  13.516  11.011  12.882
25936W        W92719  19.613  44.425   5.160
25937W        W92720  31.289   1.906   1.614
25938W        W92721  37.539  33.460   2.815
25939W        W92722   3.155  30.483  12.865
25940W        W92723  11.411  26.954  10.859
25941W        W92724  23.244  17.274  13.149
25942W        W92725   6.952   0.532   3.630
25943W        W92726  11.398   2.587   0.784
25944W        W92727   7.719  21.014   3.326
25945W        W92728   8.144  22.383  10.924
25946W        W92729  31.186  31.530  10.803
25947W        W92730  42.624  25.954  14.841
25948W        W92731  29.283  11.550   3.669
25949W        W92732  10.865  21.749  10.748
25950W        W92733  35.517  43.368   3.241
25951W        W92734  15.638   3.780   2.297
25952W        W92735  35.341  38.556  11.694
25953W        W92736  29.504  22.373   0.408
25954W        W92737  27.672   5.351   1.006
25955W        W92738  26.356  12.196   0.277
25956W        W92739  17.635   8.303  13.581
25957W        W92740  19.637  36.534  14.774
25958W        W92741  19.162  10.639   0.438
25959W        W92742   9.013  41.995  14.265
25960W        W92743  32.080  39.768  12.309
25961W        W92744   2.326   8.379   0.720
25962W        W92745  23.198   0.136  13.317
25963W        W92746  41.369   4.450  12.186
25964W        W92747  35.830  13.841  10.765
25965W        W92748  10.879  17.083   0.828
25966W        W92749  22.147  14.205  12.622
25967W        W92750  35.042   2.724   0.967
25968W        W92751  21.900   4.560  12.853
25969W        W92752  11.620  44.543  10.295
25970W        W92753  37.286   1.568  14.383
25971W        W92754  16.862  33.161   4.892
25972W        W92755  33.178  36.852   1.607
25973W        W92756  17.368   1.380  12.168
25974W        W92757  11.286  35.061  10.909
25975W        W92758  20.233  13.708   1.289
25976W        W92759   3.248  12.912   1.911
25977W        W92760  11.138  40.073   4.676
25978W        W92761  35.344  34.601   0.429
25979W        W92762  27.632  21.161   4.651
25980W        W92763  39.699   8.875  10.664
25981W        W92764  28.842  11.781  14.516
25982W        W92765  24.449   2.803   1.848
25983W        W92766  31.283  26.922   0.318
25984W        W92767  25.054  34.171   0.311
25985W        W92768  19.446   6.607  14.062
25986W        W92769   3.922  40.348  13.368
25987W        W92770  35.513  36.559  13.299
25988W        W92771  11.325   0.770   2.858
25989W        W92772  40.930   3.182   5.044
25990W        W92773  16.159  34.068  11.183
25991W        W92774  25.383  30.048   0.813
25992W        W92775  18.427  40.761   2.718
25993W        W92776   2.716  41.433   1.963
25994W        W92777   5.978  30.075  12.492
25995W        W92778  21.796  23.884   9.857
25996W        W92779  43.342  23.072   2.704
25997W        W92780   7.459  33.177  13.770
25998W        W92781   0.932  30.006   4.341
25999W        W92782  20.592  12.830   4.154
26000W        W92783  25.131  29.524   0.755
26001W        W92784  33.572   5.139   3.650
26002W        W92785  18.319   6.340  12.835
26003W        W92786  12.166  32.435   3.781
26004W        W92787  31.298  21.419  12.795
26005W        W92788  20.565  18.640  10.724
26006W        W92789  10.764  43.942  11.430
26007W        W92790  15.722  10.658  13.513
26008W        W92791  20.466   1.705   4.101
26009W        W92792  16.489  43.724  12.985
26010W        W92793  13.776  43.422   3.911
26011W        W92794  19.263   5.914   3.691
26012W        W92795  37.979  12.516  11.632
26013W        W92796  14.932   6.979  14.941
26014W        W92797  30.966  35.558  11.126
26015W        W92798  20.335  40.718   3.237
26016W        W92799  38.972  35.878   0.957
26017W        W92800  22.399  27.736  10.920
26018W        W92801  34.972  12.616   0.410
26019W        W92802  14.675  20.678  11.403
26020W        W92803  16.909  32.129   4.159
26021W        W92804   5.474  22.174  11.420
26022W        W92805   1.377   0.597  14.724
26023W        W92806   8.400  21.114   4.639
26024W        W92807   7.219  32.369   2.738
26025W        W92808  27.545  26.385   0.438
26026W        W92809  37.968  43.267   4.835
26027W        W92810  28.981  20.226   1.453
26028W        W92811   1.038  38.236  11.066
26029W        W92812   0.877  13.844  13.389
26030W        W92813  37.421  36.657   1.881
26031W        W92814  29.075  26.657  11.948
26032W        W92815  17.147  34.671  10.859
26033W        W92816  15.718  28.088   1.880
26034W        W92817  23.653  33.155  11.057
26035W        W92818  13.328  30.622   3.573
26036W        W92819  26.082   5.069   0.466
26037W        W92820  39.249   1.421  13.594
26038W        W92821   0.923   4.370   4.906
26039W        W92822  21.944  21.795  10.878
26040W        W92823  36.861  39.390   3.809
26041W        W92824  24.213  15.906  10.268
26042W        W92825  16.992  37.440  14.327
26043W        W92826  19.047  19.033  11.860
26044W        W92827   3.790  35.455   0.536
26045W        W92828  11.284   6.398   1.970
26046W        W92829  17.562  12.030   1.872
26047W        W92830  12.122  31.513  13.801
26048W        W92831  14.268  40.731   1.851
26049W        W92832  16.778   5.997   2.000
26050W        W92833  24.966  36.537  12.077
26051W        W92834  10.402   5.376  12.388
26052W        W92835  12.260   2.781  14.393
26053W        W92836  36.640  33.458   4.619
26054W        W92837  31.209  35.840   2.718
26055W        W92838  35.985  38.924  11.432
26056W        W92839  15.654  29.567   0.742
26057W        W92840   9.630  27.176  11.336
26058W        W92841  26.787  22.765   2.024
26059W        W92842  25.186  41.301   1.394
26060W        W92843  37.570  15.509  10.038
26061W        W92844  28.574  12.346   0.008
26062W        W92845   5.862  23.807  11.594
26063W        W92846   9.229  23.381   1.352
26064W        W92847  43.872  44.943   3.931
26065W        W92848   2.370  14.100   2.856
26066W        W92849  22.066  23.155   2.281
26067W        W92850  38.465  34.324   3.455
26068W        W92851  14.594   8.197  10.845
26069W        W92852  12.627   0.268  11.592
26070W        W92853  29.059  34.084  10.714
26071W        W92854  20.109  21.172   4.073
26072W        W92855  11.546   9.449   5.700
26073W        W92856  18.171  20.029   3.827
26074W        W92857  43.490   1.052   2.198
26075W        W92858   8.155  12.069  11.689
26076W        W92859  23.822  40.124   0.202
26077W        W92860   6.758  21.016   3.885
26078W        W92861  43.013  17.323   0.819
26079W        W92862  35.334  18.043  12.869
26080W        W92863   0.732  34.948   4.525
26081W        W92864  24.621  30.000   3.695
26082W        W92865  37.761  11.671   1.858
26083W        W92866   4.475  42.011   1.368
26084W        W92867  22.445  21.722  11.160
26085W        W92868  38.876  21.199   4.980
26086W        W92869  16.901  22.592   0.385
26087W        W92870  10.503   6.052  13.745
26088W        W92871  32.423   0.432   3.242
26089W        W92872  35.125   0.377  13.896
26090W        W92873   8.344   7.290   2.327
26091W        W92874   2.313   8.261  13.292
26092W        W92875  10.506  13.778   3.641
26093W        W92876  43.068  10.169   9.725
26094W        W92877  44.326  11.116   0.364
26095W        W92878  37.905  15.531   4.680
26096W        W92879  25.525  17.142  11.482
26097W        W92880  33.959   0.869  10.732
26098W        W92881   3.914  19.554   2.693
26099W        W92882   3.622   1.896   0.673
26100W        W92883  11.382  39.640   1.097
26101W        W92884  14.163  38.284   1.777
26102W        W92885  13.791  21.014  11.938
26103W        W92886  35.154  22.215  11.437
26104W        W92887  20.832  17.675   5.018
26105W        W92888  22.049  32.408   1.544
26106W        W92889   2.844  22.689  14.831
26107W        W92890  10.809  11.620  13.445
26108W        W92891  34.667   8.063  14.197
26109W        W92892  18.730  18.371   3.872
26110W        W92893  22.567  16.381  13.946
26111W        W92894  27.321  23.474   3.283
26112W        W92895  38.458  27.911   2.579
26113W        W92896  16.737   4.089  12.001
26114W        W92897  29.180  15.090  11.974
26115W        W92898  20.516  38.449  13.376
26116W        W92899  22.743  27.723  12.373
26117W        W92900  31.957  12.211  11.528
26118W        W92901  39.010   6.349  12.821
26119W        W92902  31.710   6.881   5.582
26120W        W92903  19.198  17.324  14.308
26121W        W92904  16.377   5.157   1.237
26122W        W92905  41.002  34.124   2.217
26123W        W92906  42.931  31.454  10.759
26124W        W92907  24.748   6.520  12.411
26125W        W92908  22.666  38.900   1.857
26126W        W92909  36.534   8.029   4.588
26127W        W92910  27.383   9.149  13.915
26128W        W92911  40.389   4.399   0.879
26129W        W92912  44.521  29.610  14.502
26130W        W92913  36.121   6.858   1.300
26131W        W92914  21.051  10.631  10.610
26132W        W92915  30.110  38.404  13.454
26133W        W92916  43.075  22.177  14.909
26134W        W92917  41.420  15.805  14.137
26135W        W92918   7.199  35.540   2.837
26136W        W92919  35.147   8.975   4.963
26137W        W92920   5.899  31.138  12.383
26138W        W92921   8.732  21.040  12.868
26139W        W92922  25.537  33.555  10.696
26140W        W92923  18.484  10.361  13.893
26141W        W92924  29.080  34.661   1.831
26142W        W92925  11.689  13.471   1.454
26143W        W92926  22.953   8.762   1.772
26144W        W92927   8.876  20.514  12.810
26145W        W92928  29.023   3.618   0.795
26146W        W92929   6.099  21.975   1.204
26147W        W92930  15.078  38.477   2.283
26148W        W92931  10.154  36.487   0.021
26149W        W92932   7.515  32.532   1.806
26150W        W92933  42.084  28.206  12.478
26151W        W92934  35.647  12.324  11.147
26152W        W92935  34.216  27.741  12.503
26153W        W92936  23.656  41.087   4.518
26154W        W92937  43.589   3.467  10.624
26155W        W92938  12.422  29.587   2.293
26156W        W92939   8.168   1.102   3.371
26157W        W92940  12.762  31.374   4.120
26158W        W92941  29.477  19.334   4.768
26159W        W92942  38.493  26.550  12.836
26160W        W92943  18.270  19.944  13.392
26161W        W92944  24.587  23.097   3.614
26162W        W92945  31.004  35.055  11.960
26163W        W92946  39.395  26.544   3.692
26164W        W92947  17.302   3.301  12.980
26165W        W92948  31.153  38.957   4.571
26166W        W92949  34.549  23.169  13.792
26167W        W92950  21.621  20.721   4.362
26168W        W92951  24.087   4.374   4.724
26169W        W92952  25.498   9.184  10.667
26170W        W92953  18.024   1.401   3.541
26171W        W92954  21.179   8.247  11.591
26172W        W92955  10.854  34.407  14.335
26173W        W92956  26.560  40.110   3.280
26174W        W92957  41.683  20.763  13.943
26175W        W92958  22.277  42.970   3.718
26176W        W92959  38.424   2.001   1.632
26177W        W92960  37.060  33.127  13.376
26178W        W92961  20.034  17.872   1.083
26179W        W92962  22.081  13.043  11.946
26180W        W92963  41.991  22.109   2.285
26181W        W92964   0.417  38.829   0.254
26182W        W92965   9.100  13.157   4.272
26183W        W92966  25.467  33.809   2.407
26184W        W92967  44.278  35.137   4.635
26185W        W92968  41.811  29.982   0.695
26186W        W92969  12.332  11.885   1.886
26187W        W92970  13.254  11.833  14.046
26188W        W92971   5.558  41.251   3.115
26189W        W92972  33.879   0.753   4.739
26190W        W92973  20.051   0.240  13.569
26191W        W92974  12.274  35.067  12.496
26192W        W92975  34.658   9.282  12.017
26193W        W92976  15.078  34.465  12.517
26194W        W92977  43.506  37.367  10.816
26195W        W92978  17.337  35.661  11.035
26196W        W92979  25.512   3.314  12.889
26197W        W92980  27.415  10.578  14.782
26198W        W92981  25.986  20.298  11.252
26199W        W92982  44.045  20.740  14.263
26200W        W92983  27.370  20.636  14.473
26201W        W92984   2.145  38.775   2.282
26202W        W92985  40.559  22.603   4.047
26203W        W92986  34.871   8.790  12.108
26204W        W92987  13.425   2.639  12.467
26205W        W92988  43.527   6.923   3.124
26206W        W92989  33.487  25.113   0.944
26207W        W92990   2.691  44.091   0.305
26208W        W92991  31.859  44.381   4.124
26209W        W92992  18.295   6.251  14.748
26210W        W92993  38.401  24.962   2.654
26211W        W92994   2.458  25.655   2.201
26212W        W92995  27.651  10.875  11.153
26213W        W92996  23.642  36.013  11.135
26214W        W92997  44.028   6.242  14.828
26215W        W92998  40.808   5.691   4.971
26216W        W92999   6.050  13.400  12.538
26217W        W93000  39.785  15.913   0.388
26218W        W93001  29.125  32.090  12.164
26219W        W93002  34.865  39.228   0.863
26220W        W93003  11.500  12.873   3.125
26221W        W93004   3.173   9.228  12.342
26222W        W93005  41.569  16.175  13.295
26223W        W93006  22.479  29.331  11.070
26224W        W93007  28.900  38.445   1.716
26225W        W93008   5.937  44.190  12.109
26226W        W93009  42.210   1.415  14.417
26227W        W93010  30.873  44.847   4.693
26228W        W93011  42.373  17.722   4.163
26229W        W93012   7.917  21.239   2.743
26230W        W93013  34.992   2.497  13.783
26231W        W93014  15.673  22.579  13.112
26232W        W93015  26.724  34.341  10.183
26233W        W93016   7.440   9.302  11.559
26234W        W93017  29.874  32.522   0.238
26235W        W93018   3.260   6.219   4.760
26236W        W93019  13.601  31.550  12.945
26237W        W93020   1.401   4.006  14.331
26238W        W93021  21.732  25.279  12.922
26239W        W93022  44.856  12.918  11.565
26240W        W93023   6.536  33.004  14.807
26241W        W93024   4.704  29.090   0.904
26242W        W93025  42.509  42.750   1.168
26243W        W93026  26.998   5.598   0.287
26244W        W93027  36.236   2.224   4.932
26245W        W93028  10.341  34.102   1.201
26246W        W93029  44.841  24.280   1.771
26247W        W93030  20.680  25.614  10.467
26248W        W93031  18.641  27.533   1.691
26249W        W93032   3.933  21.349  11.949
26250W        W93033   1.983  43.384  14.922
26251W        W93034   3.205  17.685  13.999
26252W        W93035   3.846  18.570   3.401
26253W        W93036  13.787  20.092   0.248
26254W        W93037  11.262   9.376   4.719
26255W        W93038  43.905  40.781  10.742
26256W        W93039   4.813  26.241   5.094
26257W        W93040  39.831  10.877   0.366
26258W        W93041  43.296  10.728  12.642
26259W        W93042  37.984  31.418   3.623
26260W        W93043  17.821  13.181  12.168
26261W        W93044  28.248   9.226  12.467
26262W        W93045   4.393   8.213  14.380
26263W        W93046  25.640  14.390   1.292
26264W        W93047  11.201  40.014   0.180
26265W        W93048  40.778  22.962  14.906
26266W        W93049   5.235  42.357  13.404
26267W        W93050  12.207  18.102   2.248
26268W        W93051  40.249  15.836   2.800
26269W        W93052  37.128  44.847   0.806
26270W        W93053  14.124   0.342  13.464
26271W        W93054   5.838  18.653  13.577
26272W        W93055  42.409  10.899  14.260
26273W        W93056  43.815  15.236   3.854
26274W        W93057  41.422   2.225  12.522
26275W        W93058   7.757  26.739   3.846
26276W        W93059   7.717   2.740   0.366
26277W        W93060  18.070  30.100  14.190
26278W        W93061  21.745  26.998   2.213
26279W        W93062   7.815   4.741   3.507
26280W        W93063  15.578  24.681   0.551
26281W        W93064   1.307   2.991   0.975
26282W        W93065  31.027  42.012   3.672
26283W        W93066  37.547  40.751  11.740
26284W        W93067  42.935  28.516   3.864
26285W        W93068  18.351   4.378   1.120
26286W        W93069   9.716  43.850  14.462
26287W        W93070  37.121  13.905  11.985
26288W        W93071  14.703   7.173   4.688
26289W        W93072   9.801  34.476   3.692
26290W        W93073  33.430  25.570   1.713
26291W        W93074  38.624  19.485   3.183
26292W        W93075  25.612   8.273   1.910
26293W        W93076  30.831  26.514   2.370
26294W        W93077   4.226  36.814   3.685
26295W        W93078   9.720  20.501  10.862
26296W        W93079   5.904  21.892  11.533
26297W        W93080  27.220  13.133  14.852
26298W        W93081  30.200  35.472   3.601
26299W        W93082  30.932  28.754  10.934
26300W        W93083  33.058  19.776   2.801
26301W        W93084  35.670  23.678   1.836
26302W        W93085  39.993  17.976  11.534
26303W        W93086  14.275  16.858  10.992
26304W        W93087  44.711   7.067   4.588
26305W        W93088  35.515  26.226   3.774
26306W        W93089  24.167   0.765  10.718
26307W        W93090  22.651  34.636  11.499
26308W        W93091  11.916  32.595  12.670
26309W        W93092  40.480  23.022   0.379
26310W        W93093  10.940  10.265  11.172
26311W        W93094  28.700  23.656  14.903
26312W        W93095  29.201   5.835  12.862
26313W        W93096  24.067  26.465   2.637
26314W        W93097  35.454  33.487   0.826
26315W        W93098  16.173  30.135  14.359
26316W        W93099  26.653  23.655  13.303
26317W        W93100   3.646  10.606  12.662
26318W        W93101   1.800  23.065   2.276
26319W        W93102  43.562  20.035   1.747
26320W        W93103  22.161  12.112   3.636
26321W        W93104   9.248  18.651   4.059
26322W        W93105  15.755  14.774   3.960
26323W        W93106  22.122   0.449   4.124
26324W        W93107   1.300  12.900  11.476
26325W        W93108   3.104  27.262  13.422
26326W        W93109   2.473  12.227   3.779
26327W        W93110   2.253  43.231   4.773
26328W        W93111  16.040  36.495   1.408
26329W        W93112  13.715  35.687   3.245
26330W        W93113  11.815   9.560  11.205
26331W        W93114  14.119   8.770  12.420
26332W        W93115  35.510  24.116   2.057
26333W        W93116   3.350  37.333   3.899
26334W        W93117   0.803  43.507  12.997
26335W        W93118  15.835  14.908   0.342
26336W        W93119  19.640  11.319   1.251
26337W        W93120  42.372  44.753   4.585
26338W        W93121  30.120  20.778   1.430
26339W        W93122  15.265  44.661  10.634
26340W        W93123  28.104   0.848   4.675
26341W        W93124   7.145   8.298  11.509
26342W        W93125  33.478  37.558   2.363
26343W        W93126  33.896  20.457   1.296
26344W        W93127  21.789  16.544   4.631
26345W        W93128  18.161  30.530   1.842
26346W        W93129  22.115  24.554  11.449
26347W        W93130   6.278  19.569   1.041
26348W        W93131  27.897  16.299  13.296
26349W        W93132  30.917  24.001   3.943
26350W        W93133  42.926  13.787  12.079
26351W        W93134  30.936   4.909  11.656
26352W        W93135  21.464  29.430   4.201
26353W        W93136   3.315  27.637   1.026
26354W        W93137  40.434  43.734   1.768
26355W        W93138  28.631  43.258  14.801
26356W        W93139  29.053  21.648   0.112
26357W        W93140  36.464  10.352  10.434
26358W        W93141  20.542  34.042  12.615
26359W        W93142  35.511  23.591  11.576
26360W        W93143  35.571  15.087  10.700
26361W        W93144   4.798  32.507   4.962
26362W        W93145  13.176  30.054   4.581
26363W        W93146  16.723   3.482   3.814
26364W        W93147   1.809  28.205  12.555
26365W        W93148  30.897  19.058   2.837
26366W        W93149   6.780  31.901  10.663
26367W        W93150  17.071   1.714  14.875
26368W        W93151  15.091  29.828   1.680
26369W        W93152  12.113  27.981  10.274
26370W        W93153  42.308   3.291   1.681
26371W        W93154  44.687  14.149   9.612
26372W        W93155  18.655  42.040   0.419
26373W        W93156  37.433   2.702   2.609
26374W        W93157  15.116  13.179  10.579
26375W        W93158  37.912  23.645  14.424
26376W        W93159  17.635  27.225  11.032
26377W        W93160  27.725  34.919  11.424
26378W        W93161   7.821   0.389   4.115
26379W        W93162   8.314  35.912  14.978
26380W        W93163  34.918  23.427  10.734
26381W        W93164  44.684  38.364   4.568
26382W        W93165   7.767  34.365  14.463
26383W        W93166  19.186  39.488  13.566
26384W        W93167   3.299  20.656   2.274
26385W        W93168  32.197  42.549   1.767
26386W        W93169   2.445  36.407  14.590
26387W        W93170  23.571  31.042   2.820
26388W        W93171  31.373  24.261  10.236
26389W        W93172  22.787  26.453  14.755
26390W        W93173  14.693   0.233   2.292
26391W        W93174  39.016  18.536   4.209
26392W        W93175   6.628   0.304   0.640
26393W        W93176  12.333   0.300   2.384
26394W        W93177  14.252   1.000   2.213
26395W        W93178   2.334  19.574   2.838
26396W        W93179  11.379   7.691   1.460
26397W        W93180  15.768  29.710  13.879
26398W        W93181  32.139  12.898   2.176
26399W        W93182  21.685   0.798  13.998
26400W        W93183   7.607  33.399   1.781
26401W        W93184  30.948  37.184   2.639
26402W        W93185  36.934  41.832   0.709
26403W        W93186   8.280  13.766   4.588
26404W        W93187  40.861  12.228  11.589
26405W        W93188  23.038  25.203   0.269
26406W        W93189   8.829  12.376  13.966
26407W        W93190  23.813  42.434  13.230
26408W        W93191  35.998  14.594   2.810
26409W        W93192  28.512  33.162  13.045
26410W        W93193  24.880  44.735   3.902
26411W        W93194  17.341   2.336   3.623
26412W        W93195  19.611   0.924  11.596
26413W        W93196   2.894  11.824   0.160
26414W        W93197  38.636   1.235   2.190
26415W        W93198  23.766  13.604   0.333
26416W        W93199  24.431   0.558   1.761
26417W        W93200  22.546   8.436   1.802
26418W        W93201  12.740   0.820   4.621
26419W        W93202  41.866  21.650   3.222
26420W        W93203  35.151  24.481   1.144
26421W        W93204  18.608  24.402  12.066
26422W        W93205  16.735  41.340   3.767
26423W        W93206   7.006   7.866   1.770
26424W        W93207  43.514   3.892   1.674
26425W        W93208   4.894  32.319   3.321
26426W        W93209  39.887  18.287   4.921
26427W        W93210  27.678  14.140   3.230
26428W        W93211  30.899   1.203   0.395
26429W        W93212  13.637  14.701  12.891
26430W        W93213  33.951  39.896   2.613
26431W        W93214  23.213  18.776  12.445
26432W        W93215  31.475   3.840   3.668
26433W        W93216  41.348  18.637  12.422
26434W        W93217  41.978   6.423   2.311
26435W        W93218   6.237  19.326   0.564
26436W        W93219  14.212  15.632   4.103
26437W        W93220  35.060  16.995  14.310
26438W        W93221  36.445  29.571  12.409
26439W        W93222   0.866  15.229  14.296
26440W        W93223  18.563  32.272   2.350
26441W        W93224  34.885  30.842   2.161
26442W        W93225  26.296  10.453   3.267
26443W        W93226   8.837  28.169   4.204
26444W        W93227   9.423  23.446  10.454
26445W        W93228  11.122  23.920   2.259
26446W        W93229   4.355   0.870   3.117
26447W        W93230  10.964  37.235   0.512
26448W        W93231  33.518  38.000  11.822
26449W        W93232   7.752  41.341  12.015
26450W        W93233   8.755  11.085   0.827
26451W        W93234  29.545  41.736   0.109
26452W        W93235  25.267   8.854  11.517
26453W        W93236   7.228   4.388  10.683
26454W        W93237  39.472  35.526  11.985
26455W        W93238  42.291  43.526   1.783
26456W        W93239  26.418  20.983  10.605
26457W        W93240  31.216  37.197  12.024
26458W        W93241  42.955  26.837  10.633
26459W        W93242  42.288  20.188  14.892
26460W        W93243  20.103   3.947   4.432
26461W        W93244  20.890  42.680  12.765
26462W        W93245  16.075  25.095   2.569
26463W        W93246   5.640  43.215  12.535
26464W        W93247  25.385  30.642  14.034
26465W        W93248  43.428  41.518  14.350
26466W        W93249   5.070  20.712  12.783
26467W        W93250  35.976  34.267   4.654
26468W        W93251  20.263  15.177  14.474
26469W        W93252  31.667   1.809  11.959
26470W        W93253   3.078  27.527   4.607
26471W        W93254   3.472  31.194  14.078
26472W        W93255  13.054  42.071  11.336
26473W        W93256   8.214  39.738   3.716
26474W        W93257  31.550  17.119  14.547
26475W        W93258   7.242  32.985   0.655
26476W        W93259  43.858  36.285   0.359
26477W        W93260  38.468  14.052  13.000
26478W        W93261  15.580  43.723   9.956
26479W        W93262  37.600   9.071   0.526
26480W        W93263  43.538   2.028   4.169
26481W        W93264  16.148  32.767  14.599
26482W        W93265   9.123  40.526   1.816
26483W        W93266  27.508  23.596   2.806
26484W        W93267  25.554  20.046   2.143
26485W        W93268  27.960  16.398  13.816
26486W        W93269  34.727  43.200   0.094
26487W        W93270  23.268   4.263   3.602
26488W        W93271  37.581  40.360  14.941
26489W        W93272  24.778   2.244  11.596
26490W        W93273   4.998  21.631  10.264
26491W        W93274   5.660  40.323  14.805
26492W        W93275  18.678  12.799   0.883
26493W        W93276  12.679  27.647  12.415
26494W        W93277   4.747  32.268   1.375
26495W        W93278   2.785  13.940   4.597
26496W        W93279  23.192  44.758   0.830
26497W        W93280  16.666   0.267   3.059
26498W        W93281  38.969  43.452  10.514
26499W        W93282  16.727   1.586   2.463
26500W        W93283  11.635   4.634   4.252
26501W        W93284   1.364  27.738  14.288
26502W        W93285  33.562   7.135  14.032
26503W        W93286  31.975  14.642  13.904
26504W        W93287  44.923   6.419   1.003
26505W        W93288  15.280  40.353  12.549
26506W        W93289  14.206  42.478  12.380
26507W        W93290  19.633  40.838   0.342
26508W        W93291  18.634  16.287   0.271
26509W        W93292  33.468   7.801  11.691
26510W        W93293  15.256   1.796  11.194
26511W        W93294  41.329  26.242  12.400
26512W        W93295  13.574  16.497   0.940
26513W        W93296  32.850  11.851  14.006
26514W        W93297  37.821  16.481  11.116
26515W        W93298  12.267  30.401  14.743
26516W        W93299  28.343   7.504  11.754
26517W        W93300  32.143   5.797  11.471
26518W        W93301  15.266  29.412   4.539
26519W        W93302  42.166  21.127  12.433
26520W        W93303  31.952  35.987  10.744
26521W        W93304  43.220  15.749   4.735
26522W        W93305  16.767  12.756  10.318
26523W        W93306  21.230  13.674   2.709
26524W        W93307  30.478   4.246  11.485
26525W        W93308  24.290  42.475   2.131
26526W        W93309  40.172   4.276   3.848
26527W        W93310  26.378  28.108   4.548
26528W        W93311  13.804  20.930   4.245
26529W        W93312   6.946  44.797   2.360
26530W        W93313   0.445  12.567  13.214
26531W        W93314  22.241  42.041   1.889
26532W        W93315   6.671  18.066  13.332
26533W        W93316  12.888  12.094   0.780
26534W        W93317  14.908  41.754   4.753
26535W        W93318  41.396  14.192  12.537
26536W        W93319  30.144  40.556  10.996
26537W        W93320   1.816  31.824  14.857
26538W        W93321  14.617  19.839  14.247
26539W        W93322  29.454   7.001  13.412
26540W        W93323  13.629  36.494   3.769
26541W        W93324   7.835  42.742   4.962
26542W        W93325   8.727  14.392   0.474
26543W        W93326  10.679  33.732  10.705
26544W        W93327  25.014  30.206  13.015
26545W        W93328  36.802  28.213   4.116
26546W        W93329  25.269  25.362  11.598
26547W        W93330  31.724  41.905   3.293
26548W        W93331  44.746   0.543  10.656
26549W        W93332  18.102   8.923  14.490
26550W        W93333  14.846  39.076   0.896
26551W        W93334  13.756  36.972  14.026
26552W        W93335  11.965  16.429  12.428
26553W        W93336  23.725  32.334  12.901
26554W        W93337  16.112   6.537  12.732
26555W        W93338  28.373   1.398   3.635
26556W        W93339  37.411  12.511   4.834
26557W        W93340  35.554  36.962   1.749
26558W        W93341   6.747   2.748  14.489
26559W        W93342   6.281   1.720  14.986
26560W        W93343  43.215  28.752   1.715
26561W        W93344  11.218  10.501   4.258
26562W        W93345  15.878  39.860  14.558
26563W        W93346  24.742  33.532   5.106
26564W        W93347  43.777  37.547  13.433
26565W        W93348   0.511  14.280  11.189
26566W        W93349  27.169  16.266   3.643
26567W        W93350  19.281  13.028   1.433
26568W        W93351  21.059   8.898   0.195
26569W        W93352  26.878  38.113  12.625
26570W        W93353  30.896  40.601   0.299
26571W        W93354  36.888  25.197  13.077
26572W        W93355  42.546  19.337  11.841
26573W        W93356  30.532  44.281   0.927
26574W        W93357  41.343  21.025   0.458
26575W        W93358  23.892  33.317  14.796
26576W        W93359   3.338  24.439  10.975
26577W        W93360  43.964  38.082  14.958
26578W        W93361  29.345  43.191   2.373
26579W        W93362  26.938  22.619  11.213
26580W        W93363  34.111   7.507  11.458
26581W        W93364  38.814  42.447   4.500
26582W        W93365  32.119  19.613  11.121
26583W        W93366  32.948  27.032  11.207
26584W        W93367  18.233  10.793  13.726
26585W        W93368  34.941  26.010   2.285
26586W        W93369  22.977   2.319  12.879
26587W        W93370  23.034  38.331   3.247
26588W        W93371  15.918  14.183   4.220
26589W        W93372  23.325  24.573   4.518
26590W        W93373  34.118  24.257   5.044
26591W        W93374  11.379  21.566   0.276
26592W        W93375  36.957  43.015   4.793
26593W        W93376  30.683  27.159  13.531
26594W        W93377  25.890   4.212   0.721
26595W        W93378  33.813  22.597   0.367
26596W        W93379  17.442  27.704  11.182
26597W        W93380  37.291  26.982  12.388
26598W        W93381  40.342  13.361  11.148
26599W        W93382  14.738  24.286   1.824
26600W        W93383  35.515  18.482  13.639
26601W        W93384  19.315   0.000  11.402
26602W        W93385   1.364  10.616  11.844
26603W        W93386  42.700  24.504   3.605
26604W        W93387   0.324  34.083  13.085
26605W        W93388  23.951   8.309   4.752
26606W        W93389   2.709  37.064   1.800
26607W        W93390   1.326  38.539   4.201
26608W        W93391  25.915  12.200   2.621
26609W        W93392  43.867  35.404   3.097
26610W        W93393  32.816  10.687  11.507
26611W        W93394  27.272  18.292  13.813
26612W        W93395  32.049  35.054   3.516
26613W        W93396  25.634   6.073  13.880
26614W        W93397  23.992  12.733   3.284
26615W        W93398  15.932   2.754   0.847
26616W        W93399  18.725  33.975  13.462
26617W        W93400  20.545   0.400  13.473
26618W        W93401  24.296  31.067  11.948
26619W        W93402  14.722  18.216  12.204
26620W        W93403  20.347  44.894   4.045
26621W        W93404  36.823   0.679   2.666
26622W        W93405  31.410  10.129  14.996
26623W        W93406   1.760  44.617  13.488
26624W        W93407  19.216  39.311   3.772
26625W        W93408  19.978  11.886  12.937
26626W        W93409  43.446   7.438   3.150
26627W        W93410  13.465  18.518  13.426
26628W        W93411  19.746  25.069   2.134
26629W        W93412  34.943  17.028  12.107
26630W        W93413   9.682   3.105   4.881
26631W        W93414   9.015  21.017  10.418
26632W        W93415   1.793   6.273  13.743
26633W        W93416  19.705  38.321   0.362
26634W        W93417  36.257  22.912  13.086
26635W        W93418  44.185  32.112   4.633
26636W        W93419  14.858  34.764   2.693
26637W        W93420  40.498  16.532   4.060
26638W        W93421   5.437  43.448  13.378
26639W        W93422  23.184  27.039  11.618
26640W        W93423  38.824  40.131   1.016
26641W        W93424  27.620  20.482   2.885
26642W        W93425  32.287  22.649   3.200
26643W        W93426  43.035  19.195  11.718
26644W        W93427  34.666   1.779   3.261
26645W        W93428  37.801  19.048  14.863
26646W        W93429   4.906  11.929   2.361
26647W        W93430   2.505  19.250   4.535
26648W        W93431  24.719  34.712   1.212
26649W        W93432  30.932  10.525   4.954
26650W        W93433  30.128  37.847   0.329
26651W        W93434  28.265  20.546  12.110
26652W        W93435   5.744  21.570   3.235
26653W        W93436   4.625  17.243   3.656
26654W        W93437  35.778  37.886   2.244
26655W        W93438  25.205   2.040   1.229
26656W        W93439   9.157  33.971   0.751
26657W        W93440  21.074  21.168  12.162
26658W        W93441  28.476  12.832   2.270
26659W        W93442  40.003   2.763   1.404
26660W        W93443  24.643  33.126   3.662
26661W        W93444   0.930  25.318  11.603
26662W        W93445  20.798  11.275  13.975
26663W        W93446   8.615  18.966   4.672
26664W        W93447  38.174   7.495   2.839
26665W        W93448  10.348   9.272  11.125
26666W        W93449  16.088  37.799  13.872
26667W        W93450  37.081  42.773   2.809
26668W        W93451  36.601   1.506   2.284
26669W        W93452  32.685  19.705  11.112
26670W        W93453  21.194  35.275   1.010
26671W        W93454  14.571  29.548   1.739
26672W        W93455  43.054  43.324  13.988
26673W        W93456   1.822   8.291   0.883
26674W        W93457  17.239  40.327   1.495
26675W        W93458   1.491   9.355   9.674
26676W        W93459  42.944  15.097   4.026
26677W        W93460  31.023  13.202   3.686
26678W        W93461  26.555  28.952   3.132
26679W        W93462  15.420  15.714  14.197
26680W        W93463  16.244  11.813   4.691
26681W        W93464  16.221  10.351   2.441
26682W        W93465   3.758  24.840   4.513
26683W        W93466  20.598  41.395  14.005
26684W        W93467  26.739   5.935   2.272
26685W        W93468  13.739  13.851  13.985
26686W        W93469  36.108   3.816   0.073
26687W        W93470  31.410  40.044  13.007
26688W        W93471  16.587  35.392  14.372
26689W        W93472  37.004  27.952  12.386
26690W        W93473  36.930  18.243   1.302
26691W        W93474   3.936  15.567  14.341
26692W        W93475   1.886  14.235  12.852
26693W        W93476  14.474  28.237  12.079
26694W        W93477  36.784  43.017  12.494
26695W        W93478   8.703  41.559  12.517
26696W        W93479  18.271  42.267   0.719
26697W        W93480  34.419  36.092   3.779
26698W        W93481   9.253  26.471   3.140
26699W        W93482  25.163  43.538  14.915
26700W        W93483  13.757  29.130  13.622
26701W        W93484  30.337  19.306  11.283
26702W        W93485  25.530  35.890   4.610
26703W        W93486  25.215  32.196  13.042
26704W        W93487   1.504  15.700  11.503
26705W        W93488  44.822  16.571   3.854
26706W        W93489  29.044  32.604   2.261
26707W        W93490   7.690  25.984   4.230
26708W        W93491  11.702  29.259  10.359
26709W        W93492  24.016   5.314   2.299
26710W        W93493  13.419  37.738   0.281
26711W        W93494  43.371  35.416  12.610
26712W        W93495   3.326   6.371  13.824
26713W        W93496   5.479  30.142  12.427
26714W        W93497  29.671  32.867   0.937
26715W        W93498  30.666   1.434  13.578
26716W        W93499  42.960  21.712  13.135
26717W        W93500  37.782  31.127   0.321
26718W        W93501   7.337  22.937  13.946
26719W        W93502  29.030   5.955  13.681
26720W        W93503  39.241  43.579   3.305
26721W        W93504  43.182   2.374   3.992
26722W        W93505  29.331  11.127   4.669
26723W        W93506  23.402  19.524  14.759
26724W        W93507   2.448  18.531  14.814
26725W        W93508  14.885   0.067   1.593
26726W        W93509  17.071  38.620  14.477
26727W        W93510   6.325  21.292  13.119
26728W        W93511   3.470   8.909   3.135
26729W        W93512  19.067  18.582   2.405
26730W        W93513   4.795   2.684  11.591
26731W        W93514  27.449  39.388   2.256
26732W        W93515  44.108  33.573  14.122
26733W        W93516  20.525  37.330   4.992
26734W        W93517   0.354  32.308   2.928
26735W        W93518  24.595  16.123  11.489
26736W        W93519  43.360   6.602  13.920
26737W        W93520   9.050  15.817  10.746
26738W        W93521  37.555  35.053  13.926
26739W        W93522  36.069  23.460  14.876
26740W        W93523   3.267  16.140  12.557
26741W        W93524  39.452   7.885  11.579
26742W        W93525   5.920  39.852   0.525
26743W        W93526   9.823  39.506   3.594
26744W        W93527  37.654  32.965   1.441
26745W        W93528  30.115  11.416  13.483
26746W        W93529  31.147  35.291  14.922
26747W        W93530  17.165  32.447   4.503
26748W        W93531  29.082  17.619  13.105
26749W        W93532  20.488  14.668   0.295
26750W        W93533  33.198  23.262   9.947
26751W        W93534  15.559  32.399   2.217
26752W        W93535  29.549  28.220  14.426
26753W        W93536  23.131  30.714   1.965
26754W        W93537  39.524  10.386  13.120
26755W        W93538  14.762  29.159   4.418
26756W        W93539  26.657  31.928   1.758
26757W        W93540  36.614  14.665  13.241
26758W        W93541  25.145  11.312   1.376
26759W        W93542  30.540  31.984   1.238
26760W        W93543   9.620  44.407   2.598
26761W        W93544   8.399  11.079   3.721
26762W        W93545  37.431  24.104   0.747
26763W        W93546  21.737  15.410  11.141
26764W        W93547  28.719   2.883   0.347
26765W        W93548  17.814  23.282  11.016
26766W        W93549  23.210   1.478   3.143
26767W        W93550  42.290  34.600  13.771
26768W        W93551  40.428  35.978   2.847
26769W        W93552  41.051  31.710  12.425
26770W        W93553  11.266  38.612   1.304
26771W        W93554  29.737   5.318   1.792
26772W        W93555  16.423  43.717   3.816
26773W        W93556  28.114  34.927  10.626
26774W        W93557  39.325  27.612   0.649
26775W        W93558  25.104  16.814   0.509
26776W        W93559  11.997   3.945   2.357
26777W        W93560  25.845  17.889   4.675
26778W        W93561   7.331  27.138   2.876
26779W        W93562  28.461  34.325  12.448
26780W        W93563  33.428  22.522   1.695
26781W        W93564  12.219   8.148  12.130
26782W        W93565  13.627  15.617   0.972
26783W        W93566  17.652   9.138   3.679
26784W        W93567  24.509  15.284   4.564
26785W        W93568  29.010  33.979   1.301
26786W        W93569  39.022  33.119   0.399
26787W        W93570  29.845  15.823   3.525
26788W        W93571  29.875  14.887   0.480
26789W        W93572  19.456  27.714  14.246
26790W        W93573  21.330  32.645   3.789
26791W        W93574  25.850  44.471   3.187
26792W        W93575  42.339  12.603   5.051
26793W        W93576  28.605  23.436  13.357
26794W        W93577  27.834  26.112  12.647
26795W        W93578  21.028  43.163   3.653
26796W        W93579   9.871  44.959   4.498
26797W        W93580  14.093  12.853  14.071
26798W        W93581  13.172  16.608   1.758
26799W        W93582  36.383  16.731   1.285
26800W        W93583  44.225  38.071  12.997
26801W        W93584  27.125   9.535  11.020
26802W        W93585  37.556  28.673   4.290
26803W        W93586   0.470   5.007   4.807
26804W        W93587  44.081  15.088  13.051
26805W        W93588  25.825  23.190  14.401
26806W        W93589   6.452  34.428   1.013
26807W        W93590  44.135  16.290   2.251
26808W        W93591   2.549   5.846  14.526
26809W        W93592   9.285  19.536   3.645
26810W        W93593  22.711  26.160   1.685
26811W        W93594   3.022   1.272   1.272
26812W        W93595  42.100   6.928   2.291
26813W        W93596  26.203  34.371  14.806
26814W        W93597  18.877  29.122   0.955
26815W        W93598  11.848  14.313  14.716
26816W        W93599  42.895  22.200  11.437
26817W        W93600  23.946   4.891  12.483
26818W        W93601   8.366   9.953   1.943
26819W        W93602  37.077  23.944   4.034
26820W        W93603  14.378  15.596  10.419
26821W        W93604  33.854  20.295   0.806
26822W        W93605  24.168  38.825   0.920
26823W        W93606  36.267  32.052  11.238
26824W        W93607  19.048  44.077   2.764
26825W        W93608  43.410   2.486   4.666
26826W        W93609  15.624   9.823   4.499
26827W        W93610  34.430  10.139   0.418
26828W        W93611  41.450  24.964  10.805
26829W        W93612  17.588  43.043  14.753
26830W        W93613   4.602  37.573   3.519
26831W        W93614   1.212  43.815   1.807
26832W        W93615  34.044  33.563  12.966
26833W        W93616  24.555   5.760   0.717
26834W        W93617  20.059  35.406  11.140
26835W        W93618  36.825  40.330   0.879
26836W        W93619  40.376  25.397  14.397
26837W        W93620  14.076  15.249   1.813
26838W        W93621  13.164   5.449  12.060
26839W        W93622   7.434   0.913   0.429
26840W        W93623   7.356  24.599   3.666
26841W        W93624  34.301  25.698   4.135
26842W        W93625   5.193  26.044  10.881
26843W        W93626   0.810   5.700  12.032
26844W        W93627  19.497  21.946   1.411
26845W        W93628  13.667  37.386   0.568
26846W        W93629  33.660  24.390   4.232
26847W        W93630  21.377  12.132  12.136
26848W        W93631  23.568  16.314   4.906
26849W        W93632  26.092  26.118  13.305
26850W        W93633  42.987  32.423   4.315
26851W        W93634   8.174  41.481   0.318
26852W        W93635   7.783  44.336   4.496
26853W        W93636  21.092  35.348   1.518
26854W        W93637  12.075  14.140  10.579
26855W        W93638  28.120  10.916   3.329
26856W        W93639  30.630   5.378   4.299
26857W        W93640  27.415  10.825   0.297
26858W        W93641  10.744  34.058   0.875
26859W        W93642  26.449   7.700   1.921
26860W        W93643  31.673  21.799   0.755
26861W        W93644  22.086   3.648   3.129
26862W        W93645  32.651  41.316  11.911
26863W        W93646  22.464  40.877  11.564
26864W        W93647  40.406  44.899   1.899
26865W        W93648  30.981  31.403  14.027
26866W        W93649  19.290  40.135  14.760
26867W        W93650  15.269  20.710   1.719
26868W        W93651  26.735   8.117  14.738
26869W        W93652  31.216  30.160  12.819
26870W        W93653  14.319  12.917   3.655
26871W        W93654  29.206  32.601  12.070
26872W        W93655  20.261  25.465  11.715
26873W        W93656  29.402  34.211  13.820
26874W        W93657  16.174  17.745  11.035
26875W        W93658   4.615  17.665   0.256
26876W        W93659  22.727  32.955   2.064
26877W        W93660  44.986  14.622   3.642
26878W        W93661  32.446  25.891   0.898
26879W        W93662  43.018  30.337   0.870
26880W        W93663   7.269  42.553  10.731
26881W        W93664  24.939  28.229  11.630
26882W        W93665  40.919  20.250  11.552
26883W        W93666  32.657  12.235   4.326
26884W        W93667  25.941  17.738   4.170
26885W        W93668  42.384  30.544   0.182
26886W        W93669  42.144   3.774   4.496
26887W        W93670  22.416  26.434   0.420
26888W        W93671  26.166  12.740   3.684
26889W        W93672  33.988  38.461   4.233
26890W        W93673   9.350  33.866  14.046
26891W        W93674   2.085  35.556   3.174
26892W        W93675  30.145   6.204   4.228
26893W        W93676  10.078  22.180   0.944
26894W        W93677  31.835  32.467   4.730
26895W        W93678  28.005  13.449  13.138
26896W        W93679  34.476  38.546   2.627
26897W        W93680  21.968   4.420  13.333
26898W        W93681  22.767  18.442  12.468
26899W        W93682  22.024  34.003   4.461
26900W        W93683   6.890  11.068  13.925
26901W        W93684  35.540  22.096  11.040
26902W        W93685  18.319  13.244   4.099
26903W        W93686  28.557   4.436   4.656
26904W        W93687  30.018  13.364  11.591
26905W        W93688  11.828  11.915  13.436
26906W        W93689  18.772   3.170  12.002
26907W        W93690   0.833  30.146   2.928
26908W        W93691  31.542  28.826  12.570
26909W        W93692  30.446   8.849  10.749
26910W        W93693   8.628  27.945   4.643
26911W        W93694  36.480  13.950   3.543
26912W        W93695  35.565  10.297   2.618
26913W        W93696  12.187  25.078   0.348
26914W        W93697   2.183  22.730  14.444
26915W        W93698   7.135  18.306   4.290
26916W        W93699   0.363  26.378   2.798
26917W        W93700  43.925  16.311   1.299
26918W        W93701  32.130  41.684  10.491
26919W        W93702   3.606   5.890   1.819
26920W        W93703  11.417  21.147  11.648
26921W        W93704  23.131  13.817  11.519
26922W        W93705   7.481  44.044   0.588
26923W        W93706  15.376  22.167  10.854
26924W        W93707  14.916   3.655   4.339
26925W        W93708  42.438  22.965  14.834
26926W        W93709  31.442  11.367  12.408
26927W        W93710  15.093  31.743  10.706
26928W        W93711   6.335   3.337   4.511
26929W        W93712   4.356  36.845   0.218
26930W        W93713  36.485  38.071  14.391
26931W        W93714  42.045  44.380  10.340
26932W        W93715  28.863  35.060  11.989
26933W        W93716   4.827   9.909  13.548
26934W        W93717  15.146  25.169  14.338
26935W        W93718  29.436  24.021  14.426
26936W        W93719   6.194  35.985  12.445
26937W        W93720  24.386  42.417   4.103
26938W        W93721  30.883   2.648  13.771
26939W        W93722   5.928  29.136  12.474
26940W        W93723  29.275  21.037  11.546
26941W        W93724  21.038  17.507  14.337
26942W        W93725   8.920  14.664  10.960
26943W        W93726  32.714   6.905  12.991
26944W        W93727   4.832  11.206  10.613
26945W        W93728   2.939  26.923  11.562
26946W        W93729  28.529  27.643   4.424
26947W        W93730   9.007   4.924   2.335
26948W        W93731  39.060  21.163  13.519
26949W        W93732  18.810  25.387  10.113
26950W        W93733   4.197  13.998   1.338
26951W        W93734  18.675  16.505  13.526
26952W        W93735  18.774   2.225   4.154
26953W        W93736  19.164  22.206  10.745
26954W        W93737  29.385  39.356  13.324
26955W        W93738  16.401  30.161  13.447
26956W        W93739   4.876  12.427   0.956
26957W        W93740  37.881   8.382   2.751
26958W        W93741  33.854  34.830   3.380
26959W        W93742  36.851  36.592  12.079
26960W        W93743  15.064  17.092  11.531
26961W        W93744  12.776  41.331   4.954
26962W        W93745  29.241  18.484   1.225
26963W        W93746  28.695  27.523   0.650
26964W        W93747   2.859  43.084  12.120
26965W        W93748  24.178  24.415  14.456
26966W        W93749  44.768  34.029   4.529
26967W        W93750  29.223  35.184   1.859
26968W        W93751  10.439  15.330   3.732
26969W        W93752  28.512   0.305   0.302
26970W        W93753  40.090   1.872   3.056
26971W        W93754  14.204  31.099  11.918
26972W        W93755  43.527  32.637   0.302
26973W        W93756  10.901  31.503  12.485
26974W        W93757   4.655  38.707  10.221
26975W        W93758  17.312  20.238   3.668
26976W        W93759  13.594   9.222  14.074
26977W        W93760  22.195   1.177  10.562
26978W        W93761   3.466  21.079   2.853
26979W        W93762  10.930  34.439  11.280
26980W        W93763  20.822   7.266  13.368
26981W        W93764  33.729  39.425   3.425
26982W        W93765   2.007   9.313  13.892
26983W        W93766  16.089  27.608  14.272
26984W        W93767  18.609   2.809  12.844
26985W        W93768  20.161  23.106   1.311
26986W        W93769  40.432   3.664   4.463
26987W        W93770  39.385  31.510  11.636
26988W        W93771  27.541   8.693  13.690
26989W        W93772  40.525   3.529   3.219
26990W        W93773  26.576  34.763   4.559
26991W        W93774  19.851  23.564  14.814
26992W        W93775   9.403  17.636   1.807
26993W        W93776  27.702  43.216   2.041
26994W        W93777  19.166  17.271  11.258
26995W        W93778  16.068  11.663  11.623
26996W        W93779   8.770  26.647   3.195
26997W        W93780   5.181  35.628   2.262
26998W        W93781  33.642   8.100  14.830
26999W        W93782   5.792   7.259  11.695
27000W        W93783  38.071  15.523  13.861
27001W        W93784   1.326  12.969  10.597
27002W        W93785  40.800  40.284  14.568
27003W        W93786  40.036  11.596   1.690
27004W        W93787  26.959   3.165   3.689
27005W        W93788  34.421   5.324  11.109
27006W        W93789  39.083   2.991   4.200
27007W        W93790  12.939  10.355   2.373
27008W        W93791  22.142  33.936  10.717
27009W        W93792   5.768   4.465  12.389
27010W        W93793  19.126  12.727  10.628
27011W        W93794   8.133  14.708   1.494
27012W        W93795  35.883   1.903   2.079
27013W        W93796  39.553  29.432   0.377
27014W        W93797  14.078  20.284   4.085
27015W        W93798  37.631  43.694  12.044
27016W        W93799  30.241  29.556  10.983
27017W        W93800   7.653  12.156   3.133
27018W        W93801  20.083  26.227   4.174
27019W        W93802  28.008   8.741   5.317
27020W        W93803   2.198   0.090   2.360
27021W        W93804   4.217  10.159  14.281
27022W        W93805  28.080  29.664  13.029
27023W        W93806   2.928  18.575  11.994
27024W        W93807  30.953  23.282  14.892
27025W        W93808  24.490  23.997   0.288
27026W        W93809   3.812  14.654  14.360
27027W        W93810  29.669  39.256  14.332
27028W        W93811  32.932  20.061  12.601
27029W        W93812  11.163   0.904   1.359
27030W        W93813   8.514  13.755  13.775
27031W        W93814  14.601  20.292  14.528
27032W        W93815   4.874   0.810   1.286
27033W        W93816  41.875  33.986   0.363
27034W        W93817  26.687  40.548  10.898
27035W        W93818   6.218  21.063  12.189
27036W        W93819  29.705  14.567  11.186
27037W        W93820  30.956  19.257  14.578
27038W        W93821  35.491  22.008   0.473
27039W        W93822  29.469  25.840  10.628
27040W        W93823  11.206  10.132  10.750
27041W        W93824  41.166  36.982  13.639
27042W        W93825  35.051  19.721  14.896
27043W        W93826  16.176   9.689   4.053
27044W        W93827  33.151   9.677   0.932
27045W        W93828  16.548  18.101  14.794
27046W        W93829  35.055  25.975   3.758
27047W        W93830  20.889  37.358   4.557
27048W        W93831  40.014  42.514  12.182
27049W        W93832  36.477  18.966  14.970
27050W        W93833  38.723  37.944  14.782
27051W        W93834   9.214  25.359   1.927
27052W        W93835  34.105   9.115   2.787
27053W        W93836  13.050  32.075   2.772
27054W        W93837  27.991  21.297   0.311
27055W        W93838   0.860  37.285  14.472
27056W        W93839  38.104   2.547  12.615
27057W        W93840  11.125  44.199  10.334
27058W        W93841   9.709  36.070   4.159
27059W        W93842  11.758  23.977  14.925
27060W        W93843  44.855  21.555   1.685
27061W        W93844  36.368  33.053  13.807
27062W        W93845  32.230  28.088   1.333
27063W        W93846   7.156  38.993  12.421
27064W        W93847  30.465  21.982   2.211
27065W        W93848  12.686  25.973  11.563
27066W        W93849  39.554  14.855  13.848
27067W        W93850  31.631  43.676  11.598
27068W        W93851   8.673   7.029  13.356
27069W        W93852  28.725  43.531   5.034
27070W        W93853  42.449  31.191  12.137
27071W        W93854  27.683   2.564   1.859
27072W        W93855  13.349  36.629   3.321
27073W        W93856   5.978  36.258   2.713
27074W        W93857  32.319  29.616   4.095
27075W        W93858  10.158  20.928   4.207
27076W        W93859  10.859  39.428   4.078
27077W        W93860  10.714   6.417   4.514
27078W        W93861  14.521   0.862   2.639
27079W        W93862  34.481  17.551  11.501
27080W        W93863   7.204   5.044  13.644
27081W        W93864  42.550  18.540   2.220
27082W        W93865  37.401   3.162  11.232
27083W        W93866  32.044   8.959  12.617
27084W        W93867  22.819   2.746   0.823
27085W        W93868  19.530  42.849   0.468
27086W        W93869   3.508  19.567   4.556
27087W        W93870  16.162  42.337   0.472
27088W        W93871  41.460   3.576   2.448
27089W        W93872  29.063   7.447  13.332
27090W        W93873  24.430  12.598  13.531
27091W        W93874  42.782  29.600   0.399
27092W        W93875  20.307  37.593  11.262
27093W        W93876   6.212  15.205   2.796
27094W        W93877  30.115   1.730   2.275
27095W        W93878  35.952  42.279  13.478
27096W        W93879   9.668  22.982   3.523
27097W        W93880  28.750   9.141  12.422
27098W        W93881  12.728  11.855   3.350
27099W        W93882  35.914  17.690  10.802
27100W        W93883  22.788   5.013   3.526
27101W        W93884  18.743  38.033  13.459
27102W        W93885  42.378  26.498   3.867
27103W        W93886  26.491   3.003   1.894
27104W        W93887   6.479  25.306  14.016
27105W        W93888  11.825   3.881   3.691
27106W        W93889  23.834  14.177   0.936
27107W        W93890  10.246  41.889  14.956
27108W        W93891  33.237  40.855   2.811
27109W        W93892   0.372   3.994   3.607
27110W        W93893  39.995  24.637   2.408
27111W        W93894  27.012  44.239  13.354
27112W        W93895  29.512  18.640  11.606
27113W        W93896  16.317  40.272   4.501
27114W        W93897  29.720   8.411   4.187
27115W        W93898  41.408  17.596  14.498
27116W        W93899  13.253  18.250  12.389
27117W        W93900  25.349   3.020  12.323
27118W        W93901  33.414  23.480  14.919
27119W        W93902   2.678  25.238   3.152
27120W        W93903  34.593   2.333  14.722
27121W        W93904  24.278  43.034   3.787
27122W        W93905  21.698  12.801   4.182
27123W        W93906  12.360  38.378  12.040
27124W        W93907   8.821   2.823  11.582
27125W        W93908  43.862  23.296  11.650
27126W        W93909   4.854  37.397   5.029
27127W        W93910  34.919  16.063  11.854
27128W        W93911  38.635  35.516  12.995
27129W        W93912  21.153  10.810   0.921
27130W        W93913  31.319  10.373   2.692
27131W        W93914  28.745  36.045  14.393
27132W        W93915  38.508   3.473   3.315
27133W        W93916  37.441  40.428  13.374
27134W        W93917  23.814  20.186  12.009
27135W        W93918  34.512  20.806   1.351
27136W        W93919  35.031  39.619   1.274
27137W        W93920   5.711  36.267   1.874
27138W        W93921  21.160  32.968  11.635
27139W        W93922  25.648  22.645   1.906
27140W        W93923  40.841  22.710   1.204
27141W        W93924  28.138  23.382  14.026
27142W        W93925  34.523   8.590  13.614
27143W        W93926  18.713  36.556  13.033
27144W        W93927  41.918   1.668   1.318
27145W        W93928  38.087  30.030   3.629
27146W        W93929   7.719  25.530   3.229
27147W        W93930   1.748  33.879   1.763
27148W        W93931   2.679  34.166  12.812
27149W        W93932  34.668   5.141   9.789
27150W        W93933  43.000  29.152   0.233
27151W        W93934  29.444  39.050  10.214
27152W        W93935   4.464  28.680  12.141
27153W        W93936  23.613  31.474  12.386
27154W        W93937   6.785  16.646   3.278
27155W        W93938  33.577  19.757   1.659
27156W        W93939  40.762  43.505   2.161
27157W        W93940  42.724  11.022   1.266
27158W        W93941  22.433   5.231  13.149
27159W        W93942  17.824  25.983  13.952
27160W        W93943  20.598  21.672   2.307
27161W        W93944   8.406  18.740   1.922
27162W        W93945  19.287  32.990   3.319
27163W        W93946   3.108  16.000   3.225
27164W        W93947  16.110  20.543   2.863
27165W        W93948  42.961  32.068  13.032
27166W        W93949  40.723  23.100   1.785
27167W        W93950  13.555   4.341   1.673
27168W        W93951  33.250  12.333   5.108
27169W        W93952  43.472  25.828  12.136
27170W        W93953  28.267  12.527   2.668
27171W        W93954  10.623  40.034   4.687
27172W        W93955  11.274  25.376  12.405
27173W        W93956  17.808   7.639   4.056
27174W        W93957  26.586  24.284   4.761
27175W        W93958   8.692  19.647  12.027
27176W        W93959  15.513   5.654  11.511
27177W        W93960  39.452  15.315  10.553
27178W        W93961  11.632   4.788  12.566
27179W        W93962  38.948   6.300  10.723
27180W        W93963   9.682  12.120   4.242
27181W        W93964  34.157  29.958  12.092
27182W        W93965  33.595  37.576  11.558
27183W        W93966  43.811  15.680   3.595
27184W        W93967  39.696   2.338   3.699
27185W        W93968   6.093  23.711   1.423
27186W        W93969   0.771  12.900   2.895
27187W        W93970   1.276  10.666   4.556
27188W        W93971  33.568  33.473  10.157
27189W        W93972  16.631  16.036   5.003
27190W        W93973  18.385  10.762  12.978
27191W        W93974   0.812  23.518   2.870
27192W        W93975  24.325  31.996   4.646
27193W        W93976  17.727  29.241  14.693
27194W        W93977  31.899  21.365  10.152
27195W        W93978  35.298  21.733  13.060
27196W        W93979  44.916   0.531   0.329
27197W        W93980  39.353  18.152   4.149
27198W        W93981  25.537  16.726   0.205
27199W        W93982   3.954  33.137  12.478
27200W        W93983  44.063  29.493   2.806
27201W        W93984  32.336  27.045   3.053
27202W        W93985  25.848  33.133   1.831
27203W        W93986  26.757  16.350   3.342
27204W        W93987  26.698   4.526  13.965
27205W        W93988  29.136   2.299   3.153
27206W        W93989   8.450  26.945  12.348
27207W        W93990  35.192   1.893   1.339
27208W        W93991  26.417  38.435   4.779
27209W        W93992   6.364   4.409  11.893
27210W        W93993  14.587  17.308  10.622
27211W        W93994  14.826   6.427   3.431
27212W        W93995  26.008   2.812   4.843
27213W        W93996  41.225   6.302  10.825
27214W        W93997  23.937  27.123  12.573
27215W        W93998   7.392  15.087   0.443
27216W        W93999   5.961   4.276   1.794
27217W        W94000   4.304  11.214  10.638
27218W        W94001  32.720  10.211  13.419
27219W        W94002  39.636  13.793   5.421
27220W        W94003  29.471   3.247   2.777
27221W        W94004  18.332  20.052   0.495
27222W        W94005  23.614   6.287   2.788
27223W        W94006  13.238   9.848   4.614
27224W        W94007  40.324  16.220   1.015
27225W        W94008  17.833  13.121  14.031
27226W        W94009   5.667   9.818   0.383
27227W        W94010  29.007  25.178  12.481
27228W        W94011   2.113  34.547   4.114
27229W        W94012  28.567  41.435   4.263
27230W        W94013  24.679  18.862  14.087
27231W        W94014  16.154  26.106  11.664
27232W        W94015  31.969  14.604   2.602
27233W        W94016  18.020   9.065  13.585
27234W        W94017  27.218   8.275   1.202
27235W        W94018  10.988  16.302  11.835
27236W        W94019  11.896   3.478  12.040
27237W        W94020  19.368  29.930   4.169
27238W        W94021  20.757  12.344  10.902
27239W        W94022  10.334  29.559  11.471
27240W        W94023  22.258  29.679   0.327
27241W        W94024  27.888  41.914  11.977
27242W        W94025  29.497  42.855   3.268
27243W        W94026  41.855  15.254  12.538
27244W        W94027  42.490   7.250  11.874
27245W        W94028  25.193   1.538   1.416
27246W        W94029   9.861   5.721  12.894
27247W        W94030  41.009  17.294   4.243
27248W        W94031  29.385   0.521  11.485
27249W        W94032  30.003  16.454   2.108
27250W        W94033  11.648  29.213  12.599
27251W        W94034   0.759  32.509  13.364
27252W        W94035  18.067  29.969   4.099
27253W        W94036  40.423   7.180   3.768
27254W        W94037   5.498   3.805  11.663
27255W        W94038  17.846  21.080   2.726
27256W        W94039  43.592  11.316   0.780
27257W        W94040  14.976  18.414  14.239
27258W        W94041  32.498  12.222  13.148
27259W        W94042  33.339  28.104   4.195
27260W        W94043   8.252  27.455   2.197
27261W        W94044  13.340   8.275   9.765
27262W        W94045  25.394  34.506   0.727
27263W        W94046  40.470   5.434   0.044
27264W        W94047  14.441  24.229  13.012
27265W        W94048  12.448  38.628   4.204
27266W        W94049  43.041  14.089   3.553
27267W        W94050  25.175  35.854  13.347
27268W        W94051   8.689  13.394   0.237
27269W        W94052  30.669   2.710  14.357
27270W        W94053  33.801  25.810   4.059
27271W        W94054   6.017  27.648  12.286
27272W        W94055   7.222  25.683   3.183
27273W        W94056  23.117   2.511   2.416
27274W        W94057  33.206  31.408   4.263
27275W        W94058   0.422  35.376   1.208
27276W        W94059   1.489  24.070  14.756
27277W        W94060  43.403  42.056  14.374
27278W        W94061  20.447  43.331   0.071
27279W        W94062  15.080  44.902  13.437
27280W        W94063  26.599  24.466  14.927
27281W        W94064  42.625  14.278   9.685
27282W        W94065  11.907  21.524   0.362
27283W        W94066  44.809  29.556   3.592
27284W        W94067  23.970  25.627   1.332
27285W        W94068  41.598  12.095   3.177
27286W        W94069  25.527  13.520  13.844
27287W        W94070  31.069  28.969  11.646
27288W        W94071  14.123  32.061   4.556
27289W        W94072  14.338  41.096  12.061
27290W        W94073  32.430   5.784   4.732
27291W        W94074   2.639  39.904  12.937
27292W        W94075  35.137  28.441  13.832
27293W        W94076  31.395   7.737  12.438
27294W        W94077  38.508  24.020  14.972
27295W        W94078  10.856  21.681   0.172
27296W        W94079  43.960  30.603  10.389
27297W        W94080   6.823  23.950   3.602
27298W        W94081  14.772  31.984   1.148
27299W        W94082   0.276  22.758  11.005
27300W        W94083  25.062  42.426  11.143
27301W        W94084  25.072  32.485   0.002
27302W        W94085   5.385  27.618   1.918
27303W        W94086  13.656  31.088   1.336
27304W        W94087  37.812  15.316   3.819
27305W        W94088  42.293   4.519   0.230
27306W        W94089  18.734  28.559   0.557
27307W        W94090   3.881  21.172  12.970
27308W        W94091  17.987  21.570   2.784
27309W        W94092  22.010   0.262   4.596
27310W        W94093  14.587  29.436  13.469
27311W        W94094   5.231   2.757  14.699
27312W        W94095  32.184  25.781   2.817
27313W        W94096  24.689  32.621   5.125
27314W        W94097   0.208  15.578  13.560
27315W        W94098   8.056   6.403  13.312
27316W        W94099  23.454  21.019   0.906
27317W        W94100  26.526  11.393   1.384
27318W        W94101  15.721  40.385  13.322
27319W        W94102  44.856  40.352   2.143
27320W        W94103  13.930  10.769   3.676
27321W        W94104  12.152  24.072   1.314
27322W        W94105   1.173  16.605  11.876
27323W        W94106  44.947  44.284  14.940
27324W        W94107  24.601   1.322   2.769
27325W        W94108  39.066   5.114  14.442
27326W        W94109  31.509  36.456  11.673
27327W        W94110  32.644   3.541  10.229
27328W        W94111   6.845   6.343  13.473
27329W        W94112  21.981  11.009   0.771
27330W        W94113   2.998  42.269  10.810
27331W        W94114  16.922  16.046  11.085
27332W        W94115  13.254  10.132  13.771
27333W        W94116  25.992  34.047   1.733
27334W        W94117   0.872  25.051  12.626
27335W        W94118  13.164  27.971  10.701
27336W        W94119  12.270  14.905  13.305
27337W        W94120  22.504  12.716   4.733
27338W        W94121  23.058   5.363  10.243
27339W        W94122  40.882   7.846   4.647
27340W        W94123  34.908  26.601   4.975
27341W        W94124  30.492   9.942  10.859
27342W        W94125  23.688  28.014  13.931
27343W        W94126  17.225   2.796  11.397
27344W        W94127  17.689  27.153   1.288
27345W        W94128   6.949  29.983  11.866
27346W        W94129  37.072  18.225   4.494
27347W        W94130  34.995  44.176  14.386
27348W        W94131  37.202  36.882   3.376
27349W        W94132  19.472   0.716  12.052
27350W        W94133  37.745  21.766  10.170
27351W        W94134  18.780  17.080   3.739
27352W        W94135  29.093  41.018  12.863
27353W        W94136   0.293  30.203  13.085
27354W        W94137  35.420  10.141   4.167
27355W        W94138  26.943  11.321  12.382
27356W        W94139  11.218  30.714  13.893
27357W        W94140  33.067   7.782   2.115
27358W        W94141  30.596  10.480   3.287
27359W        W94142  15.769  21.836  10.071
27360W        W94143  13.787  39.012   4.687
27361W        W94144  15.574  12.620  13.551
27362W        W94145   2.125  26.376   4.510
27363W        W94146   8.704  39.057   2.704
27364W        W94147   2.984  39.490   3.124
27365W        W94148  35.864  22.495  11.020
27366W        W94149  17.673  11.718  12.378
27367W        W94150  11.622  17.168  11.563
27368W        W94151  10.963  14.055   1.450
27369W        W94152  10.834   8.844  13.354
27370W        W94153  38.039  17.857  11.446
27371W        W94154  22.081  36.752  11.123
27372W        W94155  19.657  42.238   0.933
27373W        W94156  35.912  43.932  12.802
27374W        W94157  44.865  26.701  11.384
27375W        W94158  29.469  11.015  11.590
27376W        W94159  44.900  37.017  13.760
27377W        W94160  33.880  40.356  13.888
27378W        W94161  31.336   6.481  12.051
27379W        W94162  26.159   1.785  13.081
27380W        W94163  16.395  36.308  13.936
27381W        W94164  40.043  36.508  13.546
27382W        W94165  32.213  29.540   2.221
27383W        W94166  21.984  44.209  11.509
27384W        W94167  22.353   0.889  11.626
27385W        W94168  31.358  41.983  12.984
27386W        W94169  18.389  37.851   3.639
27387W        W94170  42.478  31.229  12.999
27388W        W94171   2.303  13.255   4.295
27389W        W94172  31.721  15.694   1.176
27390W        W94173  44.372   0.632  10.999
27391W        W94174   7.596   9.196  13.600
27392W        W94175  35.479  37.032   4.792
27393W        W94176  38.062  27.608   4.554
27394W        W94177   2.588  42.007   0.410
27395W        W94178  24.271  21.733  11.020
27396W        W94179  35.488  17.118   2.233
27397W        W94180  14.669   4.908   0.340
27398W        W94181  21.668  37.419   1.685
27399W        W94182  39.054  17.845  14.838
27400W        W94183  15.717  25.187   2.167
27401W        W94184  15.712  27.035  12.167
27402W        W94185  25.067  44.488   1.650
27403W        W94186  32.966  17.628  11.289
27404W        W94187   5.481  23.330   3.192
27405W        W94188  28.659   4.759   2.385
27406W        W94189  14.813  38.698   3.700
27407W        W94190  10.871  15.733  10.261
27408W        W94191  21.696   8.203   1.923
27409W        W94192  21.153  41.916  10.062
27410W        W94193  26.990  41.987  12.535
27411W        W94194  25.192  34.565   1.376
27412W        W94195  14.440  29.678  13.035
27413W        W94196   2.398  11.345   3.214
27414W        W94197  35.052  30.041  11.121
27415W        W94198  11.321  30.030   3.398
27416W        W94199  26.469  16.772  13.905
27417W        W94200  23.699  40.892   3.192
27418W        W94201   7.200  18.670   3.048
27419W        W94202   5.272  38.971  14.111
27420W        W94203  39.465  21.441   1.425
27421W        W94204  23.219  22.637   3.591
27422W        W94205   6.275   5.759   4.548
27423W        W94206  19.689  23.404   1.467
27424W        W94207   5.115  34.096   4.198
27425W        W94208  32.544  36.972   4.665
27426W        W94209  23.080   4.820   2.642
27427W        W94210  33.081   5.870   1.338
27428W        W94211   7.912  10.046  12.644
27429W        W94212   2.850  28.494  12.851
27430W        W94213  33.489  20.094   1.237
27431W        W94214  44.346  28.698   4.198
27432W        W94215   9.897   6.664  10.314
27433W        W94216  41.925  11.335   3.426
27434W        W94217   6.843   6.662  12.098
27435W        W94218   8.500  20.999  11.161
27436W        W94219   8.813  37.654   1.219
27437W        W94220  32.042  30.679   0.533
27438W        W94221  34.488  32.990   0.024
27439W        W94222  14.537  37.815   2.825
27440W        W94223  23.639  34.280   4.286
27441W        W94224   0.243  15.108  12.951
27442W        W94225  33.455  44.165  10.909
27443W        W94226  38.629   0.734   1.430
27444W        W94227  13.759   6.153  12.160
27445W        W94228  31.406  15.263   1.255
27446W        W94229  35.626  41.454   0.648
27447W        W94230  33.909  41.972   0.814
27448W        W94231  12.650   2.206  14.768
27449W        W94232  41.214  35.642   2.934
27450W        W94233   3.507  20.607   3.252
27451W        W94234  32.548  41.166   4.393
27452W        W94235  17.330  31.965  10.365
27453W        W94236  21.791  39.019  12.785
27454W        W94237   7.243  36.651   2.273
27455W        W94238   2.731  23.467   1.239
27456W        W94239  26.183   5.323  14.749
27457W        W94240  38.477  28.611  11.567
27458W        W94241  23.160  17.287   2.222
27459W        W94242   3.905  22.342  10.664
27460W        W94243  39.426  11.102   2.719
27461W        W94244  29.532  30.638  13.867
27462W        W94245  26.724   4.959   2.441
27463W        W94246  22.083  19.095  14.188
27464W        W94247  28.176  12.815   4.090
27465W        W94248   4.795  15.067   0.365
27466W        W94249  35.457  40.996   2.472
27467W        W94250  44.236  40.057  14.359
27468W        W94251  19.484  44.843  10.717
27469W        W94252   0.802  12.207  13.110
27470W        W94253   3.082  11.208   0.376
27471W        W94254  39.627   5.313   0.315
27472W        W94255  40.788  34.092  12.516
27473W        W94256  28.065  13.331   4.259
27474W        W94257  38.808  26.161  11.976
27475W        W94258  16.929  37.921   2.277
27476W        W94259  20.921   5.838   1.264
27477W        W94260  23.021  32.162   0.470
27478W        W94261  33.854  30.983   4.244
27479W        W94262  39.567  24.514   4.745
27480W        W94263  27.900   6.866  10.877
27481W        W94264  25.893  42.972   3.799
27482W        W94265   0.498  21.244  11.175
27483W        W94266  38.972  33.292   4.179
27484W        W94267  31.048  32.170   0.374
27485W        W94268  12.567  31.548  11.916
27486W        W94269  23.941  20.698  13.928
27487W        W94270  32.475  14.692  11.540
27488W        W94271   1.827   5.316   0.499
27489W        W94272  36.407   9.883  11.166
27490W        W94273   1.413  18.330   4.192
27491W        W94274  18.899  19.257   2.796
27492W        W94275   7.387   1.743   0.887
27493W        W94276  31.104  36.976   2.156
27494W        W94277  37.101  32.264   3.351
27495W        W94278   3.273  31.324  11.560
27496W        W94279  30.463  39.467   0.775
27497W        W94280  29.229  18.780   3.970
27498W        W94281  24.598  28.594  10.579
27499W        W94282  12.407  40.889  13.429
27500W        W94283  30.144  15.692  12.011
27501W        W94284  34.553   4.154  11.158
27502W        W94285  33.562   6.435   0.470
27503W        W94286  36.151   4.469   4.353
27504W        W94287  37.810  33.672   2.433
27505W        W94288   1.801  41.979  12.829
27506W        W94289   3.935  18.579   0.695
27507W        W94290  43.300   0.787   4.711
27508W        W94291  16.186  36.468   9.823
27509W        W94292   4.434  10.263  12.402
27510W        W94293  28.612   4.974   4.698
27511W        W94294   2.865  19.772   2.662
27512W        W94295  31.934  30.425  13.574
27513W        W94296  12.125  19.200  13.829
27514W        W94297  18.435  30.984  11.485
27515W        W94298  33.191  36.114   2.487
27516W        W94299  40.095   4.613   1.293
27517W        W94300   8.281  19.987  11.170
27518W        W94301  41.366  27.686  12.807
27519W        W94302  15.009  16.153   5.779
27520W        W94303   8.913  29.417  13.481
27521W        W94304  10.228   2.821   1.442
27522W        W94305   2.761  12.858  14.447
27523W        W94306  27.443  25.225  13.101
27524W        W94307  19.586  34.405   2.188
27525W        W94308  12.400  39.440  12.171
27526W        W94309  34.369  43.464   2.235
27527W        W94310  23.266  44.993   4.571
27528W        W94311  24.112  11.099   4.832
27529W        W94312   7.172  38.521   2.797
27530W        W94313  19.654  11.586   3.193
27531W        W94314  28.572  15.772   2.122
27532W        W94315  29.830  37.521  13.417
27533W        W94316   9.603  31.881   1.326
27534W        W94317  19.295   5.623  13.461
27535W        W94318  42.133  32.602  12.114
27536W        W94319  15.244  12.028   0.817
27537W        W94320  14.628   0.791  12.514
27538W        W94321   6.189   9.986   1.276
27539W        W94322  22.640  44.289  10.964
27540W        W94323   8.143   3.993   2.242
27541W        W94324  19.683  13.731  12.432
27542W        W94325  42.314   0.634  13.131
27543W        W94326  26.033  16.399   0.863
27544W        W94327   8.079  23.593  11.393
27545W        W94328  14.596  31.921  14.766
27546W        W94329  37.171  14.468   2.019
27547W        W94330  25.692  36.072  11.533
27548W        W94331  14.078  36.666  12.341
27549W        W94332  13.064  20.516   4.049
27550W        W94333  21.836   1.428  13.833
27551W        W94334  20.488   7.318   2.188
27552W        W94335  14.138   0.394   1.188
27553W        W94336  43.207  31.941   2.281
27554W        W94337  38.024  10.746   2.271
27555W        W94338  27.421  16.414  11.457
27556W        W94339  24.062  26.041   2.292
27557W        W94340   0.031  43.966  14.534
27558W        W94341  39.565  21.624  12.124
27559W        W94342  14.229  22.516  12.440
27560W        W94343   9.698  20.825  11.289
27561W        W94344  19.789   6.366  10.640
27562W        W94345   9.159  13.356   2.191
27563W        W94346   2.345  41.718   1.726
27564W        W94347  11.480  20.681  10.610
27565W        W94348   0.193  16.199   3.697
27566W        W94349  11.643  26.585   0.799
27567W        W94350  39.556  16.213   3.710
27568W        W94351  21.611   3.934   3.250
27569W        W94352   4.380  20.672  10.981
27570W        W94353  28.395  33.754  13.886
27571W        W94354  35.551   3.355  12.452
27572W        W94355  14.181   7.784   3.000
27573W        W94356  27.527   7.715  13.454
27574W        W94357   4.887  36.573  13.053
27575W        W94358  14.862  18.791  10.993
27576W        W94359   6.767  40.819   4.501
27577W        W94360  14.746   1.017  13.916
27578W        W94361   2.373  43.909   4.300
27579W        W94362  29.197  35.511  13.286
27580W        W94363  25.501  18.084   5.037
27581W        W94364  32.980   0.205  14.905
27582W        W94365   3.479  20.718   4.109
27583W        W94366  39.038   3.336  14.609
27584W        W94367  11.768  32.211   2.909
27585W        W94368  34.584   3.225   3.332
27586W        W94369  31.609  44.007  12.986
27587W        W94370   8.815  31.421   4.720
27588W        W94371  14.657  24.986  10.684
27589W        W94372  10.781  28.077   3.703
27590W        W94373  18.924  36.400   0.050
27591W        W94374  22.158  33.667   0.469
27592W        W94375  36.979   3.213   5.122
27593W        W94376  14.189  13.076  11.471
27594W        W94377  38.761  12.855   2.598
27595W        W94378  18.879   3.936  13.822
27596W        W94379  37.849  41.041   1.475
27597W        W94380  19.583  25.998   2.877
27598W        W94381   6.875   6.597   1.189
27599W        W94382  42.446  44.775   0.518
27600W        W94383  12.161  14.622   2.357
27601W        W94384  29.699  17.730   3.634
27602W        W94385  40.100  31.643   4.104
27603W        W94386   7.890  31.912  14.050
27604W        W94387  12.869   2.971  12.651
27605W        W94388   7.155  42.680   1.139
27606W        W94389  27.581   7.282   4.228
27607W        W94390  29.174  18.840  14.963
27608W        W94391  34.159  42.331  11.083
27609W        W94392  44.415  41.962   1.855
27610W        W94393  12.252  39.769  11.116
27611W        W94394  14.307  39.990  11.255
27612W        W94395  27.495  30.548   2.146
27613W        W94396  23.184  23.658  11.683
27614W        W94397  29.328  10.657   1.240
27615W        W94398  28.972  31.104   3.406
27616W        W94399  25.971  21.466  14.890
27617W        W94400  19.470  44.399  13.519
27618W        W94401  28.583  13.217   0.410
27619W        W94402  14.501  14.258   4.742
27620W        W94403  13.985   1.455  12.664
27621W        W94404  17.565  32.153  12.596
27622W        W94405   1.440  23.421   1.036
27623W        W94406  39.882  43.050  13.778
27624W        W94407  31.707  28.034   1.468
27625W        W94408  33.384  15.920  13.837
27626W        W94409  32.135  27.254  11.149
27627W        W94410  23.847   5.281   2.802
27628W        W94411  12.739  14.901   4.067
27629W        W94412  25.682  38.483   2.777
27630W        W94413  12.344  16.759   0.498
27631W        W94414  42.414  42.296   3.141
27632W        W94415  39.296  28.147  12.876
27633W        W94416  22.208  32.031   4.522
27634W        W94417  29.014  27.744  13.525
27635W        W94418  44.401   4.983  12.853
27636W        W94419  30.131  37.643   4.568
27637W        W94420  24.792  29.745   3.277
27638W        W94421  32.415  13.892  13.995
27639W        W94422   6.904  13.774   1.225
27640W        W94423   1.545  22.617   1.445
27641W        W94424  27.146   8.443   3.809
27642W        W94425   6.895  15.686  13.537
27643W        W94426  12.648   2.485  13.740
27644W        W94427  33.392   3.203   2.168
27645W        W94428  26.695  43.679   0.949
27646W        W94429  35.607  31.394   2.674
27647W        W94430  26.930  39.389  13.902
27648W        W94431   8.148  10.906  13.396
27649W        W94432  44.920  19.828  13.476
27650W        W94433   1.390  12.391  11.293
27651W        W94434  35.911  16.636   3.217
27652W        W94435   0.767  29.005   0.121
27653W        W94436  22.659  28.522   1.161
27654W        W94437  42.916  22.162  11.934
27655W        W94438  25.689  40.956   0.364
27656W        W94439  28.071   8.698   4.256
27657W        W94440  29.557  42.092  13.388
27658W        W94441  25.052   1.734  14.388
27659W        W94442  43.415   9.399   2.996
27660W        W94443   0.931  43.573   4.170
27661W        W94444   5.579  10.500   0.330
27662W        W94445  33.871  34.475  11.335
27663W        W94446   7.052  30.622  14.817
27664W        W94447  11.610  35.502   0.849
27665W        W94448  32.090  40.991   4.608
27666W        W94449   4.474  24.246   2.695
27667W        W94450  14.776  31.637  14.320
27668W        W94451   5.267   3.310  11.020
27669W        W94452  39.290   7.793  13.629
27670W        W94453  11.727  31.434   1.751
27671W        W94454  41.488  20.531  14.374
27672W        W94455  14.389  40.611  12.817
27673W        W94456  11.142   1.007   4.440
27674W        W94457  34.407   7.138   0.228
27675W        W94458  35.927  15.050  13.364
27676W        W94459  40.955  17.398  14.632
27677W        W94460  38.952  32.420   2.876
27678W        W94461   0.808  41.500  14.038
27679W        W94462   2.771   5.938   1.494
27680W        W94463  34.199  24.341   4.314
27681W        W94464  18.205   1.696   1.633
27682W        W94465  14.238  29.513  14.262
27683W        W94466  21.922  30.136  14.438
27684W        W94467  16.379   0.967   3.773
27685W        W94468  43.879  11.581  10.942
27686W        W94469   5.297  22.453  10.377
27687W        W94470  16.084  22.030  12.338
27688W        W94471  21.453  38.887  10.201
27689W        W94472   5.441  36.984  11.638
27690W        W94473  24.451  39.555  13.314
27691W        W94474  17.647   8.286   2.850
27692W        W94475  36.040  22.214   4.252
27693W        W94476  22.721   5.822   4.595
27694W        W94477  26.404  42.316   0.211
27695W        W94478  19.914   8.779   0.235
27696W        W94479   8.306  44.603   4.124
27697W        W94480  23.978  22.856   4.313
27698W        W94481  30.229  14.321  11.109
27699W        W94482  17.539  26.982  12.364
27700W        W94483  21.193  11.173  11.271
27701W        W94484  26.527  44.538  14.354
27702W        W94485  18.375  12.820   3.684
27703W        W94486   9.382  18.637  14.385
27704W        W94487  23.134   4.877   5.714
27705W        W94488  35.286  41.430  13.561
27706W        W94489   9.808   6.202   3.341
27707W        W94490  37.000   8.131  11.118
27708W        W94491   5.999  22.738   2.630
27709W        W94492  38.022  34.141   3.281
27710W        W94493  36.844   8.839  13.791
27711W        W94494   6.378  20.744   1.784
27712W        W94495  44.708  17.614  12.867
27713W        W94496  30.182  22.922   3.065
27714W        W94497  12.352  29.402  14.803
27715W        W94498  28.458   5.445  11.965
27716W        W94499  31.559  43.174  11.642
27717W        W94500  36.968   9.516   4.621
27718W        W94501  32.918  40.865   3.465
27719W        W94502  19.886  11.134   4.689
27720W        W94503   1.691  10.224  12.448
27721W        W94504  15.518  23.372  11.033
27722W        W94505  32.890   8.970  10.385
27723W        W94506   1.023  27.145  14.844
27724W        W94507  34.043   8.381   4.453
27725W        W94508  31.580  22.383   4.227
27726W        W94509  24.715  27.872   1.285
27727W        W94510  17.685   1.726   2.942
27728W        W94511  20.834  24.686   3.777
27729W        W94512  42.246   6.944  13.969
27730W        W94513  12.549  13.330   1.786
27731W        W94514  13.723  24.714  14.554
27732W        W94515   4.395   4.523  12.526
27733W        W94516  39.534  42.387  11.993
27734W        W94517  10.651   2.277   3.717
27735W        W94518  21.444  33.442  14.832
27736W        W94519  34.623  20.983   3.322
27737W        W94520  20.819  17.783   1.754
27738W        W94521  28.520   9.303  10.657
27739W        W94522   6.743  35.486   4.511
27740W        W94523   0.315  39.914   3.642
27741W        W94524  26.988  43.045  12.465
27742W        W94525  32.686   9.314   2.738
27743W        W94526  17.838  38.472   1.681
27744W        W94527  24.986  18.128  11.078
27745W        W94528  43.355   8.515  13.312
27746W        W94529   5.407  15.974   1.276
27747W        W94530  39.482  38.385   2.729
27748W        W94531  28.931  14.198  11.530
27749W        W94532   2.303  28.625  12.775
27750W        W94533   4.322  41.535  11.462
27751W        W94534  22.239  31.769  13.249
27752W        W94535  35.926  17.538   0.747
27753W        W94536  12.384   9.776   4.408
27754W        W94537  17.063  18.158   2.383
27755W        W94538  35.557  15.854  12.985
27756W        W94539   5.320  10.261  12.497
27757W        W94540  33.422   8.400  13.376
27758W        W94541  39.229  14.782   1.163
27759W        W94542  35.122   7.743   4.286
27760W        W94543  37.020   6.401   2.335
27761W        W94544  31.515   5.427   2.730
27762W        W94545  31.118  15.061  13.114
27763W        W94546  31.488  36.285   0.335
27764W        W94547  29.866  10.693   3.592
27765W        W94548  26.221  32.780   1.803
27766W        W94549  24.198  38.634  12.087
27767W        W94550  34.600  21.096   0.924
27768W        W94551  12.683  17.165   4.504
27769W        W94552   6.301  43.004  10.691
27770W        W94553   3.512  20.101   4.715
27771W        W94554  17.558  28.422   3.633
27772W        W94555  17.217   5.362   4.107
27773W        W94556   7.283  39.861  13.962
27774W        W94557  23.237  18.675  11.942
27775W        W94558  22.529   8.122  11.152
27776W        W94559   9.123  15.501   2.644
27777W        W94560  37.072  16.069  13.538
27778W        W94561  43.457  18.669   1.766
27779W        W94562  31.573  18.936   2.917
27780W        W94563  35.350  42.324   4.139
27781W        W94564   7.927  31.026  14.904
27782W        W94565  32.824  22.819   0.340
27783W        W94566  15.297  39.651   4.132
27784W        W94567  44.401   2.985  10.520
27785W        W94568  44.275  39.633  14.055
27786W        W94569  26.881  13.226  14.453
27787W        W94570  34.901   9.152  12.478
27788W        W94571  13.268   0.885  14.267
27789W        W94572   1.454  22.709   3.592
27790W        W94573  12.075  15.917  14.010
27791W        W94574   0.732  24.243   0.102
27792W        W94575  19.537  12.404   4.877
27793W        W94576  35.669  20.308  11.195
27794W        W94577  10.339   0.513   3.605
27795W        W94578  44.840   8.704  11.908
27796W        W94579   5.302  10.769   3.691
27797W        W94580  35.926   7.956  14.609
27798W        W94581  15.653  30.579  10.763
27799W        W94582  10.733  39.258  13.154
27800W        W94583  14.622   4.397   2.827
27801W        W94584  20.110  31.866  12.514
27802W        W94585  26.450  19.855   3.844
27803W        W94586  12.007   7.497   0.269
27804W        W94587  38.320  21.260   1.166
27805W        W94588  12.196  32.078  14.045
27806W        W94589  13.779   0.746   1.309
27807W        W94590   6.747  13.320  13.445
27808W        W94591   0.214   1.058   3.311
27809W        W94592  15.700  43.270   3.822
27810W        W94593  31.633  32.938  14.963
27811W        W94594   8.816  30.720  14.497
27812W        W94595  42.641  44.454  12.748
27813W        W94596  31.914  39.867   3.235
27814W        W94597  23.455  26.052   3.623
27815W        W94598   6.884  31.996   0.007
27816W        W94599  37.175  40.344   2.790
27817W        W94600  21.011   8.389   0.201
27818W        W94601  38.460   2.490   1.825
27819W        W94602  42.230  29.801  14.308
27820W        W94603  33.502  31.100   3.586
27821W        W94604  27.993  13.442   0.778
27822W        W94605  10.373   0.742  14.063
27823W        W94606  15.983  39.734  12.715
27824W        W94607   3.918  11.500   0.983
27825W        W94608   5.123  21.273  13.375
27826W        W94609  19.961  15.432   0.376
27827W        W94610  42.648  39.925  13.377
27828W        W94611  15.307  43.265  13.052
27829W        W94612   5.233   5.836  11.138
27830W        W94613   7.912  10.615  14.849
27831W        W94614  34.082  16.520  11.975
27832W        W94615  22.770  37.828   0.342
27833W        W94616  10.846  36.391   3.918
27834W        W94617  40.809  36.893   0.769
27835W        W94618   1.764  24.940  13.775
27836W        W94619  24.578  37.595   2.333
27837W        W94620  28.709  16.185  14.015
27838W        W94621  35.136  34.113   0.335
27839W        W94622  34.292  42.822   0.508
27840W        W94623  15.594   9.622  12.481
27841W        W94624   3.203   6.393   4.275
27842W        W94625   7.146   7.522  13.901
27843W        W94626  21.225   8.283   1.631
27844W        W94627   1.410   1.081   3.690
27845W        W94628  14.315  35.364   5.524
27846W        W94629  35.874  35.179  14.238
27847W        W94630   0.295   3.897   4.551
27848W        W94631  26.901  16.730  10.570
27849W        W94632  35.341  26.212  14.433
27850W        W94633  35.043  15.302   0.805
27851W        W94634  31.937  13.873   0.303
27852W        W94635  23.914   0.446   1.855
27853W        W94636  16.133  44.039  13.926
27854W        W94637  16.374  11.668   3.713
27855W        W94638   0.798  23.402  14.898
27856W        W94639  35.547  12.218  12.561
27857W        W94640  36.822  32.748  14.967
27858W        W94641   3.798  26.988  10.351
27859W        W94642   1.430   0.899  10.666
27860W        W94643  31.002  36.589  14.479
27861W        W94644   1.371  39.130   0.460
27862W        W94645  25.209  30.574  11.033
27863W        W94646  20.364  42.972   3.204
27864W        W94647  13.815  31.008  14.844
27865W        W94648  27.669  23.585  13.307
27866W        W94649  36.677   3.207   0.935
27867W        W94650  20.783  24.229   0.231
27868W        W94651  23.269  13.726   3.746
27869W        W94652   2.897   9.023   4.347
27870W        W94653  31.738  43.936   0.377
27871W        W94654  35.501  23.177   4.488
27872W        W94655  23.718  38.099  14.323
27873W        W94656  42.987  38.855  13.905
27874W        W94657  27.182  30.623   3.254
27875W        W94658  35.682  40.561   2.739
27876W        W94659  17.315   9.535  12.483
27877W        W94660   5.931  24.021   0.854
27878W        W94661  39.962  26.173  13.463
27879W        W94662  11.491  19.137   1.424
27880W        W94663  41.390  32.061   2.703
27881W        W94664  28.786   2.931   3.672
27882W        W94665  23.478  22.146  13.029
27883W        W94666  18.627   4.225   3.067
27884W        W94667  30.109   5.545  14.942
27885W        W94668  31.886  15.515  11.578
27886W        W94669   0.837  25.872   4.730
27887W        W94670   6.855  35.778  14.902
27888W        W94671  43.487   3.300   4.102
27889W        W94672  23.274  31.450   4.156
27890W        W94673   3.481  26.243  11.153
27891W        W94674  17.037  29.357   1.703
27892W        W94675  44.354  28.627  13.983
27893W        W94676   8.427  32.044   2.493
27894W        W94677  32.556  25.537   4.404
27895W        W94678   5.953  41.034   1.696
27896W        W94679  26.493  22.369   1.835
27897W        W94680  30.035   6.754   4.605
27898W        W94681  17.475  13.046  13.239
27899W        W94682  36.831  33.081   2.027
27900W        W94683  40.925   9.611  11.780
27901W        W94684  13.905  26.030   3.167
27902W        W94685  34.389  41.869   1.011
27903W        W94686  32.156  23.726  12.618
27904W        W94687  35.498  38.014   3.090
27905W        W94688  27.631  13.997   1.796
27906W        W94689  18.045  30.083   2.105
27907W        W94690  27.002  24.295   1.160
27908W        W94691  20.527   6.944   1.792
27909W        W94692  41.080   4.073   1.891
27910W        W94693  30.039  34.332  11.416
27911W        W94694  32.647  33.794  11.076
27912W        W94695  15.851  23.970   3.302
27913W        W94696  11.935  12.800   3.396
27914W        W94697  12.868   9.825  12.537
27915W        W94698  36.572  15.722   1.161
27916W        W94699  21.670  23.025   1.483
27917W        W94700  31.968  24.049  14.326
27918W        W94701  19.108  35.722   3.330
27919W        W94702  35.411  43.813  11.513
27920W        W94703  14.135   1.680   4.325
27921W        W94704  43.727  42.892   4.596
27922W        W94705  27.124  21.238  14.822
27923W        W94706   6.384  22.126  11.425
27924W        W94707  22.847  39.952  10.673
27925W        W94708  41.425   9.790  11.910
27926W        W94709   6.310  36.049  11.959
27927W        W94710  23.795  40.816  10.574
27928W        W94711   5.309  36.649  12.014
27929W        W94712   4.866  31.185  11.070
27930W        W94713  24.320  28.472  14.338
27931W        W94714  37.859  10.297  10.687
27932W        W94715  36.033  28.582  13.337
27933W        W94716   2.920  18.040   0.787
27934W        W94717  36.929  16.239   3.639
27935W        W94718  28.059  14.931   3.057
27936W        W94719  44.472  14.780   3.584
27937W        W94720   1.770  15.000  14.369
27938W        W94721  35.841   0.005  11.452
27939W        W94722  32.002  38.837  13.002
27940W        W94723  25.688  30.855  11.974
27941W        W94724  16.136  39.809   0.303
27942W        W94725  11.786   3.997  11.043
27943W        W94726  30.882  25.424  11.449
27944W        W94727  43.773  31.058  10.658
27945W        W94728   7.731  15.743   4.030
27946W        W94729  27.696   7.146  14.564
27947W        W94730  24.150  18.106  13.036
27948W        W94731  35.852   6.318  13.517
27949W        W94732  16.336  15.627   0.822
27950W        W94733  16.026  11.808  14.891
27951W        W94734  12.360  42.576  13.359
27952W        W94735  40.489  17.750   1.304
27953W        W94736  26.451  17.412   0.126
27954W        W94737  19.775  16.643  14.922
27955W        W94738  39.561  40.101  13.878
27956W        W94739   6.435  19.764   3.925
27957W        W94740   6.437  44.491  11.026
27958W        W94741  34.652  36.027  12.015
27959W        W94742  15.173  44.730   4.188
27960W        W94743  31.678   7.343  10.497
27961W        W94744   8.904   4.580   0.360
27962W        W94745  29.922  19.134  12.617
27963W        W94746  29.391  33.183  12.892
27964W        W94747  33.530  38.614   4.797
27965W        W94748   8.790  36.298   0.999
27966W        W94749  22.177  14.863   1.715
27967W        W94750   4.986  24.299  12.518
27968W        W94751  17.798  38.562  11.067
27969W        W94752  42.878  18.485   4.098
27970W        W94753   0.813  44.953  12.583
27971W        W94754  28.919  39.152  14.439
27972W        W94755  25.252   7.561  12.904
27973W        W94756   7.466   0.010   2.367
27974W        W94757  26.626  42.482  12.965
27975W        W94758  43.983  12.717  11.061
27976W        W94759  10.171  39.351   4.596
27977W        W94760  32.037   7.745  11.476
27978W        W94761  29.565  39.901  14.600
27979W        W94762  33.609   0.925   4.211
27980W        W94763  21.204  22.545   0.327
27981W        W94764   7.368  26.886   4.124
27982W        W94765  40.991  17.374   9.873
27983W        W94766  31.140  31.023  10.736
27984W        W94767   0.785  31.571   1.442
27985W        W94768   3.331  16.772   4.011
27986W        W94769   0.528  13.808   1.870
27987W        W94770   4.821  44.890  12.561
27988W        W94771  37.955   0.285   1.726
27989W        W94772   8.207   8.435   4.449
27990W        W94773   1.898  25.720   4.932
27991W        W94774  43.522   8.077  14.723
27992W        W94775  23.293  29.851  11.182
27993W        W94776  25.755  38.315   3.640
27994W        W94777  39.344   6.791   1.252
27995W        W94778   6.739   7.157  14.685
27996W        W94779  36.874   0.154   2.623
27997W        W94780  37.963  29.530   4.412
27998W        W94781  14.131   4.388   2.687
27999W        W94782  11.402  22.504  13.057
28000W        W94783  33.636  30.014  13.547
28001W        W94784  31.732  29.494  11.116
28002W        W94785   2.884  39.446   4.148
28003W        W94786   3.269  33.893  14.804
28004W        W94787   3.964  39.537   3.793
28005W        W94788   7.639  34.433  11.564
28006W        W94789   8.929  15.001  13.708
28007W        W94790  17.497  30.660  12.579
28008W        W94791   9.173   7.993  12.939
28009W        W94792  21.692  29.660   2.224
28010W        W94793  14.173  12.670   4.372
28011W        W94794  19.481  43.983  13.908
28012W        W94795  41.285  35.969  12.319
28013W        W94796  19.150  11.260   4.904
28014W        W94797  39.200   6.244  14.337
28015W        W94798  36.836  22.581  13.282
28016W        W94799  41.485  17.597   3.209
28017W        W94800  37.087   2.188   1.973
28018W        W94801  14.941  32.140  11.584
28019W        W94802  31.158  43.760  13.917
28020W        W94803   9.183   9.806  14.937
28021W        W94804  17.356  43.696  11.183
28022W        W94805  35.028   0.681  14.309
28023W        W94806  35.521  10.679  12.390
28024W        W94807  15.840   4.494   2.813
28025W        W94808   4.762  19.943   9.798
28026W        W94809  10.436   8.290  12.722
28027W        W94810   8.378  13.527   4.140
28028W        W94811  26.940   0.582   0.448
28029W        W94812   6.925  22.685   2.175
28030W        W94813  23.401   9.712   4.231
28031W        W94814  14.480  13.550  12.375
28032W        W94815  27.113   4.205  14.847
28033W        W94816   3.666  27.480  13.962
28034W        W94817  29.960  32.362   2.771
28035W        W94818  31.140  14.338   2.836
28036W        W94819  42.423  31.968  11.096
28037W        W94820  39.290   5.718  14.537
28038W        W94821  15.780  25.013  13.879
28039W        W94822  31.180   9.446  14.414
28040W        W94823  23.666   2.593  12.257
28041W        W94824   4.470  20.029  11.602
28042W        W94825  29.608  28.468  13.901
28043W        W94826  20.910  30.664   9.786
28044W        W94827  35.365  19.955  10.687
28045W        W94828  13.930  10.304  12.015
28046W        W94829  38.091  15.760   3.811
28047W        W94830  43.042  16.052   1.256
28048W        W94831   1.049  19.705  14.530
28049W        W94832  38.247  34.585   0.652
28050W        W94833  24.749  27.211   4.575
28051W        W94834   6.320  23.918  13.033
28052W        W94835  29.640  11.541  11.506
28053W        W94836  44.887  40.907  11.454
28054W        W94837  38.053  18.576   2.885
28055W        W94838  22.226  23.288  14.819
28056W        W94839  34.775  28.762  13.086
28057W        W94840  38.604   7.687  13.690
28058W        W94841  26.625  27.546  12.581
28059W        W94842  36.287  20.199   0.764
28060W        W94843   8.869  37.646  12.522
28061W        W94844  11.725  20.560  12.665
28062W        W94845  16.231  39.576  12.292
28063W        W94846  15.800  14.761   1.730
28064W        W94847   5.064  12.932  14.775
28065W        W94848   9.846  35.393  13.012
28066W        W94849  28.409  44.002  14.921
28067W        W94850  10.367   9.760  13.981
28068W        W94851  19.101  36.509  14.089
28069W        W94852  10.625  22.090   0.490
28070W        W94853  41.410   2.090   3.002
28071W        W94854  40.890  15.356   4.262
28072W        W94855  32.989   5.332  11.860
28073W        W94856  16.825  32.712  11.395
28074W        W94857  22.307  27.221   1.340
28075W        W94858  38.706  27.174   3.598
28076W        W94859  33.619  11.617  14.774
28077W        W94860  39.939  10.173   1.560
28078W        W94861  33.024  16.222   4.552
28079W        W94862  35.863  36.361   2.846
28080W        W94863  39.821   4.218   0.730
28081W        W94864  44.902  13.541   5.123
28082W        W94865  24.252  13.008   0.884
28083W        W94866  37.957  40.800  12.049
28084W        W94867  17.768  11.826   0.784
28085W        W94868  26.289  39.381  13.371
28086W        W94869  32.071  39.389   2.599
28087W        W94870  20.673  11.337  13.076
28088W        W94871  25.779  44.801  11.678
28089W        W94872  13.690  36.995   0.969
28090W        W94873  32.373  19.206   1.806
28091W        W94874  25.247   6.215  10.899
28092W        W94875  30.425  10.271   2.842
28093W        W94876  32.500  11.840   2.302
28094W        W94877   2.938  27.008   4.503
28095W        W94878  42.886  37.817   1.357
28096W        W94879  43.456  29.749   4.053
28097W        W94880  10.844  31.092   0.367
28098W        W94881  26.687  36.472  14.800
28099W        W94882  42.148   3.305  11.953
28100W        W94883  38.562  22.026  14.928
28101W        W94884   5.437  18.113   1.420
28102W        W94885  12.232  39.048   1.882
28103W        W94886  32.801  42.890  10.237
28104W        W94887  16.384   3.868   0.025
28105W        W94888  39.002  17.603   4.323
28106W        W94889   5.599   5.855  11.482
28107W        W94890  19.132  13.260   1.860
28108W        W94891  28.288  37.621  10.090
28109W        W94892   9.822  28.563   4.303
28110W        W94893  31.635  10.719   2.950
28111W        W94894  35.525   7.360   2.653
28112W        W94895  29.292  43.951  13.341
28113W        W94896   0.951  14.324  11.496
28114W        W94897   5.741  23.089  10.850
28115W        W94898  30.067  35.675  14.238
28116W        W94899  25.650  13.750  11.118
28117W        W94900  15.171  23.999   2.337
28118W        W94901   2.769  41.837   1.266
28119W        W94902   6.844  27.333  13.227
28120W        W94903  35.344  43.497  11.925
28121W        W94904   7.737  14.202  10.569
28122W        W94905  10.663  34.896  13.354
28123W        W94906  33.492  17.608  14.256
28124W        W94907  38.774  22.542  12.530
28125W        W94908  44.678  27.632  11.066
28126W        W94909  13.216  40.135   4.630
28127W        W94910  13.684  34.879  13.262
28128W        W94911   9.870  31.993  14.904
28129W        W94912  30.822  20.386   4.113
28130W        W94913  26.659  20.100  12.421
28131W        W94914  24.760  13.659  14.092
28132W        W94915  16.715  38.962   2.373
28133W        W94916  21.861  17.253   0.298
28134W        W94917  22.404  31.971   3.190
28135W        W94918  44.972  22.057   0.809
28136W        W94919  13.526  29.974  14.359
28137W        W94920  25.675  22.953   2.320
28138W        W94921  15.042   9.366  14.506
28139W        W94922  29.963  16.316   3.638
28140W        W94923  27.201   0.762   4.564
28141W        W94924   8.265  39.414   3.266
28142W        W94925  43.860   0.629   3.035
28143W        W94926  20.080  18.695  13.763
28144W        W94927   3.256  38.881  12.977
28145W        W94928  27.725  41.712  12.816
28146W        W94929  21.048  30.171   1.257
28147W        W94930  13.234  20.607  13.824
28148W        W94931  28.637  34.472   3.262
28149W        W94932  33.548  10.796   3.499
28150W        W94933   2.992  44.426  12.989
28151W        W94934  39.491  33.898  14.521
28152W        W94935   8.597   4.183  13.371
28153W        W94936   1.436  31.925   0.831
28154W        W94937  26.182  43.913  11.642
28155W        W94938  16.369   2.785   0.007
28156W        W94939  25.795  28.445  14.447
28157W        W94940  25.594   5.615   1.740
28158W        W94941  42.116  41.595   0.354
28159W        W94942   3.821  37.986   2.494
28160W        W94943   3.252  40.941   4.578
28161W        W94944  41.203   1.543   3.645
28162W        W94945   9.139  33.681  12.380
28163W        W94946  18.082  10.263  13.606
28164W        W94947  14.340  31.907  10.293
28165W        W94948  18.796  32.506   3.694
28166W        W94949  33.841   5.997   3.130
28167W        W94950   2.644  40.424  13.764
28168W        W94951  35.173  27.017  13.599
28169W        W94952  44.908  43.525  12.557
28170W        W94953  27.149  19.497   0.747
28171W        W94954   5.113  29.129  11.659
28172W        W94955   1.885  11.720   4.505
28173W        W94956   4.277  39.563  11.888
28174W        W94957  36.611   5.361  14.472
28175W        W94958  35.294   5.878  10.629
28176W        W94959  38.943  43.974  10.471
28177W        W94960   9.996  22.960   1.992
28178W        W94961   1.362   3.697  11.965
28179W        W94962   8.698   4.605   3.211
28180W        W94963  28.269   8.682   1.864
28181W        W94964  16.725  10.293   4.606
28182W        W94965  17.306  44.537  12.773
28183W        W94966  32.231   2.782   1.873
28184W        W94967  28.529   9.349   0.422
28185W        W94968  18.307  39.828   2.663
28186W        W94969   3.427  42.821   3.458
28187W        W94970  26.981  36.105  11.567
28188W        W94971   0.104  34.962   0.278
28189W        W94972  32.904  30.129  10.695
28190W        W94973  34.969  21.716   1.264
28191W        W94974  29.546   3.631   0.950
28192W        W94975  39.971  30.339  12.140
28193W        W94976   9.774  18.595   3.050
28194W        W94977  35.011   3.316  11.705
28195W        W94978  42.139  44.948   2.451
28196W        W94979   7.716  11.444   4.175
28197W        W94980  44.256  16.635  11.834
28198W        W94981  35.749  29.465  12.922
28199W        W94982  13.416  10.244  13.292
28200W        W94983   3.041  30.443   4.520
28201W        W94984   7.345  28.610  11.691
28202W        W94985  28.593  32.923   2.037
28203W        W94986  12.124  43.762  11.503
28204W        W94987   0.836  29.577  11.414
28205W        W94988  34.500  12.197   2.887
28206W        W94989  40.273   1.942   4.092
28207W        W94990  31.471  20.812  13.501
28208W        W94991  22.649  39.547   2.193
28209W        W94992  35.950  41.786   2.740
28210W        W94993  37.978  21.270   4.913
28211W        W94994   7.176  22.189  14.455
28212W        W94995  42.495  28.664   4.079
28213W        W94996  39.441  36.493  13.107
28214W        W94997  38.359  22.004  11.630
28215W        W94998  17.567   5.085  11.563
28216W        W94999  24.266   5.167   0.257
28217W        W95000  39.462  13.261   2.629
28218W        W95001  33.710  17.216  11.424
28219W        W95002  26.505  34.849  13.707
28220W        W95003  19.969  14.641   3.993
28221W        W95004  36.077  25.165  14.891
28222W        W95005  12.181  39.938   3.767
28223W        W95006   3.232   3.425  13.027
28224W        W95007  23.431  13.572  13.423
28225W        W95008  19.952  26.498   2.968
28226W        W95009  22.075   7.806  12.447
28227W        W95010  43.487   5.896   3.130
28228W        W95011  31.493  11.251   2.698
28229W        W95012  31.027  32.426   2.469
28230W        W95013  17.585  21.069  14.872
28231W        W95014   5.689  20.062  10.707
28232W        W95015  44.327  27.100   0.814
28233W        W95016  30.361   7.476   1.784
28234W        W95017  39.972   5.167  14.460
28235W        W95018  33.628  40.146   4.593
28236W        W95019  43.246   8.909  14.249
28237W        W95020  25.114  28.006   0.951
28238W        W95021  13.391   7.319   2.395
28239W        W95022  14.564   9.596   2.785
28240W        W95023   9.374   6.976   4.036
28241W        W95024  15.305   4.708  12.938
28242W        W95025  44.526  24.170  11.470
28243W        W95026  21.222   3.655  12.314
28244W        W95027  10.898  41.988   1.306
28245W        W95028  44.689  15.363   3.258
28246W        W95029  13.794  21.261  11.492
28247W        W95030  36.508  26.868  13.473
28248W        W95031  27.662  27.226   4.096
28249W        W95032  23.420  38.409  10.716
28250W        W95033  36.822  31.856   2.288
28251W        W95034  44.404  19.511  11.564
28252W        W95035  40.447  29.474   2.377
28253W        W95036  34.083  16.320   2.205
28254W        W95037  44.986  38.945  10.645
28255W        W95038   3.336  44.266  14.355
28256W        W95039  40.470  14.067   2.685
28257W        W95040  21.870  23.098  13.546
28258W        W95041  35.646  28.450   0.572
28259W        W95042  36.976  26.084  12.383
28260W        W95043  10.791  42.450  14.034
28261W        W95044  26.938  28.960  13.452
28262W        W95045  32.003  38.284  12.627
28263W        W95046  16.717  20.771  14.657
28264W        W95047  25.242  42.654   1.232
28265W        W95048  18.664  19.721   2.797
28266W        W95049  18.629  38.871  10.187
28267W        W95050  28.628  22.398   1.008
28268W        W95051  16.040  15.643  11.903
28269W        W95052  36.944  44.339   1.913
28270W        W95053  36.606  26.177  11.017
28271W        W95054   9.193  19.817   2.724
28272W        W95055  14.769  11.286   4.376
28273W        W95056  15.678  35.133  14.308
28274W        W95057   6.170  15.295  12.543
28275W        W95058  26.760   5.368  12.120
28276W        W95059  28.044   2.996   2.728
28277W        W95060  23.727  43.572   2.710
28278W        W95061  25.208  29.992  14.386
28279W        W95062   0.688   0.516   9.844
28280W        W95063   7.163  33.862   0.056
28281W        W95064  34.872  16.033  13.310
28282W        W95065   8.701   1.418  14.294
28283W        W95066  22.427  20.853   4.789
28284W        W95067  41.256  21.568   1.165
28285W        W95068  31.164  39.809   4.577
28286W        W95069  22.256  28.228   1.360
28287W        W95070  43.898  15.854   2.084
28288W        W95071   6.863  17.769   1.014
28289W        W95072  30.044  40.131  12.843
28290W        W95073  27.338  27.444   1.205
28291W        W95074  25.772  40.895  11.974
28292W        W95075  37.105   7.488   3.672
28293W        W95076  33.221  11.063   3.835
28294W        W95077   3.785   0.503  14.990
28295W        W95078  36.382  14.331   0.316
28296W        W95079  26.470  39.313  10.662
28297W        W95080  36.905  39.396   0.698
28298W        W95081  30.232  10.195   2.337
28299W        W95082  13.217  33.558   3.773
28300W        W95083  32.131   3.961   2.369
28301W        W95084   3.802  40.829   2.862
28302W        W95085  35.248  23.156  11.924
28303W        W95086  19.809  30.202   4.075
28304W        W95087   0.232  25.999  10.624
28305W        W95088  16.868  19.863   1.877
28306W        W95089  10.230  42.211  10.698
28307W        W95090  40.378  14.411  11.690
28308W        W95091   7.314  12.337   2.282
28309W        W95092  40.790  31.500   2.732
28310W        W95093   7.700  18.455   3.815
28311W        W95094  10.041  39.517   2.345
28312W        W95095  38.417  31.563  12.872
28313W        W95096  17.294  38.726   3.251
28314W        W95097  14.118   5.371  12.087
28315W        W95098  41.254  44.230   2.677
28316W        W95099  24.161  27.157  14.492
28317W        W95100  16.884  29.525  10.736
28318W        W95101  34.527  24.993  10.999
28319W        W95102  20.190   7.824   1.422
28320W        W95103   1.204  11.147  10.478
28321W        W95104  14.413  11.292   1.387
28322W        W95105   6.449  38.355  14.907
28323W        W95106   0.828  19.670   0.977
28324W        W95107  33.956  32.881  14.884
28325W        W95108   9.302  17.276   4.113
28326W        W95109   9.397  27.517  14.393
28327W        W95110  29.683  21.937   1.695
28328W        W95111  40.371   8.860   1.770
28329W        W95112  20.114  29.508  14.065
28330W        W95113  11.052   1.199   2.840
28331W        W95114  27.718   8.690   3.017
28332W        W95115  35.837  43.398  13.068
28333W        W95116   3.924  39.295  14.828
28334W        W95117  33.103  16.657   1.615
28335W        W95118   3.488  33.588   0.325
28336W        W95119  20.031  16.247  12.722
28337W        W95120   7.762   1.705   2.037
28338W        W95121  34.356  26.569   1.077
28339W        W95122  39.849  26.026  11.945
28340W        W95123  15.776  44.366  12.832
28341W        W95124  34.827  30.467   9.812
28342W        W95125  39.093  34.705  14.501
28343W        W95126   0.925  30.240   1.686
28344W        W95127  26.652  21.096  11.968
28345W        W95128  13.782  29.555  14.489
28346W        W95129  19.499  18.253  12.566
28347W        W95130  23.968  11.094  11.875
28348W        W95131  30.101   1.264   4.177
28349W        W95132  37.736   3.861   4.226
28350W        W95133  42.943  44.892  12.761
28351W        W95134   0.238  17.521  14.080
28352W        W95135  10.304  19.125  13.788
28353W        W95136  33.638   8.599  14.868
28354W        W95137  17.491   3.179  11.119
28355W        W95138  43.430  21.000   2.768
28356W        W95139  29.704  31.951   3.277
28357W        W95140  29.052  11.361   3.192
28358W        W95141  11.224  30.846  11.459
28359W        W95142  41.077   2.451   0.385
28360W        W95143  43.996   6.498  11.486
28361W        W95144  28.105   1.168   3.215
28362W        W95145   9.786   5.785  11.989
28363W        W95146  29.120  12.133  13.728
28364W        W95147  23.412  31.403  10.728
28365W        W95148  38.339  32.137   1.259
28366W        W95149  25.075   5.250   2.188
28367W        W95150  23.166   6.407  11.482
28368W        W95151  24.632  11.169   2.235
28369W        W95152  21.262  22.610   1.675
28370W        W95153  32.925   5.653   4.890
28371W        W95154   5.845  21.237  12.887
28372W        W95155  42.718  16.584  13.435
28373W        W95156  43.946  32.135  13.039
28374W        W95157  15.511  42.205  11.475
28375W        W95158  32.118  30.101   4.087
28376W        W95159   1.380  42.375   1.218
28377W        W95160  12.162   1.005   0.087
28378W        W95161  35.306  39.876   4.127
28379W        W95162  30.000  30.973   0.967
28380W        W95163  36.019  12.374  13.500
28381W        W95164   1.526  27.441  11.567
28382W        W95165  39.061  15.537  13.804
28383W        W95166  36.871  43.737   4.106
28384W        W95167  43.340  26.479  11.009
28385W        W95168  30.484   6.301   2.813
28386W        W95169  15.778  13.566  11.168
28387W        W95170  44.706  30.089  14.392
28388W        W95171  39.774  38.088  13.105
28389W        W95172  40.035   7.467  10.422
28390W        W95173  33.725  19.987  11.722
28391W        W95174  23.297  12.242   0.210
28392W        W95175   9.124  33.927   3.285
28393W        W95176  32.529  31.681  11.609
28394W        W95177  26.931  17.807   3.433
28395W        W95178  31.575  27.539  14.891
28396W        W95179  33.450  24.298  12.504
28397W        W95180   0.888  17.327   1.253
28398W        W95181   6.849   8.108  11.107
28399W        W95182   3.989  42.920  12.607
28400W        W95183  20.049  31.852  11.593
28401W        W95184  13.768   4.763   1.888
28402W        W95185  22.708  44.518  13.296
28403W        W95186  11.576  34.904  13.306
28404W        W95187   2.874   8.201   4.533
28405W        W95188  42.244  36.955  12.474
28406W        W95189   0.815  26.820  13.455
28407W        W95190  21.994   8.660   3.681
28408W        W95191  18.175  10.782   2.150
28409W        W95192  38.021  11.820  12.043
28410W        W95193  36.071  24.530   0.787
28411W        W95194   5.824  44.594   3.149
28412W        W95195  22.097  13.112   3.814
28413W        W95196  29.587   2.307  13.459
28414W        W95197  25.515  11.473  11.667
28415W        W95198  17.153  19.056  10.680
28416W        W95199  29.102  40.971   0.672
28417W        W95200   3.951  44.515   0.385
28418W        W95201  30.424  24.600   2.835
28419W        W95202   7.450   9.393  12.928
28420W        W95203  40.099  30.201   3.732
28421W        W95204  39.901  11.379   2.218
28422W        W95205  31.853  17.911  13.596
28423W        W95206  33.326  30.123  14.523
28424W        W95207   0.523  17.652   2.145
28425W        W95208  23.051  44.071  10.602
28426W        W95209   1.253  35.147  10.709
28427W        W95210   1.266  15.843  10.520
28428W        W95211  21.828  37.591   4.412
28429W        W95212  23.559  36.536  11.152
28430W        W95213  25.663  24.512   1.622
28431W        W95214  25.988  21.451   2.298
28432W        W95215  10.170   9.355   1.925
28433W        W95216   2.776  18.264   1.615
28434W        W95217   2.318  23.725  14.482
28435W        W95218  38.975  21.051   2.240
28436W        W95219  38.505  13.241   2.357
28437W        W95220  44.895   6.696  10.870
28438W        W95221  40.175  14.227   0.120
28439W        W95222   7.836  41.569  14.943
28440W        W95223  29.152  20.611   3.674
28441W        W95224  14.285  37.815  11.043
28442W        W95225  38.870  31.696  12.024
28443W        W95226  17.289  34.007   2.834
28444W        W95227  18.122  17.673   5.258
28445W        W95228   2.647  38.317   0.243
28446W        W95229  35.653   1.958   4.158
28447W        W95230  26.557  44.982   3.087
28448W        W95231   4.934   0.947  11.129
28449W        W95232  12.582  35.972   1.407
28450W        W95233  14.439  16.772   0.257
28451W        W95234  18.570  26.047   2.638
28452W        W95235  39.408  32.137  13.974
28453W        W95236  12.788  42.237   0.295
28454W        W95237  16.220  26.258  13.292
28455W        W95238  12.690  33.014   2.778
28456W        W95239  28.045  38.622  13.430
28457W        W95240  19.145  34.946  12.676
28458W        W95241   9.855  22.220  11.131
28459W        W95242   6.386  12.552   3.710
28460W        W95243  17.255  15.101   0.282
28461W        W95244  41.540   3.344  14.400
28462W        W95245  23.737  21.639  10.916
28463W        W95246  36.080  27.670  12.511
28464W        W95247  41.438  16.784   2.372
28465W        W95248  43.536   1.497  12.555
28466W        W95249  24.848  26.064   2.399
28467W        W95250   2.849  22.582  12.001
28468W        W95251  10.557  25.635  14.844
28469W        W95252  39.808   3.527   0.205
28470W        W95253  28.104  16.969   0.656
28471W        W95254  13.657  12.962   2.450
28472W        W95255  25.090  37.245  12.561
28473W        W95256  37.631  17.639  12.390
28474W        W95257  17.043   4.315  12.496
28475W        W95258  11.132  43.437  13.428
28476W        W95259  18.060  30.459   0.970
28477W        W95260  19.101   5.480  11.550
28478W        W95261   0.394  17.611  10.873
28479W        W95262  23.942  14.923  13.230
28480W        W95263  30.217   4.819   2.253
28481W        W95264   7.395  33.977  13.293
28482W        W95265  38.544   4.679   0.587
28483W        W95266  43.428  14.642  14.766
28484W        W95267  18.219  35.665   4.279
28485W        W95268  25.496  34.049  11.503
28486W        W95269  16.156  19.188   0.219
28487W        W95270  19.889  17.362   0.415
28488W        W95271  43.862   1.454   4.644
28489W        W95272  40.597   6.263  14.484
28490W        W95273  26.836   0.374  14.571
28491W        W95274  16.201  18.192   1.203
28492W        W95275  23.133   5.923   0.608
28493W        W95276  40.813   1.892  13.963
28494W        W95277  17.147  24.363   0.495
28495W        W95278  30.495   4.242  13.465
28496W        W95279  41.115  30.698   4.218
28497W        W95280  19.200  18.448  14.015
28498W        W95281  27.560  43.886   1.015
28499W        W95282  35.854  31.020  13.803
28500W        W95283   8.369   1.779   0.690
28501W        W95284   7.287   7.139   2.309
28502W        W95285  35.847  16.997   0.776
28503W        W95286  40.537   3.260   4.137
28504W        W95287  27.160  19.791   0.280
28505W        W95288  25.034  28.453   2.265
28506W        W95289  14.350  20.928   2.768
28507W        W95290  31.368  28.215  11.918
28508W        W95291   6.393  16.663  13.323
28509W        W95292  11.335  18.313   2.884
28510W        W95293  31.510  32.667   3.624
28511W        W95294   5.950  30.442  12.898
28512W        W95295  24.096  20.224   0.778
28513W        W95296  26.478   3.801  14.368
28514W        W95297  33.479  43.881  11.910
28515W        W95298  36.012  12.725  13.079
28516W        W95299  32.581  40.434   1.916
28517W        W95300  36.367  23.308  14.481
28518W        W95301  14.888  19.072  14.944
28519W        W95302  38.653  35.606   1.292
28520W        W95303  35.165  23.279   2.312
28521W        W95304  37.501  42.502   0.123
28522W        W95305   0.069   3.570   1.821
28523W        W95306  39.592  39.416   4.368
28524W        W95307  16.617  35.971  11.251
28525W        W95308  21.615  26.046   3.173
28526W        W95309  16.579  25.464   0.925
28527W        W95310  36.911   3.961  14.342
28528W        W95311  14.208  12.804  11.905
28529W        W95312  32.873  18.461  12.317
28530W        W95313  39.972   7.423  14.056
28531W        W95314  15.044  18.763  12.916
28532W        W95315  16.173   9.843  13.277
28533W        W95316  15.904  25.924  12.059
28534W        W95317  15.721  11.176  14.460
28535W        W95318  33.419  24.909  10.825
28536W        W95319   8.326  21.674  10.721
28537W        W95320  18.789  12.303  14.025
28538W        W95321  28.241  29.688   2.216
28539W        W95322  20.206  37.865   4.182
28540W        W95323  43.809   2.894  11.697
28541W        W95324  16.831  16.734  13.002
28542W        W95325  29.453  18.158  14.600
28543W        W95326  32.136  19.095  12.339
28544W        W95327   4.892   4.282  13.867
28545W        W95328  14.806  33.963   2.885
28546W        W95329  10.174   1.965  13.190
28547W        W95330  25.632   6.128   1.463
28548W        W95331  37.066   6.986   3.830
28549W        W95332   2.391   4.697  12.153
28550W        W95333  37.777  22.206   2.983
28551W        W95334  20.776  29.289  13.388
28552W        W95335  32.874  23.708  13.914
28553W        W95336   5.868  26.051   0.857
28554W        W95337  20.048  27.611  11.684
28555W        W95338  16.749  40.530   0.170
28556W        W95339  24.144  32.424  11.467
28557W        W95340  44.074  33.147   3.117
28558W        W95341  32.452  16.469   0.300
28559W        W95342  32.704   1.936   3.326
28560W        W95343  17.548  10.408   0.467
28561W        W95344  33.524   2.245  11.586
28562W        W95345  17.060  40.296   4.139
28563W        W95346  44.187  12.280   4.580
28564W        W95347  18.715  12.334  14.979
28565W        W95348  21.021  33.387  12.365
28566W        W95349  43.890  13.928  11.611
28567W        W95350   4.958   4.942   4.597
28568W        W95351  26.196   1.430  13.492
28569W        W95352  36.399  18.592   2.383
28570W        W95353  34.869   0.271  13.461
28571W        W95354  25.397   2.317  13.536
28572W        W95355  17.344   8.284  10.473
28573W        W95356  25.632  20.267  12.083
28574W        W95357  11.603  22.504   3.404
28575W        W95358  17.529  27.308  14.787
28576W        W95359  31.445  40.180   2.933
28577W        W95360  17.000   1.911   5.116
28578W        W95361  17.630  13.586  13.900
28579W        W95362  39.850  23.553  11.574
28580W        W95363  22.468   7.027  11.939
28581W        W95364  35.398  38.050   2.585
28582W        W95365   9.409  19.743   5.273
28583W        W95366  30.078  15.103   3.236
28584W        W95367  23.171   3.725   1.795
28585W        W95368  28.021  33.561   4.087
28586W        W95369   8.376  27.085   4.318
28587W        W95370   5.239   3.280  12.442
28588W        W95371  20.848   9.214  10.759
28589W        W95372  10.591  13.534   3.197
28590W        W95373  39.292  19.289  14.733
28591W        W95374  24.717  44.053   2.707
28592W        W95375  44.086   2.247   2.313
28593W        W95376   8.970   1.953  11.077
28594W        W95377  30.223  40.057   2.867
28595W        W95378   0.882  34.828   3.189
28596W        W95379  11.051  22.582  11.660
28597W        W95380   9.819   0.707  11.929
28598W        W95381  39.332   9.409   1.644
28599W        W95382  14.559  18.033  12.667
28600W        W95383  21.973  14.219  14.960
28601W        W95384   6.414  27.522  10.705
28602W        W95385   2.284  42.266   1.726
28603W        W95386  24.471   8.057  14.400
28604W        W95387  37.368  44.997  11.615
28605W        W95388   1.497  25.744   0.253
28606W        W95389   0.749   3.776  11.290
28607W        W95390  42.601  35.815  11.669
28608W        W95391  24.194   9.282  11.995
28609W        W95392  34.879   3.269   4.265
28610W        W95393   0.210  16.568   1.237
28611W        W95394   9.406  10.740  11.107
28612W        W95395  34.597   3.529  13.510
28613W        W95396  17.183   3.894   2.751
28614W        W95397  11.908   2.685  12.496
28615W        W95398  27.728  37.110  13.983
28616W        W95399  13.231  29.523   4.788
28617W        W95400  41.240  34.275   4.179
28618W        W95401   0.996  18.975  12.521
28619W        W95402  16.243  28.047   3.184
28620W        W95403   2.208  27.033  13.582
28621W        W95404   4.213   6.386   4.129
28622W        W95405   5.760  27.340  11.364
28623W        W95406   6.299  25.214  13.536
28624W        W95407  17.201  31.436  12.090
28625W        W95408  38.428  23.168  13.076
28626W        W95409  23.150  31.818  13.405
28627W        W95410  30.714  29.016   1.230
28628W        W95411   4.591  11.272  11.063
28629W        W95412  27.496  27.464  12.611
28630W        W95413  34.095  40.076  12.502
28631W        W95414  25.551   3.854  12.253
28632W        W95415   5.993  20.601  14.514
28633W        W95416   2.860  32.593   2.321
28634W        W95417  18.083  22.309  11.109
28635W        W95418  12.295  24.621   1.302
28636W        W95419   5.655   0.925   2.700
28637W        W95420  21.816  41.092   0.326
28638W        W95421  28.981  37.875  13.753
28639W        W95422   0.240   7.929  12.107
28640W        W95423  22.088  34.895   2.270
28641W        W95424  13.782   2.465   0.457
28642W        W95425  21.929  30.906   2.667
28643W        W95426  16.988   5.866  11.807
28644W        W95427  15.307  22.372  11.310
28645W        W95428  30.391   8.188   2.274
28646W        W95429   8.950  29.340   2.737
28647W        W95430  19.614  32.134  11.522
28648W        W95431  14.087  42.866   2.140
28649W        W95432   2.729   7.324   4.561
28650W        W95433  11.699  10.329  10.708
28651W        W95434  33.002  11.983   3.727
28652W        W95435  22.008  41.044   0.844
28653W        W95436  20.256  27.629  10.773
28654W        W95437  33.960  23.001   0.091
28655W        W95438  33.436  31.616   2.387
28656W        W95439  41.384  15.138  12.345
28657W        W95440  12.557  36.216   5.210
28658W        W95441  17.300  24.652   2.838
28659W        W95442   8.304   6.519  12.709
28660W        W95443  24.282  18.555  14.045
28661W        W95444  23.698  13.064  10.994
28662W        W95445  14.952   6.791   2.866
28663W        W95446   7.413   8.159   0.772
28664W        W95447  32.414  36.189   3.628
28665W        W95448  28.950  30.725   1.974
28666W        W95449  15.147  10.121   0.840
28667W        W95450  29.085  23.629   2.622
28668W        W95451  11.396  17.588   0.357
28669W        W95452  19.620  20.459   1.252
28670W        W95453   1.332  23.419  10.451
28671W        W95454  39.635  34.125  14.972
28672W        W95455  22.333  42.511   2.175
28673W        W95456  20.672  28.673   2.170
28674W        W95457  11.846  25.645   4.656
28675W        W95458  15.031  33.134   2.371
28676W        W95459  27.229  17.579  11.018
28677W        W95460  21.837  13.797   4.663
28678W        W95461  14.625  20.203   0.976
28679W        W95462  36.559   4.203   4.608
28680W        W95463  31.001  17.618   2.344
28681W        W95464  33.028  31.670  11.549
28682W        W95465  22.281  13.697   0.326
28683W        W95466  29.944  15.766   4.518
28684W        W95467  26.047  26.040  13.835
28685W        W95468  16.922  20.051  14.917
28686W        W95469  22.149  14.351   1.889
28687W        W95470  42.307   5.523   0.285
28688W        W95471  15.577   3.900   3.697
28689W        W95472  41.551  41.379   2.668
28690W        W95473   5.308  12.126   4.330
28691W        W95474  36.934  19.403  11.935
28692W        W95475  15.305   3.806   2.846
28693W        W95476  35.335  39.124   1.786
28694W        W95477  33.907  12.090   1.810
28695W        W95478  25.110  36.839   1.401
28696W        W95479   6.427  23.538  12.654
28697W        W95480  20.235  34.264  14.597
28698W        W95481  25.514  30.117  13.881
28699W        W95482  25.253   9.201   0.032
28700W        W95483  32.495  26.221  12.059
28701W        W95484  16.332  29.072  11.940
28702W        W95485   6.210  17.335  13.480
28703W        W95486  28.597  24.591   4.093
28704W        W95487   2.978  43.551  13.050
28705W        W95488   0.960  22.545   9.934
28706W        W95489  14.643  15.979  10.089
28707W        W95490  19.728  16.879   0.408
28708W        W95491  19.046  35.865   1.356
28709W        W95492  36.372  21.663   1.899
28710W        W95493  28.039  20.522   2.299
28711W        W95494  18.143  31.978   3.266
28712W        W95495  12.195   1.771  14.009
28713W        W95496  37.493  11.049  14.561
28714W        W95497  15.317   3.796  10.657
28715W        W95498  41.064  32.676   3.639
28716W        W95499  28.050   1.806   3.622
28717W        W95500  28.596  30.589  12.050
28718W        W95501  21.679  19.204   0.051
28719W        W95502  20.667   8.694  14.481
28720W        W95503  34.979  25.073   3.315
28721W        W95504  10.312  23.775   1.781
28722W        W95505  39.536  11.995   2.397
28723W        W95506  42.181  38.580   1.173
28724W        W95507   5.227   9.404   1.381
28725W        W95508  19.213  19.124   4.045
28726W        W95509   5.786  33.978  11.852
28727W        W95510  34.783  15.111   1.257
28728W        W95511  31.359  37.032   0.765
28729W        W95512  26.913   5.749  13.455
28730W        W95513   8.245  25.666   4.955
28731W        W95514  14.909  15.643  14.255
28732W        W95515   8.004  27.706  12.845
28733W        W95516  32.565   1.265  11.615
28734W        W95517  18.235   9.565  14.491
28735W        W95518  15.806  11.259   0.867
28736W        W95519  44.431   1.858   0.738
28737W        W95520  13.794  44.035   2.734
28738W        W95521  40.423  23.805   1.008
28739W        W95522   6.028   2.905   3.058
28740W        W95523  38.255  42.607  14.000
28741W        W95524   3.012  44.380   4.116
28742W        W95525   7.786   9.869  10.959
28743W        W95526   7.177  21.140  10.416
28744W        W95527   8.404  11.915  12.503
28745W        W95528  15.677  19.184  10.785
28746W        W95529  15.746   0.180   2.594
28747W        W95530  20.448  25.179   4.626
28748W        W95531  25.467  24.522  13.914
28749W        W95532  29.620  20.960   1.400
28750W        W95533  17.750  20.261   2.262
28751W        W95534  29.428  33.295   0.758
28752W        W95535  33.826   3.775   0.589
28753W        W95536  10.205   6.243   1.652
28754W        W95537   4.804  37.435   4.513
28755W        W95538  30.028   4.354   4.514
28756W        W95539  11.267  13.628   1.725
28757W        W95540  38.260  26.660   0.433
28758W        W95541  18.476  11.806  12.944
28759W        W95542   8.348  17.373   1.320
28760W        W95543   8.799  29.885   4.935
28761W        W95544  33.009  28.188  13.421
28762W        W95545  29.218   1.905   0.474
28763W        W95546  27.893   6.176  13.066
28764W        W95547   9.266  30.066   4.645
28765W        W95548  37.970   9.329   2.501
28766W        W95549  17.495  10.828  13.200
28767W        W95550  22.008  12.386  12.621
28768W        W95551  13.297  13.539   2.172
28769W        W95552  18.609   5.342  10.622
28770W        W95553  30.176  41.783   4.691
28771W        W95554  22.472  31.530  14.942
28772W        W95555  23.516  21.547   1.707
28773W        W95556  23.864   9.189  14.402
28774W        W95557  12.072  27.669   2.717
28775W        W95558  34.124  13.685  14.229
28776W        W95559   9.393   3.334   0.884
28777W        W95560  42.225  10.712   4.193
28778W        W95561   5.967  10.882   1.521
28779W        W95562  28.717  19.153   3.707
28780W        W95563  19.210  43.960  13.429
28781W        W95564  36.505  37.085  11.568
28782W        W95565   1.740   1.770   4.488
28783W        W95566  22.143   7.329  13.975
28784W        W95567   6.320  34.532  14.521
28785W        W95568  27.200  40.197  12.539
28786W        W95569  37.450   2.527   4.969
28787W        W95570  29.692  24.089  12.648
28788W        W95571  35.584   6.638  12.611
28789W        W95572   0.952   5.685   2.949
28790W        W95573  16.190  16.319   0.255
28791W        W95574  32.530   4.263   2.326
28792W        W95575  38.953  37.372  14.933
28793W        W95576   7.307   3.938  10.366
28794W        W95577   2.653  28.945   4.613
28795W        W95578  19.633  37.362   5.312
28796W        W95579   6.912  13.608  11.663
28797W        W95580  34.900  23.772   4.188
28798W        W95581   0.616   3.403   4.560
28799W        W95582  23.690   9.405   2.040
28800W        W95583  16.750  31.971  14.390
28801W        W95584  22.386  23.306   2.655
28802W        W95585  33.452  44.293  14.437
28803W        W95586  14.827   0.671   1.153
28804W        W95587  43.823   1.776   3.784
28805W        W95588  36.672   5.608  12.458
28806W        W95589  42.769  17.185  11.024
28807W        W95590  12.914  43.324   2.228
28808W        W95591   0.063  22.256   4.436
28809W        W95592  11.306  39.378   2.910
28810W        W95593  39.767  12.529  14.803
28811W        W95594  24.134  27.248  13.998
28812W        W95595  38.416  29.437  13.081
28813W        W95596  38.483  21.720   2.480
28814W        W95597  26.935  14.848   2.206
28815W        W95598  20.528  15.847  12.030
28816W        W95599   1.605  23.984  12.121
28817W        W95600  36.843  13.100   0.337
28818W        W95601  36.403  43.943   3.380
28819W        W95602  21.512  36.622   4.288
28820W        W95603  12.089   3.308  11.528
28821W        W95604  12.350  28.053  12.542
28822W        W95605  35.681   2.465  12.545
28823W        W95606  43.919  19.131   2.797
28824W        W95607  39.075  37.597   0.414
28825W        W95608   6.188  36.275   0.470
28826W        W95609  32.655   8.249   2.749
28827W        W95610  19.050  32.109   0.346
28828W        W95611  32.019   3.768  12.630
28829W        W95612  30.011  22.130   4.488
28830W        W95613   1.988  14.301   5.068
28831W        W95614  42.200  18.315   1.873
28832W        W95615   4.902   6.720   3.804
28833W        W95616   5.846  11.395  10.539
28834W        W95617   3.820  15.427  11.088
28835W        W95618  44.076   6.369  10.602
28836W        W95619  35.339  22.789  13.349
28837W        W95620   8.882  30.675  12.992
28838W        W95621   0.159   3.720  12.564
28839W        W95622   9.309  43.821   3.664
28840W        W95623  42.518   7.873   3.653
28841W        W95624  34.425  23.069   4.613
28842W        W95625   7.474   4.293   1.643
28843W        W95626   3.874  11.037   2.392
28844W        W95627  34.439  33.130   4.036
28845W        W95628  30.888  13.420  11.696
28846W        W95629  42.936  35.897  12.030
28847W        W95630   2.680  34.429  14.993
28848W        W95631  19.708  32.215   5.114
28849W        W95632  44.853  35.890  11.669
28850W        W95633   9.581  18.939   4.567
28851W        W95634   2.669   4.930   3.269
28852W        W95635   2.716  32.107   2.170
28853W        W95636  33.387   8.555   2.170
28854W        W95637  29.709  20.645  12.753
28855W        W95638  12.704  23.008   2.495
28856W        W95639  25.474  30.366  12.925
28857W        W95640  38.333  33.096   4.330
28858W        W95641  21.322  22.233  11.369
28859W        W95642   7.717   1.709   2.682
28860W        W95643  22.513  14.621   2.750
28861W        W95644  34.221   8.299   3.219
28862W        W95645  35.717  40.803  12.933
28863W        W95646  18.803  12.117   0.484
28864W        W95647  20.032  21.110   3.137
28865W        W95648  19.413  11.844   1.199
28866W        W95649  43.504  18.084   2.830
28867W        W95650   9.266  36.576  12.737
28868W        W95651   2.720  15.507   0.074
28869W        W95652   9.266  23.842  11.208
28870W        W95653  42.001  41.513  12.051
28871W        W95654  39.847  29.529  14.822
28872W        W95655  14.317  22.600   3.528
28873W        W95656   6.720  39.121   3.840
28874W        W95657  22.051  42.477  14.199
28875W        W95658  12.764  18.327   3.645
28876W        W95659   0.007  38.632   1.027
28877W        W95660  19.730  41.509  12.454
28878W        W95661  15.844  33.418  14.948
28879W        W95662  43.948  36.495   1.650
28880W        W95663   2.876  38.501   2.211
28881W        W95664  35.508   3.641   0.866
28882W        W95665  12.787   6.343   1.765
28883W        W95666  12.887  33.228   0.403
28884W        W95667  36.445  12.922   3.322
28885W        W95668  28.467  43.260  13.528
28886W        W95669   5.211  26.203  13.606
28887W        W95670  43.266  27.306  12.824
28888W        W95671  26.617  15.530  11.128
28889W        W95672  13.789   2.176  14.480
28890W        W95673   2.506  44.807   3.801
28891W        W95674  22.765  19.701   1.872
28892W        W95675  24.160  37.249   2.289
28893W        W95676  24.250  27.551  12.601
28894W        W95677   3.906  21.587  14.566
28895W        W95678  28.399  41.856  11.077
28896W        W95679  25.162  20.729   1.885
28897W        W95680  44.668  18.318   4.885
28898W        W95681  17.122  18.265  11.417
28899W        W95682  36.994  43.722   2.678
28900W        W95683  35.584   4.973   0.320
28901W        W95684   1.933  10.648  12.597
28902W        W95685  26.078  36.764   0.140
28903W        W95686   7.585   8.959   9.962
28904W        W95687  21.714  10.139  12.546
28905W        W95688  35.923  40.841  12.457
28906W        W95689  38.454  43.475  10.666
28907W        W95690  13.674  24.990   2.384
28908W        W95691  24.502  36.136  14.516
28909W        W95692  40.788  19.294  11.448
28910W        W95693  21.050  13.057  14.525
28911W        W95694  35.316  38.365   0.564
28912W        W95695  15.099  34.906  13.466
28913W        W95696  37.359  19.127  13.275
28914W        W95697  40.114  26.742   2.929
28915W        W95698  31.539  23.042  12.055
28916W        W95699  40.535   6.737  14.319
28917W        W95700  35.482  10.804   2.571
28918W        W95701  23.605  15.399  12.067
28919W        W95702  33.874  27.552   1.018
28920W        W95703  27.963  38.659  12.446
28921W        W95704  22.629  41.674   2.770
28922W        W95705   9.351  18.425   5.070
28923W        W95706  11.452  17.245  12.537
28924W        W95707  26.945  31.056  11.569
28925W        W95708  17.504  37.772   3.313
28926W        W95709  30.839  38.581   3.650
28927W        W95710  25.420  33.868  10.283
28928W        W95711  31.014  16.255   1.377
28929W        W95712  13.734  28.403  11.473
28930W        W95713  18.202   2.491  11.987
28931W        W95714  42.223  32.028  13.794
28932W        W95715  12.624  37.356  12.874
28933W        W95716  28.413  24.496  11.244
28934W        W95717   0.376  12.135  13.511
28935W        W95718  37.325  29.345   2.011
28936W        W95719   9.845   0.019   0.949
28937W        W95720  41.750  19.647  14.255
28938W        W95721  13.315  11.932  11.022
28939W        W95722   4.370  11.697  12.034
28940W        W95723  30.907  38.297   1.778
28941W        W95724  28.422  18.169  10.518
28942W        W95725  20.194  38.076  11.466
28943W        W95726  36.437  28.961   3.578
28944W        W95727   8.763  37.063  13.779
28945W        W95728  27.666  15.410  14.734
28946W        W95729   9.813  16.105  13.339
28947W        W95730  35.395  27.448   4.509
28948W        W95731  22.151  13.573  11.896
28949W        W95732  22.081   6.423   3.986
28950W        W95733  23.239  12.382  13.764
28951W        W95734  29.175   1.952  12.924
28952W        W95735  14.519   9.243  14.465
28953W        W95736  42.878  23.086   3.695
28954W        W95737  16.517  13.526   2.074
28955W        W95738  36.493  42.020   2.876
28956W        W95739  43.648  29.561   4.860
28957W        W95740  23.525  11.629   1.386
28958W        W95741   1.658  28.691   2.759
28959W        W95742   4.929   3.103   5.037
28960W        W95743  21.635  12.341  10.741
28961W        W95744  32.521   5.685  12.324
28962W        W95745  21.495  18.529   4.646
28963W        W95746  24.657  35.007  12.016
28964W        W95747  39.128   7.271  14.412
28965W        W95748  26.942  21.167   4.995
28966W        W95749  17.810   9.188   2.538
28967W        W95750  38.188  35.734   1.464
28968W        W95751  27.711   8.821  10.655
28969W        W95752  23.616  23.243   2.531
28970W        W95753  20.758  19.132   0.205
28971W        W95754  39.887  10.327   0.294
28972W        W95755  39.525   8.624   2.239
28973W        W95756  12.269  42.990  13.061
28974W        W95757  35.411  23.982  11.240
28975W        W95758  14.382   6.691  13.408
28976W        W95759  33.685  36.312  11.206
28977W        W95760   8.041  33.002   4.680
28978W        W95761   5.187   4.103   1.872
28979W        W95762   4.739  20.831  11.915
28980W        W95763  14.234   2.943  11.945
28981W        W95764  40.354  35.205  14.915
28982W        W95765  31.453  31.548   4.916
28983W        W95766  22.159  15.730   2.059
28984W        W95767  15.086  30.441  12.837
28985W        W95768  44.199  38.579   4.533
28986W        W95769  27.620  41.266   9.514
28987W        W95770  21.307   1.855  14.522
28988W        W95771  17.137  20.571   0.451
28989W        W95772  29.572  30.124  12.954
28990W        W95773  39.009  24.623   3.802
28991W        W95774  15.358  30.168  14.756
28992W        W95775  29.677   5.816   3.561
28993W        W95776  14.719   2.027  14.847
28994W        W95777   1.668  12.667  13.414
28995W        W95778  32.462  14.626   2.762
28996W        W95779  26.464   5.729  10.957
28997W        W95780  30.645  19.666  11.076
28998W        W95781  11.590   4.689   3.298
28999W        W95782  13.621  40.281   3.162
29000W        W95783  20.705  41.834   1.780
29001W        W95784  11.961  44.365  13.577
29002W        W95785  27.262   0.241   4.593
29003W        W95786  23.442  38.761   3.729
29004W        W95787  26.776  27.922  12.042
29005W        W95788  44.681  39.991   0.316
29006W        W95789  29.830  38.638   4.579
29007W        W95790  22.146  34.929  13.458
29008W        W95791  31.129  43.545  12.459
29009W        W95792  11.836  39.131  13.362
29010W        W95793   7.717   5.075  12.915
29011W        W95794  27.865  14.027  14.799
29012W        W95795  43.704   5.542   0.579
29013W        W95796  22.009  28.731   2.776
29014W        W95797  11.161  19.236  10.971
29015W        W95798  34.147  41.469   0.779
29016W        W95799   4.271  20.063  10.775
29017W        W95800  11.652  17.727  13.015
29018W        W95801  34.065  14.831   4.591
29019W        W95802  25.335  40.453   1.776
29020W        W95803  41.550  40.461  10.806
29021W        W95804   8.173   9.469   1.796
29022W        W95805  12.916  17.049  11.336
29023W        W95806  17.660   1.360  11.710
29024W        W95807   8.187   1.320  11.987
29025W        W95808  40.622   3.964  11.506
29026W        W95809  39.453  31.473   0.821
29027W        W95810  16.364  32.096   4.101
29028W        W95811  42.433  12.809  13.317
29029W        W95812   2.004   3.542  13.684
29030W        W95813  20.027  34.088  11.558
29031W        W95814  42.141  43.721  11.171
29032W        W95815  39.552  20.804  12.435
29033W        W95816   3.887   7.203   4.108
29034W        W95817  19.050  23.255  11.715
29035W        W95818  17.033  25.180   4.551
29036W        W95819  24.021  12.645  12.144
29037W        W95820  41.938  15.389  14.825
29038W        W95821  33.453  29.087   3.837
29039W        W95822  31.099   5.908   2.335
29040W        W95823  20.697  22.039   3.298
29041W        W95824  16.230  31.240  14.465
29042W        W95825  24.671   5.286   1.845
29043W        W95826  39.267   0.716   3.561
29044W        W95827  19.739  15.790   1.219
29045W        W95828  11.820   0.974  14.698
29046W        W95829  18.971  11.891  13.094
29047W        W95830  19.756  36.989   4.562
29048W        W95831   8.873  22.618  10.574
29049W        W95832  27.860  25.072   0.437
29050W        W95833  21.712  10.840   2.229
29051W        W95834   0.190  23.525  10.695
29052W        W95835   7.237  40.307  14.887
29053W        W95836  40.906  19.748  11.664
29054W        W95837  10.254  44.195  10.616
29055W        W95838  36.711  18.078   1.748
29056W        W95839   4.648  28.947  14.910
29057W        W95840   0.193   5.446  11.930
29058W        W95841   3.479  36.891   4.116
29059W        W95842  11.345  18.564   1.897
29060W        W95843  20.272  18.072  14.809
29061W        W95844   8.602   0.923   2.597
29062W        W95845   6.911  30.608   2.626
29063W        W95846  17.846  18.378  13.560
29064W        W95847  26.456  31.610   3.725
29065W        W95848  39.249  26.700   0.404
29066W        W95849  27.195  26.183   3.667
29067W        W95850  28.919  27.558  12.427
29068W        W95851  24.469  22.427   4.381
29069W        W95852  21.488  30.270   4.750
29070W        W95853   5.680   8.904   0.251
29071W        W95854  38.980   3.887  13.756
29072W        W95855  38.886  39.971  12.805
29073W        W95856  38.215  22.226   2.686
29074W        W95857  27.330  29.379  10.819
29075W        W95858  44.439   6.329   0.839
29076W        W95859  14.184  29.103   1.688
29077W        W95860  22.221  31.466   3.195
29078W        W95861  41.742   9.427   1.583
29079W        W95862  31.725   0.646   2.775
29080W        W95863   4.255   2.636   1.321
29081W        W95864  35.477  10.877   0.680
29082W        W95865  44.204   3.292   1.853
29083W        W95866  28.019   1.769  11.583
29084W        W95867  11.006  35.337   4.100
29085W        W95868  17.558  23.969   1.778
29086W        W95869  13.178  16.538  12.047
29087W        W95870  38.977  40.886  10.402
29088W        W95871   2.974  25.778  14.830
29089W        W95872   6.320  31.203   0.335
29090W        W95873  37.439  41.819  11.367
29091W        W95874  16.345  43.227  12.881
29092W        W95875  39.511  43.027   2.291
29093W        W95876  24.629  12.365   1.850
29094W        W95877  18.225  41.123  14.354
29095W        W95878  14.254  12.597   1.739
29096W        W95879  43.417  33.775  12.560
29097W        W95880  28.097  17.350  10.255
29098W        W95881  34.534  19.682   1.493
29099W        W95882   8.302  24.426  14.270
29100W        W95883   2.990   4.874  11.277
29101W        W95884   4.455  43.784  14.883
29102W        W95885  25.763  23.105   3.596
29103W        W95886  36.516  31.674  10.983
29104W        W95887  23.530  41.129  10.905
29105W        W95888   3.722  11.169  13.534
29106W        W95889  31.124  24.580  10.858
29107W        W95890  15.305  25.596   4.209
29108W        W95891  37.367   5.381  13.493
29109W        W95892  21.192  26.559   0.864
29110W        W95893  23.041   8.621   4.664
29111W        W95894  32.817  21.682  12.940
29112W        W95895   1.482  17.186  13.476
29113W        W95896  39.766  32.725   0.732
29114W        W95897   1.664   2.882  11.389
29115W        W95898   7.769  19.786  11.165
29116W        W95899   2.872  36.347   1.521
29117W        W95900  16.706  26.293   3.433
29118W        W95901  40.478  25.022   4.612
29119W        W95902  28.048  44.050  14.552
29120W        W95903  43.039  16.271   4.640
29121W        W95904   3.882  43.379  14.833
29122W        W95905   1.440  21.215   2.745
29123W        W95906   3.896  38.890   1.544
29124W        W95907   3.859  44.966   1.015
29125W        W95908  32.075  35.285   0.850
29126W        W95909  24.788  21.571  13.121
29127W        W95910   8.589  17.232   2.823
29128W        W95911   8.782  24.606   3.751
29129W        W95912  11.132  29.099   1.397
29130W        W95913  15.099  13.683  10.692
29131W        W95914  18.805   7.618   0.589
29132W        W95915  10.623  13.850   2.789
29133W        W95916  23.040  12.649   1.829
29134W        W95917  24.716  35.668  13.448
29135W        W95918  18.511  22.085   4.487
29136W        W95919  29.014  12.933   0.291
29137W        W95920  37.390  11.765  10.931
29138W        W95921  27.554  23.304   0.560
29139W        W95922  36.295  14.865   2.185
29140W        W95923  42.522  12.077  14.993
29141W        W95924  29.410   3.151   3.630
29142W        W95925  18.607  21.122  14.351
29143W        W95926   0.809   5.076  10.766
29144W        W95927  27.083  11.542   2.985
29145W        W95928  37.323   4.208  14.011
29146W        W95929  19.192  17.715   4.050
29147W        W95930   1.868   7.426  12.866
29148W        W95931  26.214  29.053  12.948
29149W        W95932  21.770  22.415  11.245
29150W        W95933  29.375  41.162   2.187
29151W        W95934  11.370  31.699  12.374
29152W        W95935  38.100  23.383  11.130
29153W        W95936   1.154   3.461  11.575
29154W        W95937   7.296  35.889  12.411
29155W        W95938  36.429  15.416  11.751
29156W        W95939  14.889  43.349   2.821
29157W        W95940  12.134  30.885   3.695
29158W        W95941  14.301  10.857  10.952
29159W        W95942  41.415  33.023   2.317
29160W        W95943  36.042  27.647  13.896
29161W        W95944  39.020  13.176  11.475
29162W        W95945  24.213  10.885   0.466
29163W        W95946  14.492  14.820   2.658
29164W        W95947   0.467  22.745   3.135
29165W        W95948  26.880  31.755  14.952
29166W        W95949   0.290  44.882  12.555
29167W        W95950  20.309  41.903   4.592
29168W        W95951  36.071   3.225  11.461
29169W        W95952  14.544  41.803  11.192
29170W        W95953   0.343  39.838   0.709
29171W        W95954   1.298  33.045   1.346
29172W        W95955  42.958  22.343   2.478
29173W        W95956  40.942  30.965  12.567
29174W        W95957  21.168  16.253   3.183
29175W        W95958  41.867  43.521  14.480
29176W        W95959  34.491   2.350   3.851
29177W        W95960  40.419  14.533   3.554
29178W        W95961  20.960  16.138  11.413
29179W        W95962  44.251  33.527  11.968
29180W        W95963  40.312   6.326  12.332
29181W        W95964  11.931   1.397   1.420
29182W        W95965  24.941   4.667  12.500
29183W        W95966  41.891  16.701   4.761
29184W        W95967  15.257  16.572   1.511
29185W        W95968   0.065  23.824  12.957
29186W        W95969  30.164   1.787   4.142
29187W        W95970   5.774  37.877   1.723
29188W        W95971  41.916   5.888   4.710
29189W        W95972  24.250  37.060   0.927
29190W        W95973  18.723  12.710   3.335
29191W        W95974  33.388   1.751  14.785
29192W        W95975  27.902   9.136   1.758
29193W        W95976  12.818   2.843   0.917
29194W        W95977  24.248  32.088  12.083
29195W        W95978  14.564  27.963   0.940
29196W        W95979  32.335   7.422   4.385
29197W        W95980  19.942  36.676  11.559
29198W        W95981  11.334  43.386   1.390
29199W        W95982  32.048  26.511   2.038
29200W        W95983  20.287  24.732  13.929
29201W        W95984  11.775  12.247  11.002
29202W        W95985  24.384   1.064   1.761
29203W        W95986  44.521  37.577  11.180
29204W        W95987  25.196  27.692  12.506
29205W        W95988   4.366  18.840   0.526
29206W        W95989  30.478  11.585  14.263
29207W        W95990  16.600  32.095  11.078
29208W        W95991  30.384  21.789  14.675
29209W        W95992  19.577  14.180   0.266
29210W        W95993  25.956  39.076  11.111
29211W        W95994  36.424  12.100  11.915
29212W        W95995  34.825   5.206  10.632
29213W        W95996  39.018  39.475   2.069
29214W        W95997  34.896  27.039   3.764
29215W        W95998  18.970  30.024   1.946
29216W        W95999  40.413   8.844  12.854
29217W        W96000  15.300  11.850  14.324
29218W        W96001  30.541   3.426  14.062
29219W        W96002  22.184  38.908  12.445
29220W        W96003  29.981  44.295   0.313
29221W        W96004   6.162  10.246  13.335
29222W        W96005  16.665  27.206   3.394
29223W        W96006  23.648  39.677   0.933
29224W        W96007   5.856  27.652   0.246
29225W        W96008  20.166  44.265  14.756
29226W        W96009  28.663  37.309   4.610
29227W        W96010  26.763   7.247  14.838
29228W        W96011  10.146  36.987  14.044
29229W        W96012  21.086  11.693   4.683
29230W        W96013  36.022   6.698  12.366
29231W        W96014  43.902  41.727   1.694
29232W        W96015   9.118  16.594   0.245
29233W        W96016  29.333   5.794  10.424
29234W        W96017  23.522  11.171  11.038
29235W        W96018  26.140   3.228  10.133
29236W        W96019  25.159  40.422  11.849
29237W        W96020  43.783   2.805  13.553
29238W        W96021  39.426  21.168  11.490
29239W        W96022  42.809   4.205  12.098
29240W        W96023  40.045  20.518   0.228
29241W        W96024  41.509  41.833  13.713
29242W        W96025  32.487   9.692  10.106
29243W        W96026  23.776  31.265  11.876
29244W        W96027  12.642  28.976   0.309
29245W        W96028   0.832  40.923   2.886
29246W        W96029  15.028  16.193   1.780
29247W        W96030  36.422  35.491   4.650
29248W        W96031  40.961  25.124  12.742
29249W        W96032  26.642  11.325  11.967
29250W        W96033   8.484   7.933  12.485
29251W        W96034  39.383  43.215   0.918
29252W        W96035  42.786  40.783   3.646
29253W        W96036  21.383  15.240  13.781
29254W        W96037  30.700   9.707   2.875
29255W        W96038  43.176   1.004  14.396
29256W        W96039  35.863   9.753  13.937
29257W        W96040   9.031  14.577  14.700
29258W        W96041  18.135  12.614   5.250
29259W        W96042  12.263  36.343   1.687
29260W        W96043  37.439  24.171  12.378
29261W        W96044  13.513   6.775   2.401
29262W        W96045  22.344   6.913   2.111
29263W        W96046  27.423  19.458   5.209
29264W        W96047  30.852  40.249  13.931
29265W        W96048  43.613   8.252  14.210
29266W        W96049  37.471  39.677   4.355
29267W        W96050  12.839  25.013  14.231
29268W        W96051   3.684  31.086   1.552
29269W        W96052  34.483  44.538   1.088
29270W        W96053  17.786  20.047   0.488
29271W        W96054  14.802  41.222   2.362
29272W        W96055  30.964  21.963   4.644
29273W        W96056  16.180  40.747   4.314
29274W        W96057  28.860  37.499   4.174
29275W        W96058  16.815  27.508  12.529
29276W        W96059  33.412  23.213   0.870
29277W        W96060  18.871  38.424   0.165
29278W        W96061  18.774  39.897  14.090
29279W        W96062  38.920  18.887   3.818
29280W        W96063  34.773  14.320  10.584
29281W        W96064  36.965  30.007   5.014
29282W        W96065   0.307  34.070  14.006
29283W        W96066   1.226   1.923  13.475
29284W        W96067  30.023  39.550   2.779
29285W        W96068   2.459  33.947   3.562
29286W        W96069  41.939  38.880   0.794
29287W        W96070  24.364   5.109   2.724
29288W        W96071  27.513  28.296  11.612
29289W        W96072  18.043  11.282   2.287
29290W        W96073  11.513   9.875   5.370
29291W        W96074  43.004  24.239   0.835
29292W        W96075  20.680  33.071   4.602
29293W        W96076  16.154  20.489   4.734
29294W        W96077  18.783  32.381   1.882
29295W        W96078  37.557  44.775   4.688
29296W        W96079  28.454  11.627  14.199
29297W        W96080  20.607  43.260  14.573
29298W        W96081   6.194  28.564   2.787
29299W        W96082   0.510   7.834  13.885
29300W        W96083   4.315  19.745  14.841
29301W        W96084  19.740  20.630  11.619
29302W        W96085  21.210  23.160  11.870
29303W        W96086  35.388  28.676  12.885
29304W        W96087  32.963   0.850   2.144
29305W        W96088  41.233  37.950   0.750
29306W        W96089  35.571  13.240   2.808
29307W        W96090  24.689  40.590  14.921
29308W        W96091  42.937  32.848  10.647
29309W        W96092  24.213   5.966   4.571
29310W        W96093  43.138   5.796  11.031
29311W        W96094  15.823  28.875   0.809
29312W        W96095  21.581  42.485  12.002
29313W        W96096  41.256  24.754   1.243
29314W        W96097   0.810  43.869  11.608
29315W        W96098  11.915   7.186  14.047
29316W        W96099   2.196  21.389   4.072
29317W        W96100  24.014  21.024   2.255
29318W        W96101   8.280  40.526   1.291
29319W        W96102  37.304  26.087  13.905
29320W        W96103  40.768  25.002  11.895
29321W        W96104   4.257  39.596  14.498
29322W        W96105  18.949  27.714   0.884
29323W        W96106   8.921   0.558  11.014
29324W        W96107  33.424   9.811   3.948
29325W        W96108   5.996   3.759  11.591
29326W        W96109  10.974  20.638   0.895
29327W        W96110  32.102  30.728  14.547
29328W        W96111   0.944  27.931   3.335
29329W        W96112   8.758  19.874   4.247
29330W        W96113   7.858  25.279   3.658
29331W        W96114  21.579  15.779  10.244
29332W        W96115  15.750  33.765  11.073
29333W        W96116  22.717   9.731   0.277
29334W        W96117  11.421  22.040   3.251
29335W        W96118  36.364   1.761   2.691
29336W        W96119   7.247   1.950   1.362
29337W        W96120   5.986  20.103  14.363
29338W        W96121  10.770  29.605   0.251
29339W        W96122   9.589  22.176   1.138
29340W        W96123  38.043  17.367  11.594
29341W        W96124  33.987  24.774   5.689
29342W        W96125  28.521  14.242  12.906
29343W        W96126  27.941   4.439  13.930
29344W        W96127   0.421  15.235   1.256
29345W        W96128  17.818   4.700   1.251
29346W        W96129  27.972  17.749   4.789
29347W        W96130  39.437  24.560  13.815
29348W        W96131  15.851  31.995   4.168
29349W        W96132  30.109   1.828  12.565
29350W        W96133  20.618  12.761  10.571
29351W        W96134   9.318  31.006   1.380
29352W        W96135   5.211  43.231  14.100
29353W        W96136  25.800  23.535  11.164
29354W        W96137  23.029  36.987   4.313
29355W        W96138  35.959  38.799  10.915
29356W        W96139  22.793  14.741   1.227
29357W        W96140  30.026  29.865  13.050
29358W        W96141  41.247  24.762   0.355
29359W        W96142  28.843  43.072  10.765
29360W        W96143  20.131  18.148   2.769
29361W        W96144  39.925  25.704   4.675
29362W        W96145  43.531  30.323  11.109
29363W        W96146  38.764  13.413  11.064
29364W        W96147  25.962  11.516   0.980
29365W        W96148  22.313  12.788   1.274
29366W        W96149  27.110  12.741   1.135
29367W        W96150  37.005   9.508   1.913
29368W        W96151  29.508  41.888   5.827
29369W        W96152   6.900  14.032   1.752
29370W        W96153  37.017  41.104  12.385
29371W        W96154   0.203  16.602  14.927
29372W        W96155  22.053  43.004  14.320
29373W        W96156  38.962  17.941  12.430
29374W        W96157  42.991   5.807   1.414
29375W        W96158  25.176   7.156  11.958
29376W        W96159  23.191  39.751  10.343
29377W        W96160   3.481   6.929   3.172
29378W        W96161  44.010   2.381  13.331
29379W        W96162  36.638  27.136  14.971
29380W        W96163  27.517  29.059   3.651
29381W        W96164  20.452  12.082  13.512
29382W        W96165  35.365  27.648  11.372
29383W        W96166  33.178  34.366  14.039
29384W        W96167   3.241   0.849  11.158
29385W        W96168  43.508  44.326  10.310
29386W        W96169   9.333   1.766  14.391
29387W        W96170   1.568  12.346  13.010
29388W        W96171   7.009  10.945   0.744
29389W        W96172   5.892  37.336  11.184
29390W        W96173   5.088  24.542  14.655
29391W        W96174  42.996  20.793   2.141
29392W        W96175  31.550  22.882  10.809
29393W        W96176  38.307  42.096  12.057
29394W        W96177  32.371  17.845  13.516
29395W        W96178  18.231  33.685   0.416
29396W        W96179  28.828  10.665   2.209
29397W        W96180  17.965  20.731   2.320
29398W        W96181  33.700  34.051  10.822
29399W        W96182  37.427   8.790   3.691
29400W        W96183  38.032  41.652   4.141
29401W        W96184  17.605  10.240  11.166
29402W        W96185  24.951  34.666  12.924
29403W        W96186  28.831  44.869  12.625
29404W        W96187  32.510  31.285   2.164
29405W        W96188  44.854  24.454   4.466
29406W        W96189  22.568   9.768  12.894
29407W        W96190   1.075  18.256   0.317
29408W        W96191  21.002  33.758   0.782
29409W        W96192  34.490  34.365   2.712
29410W        W96193  20.928  31.896   2.158
29411W        W96194  43.994  20.708   4.020
29412W        W96195   5.683  38.333  11.927
29413W        W96196  17.374  23.124  14.276
29414W        W96197   5.440   6.700  13.851
29415W        W96198  38.892  44.743   2.952
29416W        W96199  27.567  25.164   2.292
29417W        W96200  22.102  38.056   4.307
29418W        W96201  25.680   6.858   0.445
29419W        W96202   5.349  29.475  10.746
29420W        W96203  35.643  36.009  14.757
29421W        W96204  23.298  44.250  14.752
29422W        W96205  34.627  43.254   4.853
29423W        W96206  42.423  32.692  14.439
29424W        W96207  29.797  28.355   2.291
29425W        W96208   0.731  13.682   4.059
29426W        W96209   6.711  39.930   4.335
29427W        W96210  44.585  17.577  12.070
29428W        W96211   0.068  20.762  14.338
29429W        W96212   7.635  44.369  13.953
29430W        W96213  37.918  17.521  14.915
29431W        W96214   1.290  31.492   3.939
29432W        W96215  16.907  13.144  11.598
29433W        W96216  30.812   7.198   1.947
29434W        W96217  24.659  20.176   4.174
29435W        W96218  14.273   1.514   4.838
29436W        W96219   3.389  27.213  11.177
29437W        W96220   2.324  40.064   0.249
29438W        W96221  17.141  19.112   3.672
29439W        W96222  24.209  14.377   0.520
29440W        W96223  14.339  10.897   2.679
29441W        W96224  44.578  14.225   2.728
29442W        W96225  18.460   4.194  11.668
29443W        W96226  29.253  42.414   3.147
29444W        W96227  20.709  32.890  13.062
29445W        W96228  13.604  30.295   4.382
29446W        W96229  19.946  38.028   3.749
29447W        W96230  20.271   6.718  12.514
29448W        W96231  43.711  28.573   0.834
29449W        W96232   2.328  27.177  10.921
29450W        W96233  27.279  39.129  13.576
29451W        W96234  20.209   5.109  14.510
29452W        W96235  38.519   4.919  14.375
29453W        W96236  34.119  24.618   2.968
29454W        W96237  18.230  33.623  10.665
29455W        W96238   5.683   2.843   1.273
29456W        W96239  13.380  28.612  14.503
29457W        W96240  36.491  40.206  12.471
29458W        W96241   9.144   6.910   0.820
29459W        W96242  11.613  12.796  11.956
29460W        W96243   6.381  42.880   0.048
29461W        W96244  28.056   0.252  11.524
29462W        W96245  18.869  31.115  14.075
29463W        W96246  10.828  25.963   4.121
29464W        W96247  17.271  22.257   2.774
29465W        W96248  23.213  36.842   1.284
29466W        W96249  26.085  33.584  13.558
29467W        W96250  31.002  35.974   1.148
29468W        W96251  42.269   5.330  13.289
29469W        W96252  15.625  31.549  13.882
29470W        W96253  37.135   9.724  13.338
29471W        W96254   7.226   2.372   3.155
29472W        W96255  14.046  27.149  12.512
29473W        W96256  32.361  36.433   1.505
29474W        W96257  14.805   3.930  12.520
29475W        W96258  35.850  24.121   1.667
29476W        W96259  21.720  25.107  13.978
29477W        W96260  31.069  15.118   3.358
29478W        W96261  12.357  18.605   4.787
29479W        W96262  13.804   0.103  14.470
29480W        W96263  42.977  23.551   3.415
29481W        W96264   0.438   0.335  13.051
29482W        W96265  31.982  17.662   4.746
29483W        W96266  27.237  18.794  12.263
29484W        W96267  10.807   5.014  14.306
29485W        W96268   2.314  27.443  13.864
29486W        W96269  27.710  39.874  13.079
29487W        W96270   1.355  14.202   3.556
29488W        W96271  11.312  36.152  13.461
29489W        W96272  25.189  39.979  13.121
29490W        W96273  43.929  12.080   4.177
29491W        W96274  27.973  16.329   1.663
29492W        W96275  36.121  29.647   4.145
29493W        W96276  24.626  29.716   4.145
29494W        W96277  43.349  42.449  11.482
29495W        W96278  20.785  34.531   2.787
29496W        W96279  31.460  36.272  14.543
29497W        W96280  25.226  13.317   4.245
29498W        W96281  31.092  13.609  13.968
29499W        W96282  21.553  40.246   1.463
29500W        W96283   7.223  39.868   4.579
29501W        W96284  19.528   6.909   2.806
29502W        W96285  39.143  15.837  12.890
29503W        W96286  15.326  39.709  13.383
29504W        W96287  25.174   5.043   3.681
29505W        W96288  31.444  37.507  12.885
29506W        W96289   7.172  11.414  10.711
29507W        W96290  44.297  15.042   3.139
29508W        W96291  24.070   1.809  11.100
29509W        W96292  41.778   7.112  12.521
29510W        W96293   0.300  43.286  12.314
29511W        W96294  30.846  16.404  13.025
29512W        W96295   0.366  44.106   1.801
29513W        W96296  24.813  16.671   1.327
29514W        W96297  42.858   8.744  13.839
29515W        W96298  30.626  44.147   4.550
29516W        W96299   2.787  15.424  11.678
29517W        W96300   2.894  30.933   3.602
29518W        W96301  14.733  19.932   0.538
29519W        W96302  13.134  15.565  12.029
29520W        W96303  14.323  25.454  13.319
29521W        W96304  21.716  35.851   2.774
29522W        W96305  20.267  34.448   2.804
29523W        W96306  42.109   8.718   2.682
29524W        W96307  31.603  35.883  12.071
29525W        W96308  25.656  40.053   0.941
29526W        W96309  34.726  41.917   2.097
29527W        W96310  22.655  41.776  12.540
29528W        W96311   3.182  29.503  11.687
29529W        W96312   2.931  17.440  14.365
29530W        W96313  16.751   4.197  12.898
29531W        W96314  26.909  36.010  14.851
29532W        W96315  31.856  27.995  13.367
29533W        W96316  38.995   4.321   3.237
29534W        W96317  17.913  25.588  12.041
29535W        W96318  30.440  40.820  10.675
29536W        W96319  22.563  40.506   0.645
29537W        W96320  41.725  24.654   3.845
29538W        W96321  42.880  22.638  14.054
29539W        W96322  34.694   3.338   4.809
29540W        W96323  11.642  34.023   4.122
29541W        W96324  24.685  13.072  13.454
29542W        W96325   3.472  39.646   0.712
29543W        W96326  20.729  36.576  14.019
29544W        W96327  40.786  17.790   3.623
29545W        W96328  34.890  31.839  13.810
29546W        W96329  13.291  44.322  14.029
29547W        W96330  29.491   8.286   4.650
29548W        W96331  27.951  39.466  12.211
29549W        W96332  23.438  16.098   1.866
29550W        W96333   8.673   5.943   0.190
29551W        W96334  44.241  35.035  10.147
29552W        W96335   7.878   7.443   1.521
29553W        W96336   8.323  37.000  12.888
29554W        W96337  25.729   9.884   3.735
29555W        W96338   4.231   0.827  14.128
29556W        W96339  22.211  25.990   0.322
29557W        W96340  15.859  11.193  11.552
29558W        W96341  18.260  14.836  12.029
29559W        W96342  30.484  14.257   4.107
29560W        W96343  27.569  16.320   2.324
29561W        W96344   3.957   8.642  10.635
29562W        W96345  38.479  43.346   0.396
29563W        W96346   1.625  30.404   2.274
29564W        W96347  13.660  24.104   3.620
29565W        W96348  34.626  12.253  11.224
29566W        W96349  31.482   3.523   1.839
29567W        W96350  35.463  34.376  13.987
29568W        W96351  16.943  17.724   2.064
29569W        W96352  31.367  37.545  12.382
29570W        W96353  22.101   9.325  14.692
29571W        W96354   7.872   3.377   1.188
29572W        W96355  23.992   7.145   3.903
29573W        W96356   4.323  37.151  13.881
29574W        W96357  12.124   3.268  14.558
29575W        W96358   6.752  11.327  13.027
29576W        W96359  41.158  36.725   3.822
29577W        W96360  20.940   1.888   4.205
29578W        W96361  41.200   0.196  12.525
29579W        W96362   4.836  32.479   4.405
29580W        W96363   9.234  20.079   4.906
29581W        W96364   1.239  24.055  13.842
29582W        W96365  12.239  35.105   4.467
29583W        W96366  21.713  21.136   4.073
29584W        W96367  16.609   3.238  14.329
29585W        W96368  31.839   5.227   4.919
29586W        W96369  14.034  21.739   1.635
29587W        W96370   4.029  17.676   1.191
29588W        W96371  32.815  38.842   9.956
29589W        W96372  16.512  35.857   4.681
29590W        W96373  34.890  34.857   4.064
29591W        W96374  44.257  22.700  13.623
29592W        W96375  27.888   1.662   1.338
29593W        W96376  22.143  12.870   3.357
29594W        W96377  39.799  11.294  11.529
29595W        W96378  19.111   2.916   0.452
29596W        W96379  17.661  18.977   3.228
29597W        W96380  22.487   1.699  12.214
29598W        W96381  22.455  36.434   3.169
29599W        W96382   1.329  32.549  13.493
29600W        W96383   6.858  13.531  12.962
29601W        W96384  38.598  37.548  11.652
29602W        W96385  44.192   0.757  13.636
29603W        W96386   9.369  24.233   0.693
29604W        W96387  26.439  43.073   3.714
29605W        W96388   3.257  34.963  11.525
29606W        W96389   1.051  27.686  13.389
29607W        W96390  37.073  32.621  12.493
29608W        W96391  26.853  12.670  10.927
29609W        W96392  35.874  33.474  14.055
29610W        W96393  13.609  34.080  11.611
29611W        W96394  23.535  37.038  13.575
29612W        W96395  20.113  41.991  10.660
29613W        W96396  24.475   8.280   0.239
29614W        W96397  15.685  26.406   4.693
29615W        W96398  33.904   6.515   3.123
29616W        W96399  36.828   3.119   1.814
29617W        W96400  43.837   0.792   3.511
29618W        W96401  28.459  33.215  13.946
29619W        W96402   1.484  20.549   3.339
29620W        W96403  17.021  21.236  12.833
29621W        W96404  27.351   6.307   2.347
29622W        W96405  31.656  10.731   1.800
29623W        W96406  24.020   6.279   9.756
29624W        W96407  29.016  12.844  12.567
29625W        W96408  27.919  27.616   9.749
29626W        W96409  22.582  10.529  13.367
29627W        W96410   7.892  10.853   0.450
29628W        W96411   5.129  12.068   1.376
29629W        W96412  44.988  13.188  10.586
29630W        W96413  28.117   6.449  14.262
29631W        W96414  24.874  38.324  10.755
29632W        W96415   9.692  10.100   1.001
29633W        W96416  16.066  27.815   4.448
29634W        W96417  19.301  17.905  12.231
29635W        W96418  39.039   1.793  13.297
29636W        W96419  32.961  34.612   2.496
29637W        W96420  24.732   8.316  14.789
29638W        W96421  11.180  14.717   2.000
29639W        W96422  14.041  32.584  11.469
29640W        W96423  31.826  34.019   3.818
29641W        W96424  42.809  28.880  14.299
29642W        W96425  28.751  35.495   3.227
29643W        W96426  22.062  27.000   3.180
29644W        W96427  26.668  30.128   2.127
29645W        W96428   8.146  23.265  14.776
29646W        W96429  14.060  37.875   2.569
29647W        W96430  12.179  34.793  12.017
29648W        W96431  21.878  20.773   1.944
29649W        W96432  29.457  34.928   4.676
29650W        W96433   1.802   9.794  13.159
29651W        W96434  43.411  25.881   3.554
29652W        W96435   6.694  39.650   2.326
29653W        W96436  30.609  15.463  11.158
29654W        W96437  20.710   4.290  10.408
29655W        W96438  28.728  36.029   3.113
29656W        W96439  18.879  31.275   2.273
29657W        W96440   4.787   4.126   3.574
29658W        W96441   2.964  23.299   2.858
29659W        W96442  19.274  29.051  13.392
29660W        W96443  43.764  39.795   1.222
29661W        W96444  19.718  39.374   4.506
29662W        W96445  27.973  31.390  12.500
29663W        W96446  13.709   1.239   4.541
29664W        W96447   7.379  23.057   3.054
29665W        W96448   7.455  11.074  14.448
29666W        W96449   2.025  35.815   4.824
29667W        W96450  44.061  19.121   1.355
29668W        W96451  44.161  42.577   0.391
29669W        W96452   0.655  38.546   4.790
29670W        W96453  15.498  15.917   9.793
29671W        W96454   0.171   7.412  12.027
29672W        W96455  33.444  38.278   2.895
29673W        W96456  25.952  39.556   2.216
29674W        W96457   6.244  18.157   0.282
29675W        W96458  15.861  12.710  10.635
29676W        W96459  26.150  36.128   3.244
29677W        W96460  18.738  36.144   5.015
29678W        W96461  11.777  38.821  12.467
29679W        W96462  26.114   7.390  12.394
29680W        W96463  36.042  12.608  13.956
29681W        W96464   9.009  38.035   1.499
29682W        W96465  43.930   5.856  13.435
29683W        W96466  23.542  29.743  12.060
29684W        W96467   0.945  38.563  12.515
29685W        W96468  44.234  17.451   5.385
29686W        W96469  15.942  20.221  10.246
29687W        W96470  24.441  28.164  14.781
29688W        W96471  26.461  16.437   3.747
29689W        W96472   1.875   7.241   1.223
29690W        W96473  25.816   5.005  14.033
29691W        W96474  38.028   5.585  14.883
29692W        W96475  19.059  43.118   2.651
29693W        W96476   6.799  14.698   3.107
29694W        W96477  18.568  10.351  11.402
29695W        W96478   7.260  27.100  10.443
29696W        W96479   0.967  25.899  14.481
29697W        W96480  14.232   8.295   2.903
29698W        W96481  38.008   7.423   1.214
29699W        W96482   2.398  23.004  11.253
29700W        W96483   1.847  37.351   2.880
29701W        W96484  24.179  24.922  13.338
29702W        W96485  28.930  10.716  10.713
29703W        W96486   5.349  18.546   4.824
29704W        W96487   6.578  31.016   2.597
29705W        W96488  38.463  19.128   0.264
29706W        W96489  10.604  31.905  12.630
29707W        W96490   0.428  21.180   3.651
29708W        W96491  16.236  19.007   3.927
29709W        W96492  18.701  22.054  10.962
29710W        W96493  32.058  24.162   0.236
29711W        W96494   0.732  31.016   1.366
29712W        W96495  40.832  12.892  13.537
29713W        W96496  26.893  42.755  11.559
29714W        W96497  21.601  40.129  12.080
29715W        W96498  39.796  19.200   0.307
29716W        W96499  28.654   9.321  13.533
29717W        W96500  21.102  35.097   0.485
29718W        W96501  40.013  25.640  14.710
29719W        W96502   3.427   8.887   4.173
29720W        W96503  18.000  36.368  10.361
29721W        W96504  37.390  40.084   4.060
29722W        W96505  40.719   3.492   3.704
29723W        W96506  26.643  22.690  13.970
29724W        W96507  43.331  12.597   2.453
29725W        W96508   0.464  39.902   4.143
29726W        W96509  16.298  40.305   0.305
29727W        W96510  21.127  33.911   1.296
29728W        W96511   6.774  12.236   0.934
29729W        W96512  19.803  28.541   1.749
29730W        W96513  31.490  29.957  14.391
29731W        W96514  29.392  35.935   2.294
29732W        W96515  30.974  27.787   0.838
29733W        W96516   3.306  39.468   3.625
29734W        W96517  11.363   4.745  10.959
29735W        W96518  42.448  12.179   5.358
29736W        W96519  33.614  18.929  14.237
29737W        W96520  23.556  24.427  13.950
29738W        W96521  13.823  40.657  10.288
29739W        W96522  21.585  14.149   1.602
29740W        W96523  27.351  31.005   4.716
29741W        W96524  34.268  32.411   0.865
29742W        W96525   9.564  24.004   3.731
29743W        W96526  32.445  22.101   4.941
29744W        W96527   6.354  27.139  11.893
29745W        W96528  19.501  36.450  13.361
29746W        W96529  12.279   9.795   2.075
29747W        W96530  17.627  24.070  14.710
29748W        W96531   9.616  21.742  11.175
29749W        W96532   7.651  25.208  13.827
29750W        W96533  10.321  35.750   2.877
29751W        W96534  32.882  19.145   1.767
29752W        W96535  38.578   6.219  12.565
29753W        W96536  20.489  40.301  10.549
29754W        W96537  27.467  43.205   2.500
29755W        W96538  27.555  21.996   4.173
29756W        W96539  42.442  36.549  11.159
29757W        W96540  14.137  36.392   1.585
29758W        W96541  42.559  18.326  12.626
29759W        W96542   2.317  26.285   1.354
29760W        W96543  26.418  42.935  11.408
29761W        W96544  25.596  18.788   1.504
29762W        W96545  31.676  23.155  13.310
29763W        W96546  28.612  36.866  11.285
29764W        W96547  15.142  22.565  14.341
29765W        W96548   6.245  32.244   0.197
29766W        W96549  37.122  33.125   3.573
29767W        W96550   5.380  23.464   0.314
29768W        W96551  28.260   2.034   0.006
29769W        W96552  11.287  23.971  11.952
29770W        W96553  39.757  41.048   3.664
29771W        W96554  44.056  34.321  14.891
29772W        W96555  34.806  25.852   4.177
29773W        W96556   2.207  18.857  12.980
29774W        W96557  18.575   0.384   1.868
29775W        W96558  18.848   4.769  14.567
29776W        W96559  27.520  21.958   1.897
29777W        W96560   6.904  12.397  12.001
29778W        W96561  20.961  15.726  11.094
29779W        W96562  32.777  22.115  12.454
29780W        W96563  19.388  25.371  14.476
29781W        W96564  16.579  30.931   3.631
29782W        W96565  43.046  40.018  14.906
29783W        W96566   1.462  20.530  12.946
29784W        W96567  30.401  35.973  13.867
29785W        W96568   8.276  32.010   1.995
29786W        W96569  42.905  36.895   4.380
29787W        W96570   9.266  43.244  13.020
29788W        W96571  28.634  29.894  11.402
29789W        W96572  24.616   2.532  12.018
29790W        W96573  40.815  32.572  11.590
29791W        W96574  17.370   7.406  14.559
29792W        W96575  38.296  31.460  11.524
29793W        W96576   9.695   5.525   0.884
29794W        W96577  42.515  39.270   4.645
29795W        W96578   5.991  27.183   4.124
29796W        W96579   7.146  16.661   3.616
29797W        W96580  31.922   3.984  10.459
29798W        W96581  28.520   6.700   0.840
29799W        W96582  39.279  34.495  14.951
29800W        W96583  11.712   8.738  13.835
29801W        W96584  38.484   9.061  14.387
29802W        W96585  37.777  31.011  10.355
29803W        W96586  14.471  38.546  10.581
29804W        W96587   7.411   8.332  11.051
29805W        W96588   2.772   9.336   3.724
29806W        W96589   7.617  10.083  13.076
29807W        W96590   0.254   5.484  14.715
29808W        W96591  14.593  37.669  10.541
29809W        W96592  18.248  24.134  14.024
29810W        W96593  29.134   6.327  12.656
29811W        W96594  28.401  23.722  10.590
29812W        W96595   2.402  28.007   1.216
29813W        W96596  36.679   5.342   3.153
29814W        W96597   2.707  34.983  12.470
29815W        W96598  44.389  31.574   0.380
29816W        W96599  26.415  29.954   0.647
29817W        W96600   1.972  28.061   4.161
29818W        W96601  29.015   7.769   1.255
29819W        W96602  36.002  35.860   4.910
29820W        W96603   3.177  15.556  11.998
29821W        W96604   6.403  20.076   0.917
29822W        W96605   7.901  41.075   2.898
29823W        W96606   8.305  34.619   0.349
29824W        W96607   7.722  34.827  11.202
29825W        W96608   6.253  36.898   2.274
29826W        W96609  23.656   9.802   1.685
29827W        W96610   4.049   0.530   0.426
29828W        W96611  42.331  39.903   4.118
29829W        W96612   1.330  33.887  11.484
29830W        W96613   5.938   8.275   3.783
29831W        W96614  40.889  15.232   0.827
29832W        W96615  15.973  19.139   1.167
29833W        W96616  21.073  30.606   4.848
29834W        W96617  22.980   8.479  14.197
29835W        W96618  23.706   4.966   3.686
29836W        W96619  40.819  21.703   4.649
29837W        W96620  41.568  20.195   3.118
29838W        W96621  11.056  38.924   2.852
29839W        W96622  43.897  38.303   2.935
29840W        W96623  31.139   2.193  14.911
29841W        W96624  16.187  12.067  12.525
29842W        W96625  40.034  42.750   4.109
29843W        W96626  10.711  29.579  14.267
29844W        W96627   6.609  43.538  14.508
29845W        W96628  22.551  17.860   2.915
29846W        W96629  25.062  22.425   2.853
29847W        W96630  39.729   3.194   2.934
29848W        W96631  33.373  38.996  12.071
29849W        W96632  25.463   9.112   1.367
29850W        W96633  15.214  32.026  11.122
29851W        W96634  33.828  44.046   0.612
29852W        W96635  15.408  42.960  14.486
29853W        W96636  19.134   8.179   3.326
29854W        W96637  44.345  40.108   2.206
29855W        W96638  20.757  21.246  12.586
29856W        W96639  33.372   9.802  12.897
29857W        W96640  15.829  27.515  12.378
29858W        W96641   8.897  42.662   3.234
29859W        W96642  13.324  18.846  11.120
29860W        W96643  41.414  22.030   1.392
29861W        W96644  33.534  42.023   4.151
29862W        W96645  19.061  38.918  12.482
29863W        W96646  43.591  35.424  14.040
29864W        W96647   4.919  30.490  13.854
29865W        W96648  11.107  39.457  14.520
29866W        W96649   0.246  19.654  14.866
29867W        W96650  17.806  15.084  12.028
29868W        W96651   5.894  34.419  10.585
29869W        W96652  17.705  31.008   3.185
29870W        W96653  36.485  25.308   4.096
29871W        W96654  27.504  18.583  10.653
29872W        W96655  16.481  42.644  11.434
29873W        W96656  16.299   3.624   4.972
29874W        W96657  24.175  37.438   4.749
29875W        W96658  37.867  44.233  11.410
29876W        W96659  30.052  17.301  14.602
29877W        W96660  21.588  22.673  11.980
29878W        W96661  35.475   0.498  14.499
29879W        W96662  11.740   4.193   1.439
29880W        W96663  32.542   7.184   2.182
29881W        W96664  20.653  22.095  14.624
29882W        W96665   8.895  15.063   1.810
29883W        W96666   7.635  13.812  13.328
29884W        W96667  39.402  31.973  11.050
29885W        W96668  43.380  38.300   4.143
29886W        W96669  29.575  34.034  14.286
29887W        W96670   9.458  10.255  14.278
29888W        W96671  30.314  41.466   2.417
29889W        W96672  16.164   8.750  12.360
29890W        W96673  30.054  17.568   3.157
29891W        W96674   9.737   5.655   0.093
29892W        W96675  26.979  42.837   1.748
29893W        W96676  28.104  39.134   4.605
29894W        W96677  33.401  41.298   1.226
29895W        W96678  14.100   8.232   1.720
29896W        W96679  11.217  19.910  12.775
29897W        W96680   7.419  35.516  10.673
29898W        W96681  29.525  15.775  14.118
29899W        W96682  11.747  10.460   4.564
29900W        W96683  10.409  21.842  11.577
29901W        W96684  28.410  22.009   1.914
29902W        W96685  14.839  19.820  13.288
29903W        W96686  28.290  14.439  11.081
29904W        W96687  41.437  38.123   3.881
29905W        W96688  37.208   0.239   4.597
29906W        W96689  15.355  10.335  13.378
29907W        W96690  24.420  36.025  10.459
29908W        W96691  33.507   1.293  14.490
29909W        W96692  16.794  42.159   2.698
29910W        W96693  42.952  15.814   0.283
29911W        W96694  16.383   3.898   0.538
29912W        W96695  41.466   1.738   0.594
29913W        W96696   7.821  35.133   1.801
29914W        W96697   2.766  14.245   1.838
29915W        W96698  25.469  44.335  12.348
29916W        W96699  32.173   9.124  10.342
29917W        W96700  14.829  11.198  13.515
29918W        W96701   6.873   1.819  14.201
29919W        W96702  14.810  12.250  11.532
29920W        W96703  41.319  39.127   1.459
29921W        W96704  15.333   2.380   3.663
29922W        W96705  18.721  24.929  13.761
29923W        W96706  14.300  35.408   9.730
29924W        W96707  30.275  32.417  12.148
29925W        W96708  43.825  37.659   4.324
29926W        W96709   1.992  33.246  13.411
29927W        W96710  12.597  34.123  10.776
29928W        W96711  31.015  32.861   1.270
29929W        W96712   4.266  32.857   1.247
29930W        W96713  20.643  31.797  10.524
29931W        W96714  37.373  14.681   0.639
29932W        W96715   3.083   8.931   0.981
29933W        W96716  13.316  28.097   4.088
29934W        W96717  24.181  37.316   1.408
29935W        W96718  23.636   2.424  11.760
29936W        W96719   0.797  24.956  10.757
29937W        W96720  23.311  15.975   4.017
29938W        W96721   7.866   5.128  11.524
29939W        W96722  34.811  33.391  12.462
29940W        W96723  33.130  11.386  11.561
29941W        W96724   5.258  13.838  11.584
29942W        W96725   6.647   4.388  13.402
29943W        W96726  35.458   7.507   3.145
29944W        W96727   4.236  30.620   0.890
29945W        W96728  39.693   6.084  14.275
29946W        W96729  37.653   1.934  11.555
29947W        W96730  25.236   6.956   3.217
29948W        W96731  35.498  36.781  13.794
29949W        W96732  19.615  34.370   1.241
29950W        W96733  26.574  33.203  12.076
29951W        W96734  27.554  19.789   0.921
29952W        W96735   3.630  33.435   4.200
29953W        W96736  28.198  18.604  11.159
29954W        W96737  29.672  16.750   2.796
29955W        W96738  17.062  32.516  14.960
29956W        W96739  25.010  43.302  14.483
29957W        W96740  12.196  33.190   4.509
29958W        W96741   4.355  15.864   0.385
29959W        W96742   6.638  11.355  14.922
29960W        W96743  23.952  20.004   3.627
29961W        W96744   4.089  21.130   0.254
29962W        W96745  29.746  14.116   0.249
29963W        W96746   6.965  38.749   4.189
29964W        W96747  38.451  35.316  11.123
29965W        W96748  19.776   5.980   3.721
29966W        W96749  24.903  39.372   3.222
29967W        W96750  43.927  10.844  14.521
29968W        W96751   5.403  23.866  10.740
29969W        W96752  30.125  23.674  11.664
29970W        W96753  44.897  38.516  11.601
29971W        W96754  11.709  30.653   0.471
29972W        W96755  35.483   1.759   3.715
29973W        W96756  29.885  22.782   1.392
29974W        W96757  42.852  18.283  14.405
29975W        W96758  42.976   4.830  11.619
29976W        W96759  10.901  34.098   2.789
29977W        W96760  35.465   2.748   3.750
29978W        W96761  21.542  12.669   0.829
29979W        W96762  15.750  26.527   3.826
29980W        W96763  22.181  20.720  12.555
29981W        W96764  44.187  23.666   4.199
29982W        W96765   1.004  18.431  12.535
29983W        W96766  21.950  19.970  13.080
29984W        W96767  37.489  17.605  13.500
29985W        W96768   6.800  21.910  13.405
29986W        W96769  36.531  14.262  10.105
29987W        W96770  36.922  29.096  13.315
29988W        W96771   0.044  19.109  10.756
29989W        W96772  43.804  18.485  11.146
29990W        W96773  22.718  12.432  12.891
29991W        W96774  43.567  22.949  12.582
29992W        W96775   4.139  14.302   1.751
29993W        W96776  43.153  18.595   3.639
29994W        W96777   5.429   7.375  14.521
29995W        W96778  44.145  21.671   4.049
29996W        W96779  18.520  32.938   0.032
29997W        W96780  35.136   8.585  14.410
29998W        W96781  27.863  30.483  12.688
29999W        W96782  39.869  25.278   1.161
30000W        W96783  16.213  44.766  11.583
30001W        W96784  18.675  23.266   0.374
30002W        W96785  26.068  22.026   4.940
30003W        W96786  39.263  28.997  13.074
30004W        W96787  25.768  11.361   2.817
30005W        W96788  15.595   6.392   1.123
30006W        W96789  20.998   4.865  10.760
30007W        W96790  15.342  17.653   1.472
30008W        W96791  44.440   9.857   1.950
30009W        W96792  29.035  35.331  11.378
30010W        W96793  31.917  43.059  13.328
30011W        W96794  14.394  29.674  11.180
30012W        W96795  33.379  36.655   0.776
30013W        W96796   5.027  38.281   3.260
30014W        W96797  39.258  26.052  11.195
30015W        W96798   9.320   5.349   2.319
30016W        W96799  11.772   0.684  14.235
30017W        W96800  16.038   9.136   4.712
30018W        W96801  16.895  42.992   4.553
30019W        W96802  11.525   6.381   0.246
30020W        W96803  14.225   3.570  11.457
30021W        W96804  19.251  36.900  14.394
30022W        W96805  30.679  30.491   3.199
30023W        W96806  43.258  37.336   3.850
30024W        W96807  11.338  11.256   2.381
30025W        W96808  25.952  23.160   3.112
30026W        W96809   4.921  30.424   4.371
30027W        W96810  17.204  42.351   3.037
30028W        W96811   7.624  17.033  11.551
30029W        W96812  22.148  28.522  13.427
30030W        W96813  17.665   9.244   1.099
30031W        W96814  23.904   5.312  12.993
30032W        W96815   1.297  40.071  12.936
30033W        W96816  35.140  11.071  14.387
30034W        W96817   8.799  39.736   4.782
30035W        W96818  41.762   0.511   0.451
30036W        W96819  24.565  25.286  13.368
30037W        W96820  13.278  28.190   2.346
30038W        W96821  43.405   1.686   1.828
30039W        W96822  13.173   4.845  14.008
30040W        W96823  28.887  37.748  12.435
30041W        W96824   1.884  41.727   0.068
30042W        W96825  27.023  18.131  12.886
30043W        W96826  44.927  39.948  14.865
30044W        W96827  23.201  26.610   3.163
30045W        W96828  11.827   0.233  13.417
30046W        W96829  31.455   2.213   4.751
30047W        W96830  30.045   2.902  12.453
30048W        W96831  26.172  20.148   3.373
30049W        W96832   0.523  43.388   1.517
30050W        W96833  43.936  16.278  12.070
30051W        W96834  24.475  24.776   3.759
30052W        W96835  30.171  43.846   4.526
30053W        W96836  22.185  14.159   2.367
30054W        W96837  41.510   3.790   1.993
30055W        W96838   5.901  27.980  12.994
30056W        W96839   8.772  17.991   2.236
30057W        W96840  42.617  14.684  12.487
30058W        W96841  40.517  44.505   3.281
30059W        W96842  39.597  30.525  11.075
30060W        W96843   9.138  22.810   3.400
30061W        W96844  40.889  19.241   4.580
30062W        W96845  37.778  38.155  10.849
30063W        W96846  24.925  34.848   1.705
30064W        W96847  29.737  31.884   4.127
30065W        W96848  34.480  22.826   9.524
30066W        W96849  37.437  37.538  12.660
30067W        W96850  26.764  38.807   4.938
30068W        W96851  28.005  10.556  12.885
30069W        W96852  33.210  12.803   4.299
30070W        W96853  15.694  18.188  13.107
30071W        W96854  10.835   2.979   2.661
30072W        W96855   8.760  17.350  14.773
30073W        W96856  13.826   2.806  13.477
30074W        W96857   5.677   1.457   3.199
30075W        W96858  26.189  13.273  13.404
30076W        W96859  25.019   9.387   1.281
30077W        W96860   5.208  22.047  12.829
30078W        W96861  35.546  13.037  10.430
30079W        W96862  41.572  39.013  11.481
30080W        W96863  21.291  25.777   2.395
30081W        W96864  26.180  16.310  11.141
30082W        W96865  25.413  14.256  14.835
30083W        W96866  42.323  29.039   2.695
30084W        W96867  44.258   3.339   0.816
30085W        W96868  21.185  16.274   4.714
30086W        W96869  17.144   2.034  12.664
30087W        W96870  29.702  20.126   2.656
30088W        W96871  26.104   5.435   1.555
30089W        W96872  11.178  43.775   0.411
30090W        W96873  13.082  16.493   0.732
30091W        W96874  19.009  10.899   0.892
30092W        W96875   8.327  11.593  11.591
30093W        W96876  30.966  42.288  13.840
30094W        W96877  13.631  27.120   0.942
30095W        W96878  43.426  27.157   2.960
30096W        W96879  35.518   0.773   2.865
30097W        W96880  30.873  10.696   4.089
30098W        W96881  36.791  31.092   4.313
30099W        W96882   0.870  13.317   0.433
30100W        W96883  14.540  23.186   0.471
30101W        W96884  24.193  33.208   0.826
30102W        W96885  25.796  21.965  14.983
30103W        W96886  25.539  12.511  11.558
30104W        W96887   7.119   5.736   1.298
30105W        W96888  30.569  13.623  10.736
30106W        W96889  33.704  15.151   2.756
30107W        W96890  31.497  36.809  10.727
30108W        W96891   8.687  25.943   1.226
30109W        W96892  39.867  17.084  11.297
30110W        W96893  24.973  18.728  14.502
30111W        W96894  33.461  43.524   1.398
30112W        W96895  10.591  13.321  14.199
30113W        W96896  12.329  12.801   3.728
30114W        W96897  12.384  18.225  13.887
30115W        W96898  11.648  31.086   4.875
30116W        W96899   6.825  18.331  14.821
30117W        W96900  37.315   3.852  12.336
30118W        W96901  29.311  13.156   2.726
30119W        W96902   6.976  35.408  12.088
30120W        W96903   1.971  30.435  14.767
30121W        W96904  10.064  12.150  11.974
30122W        W96905  23.662  36.890  14.855
30123W        W96906   3.340  39.191   4.112
30124W        W96907  39.091   3.012  11.942
30125W        W96908  31.067  21.156   9.848
30126W        W96909  39.516  27.057   2.540
30127W        W96910  26.636  38.532   2.800
30128W        W96911  21.766  21.052   3.571
30129W        W96912  38.649  17.522  12.476
30130W        W96913  42.204  21.585   4.725
30131W        W96914  25.521  18.680  12.927
30132W        W96915  10.931   7.229  13.926
30133W        W96916  12.097  10.732   4.814
30134W        W96917   9.322  43.954  12.624
30135W        W96918   6.636   6.249  13.992
30136W        W96919  37.826  10.112  12.844
30137W        W96920  12.768  15.754   2.922
30138W        W96921  14.208  13.836  14.287
30139W        W96922  15.060  39.889   5.101
30140W        W96923   7.193   1.820  10.622
30141W        W96924  19.616   1.213  14.306
30142W        W96925  25.003  19.823  12.538
30143W        W96926  17.776  25.462  12.941
30144W        W96927  26.767  26.394   4.005
30145W        W96928  39.471  28.138   2.761
30146W        W96929  28.958  15.279  14.485
30147W        W96930   3.842  32.097   4.156
30148W        W96931   7.126  38.289   3.915
30149W        W96932   2.215  42.242   0.665
30150W        W96933  23.238   7.332  10.643
30151W        W96934   5.741  38.924  11.134
30152W        W96935   9.859  23.960  13.443
30153W        W96936  33.776   2.372   4.940
30154W        W96937  21.096  33.564   5.171
30155W        W96938  29.038  15.208  13.850
30156W        W96939  11.291  41.355   0.738
30157W        W96940   2.280  14.406   1.896
30158W        W96941  33.787  39.349  14.989
30159W        W96942  10.203  37.944  10.491
30160W        W96943   8.607  42.441  12.873
30161W        W96944   5.348   2.287   2.634
30162W        W96945  22.401  40.547  13.086
30163W        W96946   2.193   3.861   3.296
30164W        W96947  12.250  20.782   0.631
30165W        W96948  43.916   0.940   4.762
30166W        W96949  23.513  21.670   4.589
30167W        W96950   3.223  22.307   1.590
30168W        W96951  26.226  23.177   3.833
30169W        W96952   8.802   4.102  12.098
30170W        W96953   3.423   2.856   4.586
30171W        W96954  31.222   0.789   3.646
30172W        W96955  17.627  36.051  10.682
30173W        W96956  44.858  14.543   1.689
30174W        W96957  11.216  35.894  13.019
30175W        W96958  39.716  18.069  11.104
30176W        W96959  20.266  37.016  13.363
30177W        W96960  32.712  19.560   5.066
30178W        W96961  21.448  43.395  10.624
30179W        W96962  20.192  38.736  13.041
30180W        W96963  23.130  15.562   3.094
30181W        W96964  31.120  22.411  12.580
30182W        W96965  26.424   9.338  13.397
30183W        W96966  13.588  30.021  13.066
30184W        W96967  25.107  33.661  12.773
30185W        W96968  37.519  41.838  13.263
30186W        W96969   3.726  22.811  10.811
30187W        W96970   6.860  27.471  14.262
30188W        W96971  24.085  22.758  13.455
30189W        W96972  30.362  22.924   4.943
30190W        W96973  32.072  34.340   4.209
30191W        W96974   5.700  42.208   2.782
30192W        W96975  24.259  25.174   3.495
30193W        W96976  34.462  36.351  12.372
30194W        W96977  22.295  17.738   3.342
30195W        W96978  25.864   5.250   0.962
30196W        W96979  39.042  23.663  13.432
30197W        W96980  20.781  44.888   3.757
30198W        W96981   2.844  31.115  10.937
30199W        W96982  33.563  31.147   3.013
30200W        W96983   2.230  17.172  11.492
30201W        W96984  41.926   0.168   4.307
30202W        W96985  36.016  17.974  11.737
30203W        W96986   5.706   6.290   0.340
30204W        W96987   6.919  43.034   4.599
30205W        W96988  39.547  19.469   2.301
30206W        W96989  42.961  42.045  13.324
30207W        W96990   9.757   1.875  12.932
30208W        W96991  40.265  15.625  10.360
30209W        W96992  30.580  22.036   2.756
30210W        W96993  27.771  10.525  12.085
30211W        W96994  38.155  40.019  11.024
30212W        W96995  39.123  20.739  14.767
30213W        W96996  21.193  38.018  11.063
30214W        W96997  17.541  26.524  14.256
30215W        W96998  15.300   3.467  13.767
30216W        W96999  33.152   0.766   4.358
30217W        W97000  21.474  12.146   3.172
30218W        W97001  22.203  11.225   0.304
30219W        W97002  17.317  16.839  11.397
30220W        W97003  39.267  22.661  12.623
30221W        W97004  29.305  43.468   2.819
30222W        W97005  20.502  30.691   2.811
30223W        W97006  19.087   2.462  13.537
30224W        W97007  18.503   2.497   4.526
30225W        W97008  18.046   2.707  11.565
30226W        W97009   3.760  35.088   4.650
30227W        W97010  42.890  37.581   5.118
30228W        W97011  37.911  33.971  10.812
30229W        W97012  44.245   1.436  10.417
30230W        W97013  35.075   2.516   5.106
30231W        W97014   3.381  22.404   2.077
30232W        W97015   2.592  24.097  12.080
30233W        W97016  37.471  31.611   4.345
30234W        W97017   9.650  13.823   3.213
30235W        W97018  32.306   5.559  13.859
30236W        W97019   3.407   1.281  12.419
30237W        W97020  30.043  21.429  11.442
30238W        W97021  40.199  22.025   0.386
30239W        W97022  41.746  28.831   0.806
30240W        W97023  35.635   3.738  13.473
30241W        W97024  42.017  17.085   0.379
30242W        W97025   7.744   9.264   5.131
30243W        W97026  16.174  11.775  12.107
30244W        W97027  43.936  41.158   1.811
30245W        W97028   4.211  28.115  10.579
30246W        W97029   0.357  23.579   2.167
30247W        W97030  22.304  11.839  13.993
30248W        W97031  29.233  38.347   0.443
30249W        W97032  21.526  27.011   4.671
30250W        W97033   7.110  12.044  14.544
30251W        W97034   8.659  32.217   1.222
30252W        W97035  38.396  10.604   0.186
30253W        W97036  36.342  24.671   3.431
30254W        W97037  39.495   7.334   0.441
30255W        W97038  12.585  42.850  10.440
30256W        W97039  20.317   0.763   1.882
30257W        W97040   5.849  20.091  11.187
30258W        W97041  21.686   9.133  11.610
30259W        W97042  22.320  39.820   3.275
30260W        W97043  21.047  25.013   2.667
30261W        W97044  18.677  37.462   9.969
30262W        W97045  19.274  35.043   0.260
30263W        W97046  26.105   2.135  10.183
30264W        W97047  21.807  30.452   3.842
30265W        W97048  41.501   5.385  10.665
30266W        W97049  22.101  37.754  11.534
30267W        W97050  39.583   2.422   1.739
30268W        W97051   4.090  22.893   3.248
30269W        W97052   3.327   0.933   2.154
30270W        W97053   7.744  25.701   0.786
30271W        W97054  41.028  31.899   1.693
30272W        W97055  22.366  16.845   3.829
30273W        W97056  12.181  27.569  12.572
30274W        W97057  27.924  30.818   0.416
30275W        W97058   3.852  42.570   0.276
30276W        W97059   0.244   3.460   2.752
30277W        W97060   5.670  40.798   1.307
30278W        W97061  36.975   5.203  12.553
30279W        W97062  40.644   7.896  11.095
30280W        W97063  24.161   2.410   0.006
30281W        W97064   8.652  13.326   2.319
30282W        W97065  37.534  34.464  13.479
30283W        W97066   8.050  17.779   0.067
30284W        W97067  10.619  12.998  10.731
30285W        W97068  20.528   7.351  13.791
30286W        W97069  36.018  13.503   2.189
30287W        W97070  29.157  38.572   3.264
30288W        W97071  11.096  27.195   1.269
30289W        W97072   1.032  25.560   4.382
30290W        W97073  24.145  36.350  12.496
30291W        W97074  41.758  37.074  12.341
30292W        W97075  15.238  24.486   1.987
30293W        W97076   6.649  43.400  12.398
30294W        W97077  41.970  29.983   1.195
30295W        W97078  28.187  34.717  11.584
30296W        W97079  36.268  28.901  11.224
30297W        W97080  16.247  15.538   1.976
30298W        W97081  22.595  23.419   1.405
30299W        W97082  31.122  41.038  14.353
30300W        W97083  22.727  43.098   5.227
30301W        W97084   6.855  26.204   1.863
30302W        W97085  25.433  30.508   2.678
30303W        W97086  35.833  15.894   3.434
30304W        W97087  23.568  38.525   2.663
30305W        W97088  17.446  31.830  14.049
30306W        W97089  25.092  24.208  12.210
30307W        W97090   3.323   3.903  12.800
30308W        W97091  42.265  31.492   3.683
30309W        W97092  23.131  15.344  10.712
30310W        W97093   4.802  23.621   9.861
30311W        W97094  32.939  23.730  12.995
30312W        W97095  34.457  10.867   2.398
30313W        W97096  19.309  26.014   0.401
30314W        W97097  41.485   5.475   0.501
30315W        W97098  39.119  31.903   4.156
30316W        W97099  32.114  22.062   0.931
30317W        W97100  30.782   6.313  14.252
30318W        W97101  16.525  34.213  11.506
30319W        W97102  16.847  19.512   3.257
30320W        W97103   8.300  33.309   1.199
30321W        W97104   2.522  28.553  10.994
30322W        W97105  40.836  22.428   0.773
30323W        W97106  25.673  30.163  11.125
30324W        W97107   8.815  25.165  12.648
30325W        W97108  32.452  43.875  12.044
30326W        W97109   7.062  15.525   2.774
30327W        W97110  42.985   7.728  13.666
30328W        W97111   9.788   3.003   0.849
30329W        W97112   6.951   8.335  10.665
30330W        W97113  36.290   6.324   3.871
30331W        W97114  10.698   6.780   5.139
30332W        W97115  22.700  19.787   0.841
30333W        W97116  44.334  28.965   4.702
30334W        W97117  21.643   2.112   3.709
30335W        W97118  41.543  22.114   3.167
30336W        W97119  19.112   4.705   1.720
30337W        W97120  23.706  19.570   4.059
30338W        W97121  19.835   2.969   9.853
30339W        W97122  42.650  35.160  11.088
30340W        W97123  14.338  14.768   4.194
30341W        W97124  26.109  36.341   2.762
30342W        W97125  40.025  39.385   2.209
30343W        W97126  10.243  22.743   3.676
30344W        W97127  42.756  27.456  11.995
30345W        W97128  40.935  11.694   0.952
30346W        W97129  13.694  18.032   2.098
30347W        W97130  40.980  29.536   4.959
30348W        W97131   1.330  43.780   0.312
30349W        W97132  19.046  10.097   0.318
30350W        W97133  39.385  41.126   0.367
30351W        W97134  13.939  43.878  12.408
30352W        W97135   7.844  23.672   2.817
30353W        W97136  34.436   8.691   2.852
30354W        W97137  34.612  29.165  13.395
30355W        W97138  20.414  15.583   5.155
30356W        W97139  38.463   0.166   2.327
30357W        W97140  33.099  44.611   1.897
30358W        W97141   0.016  23.240  14.314
30359W        W97142  41.601  37.296   0.265
30360W        W97143  16.721  37.703   1.813
30361W        W97144  22.596  29.223  13.407
30362W        W97145  16.891  42.850   0.473
30363W        W97146  18.008  33.845  13.868
30364W        W97147  34.941  24.222  11.158
30365W        W97148  33.150   9.749  12.411
30366W        W97149   0.296   5.956  11.899
30367W        W97150  17.622  17.664  11.155
30368W        W97151  34.429  41.939   4.105
30369W        W97152  11.564  27.034  11.620
30370W        W97153  20.959  26.303  14.712
30371W        W97154   6.750  15.747   0.791
30372W        W97155  13.783  24.986   0.046
30373W        W97156  38.893   9.472  11.040
30374W        W97157   4.673  16.357   0.686
30375W        W97158  33.299  22.262   0.707
30376W        W97159  29.541  41.967   5.304
30377W        W97160  10.696   2.818   4.592
30378W        W97161  26.141  43.888   3.809
30379W        W97162  34.033  27.976  11.893
30380W        W97163  19.723  43.056  11.297
30381W        W97164  22.890  24.421  10.598
30382W        W97165  24.795  26.266  14.527
30383W        W97166  23.056  24.957   3.224
30384W        W97167  38.040  19.528   2.091
30385W        W97168   8.166   3.984   1.735
30386W        W97169  12.031  30.486  10.729
30387W        W97170  39.373   9.045  14.274
30388W        W97171  21.072  16.497   1.023
30389W        W97172  11.887  14.404   4.509
30390W        W97173  11.055  27.681   1.547
30391W        W97174  35.288  31.971   4.097
30392W        W97175  10.123  33.863  10.742
30393W        W97176   9.372  39.957  14.534
30394W        W97177  30.191  25.215   1.377
30395W        W97178  34.319  13.127  13.399
30396W        W97179   1.766  22.324  11.425
30397W        W97180   2.122   5.638  14.304
30398W        W97181  38.791  15.809  10.596
30399W        W97182   4.693  27.538   2.273
30400W        W97183  33.451  39.773  10.639
30401W        W97184  10.726  30.558  12.278
30402W        W97185  31.447  20.089   0.038
30403W        W97186  39.293   7.595   1.800
30404W        W97187  10.143  40.333  11.580
30405W        W97188  16.599  38.796  10.577
30406W        W97189  33.725  28.109  11.503
30407W        W97190   5.471  14.292   4.755
30408W        W97191  42.449  26.698   1.045
30409W        W97192   1.860   7.864   3.127
30410W        W97193   5.435  34.300   1.777
30411W        W97194  37.456  33.897   4.095
30412W        W97195   1.973  41.463  14.307
30413W        W97196  36.783   8.696   2.260
30414W        W97197  40.231   1.471  12.016
30415W        W97198  40.950  25.765  10.765
30416W        W97199  34.446  41.003   0.733
30417W        W97200  15.606  33.417   1.319
30418W        W97201  21.041  20.543   1.865
30419W        W97202  30.408   4.462   4.156
30420W        W97203  18.693  21.100  13.339
30421W        W97204   1.402   8.049  14.105
30422W        W97205  32.587  24.089  12.652
30423W        W97206  22.006  37.463   1.239
30424W        W97207  21.598  36.893   2.658
30425W        W97208  32.535   0.593  13.986
30426W        W97209  40.993  23.191   2.661
30427W        W97210  36.531  29.705  11.905
30428W        W97211  32.603  19.653   1.492
30429W        W97212  43.754  12.780  11.992
30430W        W97213  43.576  25.149   2.515
30431W        W97214  37.709  24.847   3.565
30432W        W97215  17.003  34.351  12.131
30433W        W97216  19.295  17.080   3.544
30434W        W97217  26.700  15.091  12.607
30435W        W97218  25.739  18.228  14.401
30436W        W97219   3.720  31.504  12.077
30437W        W97220  14.838  11.831   1.950
30438W        W97221  17.533  21.450  12.848
30439W        W97222  38.750  38.551   3.092
30440W        W97223  20.277  24.031   3.736
30441W        W97224  13.771  44.826   4.099
30442W        W97225  30.937  24.588  10.357
30443W        W97226  41.226   7.227  11.508
30444W        W97227   6.252  26.688   3.160
30445W        W97228  30.401   5.592   0.384
30446W        W97229  34.579  11.184   2.796
30447W        W97230  12.721  23.320   1.235
30448W        W97231  35.384  21.854  12.263
30449W        W97232  41.923  29.370   3.762
30450W        W97233   9.106   8.909  10.359
30451W        W97234  39.917  25.187   3.825
30452W        W97235   4.442  23.189  12.384
30453W        W97236  11.756  20.664   0.532
30454W        W97237  38.995   3.943   0.323
30455W        W97238  40.834  28.376  11.567
30456W        W97239  44.163   9.355   0.398
30457W        W97240   8.409  30.580   3.722
30458W        W97241  32.931  35.601  12.469
30459W        W97242   9.643  36.530  13.597
30460W        W97243  14.164   3.426  10.568
30461W        W97244  12.443   0.311  14.871
30462W        W97245  33.046   5.331  11.368
30463W        W97246  17.793  35.375   0.010
30464W        W97247   7.189  28.954  14.351
30465W        W97248   1.987  17.704   3.622
30466W        W97249  11.263  16.297   4.983
30467W        W97250  21.990  18.270   2.497
30468W        W97251   2.108  25.301  11.151
30469W        W97252  39.226  10.669  10.414
30470W        W97253   8.893  39.526   1.172
30471W        W97254  29.554   9.106  11.544
30472W        W97255  18.044  10.286   0.444
30473W        W97256  25.741   5.697  14.994
30474W        W97257  27.853  13.132  11.945
30475W        W97258  36.501   6.580   0.047
30476W        W97259  15.659  41.058   0.516
30477W        W97260  14.228  11.385  14.781
30478W        W97261   5.505  16.143   4.602
30479W        W97262   3.886  38.537  11.206
30480W        W97263   9.937  15.071  14.423
30481W        W97264   5.453  30.217   0.143
30482W        W97265  25.028   3.898  14.355
30483W        W97266  36.370  27.690  12.969
30484W        W97267  23.535  16.126  14.790
30485W        W97268  19.676  19.545  14.422
30486W        W97269  29.314  24.051   4.140
30487W        W97270  32.482   6.979   3.080
30488W        W97271  25.521  18.726  14.562
30489W        W97272  17.554  32.533   2.206
30490W        W97273  34.587   5.808   0.133
30491W        W97274  18.582   2.277  12.244
30492W        W97275  27.696  18.681  11.109
30493W        W97276   1.838  16.090  11.072
30494W        W97277  36.619  31.511  10.501
30495W        W97278  20.489   3.966  11.693
30496W        W97279   5.292  28.432  11.196
30497W        W97280  41.086   7.289   1.325
30498W        W97281   8.152  32.013   1.508
30499W        W97282  33.348  13.342   5.066
30500W        W97283  36.938  42.263   2.926
30501W        W97284   8.167  24.209  11.967
30502W        W97285  22.054  33.022   2.695
30503W        W97286   0.955   0.612   4.278
30504W        W97287  42.485  18.084   2.857
30505W        W97288  42.739   4.303   1.476
30506W        W97289  42.874  14.238  12.317
30507W        W97290  33.287  44.703  11.583
30508W        W97291  19.070  40.624  12.076
30509W        W97292  32.281   9.756  12.223
30510W        W97293  29.182  29.378   0.803
30511W        W97294  26.154  44.780  12.012
30512W        W97295  27.648  29.927   1.322
30513W        W97296  39.031  29.311  11.565
30514W        W97297   2.973  44.992  12.116
30515W        W97298  34.618  25.794  10.769
30516W        W97299  32.709  15.625   1.439
30517W        W97300   1.369   9.198   2.138
30518W        W97301  18.114   7.561  14.956
30519W        W97302  20.173   5.942  12.161
30520W        W97303  29.903  42.895  14.707
30521W        W97304  10.179  43.289   4.494
30522W        W97305   9.361  43.001   1.666
30523W        W97306  41.323   8.866   9.753
30524W        W97307   2.424  13.137   0.549
30525W        W97308  28.996  18.069   2.310
30526W        W97309   6.668  37.893   0.002
30527W        W97310  35.838  29.201   3.672
30528W        W97311  19.592  17.314   2.906
30529W        W97312  15.483   8.291   4.151
30530W        W97313  37.441  25.621  14.175
30531W        W97314   2.801   3.734  11.060
30532W        W97315  15.805  10.174   0.623
30533W        W97316   8.852  42.529   2.370
30534W        W97317  15.202   1.458  13.423
30535W        W97318   6.126  35.793   0.296
30536W        W97319  17.253  39.016  14.838
30537W        W97320  43.896  34.734   2.418
30538W        W97321  38.668  16.418   0.452
30539W        W97322   1.827  31.591   0.750
30540W        W97323   7.192   7.954  10.263
30541W        W97324  12.884  29.593  11.147
30542W        W97325  18.355  24.786  13.416
30543W        W97326   7.721  40.084   0.852
30544W        W97327  17.648  39.801   3.584
30545W        W97328  11.679  30.702  11.234
30546W        W97329   0.490  33.421  11.442
30547W        W97330  11.834  22.591   1.978
30548W        W97331  33.085  26.910  14.160
30549W        W97332  12.906  14.671   4.567
30550W        W97333  43.434   9.167   2.433
30551W        W97334   5.865  17.144   1.457
30552W        W97335  39.116  22.646  14.476
30553W        W97336  28.746  31.986   4.566
30554W        W97337  17.142  20.254  11.662
30555W        W97338   3.777  19.525  14.509
30556W        W97339  27.095   8.154   2.400
30557W        W97340  23.623  19.181   1.199
30558W        W97341   6.242  33.684   4.982
30559W        W97342   7.487  28.638  10.731
30560W        W97343   3.526  42.113   3.618
30561W        W97344  29.359  40.494  10.628
30562W        W97345  11.208  28.069  11.687
30563W        W97346  25.536   4.158   1.882
30564W        W97347  25.568  36.093   0.575
30565W        W97348  10.823  33.295  13.494
30566W        W97349  28.982  40.240   4.500
30567W        W97350  12.304  40.114   3.272
30568W        W97351  27.087  20.722  14.916
30569W        W97352  29.664  32.863  10.420
30570W        W97353  36.306  38.882   2.973
30571W        W97354  21.482  42.191   1.351
30572W        W97355  41.816  22.457   4.548
30573W        W97356  23.134  38.550   1.869
30574W        W97357  36.171   3.209   1.667
30575W        W97358  40.403  28.352   0.652
30576W        W97359  20.339  13.456   0.462
30577W        W97360  43.805  21.671  13.753
30578W        W97361  43.420  12.784  11.123
30579W        W97362  44.925   1.669  11.610
30580W        W97363  29.621  42.934  11.091
30581W        W97364  41.541  40.876  14.246
30582W        W97365  33.209   4.739   4.908
30583W        W97366   3.017  15.041   3.756
30584W        W97367  27.219   0.367  11.973
30585W        W97368   1.419  21.614  13.046
30586W        W97369  26.834  37.836  14.631
30587W        W97370  34.558  17.775   1.657
30588W        W97371  12.051  36.927  10.343
30589W        W97372  43.349  42.948   1.816
30590W        W97373  26.571  32.513  14.226
30591W        W97374  22.779  31.817   1.368
30592W        W97375  36.560  34.775  13.718
30593W        W97376  38.261  11.858   1.811
30594W        W97377  40.777  27.036  11.827
30595W        W97378  27.619  34.146   0.249
30596W        W97379  41.808  12.195  10.721
30597W        W97380   9.136  23.476  11.545
30598W        W97381  21.982  30.408   3.338
30599W        W97382  38.932  21.321  11.458
30600W        W97383  23.075  29.949   1.628
30601W        W97384  12.071   4.868   0.445
30602W        W97385  14.445  29.002  14.271
30603W        W97386  40.297  21.575  11.527
30604W        W97387  44.395  24.069   3.741
30605W        W97388  15.705   2.516   2.272
30606W        W97389  20.240   8.542  13.324
30607W        W97390  21.533  26.126  13.856
30608W        W97391  15.975  23.037  11.045
30609W        W97392  16.778  38.981  11.893
30610W        W97393  31.600  22.769  14.497
30611W        W97394  20.592   8.214   3.861
30612W        W97395  26.587   3.303   2.319
30613W        W97396  18.069  19.974   3.234
30614W        W97397  33.582  19.049  10.295
30615W        W97398  20.768  25.596   0.895
30616W        W97399  16.965  22.249  14.456
30617W        W97400  41.511  32.548   4.458
30618W        W97401  16.606  41.335   2.761
30619W        W97402  13.840  38.542   0.863
30620W        W97403  35.570  12.671  10.787
30621W        W97404  25.680   4.311   1.204
30622W        W97405  39.077   0.907  14.493
30623W        W97406   6.972  25.979  14.365
30624W        W97407  11.216  32.173  14.904
30625W        W97408  17.291  30.207   3.180
30626W        W97409   4.551  28.260  13.031
30627W        W97410  43.005  20.834  14.075
30628W        W97411  33.644   4.615  11.218
30629W        W97412  27.578   1.124  10.588
30630W        W97413  21.764  16.796   4.191
30631W        W97414   0.909  14.242   2.493
30632W        W97415  29.165  43.303  14.815
30633W        W97416  38.034  13.847  12.842
30634W        W97417   2.236  44.875   2.829
30635W        W97418  19.577  34.513  11.231
30636W        W97419   3.312  26.242  13.484
30637W        W97420  42.383  11.433   3.714
30638W        W97421  32.577  12.570  14.418
30639W        W97422  42.781  30.002   1.841
30640W        W97423   1.275  36.204  11.515
30641W        W97424   8.734   1.018  13.876
30642W        W97425  26.492  30.890  12.392
30643W        W97426  27.100  37.802   4.642
30644W        W97427  41.390  16.789   4.787
30645W        W97428  16.603  43.755   3.290
30646W        W97429  40.893  34.706   1.000
30647W        W97430  33.448  41.726  14.700
30648W        W97431  12.267  11.052   1.276
30649W        W97432  25.187  27.653  13.287
30650W        W97433  22.821  17.347   4.042
30651W        W97434   4.334  27.966  11.054
30652W        W97435   5.659  22.051  13.160
30653W        W97436  18.616  28.501  12.513
30654W        W97437  31.807  43.383   4.408
30655W        W97438  41.802  27.420  12.776
30656W        W97439  22.691  39.341   4.566
30657W        W97440  26.513  12.847  10.568
30658W        W97441  41.132  10.666  14.849
30659W        W97442  41.011  35.551  12.506
30660W        W97443  17.731  20.646  14.472
30661W        W97444  19.111  12.601  13.051
30662W        W97445  29.576  43.459  10.961
30663W        W97446  14.139  44.830  10.931
30664W        W97447  25.896  17.115  11.900
30665W        W97448  26.616   1.679   3.799
30666W        W97449  26.933  19.163   4.314
30667W        W97450  17.753  41.809   2.801
30668W        W97451  41.327  11.304   0.310
30669W        W97452  26.977   4.211  11.916
30670W        W97453   1.684   3.871   1.288
30671W        W97454  32.161  15.140   0.858
30672W        W97455  14.723   2.177   1.271
30673W        W97456  12.289  42.804   1.635
30674W        W97457  31.138   8.182  14.833
30675W        W97458  13.395   9.387   4.449
30676W        W97459  26.929   7.829   0.953
30677W        W97460   1.472  11.421   4.325
30678W        W97461  26.584  34.949   1.473
30679W        W97462  23.027  14.554  11.126
30680W        W97463  23.613  30.655   3.924
30681W        W97464  21.556  39.299  11.931
30682W        W97465  43.887  43.811   3.107
30683W        W97466  24.489  23.470  13.940
30684W        W97467  22.925  40.565   0.268
30685W        W97468   1.521  18.562  14.781
30686W        W97469  22.046   4.380   0.524
30687W        W97470   1.301  23.245   2.196
30688W        W97471  44.086  32.101  10.696
30689W        W97472   9.661  40.664   3.030
30690W        W97473  32.597  44.576   0.487
30691W        W97474  11.784  29.235   1.920
30692W        W97475  33.387   1.985   1.777
30693W        W97476   7.833  21.366  14.083
30694W        W97477  32.373  10.293  11.050
30695W        W97478  37.744  13.221  11.054
30696W        W97479  11.656  10.791  10.438
30697W        W97480   1.965  29.554  13.758
30698W        W97481  28.967  16.230   4.617
30699W        W97482  40.948  34.017  13.964
30700W        W97483  27.373  43.867  12.427
30701W        W97484  13.627  22.551  10.770
30702W        W97485  34.669  34.357  12.007
30703W        W97486  27.151  40.476  12.088
30704W        W97487  25.771   2.274   3.707
30705W        W97488  38.970  34.966  11.894
30706W        W97489  17.079  12.737  13.961
30707W        W97490  19.499  24.672   0.300
30708W        W97491   9.664  12.599   1.900
30709W        W97492   7.354  24.224   2.389
30710W        W97493  34.974  31.614   0.750
30711W        W97494  38.459  27.973   2.067
30712W        W97495  37.092  17.056  11.526
30713W        W97496  27.186  10.884   0.789
30714W        W97497  11.222  26.691   3.724
30715W        W97498  10.236  13.232   4.504
30716W        W97499  26.111  14.248  10.551
30717W        W97500  39.466  18.670  13.952
30718W        W97501  27.173  22.079   2.895
30719W        W97502  31.410  39.787   3.253
30720W        W97503  36.551   5.735   4.976
30721W        W97504  41.830  38.023  13.473
30722W        W97505  35.063  35.307   3.862
30723W        W97506  41.144   7.052  11.015
30724W        W97507  16.732  33.048   0.951
30725W        W97508  29.096  29.872  13.095
30726W        W97509  33.870  11.146  14.828
30727W        W97510   8.951  19.703   4.696
30728W        W97511  24.013  32.880  12.538
30729W        W97512  26.886  42.556  12.527
30730W        W97513   3.252  12.100   4.268
30731W        W97514   9.260   9.676  10.470
30732W        W97515   9.127  15.774  14.387
30733W        W97516  34.431   9.233   4.262
30734W        W97517  41.396  19.852   3.460
30735W        W97518  12.644  42.859  11.788
30736W        W97519  13.183  21.840  12.213
30737W        W97520  44.231  36.265  12.165
30738W        W97521  25.293   3.989  10.744
30739W        W97522  17.139   8.045   1.717
30740W        W97523  12.501  20.759  11.605
30741W        W97524  33.582  10.299   3.732
30742W        W97525   4.746   4.005   2.143
30743W        W97526   3.717   3.440   4.839
30744W        W97527   8.924   2.626   3.276
30745W        W97528  15.823  42.378   0.083
30746W        W97529  20.811   4.100   0.068
30747W        W97530  21.474  16.203   3.890
30748W        W97531  14.790  23.667   1.874
30749W        W97532  35.368   3.015   1.730
30750W        W97533  24.280  19.551   2.743
30751W        W97534  37.935  36.872   2.736
30752W        W97535  17.293  20.724  11.558
30753W        W97536  21.931  12.839  10.602
30754W        W97537  15.645  31.391   0.642
30755W        W97538  13.579   9.492  11.796
30756W        W97539  36.267  16.308  12.877
30757W        W97540  26.007  18.153   1.394
30758W        W97541  18.503   5.786   1.402
30759W        W97542  15.698  22.622   0.445
30760W        W97543  28.666  35.166  11.032
30761W        W97544  27.071  14.277   3.742
30762W        W97545  29.706   7.473  14.323
30763W        W97546  16.121  16.544   4.015
30764W        W97547  40.315   2.728   4.750
30765W        W97548  41.121  20.517  11.947
30766W        W97549  27.117  34.029  13.028
30767W        W97550  44.200  10.637   0.867
30768W        W97551   2.432  12.098   2.760
30769W        W97552  25.477   7.339   4.292
30770W        W97553  14.671  25.645  12.338
30771W        W97554  15.545  31.478  10.548
30772W        W97555  13.561  39.486   3.257
30773W        W97556   6.943   1.946  14.699
30774W        W97557   3.786  10.590   0.024
30775W        W97558  27.013  13.675  13.731
30776W        W97559  16.662  12.241  11.066
30777W        W97560  37.023  10.455   4.958
30778W        W97561  44.725  28.736   1.700
30779W        W97562  42.073  34.868  12.006
30780W        W97563  32.604  28.039   4.634
30781W        W97564  36.976   2.745  13.039
30782W        W97565  35.991   4.788   1.240
30783W        W97566  17.530  27.623  13.423
30784W        W97567  14.074  28.733  13.764
30785W        W97568   9.996   7.865   2.126
30786W        W97569   5.838  38.855  12.857
30787W        W97570   8.473  11.590   2.540
30788W        W97571  34.497  13.550  11.274
30789W        W97572  33.722  22.167   3.607
30790W        W97573   2.316  43.130   5.355
30791W        W97574  10.731  12.819  14.098
30792W        W97575  23.591   3.947   0.749
30793W        W97576  20.484  43.884  14.950
30794W        W97577  28.890  34.683   2.345
30795W        W97578  40.863  11.382   2.207
30796W        W97579  26.327  19.335  12.887
30797W        W97580   6.821   7.849   1.262
30798W        W97581  18.265  13.179  10.577
30799W        W97582  18.911  14.135   2.436
30800W        W97583  41.096   7.650  10.288
30801W        W97584  28.502  39.967   4.518
30802W        W97585   6.178  21.085   9.862
30803W        W97586  31.469  10.353  10.659
30804W        W97587  10.379  16.209   4.431
30805W        W97588  15.149   5.092  11.204
30806W        W97589  24.434  22.692  12.062
30807W        W97590  18.512   7.236   0.806
30808W        W97591  22.891  39.574  12.484
30809W        W97592   1.794  41.509   2.465
30810W        W97593  10.460  41.153  12.119
30811W        W97594   1.909  38.735  13.937
30812W        W97595  16.101  43.549   3.377
30813W        W97596  39.541  12.066   0.794
30814W        W97597  34.650  41.466   0.848
30815W        W97598  16.654  38.500   4.272
30816W        W97599  21.312  31.484  12.957
30817W        W97600  40.524  15.181  12.426
30818W        W97601   5.149  44.177   1.860
30819W        W97602  35.477  43.053  14.072
30820W        W97603  17.344  13.627   0.530
30821W        W97604   0.391  35.214   3.929
30822W        W97605  43.209  13.418  11.868
30823W        W97606  17.313  11.425  12.165
30824W        W97607  37.590  40.571   4.256
30825W        W97608   0.152  22.110  11.570
30826W        W97609  10.798  14.094   2.358
30827W        W97610  13.281   0.561   1.451
30828W        W97611  21.379   9.291  10.774
30829W        W97612   4.521  44.573  12.289
30830W        W97613  39.884  32.273   0.975
30831W        W97614   5.297  40.862  13.791
30832W        W97615  11.289  36.131  12.561
30833W        W97616   9.584  17.737  14.926
30834W        W97617  26.481   9.202  10.376
30835W        W97618  29.507  29.994   4.074
30836W        W97619  21.189   5.847  13.110
30837W        W97620  21.676  26.709  14.170
30838W        W97621  10.081  37.838  13.035
30839W        W97622   3.422  33.577  12.031
30840W        W97623  18.786   3.626  12.367
30841W        W97624  10.874  35.896   3.779
30842W        W97625  19.192   0.184   4.696
30843W        W97626  41.948   3.347  12.499
30844W        W97627  32.688  33.523  11.687
30845W        W97628   8.931  14.094  14.512
30846W        W97629  23.230  23.501  12.512
30847W        W97630   5.126  37.799  14.821
30848W        W97631  34.529  40.528   3.563
30849W        W97632  12.872  26.714  14.818
30850W        W97633  41.303  18.134   4.884
30851W        W97634  19.738  28.432   4.114
30852W        W97635  40.273   1.401  12.874
30853W        W97636  28.186  22.614  11.179
30854W        W97637  42.874  20.773   0.998
30855W        W97638  32.175  31.554   0.933
30856W        W97639  28.701   9.214   1.408
30857W        W97640  30.632   5.404   3.353
30858W        W97641   2.758  18.661  11.032
30859W        W97642  11.762  27.050   4.295
30860W        W97643  33.613  43.316   1.858
30861W        W97644   7.771  24.287   0.244
30862W        W97645  12.714  39.568   4.408
30863W        W97646   0.277  27.719   4.534
30864W        W97647   1.294   1.218   2.282
30865W        W97648  40.337  36.159  10.302
30866W        W97649   9.403   4.421  10.696
30867W        W97650  17.082  36.249   2.339
30868W        W97651  27.906  11.357  12.473
30869W        W97652   7.667  19.167   3.541
30870W        W97653  39.448  10.074   0.148
30871W        W97654  16.117  33.646   2.348
30872W        W97655  39.842  30.464   4.116
30873W        W97656   9.286  37.985  11.435
30874W        W97657  14.389  40.061   5.093
30875W        W97658   7.665  36.967   2.242
30876W        W97659   3.967  31.656   2.390
30877W        W97660   3.252  20.289   0.896
30878W        W97661  14.153  10.724  13.436
30879W        W97662  36.976   6.974  12.147
30880W        W97663  16.135  35.869  12.503
30881W        W97664  11.404   2.271   1.628
30882W        W97665   5.049  31.113   5.250
30883W        W97666  44.614   3.242  14.335
30884W        W97667   9.590  43.350  14.411
30885W        W97668   2.161  39.145   4.179
30886W        W97669  32.852  38.331  11.475
30887W        W97670  39.840   6.138  11.195
30888W        W97671   0.024  21.031  11.036
30889W        W97672   4.812  42.264  12.002
30890W        W97673  15.215  29.999   1.186
30891W        W97674  37.387  29.859  13.602
30892W        W97675   4.723   0.643  11.508
30893W        W97676   9.983   4.957  14.342
30894W        W97677  39.489  23.198  13.858
30895W        W97678  14.532  18.760  14.245
30896W        W97679  29.208  17.125   3.124
30897W        W97680  29.022  31.742  11.552
30898W        W97681   4.485  36.369   3.645
30899W        W97682  26.566  14.591  11.691
30900W        W97683  22.391  14.905   0.348
30901W        W97684  17.219  17.633  12.558
30902W        W97685   7.148  27.071   2.389
30903W        W97686  31.125  16.135  12.658
30904W        W97687   6.420  14.915   2.431
30905W        W97688  38.381  26.597  11.465
30906W        W97689  10.775  18.054  10.321
30907W        W97690  26.590   5.786   1.317
30908W        W97691  11.258   7.412   0.841
30909W        W97692  18.657  10.775  12.179
30910W        W97693  21.620  42.899  11.383
30911W        W97694  20.731  44.361   2.696
30912W        W97695  26.234  24.854   9.757
30913W        W97696   6.652  26.374   4.932
30914W        W97697  10.424  32.064  13.090
30915W        W97698  22.261  16.658   4.331
30916W        W97699  37.055  21.529   2.782
30917W        W97700  11.563   9.945   0.873
30918W        W97701  29.500  11.479  10.636
30919W        W97702  29.153  13.222  13.565
30920W        W97703  18.764  43.055  12.847
30921W        W97704   2.912  14.608   0.443
30922W        W97705  21.098  24.928  13.318
30923W        W97706  37.297  16.082   4.492
30924W        W97707  38.903  37.590  12.525
30925W        W97708   8.625  22.788  12.499
30926W        W97709   1.749  27.223   0.897
30927W        W97710   8.109  12.278   1.208
30928W        W97711  43.184  10.222   4.597
30929W        W97712   8.487   0.786  12.120
30930W        W97713  16.926  25.882   1.023
30931W        W97714  20.945  26.598  11.147
30932W        W97715  39.013  43.520  12.547
30933W        W97716   0.456  13.697  13.678
30934W        W97717  35.526   8.223   4.777
30935W        W97718  24.230  28.843  13.965
30936W        W97719  42.421  34.655  12.307
30937W        W97720   0.930  10.894  14.454
30938W        W97721  16.576  44.805  10.729
30939W        W97722   4.663  29.971  12.987
30940W        W97723  38.916  21.506  10.976
30941W        W97724  22.195  29.768  11.914
30942W        W97725  24.513  11.569   1.275
30943W        W97726  42.989   6.317   2.242
30944W        W97727   2.430  40.265  14.285
30945W        W97728  33.856  43.437  14.516
30946W        W97729  15.177  30.472   1.472
30947W        W97730  44.956  34.722   2.828
30948W        W97731   9.016   8.796   0.951
30949W        W97732  34.444  44.909   1.933
30950W        W97733   6.381  31.644   0.936
30951W        W97734   8.672  17.229  11.668
30952W        W97735  22.513  22.653  10.232
30953W        W97736  42.340   7.224  14.877
30954W        W97737  30.850  39.320  11.188
30955W        W97738   3.298   3.737   1.358
30956W        W97739   4.899  16.116  11.521
30957W        W97740  32.905  24.720  10.171
30958W        W97741   8.424  40.957   2.989
30959W        W97742  29.226  21.136  13.285
30960W        W97743  21.603  33.337  14.013
30961W        W97744   1.966  36.624  11.927
30962W        W97745  24.990  21.113   0.599
30963W        W97746   3.522   9.418   3.095
30964W        W97747  34.051  21.313  10.377
30965W        W97748  41.857  11.885  14.829
30966W        W97749   1.394  43.219   1.990
30967W        W97750  29.597  14.567  14.112
30968W        W97751  13.605  11.529  11.353
30969W        W97752  27.544  36.454   4.328
30970W        W97753  27.275  17.586   1.274
30971W        W97754   9.801  29.062  14.464
30972W        W97755  40.422  13.825   0.835
30973W        W97756  20.666  29.742  13.591
30974W        W97757  35.829   7.172   2.268
30975W        W97758  22.377   0.301  11.873
30976W        W97759  14.243  17.946   3.615
30977W        W97760  28.816  18.532  14.761
30978W        W97761  38.042  31.207   4.169
30979W        W97762  44.341   9.652  14.986
30980W        W97763  35.914   6.732   3.180
30981W        W97764  13.901  42.896  11.633
30982W        W97765  38.626  23.570  12.542
30983W        W97766  31.243  23.985  13.418
30984W        W97767  24.780  13.769  12.120
30985W        W97768  17.614  23.737  11.097
30986W        W97769  18.716  41.021  12.524
30987W        W97770  27.614  27.408  10.628
30988W        W97771  28.823  42.325  14.980
30989W        W97772  41.041  18.693   2.349
30990W        W97773  34.332   9.902  13.777
30991W        W97774  33.872  18.344  14.908
30992W        W97775  25.279  20.565  13.034
30993W        W97776  24.837  22.225   4.080
30994W        W97777  18.020   5.916   2.879
30995W        W97778   2.864  12.895   2.842
30996W        W97779  40.679  33.083  14.847
30997W        W97780   4.774  34.143  10.898
30998W        W97781  13.341  22.934  11.032
30999W        W97782   7.313  43.504  11.027
31000W        W97783  28.618  12.281   2.391
31001W        W97784   8.765  43.560  11.170
31002W        W97785   9.030  37.935  13.871
31003W        W97786   6.391  22.670   0.008
31004W        W97787   7.173   6.957   3.762
31005W        W97788  22.521  39.614   0.725
31006W        W97789  16.094  22.253   2.029
31007W        W97790  27.345  42.660   3.213
31008W        W97791  25.435   4.181  13.054
31009W        W97792   0.511  10.272  13.966
31010W        W97793   1.212  31.935   3.651
31011W        W97794  37.472  24.785  12.888
31012W        W97795  36.394  12.864   0.372
31013W        W97796  25.445  20.486  11.656
31014W        W97797  40.872  29.980  12.549
31015W        W97798  28.636  12.538   1.032
31016W        W97799  38.857  21.128  12.456
31017W        W97800  34.538  15.778  12.036
31018W        W97801   4.301  38.038  13.090
31019W        W97802  42.020  35.210  11.453
31020W        W97803   2.444  25.017   4.647
31021W        W97804  43.488  40.937   2.885
31022W        W97805  12.642   6.869  13.256
31023W        W97806  43.816  10.662  11.420
31024W        W97807  24.045   5.838  10.987
31025W        W97808  42.495  25.623   0.741
31026W        W97809  26.872  12.269  11.994
31027W        W97810  35.555   9.334  14.862
31028W        W97811  27.236  12.379  12.984
31029W        W97812  44.685  27.932  14.763
31030W        W97813   9.875   0.880   2.774
31031W        W97814  40.788  42.512  11.107
31032W        W97815  24.313   4.389  14.770
31033W        W97816  34.535  40.561   5.071
31034W        W97817  42.438  33.427  12.457
31035W        W97818  15.785  35.361   3.279
31036W        W97819  14.405  29.533   5.039
31037W        W97820  34.969   8.291  12.895
31038W        W97821  20.848  37.611  11.184
31039W        W97822  13.286  12.314   1.051
31040W        W97823  41.454  33.404  12.080
31041W        W97824  14.179  38.797   2.890
31042W        W97825   2.988  20.066   4.981
31043W        W97826  14.603  24.696  11.208
31044W        W97827  30.449  13.786   1.036
31045W        W97828   4.571   9.381   5.078
31046W        W97829  33.979   7.371   0.482
31047W        W97830   1.215  41.849  14.429
31048W        W97831   8.048  20.656   0.010
31049W        W97832  39.971  22.415  12.359
31050W        W97833  18.666  17.335   9.878
31051W        W97834  39.963   3.784  11.432
31052W        W97835  41.908  27.508   3.623
31053W        W97836   2.758   6.764   1.397
31054W        W97837  42.716  23.655   2.975
31055W        W97838  17.762   0.415   0.845
31056W        W97839  27.714  21.618  12.610
31057W        W97840   3.247   5.558   0.807
31058W        W97841  23.592   0.298   1.408
31059W        W97842  21.503   1.817  13.961
31060W        W97843   8.561  11.418   1.406
31061W        W97844  27.507   3.316   4.035
31062W        W97845  31.915   0.453  11.486
31063W        W97846  42.036  17.211  12.318
31064W        W97847  28.444  33.318  10.518
31065W        W97848  31.478  32.906   0.987
31066W        W97849  30.063  41.316  11.968
31067W        W97850  35.784   8.462   2.342
31068W        W97851   4.190  28.666  12.593
31069W        W97852   9.475   4.492  11.591
31070W        W97853  35.396   7.873  12.075
31071W        W97854  32.205   5.473  13.080
31072W        W97855   0.657  28.635  14.398
31073W        W97856  28.124  33.514   0.254
31074W        W97857   2.061  28.031   1.952
31075W        W97858  43.996  26.732  12.989
31076W        W97859   9.890   6.745  14.360
31077W        W97860  43.340   3.562  12.534
31078W        W97861  42.496  16.387   3.127
31079W        W97862  10.699  14.906   1.907
31080W        W97863   5.268  32.504   4.768
31081W        W97864  18.856  26.928   0.257
31082W        W97865  21.621   9.465  11.190
31083W        W97866  17.084  25.132  12.014
31084W        W97867  22.963  15.873   1.762
31085W        W97868   9.333  18.831  12.793
31086W        W97869   1.056  19.490  12.713
31087W        W97870   2.998  44.901   2.197
31088W        W97871  41.075  21.772   2.268
31089W        W97872  23.063  12.597   2.663
31090W        W97873  10.963  23.121   1.174
31091W        W97874  16.623  26.578   1.728
31092W        W97875  34.542  14.883  12.907
31093W        W97876  33.614  24.568  11.158
31094W        W97877  28.437  13.225   3.921
31095W        W97878  27.050  15.160  12.012
31096W        W97879  25.600  22.640   2.782
31097W        W97880  27.691  38.910   2.309
31098W        W97881  23.679  18.188  10.657
31099W        W97882  38.549   9.161  12.803
31100W        W97883   6.445  14.078   0.433
31101W        W97884  18.521  30.201   2.262
31102W        W97885   6.743   1.217   4.666
31103W        W97886  35.911   8.397  14.969
31104W        W97887  10.991  21.759  11.459
31105W        W97888   4.518  20.968   4.005
31106W        W97889  24.799  33.091   2.748
31107W        W97890   4.464  34.037   3.287
31108W        W97891   8.886  16.296   0.636
31109W        W97892  33.334  15.637  14.314
31110W        W97893  22.069   8.890  10.733
31111W        W97894   7.390  17.373   2.184
31112W        W97895  30.619  20.939   5.435
31113W        W97896  37.566  18.694   4.554
31114W        W97897  27.570  18.728   0.873
31115W        W97898  37.465   6.915   9.552
31116W        W97899  30.058  30.177  10.800
31117W        W97900  35.958  40.579  14.349
31118W        W97901  34.646  34.427   1.813
31119W        W97902  12.164   5.780   0.538
31120W        W97903  17.399  23.499   3.224
31121W        W97904  27.552  17.061   4.598
31122W        W97905  28.594  35.095  14.410
31123W        W97906   7.342  34.922   3.794
31124W        W97907  24.120   7.365  10.772
31125W        W97908  18.547  26.760  11.929
31126W        W97909  29.226  23.126   2.798
31127W        W97910  35.655  20.584   3.770
31128W        W97911  10.653  38.198  10.331
31129W        W97912   8.823  11.861   4.563
31130W        W97913   0.732  36.189   4.253
31131W        W97914  40.101  36.539   0.052
31132W        W97915  39.491  36.864  14.406
31133W        W97916  33.293  38.096  13.792
31134W        W97917  15.461   3.290  10.229
31135W        W97918  41.074  25.174  14.529
31136W        W97919  24.513   9.211  11.127
31137W        W97920   9.623   5.210  11.959
31138W        W97921   9.239   6.736  14.938
31139W        W97922  17.819  18.689   4.514
31140W        W97923  31.998  44.085  12.144
31141W        W97924  19.248   6.618   4.155
31142W        W97925  25.686  11.543  13.746
31143W        W97926  20.305  29.004  12.512
31144W        W97927  13.146   4.293  13.580
31145W        W97928  32.577  14.596   0.278
31146W        W97929   6.216   9.358  11.118
31147W        W97930  35.957   6.175   0.498
31148W        W97931  31.867  30.894   1.434
31149W        W97932   1.347  10.002   2.803
31150W        W97933  10.201  28.548   1.324
31151W        W97934  35.872  19.269   1.530
31152W        W97935  10.885  20.589  13.985
31153W        W97936  42.503  35.388   0.903
31154W        W97937  41.401  15.784   4.826
31155W        W97938  12.410  37.831  12.014
31156W        W97939   6.375   5.190  12.424
31157W        W97940   1.035  20.583  14.466
31158W        W97941  36.794  20.123  12.504
31159W        W97942  25.453  38.137  13.414
31160W        W97943  12.070  21.025  10.073
31161W        W97944  24.734  41.961   2.110
31162W        W97945  42.318  17.668  13.730
31163W        W97946  21.709   6.676  11.233
31164W        W97947  12.559  16.056   0.963
31165W        W97948  35.979  16.868  13.480
31166W        W97949  11.248   4.805  11.862
31167W        W97950   8.265  16.967   0.347
31168W        W97951  15.972  31.066  10.728
31169W        W97952  33.890  12.371   2.245
31170W        W97953  18.788  26.568   3.821
31171W        W97954  21.037   3.454   3.656
31172W        W97955  32.598  28.512   3.650
31173W        W97956   0.382  38.347  13.900
31174W        W97957  31.709  25.129  14.850
31175W        W97958  11.996  21.395   1.325
31176W        W97959   8.722  25.377   2.689
31177W        W97960  14.033  28.480  11.902
31178W        W97961   2.882   9.964  14.908
31179W        W97962   2.698  37.930   4.270
31180W        W97963  38.376  17.386   1.765
31181W        W97964  12.094   1.353  10.998
31182W        W97965   9.868  32.720   4.129
31183W        W97966  17.319   8.218  14.910
31184W        W97967  17.635  40.481   0.252
31185W        W97968  30.474   2.390   4.576
31186W        W97969  40.662  28.592   3.487
31187W        W97970  44.976  32.684   1.386
31188W        W97971  36.120  20.130   1.666
31189W        W97972  19.627  32.347  12.024
31190W        W97973  39.019  37.391  12.996
31191W        W97974  20.210  10.282  10.728
31192W        W97975  23.471  12.599  14.492
31193W        W97976  17.868  16.842   1.484
31194W        W97977  10.806  14.388   1.850
31195W        W97978  22.143  24.599   4.228
31196W        W97979  12.782  24.712  10.653
31197W        W97980  14.909  18.299  10.315
31198W        W97981  33.110  26.276  11.567
31199W        W97982  30.201  21.073   0.291
31200W        W97983  32.967  38.874  13.414
31201W        W97984  38.837  18.075   4.102
31202W        W97985  30.441   5.881   0.835
31203W        W97986   5.304  21.407  12.055
31204W        W97987  33.416  11.628  13.754
31205W        W97988  18.301  14.287  13.481
31206W        W97989  39.286  15.157  13.514
31207W        W97990   1.318  41.575  14.868
31208W        W97991   8.341  20.792   0.835
31209W        W97992  28.162  37.864  12.113
31210W        W97993  23.664  43.057   4.475
31211W        W97994  40.968  23.651   1.224
31212W        W97995  17.303   4.845  11.936
31213W        W97996  14.354  18.676   0.409
31214W        W97997  39.717  10.686   4.093
31215W        W97998   6.817   9.594  11.062
31216W        W97999  15.608  13.353   2.705
31217W        W98000  36.200  25.916   2.117
31218W        W98001   3.674  19.673   2.235
31219W        W98002  14.723  41.622  12.517
31220W        W98003  39.830  28.500  13.315
31221W        W98004  36.562  18.697   4.738
31222W        W98005  12.144  16.763   4.426
31223W        W98006  32.419   0.689  12.622
31224W        W98007  23.170  20.733  10.985
31225W        W98008  21.192  44.317   4.949
31226W        W98009   0.032  14.392   3.186
31227W        W98010  14.011  21.720  10.808
31228W        W98011  41.484  15.179   1.776
31229W        W98012  14.809   1.751   0.293
31230W        W98013  41.862   9.087   1.183
31231W        W98014  30.432  23.007   1.530
31232W        W98015  41.884  29.461  12.963
31233W        W98016  27.508  32.784  13.833
31234W        W98017  31.454  33.013  11.744
31235W        W98018  13.643  29.806   4.634
31236W        W98019  15.133  32.264   3.670
31237W        W98020   1.020  10.368   4.879
31238W        W98021   0.977  30.864  13.953
31239W        W98022  37.080  37.070   0.810
31240W        W98023  32.255  35.805  14.013
31241W        W98024  21.082   1.980  13.125
31242W        W98025  34.583  36.176   0.962
31243W        W98026   0.295  39.137  13.525
31244W        W98027  15.583   8.971  10.250
31245W        W98028   4.879  39.511  10.769
31246W        W98029  25.935  39.288   5.047
31247W        W98030  16.833  42.509   2.211
31248W        W98031  36.751   1.992   2.341
31249W        W98032   8.711  39.234  10.697
31250W        W98033   1.996  21.562   4.554
31251W        W98034  44.859  27.015   3.222
31252W        W98035   1.611  13.545   4.343
31253W        W98036  30.989   5.761   1.706
31254W        W98037  19.318  12.090   3.921
31255W        W98038   5.387   3.719  10.732
31256W        W98039  42.802  31.467   3.755
31257W        W98040  41.331  20.499   1.397
31258W        W98041  22.659  44.888   0.831
31259W        W98042  19.534   5.481  12.295
31260W        W98043   3.313  44.778  13.750
31261W        W98044  16.817  20.732   4.177
31262W        W98045  39.835  20.117  13.887
31263W        W98046  23.454  32.580   1.693
31264W        W98047  42.119  29.136  10.794
31265W        W98048  31.566  37.496   5.112
31266W        W98049  38.380   9.248  11.281
31267W        W98050  23.733  32.213  12.084
31268W        W98051  32.522  36.631   2.716
31269W        W98052   8.643  10.658   1.746
31270W        W98053  43.974  26.034  12.409
31271W        W98054  29.460  32.223  13.841
31272W        W98055   4.715  26.773  12.509
31273W        W98056  44.542  16.002   2.101
31274W        W98057  20.683  40.880   1.251
31275W        W98058  27.121  31.966   3.846
31276W        W98059  11.920  37.145   1.281
31277W        W98060  28.866   2.314   2.720
31278W        W98061  42.805  35.863   0.751
31279W        W98062  35.897  30.327   3.555
31280W        W98063  14.453  26.209   4.144
31281W        W98064   8.452   8.318  11.292
31282W        W98065  33.034  33.638   4.687
31283W        W98066  37.553   6.186   1.666
31284W        W98067  39.368  27.933   2.288
31285W        W98068   3.165  34.016  11.953
31286W        W98069  28.401  41.504   3.755
31287W        W98070  19.226   1.614  12.043
31288W        W98071   5.431  25.478  11.631
31289W        W98072  38.799  19.974  11.385
31290W        W98073   0.726  13.301  12.043
31291W        W98074  35.587  33.764  13.080
31292W        W98075  28.476   4.316  14.994
31293W        W98076   6.137  13.382   3.369
31294W        W98077  27.539  21.197  13.601
31295W        W98078  44.507  11.943   0.760
31296W        W98079  23.102  11.792   4.329
31297W        W98080  21.083   3.949   4.561
31298W        W98081   3.681  17.948  14.523
31299W        W98082  35.290  43.588  11.032
31300W        W98083  34.639   0.753  12.060
31301W        W98084  26.541  27.755   0.999
31302W        W98085   4.076  11.713  10.735
31303W        W98086  44.738  25.559  12.228
31304W        W98087  40.093  39.249  11.817
31305W        W98088  15.376  35.028   3.603
31306W        W98089  23.468  11.745  12.637
31307W        W98090   3.469  44.717  14.722
31308W        W98091  22.901  20.063   4.537
31309W        W98092   5.183  22.124  13.355
31310W        W98093  10.899  43.892  13.388
31311W        W98094  41.338   8.288   0.249
31312W        W98095  38.164   1.444   2.255
31313W        W98096  28.604   5.780  11.147
31314W        W98097  32.688  39.277  13.568
31315W        W98098  35.916  16.337   3.691
31316W        W98099  31.810  16.576   1.024
31317W        W98100  12.523  36.599   0.428
31318W        W98101  31.753  33.620  13.876
31319W        W98102  14.303  29.011   0.831
31320W        W98103  39.281  11.387   4.173
31321W        W98104  19.707  10.694  13.380
31322W        W98105  13.191   0.491   0.230
31323W        W98106  44.940  23.038   1.104
31324W        W98107  25.955  31.446   2.677
31325W        W98108  33.885   4.684  14.955
31326W        W98109  27.040  32.141  13.358
31327W        W98110  20.500  37.871  12.240
31328W        W98111  29.418  13.870   2.401
31329W        W98112  41.869  16.164   0.288
31330W        W98113  10.156  19.359   2.793
31331W        W98114  27.093   6.327  12.484
31332W        W98115   7.745  10.872  12.415
31333W        W98116  42.758  33.682  11.568
31334W        W98117  28.485   8.905   0.669
31335W        W98118  15.965  23.190  12.438
31336W        W98119  12.387  44.774   4.558
31337W        W98120   9.890  41.480  13.611
31338W        W98121  17.148  42.779  13.440
31339W        W98122  38.685  41.603   0.695
31340W        W98123   7.842  12.279  12.090
31341W        W98124  28.181  39.204   1.443
31342W        W98125  43.169  44.337   4.664
31343W        W98126  22.335   7.509  12.752
31344W        W98127  32.904  27.631  11.526
31345W        W98128   6.290  15.841   2.196
31346W        W98129  25.254  13.435  12.886
31347W        W98130   7.190  38.834   0.809
31348W        W98131  11.666  41.920  11.271
31349W        W98132  42.709  34.320  13.893
31350W        W98133   5.431   9.834   0.853
31351W        W98134  19.697  20.207   5.039
31352W        W98135   6.664   0.069  12.552
31353W        W98136  40.000  21.813  12.935
31354W        W98137  24.500  43.559   1.251
31355W        W98138   8.539  17.942   1.776
31356W        W98139   7.175  11.799   2.108
31357W        W98140   1.370  32.525  11.499
31358W        W98141  30.180   6.899   0.435
31359W        W98142  36.892   9.402  10.655
31360W        W98143  24.466  15.694   1.296
31361W        W98144  37.995  38.343  11.866
31362W        W98145  42.661   3.277  11.974
31363W        W98146   1.907  33.900  14.719
31364W        W98147  19.606  28.201  14.036
31365W        W98148  23.574  33.146  12.340
31366W        W98149  23.552   8.644   2.499
31367W        W98150  22.573  31.533  11.820
31368W        W98151  37.802  20.917  13.564
31369W        W98152  32.998   6.404  12.732
31370W        W98153  15.459  36.136  14.028
31371W        W98154  38.621   1.821  12.977
31372W        W98155  37.764  22.609  14.353
31373W        W98156  10.862  10.346   4.974
31374W        W98157  18.079  27.613  13.384
31375W        W98158  26.652   1.397  11.641
31376W        W98159  43.304  37.468   2.184
31377W        W98160  22.135  29.987  14.909
31378W        W98161  21.545  29.060  12.084
31379W        W98162  40.713  12.917  14.029
31380W        W98163  22.929   9.953   4.290
31381W        W98164  28.200   3.215   3.182
31382W        W98165   1.413  23.720   0.487
31383W        W98166  26.167  39.333   1.286
31384W        W98167  11.851  13.940  13.495
31385W        W98168   0.825  17.475  11.727
31386W        W98169  12.646  38.833  11.950
31387W        W98170   2.509  20.748   0.279
31388W        W98171  31.447  19.527  12.152
31389W        W98172  40.789  33.487  11.478
31390W        W98173  37.346  20.985  14.540
31391W        W98174  27.366  43.193  12.808
31392W        W98175   6.745  18.043   4.613
31393W        W98176  35.889  11.436   4.871
31394W        W98177  12.228  18.478  11.683
31395W        W98178  24.909   8.918   0.286
31396W        W98179   2.022  32.445   1.244
31397W        W98180  30.205   2.960  10.993
31398W        W98181  25.827   9.877   2.848
31399W        W98182   2.094  34.686   1.846
31400W        W98183  25.014  22.313  12.565
31401W        W98184  36.506   9.801   4.145
31402W        W98185  27.060  39.845   0.673
31403W        W98186  43.043  34.809  11.061
31404W        W98187   0.751  17.308   3.677
31405W        W98188  29.035  40.903   1.171
31406W        W98189  12.321  21.344   3.229
31407W        W98190  32.864  23.402  14.334
31408W        W98191  44.953   2.464  13.894
31409W        W98192   0.760  22.093   1.840
31410W        W98193  22.713  33.872  14.240
31411W        W98194   8.700  21.249  14.529
31412W        W98195   0.279  35.358  12.422
31413W        W98196  18.032  42.580  11.772
31414W        W98197  15.803  15.218   2.951
31415W        W98198   9.716  43.846  13.411
31416W        W98199  16.151  13.869   3.313
31417W        W98200  26.371  35.091   4.172
31418W        W98201  20.090   1.316  14.522
31419W        W98202  12.638  11.894  11.343
31420W        W98203  28.536  23.783   4.413
31421W        W98204  23.691   4.669   4.533
31422W        W98205   6.240   6.192   3.152
31423W        W98206  42.050  40.989  14.325
31424W        W98207  44.449   2.210  13.979
31425W        W98208  32.988  12.205   2.635
31426W        W98209  14.278  13.565  11.540
31427W        W98210  21.271   9.854   3.163
31428W        W98211  35.559   8.608   1.285
31429W        W98212  27.438  21.113   2.074
31430W        W98213   8.776  13.331   3.818
31431W        W98214  30.605  33.567   1.897
31432W        W98215  16.332  37.378   1.913
31433W        W98216   5.842  40.972  13.709
31434W        W98217   8.900   2.659   4.408
31435W        W98218   4.163  38.981  11.126
31436W        W98219  11.777  22.747   0.145
31437W        W98220  30.533  34.070   0.220
31438W        W98221  32.277   6.156  13.780
31439W        W98222  24.979  35.268  14.312
31440W        W98223  44.254  44.456   2.979
31441W        W98224  15.188  17.479  14.075
31442W        W98225  33.942  25.882   2.251
31443W        W98226  25.571  44.499  10.552
31444W        W98227  36.942  42.082  10.614
31445W        W98228  25.768  26.366   9.587
31446W        W98229  19.169  43.289   2.148
31447W        W98230  27.630   9.259  14.391
31448W        W98231  15.817  22.631   3.542
31449W        W98232  20.859  41.505  11.066
31450W        W98233  32.176  12.441   5.106
31451W        W98234  40.625  39.360  13.418
31452W        W98235  18.765  27.141   0.742
31453W        W98236  19.602  39.150   2.653
31454W        W98237  29.062   3.756   4.569
31455W        W98238   4.031  15.850  12.143
31456W        W98239  12.296  11.574   3.197
31457W        W98240   2.698  24.777   3.406
31458W        W98241  25.748   4.271  11.518
31459W        W98242  20.135  17.680   0.089
31460W        W98243  41.627  25.908   2.239
31461W        W98244  26.536  38.451  10.576
31462W        W98245  12.617  44.240  11.829
31463W        W98246  24.045  33.926   2.673
31464W        W98247  18.671  11.639  10.770
31465W        W98248  43.095   6.059  11.520
31466W        W98249  13.323  33.387   3.272
31467W        W98250  42.699  14.523  10.840
31468W        W98251  27.095  33.399  14.508
31469W        W98252  25.931  34.347   3.608
31470W        W98253   0.954  44.877  12.092
31471W        W98254  13.061  22.230   2.711
31472W        W98255  21.766  18.588  12.490
31473W        W98256  34.116  24.629   0.967
31474W        W98257  17.297   4.707   1.249
31475W        W98258   9.225   3.707   3.752
31476W        W98259  24.135  10.347  14.038
31477W        W98260   9.202  12.732  10.588
31478W        W98261  41.607  26.789  13.005
31479W        W98262  15.346  40.104   1.883
31480W        W98263  36.340  37.934   1.249
31481W        W98264  36.592  28.556  12.478
31482W        W98265  23.607  10.818  11.650
31483W        W98266  37.946  38.536  13.276
31484W        W98267  25.499  32.173   2.284
31485W        W98268  10.264  19.263  11.558
31486W        W98269  38.935  34.926  10.013
31487W        W98270  32.394   0.906  10.289
31488W        W98271  30.860   0.769  12.012
31489W        W98272  35.669  21.546   4.588
31490W        W98273   3.167   7.776   3.625
31491W        W98274   3.907  39.837   1.663
31492W        W98275  11.860  33.580   3.959
31493W        W98276  18.108  36.431  10.874
31494W        W98277  34.886  30.892   4.575
31495W        W98278  16.678  22.126  14.904
31496W        W98279  32.443   8.308  14.311
31497W        W98280  32.196  10.118  14.810
31498W        W98281  29.451  31.958  11.457
31499W        W98282   3.915  16.983  10.230
31500W        W98283   2.760  37.821   2.935
31501W        W98284  27.305   3.786  14.576
31502W        W98285  32.041  44.594  13.439
31503W        W98286  29.159   9.451  11.510
31504W        W98287  29.346  34.483  14.400
31505W        W98288  23.648   7.174   0.812
31506W        W98289  22.120  11.973   0.942
31507W        W98290  26.057  22.776  11.244
31508W        W98291  21.486  18.257   4.155
31509W        W98292  43.862  43.812   0.338
31510W        W98293  30.348  39.019  13.097
31511W        W98294   1.800  38.266  12.986
31512W        W98295  14.163  17.713   2.105
31513W        W98296  30.942  44.882  14.849
31514W        W98297  23.302  18.127   4.509
31515W        W98298   7.369   6.204   2.088
31516W        W98299  15.626  20.078  10.646
31517W        W98300  31.235  15.078   4.704
31518W        W98301  11.567  18.190  10.963
31519W        W98302  33.727  31.450   4.456
31520W        W98303   2.538  11.724   0.864
31521W        W98304  17.538  39.785   2.735
31522W        W98305  42.880  37.768   0.265
31523W        W98306  18.235  42.846   3.162
31524W        W98307  41.532  32.366   0.314
31525W        W98308   2.151  24.776   1.159
31526W        W98309   0.479  16.041  11.530
31527W        W98310  34.380   6.329  11.936
31528W        W98311  32.416  36.554  11.232
31529W        W98312   6.245  13.703   1.819
31530W        W98313   1.977  10.292  13.892
31531W        W98314  18.606   2.995   4.509
31532W        W98315  40.540  12.782  12.383
31533W        W98316  14.334  27.132   1.707
31534W        W98317  41.003  19.797   1.742
31535W        W98318   4.987  27.189   4.340
31536W        W98319  25.522  42.102  13.920
31537W        W98320  33.499  19.065  12.203
31538W        W98321   0.750  19.088   0.327
31539W        W98322  44.825   4.995  11.503
31540W        W98323  24.429  44.988  13.997
31541W        W98324  26.638  41.583  11.677
31542W        W98325  37.441  33.525  10.646
31543W        W98326  13.222  26.966  12.284
31544W        W98327   0.969  11.862   1.442
31545W        W98328  22.182  15.207   2.152
31546W        W98329  15.609  17.620   0.776
31547W        W98330  10.737  37.632  11.630
31548W        W98331   5.975  27.461  14.227
31549W        W98332  31.016  43.798  12.026
31550W        W98333  12.146   8.802   3.355
31551W        W98334  31.562   4.561  14.583
31552W        W98335  42.790  36.488   3.250
31553W        W98336  14.257  22.269  12.923
31554W        W98337  44.280  18.410  11.370
31555W        W98338  34.067  23.000   5.000
31556W        W98339  28.581  41.948  14.466
31557W        W98340  27.939  10.789   0.455
31558W        W98341  41.324  10.849  10.607
31559W        W98342   7.311  22.234   2.704
31560W        W98343  43.287   3.266  13.981
31561W        W98344  36.076   5.332  14.393
31562W        W98345  26.972  23.996   4.560
31563W        W98346  31.433   9.693   4.577
31564W        W98347  20.104   0.698   0.020
31565W        W98348  34.037   7.749   1.145
31566W        W98349  31.559  17.614  14.388
31567W        W98350  16.027  26.990   2.467
31568W        W98351  37.352   3.577   5.016
31569W        W98352   9.473  18.288  11.948
31570W        W98353  25.047  15.894  11.457
31571W        W98354  38.032  40.135   3.059
31572W        W98355  14.881  41.347  13.963
31573W        W98356  36.834  16.224   4.143
31574W        W98357  44.919  42.367  11.504
31575W        W98358  30.136  28.325  13.961
31576W        W98359  35.953  42.491   0.488
31577W        W98360  37.461  21.333   3.605
31578W        W98361  37.157  37.812  13.864
31579W        W98362  36.052  19.380   3.218
31580W        W98363   9.440  38.237   2.283
31581W        W98364  43.036  32.390  11.940
31582W        W98365  32.048  34.610  14.805
31583W        W98366  16.753  33.350  13.562
31584W        W98367  39.507   5.298  14.267
31585W        W98368  25.507  34.384  11.099
31586W        W98369   5.743   7.934  14.973
31587W        W98370   7.380  36.971  10.796
31588W        W98371   6.536  32.829  13.540
31589W        W98372  29.354  19.617   0.337
31590W        W98373  10.238   6.922   2.359
31591W        W98374   8.647   6.212   2.692
31592W        W98375  35.019  43.493   2.827
31593W        W98376  30.926   4.907   5.019
31594W        W98377  13.489   1.018  10.260
31595W        W98378  31.375  24.058  11.526
31596W        W98379  43.346  20.136  14.419
31597W        W98380  28.357  37.091   2.981
31598W        W98381  12.287  32.451  14.428
31599W        W98382  30.680   6.244  10.747
31600W        W98383   4.780  20.086  10.633
31601W        W98384  26.639  18.783   5.043
31602W        W98385   3.265  30.297   2.339
31603W        W98386   1.587   7.806   0.432
31604W        W98387   9.078  23.998  12.933
31605W        W98388   8.621  11.693  12.934
31606W        W98389  13.618  37.048   1.960
31607W        W98390  29.205   9.062   1.466
31608W        W98391  14.155   5.808  12.354
31609W        W98392   8.428  16.093   0.399
31610W        W98393  21.066  44.188  13.113
31611W        W98394  23.517   0.726  12.141
31612W        W98395  15.731   4.394   3.657
31613W        W98396  42.043   6.135   0.694
31614W        W98397  29.626  24.540  11.864
31615W        W98398   9.673  12.486  12.472
31616W        W98399  33.863  25.221  11.208
31617W        W98400  20.661  20.298   2.467
31618W        W98401  38.977  36.089   4.206
31619W        W98402   6.034  11.230  11.357
31620W        W98403  39.041  21.667  12.241
31621W        W98404  20.064  24.635   4.881
31622W        W98405  11.597   8.195  14.780
31623W        W98406  21.062   6.682  10.610
31624W        W98407  15.215  43.572  10.314
31625W        W98408  17.399  13.124  13.733
31626W        W98409   8.763  26.149  13.539
31627W        W98410  25.910  33.924   0.352
31628W        W98411  17.362  36.844  10.020
31629W        W98412   2.782  40.723  14.805
31630W        W98413  18.053  36.818   1.456
31631W        W98414   2.743  22.528   3.710
31632W        W98415  41.344  20.172   4.753
31633W        W98416   7.543  33.123   4.587
31634W        W98417  37.569   3.989   1.465
31635W        W98418  40.398  19.042  14.600
31636W        W98419   6.427  44.331   3.261
31637W        W98420  16.638  43.277  13.890
31638W        W98421   1.242  17.704   2.796
31639W        W98422  32.522  31.359  12.861
31640W        W98423  29.120  38.499   9.715
31641W        W98424  19.913  10.744   1.385
31642W        W98425  37.854  33.489   1.326
31643W        W98426   7.625  18.122  13.330
31644W        W98427  14.252   2.255  14.963
31645W        W98428   9.737   0.843  11.040
31646W        W98429  16.271  13.538   0.008
31647W        W98430  36.440  10.797   4.298
31648W        W98431  40.355  43.025   5.071
31649W        W98432  39.688   4.201   3.633
31650W        W98433   8.816  13.017  12.878
31651W        W98434   1.872  25.741  11.667
31652W        W98435   8.697  20.170   3.101
31653W        W98436  18.192  29.138  14.408
31654W        W98437  35.792   1.474  11.587
31655W        W98438  41.736   8.842  14.522
31656W        W98439  30.402  43.471  13.039
31657W        W98440  22.623  24.718   4.008
31658W        W98441   9.228  42.303   4.346
31659W        W98442  31.525  26.461   1.422
31660W        W98443   6.417   6.351   5.205
31661W        W98444  18.152  42.061   0.243
31662W        W98445   8.883  41.934   0.242
31663W        W98446  36.906  20.997  14.256
31664W        W98447  26.397  26.801  11.172
31665W        W98448  43.472  18.732   2.329
31666W        W98449  24.204  33.489  13.026
31667W        W98450  21.772   3.699   0.871
31668W        W98451  30.443  27.681   0.718
31669W        W98452  13.624  20.078   1.739
31670W        W98453  10.829  42.240  11.823
31671W        W98454  32.961  36.246   0.239
31672W        W98455  22.683  33.996   4.210
31673W        W98456  26.646  33.418  11.440
31674W        W98457  31.976  16.210  10.623
31675W        W98458  10.579  34.738  11.605
31676W        W98459   4.650  16.291  12.883
31677W        W98460  29.591  34.562   4.355
31678W        W98461  15.424  12.850   5.045
31679W        W98462  21.676  24.970   3.234
31680W        W98463  30.398  15.302  13.346
31681W        W98464  20.219  27.073  12.422
31682W        W98465  43.775  15.009  13.878
31683W        W98466  23.661  19.981   3.189
31684W        W98467   9.177  19.028  11.472
31685W        W98468  11.415   9.886  12.005
31686W        W98469  31.028  40.884  12.479
31687W        W98470  19.695   6.877   4.196
31688W        W98471  35.505  18.013   0.842
31689W        W98472  44.836  35.600  12.472
31690W        W98473  25.893  41.232   1.718
31691W        W98474  44.947  18.508   1.448
31692W        W98475  21.973  41.842   3.292
31693W        W98476  30.439  35.507  11.146
31694W        W98477  13.887  43.541  14.755
31695W        W98478  22.980  34.507  13.494
31696W        W98479  30.141  10.910  11.193
31697W        W98480  36.962  29.103  10.659
31698W        W98481  27.663  21.900  11.720
31699W        W98482  23.530   2.942  13.428
31700W        W98483  35.626   9.882   0.754
31701W        W98484  19.882  12.004  12.052
31702W        W98485  31.132  16.285   4.096
31703W        W98486  32.350   5.456   3.064
31704W        W98487  14.536   7.327  14.405
31705W        W98488  23.051  41.506  10.259
31706W        W98489   4.306   1.484  12.871
31707W        W98490   0.516  27.995   4.138
31708W        W98491  32.035   9.041   3.276
31709W        W98492  40.578   3.642   2.709
31710W        W98493   0.393  43.350  10.918
31711W        W98494   4.193   5.217   1.912
31712W        W98495  41.932   0.968  12.911
31713W        W98496  31.983  37.009  13.402
31714W        W98497  33.413  37.000  10.719
31715W        W98498   2.011  30.188  14.319
31716W        W98499  44.024  13.176  13.836
31717W        W98500  32.449  23.500  13.007
31718W        W98501  42.651  14.687  11.609
31719W        W98502  16.097   2.548  13.274
31720W        W98503   6.078  28.013   1.819
31721W        W98504  31.905  36.506  13.392
31722W        W98505  40.966  31.045  10.735
31723W        W98506  10.193  10.186  14.993
31724W        W98507  42.841  25.221   3.781
31725W        W98508   1.226   3.398   0.642
31726W        W98509  18.567   6.723   3.285
31727W        W98510   5.753  18.627   0.469
31728W        W98511   4.589  42.941  13.550
31729W        W98512  44.867  28.145  12.918
31730W        W98513  36.789   7.839  11.857
31731W        W98514  20.003   1.383  11.419
31732W        W98515   6.248  38.105   0.346
31733W        W98516  40.949  22.288   2.346
31734W        W98517   5.474  29.588   3.324
31735W        W98518  20.759   4.221   1.446
31736W        W98519  15.838   3.931  13.428
31737W        W98520  11.887  33.233   1.217
31738W        W98521   6.271  32.626  13.143
31739W        W98522  29.458  14.302   1.162
31740W        W98523   0.985  37.522   2.006
31741W        W98524  18.380  17.255   0.453
31742W        W98525  40.810  26.132   3.770
31743W        W98526  42.034  42.788   0.982
31744W        W98527  14.035  11.197  11.224
31745W        W98528  32.008  42.927  11.706
31746W        W98529  40.395  28.652  14.644
31747W        W98530  39.123  43.756  11.444
31748W        W98531  35.346  37.057   4.299
31749W        W98532  38.543  39.919  14.871
31750W        W98533   5.766  11.669  11.463
31751W        W98534  27.168  11.320   0.321
31752W        W98535  44.233  22.833  13.113
31753W        W98536  16.321  18.607  13.948
31754W        W98537   1.329  25.176  11.911
31755W        W98538  30.415  43.353   0.327
31756W        W98539   9.727  30.115   1.455
31757W        W98540  17.562  42.408  14.706
31758W        W98541  20.150  31.031  11.098
31759W        W98542  41.440   0.030   0.090
31760W        W98543  33.517  26.363   1.224
31761W        W98544  26.174  38.407   0.221
31762W        W98545  13.422  29.082  14.037
31763W        W98546   9.832  12.997   4.750
31764W        W98547  25.244   6.962   0.721
31765W        W98548   4.360  24.312  14.958
31766W        W98549  11.145  17.458  12.206
31767W        W98550  10.851  13.856   1.905
31768W        W98551  31.247  23.224   4.531
31769W        W98552  13.389  11.581   3.974
31770W        W98553  43.780  27.596  11.134
31771W        W98554  35.276   5.482  14.686
31772W        W98555  26.390  20.643  14.335
31773W        W98556  16.682  40.279   1.092
31774W        W98557  28.589   3.794  14.876
31775W        W98558  40.816   6.814   0.290
31776W        W98559   8.923  14.589  12.620
31777W        W98560  31.016  29.808   2.478
31778W        W98561   1.074  36.947   0.885
31779W        W98562  37.450  18.426   0.770
31780W        W98563   8.678  41.360   2.666
31781W        W98564  34.627  31.574  10.891
31782W        W98565  42.224  44.907   1.509
31783W        W98566   1.173  36.344   1.853
31784W        W98567  35.391   1.908  10.694
31785W        W98568  19.496  26.494   0.280
31786W        W98569  37.058  18.889  12.822
31787W        W98570  29.149   9.268  13.302
31788W        W98571  24.519  35.863  11.901
31789W        W98572  29.228  16.141  12.096
31790W        W98573   2.368  13.793  13.440
31791W        W98574   2.215  21.113  13.528
31792W        W98575  23.595  42.848   2.373
31793W        W98576   7.210   9.862   3.328
31794W        W98577   0.704  26.170  13.594
31795W        W98578  28.861  13.690  13.532
31796W        W98579  26.127  11.054  10.636
31797W        W98580  21.138  10.256  10.961
31798W        W98581  11.328  35.955   3.080
31799W        W98582  43.295   2.825   4.248
31800W        W98583  19.018   7.338  12.095
31801W        W98584  13.120  19.681   1.033
31802W        W98585  22.261   2.479   1.950
31803W        W98586  26.783  24.264  12.564
31804W        W98587  38.332  28.739   3.209
31805W        W98588  23.133  44.441   3.135
31806W        W98589   5.869  31.626   1.840
31807W        W98590  39.443  29.674  14.303
31808W        W98591  19.558  13.749  11.377
31809W        W98592   1.733  38.764   1.924
31810W        W98593  41.293  22.617   3.237
31811W        W98594  11.253  12.063  10.328
31812W        W98595  25.533  41.372  10.014
31813W        W98596  24.151  14.405   4.231
31814W        W98597  44.242  21.187  14.459
31815W        W98598  18.622  38.049   3.228
31816W        W98599  30.861   6.512  12.239
31817W        W98600  23.483  19.733   3.617
31818W        W98601  18.510  19.182   5.132
31819W        W98602  40.496  25.780  14.890
31820W        W98603   3.969  22.401   3.310
31821W        W98604  30.917  22.747  14.868
31822W        W98605  12.235   0.811   3.095
31823W        W98606  34.171  32.463  13.493
31824W        W98607  20.516  15.210   2.327
31825W        W98608  35.806   9.181  13.337
31826W        W98609  12.657  13.104   4.692
31827W        W98610  37.285  42.373  12.019
31828W        W98611  26.914  23.006   0.349
31829W        W98612  18.118   7.570   0.875
31830W        W98613  30.035  21.280   2.390
31831W        W98614  15.682   5.263   3.546
31832W        W98615   6.755  14.573  11.695
31833W        W98616  25.218  24.845  11.465
31834W        W98617  23.380  14.136   5.061
31835W        W98618  40.402  32.544  14.902
31836W        W98619  36.524  44.320  11.065
31837W        W98620  34.768   2.956  13.814
31838W        W98621  36.810  29.139  14.818
31839W        W98622  15.754   4.745   2.340
31840W        W98623   8.599  40.880   2.484
31841W        W98624  19.605   5.729  11.422
31842W        W98625  20.266  27.136  10.616
31843W        W98626  33.422  32.057  13.488
31844W        W98627  42.250  12.461   3.832
31845W        W98628  18.586   5.483   0.966
31846W        W98629  26.894  40.435  13.844
31847W        W98630  28.618  31.915   1.100
31848W        W98631  36.363  35.572  13.449
31849W        W98632   3.326  34.025   1.681
31850W        W98633  20.270  27.598  14.053
31851W        W98634  39.961  33.609   4.114
31852W        W98635  18.354  35.443  13.526
31853W        W98636   8.627  38.402  14.552
31854W        W98637   4.496  32.007   3.225
31855W        W98638  29.365  44.850   1.782
31856W        W98639  43.304  21.352   1.417
31857W        W98640   9.916  27.555  11.559
31858W        W98641  44.280  24.963  14.387
31859W        W98642   8.907  21.801  13.066
31860W        W98643  16.783  42.664   2.698
31861W        W98644   4.902   9.866  10.716
31862W        W98645  27.158  43.796   0.727
31863W        W98646  27.588  25.687   2.355
31864W        W98647  21.755  37.424  14.287
31865W        W98648  44.055  43.733  13.529
31866W        W98649  13.824  26.230   2.197
31867W        W98650  14.714  11.108   0.449
31868W        W98651  39.386  43.361   2.665
31869W        W98652  11.446  21.115  14.347
31870W        W98653  37.591  24.186  14.738
31871W        W98654  28.392  39.742   3.670
31872W        W98655  16.316  44.931  12.173
31873W        W98656  43.587  34.207  13.489
31874W        W98657  14.156   4.988  11.581
31875W        W98658  17.313  22.834  11.160
31876W        W98659  36.507  31.518  13.913
31877W        W98660  13.737  19.020   4.687
31878W        W98661   2.785  17.653  14.804
31879W        W98662   0.414  27.367   2.592
31880W        W98663  27.190  12.238  14.781
31881W        W98664  43.438  41.253   4.906
31882W        W98665   1.219  26.042   4.409
31883W        W98666  35.135   1.733  11.109
31884W        W98667  25.110   4.822  13.331
31885W        W98668  18.275   8.451  14.376
31886W        W98669  26.431  42.299  13.878
31887W        W98670  15.718  39.746   1.789
31888W        W98671   7.681  40.383   1.277
31889W        W98672  36.947  22.550   1.255
31890W        W98673  33.464  42.316   0.893
31891W        W98674   4.245  25.746   3.069
31892W        W98675  26.415   1.289  11.192
31893W        W98676  10.371  21.661   2.592
31894W        W98677  19.117  36.585  11.124
31895W        W98678  40.457   8.209   4.507
31896W        W98679   3.812  19.199  10.613
31897W        W98680  33.695  22.276   4.527
31898W        W98681   7.300  42.345  12.541
31899W        W98682   0.508  11.824   1.190
31900W        W98683  23.006  19.828  10.657
31901W        W98684   0.750  26.646   3.764
31902W        W98685   0.383  42.330   2.768
31903W        W98686  44.414   5.806   0.910
31904W        W98687  33.337   2.720  11.552
31905W        W98688  40.250  16.449   4.506
31906W        W98689   0.207  14.053   5.522
31907W        W98690  11.114  24.965  11.478
31908W        W98691   8.245  41.579  10.852
31909W        W98692  44.205  36.029   5.026
31910W        W98693  39.029   7.874  12.844
31911W        W98694  28.512   6.511   3.273
31912W        W98695  19.713  26.190  13.806
31913W        W98696   1.510   0.879  11.520
31914W        W98697  44.046  11.382  11.639
31915W        W98698  11.945  18.991   2.276
31916W        W98699   3.855   4.453  11.211
31917W        W98700   7.256  19.658  14.523
31918W        W98701  21.553  13.234  10.578
31919W        W98702  13.411  18.343  11.886
31920W        W98703  37.425  37.409  13.651
31921W        W98704  18.953  10.685   3.655
31922W        W98705  30.451  18.322  12.163
31923W        W98706  16.484  14.222  14.315
31924W        W98707  32.041  29.250  14.432
31925W        W98708   8.345  24.975  12.592
31926W        W98709  26.634   8.790   0.947
31927W        W98710  36.437   6.777   3.200
31928W        W98711  31.962  20.758  13.025
31929W        W98712  31.071  33.333  12.558
31930W        W98713  44.193  30.927  14.257
31931W        W98714   2.636  27.500  14.283
31932W        W98715  41.886  40.578   2.418
31933W        W98716  39.988  24.015  11.383
31934W        W98717  12.828  38.324  14.746
31935W        W98718  20.956  10.387   2.407
31936W        W98719  36.574   8.937   0.347
31937W        W98720  35.395  28.103  12.154
31938W        W98721   8.686  17.236  10.775
31939W        W98722  39.058  23.023   3.294
31940W        W98723  12.906  11.211  10.541
31941W        W98724   7.205  43.970  12.324
31942W        W98725  35.004   5.189   1.418
31943W        W98726  41.549  23.252  12.585
31944W        W98727  10.241  42.276   2.874
31945W        W98728   2.992   0.416  13.036
31946W        W98729  25.800  40.562   1.009
31947W        W98730  13.155  14.594   2.641
31948W        W98731  31.045  27.897   3.091
31949W        W98732  40.055  15.125  14.932
31950W        W98733   8.083  32.406  14.037
31951W        W98734  22.181  15.875   0.750
31952W        W98735  26.840   5.888   0.694
31953W        W98736  21.667  43.032  11.904
31954W        W98737  37.716   2.730  10.581
31955W        W98738  39.830   9.068  11.148
31956W        W98739   2.317  15.753   2.896
31957W        W98740  15.270  27.140   1.805
31958W        W98741   9.024  39.438   2.377
31959W        W98742  37.836  14.776  11.875
31960W        W98743  23.909  38.447  14.658
31961W        W98744  10.218  34.011  12.994
31962W        W98745  24.023  35.919  10.772
31963W        W98746   2.896  37.006   2.279
31964W        W98747  16.969  42.508  14.026
31965W        W98748  13.391  21.006   0.961
31966W        W98749  27.075  10.834  11.292
31967W        W98750   8.919  20.590  14.850
31968W        W98751  44.395  29.744  14.987
31969W        W98752  10.118  20.361   2.740
31970W        W98753  28.175  12.547   1.742
31971W        W98754  14.604  41.814  14.063
31972W        W98755  24.203  26.481   3.140
31973W        W98756  38.955   3.677   3.128
31974W        W98757   6.208  28.094  12.077
31975W        W98758  24.145  27.537  11.726
31976W        W98759   0.988  25.233   3.585
31977W        W98760  27.954  10.394   2.228
31978W        W98761   2.194  41.278   0.831
31979W        W98762  17.182   6.855  10.718
31980W        W98763  33.255  32.041  14.336
31981W        W98764   0.034  39.476  12.349
31982W        W98765  14.864  19.579  10.553
31983W        W98766  21.086  11.162   3.625
31984W        W98767  18.282  13.247   2.306
31985W        W98768  29.222  32.128  13.269
31986W        W98769  19.689  38.182  11.408
31987W        W98770  36.867  21.029  11.223
31988W        W98771  34.458   5.419   4.139
31989W        W98772   1.731  36.779  13.498
31990W        W98773   6.431   6.192   2.688
31991W        W98774  28.969  22.628  10.794
31992W        W98775  43.393  38.457   0.728
31993W        W98776   2.247  23.769   0.412
31994W        W98777   0.749  12.612   0.881
31995W        W98778  26.735  29.036   1.643
31996W        W98779  20.714   0.412  10.390
31997W        W98780   5.974  35.469  14.851
31998W        W98781  28.027  28.906  10.508
31999W        W98782   8.493   1.754  13.360
32000W        W98783  39.852   0.298  11.407
32001W        W98784  21.480  31.038  12.482
32002W        W98785  32.073  18.198  12.609
32003W        W98786  19.627   9.597  10.793
32004W        W98787  18.713  20.075   4.694
32005W        W98788  43.804   3.045   4.400
32006W        W98789  19.346  25.214   2.403
32007W        W98790  22.686  12.660   0.148
32008W        W98791  30.830  30.199   4.439
32009W        W98792  22.485  43.004  11.146
32010W        W98793  31.655   0.997   0.019
32011W        W98794  10.318  16.906  10.265
32012W        W98795   0.243  18.953   0.270
32013W        W98796  41.065  11.605   1.793
32014W        W98797  19.717  40.776   1.042
32015W        W98798  29.846  29.731   3.611
32016W        W98799  41.699   6.666   4.141
32017W        W98800  41.161  43.809   2.320
32018W        W98801  14.133  29.204  12.924
32019W        W98802  10.815   4.652   0.791
32020W        W98803  17.830  11.103   1.854
32021W        W98804  20.523   7.562  10.675
32022W        W98805  31.231  15.763   1.352
32023W        W98806  14.261  31.674   1.912
32024W        W98807  11.925  41.369  11.999
32025W        W98808  18.327  43.976   1.712
32026W        W98809  21.342  40.503  11.825
32027W        W98810  21.019  12.582  11.574
32028W        W98811  29.655  22.239   0.886
32029W        W98812  30.535  29.121  10.947
32030W        W98813  37.461  31.099   1.303
32031W        W98814  23.183  38.012  13.791
32032W        W98815  38.382  32.673   1.132
32033W        W98816  42.267  25.844  11.043
32034W        W98817  43.495  23.203  12.020
32035W        W98818  35.024  11.405   2.674
32036W        W98819  18.568  19.513  13.882
32037W        W98820  38.155  38.512   4.424
32038W        W98821  42.548  22.735   4.122
32039W        W98822  19.115  26.194   5.050
32040W        W98823  19.901  15.220  11.669
32041W        W98824  11.364  25.721   1.358
32042W        W98825   5.686  44.485   4.632
32043W        W98826  37.649   5.932  12.519
32044W        W98827  40.795  12.359   0.215
32045W        W98828  26.553  23.629   0.579
32046W        W98829  22.178  42.286  13.332
32047W        W98830   5.203  41.873  14.353
32048W        W98831  18.316   3.707  13.572
32049W        W98832  21.723   4.082   2.350
32050W        W98833  13.309   0.764  11.543
32051W        W98834  10.666  11.228   4.594
32052W        W98835  17.280  43.849  12.179
32053W        W98836  19.832  19.265  13.971
32054W        W98837  40.207  13.808   1.831
32055W        W98838  13.104  33.991   1.450
32056W        W98839  32.909  29.299   2.826
32057W        W98840  26.530  34.558   0.167
32058W        W98841  42.851  16.069  10.738
32059W        W98842  10.465  15.046  14.108
32060W        W98843  36.461  36.078  13.359
32061W        W98844  44.759  32.639   4.173
32062W        W98845  23.208   1.737  14.285
32063W        W98846  31.705  43.958  10.715
32064W        W98847   8.076  21.193   4.229
32065W        W98848  11.205  25.936  14.885
32066W        W98849  35.871  16.309  14.308
32067W        W98850   4.117  12.874  13.835
32068W        W98851  29.381  19.651   3.963
32069W        W98852  41.573  23.751   1.261
32070W        W98853  11.671  32.061  12.630
32071W        W98854  12.595  30.935  13.049
32072W        W98855  35.300  11.233  14.873
32073W        W98856  42.827  39.330   2.681
32074W        W98857  38.632  40.506  13.086
32075W        W98858  11.675   5.667  14.933
32076W        W98859   7.219  44.490  10.713
32077W        W98860  12.756  34.567  12.928
32078W        W98861   6.444  15.612  13.813
32079W        W98862  41.903   5.431   2.384
32080W        W98863  35.331  25.690  14.403
32081W        W98864  33.738   8.602   4.093
32082W        W98865  32.098  31.359   1.404
32083W        W98866   4.334   7.300   2.866
32084W        W98867  12.921  16.636   0.257
32085W        W98868   5.376  30.063   2.202
32086W        W98869  12.428  41.394  14.872
32087W        W98870  15.013  16.165   3.072
32088W        W98871   0.535  30.240  14.068
32089W        W98872   6.044  19.555   2.018
32090W        W98873  36.309  28.157  14.022
32091W        W98874  32.005  29.418  14.942
32092W        W98875   8.793  15.041  12.352
32093W        W98876   1.880  28.217  13.942
32094W        W98877  24.153  13.564  12.057
32095W        W98878  21.547  38.463  10.507
32096W        W98879   9.180   8.354  11.887
32097W        W98880   7.743   6.495   1.844
32098W        W98881  34.208  17.845  11.186
32099W        W98882  31.731   9.815   1.275
32100W        W98883  30.916  29.670   0.570
32101W        W98884  44.946   7.642  12.452
32102W        W98885  11.263   1.414   0.307
32103W        W98886  26.635  41.406   0.502
32104W        W98887  41.383  41.866   0.918
32105W        W98888  19.505  24.396   1.214
32106W        W98889  12.426  31.006   0.347
32107W        W98890  27.129  10.338  10.569
32108W        W98891   8.597  14.096   1.845
32109W        W98892  32.904  42.602  14.559
32110W        W98893  19.235  24.162   0.406
32111W        W98894  20.957   4.532  14.756
32112W        W98895  20.107  25.520  13.516
32113W        W98896  38.888  44.217   4.626
32114W        W98897  38.990  10.001  11.958
32115W        W98898  37.434   0.837   5.074
32116W        W98899  27.905  32.441  13.906
32117W        W98900   9.823  37.137  14.447
32118W        W98901  27.690  24.341  12.567
32119W        W98902   2.291  26.928  10.464
32120W        W98903  35.230  23.510  11.136
32121W        W98904  39.083  34.140  13.137
32122W        W98905   7.765  13.328  13.444
32123W        W98906  28.363  20.555   0.851
32124W        W98907  13.888  34.100  11.030
32125W        W98908  14.692  39.397   2.801
32126W        W98909  44.446  31.409  13.566
32127W        W98910  20.033  10.306  13.349
32128W        W98911   8.157   2.684  11.104
32129W        W98912  20.620  24.700  11.572
32130W        W98913   8.290  24.045   2.427
32131W        W98914  24.403  27.082   4.228
32132W        W98915   6.278  16.078   4.114
32133W        W98916  38.389  20.173  14.242
32134W        W98917  23.163  40.036  12.622
32135W        W98918  30.472  20.209   4.527
32136W        W98919  38.850  38.077  12.382
32137W        W98920  32.040  41.163   0.797
32138W        W98921  42.998   6.155   4.154
32139W        W98922  22.910   2.917   3.260
32140W        W98923  14.076  15.540  13.820
32141W        W98924  34.616   9.185   1.606
32142W        W98925  27.665  38.497  12.041
32143W        W98926  44.890   0.676  12.515
32144W        W98927  31.873  17.272   0.436
32145W        W98928  11.696  23.088  12.956
32146W        W98929  15.680  35.877   2.573
32147W        W98930  32.341   1.584  11.164
32148W        W98931  33.110  15.066   2.250
32149W        W98932   7.583  29.050  11.643
32150W        W98933  27.492  28.322  13.931
32151W        W98934   0.209   7.243  13.398
32152W        W98935  11.749   5.623   4.132
32153W        W98936  40.337  11.440   1.297
32154W        W98937  17.797   4.303  11.019
32155W        W98938   4.337   5.703  11.205
32156W        W98939  16.086  24.117   1.803
32157W        W98940  20.909  43.550  14.943
32158W        W98941   3.421  16.464   2.263
32159W        W98942  18.344  13.417   1.329
32160W        W98943  34.832  14.767  11.192
32161W        W98944  33.955  27.076   2.289
32162W        W98945  32.681  31.199   1.667
32163W        W98946  19.185  20.644  10.643
32164W        W98947  41.954  42.023  14.500
32165W        W98948  29.541  19.666  10.412
32166W        W98949   8.782  44.892   4.114
32167W        W98950  16.020  37.598  13.413
32168W        W98951   9.616  23.206  14.038
32169W        W98952  33.901  10.861  10.614
32170W        W98953  22.136  18.223  10.737
32171W        W98954   9.225   4.331  11.173
32172W        W98955   1.427   6.679   3.666
32173W        W98956  42.257  26.242  14.411
32174W        W98957  35.615  41.721  11.402
32175W        W98958  15.722  44.312  13.778
32176W        W98959  44.703   4.343  14.813
32177W        W98960  10.152  20.074  11.090
32178W        W98961   9.414  33.619  11.192
32179W        W98962  37.508  26.390   4.081
32180W        W98963  30.484  25.265  12.598
32181W        W98964   3.936  10.491   2.473
32182W        W98965   5.305   2.786  12.301
32183W        W98966  35.406  33.967  14.312
32184W        W98967  39.138  18.809   3.345
32185W        W98968  42.873  22.711   0.847
32186W        W98969   3.663  30.156  12.975
32187W        W98970  18.012  32.421   2.447
32188W        W98971  27.751   9.120   3.385
32189W        W98972  36.783  17.277   2.670
32190W        W98973  24.134   6.290  11.668
32191W        W98974  11.144  14.677   4.522
32192W        W98975  18.633  24.729  10.744
32193W        W98976   6.451  42.482  14.702
32194W        W98977  43.482  30.125   1.204
32195W        W98978  17.043  33.536   4.039
32196W        W98979  14.787  28.161  13.013
32197W        W98980  35.671  38.798  12.022
32198W        W98981  27.002  42.307   3.371
32199W        W98982  24.224  39.037  10.367
32200W        W98983  34.072  24.849   4.318
32201W        W98984  40.901   8.789  13.042
32202W        W98985  13.731  27.895  11.570
32203W        W98986  23.069   0.964   4.638
32204W        W98987  44.002  31.340  12.514
32205W        W98988  17.188  37.318   2.397
32206W        W98989  40.254  42.825  12.555
32207W        W98990  24.897  35.002  12.513
32208W        W98991  34.663  29.220   4.136
32209W        W98992  22.038  34.872  12.082
32210W        W98993  32.597  22.535  14.570
32211W        W98994   7.103   4.337   3.137
32212W        W98995  40.091  40.192   2.650
32213W        W98996  19.255  17.486  13.145
32214W        W98997   1.034   6.936   4.674
32215W        W98998  10.314  33.469   0.448
32216W        W98999  22.801  11.728  13.970
32217W        W99000  26.124  28.042   1.131
32218W        W99001  39.411  20.641   3.860
32219W        W99002  32.061  11.925   4.958
32220W        W99003  20.130  26.006   2.850
32221W        W99004  39.006  17.053  10.777
32222W        W99005  11.608   6.527  12.944
32223W        W99006  13.727  25.284   1.062
32224W        W99007   6.353   0.737  10.205
32225W        W99008  18.226   1.377   2.117
32226W        W99009  33.528  16.696  14.092
32227W        W99010   5.205  10.122   0.456
32228W        W99011  20.542  26.837  12.044
32229W        W99012  19.140   4.469  14.249
32230W        W99013  11.442  27.031   1.622
32231W        W99014  11.030  25.107   3.857
32232W        W99015   9.765  14.618  10.814
32233W        W99016  27.716  11.404  11.199
32234W        W99017   3.257  25.475  13.961
32235W        W99018  25.476  13.175  12.423
32236W        W99019   0.361  33.589   3.403
32237W        W99020  11.023  41.353  14.419
32238W        W99021  38.570  31.013  11.590
32239W        W99022   7.387  34.895   1.643
32240W        W99023  41.283  12.973   3.229
32241W        W99024  38.274  32.893   2.291
32242W        W99025  34.487  35.381   2.790
32243W        W99026   2.612  19.032   1.843
32244W        W99027  10.569   4.913  11.096
32245W        W99028   5.385  20.892   2.339
32246W        W99029  44.412   3.238  12.504
32247W        W99030  16.298  34.628   3.223
32248W        W99031  43.470   3.545   2.548
32249W        W99032  15.360  24.051  10.880
32250W        W99033  38.885  42.750  11.120
32251W        W99034  21.855  35.173  11.287
32252W        W99035  32.642   0.352  12.089
32253W        W99036  18.937  39.500   4.142
32254W        W99037  31.879  36.088  12.464
32255W        W99038   7.271  33.555   1.388
32256W        W99039  37.040  32.357  10.707
32257W        W99040  22.228  11.257   1.731
32258W        W99041  29.394  25.164   2.128
32259W        W99042  25.943   7.918  13.449
32260W        W99043  21.385   3.129  13.874
32261W        W99044  12.267  27.115  11.489
32262W        W99045  28.067  29.658  14.024
32263W        W99046  25.585  17.790  14.795
32264W        W99047   5.495  34.685   0.640
32265W        W99048  30.594  20.494   1.011
32266W        W99049   0.022  11.172  13.581
32267W        W99050  40.006  43.118  12.904
32268W        W99051   1.570  40.890  13.312
32269W        W99052  43.060  43.936   0.754
32270W        W99053  20.279  31.928   1.216
32271W        W99054  14.174   9.785   1.101
32272W        W99055   9.205  21.009   0.360
32273W        W99056  41.406  18.083   4.274
32274W        W99057  19.513  16.301   4.436
32275W        W99058  15.036   4.234  11.412
32276W        W99059  15.521  44.631  13.442
32277W        W99060  16.678   6.915  10.631
32278W        W99061  38.402  30.694  14.850
32279W        W99062  23.185  19.054   2.280
32280W        W99063  26.369  29.007   0.689
32281W        W99064  41.561  26.432   2.171
32282W        W99065  24.546  40.882  12.439
32283W        W99066  37.350  37.077  12.399
32284W        W99067  13.918  28.250  13.830
32285W        W99068  27.610   7.552   0.428
32286W        W99069  19.122  28.602   4.877
32287W        W99070  31.566  18.147  12.810
32288W        W99071  36.169  23.147  13.545
32289W        W99072  23.570  38.034  13.409
32290W        W99073   0.237  13.228   1.340
32291W        W99074  30.648  16.331  11.143
32292W        W99075  15.281   2.029  11.647
32293W        W99076   6.367  24.380  13.977
32294W        W99077  32.478  23.260   0.740
32295W        W99078   1.927  29.432  12.917
32296W        W99079   6.645  30.550  11.003
32297W        W99080   9.682   5.741  10.916
32298W        W99081   6.117  23.828   0.077
32299W        W99082  23.237   5.844   4.735
32300W        W99083  30.707  33.021  12.797
32301W        W99084  12.725  42.212  13.474
32302W        W99085  25.002  13.891  12.578
32303W        W99086   3.517  43.363   0.731
32304W        W99087   5.901   6.172   2.678
32305W        W99088   8.853  30.833   2.890
32306W        W99089  43.080  42.832  14.740
32307W        W99090  34.392  11.746  10.517
32308W        W99091  18.197   8.225   0.406
32309W        W99092  20.484   8.299   2.989
32310W        W99093  16.767  26.190   2.426
32311W        W99094  20.357   1.116   2.644
32312W        W99095  13.886   0.031   3.634
32313W        W99096  37.433  19.229   0.471
32314W        W99097  37.618   3.997  11.082
32315W        W99098  24.608  33.537  12.690
32316W        W99099  33.359  14.758   2.935
32317W        W99100  27.086  25.893   4.078
32318W        W99101  42.974  20.752  11.659
32319W        W99102  36.028   4.265  12.312
32320W        W99103  34.010  21.445  13.351
32321W        W99104   1.431  25.203   0.927
32322W        W99105  22.236   8.831   4.119
32323W        W99106   6.144  43.743   4.149
32324W        W99107  19.967  43.522  10.851
32325W        W99108  41.106  25.675   3.834
32326W        W99109  39.778  15.966  12.556
32327W        W99110  10.450  15.321   4.269
32328W        W99111   4.257  18.452  13.061
32329W        W99112   5.736  39.520  14.353
32330W        W99113  22.465  16.188   4.113
32331W        W99114  43.950  10.894  13.994
32332W        W99115  12.361  23.042   3.123
32333W        W99116  25.485   4.780  13.690
32334W        W99117  29.041  34.624  10.718
32335W        W99118  25.441  35.860   3.799
32336W        W99119  10.446  43.104   0.265
32337W        W99120   2.049  34.269   3.682
32338W        W99121  24.370  29.718  14.374
32339W        W99122  33.509   1.726  11.661
32340W        W99123   5.949  32.179  11.064
32341W        W99124  38.923   9.300   4.740
32342W        W99125  29.335  20.211   2.317
32343W        W99126  13.142  17.609  13.826
32344W        W99127  11.885  17.601  14.476
32345W        W99128  13.287  23.137   1.689
32346W        W99129   6.767  18.419  10.667
32347W        W99130  35.831  22.714  14.392
32348W        W99131  42.584  39.904  11.548
32349W        W99132  42.509  36.773  14.477
32350W        W99133  21.778   6.312   4.528
32351W        W99134  34.015  10.277  10.239
32352W        W99135  32.575   5.667  11.787
32353W        W99136  22.939  16.754   0.380
32354W        W99137  37.986  39.341   2.795
32355W        W99138  16.855   1.889   1.008
32356W        W99139  13.815   4.345   1.232
32357W        W99140   8.718  42.403  12.036
32358W        W99141   8.961  13.027   3.039
32359W        W99142   1.866   9.589   3.335
32360W        W99143  29.977  14.230   5.028
32361W        W99144  37.039   1.513   1.369
32362W        W99145   9.498  42.659   1.303
32363W        W99146  44.145  22.008  11.017
32364W        W99147  34.907   6.764   3.138
32365W        W99148  23.744  39.066  14.280
32366W        W99149   4.530  16.375   3.420
32367W        W99150  21.090  40.052  12.118
32368W        W99151  31.093  33.525   3.674
32369W        W99152   3.656  37.503   1.716
32370W        W99153   5.029  20.549   1.894
32371W        W99154  12.091  44.925   2.619
32372W        W99155  38.990  39.625  10.601
32373W        W99156  38.511  41.541  10.751
32374W        W99157  19.033  12.791   2.111
32375W        W99158   6.156  27.013  11.428
32376W        W99159  14.324  36.149  12.196
32377W        W99160  37.603  21.530  13.455
32378W        W99161  28.063   9.202   0.180
32379W        W99162  10.918  39.430  12.638
32380W        W99163  16.133   3.518   0.766
32381W        W99164  31.919  23.758  14.779
32382W        W99165  25.213  33.605   1.698
32383W        W99166  36.497  44.407   0.329
32384W        W99167  16.841  37.673  13.208
32385W        W99168  26.172  33.640  11.523
32386W        W99169  32.016  42.069   1.813
32387W        W99170  42.363  19.583  10.562
32388W        W99171  18.317  10.349   0.009
32389W        W99172  24.078  14.178   1.389
32390W        W99173  30.403  30.014   4.178
32391W        W99174  16.567  17.990   2.363
32392W        W99175  16.708  18.488  11.648
32393W        W99176  35.047  35.808   4.031
32394W        W99177  21.114  34.412  12.055
32395W        W99178  34.427  15.289  11.968
32396W        W99179  15.899  30.908  13.139
32397W        W99180  21.751  34.964   1.798
32398W        W99181  13.627  20.985   0.364
32399W        W99182  33.036  16.188   0.812
32400W        W99183  36.474  25.601  13.023
32401W        W99184  13.887  16.080   0.931
32402W        W99185  34.331  38.004  13.526
32403W        W99186  39.925  29.878  12.926
32404W        W99187  33.687  26.641   3.165
32405W        W99188  10.200  31.572  13.366
32406W        W99189  22.192  23.912   3.716
32407W        W99190   1.674  15.721   1.757
32408W        W99191  33.671  27.513  11.972
32409W        W99192  30.908  18.297  14.803
32410W        W99193  33.698  11.893  13.402
32411W        W99194  13.191  40.455  12.524
32412W        W99195  42.077  33.088   1.294
32413W        W99196  19.544  28.960   2.654
32414W        W99197  16.172  35.325  11.576
32415W        W99198  25.814  10.188   4.148
32416W        W99199  43.834  44.754   0.479
32417W        W99200  16.140  10.390  10.117
32418W        W99201  30.246  27.466   1.512
32419W        W99202  41.471   4.356  13.275
32420W        W99203   7.487  20.632  11.131
32421W        W99204   8.755  13.879   3.686
32422W        W99205   3.200  16.062  12.059
32423W        W99206  42.988  39.253  14.270
32424W        W99207   2.650  25.155  13.611
32425W        W99208  13.177  37.524  13.625
32426W        W99209  27.096  12.853   4.910
32427W        W99210  42.640  20.949   1.781
32428W        W99211   3.053   0.079   0.386
32429W        W99212  32.936   5.691   0.770
32430W        W99213  14.379   0.845  10.741
32431W        W99214   5.450   6.420   2.709
32432W        W99215  40.430  30.453   1.945
32433W        W99216   8.758  23.018  13.764
32434W        W99217  10.267  12.918   5.147
32435W        W99218  36.607  21.210  12.145
32436W        W99219  42.808   6.252   0.198
32437W        W99220  25.380  14.216   1.745
32438W        W99221  30.992  40.857  14.857
32439W        W99222  18.725  31.389  11.425
32440W        W99223  36.583  39.514  13.106
32441W        W99224   4.695  39.308  14.494
32442W        W99225   9.854  38.424  14.721
32443W        W99226  37.690  17.758   0.305
32444W        W99227  20.214  21.485   1.644
32445W        W99228  29.420   6.946   2.807
32446W        W99229  44.607  17.608   1.836
32447W        W99230  12.824  32.882  11.970
32448W        W99231  15.843  15.907  12.388
32449W        W99232  25.141  18.579  11.447
32450W        W99233  25.929  31.978   1.375
32451W        W99234  44.713  40.271  14.506
32452W        W99235  33.150   1.420   1.819
32453W        W99236   1.782  30.475   4.556
32454W        W99237  16.551  17.200  12.953
32455W        W99238   1.922  38.237  13.876
32456W        W99239  33.840  36.457  13.744
32457W        W99240  14.686  24.733   5.004
32458W        W99241  16.983  37.938  12.360
32459W        W99242  21.172  43.387   2.372
32460W        W99243  27.405  16.562  13.461
32461W        W99244  17.518  37.476  13.587
32462W        W99245  16.252   9.919   1.437
32463W        W99246   8.739  26.144   1.714
32464W        W99247  36.562  20.659   3.660
32465W        W99248  13.654  13.178   4.435
32466W        W99249   0.396  39.887   1.653
32467W        W99250  33.991  25.100   1.192
32468W        W99251  42.689  42.241  12.825
32469W        W99252  34.024  26.957  13.819
32470W        W99253  39.311   6.371   3.753
32471W        W99254  33.119  34.577  14.526
32472W        W99255  16.857   5.230  14.442
32473W        W99256  29.351   8.307  11.219
32474W        W99257  41.063   7.420   0.314
32475W        W99258  24.052   8.261   4.202
32476W        W99259  34.514  30.632  10.613
32477W        W99260  10.869  17.090   3.098
32478W        W99261  33.490  29.211  12.589
32479W        W99262   1.910  14.706   0.258
32480W        W99263  14.722  15.051   3.596
32481W        W99264  20.601  30.475   1.303
32482W        W99265  29.997   3.708   2.221
32483W        W99266   4.238  13.144  12.532
32484W        W99267  43.876  34.980  14.109
32485W        W99268  28.452  15.512   0.858
32486W        W99269  42.278  41.435   4.831
32487W        W99270  35.341  44.176   1.159
32488W        W99271  24.949   3.328   0.833
32489W        W99272   0.716  29.110   4.489
32490W        W99273   8.315  39.568   0.349
32491W        W99274   7.060  41.005  14.556
32492W        W99275  13.237   7.434  10.168
32493W        W99276  38.805  16.684  13.329
32494W        W99277  40.925  23.073   4.097
32495W        W99278   4.217  28.538  11.677
32496W        W99279  13.128  28.982   3.105
32497W        W99280  35.966  15.402   1.661
32498W        W99281  13.646  39.821  13.815
32499W        W99282  27.236  41.860   2.731
32500W        W99283  19.560  16.382   0.355
32501W        W99284  25.492  15.114   3.378
32502W        W99285  39.818  18.626   3.939
32503W        W99286  42.197  22.399  10.901
32504W        W99287   8.845  37.496  14.028
32505W        W99288  39.252  38.737  11.100
32506W        W99289  26.238  10.238   1.395
32507W        W99290  39.371  25.402   3.671
32508W        W99291   6.277   4.959  11.953
32509W        W99292  16.374   1.963   0.806
32510W        W99293  43.744  25.030  14.003
32511W        W99294  31.127  28.550   1.889
32512W        W99295   9.918   0.367  10.954
32513W        W99296  34.874   6.286   4.403
32514W        W99297  38.214  30.462  13.743
32515W        W99298  39.545  20.803  10.598
32516W        W99299  35.671  23.685   2.937
32517W        W99300  15.651   5.392  13.710
32518W        W99301  40.474  20.523   1.943
32519W        W99302   7.244  21.232   0.758
32520W        W99303   5.157  19.581  12.302
32521W        W99304  16.831  18.140   3.727
32522W        W99305  44.196  28.671   0.835
32523W        W99306  14.744   9.660  10.955
32524W        W99307  29.880   7.736  12.595
32525W        W99308  12.822  32.341   3.267
32526W        W99309  43.900  41.256   3.060
32527W        W99310  42.190   6.613   3.929
32528W        W99311  24.094  34.340  14.009
32529W        W99312   4.676  39.633   3.323
32530W        W99313  11.930  32.290  10.301
32531W        W99314  30.933  40.869  10.568
32532W        W99315  11.803  32.527  11.514
32533W        W99316  31.151  37.976   3.267
32534W        W99317  40.105  42.092  13.935
32535W        W99318  21.413  30.109  10.742
32536W        W99319  10.334  18.212  10.565
32537W        W99320  18.675  23.591   2.473
32538W        W99321   2.027  19.682   3.270
32539W        W99322   6.397  28.131   1.424
32540W        W99323  44.888  13.703   2.071
32541W        W99324   0.675  31.957   2.107
32542W        W99325  28.911  15.872  12.435
32543W        W99326   8.825  35.378  12.114
32544W        W99327  32.989  39.478  11.693
32545W        W99328   6.829  27.639   0.841
32546W        W99329   2.965  13.637   2.469
32547W        W99330   9.488  41.355   2.298
32548W        W99331  43.764  17.629   2.856
32549W        W99332  42.700  32.016   2.332
32550W        W99333  44.164  15.801  12.389
32551W        W99334  22.509   0.455   4.612
32552W        W99335  33.121  28.075  10.553
32553W        W99336  36.439  35.036   4.951
32554W        W99337  28.001  18.328   4.514
32555W        W99338  14.154  41.821  11.561
32556W        W99339  44.512  13.306  10.718
32557W        W99340  25.087  10.651  12.562
32558W        W99341   3.515  10.233   4.572
32559W        W99342   9.846   0.540   1.438
32560W        W99343   8.775   3.359   2.448
32561W        W99344  10.344  10.254  13.072
32562W        W99345  32.052  38.825  12.480
32563W        W99346  18.387  26.172   1.978
32564W        W99347  38.340  22.821   0.243
32565W        W99348  43.889  19.652  14.742
32566W        W99349  23.004   4.423   0.302
32567W        W99350  33.321  28.552   3.108
32568W        W99351  39.342  16.634  10.728
32569W        W99352   7.300  24.196   2.896
32570W        W99353  40.318  25.226  10.708
32571W        W99354  14.717  23.640  10.821
32572W        W99355  10.644  43.210   0.964
32573W        W99356  29.016   8.371   3.755
32574W        W99357  32.490  43.941  14.838
32575W        W99358  18.034  40.300   0.986
32576W        W99359  33.721   3.028   4.819
32577W        W99360  40.518  33.894  11.237
32578W        W99361  30.189  14.796  10.496
32579W        W99362  20.484  38.498   1.782
32580W        W99363  14.588  39.146   3.631
32581W        W99364  39.929  27.649   4.126
32582W        W99365  43.263  43.080   0.150
32583W        W99366  13.301  44.510   4.536
32584W        W99367  19.331  12.269  10.742
32585W        W99368  39.508  20.692   4.864
32586W        W99369  36.139  21.718   9.856
32587W        W99370  18.559  41.469  10.254
32588W        W99371  18.771   0.918   3.651
32589W        W99372   3.739  37.027   3.683
32590W        W99373  11.284  33.419   3.402
32591W        W99374  41.512  42.554   4.076
32592W        W99375  30.496  31.065  12.335
32593W        W99376  32.620   4.286   3.671
32594W        W99377  28.744   0.521   2.727
32595W        W99378  40.764   7.589  11.512
32596W        W99379  37.101  34.038  12.891
32597W        W99380  44.301  11.630  11.243
32598W        W99381   2.096  19.353  12.840
32599W        W99382  22.591  35.772  14.005
32600W        W99383  27.502  11.656   4.122
32601W        W99384   3.008  42.473  11.620
32602W        W99385  12.593  36.403  12.306
32603W        W99386  26.742  18.789  11.136
32604W        W99387   1.607  29.497   3.647
32605W        W99388  35.586  41.811  13.337
32606W        W99389  19.501  34.780  14.865
32607W        W99390  28.747   6.197   2.879
32608W        W99391  33.461  44.923  11.159
32609W        W99392  43.013  43.293   3.873
32610W        W99393   3.211  38.333   1.209
32611W        W99394  11.111  34.567  10.814
32612W        W99395  36.475  16.692   4.712
32613W        W99396  36.848  39.055   4.693
32614W        W99397  22.626  40.075  11.883
32615W        W99398   9.828  38.738   4.107
32616W        W99399  19.666  18.380   2.959
32617W        W99400  44.341  24.610  14.785
32618W        W99401  24.761  11.867   1.706
32619W        W99402  34.987  13.108   0.190
32620W        W99403  30.562  33.561   4.409
32621W        W99404  42.136  21.475  12.822
32622W        W99405   6.376  39.834  10.673
32623W        W99406  22.974  13.738   1.842
32624W        W99407  33.401  32.630   0.054
32625W        W99408  33.282   8.294  12.388
32626W        W99409  40.439   9.626   2.267
32627W        W99410  37.319  43.827  11.193
32628W        W99411  17.375   6.773  12.009
32629W        W99412  34.621  42.140  13.442
32630W        W99413  22.222  38.796  11.595
32631W        W99414  44.026   0.478  14.385
32632W        W99415   9.145   2.311   4.716
32633W        W99416  36.801   1.508  11.698
32634W        W99417   9.894  10.138  13.308
32635W        W99418   6.687   2.471   2.316
32636W        W99419  34.995  37.219  14.895
32637W        W99420  11.338  39.172   9.890
32638W        W99421  21.242  10.767   3.320
32639W        W99422   3.409  41.540  13.852
32640W        W99423  28.211   6.449  13.383
32641W        W99424  42.056  33.098  10.511
32642W        W99425  25.616  26.780  13.446
32643W        W99426  12.261  21.720   2.241
32644W        W99427  15.323  32.823  14.215
32645W        W99428  39.655  10.367   2.978
32646W        W99429  33.717  29.450   2.075
32647W        W99430  12.411  20.510   1.641
32648W        W99431  20.494  16.753  14.373
32649W        W99432  41.891  21.176   1.367
32650W        W99433  13.299  25.304  13.501
32651W        W99434  34.852   9.279   2.382
32652W        W99435  16.790  41.587   2.315
32653W        W99436  30.389  19.846   0.314
32654W        W99437  22.772  23.057   2.902
32655W        W99438  19.109   3.234   3.300
32656W        W99439  37.886  44.354   2.947
32657W        W99440   2.124   9.419  12.429
32658W        W99441   9.172   7.150  10.697
32659W        W99442   9.484   4.921  14.440
32660W        W99443  42.356  30.733   1.232
32661W        W99444   6.348   4.713  13.117
32662W        W99445  40.416  10.135   2.355
32663W        W99446  28.456  17.798   3.887
32664W        W99447  22.192  20.986   3.878
32665W        W99448  11.333  44.715  13.061
32666W        W99449   5.906  24.640  13.475
32667W        W99450  36.281   3.859  12.506
32668W        W99451  11.486  12.811   4.933
32669W        W99452   6.299  35.041   0.777
32670W        W99453   5.297  25.238  12.133
32671W        W99454  29.423  43.824   4.050
32672W        W99455  36.481  28.846  13.462
32673W        W99456  33.171  11.747   3.293
32674W        W99457   4.319  34.435   2.955
32675W        W99458  39.507  15.142  14.963
32676W        W99459   5.656  10.200  10.990
32677W        W99460  23.243   7.639  12.023
32678W        W99461  39.496  13.091  13.527
32679W        W99462   7.620  28.039   0.955
32680W        W99463  22.621   1.644  10.334
32681W        W99464  11.250  32.112  12.092
32682W        W99465   1.852  20.140   5.076
32683W        W99466  20.597  20.568  11.960
32684W        W99467  21.782  43.381   4.123
32685W        W99468  22.583  30.730   2.687
32686W        W99469  31.420  39.436   4.866
32687W        W99470   5.157  11.167  12.436
32688W        W99471  41.489   4.892  11.949
32689W        W99472  40.903  34.178   4.584
32690W        W99473  14.724  22.270   0.923
32691W        W99474  28.613  26.535   1.428
32692W        W99475  23.778  15.797   0.346
32693W        W99476  11.414   7.675   2.227
32694W        W99477  11.702   9.648   2.155
32695W        W99478  24.785  34.827  14.592
32696W        W99479  41.886  39.961   1.217
32697W        W99480   8.572  40.856  11.163
32698W        W99481  12.653  14.412   4.183
32699W        W99482   8.994  18.256  12.124
32700W        W99483  27.109  26.157   0.160
32701W        W99484  25.092  15.407   2.910
32702W        W99485  15.537  31.060  10.998
32703W        W99486  32.084  12.725  14.337
32704W        W99487  42.597  12.942   3.096
32705W        W99488  20.131  24.572  11.666
32706W        W99489  16.322  37.740   1.475
32707W        W99490  38.984  11.586  12.801
32708W        W99491  28.213  29.078   1.554
32709W        W99492   4.298  42.479   1.894
32710W        W99493  26.468  10.108  11.073
32711W        W99494  24.638  11.426  14.240
32712W        W99495  38.546  18.247  10.126
32713W        W99496  44.888  38.436   4.075
32714W        W99497  26.985  43.558   0.299
32715W        W99498  39.944  36.408  12.523
32716W        W99499  26.940   9.305  10.576
32717W        W99500  31.534  23.139   3.707
32718W        W99501   5.376  34.534   3.635
32719W        W99502   2.460   2.344  12.524
32720W        W99503  12.308  36.862   1.690
32721W        W99504  22.227  29.548   4.782
32722W        W99505  25.541  40.854  14.366
32723W        W99506  27.520  10.611  13.874
32724W        W99507  18.761   1.472   0.763
32725W        W99508  13.681  35.949  10.706
32726W        W99509   7.776  24.597  14.335
32727W        W99510  30.129  10.715  10.716
32728W        W99511   1.318  31.631  10.446
32729W        W99512  33.087  17.282  13.115
32730W        W99513  11.593  44.840  11.998
32731W        W99514  32.128  38.978   1.266
32732W        W99515  42.557  44.305  14.367
32733W        W99516  41.026   4.945  11.082
32734W        W99517   9.329   5.320  12.374
32735W        W99518  22.875  23.883   3.362
32736W        W99519  26.563  44.806   2.219
32737W        W99520   9.379   0.871  12.179
32738W        W99521  16.592   2.448  11.568
32739W        W99522  33.056  14.922   4.150
32740W        W99523   9.354   7.251   2.355
32741W        W99524  34.271  38.042   1.801
32742W        W99525  24.075  31.946   1.163
32743W        W99526  25.627  22.136  10.772
32744W        W99527  41.336  20.322  11.258
32745W        W99528  21.213  10.185   1.198
32746W        W99529  27.009   4.157   0.364
32747W        W99530   6.088  34.155   3.244
32748W        W99531  30.822  17.119  10.825
32749W        W99532  34.484   3.372  14.816
32750W        W99533  43.386  39.047   1.218
32751W        W99534  13.686  36.809  12.019
32752W        W99535  41.924  33.362   0.827
32753W        W99536   1.298  29.400  11.252
32754W        W99537  26.230  37.282  12.103
32755W        W99538  10.570  27.140   4.612
32756W        W99539   7.786  35.240  12.899
32757W        W99540   1.886  23.592  11.596
32758W        W99541  27.280  12.621  11.225
32759W        W99542  21.128  18.627   4.275
32760W        W99543  28.643  38.893   1.513
32761W        W99544  43.791  19.573  11.211
32762W        W99545   5.767  17.145   3.352
32763W        W99546  13.091  39.533   3.462
32764W        W99547  42.547  17.704  11.575
32765W        W99548  15.315  12.174  11.649
32766W        W99549  17.734  36.419   4.016
32767W        W99550   5.890   0.416   4.689
32768W        W99551  23.998   2.948   0.218
32769W        W99552  27.959   4.746   3.353
32770W        W99553  30.842  16.837   4.916
32771W        W99554  19.567   2.006  12.385
32772W        W99555   1.081   8.939  10.280
32773W        W99556  17.532  40.064   4.132
32774W        W99557  27.923  42.553   0.235
32775W        W99558  30.811  38.551  14.529
32776W        W99559   6.896  22.890   3.012
32777W        W99560  39.929  34.004   1.009
32778W        W99561  32.671  42.939   2.834
32779W        W99562  13.303  36.291   2.925
32780W        W99563  12.560  31.990   2.951
32781W        W99564  19.585  24.153   2.892
32782W        W99565  34.413  21.700   2.861
32783W        W99566  37.883  22.420   3.646
32784W        W99567  42.369   3.012  10.628
32785W        W99568  37.836   7.178  10.657
32786W        W99569  43.617  41.981  14.873
32787W        W99570   3.356  38.219   2.313
32788W        W99571  27.536  23.924  11.161
32789W        W99572  20.431  40.488  11.636
32790W        W99573   0.739  38.055   3.219
32791W        W99574  41.067  39.448   2.283
32792W        W99575  21.516  36.062   3.238
32793W        W99576   0.511  17.723  14.907
32794W        W99577  26.715  42.310   0.648
32795W        W99578  16.611  31.438   3.700
32796W        W99579  10.037  19.101  11.091
32797W        W99580  44.984   5.913   0.942
32798W        W99581  21.480   2.938  13.399
32799W        W99582  27.560  37.708  11.129
32800W        W99583   3.240  33.087   1.658
32801W        W99584  28.638  13.846  12.084
32802W        W99585  40.997  28.126  14.802
32803W        W99586  42.782  26.513   3.097
32804W        W99587  44.960  40.444  12.631
32805W        W99588  15.516   5.150   0.403
32806W        W99589  36.897  16.695   1.358
32807W        W99590  33.398  11.579   5.194
32808W        W99591  24.430  27.089  12.778
32809W        W99592  16.478  29.083   4.015
32810W        W99593   1.009  15.004   0.052
32811W        W99594  23.416  42.432   1.207
32812W        W99595  41.128  40.545   1.056
32813W        W99596   6.982  42.335   0.779
32814W        W99597  13.598  18.509  11.423
32815W        W99598  19.172  33.670  13.191
32816W        W99599  33.628   6.747   3.529
32817W        W99600  24.718  34.562   2.632
32818W        W99601  18.699   2.846   1.175
32819W        W99602  44.807  31.101  11.323
32820W        W99603  23.610  16.238   3.226
32821W        W99604  41.946  18.534   0.371
32822W        W99605  24.089  34.637   3.660
32823W        W99606  28.506   7.785   3.378
32824W        W99607  32.595  27.699   1.366
32825W        W99608  19.597   8.494  11.546
32826W        W99609  17.544   1.426  14.873
32827W        W99610   8.261  18.482   0.075
32828W        W99611  25.003  25.665  11.895
32829W        W99612  15.368  30.639   3.758
32830W        W99613  38.358  42.585   4.229
32831W        W99614  37.726  31.668  14.018
32832W        W99615  18.465  27.974   3.585
32833W        W99616  24.525  17.025   3.169
32834W        W99617  11.301  44.325  11.847
32835W        W99618   0.797  13.196   4.207
32836W        W99619   5.948  39.377   0.774
32837W        W99620  11.146  22.204   1.831
32838W        W99621  20.245  22.929  14.426
32839W        W99622   7.080   2.115   4.864
32840W        W99623  42.128  39.918  13.349
32841W        W99624  24.597   8.264  11.377
32842W        W99625  37.997  23.625  10.701
32843W        W99626  33.096  16.113  11.481
32844W        W99627  39.276  34.727   2.708
32845W        W99628   9.827   9.661   1.265
32846W        W99629  44.103  11.030  13.420
32847W        W99630  28.564  17.090   4.867
32848W        W99631  22.199  40.128   1.787
32849W        W99632  33.456  11.152   4.279
32850W        W99633  11.332  13.913  13.346
32851W        W99634  34.388   6.343   1.795
32852W        W99635  43.791  18.805  14.361
32853W        W99636  36.971  32.923   2.517
32854W        W99637   8.212  22.271   4.185
32855W        W99638  19.717  42.299  13.390
32856W        W99639   7.380  38.286  11.134
32857W        W99640   0.224  23.085   1.526
32858W        W99641  17.569   9.639   2.628
32859W        W99642  41.559  26.586  13.844
32860W        W99643   4.962  31.726   3.207
32861W        W99644  38.961  20.675   0.252
32862W        W99645  16.436  21.773  14.569
32863W        W99646   3.796  14.806   0.288
32864W        W99647  38.583  33.891  14.811
32865W        W99648  36.552   0.406  13.734
32866W        W99649  18.327  13.507   4.650
32867W        W99650  15.707  17.296   3.569
32868W        W99651  39.254  34.038  10.969
32869W        W99652  41.379  26.423  13.386
32870W        W99653  12.562  12.815  11.462
32871W        W99654  33.649  22.163  13.015
32872W        W99655   4.194   5.151   3.940
32873W        W99656  31.894  34.599  12.585
32874W        W99657  43.592  12.428   1.934
32875W        W99658  28.190  28.234   0.802
32876W        W99659  10.135  34.818   1.811
32877W        W99660  14.794  26.529  11.305
32878W        W99661   5.275  35.813  10.650
32879W        W99662  17.077   3.810   0.739
32880W        W99663   4.649  15.829   4.886
32881W        W99664  30.906  43.418  12.909
32882W        W99665  13.159  11.865   3.096
32883W        W99666   8.476  20.478  12.498
32884W        W99667   5.092   5.854   1.394
32885W        W99668  43.508  42.890  11.718
32886W        W99669  12.290  17.915  14.482
32887W        W99670  33.588  17.430  14.739
32888W        W99671  28.123   8.834  14.334
32889W        W99672   7.291  43.996  13.800
32890W        W99673  14.800  32.867  13.905
32891W        W99674  19.598  42.915   3.532
32892W        W99675   6.744  27.689  12.808
32893W        W99676  10.326  32.244  14.950
32894W        W99677  19.171   1.228   1.865
32895W        W99678   5.456  30.187   0.670
32896W        W99679  36.929  27.356   0.382
32897W        W99680  29.530  16.163   3.853
32898W        W99681  41.149  38.010  12.524
32899W        W99682  28.633  42.308  11.919
32900W        W99683  35.551   1.925  11.679
32901W        W99684  25.669  20.427  13.407
32902W        W99685  30.464  28.515  13.599
32903W        W99686  31.088  33.073  12.087
32904W        W99687  22.720  16.608  13.506
32905W        W99688   2.278  27.981   3.742
32906W        W99689  34.918  19.871   0.386
32907W        W99690  25.422  43.085  13.868
32908W        W99691  10.871   0.303  12.876
32909W        W99692  13.314  33.308   4.935
32910W        W99693  37.922  42.659   3.091
32911W        W99694  44.560   5.549   1.334
32912W        W99695   9.316  13.406   3.115
32913W        W99696  18.664  14.714  14.333
32914W        W99697  38.950  13.167   4.602
32915W        W99698  37.932  14.249   1.417
32916W        W99699  28.861   4.326  13.913
32917W        W99700  21.721  34.363  12.910
32918W        W99701   6.616  30.114   4.698
32919W        W99702   1.890  12.586   1.966
32920W        W99703  39.248  33.297   2.327
32921W        W99704   2.614  11.012   2.402
32922W        W99705   1.192  23.168   0.189
32923W        W99706   8.267  28.845   3.192
32924W        W99707  20.026  39.010  10.544
32925W        W99708  34.880  40.545  12.553
32926W        W99709  39.851  14.727  12.017
32927W        W99710  24.917   2.243  13.376
32928W        W99711  33.370  18.226  12.061
32929W        W99712  34.380   3.717  11.892
32930W        W99713  29.196  35.169   3.239
32931W        W99714  38.437   7.997   1.703
32932W        W99715  17.620   6.609  12.447
32933W        W99716  35.596  22.523   3.542
32934W        W99717  20.948  21.543  11.025
32935W        W99718   2.682  19.868  13.350
32936W        W99719  33.364  43.466  12.873
32937W        W99720   9.295  13.063  13.060
32938W        W99721  27.894  28.360   2.005
32939W        W99722  32.665  43.035  11.001
32940W        W99723  42.931  11.328  10.537
32941W        W99724  36.512   2.423  12.951
32942W        W99725   5.027  31.998  12.006
32943W        W99726  14.088   7.707   1.750
32944W        W99727  24.487  31.285  14.063
32945W        W99728   3.895  40.279  11.557
32946W        W99729  25.098  24.066   3.741
32947W        W99730  18.674   0.702  14.358
32948W        W99731   4.857  38.632  12.049
32949W        W99732  10.961  17.546   4.074
32950W        W99733  16.293  12.362  12.933
32951W        W99734  37.781  19.563   4.674
32952W        W99735  21.416  21.582   0.437
32953W        W99736  27.364  24.917   0.410
32954W        W99737   0.020  25.687   3.587
32955W        W99738   1.739  28.178   2.859
32956W        W99739   5.212  35.447   3.333
32957W        W99740  16.708   4.492   1.891
32958W        W99741  44.905  37.849   2.774
32959W        W99742  25.354  40.042  12.144
32960W        W99743  29.686   2.373   0.002
32961W        W99744   1.319  25.015   2.253
32962W        W99745  30.658  20.696   4.514
32963W        W99746  23.705  10.797  14.743
32964W        W99747   8.447   0.918   4.810
32965W        W99748  11.772  31.910  12.148
32966W        W99749  14.884  17.897  13.952
32967W        W99750  30.804  24.170  13.209
32968W        W99751  21.920  30.116  10.660
32969W        W99752  16.894  35.911  10.815
32970W        W99753  26.946  32.333  14.977
32971W        W99754   1.750  37.501   1.982
32972W        W99755  28.211  31.088   0.764
32973W        W99756  11.402  41.201   0.235
32974W        W99757   4.895  15.734  11.187
32975W        W99758  37.495  14.295  11.882
32976W        W99759  23.088  23.881  12.134
32977W        W99760  30.617  35.421   3.915
32978W        W99761  40.104  12.872   3.766
32979W        W99762  22.711   5.006  13.521
32980W        W99763   2.539   7.767   2.959
32981W        W99764   6.584  13.204  11.736
32982W        W99765  18.339  34.035   2.752
32983W        W99766   1.382  22.356  12.454
32984W        W99767  26.080  14.155  11.949
32985W        W99768  23.046  28.591  12.475
32986W        W99769  20.565  14.264   4.094
32987W        W99770  39.892   8.876  13.591
32988W        W99771  33.607  43.886  14.786
32989W        W99772  21.349  27.082  13.476
32990W        W99773  42.690  42.020   4.068
32991W        W99774  36.001  40.867   1.238
32992W        W99775  40.280  26.663   0.327
32993W        W99776  31.306  33.694  12.920
32994W        W99777  27.457  17.102   2.754
32995W        W99778  11.172  44.984  14.464
32996W        W99779  22.767  37.543   0.781
32997W        W99780  40.309  28.987  11.143
32998W        W99781  25.037  18.470  14.007
32999W        W99782   7.974  43.856   4.598
33000W        W99783  31.931   4.817  10.691
33001W        W99784  34.586   9.718   1.719
33002W        W99785  38.821  34.411   1.329
33003W        W99786  44.890   3.974   2.127
33004W        W99787  42.319   4.049   1.312
33005W        W99788   7.863  42.889   2.652
33006W        W99789   1.860  18.296   4.932
33007W        W99790  15.895  13.132   3.095
33008W        W99791   9.641   8.341   1.464
33009W        W99792  16.684  34.298  10.137
33010W        W99793   4.276  25.226  10.435
33011W        W99794  44.981  12.664  13.404
33012W        W99795   2.760  20.131   2.111
33013W        W99796  38.431  42.768  13.529
33014W        W99797   7.178  26.640   3.621
33015W        W99798  30.885  19.144   0.086
33016W        W99799  15.838  40.164   0.540
33017W        W99800   8.676  42.332  10.631
33018W        W99801  27.043   0.757  11.704
33019W        W99802  43.030  23.080  13.408
33020W        W99803   4.295  15.389  13.331
33021W        W99804  33.415  25.235   2.490
33022W        W99805   8.515   0.503  13.044
33023W        W99806   7.735  17.406   2.716
33024W        W99807  26.335  16.477  14.767
33025W        W99808  23.398  14.345   0.130
33026W        W99809  42.831  11.411  12.868
33027W        W99810   5.645  21.436  11.565
33028W        W99811  32.271  35.441  12.814
33029W        W99812   8.313  27.226  11.930
33030W        W99813  18.544   8.165   2.496
33031W        W99814  21.243  26.561  12.405
33032W        W99815   9.787  34.116  11.085
33033W        W99816  35.926   0.470   0.292
33034W        W99817   5.986  33.935  12.856
33035W        W99818  44.252  19.349  11.110
33036W        W99819   3.419  31.452  12.500
33037W        W99820  34.092  31.830  14.113
33038W        W99821  44.504   9.256  13.944
33039W        W99822  43.219  11.608  12.503
33040W        W99823   4.897  24.953  11.996
33041W        W99824  44.228   8.155   0.725
33042W        W99825  44.143  26.643   1.954
33043W        W99826  18.208  23.546   3.548
33044W        W99827   9.209  11.247  13.523
33045W        W99828  16.231  12.792  11.124
33046W        W99829  11.213  14.352   4.107
33047W        W99830  26.695   3.935  11.578
33048W        W99831  39.510  24.088   0.836
33049W        W99832  14.734  32.681   0.281
33050W        W99833   0.896   2.751   0.750
33051W        W99834   9.272  15.807   4.545
33052W        W99835   3.509   0.701  10.742
33053W        W99836  37.564  25.695  13.671
33054W        W99837  11.357  25.446   4.647
33055W        W99838  42.360  41.120  11.182
33056W        W99839  28.443  16.711   3.642
33057W        W99840  34.858  14.059   4.085
33058W        W99841  39.370  28.106   4.677
33059W        W99842   8.685   7.736  10.109
33060W        W99843  39.395   9.280   3.820
33061W        W99844  28.985  39.075   3.044
33062W        W99845   9.112   0.028  10.914
33063W        W99846  17.265  17.728   2.991
33064W        W99847   8.981  33.292   1.914
33065W        W99848   0.195  20.693  14.842
33066W        W99849  23.110  16.163  11.743
33067W        W99850  13.229  15.714   4.156
33068W        W99851   3.999  20.509   1.890
33069W        W99852  29.599  25.040  12.065
33070W        W99853  43.478  33.006  12.181
33071W        W99854  31.143  20.750   3.792
33072W        W99855  27.104  17.985   1.004
33073W        W99856   8.996  16.886  14.825
33074W        W99857  35.561  19.734   0.277
33075W        W99858  25.895  38.374  13.222
33076W        W99859   8.691  35.606  11.367
33077W        W99860  36.343  21.060   1.266
33078W        W99861  34.561  11.597  13.545
33079W        W99862  43.389  24.953   4.222
33080W        W99863  23.074  22.153  13.414
33081W        W99864  40.238  10.924   0.905
33082W        W99865  25.598  25.011   3.395
33083W        W99866  13.669   5.292  11.190
33084W        W99867   0.819  34.422   0.179
33085W        W99868  18.269  14.617  11.070
33086W        W99869  21.289   4.556  11.057
33087W        W99870   7.248   2.000   3.662
33088W        W99871  38.274  32.369  11.496
33089W        W99872  39.854  32.370  13.799
33090W        W99873  37.980  41.815  11.454
33091W        W99874  10.725   2.608   2.044
33092W        W99875   0.302  27.726   1.177
33093W        W99876  20.120  14.659  13.787
33094W        W99877  10.188  39.746  12.454
33095W        W99878  32.034  20.782   1.268
33096W        W99879  21.476  12.666  12.675
33097W        W99880  40.503   7.286  12.435
33098W        W99881   3.729  35.924  12.743
33099W        W99882  39.007  27.546  12.111
33100W        W99883  13.952  38.718   5.097
33101W        W99884  43.345  18.567   1.226
33102W        W99885  20.468   0.388   0.232
33103W        W99886  11.398  43.944  13.449
33104W        W99887  44.603   2.792   3.193
33105W        W99888   7.041   8.704   1.909
33106W        W99889  28.987  33.629   3.178
33107W        W99890  22.182  25.599  12.640
33108W        W99891   5.648  41.052  12.856
33109W        W99892  29.634  13.674  11.705
33110W        W99893  12.664  43.591  13.488
33111W        W99894  35.957   2.762  11.183
33112W        W99895  29.003  24.138   0.652
33113W        W99896  24.278  30.979   4.655
33114W        W99897  37.191  44.899   5.057
33115W        W99898  15.037  22.640  10.955
33116W        W99899  24.963  16.128   3.770
33117W        W99900   4.216  34.162  13.439
33118W        W99901  18.139  11.791  10.733
33119W        W99902  16.747  12.070   4.232
33120W        W99903  27.371  38.515   2.393
33121W        W99904  16.356  11.259  11.452
33122W        W99905  12.663  33.447   4.588
33123W        W99906  35.735  10.852   3.055
33124W        W99907   8.694  41.455   0.352
33125W        W99908   6.646   9.674  14.470
33126W        W99909   7.103   0.683  14.937
33127W        W99910  24.099  16.851   2.954
33128W        W99911   6.155  32.069   4.931
33129W        W99912  27.528   8.324   4.782
33130W        W99913   4.511   2.787   0.867
33131W        W99914  44.340   5.256   4.072
33132W        W99915  24.297  40.522  11.271
33133W        W99916   1.761   0.831   4.615
33134W        W99917  11.882  42.738  14.858
33135W        W99918  30.955  39.969   2.339
33136W        W99919   6.151  36.474   1.702
33137W        W99920  36.639  18.540  12.804
33138W        W99921  35.280  43.887   0.354
33139W        W99922  43.579  26.569   1.897
33140W        W99923  40.538  44.989   4.547
33141W        W99924  30.227  35.115   4.192
33142W        W99925   7.406  17.387   1.251
33143W        W99926  14.295  18.681  11.575
33144W        W99927  20.281   2.245  13.450
33145W        W99928  11.051  36.574  13.454
33146W        W99929  20.212   4.456  13.081
33147W        W99930  24.866  19.313   2.279
33148W        W99931  11.895  35.621   2.631
33149W        W99932   8.214  33.573  13.387
33150W        W99933   9.412   7.476   3.933
33151W        W99934  33.936  33.408   3.277
33152W        W99935  24.268  42.120  10.302
33153W        W99936  26.028   8.218   4.326
33154W        W99937   7.245  22.520   3.149
33155W        W99938  18.723   0.258   0.301
33156W        W99939  15.303  13.745  11.993
33157W        W99940  40.572  16.726  13.800
33158W        W99941  10.720  40.334  14.431
33159W        W99942   7.476   6.766   4.800
33160W        W99943   5.673  22.321   1.224
33161W        W99944   8.083   8.735   5.132
33162W        W99945   4.942   5.159  11.681
33163W        W99946  33.511  24.922   4.992
33164W        W99947  30.116  33.882  11.694
33165W        W99948   6.565  17.163  11.565
33166W        W99949  36.443   4.315   3.122
33167W        W99950  13.336   7.927  10.166
33168W        W99951  19.690  39.645   2.771
33169W        W99952  36.945  15.325   2.809
33170W        W99953  44.032   0.457   3.875
33171W        W99954   4.438  29.549   3.180
33172W        W99955  43.809   1.463   2.079
33173W        W99956  33.893  37.487  14.245
33174W        W99957   3.488  24.364   0.338
33175W        W99958  16.867   8.133   3.882
33176W        W99959   0.848  17.008  11.966
33177W        W99960  34.796  20.136  13.329
33178W        W99961  37.105  23.806  14.778
33179W        W99962   3.874  42.855   3.181
33180W        W99963   1.285  33.644  10.459
33181W        W99964  38.987  43.978  12.869
33182W        W99965  35.132  17.226  11.255
33183W        W99966  21.305  21.444   4.158
33184W        W99967  37.429  39.383  12.921
33185W        W99968  31.979  32.543   0.522
33186W        W99969  43.867   8.137   3.389
33187W        W99970  28.003  28.113  14.458
33188W        W99971  23.090  22.704   0.369
33189W        W99972  29.179  28.369   0.770
33190W        W99973  38.881  32.081  11.108
33191W        W99974  30.160   3.642   4.015
33192W        W99975  36.047   9.040  12.897
33193W        W99976  32.985   8.535   3.660
33194W        W99977  13.807  17.794   1.191
33195W        W99978  34.830  31.401  10.390
33196W        W99979  14.568   4.320  10.964
33197W        W99980  13.243  23.903   4.147
33198W        W99981  28.495  44.929  12.224
33199W        W99982  32.498  40.051  12.395
33200W        W99983  16.366   3.352   4.215
33201W        W99984  29.574  13.572  14.434
33202W        W99985  23.226  30.631  11.763
33203W        W99986  38.935  20.420   4.446
33204W        W99987  13.106   2.553  12.847
33205W        W99988  26.495  10.834  12.910
33206W        W99989  42.247  19.121  13.441
33207W        W99990  11.582  29.773   0.533
33208W        W99991  16.891   3.219   0.406
33209W        W99992  16.275  43.759  11.054
33210W        W99993  26.222   1.151   4.612
33211W        W99994  44.022  33.635  12.817
33212W        W99995  37.308  21.045  13.444
33213W        W99996  10.760  10.877   1.856
33214W        W99997  40.510   9.400   1.316
33215W        W99998   0.929  37.888   3.666
33216W        W99999  30.519  39.362  10.753
33217W        W    0  36.915  40.406   2.244
33218W        W    1  20.190  40.224  12.918
33219W        W    2   9.202  19.847  11.119
33220W        W    3  22.386  32.874   1.669
33221W        W    4  43.476  20.410   1.360
33222W        W    5  29.861  27.013   0.954
33223W        W    6  31.409  41.046   0.849
33224W        W    7   6.243  14.178  12.047
33225W        W    8  30.446  34.897   1.767
33226W        W    9   9.172  32.458  10.650
33227W        W   10  11.715  12.326   1.387
33228W        W   11  27.567  36.469   2.588
33229W        W   12  18.615  21.959   3.180
33230W        W   13  34.440  39.553   4.940
33231W        W   14  26.002  23.977  13.331
33232W        W   15  37.764  38.609  11.508
33233W        W   16  40.499   5.185   0.497
33234W        W   17  43.203  27.105   2.487
33235W        W   18  11.762   2.953   0.745
33236W        W   19  37.290   7.291   2.028
33237W        W   20  40.393   8.056   2.176
33238W        W   21  26.919  14.376   0.391
33239W        W   22  13.062  17.130   1.925
33240W        W   23  24.894   7.794   4.085
33241W        W   24  44.409  40.980  12.827
33242W        W   25  29.180  19.337  14.800
33243W        W   26  24.941  14.822  11.578
33244W        W   27  22.402  19.123   3.768
33245W        W   28  19.604  33.043  14.072
33246W        W   29   7.346  38.048  14.643
33247W        W   30   1.939   5.660   4.430
33248W        W   31  41.794  41.343   4.070
33249W        W   32   8.373  24.001  14.551
33250W        W   33  27.448   2.753   0.939
33251W        W   34  16.772  25.197   0.175
33252W        W   35  13.686  43.961  11.927
33253W        W   36  41.614  28.388   4.381
33254W        W   37  22.302  44.736   2.770
33255W        W   38  21.293  40.007  11.655
33256W        W   39  35.942  42.717   2.504
33257W        W   40  14.383  32.322   4.196
33258W        W   41  17.867   7.793   2.701
33259W        W   42   7.174  29.990  10.502
33260W        W   43  43.786  14.674  14.327
33261W        W   44  17.208  10.756  12.171
33262W        W   45   5.674   8.200  11.678
33263W        W   46   2.954  13.362  11.453
33264W        W   47  17.605  18.827   1.359
33265W        W   48   5.403  40.357  14.338
33266W        W   49  33.005  22.659   2.790
33267W        W   50  26.199   5.718  14.407
33268W        W   51  14.846   8.467  14.955
33269W        W   52  26.787  39.351  10.262
33270W        W   53  25.978   2.475  10.549
33271W        W   54  12.801  28.144  12.319
33272W        W   55  10.744  22.493   3.660
33273W        W   56  29.883  19.551   2.653
33274W        W   57  17.796  44.608   2.300
33275W        W   58  16.238  39.453  10.956
33276W        W   59  33.065  33.352  12.093
33277W        W   60  12.120  13.079   0.984
33278W        W   61   3.886  40.322   3.142
33279W        W   62   3.126   2.204   4.960
33280W        W   63  14.596  21.063  12.568
33281W        W   64  43.361  44.818   0.242
33282W        W   65   0.214  29.226   4.648
33283W        W   66  39.480  16.697   4.213
33284W        W   67  10.853  28.552   4.563
33285W        W   68  44.779  36.466  14.221
33286W        W   69  19.163  25.228  12.171
33287W        W   70  38.627   1.958  13.540
33288W        W   71  39.484   8.675   3.232
33289W        W   72   5.296  36.453  13.378
33290W        W   73  24.586  21.196  13.848
33291W        W   74   5.904  37.217  13.372
33292W        W   75  29.031  11.321  11.395
33293W        W   76  24.368   9.812  12.777
33294W        W   77  17.315   4.625   3.625
33295W        W   78  32.522  40.070   0.957
33296W        W   79  22.402   7.415  11.135
33297W        W   80  40.740  20.916  14.717
33298W        W   81  35.019  18.912  14.387
33299W        W   82  37.076  10.896   3.694
33300W        W   83  33.570  31.553   3.331
33301W        W   84  36.353   0.977   0.226
33302W        W   85   3.996   6.746  13.972
33303W        W   86  19.589  15.748   0.278
33304W        W   87  42.997  43.930   1.677
33305W        W   88  44.907  43.287   0.181
33306W        W   89  15.278   2.993  13.598
33307W        W   90   5.639  33.962   4.166
33308W        W   91  28.575  43.994   3.127
33309W        W   92  26.176   4.326   1.327
33310W        W   93  38.059   2.699   0.905
33311W        W   94  12.156  23.360  11.774
33312W        W   95   2.360  39.980   3.608
33313W        W   96   1.200   3.174  10.697
33314W        W   97   8.191  15.991  13.849
33315W        W   98  23.993   9.528  14.008
33316W        W   99  31.951  21.583  14.508
33317W        W  100  44.588   5.481  12.790
33318W        W  101  33.008  33.212  13.057
33319W        W  102  26.919  41.342   1.731
33320W        W  103   3.145  29.615   4.532
33321W        W  104  30.650   4.298  14.385
33322W        W  105  21.520   7.403   2.272
33323W        W  106  34.439  30.597   2.926
33324W        W  107  22.667  29.357   1.895
33325W        W  108  20.962  42.000   4.512
33326W        W  109  10.208  35.794  13.098
33327W        W  110  42.776  36.069   2.835
33328W        W  111   4.708  23.945   1.369
33329W        W  112  16.505  40.552   3.248
33330W        W  113  38.840  16.973   2.621
33331W        W  114   2.168  31.956  12.277
33332W        W  115  31.908   4.394   1.527
33333W        W  116  41.904  13.087   3.973
33334W        W  117  22.722  30.930   1.727
33335W        W  118  16.545  43.444  13.403
33336W        W  119  29.539   0.395  12.376
33337W        W  120  16.145  41.229  12.895
33338W        W  121  33.120  16.176   3.201
33339W        W  122  37.812  43.012  10.864
33340W        W  123  19.653  28.582  10.370
33341W        W  124   6.157   6.833  13.419
33342W        W  125  25.890   6.898  14.935
33343W        W  126  43.735  23.040   0.637
33344W        W  127  18.309   6.417   2.636
33345W        W  128  17.619  21.908   2.883
33346W        W  129  12.680  26.882  13.519
33347W        W  130   0.385  39.090  14.393
33348W        W  131  29.534  14.213  13.444
33349W        W  132  10.850  28.558  14.213
33350W        W  133   1.480  23.216  11.122
33351W        W  134  22.254  31.819  13.769
33352W        W  135   5.820  29.967   4.077
33353W        W  136  26.397  32.709   2.302
33354W        W  137   4.360   4.413   3.494
33355W        W  138  21.155  12.136   3.586
33356W        W  139  29.907  27.998  13.046
33357W        W  140   8.099  16.709   4.000
33358W        W  141  23.120  33.210   3.662
33359W        W  142   5.967  15.336  11.595
33360W        W  143   4.394   8.325   1.155
33361W        W  144  10.223  20.297   3.265
33362W        W  145  25.180  36.334   3.792
33363W        W  146  26.728  34.935  11.329
33364W        W  147  21.796  23.601  13.475
33365W        W  148  43.928  26.481  11.700
33366W        W  149  40.622  35.437  10.750
33367W        W  150  31.155   4.401  14.326
33368W        W  151  15.621   7.592   3.714
33369W        W  152   4.444  26.163   3.364
33370W        W  153  16.801  32.926   2.915
33371W        W  154  23.765  33.336  11.534
33372W        W  155   6.835  17.733   3.716
33373W        W  156  40.974  37.290   3.682
33374W        W  157   4.372  33.816   4.673
33375W        W  158  13.229  14.279   4.483
33376W        W  159  29.625  35.839   4.789
33377W        W  160  29.597  33.994  13.377
33378W        W  161  15.813  19.779  12.551
33379W        W  162  36.158  38.610  12.875
33380W        W  163  16.198  30.154   0.574
33381W        W  164   3.474  30.476   4.144
33382W        W  165  15.550  43.938   1.082
33383W        W  166  29.794  40.524   3.660
33384W        W  167   7.975  20.008  10.739
33385W        W  168   2.420  37.292   0.788
33386W        W  169  35.888  23.148  10.567
33387W        W  170  17.189  11.240  13.057
33388W        W  171  25.182   9.465   2.242
33389W        W  172  37.850  34.950  11.687
33390W        W  173  32.657  31.701   0.047
33391W        W  174  40.228  14.035  13.051
33392W        W  175  35.612  24.509   1.411
33393W        W  176  26.198  11.899   1.222
33394W        W  177  27.281  12.985  10.807
33395W        W  178  26.101  41.132   4.231
33396W        W  179  20.032  38.850   2.852
33397W        W  180  18.642  43.937   3.732
33398W        W  181  37.338  19.738   1.395
33399W        W  182  29.487  24.100  12.133
33400W        W  183  28.720  27.468  14.294
33401W        W  184  22.448   3.796  10.761
33402W        W  185   2.017   2.185   4.680
33403W        W  186  27.681  10.430   3.173
33404W        W  187  35.905  32.067  13.480
33405W        W  188  32.326  38.902   1.782
33406W        W  189  16.008  36.018  14.104
33407W        W  190  28.709  13.275  12.435
33408W        W  191  31.108   7.229   0.718
33409W        W  192  34.866  38.882  13.700
33410W        W  193  11.029  37.481   4.634
33411W        W  194  35.925  10.073  13.028
33412W        W  195   3.220  17.302   1.688
33413W        W  196  38.587  18.143   0.307
33414W        W  197  13.988  15.141   4.311
33415W        W  198  18.584   8.218  11.490
33416W        W  199   3.374  31.900  10.667
33417W        W  200  11.263   4.531  14.887
33418W        W  201  13.706  42.310  12.468
33419W        W  202   3.711  43.564   0.287
33420W        W  203  34.868   4.767   4.641
33421W        W  204  39.320  27.036  11.498
33422W        W  205  21.738  42.971   3.783
33423W        W  206  22.146  13.110   2.839
33424W        W  207  36.622  44.164  14.897
33425W        W  208  14.515  35.950  13.465
33426W        W  209  27.903  24.163   1.461
33427W        W  210  31.370  13.671  11.141
33428W        W  211  43.974  28.188   4.229
33429W        W  212  35.408  40.275  13.743
33430W        W  213  43.486   9.773   4.147
33431W        W  214  13.288  11.905  12.951
33432W        W  215   2.504  22.656  13.923
33433W        W  216  13.292  25.018  13.037
33434W        W  217   5.731   7.983  13.444
33435W        W  218   7.868  13.382   4.134
33436W        W  219  18.814  30.384  10.096
33437W        W  220  23.630   6.363  14.320
33438W        W  221  39.626  21.043   1.745
33439W        W  222  40.025  30.879   1.299
33440W        W  223  43.277   9.310  13.031
33441W        W  224  13.235  27.516   3.699
33442W        W  225  31.101  15.701  11.901
33443W        W  226  20.234   6.523  14.278
33444W        W  227  19.275  32.024  10.875
33445W        W  228  29.169   0.236   4.113
33446W        W  229   9.740  38.483   2.775
33447W        W  230   2.955   3.873   0.741
33448W        W  231  21.080  27.645  13.359
33449W        W  232   8.789  39.823   0.231
33450W        W  233  20.310  20.245   0.306
33451W        W  234  34.459  21.189   3.757
33452W        W  235   3.511  10.869  10.566
33453W        W  236   0.185  40.155   0.309
33454W        W  237   8.729   0.951   1.180
33455W        W  238   5.703  35.936   4.111
33456W        W  239   3.060  42.048  11.321
33457W        W  240   3.895  26.332   0.108
33458W        W  241  34.541  35.910  14.963
33459W        W  242  24.058  23.095   1.347
33460W        W  243  36.355   9.471  13.031
33461W        W  244  39.704   2.241   2.843
33462W        W  245  24.537  23.665  10.698
33463W        W  246  44.990  37.098  11.994
33464W        W  247  31.491  20.011  13.873
33465W        W  248  31.948   3.710  10.892
33466W        W  249  28.690   0.316   3.188
33467W        W  250  23.655  36.059   4.102
33468W        W  251   6.778   4.577   4.658
33469W        W  252  28.762  39.865   2.206
33470W        W  253  42.775  20.486   4.175
33471W        W  254  20.720   6.977  11.278
33472W        W  255   9.112  32.504  12.813
33473W        W  256  28.556   0.371  14.784
33474W        W  257  15.029  27.064   3.603
33475W        W  258  38.275   1.875   1.149
33476W        W  259   1.399   9.065  11.099
33477W        W  260  28.502  29.644   4.526
33478W        W  261  10.030  11.812  13.811
33479W        W  262  28.953   8.503   4.662
33480W        W  263  38.512  38.030  11.412
33481W        W  264  25.577   2.204   0.022
33482W        W  265  44.860   1.644  14.132
33483W        W  266   1.503  44.820  14.846
33484W        W  267  14.731  32.837  12.601
33485W        W  268   1.843  21.253   1.100
33486W        W  269  23.420  44.829   1.292
33487W        W  270  11.318  26.746   2.027
33488W        W  271   6.645   6.803   0.762
33489W        W  272  26.139  10.388  13.273
33490W        W  273  15.624  35.584   3.708
33491W        W  274   5.398  37.887   3.345
33492W        W  275  30.027   8.883   2.347
33493W        W  276   4.774  11.054   1.863
33494W        W  277  13.602   9.249   2.316
33495W        W  278  35.979   0.259  14.394
33496W        W  279  33.457  33.672   0.986
33497W        W  280  37.486  14.342   3.304
33498W        W  281  43.723  37.990  13.111
33499W        W  282  15.902  32.848  13.663
33500W        W  283  28.085   2.279  13.012
33501W        W  284  14.366  18.466   0.884
33502W        W  285  39.999  29.717   0.358
33503W        W  286  23.158  44.291  13.087
33504W        W  287  29.515  21.690  12.418
33505W        W  288  22.509  14.014   1.727
33506W        W  289  10.668  31.905   3.631
33507W        W  290  37.813  11.342  12.050
33508W        W  291  22.927  20.504  11.980
33509W        W  292  36.656  40.181  13.893
33510W        W  293   3.826  12.758   4.732
33511W        W  294  41.555  33.107   1.361
33512W        W  295  32.687  25.072  13.798
33513W        W  296  21.160  39.359  14.451
33514W        W  297  18.709  42.539  12.829
33515W        W  298  44.456  20.011  11.649
33516W        W  299  35.081  23.507  12.835
33517W        W  300  20.826  35.138  13.682
33518W        W  301  22.052  44.841  12.559
33519W        W  302  28.918  30.646   1.404
33520W        W  303  43.915   7.237   1.883
33521W        W  304  22.381  27.857   2.170
33522W        W  305  36.764  30.104  11.563
33523W        W  306  18.867  18.167  13.778
33524W        W  307  41.858   6.468   0.357
33525W        W  308  40.034  15.329   4.893
33526W        W  309  42.527  11.754   1.963
33527W        W  310  34.382  26.729   4.222
33528W        W  311  41.187  28.238  11.195
33529W        W  312  17.173  15.705   1.850
33530W        W  313  42.003  41.870  12.419
33531W        W  314   2.330  30.879  13.053
33532W        W  315  14.647  41.451  13.383
33533W        W  316  15.843  30.969  14.639
33534W        W  317  34.848  20.193   2.212
33535W        W  318  12.836  40.126   2.512
33536W        W  319   4.886  13.605   0.186
33537W        W  320  17.656  44.264  13.841
33538W        W  321   7.172  32.909  11.192
33539W        W  322  17.533  24.995  11.561
33540W        W  323  33.369  44.878   0.187
33541W        W  324  44.228  30.462   4.702
33542W        W  325  17.801  42.576   2.293
33543W        W  326  42.397   1.432   1.217
33544W        W  327  29.824  27.577  12.563
33545W        W  328   7.901  40.990   4.750
33546W        W  329  41.831  26.365  12.090
33547W        W  330  40.865   3.215  12.073
33548W        W  331  26.454  31.935  11.619
33549W        W  332  36.011  13.313   0.022
33550W        W  333  10.395  30.125  12.959
33551W        W  334  38.357  43.002  11.144
33552W        W  335  11.166  36.667   3.598
33553W        W  336  18.684  20.085  12.602
33554W        W  337  35.366   3.815  12.279
33555W        W  338   9.473  36.168   4.907
33556W        W  339  27.155   5.475   3.116
33557W        W  340  18.820  41.762  13.548
33558W        W  341  19.716  24.279   1.690
33559W        W  342  36.378  15.627  13.948
33560W        W  343  32.616  13.107  14.444
33561W        W  344  22.492   5.306   2.452
33562W        W  345  18.819  13.225  14.955
33563W        W  346  25.178  43.110  11.726
33564W        W  347   9.224  21.404  14.509
33565W        W  348  24.602   6.845   1.452
33566W        W  349  35.658  13.276   3.768
33567W        W  350  37.770  41.085  11.081
33568W        W  351  32.952  23.446  13.461
33569W        W  352  22.202  32.908   4.113
33570W        W  353  22.751  42.778   3.651
33571W        W  354  37.272   0.591  12.611
33572W        W  355  43.961  33.852  13.549
33573W        W  356  40.089  34.979   4.140
33574W        W  357  15.191   4.039   4.047
33575W        W  358   0.502   6.340   4.183
33576W        W  359  43.471   0.423  11.702
33577W        W  360   1.799  35.350   1.288
33578W        W  361  23.469  36.312  12.944
33579W        W  362   6.725   8.429  13.843
33580W        W  363  12.630  14.578  13.123
33581W        W  364  33.061  33.393   3.307
33582W        W  365   9.597  44.833  12.059
33583W        W  366  32.070  24.094   4.513
33584W        W  367  22.235  44.131   5.233
33585W        W  368  10.628  26.166  14.819
33586W        W  369  10.681  28.321  13.216
33587W        W  370  13.705  33.014   2.294
33588W        W  371  42.819   0.527   2.256
33589W        W  372  24.759   6.669  14.422
33590W        W  373  32.429   7.545  13.932
33591W        W  374  34.270  29.942  12.912
33592W        W  375  30.686  36.040   4.418
33593W        W  376  16.343  14.551  10.679
33594W        W  377  12.248  14.050  14.380
33595W        W  378  41.796   0.097  14.534
33596W        W  379  20.525  23.969  13.843
33597W        W  380  41.898  18.542  12.387
33598W        W  381  17.017   3.662  12.073
33599W        W  382  22.124  39.955  11.448
33600W        W  383  30.706  29.704   4.507
33601W        W  384   0.677  43.287  14.628
33602W        W  385  10.686  29.282  12.027
33603W        W  386   9.876  40.626  12.470
33604W        W  387  20.060  43.105   4.701
33605W        W  388  27.161  37.341   4.211
33606W        W  389  25.593  29.362   5.683
33607W        W  390  19.487  32.621   4.401
33608W        W  391  26.446  13.785   5.042
33609W        W  392   1.319  41.560  13.937
33610W        W  393  24.204  39.821  14.879
33611W        W  394   7.446  18.142   0.374
33612W        W  395  18.853  35.342  13.444
33613W        W  396  34.359  19.120  12.484
33614W        W  397  33.636  14.190  11.297
33615W        W  398   3.882  34.123  12.496
33616W        W  399  19.291  27.087  11.511
33617W        W  400   2.698  26.222  14.737
33618W        W  401  12.186   8.662  12.123
33619W        W  402  10.821  37.062  11.653
33620W        W  403  42.534  34.550   1.475
33621W        W  404  27.733  16.594  11.013
33622W        W  405   6.484   5.142   2.760
33623W        W  406  19.548  10.238  12.012
33624W        W  407  17.447   6.429   3.653
33625W        W  408   9.900  41.827  13.234
33626W        W  409  17.004  19.909   0.644
33627W        W  410   0.522  13.082   0.902
33628W        W  411  15.973  41.812  11.060
33629W        W  412   1.188  16.538  13.760
33630W        W  413  13.879  33.982  13.130
33631W        W  414   0.447  42.865  12.602
33632W        W  415  11.058  38.359  14.889
33633W        W  416  25.101  32.562  10.358
33634W        W  417  12.146  24.294   3.580
33635W        W  418   4.711  41.227   1.585
33636W        W  419  20.347  10.151   1.750
33637W        W  420  25.662  28.604  12.491
33638W        W  421   2.083  19.234   1.775
33639W        W  422  40.464  38.019   1.216
33640W        W  423  27.057  44.093  10.268
33641W        W  424  20.279   8.253  10.863
33642W        W  425  35.608  32.738  13.399
33643W        W  426   6.046   8.269   0.926
33644W        W  427  23.799  12.056  11.507
33645W        W  428   6.631   8.409  11.516
33646W        W  429  33.176  36.500  12.445
33647W        W  430  14.184   7.145  11.581
33648W        W  431  32.603   2.532  13.958
33649W        W  432  19.022  44.945  10.431
33650W        W  433  24.551  30.934   2.883
33651W        W  434  39.389  42.762   1.854
33652W        W  435  24.279   1.977  14.216
33653W        W  436   0.963  18.752   2.286
33654W        W  437   2.347   1.609   0.770
33655W        W  438  24.993  10.673   0.097
33656W        W  439  10.354   4.872   0.961
33657W        W  440  25.424  22.565  10.566
33658W        W  441   6.640  38.465   2.810
33659W        W  442  11.915   1.213  11.489
33660W        W  443   8.312   8.510   0.429
33661W        W  444  21.518  17.743  13.049
33662W        W  445  21.541  25.192   2.786
33663W        W  446   0.762  20.883  13.544
33664W        W  447  21.226  44.795   0.311
33665W        W  448  37.574  18.744   0.377
33666W        W  449  35.371  37.306  12.477
33667W        W  450  44.485  13.465   4.584
33668W        W  451  15.198   5.203  13.556
33669W        W  452  40.311   6.659  10.554
33670W        W  453   4.107  20.320   1.423
33671W        W  454   5.780  36.797   1.489
33672W        W  455   9.247   4.984   0.344
33673W        W  456   2.374  10.855  13.405
33674W        W  457  11.069   6.735   5.512
33675W        W  458  30.972   6.914  13.447
33676W        W  459  18.158  41.062   3.618
33677W        W  460   4.289  25.652   2.113
33678W        W  461  10.975  14.258   2.825
33679W        W  462  21.868  27.868   2.320
33680W        W  463  32.509  11.523  12.534
33681W        W  464  30.517   4.957   1.353
33682W        W  465  19.210  39.977  13.748
33683W        W  466   3.675  13.398   2.487
33684W        W  467  17.186  25.192   5.053
33685W        W  468  12.843  25.091  11.962
33686W        W  469  31.358  34.438  13.914
33687W        W  470  19.189  29.241  10.379
33688W        W  471  13.866  23.364  12.492
33689W        W  472  14.300   3.054   0.262
33690W        W  473  17.586  34.160   4.142
33691W        W  474  25.990  28.006  12.817
33692W        W  475  28.486  41.561   2.252
33693W        W  476  23.521  24.530  11.859
33694W        W  477  36.849   8.356   2.629
33695W        W  478   0.464  23.738  13.389
33696W        W  479   6.288  36.822   1.334
33697W        W  480   0.353  37.112  14.437
33698W        W  481  42.402  41.044   1.546
33699W        W  482  14.175  21.535   2.940
33700W        W  483   9.229  31.924   1.847
33701W        W  484   0.551  23.094  10.717
33702W        W  485  32.066   0.776   4.240
33703W        W  486  21.987  41.073  13.871
33704W        W  487  16.318  31.285  11.061
33705W        W  488  32.010  39.236  11.438
33706W        W  489  44.228  41.007  14.288
33707W        W  490  32.558  16.120   1.019
33708W        W  491  29.424  43.692   2.327
33709W        W  492  27.542  19.973   2.840
33710W        W  493  35.424  16.166   0.709
33711W        W  494  32.242  41.094  12.972
33712W        W  495  27.629   0.508  11.716
33713W        W  496  29.846  11.182   1.917
33714W        W  497   0.313  37.112  11.593
33715W        W  498  26.047  40.713  14.481
33716W        W  499  11.720  33.699   4.857
33717W        W  500  38.839   2.803  12.891
33718W        W  501  38.722  26.090  13.954
33719W        W  502   1.954  28.706  13.838
33720W        W  503  10.193  18.082  14.386
33721W        W  504  30.950  38.388   0.014
33722W        W  505   2.740  32.567  11.845
33723W        W  506   6.676  10.661  12.544
33724W        W  507  13.605  31.119   4.729
33725W        W  508   6.643  11.285   3.382
33726W        W  509  18.280  12.316   2.290
33727W        W  510  21.153  32.870   1.223
33728W        W  511  39.009  15.208  14.773
33729W        W  512  38.989  41.839  11.443
33730W        W  513  30.480  34.045   3.172
33731W        W  514   6.085  23.174  10.460
33732W        W  515   1.752  27.131   2.833
33733W        W  516  25.762  24.517  11.133
33734W        W  517  44.046  15.264   2.719
33735W        W  518  28.918   0.506   3.739
33736W        W  519  21.012  40.584  12.786
33737W        W  520  41.959  43.383   2.189
33738W        W  521  24.833  22.308  14.943
33739W        W  522  43.307  23.262  14.987
33740W        W  523  25.881  43.123  10.161
33741W        W  524  39.110  38.972   0.234
33742W        W  525   4.748  22.995   0.888
33743W        W  526  33.869  13.851   0.611
33744W        W  527   2.302  14.153  10.707
33745W        W  528   9.804  39.992   1.281
33746W        W  529  12.848  24.279  11.094
33747W        W  530  33.974  16.287   0.425
33748W        W  531  38.451  23.028  14.771
33749W        W  532   4.949  42.711  11.219
33750W        W  533   3.385  23.192  12.473
33751W        W  534   9.287  37.766   2.440
33752W        W  535   2.468  39.522   3.231
33753W        W  536  42.782  43.759  14.891
33754W        W  537  31.339  15.847   4.279
33755W        W  538  22.782  32.570   0.913
33756W        W  539  35.282  10.327   1.782
33757W        W  540  26.248   5.739   2.267
33758W        W  541  20.158  41.644  13.872
33759W        W  542  43.454  32.621   4.475
33760W        W  543  12.780   4.777   4.436
33761W        W  544   4.620  11.623   2.705
33762W        W  545  34.413  12.790   1.682
33763W        W  546  15.372  16.141   0.826
33764W        W  547  24.473  10.621   0.833
33765W        W  548  33.086   2.409   0.854
33766W        W  549   9.647  24.239  12.074
33767W        W  550   1.235  13.883  12.998
33768W        W  551  21.998  20.158   4.988
33769W        W  552  13.661  38.149  14.424
33770W        W  553  32.614  35.371   3.343
33771W        W  554  36.521  20.954   3.264
33772W        W  555  11.750   4.760  11.668
33773W        W  556  36.421   5.654  10.402
33774W        W  557  43.771  19.978  12.049
33775W        W  558  33.686  40.489  11.032
33776W        W  559  27.053  39.446  12.099
33777W        W  560  36.313  39.051  13.963
33778W        W  561  35.534  27.065  12.076
33779W        W  562  29.478   2.465  12.065
33780W        W  563  35.970  40.328  12.458
33781W        W  564  41.119  44.930  11.681
33782W        W  565   1.713   7.607   1.552
33783W        W  566   1.222   2.664   1.378
33784W        W  567  34.268  37.585   0.031
33785W        W  568  36.442   8.409   3.412
33786W        W  569  34.093   2.551  13.055
33787W        W  570  12.038  32.700   0.423
33788W        W  571  26.677   2.183  11.207
33789W        W  572  12.176  42.944   0.236
33790W        W  573   0.383  30.027   0.829
33791W        W  574  14.098  35.160  14.769
33792W        W  575   0.901  20.768  10.590
33793W        W  576  23.067  29.462  12.682
33794W        W  577  35.777  35.570  12.997
33795W        W  578  26.893   8.556   3.359
33796W        W  579  26.299  44.353   0.039
33797W        W  580  24.705  34.389  14.292
33798W        W  581  19.102   5.959   2.810
33799W        W  582   5.119   3.875   4.592
33800W        W  583  28.109  28.489   4.995
33801W        W  584  18.058  11.084  11.227
33802W        W  585   9.072  27.492  11.854
33803W        W  586  25.321  20.447   2.865
33804W        W  587  34.153  36.024  12.066
33805W        W  588  30.193  14.375   2.765
33806W        W  589  32.457  40.262  14.197
33807W        W  590  27.622  36.372  10.550
33808W        W  591  26.119  37.787  10.311
33809W        W  592   4.338  22.039  14.330
33810W        W  593  32.992  20.007   2.156
33811W        W  594   5.499   7.760  11.936
33812W        W  595   5.758   4.225  11.568
33813W        W  596  41.401  43.993   1.774
33814W        W  597  15.244  34.937  10.744
33815W        W  598  28.663  11.161  14.091
33816W        W  599   2.764  30.227  10.767
33817W        W  600  37.566  33.747  11.122
33818W        W  601  13.635   4.448  11.343
33819W        W  602  14.336  39.267   0.776
33820W        W  603   4.948  25.152   0.874
33821W        W  604   5.940  19.628   3.866
33822W        W  605  30.658  40.295   4.127
33823W        W  606  34.006  27.576  13.579
33824W        W  607  44.581  33.347  13.801
33825W        W  608  26.970  23.333  13.020
33826W        W  609  43.801   5.325   4.962
33827W        W  610  41.358  20.684   4.984
33828W        W  611  25.680  21.137   4.102
33829W        W  612  23.017  21.682  13.715
33830W        W  613  11.172  20.713   3.420
33831W        W  614  24.936  42.891   0.834
33832W        W  615   6.351  32.169  14.403
33833W        W  616  18.935  24.001   2.315
33834W        W  617  42.518  27.152   1.309
33835W        W  618  17.740  44.911   0.882
33836W        W  619  42.421   7.370   1.830
33837W        W  620   6.222  13.157   2.921
33838W        W  621  16.119  22.073  14.310
33839W        W  622  17.089   3.434  12.525
33840W        W  623  16.350  19.031  12.971
33841W        W  624  22.783  33.338  13.586
33842W        W  625  43.809  27.968  11.543
33843W        W  626  37.141  21.562  12.520
33844W        W  627  34.801   9.486   3.174
33845W        W  628  13.065  22.457  13.553
33846W        W  629  19.291  12.871  13.431
33847W        W  630  24.131  37.159  12.095
33848W        W  631  38.921  22.693   5.315
33849W        W  632  26.495   7.719  14.965
33850W        W  633   9.000  19.563  12.410
33851W        W  634  32.520  24.767  13.427
33852W        W  635  31.015  16.855   3.979
33853W        W  636  43.816  32.388  14.356
33854W        W  637  39.832   2.925  10.598
33855W        W  638   6.398  22.645  11.146
33856W        W  639  35.060  22.091  11.935
33857W        W  640   0.898  10.202   1.473
33858W        W  641  20.139  35.857  12.572
33859W        W  642  35.896  39.942  11.672
33860W        W  643  39.018   2.361  10.382
33861W        W  644   6.781  23.843  14.528
33862W        W  645  13.753  36.951   3.492
33863W        W  646  34.493  14.761   3.670
33864W        W  647  29.669   9.401  14.368
33865W        W  648  21.199  25.809   3.360
33866W        W  649   6.733  17.601   4.202
33867W        W  650  12.166  38.914  11.403
33868W        W  651  21.752  41.347  10.658
33869W        W  652  28.359  37.067   1.618
33870W        W  653  44.813  14.111  10.106
33871W        W  654  11.633  43.609  12.678
33872W        W  655   6.441  26.178  11.723
33873W        W  656  42.798  19.463  11.350
33874W        W  657  37.732   5.690   0.322
33875W        W  658   8.602  21.421  11.914
33876W        W  659  37.019  14.343   9.850
33877W        W  660  25.748   5.477   0.466
33878W        W  661  42.293  19.431   3.474
33879W        W  662  44.779  35.462  13.439
33880W        W  663  16.530   9.713   3.677
33881W        W  664   3.414  36.033  11.584
33882W        W  665  17.723   2.685   3.124
33883W        W  666  42.040   3.773   0.705
33884W        W  667  11.357  35.927   4.016
33885W        W  668  31.025  17.996  12.924
33886W        W  669  27.037  11.735  12.654
33887W        W  670   8.819  27.043  14.582
33888W        W  671   1.160   3.451   4.583
33889W        W  672  18.330  39.925   1.162
33890W        W  673   6.282   3.866   4.578
33891W        W  674  24.306  10.109   4.139
33892W        W  675  22.569  39.375  13.016
33893W        W  676  32.517  11.735  10.890
33894W        W  677  36.549  12.070   1.513
33895W        W  678  17.488  14.874   3.670
33896W        W  679  28.115  23.649  12.628
33897W        W  680  26.012  44.208   1.840
33898W        W  681  37.444   8.317  13.932
33899W        W  682  26.393  32.928  12.530
33900W        W  683  14.098  39.941  12.863
33901W        W  684  24.987  26.277   0.023
33902W        W  685  10.064  38.086   2.703
33903W        W  686  28.443   1.260   0.752
33904W        W  687  19.096  26.165  11.004
33905W        W  688  35.670  18.274   4.993
33906W        W  689  22.535   4.824   4.426
33907W        W  690  29.258  41.370  10.276
33908W        W  691  17.177  36.855   0.535
33909W        W  692  39.624  21.052  11.050
33910W        W  693  14.752  34.411  11.165
33911W        W  694   2.880  38.030   2.478
33912W        W  695  19.765   3.269  13.102
33913W        W  696  32.490   9.318  12.006
33914W        W  697  13.337  22.157   1.218
33915W        W  698  23.523   1.379  10.479
33916W        W  699  42.869  37.880  14.204
33917W        W  700   7.825  32.910  12.468
33918W        W  701  36.880  17.063   3.658
33919W        W  702  20.462  18.299   1.870
33920W        W  703  44.037  23.671  12.947
33921W        W  704  22.603  35.122   2.348
33922W        W  705  18.245  44.504   3.741
33923W        W  706  32.546  37.558   2.178
33924W        W  707  25.791  22.250  13.137
33925W        W  708  33.156  28.439  14.517
33926W        W  709  35.619  25.551   4.325
33927W        W  710  41.552   2.784  13.287
33928W        W  711   9.810   8.594  12.150
33929W        W  712  31.953   6.133   2.868
33930W        W  713  23.698  26.015   1.638
33931W        W  714  28.665  24.188  13.818
33932W        W  715  36.021  42.835  12.224
33933W        W  716  20.767  35.868  14.251
33934W        W  717  25.955  15.478  13.911
33935W        W  718   2.805  27.500   1.850
33936W        W  719   5.272   5.503  11.951
33937W        W  720   8.363  27.441   3.583
33938W        W  721  33.485  14.287   0.713
33939W        W  722   7.712  30.449   0.773
33940W        W  723   3.917   6.591   0.195
33941W        W  724  36.878  31.894   0.314
33942W        W  725  15.368  38.030   2.385
33943W        W  726  10.112  20.635  13.498
33944W        W  727  44.016  12.192   2.694
33945W        W  728  24.273   6.781  14.558
33946W        W  729  29.519  29.910  12.496
33947W        W  730  35.114  34.917  11.600
33948W        W  731  34.009  35.854   4.834
33949W        W  732  17.261   9.902  12.846
33950W        W  733  43.942   0.286   3.408
33951W        W  734  37.522  21.277   0.390
33952W        W  735  23.203  19.468   0.272
33953W        W  736  11.308  15.108   0.206
33954W        W  737  15.765  18.200   3.785
33955W        W  738  29.709  37.852   2.397
33956W        W  739   5.735  42.276  13.554
33957W        W  740  21.473  12.186   2.271
33958W        W  741   4.134  14.521   1.274
33959W        W  742  35.278  21.563   2.264
33960W        W  743  18.127   8.995   0.955
33961W        W  744   4.794  40.042  14.715
33962W        W  745  22.402  33.889  10.249
33963W        W  746  13.237  34.830   3.385
33964W        W  747  37.752  30.158   1.285
33965W        W  748  23.032   7.210   2.603
33966W        W  749   6.469  44.522   5.117
33967W        W  750  28.508  37.342  14.837
33968W        W  751   1.332   4.892   1.252
33969W        W  752  21.288  34.403   2.802
33970W        W  753  18.092   5.175  11.520
33971W        W  754   5.889  34.029   1.815
33972W        W  755   3.450  21.406  14.927
33973W        W  756  25.984  35.980   2.298
33974W        W  757  11.925  13.749   3.221
33975W        W  758   5.601  24.602   4.393
33976W        W  759  21.099  16.806   3.417
33977W        W  760  10.671  22.640  12.541
33978W        W  761  21.963  24.511  10.501
33979W        W  762  43.819   9.932   2.368
33980W        W  763   4.175   9.254  14.001
33981W        W  764  23.082   0.344  11.422
33982W        W  765   6.203  31.852  12.904
33983W        W  766  10.689  34.972  12.815
33984W        W  767  13.628  19.125  12.901
33985W        W  768  28.937   4.220  10.764
33986W        W  769  36.167  21.450  10.291
33987W        W  770   4.602   5.371   0.245
33988W        W  771   3.078   0.584   0.251
33989W        W  772  29.976  33.119   2.410
33990W        W  773  22.237  33.336  13.572
33991W        W  774  39.047   3.754  13.272
33992W        W  775  12.719   4.261  10.848
33993W        W  776  26.679   9.526   0.399
33994W        W  777  26.098  19.798  11.396
33995W        W  778   3.464  18.255   0.829
33996W        W  779  34.548  43.194  10.663
33997W        W  780   1.821  28.554   2.016
33998W        W  781  12.256  27.364   0.742
33999W        W  782  27.051  17.113   1.258
34000W        W  783  43.056  39.994   1.729
34001W        W  784  40.488  40.405  11.616
34002W        W  785   4.630  27.256   1.820
34003W        W  786   8.522  41.657   0.968
34004W        W  787  23.274  36.636  13.977
34005W        W  788   9.443   1.266  12.502
34006W        W  789  32.144  43.367  13.657
34007W        W  790  38.993   9.829  14.435
34008W        W  791  37.903   5.600  11.614
34009W        W  792   9.340  25.622  13.430
34010W        W  793  10.229  18.364   2.838
34011W        W  794  36.095   8.589   3.727
34012W        W  795  36.824  20.770  11.937
34013W        W  796  33.957  40.789   2.356
34014W        W  797  16.381  27.140   0.554
34015W        W  798  31.228  44.805  12.024
34016W        W  799   0.860  26.246  14.900
34017W        W  800   1.930   9.333  12.918
34018W        W  801  38.306  14.346   1.780
34019W        W  802   0.190  13.174  11.907
34020W        W  803   9.867  15.186   2.870
34021W        W  804  16.989  21.181  14.235
34022W        W  805  36.658   1.332   0.438
34023W        W  806   1.402  25.494  13.905
34024W        W  807   6.467   0.873  14.249
34025W        W  808   6.629  37.473   3.737
34026W        W  809   0.444  34.900   2.935
34027W        W  810  33.375  15.343   4.144
34028W        W  811   1.653  31.883   0.346
34029W        W  812  12.641   0.448   3.182
34030W        W  813  24.397  30.416   2.809
34031W        W  814  12.303  35.896  12.949
34032W        W  815  40.996  11.699   0.435
34033W        W  816  42.922  16.683  14.374
34034W        W  817  25.499   5.474   5.048
34035W        W  818  43.040  23.701  13.935
34036W        W  819  43.937  28.091  13.605
34037W        W  820  39.109  29.700  11.232
34038W        W  821  44.295  38.314  13.851
34039W        W  822  31.941  29.988   2.641
34040W        W  823  15.596   2.050  14.804
34041W        W  824  15.771  26.339  12.935
34042W        W  825  41.870  15.365  13.927
34043W        W  826  21.226  22.876  10.556
34044W        W  827  33.865  10.579   1.872
34045W        W  828  40.963  11.038   2.708
34046W        W  829  40.348  38.429  10.616
34047W        W  830  44.769  35.410  11.896
34048W        W  831  19.466  35.796   0.363
34049W        W  832   5.607  31.005  11.534
34050W        W  833  14.463  31.219  14.194
34051W        W  834   4.684  37.410   2.740
34052W        W  835  35.472  37.644   1.193
34053W        W  836  39.204   5.156  13.347
34054W        W  837  42.925  26.708   2.189
34055W        W  838  40.808   3.945   3.112
34056W        W  839  20.702  19.249   2.210
34057W        W  840  14.315  32.349  13.275
34058W        W  841  12.514  15.360  13.292
34059W        W  842  39.995  11.847   0.634
34060W        W  843  30.314  34.499  11.028
34061W        W  844  19.750  27.364  10.752
34062W        W  845  28.654  13.788   1.386
34063W        W  846  11.602  41.197  13.573
34064W        W  847  28.452  38.868   0.417
34065W        W  848  32.566  27.945   2.685
34066W        W  849  15.830  33.257  10.974
34067W        W  850   2.821  32.884   0.843
34068W        W  851   6.438  22.502   4.759
34069W        W  852  42.907  41.087  14.905
34070W        W  853   7.058  36.049  12.858
34071W        W  854  22.217  21.511  14.809
34072W        W  855   2.282  30.225   4.557
34073W        W  856  25.223  36.364  11.440
34074W        W  857  39.649  18.293   0.417
34075W        W  858  24.456  24.605  14.854
34076W        W  859   9.627  44.329   1.677
34077W        W  860  27.105  18.027  11.259
34078W        W  861  23.769  27.619   3.406
34079W        W  862  43.275  41.507   0.449
34080W        W  863   0.345  26.416  12.496
34081W        W  864  11.519  37.117  12.802
34082W        W  865  12.836  30.763   4.655
34083W        W  866  31.097  17.572   0.899
34084W        W  867   2.021  25.296   2.884
34085W        W  868  37.529  33.889  12.576
34086W        W  869   3.431  43.757   3.244
34087W        W  870  11.853  13.195  12.896
34088W        W  871  29.348  33.986  11.136
34089W        W  872   0.939  30.398  10.865
34090W        W  873  26.269  27.999  11.967
34091W        W  874  29.995   5.348  10.631
34092W        W  875  37.343  29.072  11.956
34093W        W  876  37.061  31.416  10.772
34094W        W  877  42.961  35.810  13.292
34095W        W  878  15.067  35.423  13.529
34096W        W  879  41.025   8.843   4.393
34097W        W  880  42.350  16.628   4.573
34098W        W  881  34.873  26.741  12.881
34099W        W  882  13.830  31.988   1.980
34100W        W  883  28.350  18.872  12.868
34101W        W  884   5.023  15.274   1.378
34102W        W  885  31.435  43.453  12.959
34103W        W  886  11.124  42.989   2.161
34104W        W  887   0.856  21.858   0.046
34105W        W  888  36.565  36.099   3.615
34106W        W  889  31.871  12.630  14.805
34107W        W  890   8.477  33.388   2.031
34108W        W  891  31.347  14.759  12.560
34109W        W  892   3.221  44.342   4.751
34110W        W  893   1.069  11.723   3.671
34111W        W  894  42.036   3.369  14.280
34112W        W  895   8.730  38.787  11.615
34113W        W  896  28.031   3.529  12.581
34114W        W  897  12.061  28.082  13.397
34115W        W  898  22.838  31.464  10.883
34116W        W  899  25.291  21.777  13.802
34117W        W  900   8.989   4.171   1.991
34118W        W  901   3.418  38.964  11.606
34119W        W  902  11.906  39.393   3.808
34120W        W  903   3.559  19.161   1.878
34121W        W  904  18.805  20.286   0.296
34122W        W  905  26.143  20.126   4.374
34123W        W  906   1.739  31.926   5.236
34124W        W  907   1.978  14.818   3.677
34125W        W  908  44.568  22.114  12.466
34126W        W  909  23.483   5.626  10.386
34127W        W  910  33.470  28.073  14.795
34128W        W  911   1.945  35.443  14.907
34129W        W  912  27.486  44.301   0.726
34130W        W  913  25.905  18.360  13.719
34131W        W  914   6.162  37.894  14.892
34132W        W  915  35.761  26.146   2.007
34133W        W  916  36.409   9.500   1.914
34134W        W  917  19.763  41.744  13.375
34135W        W  918  15.081  18.946  14.240
34136W        W  919  14.414  18.682   1.703
34137W        W  920  41.516  30.815   0.363
34138W        W  921  17.660   9.089  12.768
34139W        W  922  22.664   2.520   0.375
34140W        W  923  15.402  12.866  10.895
34141W        W  924   7.459   9.516   3.627
34142W        W  925   3.978  44.869   3.823
34143W        W  926   8.815   5.099   3.197
34144W        W  927  13.193  10.427   0.401
34145W        W  928  39.786  18.483  12.358
34146W        W  929   9.652  34.652  11.431
34147W        W  930  38.959  13.681   1.613
34148W        W  931   8.761  20.038  12.576
34149W        W  932  13.877  37.396   3.233
34150W        W  933  13.687  44.227   1.424
34151W        W  934  28.084  27.919   2.819
34152W        W  935  28.280   8.275   0.017
34153W        W  936  40.387   2.485   0.120
34154W        W  937  14.003   7.132  12.104
34155W        W  938   6.278  19.579   2.502
34156W        W  939  42.721  13.675   3.563
34157W        W  940  38.311   2.949  11.652
34158W        W  941   9.114  10.408   1.765
34159W        W  942  41.748  18.084   2.020
34160W        W  943  20.007  19.065   0.009
34161W        W  944   0.093  12.863   1.745
34162W        W  945  27.462  29.226  11.435
34163W        W  946   3.381   0.624  14.297
34164W        W  947  25.464  30.909   5.107
34165W        W  948  37.395  10.352  10.910
34166W        W  949  31.575  35.492   4.370
34167W        W  950  36.861  22.245   4.361
34168W        W  951  22.983  28.185  11.491
34169W        W  952  13.106  33.712   4.672
34170W        W  953  16.538  18.501  14.446
34171W        W  954  18.279  12.612  11.050
34172W        W  955  21.112   7.407   3.323
34173W        W  956   6.008   3.344  13.748
34174W        W  957  13.518  38.230   0.317
34175W        W  958  26.054  35.532   3.909
34176W        W  959  43.180  12.742  12.820
34177W        W  960  26.538   6.866  10.723
34178W        W  961   5.367  12.675   4.486
34179W        W  962   2.967  31.490   1.284
34180W        W  963  42.836  16.646  12.586
34181W        W  964  37.478  11.223   1.719
34182W        W  965  37.486  32.451  13.350
34183W        W  966  30.139   5.491  12.522
34184W        W  967  10.986  20.098   5.101
34185W        W  968  31.584  39.231   4.405
34186W        W  969  36.971  29.098   2.909
34187W        W  970  31.112  15.641  10.585
34188W        W  971  27.882  17.615  13.880
34189W        W  972  25.762  27.872  11.958
34190W        W  973  13.725  14.684  10.928
34191W        W  974  36.282  33.971   3.301
34192W        W  975  41.966  37.690   3.213
34193W        W  976   0.087  39.648   0.256
34194W        W  977  27.728  18.798   2.311
34195W        W  978  39.279  27.991  12.028
34196W        W  979  20.032  21.101  14.185
34197W        W  980  36.923  38.478  10.675
34198W        W  981   9.371  13.561   0.822
34199W        W  982  21.539   4.315  11.571
34200W        W  983  28.344   0.739   0.556
34201W        W  984  24.148  28.175  10.482
34202W        W  985  15.348   2.811   1.430
34203W        W  986  16.571   6.506  12.361
34204W        W  987  31.460  11.396  11.864
34205W        W  988  35.186   0.196  12.550
34206W        W  989   0.383  10.110   4.168
34207W        W  990  18.476  26.895   1.127
34208W        W  991  15.344  34.041  11.214
34209W        W  992  36.622  34.003  14.164
34210W        W  993  30.151   8.760  11.166
34211W        W  994  24.255  23.745  12.624
34212W        W  995  12.799  24.579   4.862
34213W        W  996  27.396   5.328   1.987
34214W        W  997  24.224  34.116   0.044
34215W        W  998  15.237  33.580  11.050
34216W        W  999  24.300   8.217   0.755
34217W        W 1000  19.188  43.846   0.309
34218W        W 1001  44.281  17.025  11.083
34219W        W 1002  22.670   7.626   2.885
34220W        W 1003  18.321   4.911  11.124
34221W        W 1004  10.919  39.172  14.944
34222W        W 1005   6.055  23.003  13.286
34223W        W 1006  36.092  39.751   4.541
34224W        W 1007  33.988  19.714  13.066
34225W        W 1008  32.550  17.384  11.638
34226W        W 1009  19.846  38.519  12.654
34227W        W 1010   8.750  42.221  11.126
34228W        W 1011   2.505  10.881   1.459
34229W        W 1012  40.444   2.392  13.056
34230W        W 1013   3.757  22.271  12.066
34231W        W 1014   1.515  22.515   3.136
34232W        W 1015  12.104  35.564  13.344
34233W        W 1016  36.550  30.539  14.476
34234W        W 1017  26.444  26.432   2.187
34235W        W 1018  17.580   9.732   0.777
34236W        W 1019   2.847  27.415   2.731
34237W        W 1020   4.743  31.093   1.730
34238W        W 1021  38.784  23.178   3.720
34239W        W 1022   5.350  11.282   3.768
34240W        W 1023  26.643  39.509  12.467
34241W        W 1024  21.076  28.796   4.998
34242W        W 1025  17.739  16.455   1.832
34243W        W 1026  32.998  21.250   0.441
34244W        W 1027  10.824  12.620  12.464
34245W        W 1028  39.485  24.576   1.734
34246W        W 1029  24.828  41.530   4.283
34247W        W 1030  39.823  26.225   3.747
34248W        W 1031  33.866   0.570  13.574
34249W        W 1032  12.172   4.990   2.396
34250W        W 1033  35.857  36.920   0.286
34251W        W 1034  19.161  18.281   2.858
34252W        W 1035  32.859   5.488  13.862
34253W        W 1036  29.108  43.691  12.054
34254W        W 1037  25.728  39.579  10.262
34255W        W 1038  26.144  14.791  11.074
34256W        W 1039  42.294  11.963  10.728
34257W        W 1040  14.178  43.452   1.533
34258W        W 1041  17.866  12.711   3.627
34259W        W 1042  24.196  24.539   2.752
34260W        W 1043   5.373  29.537  13.517
34261W        W 1044  15.870   5.575   0.443
34262W        W 1045  13.612   9.787   2.869
34263W        W 1046  40.298  11.890  13.847
34264W        W 1047  31.141   0.504   1.034
34265W        W 1048  41.670  11.781  13.950
34266W        W 1049  42.662  16.041  14.937
34267W        W 1050  39.796   7.592  11.307
34268W        W 1051  32.224  38.960   2.842
34269W        W 1052  16.677  42.890   1.810
34270W        W 1053   5.141   1.403   2.354
34271W        W 1054  36.807  39.059  13.301
34272W        W 1055   6.743  17.963  10.963
34273W        W 1056  35.976   8.774   0.475
34274W        W 1057  22.382  26.419   4.531
34275W        W 1058   4.417  32.590  13.547
34276W        W 1059  31.596  22.700   4.643
34277W        W 1060  30.145  10.787   1.716
34278W        W 1061  38.529  12.859   0.262
34279W        W 1062   8.398  27.007  13.295
34280W        W 1063  36.561  40.947  10.796
34281W        W 1064  42.303  39.897   0.249
34282W        W 1065  29.659  21.652  13.987
34283W        W 1066  13.621  26.893  12.604
34284W        W 1067   9.663  13.332   2.374
34285W        W 1068  12.208  20.523  14.486
34286W        W 1069  42.774  33.079  14.477
34287W        W 1070  14.057  36.967   0.645
34288W        W 1071  32.638  12.345  13.968
34289W        W 1072  36.954  42.579  10.460
34290W        W 1073  44.377  12.227  12.405
34291W        W 1074  37.840  37.083  13.574
34292W        W 1075  37.099   4.098  11.581
34293W        W 1076  26.513  35.855  13.521
34294W        W 1077  19.228  24.515  11.186
34295W        W 1078  37.434  34.040  10.634
34296W        W 1079  31.096  44.038  13.316
34297W        W 1080  42.639   0.047   3.365
34298W        W 1081  37.890   1.958   3.537
34299W        W 1082   2.507  27.951   1.729
34300W        W 1083   5.788   3.925   3.343
34301W        W 1084   8.180  33.783   0.999
34302W        W 1085  31.185  21.622  11.512
34303W        W 1086  25.961  41.186   2.611
34304W        W 1087  36.431  15.614  10.911
34305W        W 1088  32.589  17.119   4.777
34306W        W 1089  21.771  34.668  11.096
34307W        W 1090   2.722  41.939  14.495
34308W        W 1091  12.385  15.883  11.643
34309W        W 1092  38.464  34.409   3.957
34310W        W 1093  23.988  32.018  10.639
34311W        W 1094   4.287  32.044   4.374
34312W        W 1095  12.644  22.519  14.514
34313W        W 1096  31.382  22.034  11.282
34314W        W 1097  13.150  17.335   4.726
34315W        W 1098   6.839   8.172  12.919
34316W        W 1099  39.361   1.250  11.648
34317W        W 1100   7.676  19.339   4.086
34318W        W 1101  15.137  26.685  13.845
34319W        W 1102  38.383  38.349  13.474
34320W        W 1103  12.173  35.118   0.410
34321W        W 1104   4.210  29.529   4.503
34322W        W 1105  37.996  39.296  13.501
34323W        W 1106  23.886  37.395   1.865
34324W        W 1107  39.748  33.702   3.636
34325W        W 1108   1.491  20.648  10.629
34326W        W 1109  10.840  11.576   2.321
34327W        W 1110  11.952  24.176  13.571
34328W        W 1111  28.025   9.920  10.963
34329W        W 1112  32.574  35.927   0.905
34330W        W 1113  26.389  38.068  12.438
34331W        W 1114   2.422  32.097   0.761
34332W        W 1115  25.051  31.161  10.663
34333W        W 1116  14.806  20.328   4.685
34334W        W 1117   9.267  18.451   3.027
34335W        W 1118  18.717   1.242  14.355
34336W        W 1119   8.887  14.185  10.798
34337W        W 1120  20.191  25.797   3.339
34338W        W 1121  41.828  32.832  11.505
34339W        W 1122   5.176   8.988  11.283
34340W        W 1123  22.014  41.790  13.382
34341W        W 1124   2.886   9.393   3.159
34342W        W 1125  44.788  34.945   1.687
34343W        W 1126  25.970  12.620  11.986
34344W        W 1127   7.835  14.849   4.074
34345W        W 1128   1.369  39.930   0.805
34346W        W 1129  40.165  31.649   0.418
34347W        W 1130  27.617   8.770   4.518
34348W        W 1131  41.258  21.588  14.765
34349W        W 1132  41.003  15.634  11.962
34350W        W 1133  13.384  38.186  10.114
34351W        W 1134  36.960  32.491   0.949
34352W        W 1135   4.898  40.282   1.149
34353W        W 1136  34.524  11.854  14.001
34354W        W 1137  13.094  36.509  12.288
34355W        W 1138  29.670  25.827  12.041
34356W        W 1139   1.237  42.954   4.695
34357W        W 1140  13.352  28.648   2.138
34358W        W 1141   9.346  37.694  13.570
34359W        W 1142   7.540  14.776  12.858
34360W        W 1143   7.943  40.950  14.838
34361W        W 1144  44.583   8.508  13.529
34362W        W 1145  23.689  27.078  11.526
34363W        W 1146  37.761  29.099   0.259
34364W        W 1147  15.566  43.446   4.784
34365W        W 1148  30.181  39.915   0.286
34366W        W 1149   2.672  36.303   2.470
34367W        W 1150  34.106  33.752  10.708
34368W        W 1151   2.349  29.861   1.787
34369W        W 1152   5.297  11.577   2.400
34370W        W 1153   8.127   8.287  14.442
34371W        W 1154  30.555  12.071  13.372
34372W        W 1155  12.280  17.263   0.691
34373W        W 1156  19.780  15.740   3.150
34374W        W 1157  40.826   1.360  14.053
34375W        W 1158  33.921  41.012   0.703
34376W        W 1159  13.850   9.706  10.770
34377W        W 1160   4.516  19.014   1.582
34378W        W 1161  42.246  11.155   0.262
34379W        W 1162  25.488  35.040  10.689
34380W        W 1163  40.374   6.644   3.770
34381W        W 1164  29.977  19.653  12.838
34382W        W 1165  25.011  36.012  14.795
34383W        W 1166  18.897   6.436  10.654
34384W        W 1167  23.641   9.752  10.497
34385W        W 1168  26.642   3.300   9.957
34386W        W 1169  33.411   1.773  14.268
34387W        W 1170  31.034   2.660  11.099
34388W        W 1171  38.810   8.634   3.235
34389W        W 1172  21.989   0.701  10.571
34390W        W 1173  25.477  22.602   3.716
34391W        W 1174   1.474  24.609  10.743
34392W        W 1175   5.101  12.410   4.830
34393W        W 1176   0.270  38.086   4.048
34394W        W 1177   0.470   7.710  12.511
34395W        W 1178  32.407   5.972   4.161
34396W        W 1179   1.274  26.406  11.190
34397W        W 1180  19.488   3.317  10.081
34398W        W 1181  41.372  11.580   2.211
34399W        W 1182  18.052  35.459  10.626
34400W        W 1183  11.740   0.036   0.931
34401W        W 1184   0.756  35.964   1.260
34402W        W 1185  14.920   2.838  12.545
34403W        W 1186  31.697  32.914  11.327
34404W        W 1187  42.939  16.301  11.199
34405W        W 1188   6.801   0.553  10.411
34406W        W 1189   2.702  38.501  14.381
34407W        W 1190  38.923  16.159   1.890
34408W        W 1191  15.553  44.427   1.284
34409W        W 1192  41.782  41.373  14.963
34410W        W 1193   3.278  41.263  10.748
34411W        W 1194  15.759  22.344  12.077
34412W        W 1195   3.415  26.963  13.058
34413W        W 1196  40.762   8.448   3.666
34414W        W 1197  20.635  19.248  11.421
34415W        W 1198  29.474  26.227   1.039
34416W        W 1199  11.885  43.895  12.339
34417W        W 1200  16.288   8.484   2.599
34418W        W 1201  31.052   2.339   1.835
34419W        W 1202  40.136  35.847   4.586
34420W        W 1203  16.553  26.718  10.644
34421W        W 1204  18.930  27.219   3.221
34422W        W 1205  30.533  19.736  12.102
34423W        W 1206  30.779  25.840  11.167
34424W        W 1207  24.365  35.902   0.470
34425W        W 1208  23.523   8.905  12.236
34426W        W 1209  20.286  10.844  11.169
34427W        W 1210  25.839  43.189   5.470
34428W        W 1211  29.525  15.616  10.797
34429W        W 1212  16.733  37.249   0.828
34430W        W 1213  20.195  41.965   2.818
34431W        W 1214  35.080  27.194   0.079
34432W        W 1215  17.217  32.432   5.013
34433W        W 1216   8.171  22.506  13.359
34434W        W 1217   0.822  40.361  11.476
34435W        W 1218  41.012  28.869  11.549
34436W        W 1219  10.369  40.123   2.934
34437W        W 1220  17.709  31.405  12.909
34438W        W 1221  29.179  22.679   2.324
34439W        W 1222  25.845   1.827   4.060
34440W        W 1223  13.058   1.064  11.140
34441W        W 1224  33.200  42.833  13.948
34442W        W 1225  44.978  38.389   2.924
34443W        W 1226  17.566   8.645  14.533
34444W        W 1227  10.200  16.580   4.753
34445W        W 1228  24.636  10.335  14.264
34446W        W 1229   7.809  12.147   2.172
34447W        W 1230  28.673  40.870   4.980
34448W        W 1231  23.957   4.845   2.566
34449W        W 1232  41.440   3.824  14.854
34450W        W 1233  24.653  27.724   4.551
34451W        W 1234  42.832  19.461  10.383
34452W        W 1235   6.806  21.284  12.618
34453W        W 1236  28.667  29.492  13.580
34454W        W 1237  22.594  41.843   0.059
34455W        W 1238  25.893  27.625   2.212
34456W        W 1239   8.661   2.853  13.791
34457W        W 1240   7.610  39.311  11.156
34458W        W 1241  37.089   2.178   3.674
34459W        W 1242  37.599  28.737   1.323
34460W        W 1243  10.703   1.044  12.349
34461W        W 1244   5.406   6.766  12.408
34462W        W 1245   1.635  32.385   3.443
34463W        W 1246  17.755  17.077   3.617
34464W        W 1247  25.160   4.699  11.118
34465W        W 1248  21.262  37.544   4.188
34466W        W 1249   7.289   7.917  10.784
34467W        W 1250  34.882  29.848   4.645
34468W        W 1251  36.820  28.454   3.233
34469W        W 1252   0.856   1.874  11.997
34470W        W 1253  17.824   5.379   4.506
34471W        W 1254  12.241  18.116   4.522
34472W        W 1255   4.367  30.374   1.327
34473W        W 1256  17.821  35.673   2.732
34474W        W 1257  23.877   0.182  12.026
34475W        W 1258  17.775  17.281  10.402
34476W        W 1259  39.310   4.648  10.303
34477W        W 1260  10.619   3.313   1.277
34478W        W 1261   2.853   4.269  11.179
34479W        W 1262   8.723  40.258   0.486
34480W        W 1263  14.646   7.224   2.414
34481W        W 1264   6.955  10.751   2.715
34482W        W 1265   6.777  44.557  12.580
34483W        W 1266  27.684   2.479  12.760
34484W        W 1267  44.612  42.868   9.766
34485W        W 1268  12.555  23.940   2.375
34486W        W 1269   8.722   2.911   1.230
34487W        W 1270   1.452   4.834  11.496
34488W        W 1271  16.624   5.271  14.913
34489W        W 1272  23.717  39.153  10.250
34490W        W 1273  14.518  12.350  12.902
34491W        W 1274  15.177  37.991  12.953
34492W        W 1275   1.035  34.251  11.665
34493W        W 1276   4.397  25.153   0.881
34494W        W 1277  26.907  24.656   2.607
34495W        W 1278   7.781  16.295  14.393
34496W        W 1279  17.703  44.832  12.526
34497W        W 1280  25.068  37.036  12.095
34498W        W 1281   2.850  25.103   0.638
34499W        W 1282   2.784  28.162   3.860
34500W        W 1283  41.028  34.077  12.993
34501W        W 1284  39.062  40.796   2.108
34502W        W 1285  33.416  26.284   0.173
34503W        W 1286  32.614  12.065  12.644
34504W        W 1287  35.032  22.244   1.952
34505W        W 1288  10.282  12.720   4.670
34506W        W 1289  37.432  36.117   3.611
34507W        W 1290  43.876  34.836   4.818
34508W        W 1291  13.348  15.758  14.247
34509W        W 1292  13.735  23.068  14.246
34510W        W 1293  35.331  10.698  13.286
34511W        W 1294  17.164   5.662  14.274
34512W        W 1295  17.187  32.092  13.477
34513W        W 1296  44.475  10.922  14.458
34514W        W 1297   2.952  44.048  11.166
34515W        W 1298   4.407   3.900   0.848
34516W        W 1299  32.924  26.747  11.639
34517W        W 1300  11.525  28.161   4.727
34518W        W 1301   6.382   1.074  13.402
34519W        W 1302  39.037  42.033   1.518
34520W        W 1303  38.531   8.588   4.131
34521W        W 1304   1.434   2.007   1.800
34522W        W 1305  35.604   4.396   4.595
34523W        W 1306  20.853  13.281   5.435
34524W        W 1307  25.205  20.591  12.132
34525W        W 1308  22.692  37.578   4.648
34526W        W 1309  37.666   2.821  13.817
34527W        W 1310  14.543  13.309  11.920
34528W        W 1311  30.982  44.335   3.985
34529W        W 1312  11.887  23.654   3.756
34530W        W 1313  30.025  44.334  11.306
34531W        W 1314  32.333  13.859   3.200
34532W        W 1315  13.153  18.076   2.283
34533W        W 1316  29.164   9.775   4.415
34534W        W 1317  29.273  36.712   0.037
34535W        W 1318  15.809  43.004   1.348
34536W        W 1319   1.229  24.119   0.196
34537W        W 1320  35.211   5.977  14.528
34538W        W 1321  38.348  39.778   4.336
34539W        W 1322  42.906  29.018   4.026
34540W        W 1323  11.841  40.591   0.732
34541W        W 1324  33.586  23.644   4.458
34542W        W 1325  19.012  25.262   4.124
34543W        W 1326  26.439  22.464   2.850
34544W        W 1327  23.114   4.172   0.735
34545W        W 1328  37.396  24.293   1.230
34546W        W 1329  38.798   8.141  10.718
34547W        W 1330  21.576   2.331  13.834
34548W        W 1331  19.746  34.262   0.418
34549W        W 1332  23.071  17.858   2.872
34550W        W 1333  13.830  43.482  12.053
34551W        W 1334  35.360  35.018   4.183
34552W        W 1335  28.011  16.736   3.929
34553W        W 1336  15.148  42.749   5.412
34554W        W 1337  38.395   5.144   2.786
34555W        W 1338  28.014  39.122  13.611
34556W        W 1339  44.007  39.272  14.320
34557W        W 1340   2.816  30.421   3.646
34558W        W 1341  18.813   4.335  10.849
34559W        W 1342  39.478   3.777   0.552
34560W        W 1343   9.227   3.375   0.019
34561W        W 1344  41.352   6.830   0.916
34562W        W 1345   1.812  19.013  12.056
34563W        W 1346  11.107   9.618  10.765
34564W        W 1347  23.652  18.919   0.727
34565W        W 1348  21.981   5.885  11.396
34566W        W 1349  32.885   3.686  10.682
34567W        W 1350  29.223  22.141   2.585
34568W        W 1351  15.070  22.089   3.593
34569W        W 1352   6.828  18.615   3.957
34570W        W 1353  35.797  32.854   3.951
34571W        W 1354  44.414  35.880  12.463
34572W        W 1355  43.266  27.970   2.268
34573W        W 1356  17.059  42.953  14.752
34574W        W 1357  36.615  15.801  12.066
34575W        W 1358  44.919  39.239   3.653
34576W        W 1359   8.443  14.553  11.057
34577W        W 1360  21.582  35.102   3.995
34578W        W 1361  22.412   1.313  10.988
34579W        W 1362  23.639   4.024   3.277
34580W        W 1363   8.723  19.686  11.165
34581W        W 1364  27.295  30.324  14.937
34582W        W 1365  34.064  17.331   1.336
34583W        W 1366  43.960   3.210   4.879
34584W        W 1367   5.110  10.310   3.809
34585W        W 1368  29.914   2.491   2.782
34586W        W 1369   5.392   2.355  14.025
34587W        W 1370  14.600  14.684  13.854
34588W        W 1371  17.365  21.190  12.435
34589W        W 1372  20.230  31.125   1.410
34590W        W 1373  16.309  29.683   0.416
34591W        W 1374  12.801  34.066   4.916
34592W        W 1375  23.153  42.239   4.804
34593W        W 1376  33.512  39.635   1.983
34594W        W 1377  36.976  16.169  10.660
34595W        W 1378  16.485   6.436   2.157
34596W        W 1379  22.034   0.277   3.647
34597W        W 1380  24.548   2.369  10.770
34598W        W 1381  13.800  24.535  10.667
34599W        W 1382   0.345  21.524  13.960
34600W        W 1383  38.906  18.170  10.983
34601W        W 1384  32.482  21.017   1.178
34602W        W 1385   3.340   3.188   1.457
34603W        W 1386  40.059   0.463   4.234
34604W        W 1387  18.838   1.033  14.813
34605W        W 1388  15.833  23.730  13.259
34606W        W 1389  16.156  35.145   0.948
34607W        W 1390   2.250  34.891  10.785
34608W        W 1391  14.005  31.505   2.411
34609W        W 1392  29.834  21.484   2.847
34610W        W 1393  16.684  31.097   4.114
34611W        W 1394  16.565  43.975   2.699
34612W        W 1395   8.899  12.638  14.420
34613W        W 1396  31.710   6.315  12.404
34614W        W 1397  29.664   9.703  12.857
34615W        W 1398  12.140   4.864  12.477
34616W        W 1399  14.620  36.123  11.711
34617W        W 1400  18.199  12.613   0.780
34618W        W 1401   0.063   5.476   1.195
34619W        W 1402  33.595  22.723   0.816
34620W        W 1403  33.363  27.582   4.434
34621W        W 1404   8.021  25.587   4.253
34622W        W 1405  23.637   0.692  10.800
34623W        W 1406  24.529  38.370   4.613
34624W        W 1407  21.987   6.975  10.548
34625W        W 1408   6.806  12.143   2.315
34626W        W 1409  32.667  40.369   4.714
34627W        W 1410  33.866  11.248  14.271
34628W        W 1411  13.741   2.268   4.738
34629W        W 1412   6.201  19.528  12.554
34630W        W 1413  19.993  25.253  13.079
34631W        W 1414  10.847   0.347   2.262
34632W        W 1415  35.350   4.998  13.460
34633W        W 1416  12.673   4.884  12.561
34634W        W 1417  33.445  14.234   2.230
34635W        W 1418   6.612  37.789   2.396
34636W        W 1419   7.602  25.068  12.027
34637W        W 1420   2.730  42.977   4.567
34638W        W 1421  43.062   3.870  11.292
34639W        W 1422  26.294  29.582  14.818
34640W        W 1423   8.055   5.393   1.278
34641W        W 1424  32.944  24.746   5.525
34642W        W 1425  19.489  42.412   2.917
34643W        W 1426   4.763   1.169  11.551
34644W        W 1427   3.807  38.072   3.888
34645W        W 1428   0.019   6.380   3.282
34646W        W 1429  36.816   4.337  11.180
34647W        W 1430  10.910   7.045   3.709
34648W        W 1431  26.222  37.654   1.743
34649W        W 1432  44.009  24.598  13.869
34650W        W 1433   8.253  11.732  12.068
34651W        W 1434  17.360  15.590  14.990
34652W        W 1435  26.146  28.149   3.643
34653W        W 1436  16.808  17.093  11.196
34654W        W 1437   1.740  23.246  12.558
34655W        W 1438  43.883  15.708  13.973
34656W        W 1439  42.093  33.930  12.082
34657W        W 1440   1.368  30.598   1.640
34658W        W 1441   6.687   2.769  13.961
34659W        W 1442  40.024  14.272   1.990
34660W        W 1443  39.511  30.875   2.294
34661W        W 1444  19.035  39.611  11.977
34662W        W 1445  13.590   5.592   2.744
34663W        W 1446  18.529   0.571  11.137
34664W        W 1447  38.310   4.786  14.862
34665W        W 1448  19.575  35.190   4.836
34666W        W 1449  34.698  26.842  13.358
34667W        W 1450  20.100   4.509   2.222
34668W        W 1451   0.261  12.703   0.668
34669W        W 1452  13.591  16.562   3.767
34670W        W 1453  12.450   1.283   3.756
34671W        W 1454  16.012  42.536  10.601
34672W        W 1455  36.981  23.166   0.360
34673W        W 1456  36.029  22.750   3.355
34674W        W 1457  28.407   5.014  13.355
34675W        W 1458  14.914  18.787  10.492
34676W        W 1459  38.038  34.618   4.182
34677W        W 1460  13.098  41.770   4.108
34678W        W 1461   6.828  11.688  12.561
34679W        W 1462  18.920  34.532  12.853
34680W        W 1463  17.232  40.040   4.562
34681W        W 1464  31.901  13.096  14.018
34682W        W 1465  24.916  43.852   2.260
34683W        W 1466  38.570  15.881  11.957
34684W        W 1467  11.805   9.102  13.441
34685W        W 1468   1.020   8.333   1.902
34686W        W 1469  21.154  28.717   3.201
34687W        W 1470  30.914  26.129  13.050
34688W        W 1471  28.109  29.107   1.062
34689W        W 1472  19.076  25.065   1.458
34690W        W 1473  39.869  37.420  11.124
34691W        W 1474  21.130  26.781  10.195
34692W        W 1475  36.117  37.044  11.214
34693W        W 1476  18.635  32.134   4.552
34694W        W 1477   3.526   7.840  12.925
34695W        W 1478  18.780  12.391  11.877
34696W        W 1479  39.817  20.245  11.095
34697W        W 1480   8.678  22.282  12.598
34698W        W 1481  14.718   8.548   2.668
34699W        W 1482   2.645  40.989   3.591
34700W        W 1483  23.616   5.980   3.800
34701W        W 1484  25.648   0.239   2.336
34702W        W 1485  18.821  39.553   2.654
34703W        W 1486  22.053  16.438   1.898
34704W        W 1487  16.235   5.717  12.936
34705W        W 1488  37.320  27.849  11.030
34706W        W 1489  10.870   6.398  14.558
34707W        W 1490  34.287  32.231  14.378
34708W        W 1491   3.385  15.248   1.176
34709W        W 1492  21.933  32.523  12.644
34710W        W 1493  12.258   2.387   0.246
34711W        W 1494  43.618  27.026  14.003
34712W        W 1495  31.466   4.888   3.198
34713W        W 1496  32.433   3.896  12.340
34714W        W 1497  23.931  33.433   2.822
34715W        W 1498  18.411  36.968   3.829
34716W        W 1499  21.063   4.742   2.841
34717W        W 1500  35.957   8.090   2.756
34718W        W 1501  22.135  36.018   4.864
34719W        W 1502   8.636  32.441  12.397
34720W        W 1503  21.250  10.189  12.808
34721W        W 1504  31.896  15.496   2.135
34722W        W 1505  44.754   0.048   0.386
34723W        W 1506  35.179  38.828  12.191
34724W        W 1507  16.679  14.140   0.870
34725W        W 1508  39.786  44.484   3.171
34726W        W 1509   0.299  10.595   0.264
34727W        W 1510  11.645  16.899   1.852
34728W        W 1511  11.659  36.304   2.198
34729W        W 1512  37.958  19.604  14.827
34730W        W 1513  34.955   2.428  12.787
34731W        W 1514  15.075  35.426   3.738
34732W        W 1515  27.438  30.496  14.045
34733W        W 1516  33.075  19.572  14.060
34734W        W 1517  25.988   1.798   1.734
34735W        W 1518  12.575   1.837  14.377
34736W        W 1519   0.325  24.115   0.410
34737W        W 1520  18.825  13.619  10.663
34738W        W 1521  43.879  29.736  12.846
34739W        W 1522   5.207  25.193   1.317
34740W        W 1523  20.730   5.302  12.682
34741W        W 1524  33.400  10.370  14.485
34742W        W 1525   9.881  38.397  12.434
34743W        W 1526   5.887   3.652   2.914
34744W        W 1527  19.024  17.508  10.220
34745W        W 1528  44.110  35.506   1.964
34746W        W 1529  18.461  29.938  14.866
34747W        W 1530  42.999  12.564   1.314
34748W        W 1531  44.880  22.458  10.797
34749W        W 1532   8.295  15.873  11.420
34750W        W 1533  44.947  19.550  13.032
34751W        W 1534  28.744  41.875   2.622
34752W        W 1535  26.969  43.560  12.464
34753W        W 1536  40.348  41.541   2.949
34754W        W 1537   5.189  23.072  11.698
34755W        W 1538  12.211   3.975  10.683
34756W        W 1539   8.531  44.200  14.225
34757W        W 1540  18.415  39.814  13.143
34758W        W 1541   9.785  38.382   0.254
34759W        W 1542  36.923  21.949   4.791
34760W        W 1543   7.467   3.346   4.588
34761W        W 1544  38.349  21.553  14.807
34762W        W 1545  23.614  18.016  13.975
34763W        W 1546  15.378  21.599   4.318
34764W        W 1547  27.666  24.080   2.826
34765W        W 1548  13.427  34.609   0.431
34766W        W 1549  20.239   4.490  11.087
34767W        W 1550  23.762  40.411   5.056
34768W        W 1551  32.172  12.581  12.996
34769W        W 1552  41.840  41.942   0.659
34770W        W 1553   8.204   1.244   4.494
34771W        W 1554   7.967   2.705  12.015
34772W        W 1555   2.325  35.117   3.292
34773W        W 1556  15.190  43.217   0.788
34774W        W 1557  12.143  12.627  10.684
34775W        W 1558  36.657  41.896   2.378
34776W        W 1559   8.648  19.566  14.768
34777W        W 1560  23.156   5.785  12.122
34778W        W 1561  31.580  43.052   2.892
34779W        W 1562  38.906  33.514   3.712
34780W        W 1563  31.450  32.523  14.697
34781W        W 1564  11.647  34.470   4.929
34782W        W 1565  35.125  37.892   4.664
34783W        W 1566  15.055  41.889   3.591
34784W        W 1567  15.199  10.604   2.389
34785W        W 1568  17.744  43.465  13.485
34786W        W 1569  19.109  38.969   2.719
34787W        W 1570  17.130  22.572   4.598
34788W        W 1571  13.583  14.629   2.953
34789W        W 1572   2.480  42.856  12.480
34790W        W 1573  19.424  24.911  14.784
34791W        W 1574  21.655  27.024   0.188
34792W        W 1575  29.244  33.077   4.840
34793W        W 1576  23.646  43.942  11.194
34794W        W 1577   0.160   7.667  10.661
34795W        W 1578  38.062  21.749  12.570
34796W        W 1579  17.267   1.978   0.303
34797W        W 1580   0.030   0.838  11.672
34798W        W 1581  24.909  32.896  11.128
34799W        W 1582  12.824  33.998  12.076
34800W        W 1583   8.322   3.837  11.122
34801W        W 1584   1.613   4.311  10.620
34802W        W 1585  42.355   0.507  13.948
34803W        W 1586  31.434  27.666  13.370
34804W        W 1587  25.604  16.827   2.826
34805W        W 1588  19.041  23.994   3.315
34806W        W 1589  15.615  16.599   4.172
34807W        W 1590   6.187  11.677  14.556
34808W        W 1591   0.886  42.499  10.663
34809W        W 1592  20.826  25.528   2.412
34810W        W 1593  33.418  10.788   4.695
34811W        W 1594  19.763   1.739   4.116
34812W        W 1595  27.018  30.745   5.024
34813W        W 1596  10.725   9.831  10.485
34814W        W 1597  44.065   2.723   4.094
34815W        W 1598   2.967  43.599  12.125
34816W        W 1599  35.110  14.276  10.954
34817W        W 1600  13.785  37.930  14.920
34818W        W 1601  25.739   3.249   4.115
34819W        W 1602  29.017  24.488   3.783
34820W        W 1603  10.484  28.453   1.782
34821W        W 1604   4.050  17.262  14.018
34822W        W 1605   5.212  35.969   1.264
34823W        W 1606  34.890  42.366  12.976
34824W        W 1607  29.612  15.866   0.444
34825W        W 1608  12.650  28.478  12.676
34826W        W 1609  38.859  41.049   0.355
34827W        W 1610  18.098  23.397  12.869
34828W        W 1611  38.766  33.166  11.916
34829W        W 1612   1.094  38.792   1.848
34830W        W 1613  42.935  21.203  12.941
34831W        W 1614  21.087  14.098   0.919
34832W        W 1615  14.618  23.932   4.487
34833W        W 1616   8.374  39.845  14.897
34834W        W 1617  23.198  35.106   0.384
34835W        W 1618   0.876  42.451   1.371
34836W        W 1619  34.698  13.636   1.469
34837W        W 1620  12.111   3.428  13.579
34838W        W 1621  21.525  28.354   3.225
34839W        W 1622  37.317  15.621  13.488
34840W        W 1623   3.859  37.013   0.970
34841W        W 1624   4.279   9.877   1.377
34842W        W 1625   7.425  43.801  12.860
34843W        W 1626  41.030   5.956   2.464
34844W        W 1627  18.988  41.121  12.097
34845W        W 1628   5.703   0.228   1.394
34846W        W 1629  33.098  35.103  11.132
34847W        W 1630  21.628  13.555  12.500
34848W        W 1631  37.448   2.369  13.046
34849W        W 1632  12.382  20.383   2.125
34850W        W 1633  30.103  14.613   4.141
34851W        W 1634  41.773  14.725   2.821
34852W        W 1635   4.079  41.917  11.718
34853W        W 1636  35.104  36.887  12.172
34854W        W 1637  28.197  21.512  12.874
34855W        W 1638  21.026  30.943   1.740
34856W        W 1639  26.657  14.621   0.841
34857W        W 1640  16.853  15.698  14.230
34858W        W 1641  43.973  34.957  12.161
34859W        W 1642  25.797  34.956   2.863
34860W        W 1643  10.615  18.647  13.026
34861W        W 1644  20.429  44.514   3.652
34862W        W 1645  43.196  39.105   1.737
34863W        W 1646  29.566  22.274   3.336
34864W        W 1647  35.640  42.709   0.894
34865W        W 1648   7.900  13.357   2.906
34866W        W 1649  43.727  10.833   2.022
34867W        W 1650  19.580  22.037  11.518
34868W        W 1651   5.002  36.901  13.461
34869W        W 1652  13.287   7.746   2.110
34870W        W 1653  13.819  38.722   4.171
34871W        W 1654  19.810  18.011   4.591
34872W        W 1655  19.253   6.072  13.202
34873W        W 1656  30.154  28.230  11.485
34874W        W 1657  12.652  23.807   1.449
34875W        W 1658  28.059   3.215   4.089
34876W        W 1659  34.437   3.455   1.264
34877W        W 1660  10.337  25.267  13.318
34878W        W 1661  12.007  21.128   4.759
34879W        W 1662  38.167   6.413  13.519
34880W        W 1663   1.691   3.141  13.850
34881W        W 1664  33.821   6.303  11.639
34882W        W 1665  13.617  12.475   2.572
34883W        W 1666  34.427  37.827   2.250
34884W        W 1667  33.449  32.439  14.033
34885W        W 1668  39.470  33.673   2.040
34886W        W 1669  24.981  24.692   2.240
34887W        W 1670  26.037  37.726  12.155
34888W        W 1671  19.657   1.825  13.575
34889W        W 1672  17.274  11.398  10.495
34890W        W 1673  38.804  24.175   4.740
34891W        W 1674  32.482  33.951   4.693
34892W        W 1675   2.973  24.286   1.712
34893W        W 1676  35.059  32.706  13.441
34894W        W 1677  15.360   3.264  13.144
34895W        W 1678  16.116  44.529   3.289
34896W        W 1679  26.057  16.559   2.673
34897W        W 1680  25.384  43.312   1.217
34898W        W 1681  24.067  31.433  11.475
34899W        W 1682  43.213  22.081  12.352
34900W        W 1683  20.974   0.463  12.472
34901W        W 1684  32.807  25.472   0.395
34902W        W 1685  12.065  20.578   0.108
34903W        W 1686  13.107  27.080  13.307
34904W        W 1687  14.533  18.711  12.858
34905W        W 1688  20.605  31.872   0.294
34906W        W 1689  10.873  22.241   4.113
34907W        W 1690  11.801  11.659  12.407
34908W        W 1691  23.753  13.670  10.774
34909W        W 1692   5.396  39.955   4.115
34910W        W 1693   7.962  16.352   4.544
34911W        W 1694  37.144  16.674   3.428
34912W        W 1695  33.711  41.007  13.187
34913W        W 1696   9.847  17.810   4.574
34914W        W 1697   6.910  17.801   3.207
34915W        W 1698  43.641  39.471   2.872
34916W        W 1699  12.038  18.206   4.047
34917W        W 1700  29.557  40.192  13.071
34918W        W 1701  38.991   2.803   3.693
34919W        W 1702  31.011  19.176  10.656
34920W        W 1703  11.763  37.534  12.972
34921W        W 1704  39.315  15.799  10.699
34922W        W 1705  37.967  38.947   4.259
34923W        W 1706  41.249  26.040   2.569
34924W        W 1707  38.592  19.998  12.922
34925W        W 1708  10.427   2.307  10.555
34926W        W 1709   5.031  10.504   5.039
34927W        W 1710   8.256   3.535  14.557
34928W        W 1711   0.348   1.550  11.139
34929W        W 1712   1.341   1.645  14.995
34930W        W 1713  27.037   2.443   4.907
34931W        W 1714   9.315  19.599  14.106
34932W        W 1715  27.047   9.613   1.297
34933W        W 1716  16.670  31.492   0.323
34934W        W 1717  44.808   1.913  11.129
34935W        W 1718  42.059  18.937  10.342
34936W        W 1719   7.335   1.018   2.427
34937W        W 1720  18.833  26.500   1.140
34938W        W 1721   5.202  10.791  11.661
34939W        W 1722  39.901  25.671  13.312
34940W        W 1723  33.146  27.953  12.315
34941W        W 1724  12.697  12.125   3.810
34942W        W 1725  34.151  40.311  11.207
34943W        W 1726  15.694  34.504  14.049
34944W        W 1727   9.556   9.703   3.066
34945W        W 1728  13.354   1.419  11.984
34946W        W 1729   2.925  26.150  12.918
34947W        W 1730   5.326  31.691  10.422
34948W        W 1731  26.137  30.936  13.624
34949W        W 1732   0.739  30.631   3.814
34950W        W 1733  28.434  14.108  13.400
34951W        W 1734  17.641  12.197   1.390
34952W        W 1735   1.317  17.471   3.270
34953W        W 1736  27.199  10.307  12.634
34954W        W 1737  18.015   1.218   1.632
34955W        W 1738  29.859  16.523   0.734
34956W        W 1739   3.247  13.615  13.077
34957W        W 1740  11.264  10.729   2.860
34958W        W 1741  12.766   8.138   3.140
34959W        W 1742  14.731  35.423  13.974
34960W        W 1743  29.379  12.874   3.150
34961W        W 1744   8.839  38.253  10.522
34962W        W 1745  36.471  42.979   5.009
34963W        W 1746  25.007  34.331  11.099
34964W        W 1747   9.813  10.845  10.675
34965W        W 1748  44.263  35.407   3.445
34966W        W 1749  19.954   3.332  12.620
34967W        W 1750  41.026  30.770  14.452
34968W        W 1751  19.189   7.571   0.245
34969W        W 1752  29.882  12.169  14.955
34970W        W 1753  31.261  42.839   4.625
34971W        W 1754  23.513  37.688   2.808
34972W        W 1755   1.333  11.069   2.692
34973W        W 1756  35.976  44.407  10.058
34974W        W 1757  36.431   2.393  11.242
34975W        W 1758  20.826   1.268   3.033
34976W        W 1759   4.059   1.369  11.151
34977W        W 1760  29.180  27.684   2.173
34978W        W 1761   7.297  30.688   1.843
34979W        W 1762  41.791   5.906   3.837
34980W        W 1763  26.241  25.646  13.478
34981W        W 1764  11.083   2.817  14.005
34982W        W 1765  30.973  26.019   2.337
34983W        W 1766  42.862   7.945  13.216
34984W        W 1767  28.710  22.240   2.733
34985W        W 1768  31.198  18.079   3.234
34986W        W 1769  29.261  44.395  13.974
34987W        W 1770  19.616  18.212  11.074
34988W        W 1771  39.054  25.321   0.053
34989W        W 1772  42.637  14.734   0.816
34990W        W 1773  25.455  38.897   0.369
34991W        W 1774  16.684  27.889   1.029
34992W        W 1775  39.077  19.612  11.137
34993W        W 1776  39.279  35.379  14.441
34994W        W 1777   6.440  14.097   0.961
34995W        W 1778   8.135  30.452   3.297
34996W        W 1779  30.975  30.608   0.411
34997W        W 1780   9.586   5.417   1.784
34998W        W 1781  12.740  10.769  13.425
34999W        W 1782  44.515   8.653   2.816
35000W        W 1783  22.207  21.137   2.887
35001W        W 1784   7.294  24.272  13.739
35002W        W 1785  25.308  23.496  11.121
35003W        W 1786  38.381   5.710  13.033
35004W        W 1787   3.529  27.513   0.551
35005W        W 1788  27.236   8.239  14.837
35006W        W 1789  23.359  39.940   9.633
35007W        W 1790  16.283  44.322  14.414
35008W        W 1791  41.521  30.041  11.646
35009W        W 1792  32.464  41.900   2.592
35010W        W 1793  22.761  22.457   3.790
35011W        W 1794  11.177  43.498  12.483
35012W        W 1795   8.878  41.052   0.051
35013W        W 1796  36.347  36.431   2.734
35014W        W 1797   8.195  35.517   1.853
35015W        W 1798  29.529  26.427   2.905
35016W        W 1799   1.017  22.274  14.091
35017W        W 1800  30.035   3.210   4.687
35018W        W 1801   4.955  24.953   3.670
35019W        W 1802   7.421  11.090   0.432
35020W        W 1803  28.970  41.455   2.422
35021W        W 1804  12.830  40.744   3.647
35022W        W 1805   5.718   6.285  11.230
35023W        W 1806  43.464  41.465   2.899
35024W        W 1807  26.531  17.231  11.209
35025W        W 1808  25.065  29.976   4.159
35026W        W 1809   7.260   5.277   4.518
35027W        W 1810  15.787  34.134  13.676
35028W        W 1811  32.482  38.930   0.319
35029W        W 1812  25.249  36.942  13.005
35030W        W 1813  16.908  21.669  14.428
35031W        W 1814  12.143  39.644   2.402
35032W        W 1815  21.475  40.212   2.394
35033W        W 1816  32.216  25.915   1.356
35034W        W 1817  16.381  34.434   4.513
35035W        W 1818  39.950  32.642   2.604
35036W        W 1819  12.285  37.730   1.905
35037W        W 1820  33.811  35.543   0.372
35038W        W 1821  36.005  16.247  10.822
35039W        W 1822  11.045  19.357   3.414
35040W        W 1823  43.356  23.513   4.934
35041W        W 1824   2.076   4.894  11.009
35042W        W 1825  12.312   9.630  14.323
35043W        W 1826  25.867   5.116   5.076
35044W        W 1827   7.713  21.559   3.131
35045W        W 1828  43.796  15.889   1.583
35046W        W 1829  41.556   7.867   3.278
35047W        W 1830  19.717  27.909   0.880
35048W        W 1831  20.088  36.529  14.231
35049W        W 1832   7.708  16.824   0.916
35050W        W 1833  23.408   6.603   1.955
35051W        W 1834  15.656  43.766  13.986
35052W        W 1835   7.350  38.957  14.824
35053W        W 1836   3.146  24.635  14.851
35054W        W 1837  17.246  42.152   3.852
35055W        W 1838  25.960   1.916  11.745
35056W        W 1839  36.030  26.859   5.057
35057W        W 1840   5.989  18.591  10.504
35058W        W 1841  24.574  31.750   1.049
35059W        W 1842  14.202  15.679   1.089
35060W        W 1843  31.953  37.772  13.866
35061W        W 1844  17.224   4.133   3.750
35062W        W 1845  36.101  19.183  11.628
35063W        W 1846   9.682  18.780   3.810
35064W        W 1847  34.615   5.704  14.143
35065W        W 1848   5.413  27.431   1.002
35066W        W 1849  16.239  38.444  10.746
35067W        W 1850  39.911  21.670   4.096
35068W        W 1851  19.662  38.533   0.818
35069W        W 1852  13.066  14.127  13.929
35070W        W 1853   0.930  41.012   2.367
35071W        W 1854   1.404  30.146  12.359
35072W        W 1855  25.179   0.469   1.323
35073W        W 1856  12.999  10.474   0.894
35074W        W 1857  42.327  11.316  12.012
35075W        W 1858   2.989  40.777  11.604
35076W        W 1859   5.050  15.980  12.012
35077W        W 1860  24.079  22.627  11.118
35078W        W 1861  29.348  16.639   3.172
35079W        W 1862  39.772  27.056  13.902
35080W        W 1863  37.385  23.177   1.251
35081W        W 1864  15.985   4.774  14.527
35082W        W 1865  20.181  44.279  11.514
35083W        W 1866  41.811  17.423   3.575
35084W        W 1867  42.748  35.132   2.829
35085W        W 1868   1.526  23.597   4.260
35086W        W 1869  23.972  43.818   2.055
35087W        W 1870  36.692   0.079   3.931
35088W        W 1871  21.763  30.064  13.345
35089W        W 1872   3.544  44.276   0.171
35090W        W 1873  44.807  28.850  12.105
35091W        W 1874  31.606  14.998   1.698
35092W        W 1875  42.723  42.879  13.788
35093W        W 1876  34.101   5.801  14.082
35094W        W 1877  16.998  42.964   3.366
35095W        W 1878   4.973  15.576  10.368
35096W        W 1879  29.504  43.942  13.826
35097W        W 1880  12.623   3.774  10.992
35098W        W 1881  24.128  27.676   2.198
35099W        W 1882   3.149   0.429   2.125
35100W        W 1883  34.138  43.568   3.079
35101W        W 1884   0.352  39.124  11.196
35102W        W 1885  41.169  33.153  12.436
35103W        W 1886   0.827   4.357  11.372
35104W        W 1887  18.693  41.712  11.583
35105W        W 1888  44.775  18.246   4.356
35106W        W 1889   0.304   1.498  13.424
35107W        W 1890  21.140  31.436   1.946
35108W        W 1891  28.452  41.331   1.784
35109W        W 1892  14.329  22.779  12.875
35110W        W 1893  36.878  34.897  11.569
35111W        W 1894  41.101  30.645  11.093
35112W        W 1895  36.723   0.313   4.404
35113W        W 1896  40.388  18.730   1.400
35114W        W 1897  12.416  43.370   2.316
35115W        W 1898  11.760  36.625  11.929
35116W        W 1899  20.900  19.060  10.658
35117W        W 1900   2.471  31.566   1.432
35118W        W 1901   8.603  32.475  12.901
35119W        W 1902   3.291  22.924  14.814
35120W        W 1903  20.057  25.780  13.054
35121W        W 1904  25.394  30.088   3.259
35122W        W 1905  23.578   8.124   3.386
35123W        W 1906  11.826   3.605  10.728
35124W        W 1907  16.132  33.474   3.240
35125W        W 1908   9.092  37.283   2.505
35126W        W 1909  23.751  30.559  12.508
35127W        W 1910   5.556  28.058   1.699
35128W        W 1911   8.624  10.297  13.021
35129W        W 1912  23.249  32.074  12.971
35130W        W 1913  39.013  16.391   0.857
35131W        W 1914  30.737  32.673  12.122
35132W        W 1915   8.445  10.744  11.847
35133W        W 1916   0.782  41.999  14.147
35134W        W 1917  16.576  40.751   1.258
35135W        W 1918  19.034  23.765  10.651
35136W        W 1919   1.687  35.735   0.381
35137W        W 1920  11.792  17.227  12.899
35138W        W 1921  44.186  39.015   3.590
35139W        W 1922   2.281  13.305   3.219
35140W        W 1923  20.949  23.812   0.654
35141W        W 1924  31.520  23.782  11.065
35142W        W 1925   2.003  33.461   0.090
35143W        W 1926  17.653  33.167  14.987
35144W        W 1927  40.149   0.493  14.436
35145W        W 1928  10.781  32.452  14.727
35146W        W 1929  44.138  37.317  10.939
35147W        W 1930  35.133  22.514   3.268
35148W        W 1931   9.977   4.450  14.425
35149W        W 1932  31.150  32.395   3.390
35150W        W 1933  42.552  30.065   4.091
35151W        W 1934  14.360  11.578   1.878
35152W        W 1935  44.073  37.395   2.663
35153W        W 1936  31.884  29.747   0.785
35154W        W 1937  12.520  36.543  11.267
35155W        W 1938  12.807  10.957  11.495
35156W        W 1939  27.049   3.175   1.243
35157W        W 1940  13.176  34.745   4.208
35158W        W 1941   0.247   2.389   1.223
35159W        W 1942  11.402  10.924   1.709
35160W        W 1943  37.573  33.530   1.776
35161W        W 1944   9.145  36.342   4.094
35162W        W 1945  38.523  14.541   2.222
35163W        W 1946   9.908  20.257   3.688
35164W        W 1947  44.291  26.433   3.625
35165W        W 1948  19.586  11.045  14.351
35166W        W 1949  42.540   7.815  13.928
35167W        W 1950  27.389  15.234   2.952
35168W        W 1951  35.050  35.532   0.059
35169W        W 1952  31.456   8.215  10.300
35170W        W 1953  11.793  32.898  11.918
35171W        W 1954   6.350  24.184   3.407
35172W        W 1955   1.327  13.551  13.388
35173W        W 1956  15.099  26.630   1.903
35174W        W 1957  44.713  36.507  13.700
35175W        W 1958   7.151   2.445   1.243
35176W        W 1959  43.437  29.609   1.252
35177W        W 1960  10.422  32.375  12.371
35178W        W 1961  18.081  10.690   1.649
35179W        W 1962  44.939  12.903  13.862
35180W        W 1963  31.110  24.269   2.716
35181W        W 1964  12.079   2.989  12.100
35182W        W 1965  38.533  32.396   0.714
35183W        W 1966   0.463   7.930   2.822
35184W        W 1967  20.779  34.991   2.315
35185W        W 1968   4.245  40.489   2.252
35186W        W 1969  38.630  22.730  12.056
35187W        W 1970  26.660   5.642   3.262
35188W        W 1971   1.452  29.562   1.848
35189W        W 1972   2.788  17.758   1.753
35190W        W 1973  40.798   5.196  12.474
35191W        W 1974  10.365  34.075   2.766
35192W        W 1975  27.275  17.671  12.955
35193W        W 1976  29.362   3.699   0.412
35194W        W 1977  39.605  25.700  11.046
35195W        W 1978  14.074   7.122  14.410
35196W        W 1979  39.678  44.754   1.929
35197W        W 1980  17.886   9.665  11.322
35198W        W 1981  37.444  12.872   2.234
35199W        W 1982  23.693  44.169  12.999
35200W        W 1983   3.200   7.159   4.630
35201W        W 1984  32.991  35.116  13.292
35202W        W 1985  25.265   2.796   2.231
35203W        W 1986   3.136  41.941  14.794
35204W        W 1987   7.598  44.432   1.831
35205W        W 1988  14.793  14.726  13.341
35206W        W 1989   5.148  39.349   0.358
35207W        W 1990  19.755  25.476   3.648
35208W        W 1991  27.083   3.877  13.693
35209W        W 1992   4.268  35.279   0.359
35210W        W 1993  28.109   6.977   4.508
35211W        W 1994  20.362  15.803  10.236
35212W        W 1995  20.296  36.974  10.751
35213W        W 1996  10.573  29.726   0.710
35214W        W 1997   5.290  38.011   1.867
35215W        W 1998  29.683   2.338   2.301
35216W        W 1999  16.048  15.891   4.124
35217W        W 2000   3.822  17.686   4.388
35218W        W 2001  40.090  20.559  13.949
35219W        W 2002  38.476   7.158   1.323
35220W        W 2003  38.794  28.603  10.671
35221W        W 2004  39.927  30.682  13.548
35222W        W 2005  28.221   4.319  13.043
35223W        W 2006   2.466  37.320  11.452
35224W        W 2007  29.951   7.118   1.772
35225W        W 2008  17.139  16.128   0.889
35226W        W 2009  36.983   3.695   1.788
35227W        W 2010   8.287  31.143  12.590
35228W        W 2011  23.983  15.306  13.970
35229W        W 2012  10.152   5.790  14.705
35230W        W 2013  41.823  25.732   0.443
35231W        W 2014  34.228  42.741   2.488
35232W        W 2015  20.534  39.500  14.646
35233W        W 2016   1.979  18.310  13.912
35234W        W 2017  25.296  27.627  14.736
35235W        W 2018  29.616  43.352   3.217
35236W        W 2019   2.770  26.107   0.621
35237W        W 2020  12.116  15.825   0.039
35238W        W 2021  41.428  27.565   3.878
35239W        W 2022  23.677  16.802  10.685
35240W        W 2023  27.187  21.138   3.484
35241W        W 2024  31.908   2.049  12.370
35242W        W 2025  41.495  25.662  13.346
35243W        W 2026  33.503  16.667  10.776
35244W        W 2027  28.440   5.396  14.859
35245W        W 2028  29.581  25.361  10.795
35246W        W 2029  31.128  43.871   4.643
35247W        W 2030   7.653  21.241  11.169
35248W        W 2031   9.515  39.595   3.194
35249W        W 2032  15.114   7.245  11.393
35250W        W 2033  36.913   8.571   0.466
35251W        W 2034   7.984  10.131  12.140
35252W        W 2035  10.228  14.193  12.281
35253W        W 2036  36.652  42.884  13.034
35254W        W 2037  42.553  22.476   2.747
35255W        W 2038  27.671  16.045   4.822
35256W        W 2039   1.361   9.885  14.319
35257W        W 2040   5.430   7.626   3.385
35258W        W 2041  44.878  11.666  13.540
35259W        W 2042  17.694  29.455  12.476
35260W        W 2043   7.824  37.950   3.913
35261W        W 2044  39.438  41.957  11.188
35262W        W 2045   6.174  44.829   2.698
35263W        W 2046  17.305  36.110  12.980
35264W        W 2047   9.876  18.135   0.730
35265W        W 2048  22.203  39.468  11.265
35266W        W 2049  16.785   0.873   1.681
35267W        W 2050  25.497  39.429  14.861
35268W        W 2051  14.317  19.127   2.413
35269W        W 2052  41.487  22.117   2.304
35270W        W 2053  30.565  37.245  10.631
35271W        W 2054   5.388  25.128   3.358
35272W        W 2055  19.321  10.303  14.941
35273W        W 2056  28.164   1.372  10.155
35274W        W 2057  31.076  39.802   1.857
35275W        W 2058   4.901  40.285  12.896
35276W        W 2059  27.801   8.277   4.349
35277W        W 2060  35.649  16.793   3.858
35278W        W 2061   9.851  31.930   3.068
35279W        W 2062   0.219  20.238  13.569
35280W        W 2063   6.224  43.016   1.016
35281W        W 2064  19.128  33.767  13.702
35282W        W 2065   6.403   1.134   1.501
35283W        W 2066  25.705   1.323  12.470
35284W        W 2067  11.081  22.669   3.290
35285W        W 2068  13.163  24.209  14.609
35286W        W 2069  11.525  40.541   3.594
35287W        W 2070  30.227  13.137  12.013
35288W        W 2071  44.669  35.620  14.625
35289W        W 2072  38.953   9.313  14.417
35290W        W 2073  29.739  20.148  14.269
35291W        W 2074  39.392  41.096  12.483
35292W        W 2075  14.316  26.509  13.309
35293W        W 2076  37.482   6.179   2.214
35294W        W 2077  30.928  40.294   1.768
35295W        W 2078  17.650   2.180   3.228
35296W        W 2079   2.867  38.026   1.469
35297W        W 2080   1.439  12.338   1.967
35298W        W 2081   3.444   6.855  13.951
35299W        W 2082  22.651   6.295   3.370
35300W        W 2083  39.252   9.226  13.436
35301W        W 2084  21.037  19.182   3.215
35302W        W 2085  17.544   3.844   4.976
35303W        W 2086  21.511  29.019   3.506
35304W        W 2087   4.041  31.453  11.120
35305W        W 2088   0.378  10.612   4.095
35306W        W 2089   3.670   9.133  13.965
35307W        W 2090   7.846   2.835   1.283
35308W        W 2091  12.669  27.988  10.466
35309W        W 2092  24.958  10.172  11.226
35310W        W 2093  17.130   1.248  11.511
35311W        W 2094  29.555  18.758  10.253
35312W        W 2095  28.787  21.882  13.312
35313W        W 2096  17.408  26.585  12.658
35314W        W 2097  40.866   9.831   4.624
35315W        W 2098  17.400   3.318   4.112
35316W        W 2099   5.337  34.170  11.124
35317W        W 2100  38.628   8.641  10.666
35318W        W 2101  20.536  40.370   1.487
35319W        W 2102  41.767  33.666   2.231
35320W        W 2103  39.931  36.971  13.789
35321W        W 2104  20.572  30.940   0.372
35322W        W 2105  44.217  17.756   4.156
35323W        W 2106  15.534   7.804  10.766
35324W        W 2107  37.077   4.823  11.093
35325W        W 2108  20.204   3.877  13.893
35326W        W 2109   1.500  33.827  12.350
35327W        W 2110  38.114  36.495   2.418
35328W        W 2111  12.037   0.182  13.900
35329W        W 2112   9.156  36.933  12.394
35330W        W 2113  14.422  38.799  11.796
35331W        W 2114   4.416  35.975   4.611
35332W        W 2115  21.488  18.257   3.290
35333W        W 2116  38.092  31.155  13.407
35334W        W 2117  12.328  25.988   1.244
35335W        W 2118  29.451  35.147   2.744
35336W        W 2119  31.504  20.005   4.635
35337W        W 2120  41.246  34.548  12.914
35338W        W 2121  10.873  27.633   2.038
35339W        W 2122   3.835   7.597  10.889
35340W        W 2123  31.225   1.408  10.400
35341W        W 2124  21.504  21.536   3.655
35342W        W 2125  34.164   7.499   3.304
35343W        W 2126  29.479  13.916   4.197
35344W        W 2127  26.250  26.545   2.907
35345W        W 2128  27.180   3.700  11.522
35346W        W 2129   6.795  41.675   4.825
35347W        W 2130  42.813  22.197  13.282
35348W        W 2131  17.798   8.384  10.702
35349W        W 2132   7.895  30.027  14.933
35350W        W 2133  14.511   8.821   4.661
35351W        W 2134  24.686  23.148  12.122
35352W        W 2135  34.680  44.064  13.815
35353W        W 2136  12.320  19.569   0.314
35354W        W 2137  36.858  26.602   2.375
35355W        W 2138  24.405  41.275  12.733
35356W        W 2139  22.203  17.574  11.844
35357W        W 2140  17.037   3.696   4.966
35358W        W 2141   3.866   8.905  11.947
35359W        W 2142  10.656   8.920  11.425
35360W        W 2143   4.890  16.660   4.640
35361W        W 2144  24.135  23.932   9.839
35362W        W 2145   3.771  25.373  14.443
35363W        W 2146  36.052   6.588  12.856
35364W        W 2147  16.150  10.354  13.484
35365W        W 2148  16.659  34.674  12.931
35366W        W 2149  40.950  40.910   1.390
35367W        W 2150  32.229  30.746  11.109
35368W        W 2151  34.818  43.311   3.732
35369W        W 2152  16.758   5.950   2.736
35370W        W 2153  31.090  38.825  13.534
35371W        W 2154   5.286   3.228  10.514
35372W        W 2155  22.764  30.382   1.716
35373W        W 2156  32.388   9.267   3.600
35374W        W 2157  25.071  30.651  10.540
35375W        W 2158  10.709  20.582  11.727
35376W        W 2159  27.641  40.521  10.756
35377W        W 2160   9.287  14.408  14.277
35378W        W 2161  19.199  33.469   1.559
35379W        W 2162   1.273  19.172   2.229
35380W        W 2163  44.345  17.666   3.680
35381W        W 2164  20.577   2.382   9.789
35382W        W 2165  17.287  11.636   0.776
35383W        W 2166  12.623   1.878  11.538
35384W        W 2167   1.367  36.543   1.309
35385W        W 2168   1.328   5.863  12.037
35386W        W 2169  32.296  17.426   5.074
35387W        W 2170  26.092  44.930  12.517
35388W        W 2171  34.575  32.619   4.088
35389W        W 2172  23.094  28.160   1.491
35390W        W 2173  17.274  20.301  13.239
35391W        W 2174  15.273  33.390  13.413
35392W        W 2175   3.899  41.832  11.251
35393W        W 2176  40.858  26.899   2.864
35394W        W 2177  24.697  24.760  14.411
35395W        W 2178  12.693  22.507   2.450
35396W        W 2179   0.615  23.050   3.533
35397W        W 2180  14.166  24.695  14.839
35398W        W 2181  24.091  15.463   3.225
35399W        W 2182   0.379  11.237  12.068
35400W        W 2183  25.082  44.010  12.356
35401W        W 2184  30.702  18.362  10.710
35402W        W 2185   9.826  32.344   1.199
35403W        W 2186  43.035  14.306  10.014
35404W        W 2187  19.772  41.994  13.833
35405W        W 2188   8.239  28.406  13.474
35406W        W 2189  26.020   7.959   1.755
35407W        W 2190  14.259  42.222  14.184
35408W        W 2191  15.465  41.845  11.120
35409W        W 2192   5.474   1.783   4.539
35410W        W 2193   9.498  27.411   0.265
35411W        W 2194  31.987  36.830   4.666
35412W        W 2195  34.349  21.773  14.165
35413W        W 2196  30.151  35.035  13.010
35414W        W 2197  13.182  38.038  13.789
35415W        W 2198  28.518  41.390  14.483
35416W        W 2199   0.754  18.290  14.365
35417W        W 2200  16.071   3.805   3.525
35418W        W 2201  13.744  10.790  14.299
35419W        W 2202   3.286  27.492  11.999
35420W        W 2203  29.489  12.249  11.172
35421W        W 2204  37.027  11.258   0.937
35422W        W 2205  28.974  26.076   2.692
35423W        W 2206   4.766  34.038  12.810
35424W        W 2207  31.210  35.352   3.582
35425W        W 2208  26.661  13.534   2.393
35426W        W 2209  44.485   6.801   2.682
35427W        W 2210  17.578  20.735   3.692
35428W        W 2211  15.862   4.808   4.545
35429W        W 2212  28.522  40.457   3.083
35430W        W 2213  13.194  10.686   1.659
35431W        W 2214   6.658   7.812   2.655
35432W        W 2215  33.644  42.223  14.776
35433W        W 2216  15.715  28.506   0.473
35434W        W 2217  11.450  33.807  12.429
35435W        W 2218  44.816   9.239   3.554
35436W        W 2219   2.268  37.497   4.190
35437W        W 2220  18.652   2.725   4.064
35438W        W 2221  38.572  17.656   3.443
35439W        W 2222  41.867  33.585  10.558
35440W        W 2223  43.366  32.781   3.985
35441W        W 2224  32.304  38.536   4.928
35442W        W 2225  30.348  32.865  13.112
35443W        W 2226  42.038  30.015  12.035
35444W        W 2227  20.355  20.911   5.052
35445W        W 2228  11.795  14.618  14.062
35446W        W 2229   2.954  32.621   0.299
35447W        W 2230   2.218  38.172  11.163
35448W        W 2231   7.541   7.395   1.930
35449W        W 2232   6.427  22.707   2.920
35450W        W 2233  25.920   6.011  13.447
35451W        W 2234   2.349  28.348  13.649
35452W        W 2235  40.035  29.466   4.734
35453W        W 2236  19.259  41.873  11.657
35454W        W 2237   2.229  22.643   2.787
35455W        W 2238   3.809  36.863   0.462
35456W        W 2239  32.169   6.393  10.741
35457W        W 2240  26.159  38.376  14.718
35458W        W 2241  17.661  31.389  13.835
35459W        W 2242  33.901  18.244  11.164
35460W        W 2243  36.497  38.198  12.875
35461W        W 2244  16.756   2.211  12.951
35462W        W 2245  19.518   7.774   3.760
35463W        W 2246  11.279  19.298  14.116
35464W        W 2247  16.243  25.549  14.495
35465W        W 2248  28.523  27.609   2.854
35466W        W 2249  21.172  36.078   0.567
35467W        W 2250  23.235  23.642   3.687
35468W        W 2251  19.207  29.495   2.249
35469W        W 2252  12.524  25.973  13.463
35470W        W 2253  26.116   3.554   0.206
35471W        W 2254  27.415  32.725   4.163
35472W        W 2255  36.389   2.274   4.182
35473W        W 2256  13.873  34.690   2.299
35474W        W 2257  31.429  34.161  13.114
35475W        W 2258  25.462  40.816  13.363
35476W        W 2259  44.382  26.358   2.340
35477W        W 2260  41.363  28.968  14.341
35478W        W 2261  36.951   7.745   0.183
35479W        W 2262   4.995  33.487  14.872
35480W        W 2263  22.713  10.762   1.273
35481W        W 2264  33.822  14.198   3.215
35482W        W 2265  40.569  37.198  12.906
35483W        W 2266  41.667   5.742   4.312
35484W        W 2267   7.246  24.432   1.835
35485W        W 2268  35.894  42.250   0.954
35486W        W 2269  43.871   7.227   3.371
35487W        W 2270  13.924  30.633  11.952
35488W        W 2271  12.641  23.479   4.579
35489W        W 2272  38.587  42.890   1.807
35490W        W 2273  20.725  27.333   1.717
35491W        W 2274  18.059  21.995  14.300
35492W        W 2275  19.524  39.073  13.546
35493W        W 2276   5.145  30.507   2.351
35494W        W 2277   4.884   5.627   2.306
35495W        W 2278  31.612  14.528  14.498
35496W        W 2279  35.115  20.278  12.936
35497W        W 2280  28.437  15.753   3.133
35498W        W 2281  12.044  36.612  14.502
35499W        W 2282  33.980  14.397   1.451
35500W        W 2283   9.187  35.850  13.393
35501W        W 2284  29.097  30.931  14.957
35502W        W 2285  44.344  21.706  13.842
35503W        W 2286   9.877  36.155  14.725
35504W        W 2287  20.611  34.213  13.407
35505W        W 2288  25.036  28.198  12.459
35506W        W 2289   8.199  18.152  11.156
35507W        W 2290   2.073  38.349   0.883
35508W        W 2291  43.548  12.589  11.575
35509W        W 2292   8.156   6.274   0.339
35510W        W 2293  32.590   7.671   2.256
35511W        W 2294  33.456  37.013   2.397
35512W        W 2295  11.766  29.414  13.085
35513W        W 2296  31.484  23.280  11.136
35514W        W 2297  25.050  30.949   1.400
35515W        W 2298  18.583  44.591  13.068
35516W        W 2299  29.573   3.204  12.510
35517W        W 2300  31.559   1.341   0.949
35518W        W 2301  24.701  25.499   4.404
35519W        W 2302  18.065  30.687  11.678
35520W        W 2303  18.563  28.932   1.950
35521W        W 2304  10.716  38.455  11.625
35522W        W 2305  32.139  21.452  13.607
35523W        W 2306  39.467  26.868  14.520
35524W        W 2307  27.181  12.782   2.193
35525W        W 2308  36.684  30.581  13.967
35526W        W 2309  26.021   8.738  14.986
35527W        W 2310  19.095  42.552  11.049
35528W        W 2311  40.623  16.801  11.336
35529W        W 2312  15.038  17.956  12.515
35530W        W 2313  36.332  31.978   1.529
35531W        W 2314   1.889  18.458  12.968
35532W        W 2315  28.598  37.971  14.074
35533W        W 2316  43.072  40.528   1.726
35534W        W 2317  32.417  40.845   0.951
35535W        W 2318   2.451  42.359   4.687
35536W        W 2319  11.289  22.015  11.936
35537W        W 2320   5.105  41.243   1.947
35538W        W 2321  34.980   7.428   4.668
35539W        W 2322  13.866  26.528   1.356
35540W        W 2323   2.841   3.062  12.963
35541W        W 2324  34.590  17.694   2.157
35542W        W 2325  32.375  17.444   0.273
35543W        W 2326  23.788  12.647  11.612
35544W        W 2327   4.967  18.267   2.895
35545W        W 2328  33.171  26.671  12.823
35546W        W 2329   4.298  27.386   1.404
35547W        W 2330  20.456  39.455  11.491
35548W        W 2331   2.479  30.052   0.596
35549W        W 2332  21.731  21.630  13.440
35550W        W 2333   7.503  24.640   2.704
35551W        W 2334  23.579  29.237  11.956
35552W        W 2335  43.847   5.484   1.182
35553W        W 2336   3.015  18.658   3.297
35554W        W 2337  29.566  39.063   2.184
35555W        W 2338   2.422  37.769  13.420
35556W        W 2339  42.097   2.821  12.550
35557W        W 2340  30.283  21.601  10.627
35558W        W 2341  44.788  35.824  13.090
35559W        W 2342   8.289  25.437  12.405
35560W        W 2343  20.783   9.915  11.166
35561W        W 2344   9.537  28.172  13.561
35562W        W 2345  29.744   9.749   4.546
35563W        W 2346  28.627   9.715   2.728
35564W        W 2347   6.080  33.637  10.115
35565W        W 2348  38.335  21.908   0.792
35566W        W 2349   7.219  44.458   0.777
35567W        W 2350   6.380  21.851  10.520
35568W        W 2351  33.203  19.391  14.914
35569W        W 2352  25.788   1.092  13.442
35570W        W 2353   4.750   9.645   1.355
35571W        W 2354  36.611   6.038  12.204
35572W        W 2355   7.391  44.042  14.318
35573W        W 2356  39.493  13.277  13.046
35574W        W 2357  14.369  41.786   1.772
35575W        W 2358  31.436  25.555   1.753
35576W        W 2359  22.150  22.813  10.602
35577W        W 2360   6.631  29.611   2.382
35578W        W 2361  31.954   6.215   0.496
35579W        W 2362  35.108  43.273  10.649
35580W        W 2363  41.798  21.495   5.047
35581W        W 2364  19.172  43.761   2.355
35582W        W 2365  20.092  44.523   3.249
35583W        W 2366  10.594   7.275   3.326
35584W        W 2367   6.325   3.425  14.159
35585W        W 2368  34.761  29.142  13.920
35586W        W 2369  42.283  21.631  14.780
35587W        W 2370   9.856  34.671   0.722
35588W        W 2371  35.376  34.832  12.376
35589W        W 2372  43.899  26.169   1.888
35590W        W 2373  17.631   4.844  10.848
35591W        W 2374  15.159  22.045   4.535
35592W        W 2375  10.225   0.068  14.559
35593W        W 2376  35.857   8.978   2.358
35594W        W 2377  42.949   4.820   2.848
35595W        W 2378  31.912  20.535  12.132
35596W        W 2379   3.776  36.592  15.000
35597W        W 2380  16.252  24.712   4.235
35598W        W 2381  14.119  34.845  10.546
35599W        W 2382  44.989  14.416  11.529
35600W        W 2383   6.149  30.053   4.915
35601W        W 2384  20.637  29.693  13.040
35602W        W 2385  24.799   2.190  14.268
35603W        W 2386  17.645  43.962   4.586
35604W        W 2387  44.739  20.572   0.763
35605W        W 2388   4.694  38.594   2.274
35606W        W 2389  15.983  21.670  13.518
35607W        W 2390   5.784  10.393   0.779
35608W        W 2391  19.193  10.922  11.943
35609W        W 2392  11.871  11.233  10.629
35610W        W 2393  16.855  19.321  12.083
35611W        W 2394   6.448  39.485   0.704
35612W        W 2395  31.534   4.369  12.026
35613W        W 2396  33.636   5.435   4.151
35614W        W 2397  28.871   1.936  12.474
35615W        W 2398  27.926  16.021   2.088
35616W        W 2399  41.759  29.958   1.768
35617W        W 2400  27.769  18.516   1.352
35618W        W 2401  44.074  44.273  11.626
35619W        W 2402  32.569  43.081  11.505
35620W        W 2403  26.472  17.742  14.095
35621W        W 2404   0.017  17.286  12.521
35622W        W 2405  20.943   3.437   2.247
35623W        W 2406   8.591  44.472   0.749
35624W        W 2407  43.827  42.696  12.952
35625W        W 2408  30.887  32.443  13.852
35626W        W 2409  26.841   2.933  12.044
35627W        W 2410  43.822  27.446  14.977
35628W        W 2411  29.934   3.505   2.723
35629W        W 2412  15.516   6.206   4.168
35630W        W 2413  23.569   5.257   0.385
35631W        W 2414  31.179  22.758   4.355
35632W        W 2415   2.588  30.019   2.744
35633W        W 2416  30.496  30.094  12.958
35634W        W 2417  35.709   5.711   1.339
35635W        W 2418  20.753  15.408   3.774
35636W        W 2419  35.965  38.148   3.273
35637W        W 2420  30.248  31.896   4.020
35638W        W 2421   7.311  43.307  11.500
35639W        W 2422   8.731  37.825   0.215
35640W        W 2423   5.646  15.249   0.801
35641W        W 2424  10.267   7.682   3.148
35642W        W 2425   2.694  28.593   3.576
35643W        W 2426   3.906  37.553   5.094
35644W        W 2427  35.103  27.392   2.303
35645W        W 2428   9.708   2.830  13.758
35646W        W 2429  21.830   8.893   3.253
35647W        W 2430  34.878  35.753   1.869
35648W        W 2431  29.964  41.311  13.400
35649W        W 2432  28.090  32.538   2.670
35650W        W 2433   9.097  16.691   3.111
35651W        W 2434  25.153   7.502  11.548
35652W        W 2435  36.506  14.868   0.404
35653W        W 2436   9.675  28.160   3.612
35654W        W 2437  14.062  30.481  13.830
35655W        W 2438  40.450  43.401   1.354
35656W        W 2439  22.118  13.348  13.589
35657W        W 2440   8.158  39.826  11.153
35658W        W 2441  29.987  20.049  12.463
35659W        W 2442  16.046  41.162   0.861
35660W        W 2443  18.069  26.968  12.124
35661W        W 2444  44.471  30.587  14.511
35662W        W 2445  42.318  25.328  11.046
35663W        W 2446   5.393   0.492   2.807
35664W        W 2447   0.564  41.563  12.542
35665W        W 2448  23.476  36.126   0.320
35666W        W 2449  36.115  35.892   3.460
35667W        W 2450  37.904  29.933   2.183
35668W        W 2451  30.688   8.385  10.616
35669W        W 2452  30.006   6.783  14.957
35670W        W 2453  44.936  30.168   0.600
35671W        W 2454  37.404  20.537  14.209
35672W        W 2455  36.978  12.270   3.794
35673W        W 2456  17.252  17.615   0.810
35674W        W 2457   5.177  30.099   1.715
35675W        W 2458  16.108  31.629   1.352
35676W        W 2459  29.142   2.786   3.336
35677W        W 2460  14.786  39.965   3.531
35678W        W 2461  22.902   1.421  11.064
35679W        W 2462   6.649  44.893  14.406
35680W        W 2463  39.302   9.144   0.526
35681W        W 2464  21.819  36.110   1.270
35682W        W 2465  20.051  37.061  11.201
35683W        W 2466  31.613   2.780  14.317
35684W        W 2467  29.136  33.579  10.741
35685W        W 2468  18.320  44.939   1.747
35686W        W 2469  12.343  21.249  11.517
35687W        W 2470  24.260  33.356   4.157
35688W        W 2471   6.347  11.184   2.921
35689W        W 2472  23.469  12.102   3.178
35690W        W 2473  37.374   2.984   3.458
35691W        W 2474  36.360   9.572  12.495
35692W        W 2475  21.743  17.177  10.557
35693W        W 2476  32.003  17.925  10.199
35694W        W 2477  42.884  12.479   2.223
35695W        W 2478   6.380   9.414  11.598
35696W        W 2479   7.755  10.521  12.792
35697W        W 2480   5.703  35.946   1.455
35698W        W 2481  32.637  36.878   3.190
35699W        W 2482  13.543  18.279   1.135
35700W        W 2483   0.206  15.852   1.858
35701W        W 2484   0.011  32.026  12.235
35702W        W 2485  16.541  36.355  13.409
35703W        W 2486  43.987  19.146   3.713
35704W        W 2487  17.808  44.921   1.780
35705W        W 2488  34.517  22.767   1.376
35706W        W 2489  15.122   1.304   4.133
35707W        W 2490  42.822  27.612  13.007
35708W        W 2491  33.457  35.911  11.546
35709W        W 2492  34.154  23.627   0.859
35710W        W 2493  29.955  44.832   4.483
35711W        W 2494  37.165   8.008   3.865
35712W        W 2495  14.255   5.871  14.729
35713W        W 2496  27.608   8.889   1.129
35714W        W 2497  31.057  36.754  13.535
35715W        W 2498  30.963  37.351  12.699
35716W        W 2499  22.644  29.889   1.930
35717W        W 2500  41.388  15.599   1.485
35718W        W 2501  28.901  15.708   3.867
35719W        W 2502  18.183  27.554  12.869
35720W        W 2503  13.813   8.611   2.834
35721W        W 2504   2.465  44.526   0.769
35722W        W 2505  12.108  36.343   3.481
35723W        W 2506  10.764  37.505   0.919
35724W        W 2507  13.327  12.566   3.747
35725W        W 2508  34.457   9.038  12.977
35726W        W 2509  20.640  18.635   4.536
35727W        W 2510  34.348  16.653  13.482
35728W        W 2511   4.369   2.700  14.054
35729W        W 2512  31.449  41.876   4.328
35730W        W 2513  42.510   4.361  13.495
35731W        W 2514  26.523  42.341   3.155
35732W        W 2515  33.112  36.374  14.340
35733W        W 2516   0.031  39.426  10.936
35734W        W 2517  39.071  31.928  11.579
35735W        W 2518  40.899  22.141  11.106
35736W        W 2519  36.430  20.116   4.212
35737W        W 2520  34.629   2.557  13.402
35738W        W 2521  36.645   7.391  12.106
35739W        W 2522  38.336  20.111  11.948
35740W        W 2523  14.649  22.266   3.154
35741W        W 2524  41.757  10.932   0.356
35742W        W 2525  12.695  41.251   1.246
35743W        W 2526  41.724  43.602  13.413
35744W        W 2527  12.243  22.743   4.118
35745W        W 2528  33.643  24.236   1.419
35746W        W 2529  22.762  18.144   0.744
35747W        W 2530  26.511   6.247  12.964
35748W        W 2531  20.112  29.485  12.453
35749W        W 2532  39.870  28.637  11.453
35750W        W 2533   2.907  39.508  14.171
35751W        W 2534  20.665  38.155   4.399
35752W        W 2535  15.904  11.789  11.143
35753W        W 2536  19.610  43.882  11.014
35754W        W 2537  23.098  34.905  10.638
35755W        W 2538   3.021  27.561  10.693
35756W        W 2539   6.112  37.712  11.497
35757W        W 2540   1.834  14.498  14.248
35758W        W 2541  19.145  30.666   4.606
35759W        W 2542  15.213  11.218   4.121
35760W        W 2543   2.492   7.954   0.434
35761W        W 2544  17.632   0.384  10.710
35762W        W 2545  12.152   0.719   4.455
35763W        W 2546  40.008  11.843  13.414
35764W        W 2547  26.561  35.556   4.037
35765W        W 2548  39.619  26.134   1.178
35766W        W 2549  24.565   8.316  11.964
35767W        W 2550   0.462   0.703  13.901
35768W        W 2551  15.948   8.102   2.458
35769W        W 2552  17.339  22.208   3.834
35770W        W 2553  12.189  30.163  13.049
35771W        W 2554  41.743   1.995  13.824
35772W        W 2555  34.597  26.969   4.698
35773W        W 2556   7.863  10.269  11.257
35774W        W 2557   7.436  40.980   4.501
35775W        W 2558  15.684   4.663   1.825
35776W        W 2559  28.989  15.757  14.980
35777W        W 2560  19.253  33.417  12.177
35778W        W 2561  11.289   3.010  12.575
35779W        W 2562  35.006  35.913  12.442
35780W        W 2563  12.037  23.447   3.092
35781W        W 2564  26.407  40.337  13.608
35782W        W 2565  38.413  16.070  11.519
35783W        W 2566  41.560  35.607   2.166
35784W        W 2567  38.756  44.398   3.294
35785W        W 2568   5.373  39.344   2.212
35786W        W 2569  42.836  37.326   0.004
35787W        W 2570  40.826   2.017   2.295
35788W        W 2571   3.296  31.819  11.440
35789W        W 2572  32.807  38.822  12.935
35790W        W 2573   1.498  24.203  14.260
35791W        W 2574  42.357  18.112  13.092
35792W        W 2575  35.865   2.806   1.543
35793W        W 2576   7.351  40.941  11.571
35794W        W 2577  12.046   9.948  13.434
35795W        W 2578  15.477  13.114  13.603
35796W        W 2579   4.218  41.234  13.566
35797W        W 2580  10.847  22.470   2.866
35798W        W 2581  25.585  11.167   4.118
35799W        W 2582  22.048  36.627   2.678
35800W        W 2583   8.909  39.894   1.571
35801W        W 2584  11.358  42.329  11.117
35802W        W 2585  18.679   9.401  14.819
35803W        W 2586  28.336  10.617   1.286
35804W        W 2587  34.625  34.438  12.859
35805W        W 2588  32.584   5.472  10.198
35806W        W 2589   9.215  41.596   3.207
35807W        W 2590  23.039  34.299   1.070
35808W        W 2591  33.517  14.232  10.795
35809W        W 2592   1.315  22.517  13.483
35810W        W 2593  42.590  16.872   0.165
35811W        W 2594  36.857  36.972  12.442
35812W        W 2595   9.341  23.546  12.988
35813W        W 2596  43.376  39.513   1.444
35814W        W 2597  44.632  31.348   0.793
35815W        W 2598  19.231  29.836  13.862
35816W        W 2599  26.727  39.931   2.809
35817W        W 2600  11.450  35.978   0.734
35818W        W 2601   8.262  23.232  13.857
35819W        W 2602  32.487  36.138   1.913
35820W        W 2603  23.593  22.031  13.545
35821W        W 2604  13.167  27.147  14.242
35822W        W 2605   4.604   1.316   3.262
35823W        W 2606   6.281  40.085   1.354
35824W        W 2607  11.511   9.673  14.722
35825W        W 2608  36.383  21.937   2.333
35826W        W 2609  26.100  31.375  13.329
35827W        W 2610  25.099  18.658  13.271
35828W        W 2611  41.326  24.230   1.233
35829W        W 2612  14.779  34.167   0.301
35830W        W 2613  18.709  23.526   3.388
35831W        W 2614  34.484  40.261   0.916
35832W        W 2615  41.418  42.309  13.956
35833W        W 2616  38.457  39.348  12.471
35834W        W 2617  22.946   6.962  10.375
35835W        W 2618  21.046   5.839  10.688
35836W        W 2619   7.705   1.479  13.270
35837W        W 2620  17.296  33.567  12.416
35838W        W 2621  42.274   6.167   3.684
35839W        W 2622  26.306  11.276   9.958
35840W        W 2623   8.235  17.595   2.756
35841W        W 2624  12.754  15.261   0.431
35842W        W 2625  44.736  23.182   0.656
35843W        W 2626  26.702  24.071   0.796
35844W        W 2627   6.751  29.338  14.399
35845W        W 2628  26.502  29.613  13.920
35846W        W 2629   9.169  28.506   1.476
35847W        W 2630  35.924  38.821   2.586
35848W        W 2631   7.932   5.690  11.699
35849W        W 2632   3.678  30.027   4.929
35850W        W 2633   3.098  24.742   0.931
35851W        W 2634   0.464  36.862   1.320
35852W        W 2635  43.069  44.766   2.339
35853W        W 2636  32.114  15.756  11.977
35854W        W 2637   6.671  10.100  13.235
35855W        W 2638   5.788  25.887   2.391
35856W        W 2639  42.072  23.071   3.207
35857W        W 2640  24.132  16.359  11.567
35858W        W 2641   3.537  23.129  11.959
35859W        W 2642   3.728  17.968  11.897
35860W        W 2643  27.889  19.124   2.677
35861W        W 2644  10.625  34.633  13.854
35862W        W 2645   2.618  16.661   1.186
35863W        W 2646  19.107  14.436  14.525
35864W        W 2647  36.446   6.673   0.937
35865W        W 2648   0.903  43.430   2.797
35866W        W 2649  35.598  20.189  12.036
35867W        W 2650  36.579  20.821   1.663
35868W        W 2651  22.553   3.194  14.464
35869W        W 2652  38.970  32.982   3.751
35870W        W 2653  30.424   1.751  14.929
35871W        W 2654   8.158  42.019   0.922
35872W        W 2655  36.736  26.967   4.508
35873W        W 2656  21.966  14.225   4.054
35874W        W 2657  22.559   5.487  13.607
35875W        W 2658  14.820  14.792   4.427
35876W        W 2659  14.061   4.309  11.080
35877W        W 2660   8.545  31.085   5.173
35878W        W 2661  44.737  17.515  13.944
35879W        W 2662  28.103  41.873   0.288
35880W        W 2663  35.073  34.372   3.900
35881W        W 2664   1.357  10.585  10.912
35882W        W 2665  12.321  28.259   4.519
35883W        W 2666  14.065  31.976  13.618
35884W        W 2667  37.590   3.245  14.489
35885W        W 2668  32.906  10.266   1.382
35886W        W 2669   7.400  30.441  12.987
35887W        W 2670  29.461   7.346  14.767
35888W        W 2671   2.947  37.056   4.075
35889W        W 2672  18.213  35.343   1.325
35890W        W 2673  17.628  22.699  11.860
35891W        W 2674  35.641   4.504  11.912
35892W        W 2675  44.870  37.511   1.183
35893W        W 2676   7.989   6.882  14.993
35894W        W 2677  40.793  30.035   3.245
35895W        W 2678  15.687  39.835   4.465
35896W        W 2679  18.547  43.539  13.766
35897W        W 2680  39.265   4.842  11.593
35898W        W 2681  23.683  27.480   2.925
35899W        W 2682  30.571  18.138   5.150
35900W        W 2683  24.774  36.484   2.626
35901W        W 2684  44.074  36.529   3.782
35902W        W 2685   2.969   4.811   0.747
35903W        W 2686  18.160  34.318   1.351
35904W        W 2687  41.200  17.583  12.020
35905W        W 2688  15.745  34.844   3.282
35906W        W 2689  41.384  28.464  14.528
35907W        W 2690  40.368  20.767   2.967
35908W        W 2691   2.270  35.311   4.166
35909W        W 2692  13.562   7.904   5.508
35910W        W 2693  38.095  23.545   2.778
35911W        W 2694  40.604  26.726   9.894
35912W        W 2695  23.533  25.675  14.434
35913W        W 2696  28.911   5.476   2.472
35914W        W 2697   5.780  33.515   1.965
35915W        W 2698  23.403  36.447   4.341
35916W        W 2699  39.312   2.406  11.222
35917W        W 2700  14.071  18.786  13.027
35918W        W 2701  18.970  27.144   2.205
35919W        W 2702  33.004  22.005   2.877
35920W        W 2703  13.716  21.192   3.430
35921W        W 2704  43.381  37.720  12.123
35922W        W 2705  41.788  43.188  12.552
35923W        W 2706  38.792  32.866  14.943
35924W        W 2707   8.905  33.387   3.659
35925W        W 2708   5.318  30.525   1.462
35926W        W 2709  20.657  22.529   4.525
35927W        W 2710  13.842  28.369   0.808
35928W        W 2711  33.800  37.390   3.645
35929W        W 2712  40.344   4.168   2.235
35930W        W 2713  27.266  34.890  10.722
35931W        W 2714  29.600  12.544   1.783
35932W        W 2715  22.927  13.671  13.257
35933W        W 2716  21.217  13.265  11.969
35934W        W 2717  20.973  18.156   4.136
35935W        W 2718  36.815  43.476   1.835
35936W        W 2719   5.422  40.389   0.294
35937W        W 2720   1.170  40.895  11.062
35938W        W 2721  31.052  19.282  14.036
35939W        W 2722  30.132  28.352  14.927
35940W        W 2723  12.100  19.800   1.423
35941W        W 2724  15.363  21.291  14.014
35942W        W 2725  19.299  44.567   2.822
35943W        W 2726   8.604  12.609  13.156
35944W        W 2727   4.842  16.183   3.052
35945W        W 2728  30.973  13.778   0.437
35946W        W 2729  39.954  42.467   4.552
35947W        W 2730   1.541  34.274   3.760
35948W        W 2731  30.190  40.179  14.853
35949W        W 2732  29.187  37.370   1.268
35950W        W 2733  17.090   8.783  12.077
35951W        W 2734   5.032   7.670  12.968
35952W        W 2735  13.011  28.081   0.788
35953W        W 2736  24.415   4.617   2.622
35954W        W 2737   9.925   2.817   0.334
35955W        W 2738  34.490   2.477  11.535
35956W        W 2739  13.696  21.702   3.557
35957W        W 2740  39.727   2.864  14.417
35958W        W 2741   4.775  35.862  12.562
35959W        W 2742  35.446  43.518  13.816
35960W        W 2743  44.574  33.039   9.904
35961W        W 2744  35.731  35.653  14.387
35962W        W 2745  22.542  26.733   4.133
35963W        W 2746  37.909  12.844  12.997
35964W        W 2747  18.380  35.350   0.821
35965W        W 2748  44.993  27.971   4.167
35966W        W 2749  28.920  37.905   3.838
35967W        W 2750  37.664   7.082   4.608
35968W        W 2751  27.781   8.171   3.406
35969W        W 2752  10.323  21.112  11.005
35970W        W 2753  26.685  26.410   3.192
35971W        W 2754  31.716  25.565   2.464
35972W        W 2755  17.021   9.826   3.739
35973W        W 2756   9.613  37.601  11.989
35974W        W 2757   9.815  25.481  11.732
35975W        W 2758  38.631  31.476  13.718
35976W        W 2759   1.157  40.450  11.985
35977W        W 2760  27.740  30.069  14.019
35978W        W 2761  16.159  39.134  12.550
35979W        W 2762  11.951  29.671  14.587
35980W        W 2763  14.298  31.995  14.090
35981W        W 2764  24.070  15.002  10.567
35982W        W 2765   5.944   6.515  14.490
35983W        W 2766  25.955  11.650  14.165
35984W        W 2767  33.378   8.825   3.797
35985W        W 2768  36.015   8.194   4.584
35986W        W 2769  18.735  33.379   0.791
35987W        W 2770  13.278   3.053   3.615
35988W        W 2771   5.237  10.857   4.712
35989W        W 2772  30.184  22.431   2.144
35990W        W 2773  28.362  12.636  13.644
35991W        W 2774  18.641  26.198  13.625
35992W        W 2775   7.566  34.630   2.876
35993W        W 2776  29.645  12.183  13.388
35994W        W 2777  15.047  40.469   3.877
35995W        W 2778  27.000   2.518  11.031
35996W        W 2779  38.905  21.150   0.022
35997W        W 2780  44.916   5.878  12.606
35998W        W 2781  31.030  30.951   4.375
35999W        W 2782  25.632  34.438  12.409
36000W        W 2783  28.684  17.279   3.806
36001W        W 2784  35.535  34.891  11.896
36002W        W 2785  35.063  15.878   1.723
36003W        W 2786  44.050  38.388  12.350
36004W        W 2787  11.363  17.621   2.199
36005W        W 2788  38.332  39.032   1.796
36006W        W 2789  26.191  11.804  13.738
36007W        W 2790   5.673   8.614  13.090
36008W        W 2791  16.623  27.239  10.722
36009W        W 2792  35.615  43.922   5.014
36010W        W 2793  39.077  12.871  10.703
36011W        W 2794   4.026  17.704   3.930
36012W        W 2795  42.546   4.462  11.713
36013W        W 2796  10.230  33.021   2.369
36014W        W 2797  29.378   8.311  12.943
36015W        W 2798  27.029   8.307  11.661
36016W        W 2799  16.833  43.004  11.500
36017W        W 2800  42.266   6.019  11.180
36018W        W 2801  25.438  13.372  14.359
36019W        W 2802  36.469  32.330   1.157
36020W        W 2803   1.210  37.367  11.611
36021W        W 2804  13.370   0.748   0.664
36022W        W 2805  24.441  40.865   0.850
36023W        W 2806  18.674  28.174  12.080
36024W        W 2807  23.410  23.137   3.578
36025W        W 2808  28.573   6.266   0.473
36026W        W 2809  24.147  30.098  10.878
36027W        W 2810  31.711  26.074   4.578
36028W        W 2811  14.219  27.697  11.541
36029W        W 2812  10.325  19.036   2.380
36030W        W 2813  35.588   5.843  14.877
36031W        W 2814  22.940  42.371   3.345
36032W        W 2815  22.164  44.537   3.228
36033W        W 2816  32.530  16.119   2.307
36034W        W 2817  41.490   4.676   1.479
36035W        W 2818  44.859  11.780  14.470
36036W        W 2819   5.849  20.253  12.430
36037W        W 2820   9.993  39.073  12.013
36038W        W 2821  40.504  27.429   3.820
36039W        W 2822  35.144  42.817  13.058
36040W        W 2823   8.737  22.235  10.241
36041W        W 2824  15.539  28.456  11.628
36042W        W 2825  18.723  17.667   3.148
36043W        W 2826  14.724  44.322   4.794
36044W        W 2827  35.967  10.878  12.582
36045W        W 2828  20.339  39.731   3.389
36046W        W 2829  35.117  12.326   3.530
36047W        W 2830  19.563   1.810  12.895
36048W        W 2831  43.043   0.541  13.300
36049W        W 2832  25.564   3.985  13.522
36050W        W 2833  13.697  31.653  10.869
36051W        W 2834  17.096  16.100  14.001
36052W        W 2835  42.401   1.113  12.944
36053W        W 2836  41.036  18.563  11.210
36054W        W 2837  21.167  27.687  10.442
36055W        W 2838  21.282  27.869  12.110
36056W        W 2839  13.876  40.461   1.204
36057W        W 2840  25.027  15.508  11.785
36058W        W 2841  30.999  39.390  11.676
36059W        W 2842  18.206  15.112  13.939
36060W        W 2843  42.548  38.321   2.913
36061W        W 2844  28.060  35.632  12.506
36062W        W 2845  22.127   5.299  14.964
36063W        W 2846  22.125  32.148   2.772
36064W        W 2847  21.187  32.156   3.619
36065W        W 2848  35.067  32.843  10.707
36066W        W 2849  18.606  41.902   3.831
36067W        W 2850  41.926  11.824  12.559
36068W        W 2851   3.355  24.420  10.471
36069W        W 2852  21.182  15.627   1.133
36070W        W 2853  39.381  38.119   4.471
36071W        W 2854  16.477   1.795  13.140
36072W        W 2855  41.879   5.152   0.445
36073W        W 2856  40.394  18.634  14.279
36074W        W 2857   9.685  12.917   2.790
36075W        W 2858  25.814   6.306   3.257
36076W        W 2859  43.386  32.685  14.352
36077W        W 2860  27.954  14.814   4.572
36078W        W 2861  21.504  38.114  14.163
36079W        W 2862  22.242  29.165  11.541
36080W        W 2863  20.045  11.673  10.529
36081W        W 2864  30.337  15.356  11.597
36082W        W 2865  19.520  20.616  12.108
36083W        W 2866  24.017   9.520  11.563
36084W        W 2867  15.143  34.962   4.626
36085W        W 2868  17.566  17.263   1.499
36086W        W 2869   0.281  24.763   4.558
36087W        W 2870  26.811  28.183  10.612
36088W        W 2871  39.954   9.525  12.348
36089W        W 2872  10.873  16.717   2.367
36090W        W 2873  38.987  42.723  11.971
36091W        W 2874   7.823  19.845   4.151
36092W        W 2875  44.433  41.370   0.950
36093W        W 2876  12.729  44.751  12.402
36094W        W 2877  33.515  34.032   2.125
36095W        W 2878  25.906   3.090   0.153
36096W        W 2879   6.921   8.920  13.997
36097W        W 2880  42.324  36.422   4.658
36098W        W 2881   4.755  34.794   4.295
36099W        W 2882  26.214   9.560  14.348
36100W        W 2883  19.224  38.489   0.547
36101W        W 2884  43.435   3.030  14.472
36102W        W 2885   0.469  44.395  13.064
36103W        W 2886  17.576   9.174   3.168
36104W        W 2887  16.123  44.008   4.160
36105W        W 2888  19.566  12.861  12.944
36106W        W 2889   7.863  38.521   3.290
36107W        W 2890   7.921  40.083  12.815
36108W        W 2891  32.440   5.957   3.217
36109W        W 2892  13.959   4.274  14.037
36110W        W 2893  30.155   4.362  11.954
36111W        W 2894  37.615  18.816  12.939
36112W        W 2895  34.423  24.825  13.511
36113W        W 2896   0.309  18.698   0.719
36114W        W 2897  24.574  38.894  13.949
36115W        W 2898   1.777  44.408   1.399
36116W        W 2899   5.347  32.962   2.710
36117W        W 2900  33.961  38.433   2.824
36118W        W 2901   7.438  44.444   0.277
36119W        W 2902   9.586  29.561  12.046
36120W        W 2903  31.102  21.497   1.777
36121W        W 2904  27.133  27.070  12.746
36122W        W 2905  35.587  35.046   1.796
36123W        W 2906  27.708  44.571  13.878
36124W        W 2907  35.882  11.587  13.954
36125W        W 2908   9.434  15.418   4.879
36126W        W 2909  11.403   8.206   0.453
36127W        W 2910  40.790  38.634  13.047
36128W        W 2911  27.073  25.685   3.580
36129W        W 2912  31.909   8.966   2.308
36130W        W 2913  41.019  13.087   0.825
36131W        W 2914  24.984  30.452  11.490
36132W        W 2915  26.235   5.298   2.960
36133W        W 2916  23.992  20.731  12.564
36134W        W 2917  43.309  43.323  13.541
36135W        W 2918  39.578  27.996  11.607
36136W        W 2919  20.634   6.101  10.901
36137W        W 2920  16.548  22.100  12.095
36138W        W 2921  38.570   9.693   2.003
36139W        W 2922  32.529  34.904  13.406
36140W        W 2923  27.909  25.422   1.192
36141W        W 2924  42.746   7.823   2.334
36142W        W 2925  31.945  37.969  11.974
36143W        W 2926  30.503  20.412   5.440
36144W        W 2927  14.379   8.778   2.987
36145W        W 2928  19.296  29.119   3.817
36146W        W 2929  40.551  24.110   0.601
36147W        W 2930  29.947  30.642   3.663
36148W        W 2931  30.993  22.965   2.126
36149W        W 2932  39.508  38.875  10.668
36150W        W 2933   4.303   9.478   0.488
36151W        W 2934  36.979  12.788   3.722
36152W        W 2935   2.414  28.952  14.458
36153W        W 2936  38.936  41.442   4.602
36154W        W 2937  27.959  25.430  13.910
36155W        W 2938  39.909  10.170  10.956
36156W        W 2939   5.365  40.057   1.362
36157W        W 2940  14.584  29.909  12.138
36158W        W 2941  22.956   3.418   3.089
36159W        W 2942  12.344  40.436  12.024
36160W        W 2943  18.201   4.454  12.026
36161W        W 2944  25.757  22.203   3.606
36162W        W 2945  44.865  35.416  10.932
36163W        W 2946  35.414  32.184   4.573
36164W        W 2947   9.108  20.178   1.898
36165W        W 2948  20.303  42.043  12.575
36166W        W 2949  34.223   0.757  14.635
36167W        W 2950  39.815   1.103   2.787
36168W        W 2951  37.120  11.142  12.871
36169W        W 2952  35.951  27.270   2.679
36170W        W 2953  10.175  10.879  12.254
36171W        W 2954  34.479  39.055  10.694
36172W        W 2955  21.153   0.921  11.576
36173W        W 2956  14.549  27.744  11.940
36174W        W 2957   5.901  14.096  13.851
36175W        W 2958  26.957  11.809  14.592
36176W        W 2959  25.563  42.310  12.400
36177W        W 2960  12.425  42.539   3.126
36178W        W 2961   4.254  44.325   2.174
36179W        W 2962   2.180  13.642   0.464
36180W        W 2963  38.556  23.999   3.232
36181W        W 2964  11.133  13.420  13.337
36182W        W 2965  42.931   5.142   3.274
36183W        W 2966  20.851  19.145  13.893
36184W        W 2967  35.098  36.729   2.674
36185W        W 2968  27.133  31.919  11.106
36186W        W 2969   2.861  17.211  11.539
36187W        W 2970  23.863  22.457   9.730
36188W        W 2971   3.409  35.841   0.778
36189W        W 2972   6.793   6.282  11.074
36190W        W 2973   3.703  27.602   4.435
36191W        W 2974  43.123  16.806   2.409
36192W        W 2975  26.531  42.521  10.319
36193W        W 2976  43.758  37.336   0.702
36194W        W 2977  38.096  43.630   1.556
36195W        W 2978  38.097  16.709   2.640
36196W        W 2979  18.557  13.652   3.255
36197W        W 2980  20.191  37.548  12.492
36198W        W 2981  29.721  15.978  12.120
36199W        W 2982  40.931  18.380   3.299
36200W        W 2983  21.574   8.187   3.495
36201W        W 2984  28.021  33.876  13.406
36202W        W 2985  15.583  15.194   4.802
36203W        W 2986  38.415  38.629  13.054
36204W        W 2987  14.106  28.951  12.102
36205W        W 2988  14.360  30.012  13.438
36206W        W 2989  34.803  12.814  13.529
36207W        W 2990  24.427  41.994   0.214
36208W        W 2991  38.623  23.118   4.596
36209W        W 2992  17.154   1.289   4.018
36210W        W 2993  18.949   6.032   1.466
36211W        W 2994  14.558  15.784   0.744
36212W        W 2995  36.865   8.759  12.878
36213W        W 2996  41.748  39.058  14.480
36214W        W 2997  31.957   3.346  14.965
36215W        W 2998  15.231  22.230   1.777
36216W        W 2999  32.177  24.171  12.363
36217W        W 3000   1.997   3.688  11.286
36218W        W 3001  34.206  26.468  11.790
36219W        W 3002  10.766  12.077   2.424
36220W        W 3003   0.008  32.092   2.610
36221W        W 3004   4.393   4.415   2.972
36222W        W 3005   2.398  41.793  13.426
36223W        W 3006   4.928  37.068   2.416
36224W        W 3007  21.048  38.602  10.393
36225W        W 3008  33.892   3.792   3.662
36226W        W 3009  13.121   4.064  12.696
36227W        W 3010  36.867  35.981  12.486
36228W        W 3011  32.702   4.329  13.519
36229W        W 3012  13.759  35.780  14.740
36230W        W 3013  41.309  31.642   0.821
36231W        W 3014  28.682  36.083  11.207
36232W        W 3015   3.661   3.239  12.502
36233W        W 3016  32.047  41.871   2.888
36234W        W 3017  21.968  40.280   2.250
36235W        W 3018  12.223  21.053  13.908
36236W        W 3019  40.344  19.601   5.120
36237W        W 3020  19.094  43.575   2.885
36238W        W 3021  18.699   0.276  10.721
36239W        W 3022  42.097  30.396   4.166
36240W        W 3023  29.957  10.128   4.243
36241W        W 3024  36.913   2.789  14.997
36242W        W 3025  15.230  41.326   0.510
36243W        W 3026  13.706  10.697   1.254
36244W        W 3027  28.997   1.895   0.950
36245W        W 3028  42.915  33.637   2.654
36246W        W 3029  16.821  12.734   1.621
36247W        W 3030  40.371  26.180  13.112
36248W        W 3031  40.373  36.997   1.280
36249W        W 3032  43.370  31.602   2.663
36250W        W 3033  24.496  37.508   1.002
36251W        W 3034  37.395   8.543  11.821
36252W        W 3035  25.712  30.863   1.687
36253W        W 3036  27.676   0.050   4.906
36254W        W 3037  35.850  42.349   4.106
36255W        W 3038  42.787   3.797   1.275
36256W        W 3039  22.097  28.955   0.125
36257W        W 3040   6.356  13.380  12.978
36258W        W 3041   8.248   6.953  11.673
36259W        W 3042  25.931  13.783   1.007
36260W        W 3043  43.593   4.853  13.648
36261W        W 3044  43.677   6.745   0.962
36262W        W 3045  40.618  43.522   3.523
36263W        W 3046  14.866  22.194  10.753
36264W        W 3047  27.697  11.262   0.375
36265W        W 3048  34.856  20.120   1.390
36266W        W 3049  36.795   9.246   3.349
36267W        W 3050  43.089   6.655   4.087
36268W        W 3051  19.696   3.765  12.930
36269W        W 3052  39.297  39.363   2.898
36270W        W 3053  22.618  32.455   0.421
36271W        W 3054  30.753  33.534  13.940
36272W        W 3055  40.395  19.230   3.842
36273W        W 3056  39.315  31.604   4.526
36274W        W 3057  27.190   7.393  14.277
36275W        W 3058  34.505  21.610   1.031
36276W        W 3059  40.016   6.227  10.589
36277W        W 3060  33.619   3.172   3.613
36278W        W 3061  16.396   4.889  13.563
36279W        W 3062  26.186  30.682  12.012
36280W        W 3063  43.272  32.563   3.079
36281W        W 3064  28.702  16.587  11.540
36282W        W 3065  10.363  20.810   2.598
36283W        W 3066   7.600  16.593   3.323
36284W        W 3067  26.693  26.637   2.668
36285W        W 3068  40.481   2.014  14.954
36286W        W 3069  33.398   1.169   2.213
36287W        W 3070  43.800  21.318   1.574
36288W        W 3071   3.508  22.643  11.244
36289W        W 3072  29.195  18.091   2.811
36290W        W 3073  44.231  41.269   4.373
36291W        W 3074  30.981  15.038  14.973
36292W        W 3075  33.590  27.356   1.411
36293W        W 3076  19.835  39.025   0.920
36294W        W 3077   2.261  22.219  11.518
36295W        W 3078   7.933  17.860   1.864
36296W        W 3079  33.075  28.135   2.831
36297W        W 3080  38.059  12.569  12.564
36298W        W 3081   1.794  32.956  10.881
36299W        W 3082   1.119  14.830  14.084
36300W        W 3083  19.726  16.355   2.569
36301W        W 3084   5.760  16.244  13.969
36302W        W 3085  17.673  21.111   0.785
36303W        W 3086  44.424  35.990  10.878
36304W        W 3087  43.461  19.753  10.862
36305W        W 3088  36.514   5.621   4.476
36306W        W 3089  21.486  39.027   1.715
36307W        W 3090  26.892   5.106  11.631
36308W        W 3091  20.753  26.714  14.976
36309W        W 3092  10.995  28.944   0.231
36310W        W 3093  33.176  40.815   1.274
36311W        W 3094  23.352  35.415  13.665
36312W        W 3095  35.329  33.986   4.228
36313W        W 3096  31.716  35.468   2.655
36314W        W 3097  41.236  19.775   0.293
36315W        W 3098  23.707   6.371   1.221
36316W        W 3099  17.305   5.517  11.505
36317W        W 3100  20.006   5.775  14.936
36318W        W 3101  41.852  30.239  12.449
36319W        W 3102   7.451  16.338   1.372
36320W        W 3103  22.928   3.672   1.348
36321W        W 3104  33.210   0.264   4.220
36322W        W 3105  33.867  23.607   2.270
36323W        W 3106  27.716  31.215   1.497
36324W        W 3107  12.111   8.559  11.248
36325W        W 3108  18.129  14.589  12.546
36326W        W 3109  10.273   8.828  12.048
36327W        W 3110  20.137   7.689   1.923
36328W        W 3111   2.075   0.799  13.379
36329W        W 3112  12.507  13.177  14.607
36330W        W 3113  33.998  39.342   1.253
36331W        W 3114  26.468  29.629   2.769
36332W        W 3115  15.081  19.109  12.540
36333W        W 3116  15.717  21.070  10.766
36334W        W 3117  22.610  38.472  13.516
36335W        W 3118   1.498   8.586  11.153
36336W        W 3119  10.120  39.932   4.532
36337W        W 3120   3.740   7.300   5.138
36338W        W 3121  36.396  33.652   3.712
36339W        W 3122   7.785  27.640  10.892
36340W        W 3123  41.085  26.712  13.096
36341W        W 3124  33.851  40.056  14.319
36342W        W 3125  25.442  31.029  11.515
36343W        W 3126  22.790   1.804   3.247
36344W        W 3127  27.163  11.401  14.819
36345W        W 3128  19.621   9.093  10.949
36346W        W 3129   9.655  26.614  12.050
36347W        W 3130  13.268  16.817  14.907
36348W        W 3131  30.477   1.695   1.279
36349W        W 3132  30.935   1.934   1.222
36350W        W 3133  27.834   8.381  11.003
36351W        W 3134  10.886  15.844   0.336
36352W        W 3135   6.426  26.643   1.643
36353W        W 3136  41.053  17.586   0.456
36354W        W 3137   0.863   9.902  14.502
36355W        W 3138  34.219  17.801   1.270
36356W        W 3139  13.085  36.433   3.742
36357W        W 3140  11.155   6.361  11.848
36358W        W 3141   7.757  20.599  13.486
36359W        W 3142  15.670  17.866   4.765
36360W        W 3143   7.732   2.829   4.631
36361W        W 3144  21.966   6.815  13.846
36362W        W 3145  31.332  27.074  13.951
36363W        W 3146  27.755  41.899   1.793
36364W        W 3147  40.627  44.900  11.489
36365W        W 3148   9.615  22.602   1.947
36366W        W 3149   9.407  18.768   2.620
36367W        W 3150  15.810  21.454   1.408
36368W        W 3151  24.610  29.253   1.734
36369W        W 3152   0.316  44.834   1.090
36370W        W 3153  15.362  32.424   2.715
36371W        W 3154  34.564  34.867   2.778
36372W        W 3155  19.665  24.312  11.496
36373W        W 3156  21.614  13.743   0.650
36374W        W 3157  17.600  13.992   4.068
36375W        W 3158   4.306  36.623  13.821
36376W        W 3159   4.374   9.604  13.143
36377W        W 3160   4.384   3.443   2.789
36378W        W 3161   7.290  40.551  10.590
36379W        W 3162  23.936  10.593   0.844
36380W        W 3163  43.406  36.967   2.128
36381W        W 3164  40.296  42.876  10.668
36382W        W 3165   4.106  15.166   0.874
36383W        W 3166  15.864  44.357   3.731
36384W        W 3167   4.996  23.585  11.853
36385W        W 3168  25.693  24.696  11.635
36386W        W 3169  39.026  32.450  12.434
36387W        W 3170  24.431  14.794  11.775
36388W        W 3171  22.411  30.025   3.233
36389W        W 3172  32.515  44.792  11.197
36390W        W 3173  32.370  44.166  12.527
36391W        W 3174  22.627   4.276   0.876
36392W        W 3175  27.146   0.804  11.192
36393W        W 3176  37.904  25.071   4.031
36394W        W 3177  29.013  36.043   1.317
36395W        W 3178   2.329   4.394   4.193
36396W        W 3179  24.548  17.218  12.661
36397W        W 3180  16.504  42.060   2.212
36398W        W 3181   7.731  40.532   2.888
36399W        W 3182  13.833   9.386   3.656
36400W        W 3183  41.503   0.947  11.162
36401W        W 3184   1.426   7.775  10.353
36402W        W 3185  28.379  28.432   2.287
36403W        W 3186  21.467  30.107  11.508
36404W        W 3187  16.100  36.440   4.178
36405W        W 3188  38.153  14.213  14.053
36406W        W 3189  43.271  43.712  12.890
36407W        W 3190  12.703  37.769   4.644
36408W        W 3191   1.684  37.011  13.029
36409W        W 3192  44.025  43.557  14.015
36410W        W 3193  36.406  33.349   1.390
36411W        W 3194  16.085  32.630   1.269
36412W        W 3195  33.571  23.065   5.164
36413W        W 3196  29.135  41.864   1.310
36414W        W 3197  18.604  29.208  11.091
36415W        W 3198   3.440   7.126  10.374
36416W        W 3199   9.191  29.011  12.658
36417W        W 3200  18.227   6.823  11.153
36418W        W 3201  42.967  13.380  14.561
36419W        W 3202  32.610   2.071  11.991
36420W        W 3203  27.810   0.771   0.448
36421W        W 3204   6.803  44.524   3.596
36422W        W 3205  21.279  28.933   4.156
36423W        W 3206  38.324  29.129  14.019
36424W        W 3207  44.991  21.784   2.152
36425W        W 3208  39.890  19.715  13.116
36426W        W 3209  29.434  26.926  13.057
36427W        W 3210   8.745  11.173  13.307
36428W        W 3211  35.460  16.802  12.136
36429W        W 3212  29.525   7.609   0.450
36430W        W 3213  31.708  17.698  10.710
36431W        W 3214  28.991   3.413   3.667
36432W        W 3215  33.518  43.501   2.340
36433W        W 3216  13.778   8.598  10.386
36434W        W 3217   2.392  12.695   0.869
36435W        W 3218  31.112  17.171   1.736
36436W        W 3219   5.405  11.169  11.977
36437W        W 3220  15.687  42.094  11.961
36438W        W 3221  42.027  13.706   1.409
36439W        W 3222  21.471  40.395   0.987
36440W        W 3223   3.801   5.403   0.888
36441W        W 3224   4.527  43.460  13.458
36442W        W 3225  23.061  10.357  11.663
36443W        W 3226   9.983  44.268  13.350
36444W        W 3227   7.534  37.457  12.865
36445W        W 3228  42.450  34.993  12.889
36446W        W 3229   7.310  19.136   1.991
36447W        W 3230  37.379  43.776   4.306
36448W        W 3231  38.589  15.613   0.381
36449W        W 3232  14.777  31.447   1.852
36450W        W 3233  15.067  24.797   2.724
36451W        W 3234  20.057  37.596   5.072
36452W        W 3235  17.536  18.270   0.063
36453W        W 3236  18.074  33.354  11.059
36454W        W 3237  14.609  23.494   2.844
36455W        W 3238  23.110   3.578  11.220
36456W        W 3239  20.310  24.161  11.436
36457W        W 3240  39.859  30.042  10.963
36458W        W 3241   8.193  44.983   3.252
36459W        W 3242   2.721   3.408   4.643
36460W        W 3243  23.670   0.857  13.106
36461W        W 3244  12.927  34.502  13.824
36462W        W 3245  12.149   3.931   0.352
36463W        W 3246  34.350  10.837  13.474
36464W        W 3247  12.715  15.404  11.114
36465W        W 3248  19.579  11.638  10.775
36466W        W 3249  34.465   3.650  11.022
36467W        W 3250  23.256   1.901  12.800
36468W        W 3251  33.414  11.189  14.540
36469W        W 3252  31.480   6.924  14.851
36470W        W 3253  25.901   2.988  12.137
36471W        W 3254   7.756  19.058   0.686
36472W        W 3255   2.316  38.918  14.537
36473W        W 3256  29.689  43.089  13.155
36474W        W 3257  41.020  41.568  10.765
36475W        W 3258  32.521   3.762   3.672
36476W        W 3259  29.421  27.487   4.923
36477W        W 3260  17.960  11.719  12.955
36478W        W 3261  32.661  19.953   4.496
36479W        W 3262  30.553   2.184   3.080
36480W        W 3263  22.736  30.082   2.393
36481W        W 3264   8.845  43.847   2.666
36482W        W 3265  23.207  16.624  11.569
36483W        W 3266  27.949   9.151  12.872
36484W        W 3267   7.956  12.296   1.695
36485W        W 3268  28.468   2.130   4.668
36486W        W 3269  24.496  10.466   0.287
36487W        W 3270  23.314   5.367   4.952
36488W        W 3271   9.969  44.435  14.746
36489W        W 3272   3.647  34.558   0.452
36490W        W 3273  36.914   8.640  11.116
36491W        W 3274  27.636  34.803  12.338
36492W        W 3275   9.664  26.406   0.010
36493W        W 3276  35.809  28.900  14.818
36494W        W 3277   3.935   9.743   4.353
36495W        W 3278   7.280  21.763   0.756
36496W        W 3279   5.982  24.959   2.198
36497W        W 3280  43.916  36.908  14.090
36498W        W 3281  17.681  32.817  13.833
36499W        W 3282  25.169  42.572  11.649
36500W        W 3283   6.393  11.666   1.373
36501W        W 3284  25.739  13.147   0.902
36502W        W 3285   6.259  31.977  13.924
36503W        W 3286  35.937   4.836   2.676
36504W        W 3287  19.951  34.540   3.774
36505W        W 3288  21.982  30.393  12.929
36506W        W 3289  25.044   2.341  10.653
36507W        W 3290  42.880  31.974  10.858
36508W        W 3291  42.574  15.183  12.346
36509W        W 3292  40.924  10.368   0.747
36510W        W 3293   6.729  39.687  14.088
36511W        W 3294  20.759  12.414   1.394
36512W        W 3295   0.023  16.723  13.211
36513W        W 3296  28.914   1.486   0.653
36514W        W 3297  13.275  24.946  13.931
36515W        W 3298  17.510   9.827  12.094
36516W        W 3299  33.607  32.700  11.356
36517W        W 3300  20.778  40.398  14.087
36518W        W 3301  26.630  34.985  13.191
36519W        W 3302   1.584  25.738   4.101
36520W        W 3303  31.878  28.945  12.186
36521W        W 3304  32.801  19.065   4.951
36522W        W 3305   3.111  44.093  12.141
36523W        W 3306  23.825  33.880  10.579
36524W        W 3307  15.174   0.709  10.455
36525W        W 3308  32.801  29.026  13.882
36526W        W 3309  10.287  14.218   4.632
36527W        W 3310  10.827   1.526  12.213
36528W        W 3311  19.551  41.375   4.638
36529W        W 3312  10.176   3.914  11.180
36530W        W 3313  26.390   5.284   1.985
36531W        W 3314  27.998  39.487  11.702
36532W        W 3315   2.847  29.079   2.034
36533W        W 3316  12.038  13.262   1.780
36534W        W 3317   7.989  31.503   4.171
36535W        W 3318  27.945  38.511  11.565
36536W        W 3319  43.400   9.099  14.724
36537W        W 3320  29.453  21.817   1.215
36538W        W 3321   6.425  40.289   1.822
36539W        W 3322  20.237  22.571   3.231
36540W        W 3323  44.471  18.198  14.413
36541W        W 3324  42.316  28.945  12.662
36542W        W 3325   6.586  19.566  11.961
36543W        W 3326  12.911   8.511  11.605
36544W        W 3327   3.820  10.576   4.317
36545W        W 3328  13.160  23.528   0.790
36546W        W 3329  11.957   5.759  13.334
36547W        W 3330  20.684  19.036   3.578
36548W        W 3331   3.255  39.545   1.186
36549W        W 3332  34.483   4.686  11.192
36550W        W 3333  17.292   8.882   4.991
36551W        W 3334   8.384  30.676   4.883
36552W        W 3335   8.954   1.423  12.556
36553W        W 3336  26.309  37.038  12.996
36554W        W 3337  12.649   9.526   1.823
36555W        W 3338   8.668   2.845   2.352
36556W        W 3339  43.566  20.940   1.252
36557W        W 3340  16.133  26.163   1.299
36558W        W 3341  10.721  12.641  13.603
36559W        W 3342  20.776  27.243  11.827
36560W        W 3343   8.387   6.723  10.870
36561W        W 3344  21.935  26.710   4.498
36562W        W 3345  35.246  16.956   5.125
36563W        W 3346  20.146  34.982  12.444
36564W        W 3347   5.729  44.874  13.003
36565W        W 3348  34.869  21.221   2.275
36566W        W 3349  26.233  35.619   3.070
36567W        W 3350  28.554  12.868   0.012
36568W        W 3351   3.205  43.457  11.007
36569W        W 3352  39.371  31.462   4.014
36570W        W 3353  16.366   8.331  12.893
36571W        W 3354  13.580   5.188  12.980
36572W        W 3355   6.731   5.168   1.345
36573W        W 3356  42.301  43.178  11.050
36574W        W 3357  34.935   7.773   2.767
36575W        W 3358  26.694   2.076   0.582
36576W        W 3359   0.860  27.699   1.859
36577W        W 3360  43.353  44.270   3.676
36578W        W 3361  37.882  23.960   2.068
36579W        W 3362  42.347   7.432   2.348
36580W        W 3363   8.938  40.866   2.878
36581W        W 3364  39.965  26.752   4.596
36582W        W 3365  29.602  44.096  11.462
36583W        W 3366   4.379  29.416  13.640
36584W        W 3367  40.560  10.223  13.995
36585W        W 3368  14.327  38.373   0.752
36586W        W 3369  14.564  42.715   1.178
36587W        W 3370  35.569  32.174   0.439
36588W        W 3371  38.248   0.503   2.716
36589W        W 3372  20.787  37.628   3.156
36590W        W 3373  12.750   1.873   4.572
36591W        W 3374  34.381  17.350   0.913
36592W        W 3375  19.393  13.923  13.470
36593W        W 3376  22.573  31.993  11.563
36594W        W 3377  14.680  41.611   1.317
36595W        W 3378  23.220  26.105  13.133
36596W        W 3379  10.954  15.271  13.106
36597W        W 3380  15.319   3.863  12.639
36598W        W 3381  23.096  12.180  14.721
36599W        W 3382  38.164  44.643   0.807
36600W        W 3383  27.671  25.996   0.856
36601W        W 3384  41.918  27.782   1.698
36602W        W 3385  38.624  39.041  12.850
36603W        W 3386  12.591  20.341  12.993
36604W        W 3387  44.273  38.776   0.150
36605W        W 3388  14.150  20.592   3.668
36606W        W 3389   7.295  31.939  14.698
36607W        W 3390  44.906  44.454   3.350
36608W        W 3391  32.502   8.062  13.849
36609W        W 3392  29.173  10.856  11.141
36610W        W 3393  33.160  42.133  14.580
36611W        W 3394  12.807  35.435  14.248
36612W        W 3395  15.389   5.275  10.722
36613W        W 3396  34.088  29.709  10.882
36614W        W 3397   8.665   7.317  10.385
36615W        W 3398  18.591  29.664  13.986
36616W        W 3399   1.736  34.212  13.836
36617W        W 3400   7.829   1.470   3.197
36618W        W 3401   4.867   7.385   2.950
36619W        W 3402  27.014  38.068  10.757
36620W        W 3403  29.100  11.327  14.389
36621W        W 3404  31.084  37.558   0.273
36622W        W 3405  33.402   3.260  11.646
36623W        W 3406   7.673  37.600   0.843
36624W        W 3407   7.323   3.923  13.127
36625W        W 3408   9.843  44.377   4.470
36626W        W 3409   9.867   5.247  11.502
36627W        W 3410   8.890   7.771   1.773
36628W        W 3411  32.213  20.194  11.901
36629W        W 3412   4.314  38.054   1.714
36630W        W 3413   3.823  26.049  13.124
36631W        W 3414  34.360  21.339   2.503
36632W        W 3415   9.920  23.564  13.050
36633W        W 3416   6.898  12.552  13.870
36634W        W 3417  25.445  36.070  10.628
36635W        W 3418  37.811  27.069  13.977
36636W        W 3419  12.680  30.878   4.178
36637W        W 3420  31.128  19.121  12.079
36638W        W 3421  14.553  18.299   1.360
36639W        W 3422  40.699  10.045   4.189
36640W        W 3423  27.199   0.939  13.557
36641W        W 3424  39.958   0.181   1.899
36642W        W 3425  34.035  20.686   3.351
36643W        W 3426  18.457  34.858  11.525
36644W        W 3427  22.231  40.094   3.705
36645W        W 3428  25.143   8.851  13.329
36646W        W 3429  22.008  25.550   9.704
36647W        W 3430  44.732  27.857  11.931
36648W        W 3431  22.636  11.367  13.075
36649W        W 3432   8.617  16.796  13.924
36650W        W 3433   7.533  32.991  13.285
36651W        W 3434  25.693  24.803  13.453
36652W        W 3435  28.879   3.898  11.271
36653W        W 3436   6.832  31.874   1.059
36654W        W 3437  42.939   0.687   1.509
36655W        W 3438  43.040  42.464   4.872
36656W        W 3439  10.597  17.222  11.585
36657W        W 3440  20.031  23.518  12.559
36658W        W 3441  27.451  21.269  10.562
36659W        W 3442  24.641   8.661  14.418
36660W        W 3443   1.217   0.437  11.544
36661W        W 3444  32.407  36.591  12.188
36662W        W 3445  28.989  44.886   0.033
36663W        W 3446  29.425  38.866  10.700
36664W        W 3447  33.864  41.716   2.711
36665W        W 3448  24.744  23.153  14.720
36666W        W 3449  15.367   0.606  10.920
36667W        W 3450  43.225   6.132   2.743
36668W        W 3451  21.659  14.826  13.618
36669W        W 3452   0.436  15.025  12.474
36670W        W 3453  43.889   6.269   1.833
36671W        W 3454  34.836  17.136   3.704
36672W        W 3455  33.416  17.676   3.979
36673W        W 3456  10.847   4.969  10.212
36674W        W 3457  19.977  24.154  11.906
36675W        W 3458  36.032  23.853   2.191
36676W        W 3459  33.438  18.716   2.515
36677W        W 3460   9.630  16.508   1.744
36678W        W 3461   1.667   0.934   1.383
36679W        W 3462   5.001  29.136   1.950
36680W        W 3463  17.158   0.055  11.907
36681W        W 3464  16.630  19.180   3.591
36682W        W 3465  42.965   5.448   0.987
36683W        W 3466  28.389   4.623  14.547
36684W        W 3467  44.472  43.006   0.306
36685W        W 3468   3.359  27.596  12.503
36686W        W 3469  32.652  12.796   0.220
36687W        W 3470   9.719  10.149   4.299
36688W        W 3471  11.613  40.780  10.774
36689W        W 3472   5.430  15.618   0.453
36690W        W 3473  12.916  23.889   3.343
36691W        W 3474  15.296  24.471  10.612
36692W        W 3475  26.432  27.167   3.737
36693W        W 3476  34.490   2.252  12.950
36694W        W 3477   9.090  21.775   3.359
36695W        W 3478  17.844  28.659  11.077
36696W        W 3479  29.070   7.244   1.307
36697W        W 3480  14.107  34.349   4.173
36698W        W 3481  41.486  42.515   1.798
36699W        W 3482   5.116   6.622   2.326
36700W        W 3483  17.295  12.721  14.958
36701W        W 3484  22.883  21.897  12.081
36702W        W 3485   4.712   4.798   0.068
36703W        W 3486   7.725   8.798  10.442
36704W        W 3487  14.228  15.238   4.885
36705W        W 3488  34.155  35.833  12.932
36706W        W 3489  41.922   4.372   1.412
36707W        W 3490   6.282  37.230  10.842
36708W        W 3491  39.317   7.698  14.960
36709W        W 3492  38.372  37.820   1.628
36710W        W 3493  39.943   8.323   2.388
36711W        W 3494  39.565  11.005   4.481
36712W        W 3495  23.177  32.557  10.711
36713W        W 3496  21.189  21.939   4.063
36714W        W 3497  32.682  26.451   3.367
36715W        W 3498  38.340   0.022  13.808
36716W        W 3499  14.638  12.792  14.077
36717W        W 3500  16.146  24.658   4.759
36718W        W 3501  21.594   5.848  13.975
36719W        W 3502  36.323  27.410   2.329
36720W        W 3503  27.515  26.896   0.489
36721W        W 3504   8.859  35.510   3.823
36722W        W 3505   3.838  32.196  12.842
36723W        W 3506  18.550   4.465  13.383
36724W        W 3507  19.433  36.902   3.661
36725W        W 3508  40.868  19.019  13.163
36726W        W 3509   2.963  17.423  13.433
36727W        W 3510  42.213  12.076   0.864
36728W        W 3511  27.223  24.508  12.425
36729W        W 3512  36.538  32.395   3.123
36730W        W 3513  44.271  33.532   2.761
36731W        W 3514  25.766  10.531   3.229
36732W        W 3515  10.771   0.976  13.820
36733W        W 3516  32.830   8.801   4.571
36734W        W 3517  34.209  23.221   3.732
36735W        W 3518  20.223  38.774  14.383
36736W        W 3519  28.459  38.487  11.377
36737W        W 3520  43.067   3.182  12.263
36738W        W 3521  10.666  33.232  11.443
36739W        W 3522  33.021   3.234  12.866
36740W        W 3523  11.278  32.063   2.703
36741W        W 3524   8.196  31.032   0.961
36742W        W 3525  42.317   2.236  14.967
36743W        W 3526  18.617  31.890  13.452
36744W        W 3527  36.824  26.131  14.723
36745W        W 3528   7.313  33.895   0.701
36746W        W 3529  12.725  28.646  12.177
36747W        W 3530   5.351  22.562  13.566
36748W        W 3531   3.761  31.535  10.640
36749W        W 3532  41.969  18.975  12.650
36750W        W 3533  28.668  28.976   4.374
36751W        W 3534  22.305  18.054   4.600
36752W        W 3535  27.647  30.872   3.587
36753W        W 3536   7.752  42.594  12.678
36754W        W 3537  34.244  17.287   2.266
36755W        W 3538   1.226  20.549  14.952
36756W        W 3539  33.345  41.115  13.934
36757W        W 3540   0.807  18.181   1.469
36758W        W 3541  18.263   5.391   0.281
36759W        W 3542   2.938  13.307  14.230
36760W        W 3543  23.243   6.501   1.460
36761W        W 3544  25.980  19.860   1.852
36762W        W 3545   1.743  19.641   1.382
36763W        W 3546   8.060  16.647   3.078
36764W        W 3547   9.080  21.174   4.107
36765W        W 3548   9.566   8.609   2.278
36766W        W 3549  29.552   2.299  10.725
36767W        W 3550  39.112  41.012   0.813
36768W        W 3551  11.344  40.139  11.955
36769W        W 3552  39.006  13.403  12.852
36770W        W 3553  27.452  25.022  14.534
36771W        W 3554  37.026  25.963   2.892
36772W        W 3555  38.432  28.717  14.323
36773W        W 3556  32.386  35.844  12.489
36774W        W 3557  25.485  31.477   3.450
36775W        W 3558  17.532  43.442  11.964
36776W        W 3559  37.184  21.089  11.692
36777W        W 3560  35.788  36.773   1.267
36778W        W 3561   4.312  15.025   1.339
36779W        W 3562   8.649  38.603  12.567
36780W        W 3563  29.412  22.817   4.131
36781W        W 3564  27.016   6.764   2.155
36782W        W 3565  16.656  35.879  12.343
36783W        W 3566  32.584  44.507   2.719
36784W        W 3567  24.021  39.838  13.487
36785W        W 3568  27.706   3.872   2.885
36786W        W 3569   9.307   6.191   3.610
36787W        W 3570  23.709  24.926  13.110
36788W        W 3571  40.337   1.966  12.093
36789W        W 3572  32.029   2.930   2.326
36790W        W 3573  42.895   2.171  12.435
36791W        W 3574  28.862  14.076   5.002
36792W        W 3575   2.318   1.801   4.506
36793W        W 3576  33.851  14.681  13.854
36794W        W 3577  31.328  34.882   0.729
36795W        W 3578  14.598  35.823  12.585
36796W        W 3579  28.055  30.314   0.317
36797W        W 3580  41.698   8.915  10.121
36798W        W 3581  33.102  33.327  13.879
36799W        W 3582  41.881  22.536  11.977
36800W        W 3583  44.074  34.423   3.130
36801W        W 3584   8.265   8.430  12.941
36802W        W 3585  13.073  18.743   3.645
36803W        W 3586   7.728  44.118   1.405
36804W        W 3587   9.157   3.932   3.165
36805W        W 3588  24.474  37.795   3.137
36806W        W 3589  41.232  29.391  14.616
36807W        W 3590  44.625  38.468   1.954
36808W        W 3591  38.489  16.815   4.473
36809W        W 3592   2.864  30.684  11.942
36810W        W 3593  41.542  26.214   0.398
36811W        W 3594  17.543   4.043   0.745
36812W        W 3595  12.786  40.319   1.174
36813W        W 3596   6.441  38.910  11.898
36814W        W 3597  12.702  38.998   0.333
36815W        W 3598  26.701  44.115  14.098
36816W        W 3599  21.531   0.547  12.217
36817W        W 3600  40.035  26.429   3.319
36818W        W 3601  29.078  35.870   0.369
36819W        W 3602  35.806  21.564  13.171
36820W        W 3603  13.302  24.673  10.604
36821W        W 3604  27.242   2.680   2.131
36822W        W 3605  30.046  11.677  14.994
36823W        W 3606  35.946   8.334   3.237
36824W        W 3607  37.863  14.503  13.778
36825W        W 3608  15.038  13.184   3.653
36826W        W 3609   6.778   1.583  12.850
36827W        W 3610  20.110  41.712   0.377
36828W        W 3611  11.763  23.820  11.164
36829W        W 3612   5.859  22.045  14.255
36830W        W 3613  29.044   6.373   3.246
36831W        W 3614  21.138  13.914   0.438
36832W        W 3615  19.811  12.628   3.805
36833W        W 3616  23.739   5.776   2.797
36834W        W 3617  13.828  34.178   3.477
36835W        W 3618   2.420   5.952  14.017
36836W        W 3619  19.422  18.522  11.434
36837W        W 3620  34.388  26.460   3.797
36838W        W 3621  37.313  35.055   0.307
36839W        W 3622  34.789  26.116   1.770
36840W        W 3623  17.619  30.014   4.401
36841W        W 3624  36.173  16.634  12.492
36842W        W 3625   1.538  34.652  14.071
36843W        W 3626  21.740  29.594  10.701
36844W        W 3627  11.573  30.692   2.837
36845W        W 3628  39.079  29.366   1.351
36846W        W 3629  21.463  43.299  13.053
36847W        W 3630  28.968  32.073  11.171
36848W        W 3631  20.194  25.460  11.204
36849W        W 3632   1.939  30.416   3.685
36850W        W 3633  42.361  42.861  10.594
36851W        W 3634  40.362  24.758  11.631
36852W        W 3635  44.699  29.963  11.513
36853W        W 3636  33.988  31.506   0.512
36854W        W 3637  44.245  23.676   0.872
36855W        W 3638  31.032  33.881  12.495
36856W        W 3639  11.569   6.564   2.921
36857W        W 3640  44.349  32.459   0.699
36858W        W 3641  35.956  32.593  11.782
36859W        W 3642  40.808  38.497   2.576
36860W        W 3643  43.677  11.381  14.942
36861W        W 3644  16.236  38.498   3.968
36862W        W 3645  35.087   0.723   4.335
36863W        W 3646  32.644  23.050   3.665
36864W        W 3647  11.356  32.560   3.609
36865W        W 3648   4.003  35.852   2.032
36866W        W 3649  28.746  31.787  11.981
36867W        W 3650  13.861  43.222   0.804
36868W        W 3651  23.801  11.344   2.897
36869W        W 3652  43.547   4.524  12.365
36870W        W 3653  26.178   9.634  10.979
36871W        W 3654  24.229   9.194   4.312
36872W        W 3655  29.723  27.343   1.367
36873W        W 3656   1.079  35.082   0.293
36874W        W 3657  34.045  26.268  10.703
36875W        W 3658  25.960   7.369   4.448
36876W        W 3659  22.272  11.137  12.769
36877W        W 3660   7.633  29.421   2.274
36878W        W 3661  30.253   4.737   3.182
36879W        W 3662  43.399  13.676   0.861
36880W        W 3663   1.789   0.239  14.787
36881W        W 3664   6.273  36.774   0.437
36882W        W 3665  28.327  15.020   1.466
36883W        W 3666  11.737   8.866   2.422
36884W        W 3667  40.759   5.743   0.329
36885W        W 3668  42.922  12.078  11.651
36886W        W 3669  12.144  15.697  12.568
36887W        W 3670  34.822   2.315  11.902
36888W        W 3671  35.552  20.718   0.510
36889W        W 3672  19.183  26.745  12.616
36890W        W 3673  27.346   0.692   2.716
36891W        W 3674  21.077  40.327   4.898
36892W        W 3675  13.173  28.757   1.666
36893W        W 3676  38.992  15.617   3.647
36894W        W 3677  41.616  21.619   2.120
36895W        W 3678  18.857  42.813   2.192
36896W        W 3679  43.406  19.816   4.033
36897W        W 3680  18.675  10.125  12.948
36898W        W 3681  12.131  36.642  11.576
36899W        W 3682  37.320  20.759   3.206
36900W        W 3683  27.826  41.902  14.484
36901W        W 3684   2.904  37.586   3.950
36902W        W 3685  10.770  39.477  12.086
36903W        W 3686  37.495  25.198  13.807
36904W        W 3687   9.481  19.651  13.613
36905W        W 3688  25.167  41.039   0.366
36906W        W 3689  22.183   2.338   2.924
36907W        W 3690  32.895  10.122   0.865
36908W        W 3691  38.414   5.291  14.738
36909W        W 3692  32.900   3.294   4.350
36910W        W 3693  14.042  11.399  12.907
36911W        W 3694  43.234  26.436  12.436
36912W        W 3695   7.267  15.545  10.732
36913W        W 3696   1.347   3.060   1.732
36914W        W 3697  20.464  15.784  11.150
36915W        W 3698  16.563  21.261   3.408
36916W        W 3699   5.674  11.791  14.933
36917W        W 3700  29.731  44.304  10.108
36918W        W 3701  37.312  36.172   4.105
36919W        W 3702   8.903  32.052  13.967
36920W        W 3703  28.170  36.833  13.839
36921W        W 3704  32.566  25.518   3.798
36922W        W 3705   3.254   7.627   0.725
36923W        W 3706  14.603  33.777   4.982
36924W        W 3707  24.562  26.858   1.352
36925W        W 3708  35.437  24.944  11.905
36926W        W 3709  40.765  27.358  13.871
36927W        W 3710  16.615   0.107   1.244
36928W        W 3711  21.214  28.491  14.343
36929W        W 3712  26.203   4.362   4.904
36930W        W 3713  37.765  41.797   4.782
36931W        W 3714  35.008  40.578  14.259
36932W        W 3715  19.276  24.150   1.947
36933W        W 3716  31.369  23.677   0.510
36934W        W 3717   7.901  30.783  13.512
36935W        W 3718   6.910   5.419  11.123
36936W        W 3719  39.790  39.803   2.831
36937W        W 3720  18.266   2.166   4.205
36938W        W 3721  36.478   0.492  12.429
36939W        W 3722  12.705  26.587   0.720
36940W        W 3723   6.357  27.715   0.556
36941W        W 3724  16.622   3.215  10.864
36942W        W 3725   7.722  38.573  12.483
36943W        W 3726  28.628   7.857  11.972
36944W        W 3727  32.582  33.102   0.452
36945W        W 3728  43.793   2.367   0.932
36946W        W 3729  29.184  32.865  12.528
36947W        W 3730   4.759  33.400   4.720
36948W        W 3731  26.031  17.145   0.328
36949W        W 3732  21.379  42.048   0.065
36950W        W 3733  40.423   2.368  14.577
36951W        W 3734  19.310  20.531   0.848
36952W        W 3735  42.149  23.638  11.841
36953W        W 3736  10.784  23.580   0.991
36954W        W 3737   4.425  13.624   3.893
36955W        W 3738   6.186   9.793  11.882
36956W        W 3739   2.457  34.518   4.691
36957W        W 3740   3.351  21.940  13.900
36958W        W 3741   8.828   7.603  11.565
36959W        W 3742  23.781   6.903   4.287
36960W        W 3743   6.189   7.510   3.732
36961W        W 3744  15.739   9.848  11.583
36962W        W 3745   2.306  10.848   3.331
36963W        W 3746   8.672  19.071   0.462
36964W        W 3747  18.683  12.284   0.982
36965W        W 3748  39.346   8.528  12.893
36966W        W 3749  13.413   8.624  10.751
36967W        W 3750   2.901  12.148  11.042
36968W        W 3751  13.162  25.849   0.700
36969W        W 3752  31.046  28.259  10.936
36970W        W 3753  39.569   4.415  10.710
36971W        W 3754  33.442   0.712  10.709
36972W        W 3755  32.382  33.041   2.659
36973W        W 3756   8.416  30.019   3.213
36974W        W 3757   0.445   4.886   4.298
36975W        W 3758  11.412  42.333   4.352
36976W        W 3759  16.300  42.826  14.512
36977W        W 3760  11.948  19.751   3.265
36978W        W 3761  22.002  39.376  13.089
36979W        W 3762  29.662  38.978  11.515
36980W        W 3763  12.134  10.220   2.809
36981W        W 3764  43.475  30.889  13.824
36982W        W 3765  18.871  30.096  13.531
36983W        W 3766  26.647  34.498  11.970
36984W        W 3767  38.964   2.117  14.554
36985W        W 3768   9.220   5.217  10.331
36986W        W 3769  11.705  33.971   3.180
36987W        W 3770  22.238  10.696  11.999
36988W        W 3771  18.861  43.272   4.609
36989W        W 3772   4.430  25.080  11.417
36990W        W 3773  41.289  42.442  11.136
36991W        W 3774  25.553   3.906  10.282
36992W        W 3775   7.623   4.789   1.684
36993W        W 3776  16.243  22.120  10.807
36994W        W 3777  26.414  30.981  11.609
36995W        W 3778  24.618  26.928  10.594
36996W        W 3779   8.624   4.698  13.474
36997W        W 3780  11.202  38.628   0.329
36998W        W 3781  32.861  24.587   0.413
36999W        W 3782  24.165  27.782  14.005
37000W        W 3783   6.729   4.419   2.122
37001W        W 3784   5.495  39.821  11.238
37002W        W 3785  34.557  44.142   0.103
37003W        W 3786   0.525  15.829   2.255
37004W        W 3787  11.336   8.316   9.830
37005W        W 3788  21.094  37.107  11.126
37006W        W 3789  26.577  30.892  13.341
37007W        W 3790   3.505   8.933  10.719
37008W        W 3791  25.869  44.304  11.841
37009W        W 3792  27.138  10.321   4.476
37010W        W 3793  26.473  27.983   3.247
37011W        W 3794  15.208  18.810   2.315
37012W        W 3795  30.404  20.787  14.899
37013W        W 3796  41.336   9.251   2.234
37014W        W 3797  25.509  36.831   4.570
37015W        W 3798   6.264   6.652   1.842
37016W        W 3799  38.863  27.014  10.708
37017W        W 3800  21.563  13.635   3.118
37018W        W 3801  36.662  40.829   0.039
37019W        W 3802   6.796  21.988   2.747
37020W        W 3803  40.759  22.002   4.194
37021W        W 3804  35.008  15.653   1.220
37022W        W 3805  12.650   8.912   4.945
37023W        W 3806  10.360  43.321  12.080
37024W        W 3807  33.434  25.491  11.298
37025W        W 3808  26.675  24.015   0.218
37026W        W 3809   9.449  40.458  11.154
37027W        W 3810  38.837  16.266  13.933
37028W        W 3811  16.635  24.330  11.716
37029W        W 3812  42.493  27.626  14.578
37030W        W 3813  24.589  21.688   3.286
37031W        W 3814  11.104   3.889  12.259
37032W        W 3815  12.704   0.023   1.357
37033W        W 3816  27.829  31.311  11.981
37034W        W 3817  12.754  21.764  10.964
37035W        W 3818   5.218  19.886  13.683
37036W        W 3819  39.137   1.693  14.352
37037W        W 3820  27.849  20.544   4.149
37038W        W 3821   5.910  38.094  12.316
37039W        W 3822  43.453  40.284   0.806
37040W        W 3823   1.019   7.319   3.376
37041W        W 3824  35.171  26.573   4.506
37042W        W 3825  31.050  41.990  13.413
37043W        W 3826  20.590  23.464   2.398
37044W        W 3827  16.343  20.595  11.875
37045W        W 3828  13.214   7.404   2.870
37046W        W 3829   2.864   3.738   2.741
37047W        W 3830  15.760   8.646  11.586
37048W        W 3831  21.508  23.883   5.006
37049W        W 3832  41.046   9.175  13.903
37050W        W 3833  15.923  28.932  14.548
37051W        W 3834  21.011  15.233   9.759
37052W        W 3835  19.901  12.097  13.408
37053W        W 3836   5.833  14.357   2.643
37054W        W 3837  35.886   3.351   3.017
37055W        W 3838   2.558  19.457  12.513
37056W        W 3839  35.813  15.677  11.198
37057W        W 3840  35.533  28.933   3.241
37058W        W 3841  17.115  22.614  11.560
37059W        W 3842  15.248  35.936   3.715
37060W        W 3843  19.006  18.684   0.934
37061W        W 3844   2.952   1.549  14.366
37062W        W 3845   2.622  29.571  11.566
37063W        W 3846  39.584  22.770  12.239
37064W        W 3847  32.571  12.557   2.812
37065W        W 3848  12.400   3.591  12.041
37066W        W 3849  43.934  28.879   1.239
37067W        W 3850  15.219  38.964  13.878
37068W        W 3851  12.303  32.906   1.044
37069W        W 3852  32.408  17.812  14.878
37070W        W 3853  11.118  12.585   3.013
37071W        W 3854  24.882   5.289  11.908
37072W        W 3855  39.958  31.669  13.205
37073W        W 3856   6.165  16.991   4.012
37074W        W 3857   9.773  32.930  12.141
37075W        W 3858   9.734  41.422   0.506
37076W        W 3859  30.363  21.247   1.603
37077W        W 3860   4.003   0.037  11.178
37078W        W 3861  22.697  16.349  10.445
37079W        W 3862  31.640  24.745  11.266
37080W        W 3863  31.450  18.781   1.028
37081W        W 3864  25.570  20.346   3.677
37082W        W 3865  40.306  40.288   5.047
37083W        W 3866   3.552  15.730  12.284
37084W        W 3867   2.362  37.223   4.672
37085W        W 3868  10.961   2.327  12.739
37086W        W 3869   6.277  17.645   2.429
37087W        W 3870  22.665   6.345   4.762
37088W        W 3871  19.814   6.860   1.055
37089W        W 3872   4.837   7.262  11.717
37090W        W 3873   3.219  41.042  14.811
37091W        W 3874  43.240   8.298  12.445
37092W        W 3875  13.605  19.602   0.027
37093W        W 3876  16.367   0.535   0.368
37094W        W 3877   0.309  19.097  11.691
37095W        W 3878  12.915  22.028   3.288
37096W        W 3879   5.738   7.788   3.752
37097W        W 3880  23.609  17.564   1.414
37098W        W 3881  39.857  23.748   3.261
37099W        W 3882  28.351  25.145   4.691
37100W        W 3883  14.095  23.984   4.576
37101W        W 3884  41.350  34.590  14.258
37102W        W 3885   2.636  30.415   0.951
37103W        W 3886  19.764  40.450  13.107
37104W        W 3887  36.913  23.034   2.538
37105W        W 3888  20.623  25.698  11.394
37106W        W 3889   8.914  20.849  14.252
37107W        W 3890  15.069   5.253   4.744
37108W        W 3891  25.640   1.235   1.472
37109W        W 3892   1.946  28.472  11.833
37110W        W 3893  14.123  20.326  14.902
37111W        W 3894  44.493   2.972  14.762
37112W        W 3895  24.698  43.861   0.825
37113W        W 3896  27.005  14.159  13.536
37114W        W 3897  17.723  23.526  11.566
37115W        W 3898   7.337  15.738  11.198
37116W        W 3899  17.199   2.209  11.951
37117W        W 3900  37.915   1.495  11.423
37118W        W 3901  42.328  42.089   4.432
37119W        W 3902   6.570  22.554  12.642
37120W        W 3903  44.769  26.156  13.434
37121W        W 3904   6.964  15.510   4.035
37122W        W 3905  43.277  26.379   3.635
37123W        W 3906  15.372  25.164   0.361
37124W        W 3907  23.613  15.178  10.706
37125W        W 3908  32.015  38.506   2.928
37126W        W 3909   8.960  20.595   1.439
37127W        W 3910  11.927   1.627  13.404
37128W        W 3911   8.980  22.303   3.405
37129W        W 3912  40.768  20.032   2.963
37130W        W 3913  14.863  36.154  13.854
37131W        W 3914   3.793  44.808   1.489
37132W        W 3915  31.654  18.820   2.405
37133W        W 3916  27.775  24.132   4.130
37134W        W 3917  22.810  27.529   1.839
37135W        W 3918  37.928   5.875   3.450
37136W        W 3919  10.190   8.690  12.527
37137W        W 3920   4.017  23.788   0.842
37138W        W 3921  42.243  36.384   3.289
37139W        W 3922  23.187  15.264  13.321
37140W        W 3923  28.701  25.210   3.731
37141W        W 3924   0.041  40.443  14.883
37142W        W 3925   1.081  28.187   1.773
37143W        W 3926  23.908  10.486   0.336
37144W        W 3927  11.155  43.777   3.205
37145W        W 3928  27.584   5.325   2.838
37146W        W 3929  41.193  10.780   4.143
37147W        W 3930  42.794  28.354  10.732
37148W        W 3931  12.160  26.871  13.590
37149W        W 3932  19.328  41.013  14.971
37150W        W 3933  15.277   6.305   3.702
37151W        W 3934  16.259  25.687   4.976
37152W        W 3935  30.663  18.815  10.432
37153W        W 3936  13.231  33.903   0.950
37154W        W 3937  19.093   1.895   0.391
37155W        W 3938   9.919  18.587   0.933
37156W        W 3939  37.925   6.416  13.984
37157W        W 3940  30.022  28.547   2.764
37158W        W 3941  41.890  43.731  14.955
37159W        W 3942  14.045  26.585  12.437
37160W        W 3943  35.658  29.456   2.401
37161W        W 3944  20.240   9.819  13.891
37162W        W 3945   5.422  12.336  13.842
37163W        W 3946  19.701  13.030  10.884
37164W        W 3947  26.263  44.673   1.827
37165W        W 3948  34.485  21.254  10.686
37166W        W 3949  34.349  27.510  13.968
37167W        W 3950  41.993   3.923  13.982
37168W        W 3951  31.865  28.635   2.635
37169W        W 3952  40.537  23.407   3.563
37170W        W 3953  39.868   7.249   1.763
37171W        W 3954  31.171  42.993   3.729
37172W        W 3955  19.948  22.738  11.187
37173W        W 3956  14.832  10.763  13.839
37174W        W 3957  28.975  34.188  13.534
37175W        W 3958   9.233  29.740  10.605
37176W        W 3959  32.988  40.884   4.486
37177W        W 3960  22.990  11.550   2.941
37178W        W 3961  12.889  41.939   3.284
37179W        W 3962  41.331  20.238   0.022
37180W        W 3963   3.908  15.625   3.200
37181W        W 3964  37.056  38.798   1.756
37182W        W 3965  22.466  42.483   1.675
37183W        W 3966   5.773   2.313   1.271
37184W        W 3967  36.862  20.682   4.602
37185W        W 3968  37.441   3.524  10.864
37186W        W 3969   0.042  13.059   3.286
37187W        W 3970  22.277  30.546  14.481
37188W        W 3971  16.179  35.073   3.479
37189W        W 3972  25.031   6.866  13.797
37190W        W 3973  19.013  21.749   0.386
37191W        W 3974   7.550  11.530  11.045
37192W        W 3975  21.572   3.417   3.182
37193W        W 3976  12.234  24.827  10.635
37194W        W 3977   1.253  12.233  11.770
37195W        W 3978   6.140  37.071   1.770
37196W        W 3979  15.843  22.679   4.509
37197W        W 3980  26.019  38.883  14.465
37198W        W 3981   4.323  44.880  13.731
37199W        W 3982   5.100   3.451   1.284
37200W        W 3983  19.221  40.096   1.644
37201W        W 3984  27.172   1.952  13.159
37202W        W 3985  24.211   0.969  14.907
37203W        W 3986  12.538  10.603  12.931
37204W        W 3987  13.333  32.501  14.553
37205W        W 3988  43.913   4.451  13.502
37206W        W 3989  30.514  27.606  13.332
37207W        W 3990   9.748  12.291   2.807
37208W        W 3991  17.186  10.697   4.083
37209W        W 3992  41.863  30.826   2.703
37210W        W 3993  19.147  25.449   3.672
37211W        W 3994  25.665  41.143   1.268
37212W        W 3995  36.915  29.654   4.559
37213W        W 3996  34.525  37.154  12.826
37214W        W 3997  27.624   9.936   0.260
37215W        W 3998  37.341  30.536   0.973
37216W        W 3999  30.397  33.914  13.846
37217W        W 4000  40.523  26.572   0.789
37218W        W 4001   7.743   3.939  12.208
37219W        W 4002  24.644  14.591   4.187
37220W        W 4003  21.543   5.399  13.666
37221W        W 4004  35.701  12.440   1.369
37222W        W 4005  31.364  20.591  14.870
37223W        W 4006  15.679  34.158   2.926
37224W        W 4007  29.175   5.194  13.341
37225W        W 4008  31.176  16.058   0.906
37226W        W 4009  36.973   4.068  13.435
37227W        W 4010  25.787  28.265   0.333
37228W        W 4011   8.392  12.906  11.385
37229W        W 4012  31.079  22.447  11.223
37230W        W 4013  41.144  24.497  11.244
37231W        W 4014   0.122  39.069   1.807
37232W        W 4015  33.212  31.524   2.873
37233W        W 4016  19.350   2.004   4.313
37234W        W 4017  27.649  12.260  11.093
37235W        W 4018  20.884   5.446  10.390
37236W        W 4019  44.851  32.576   2.879
37237W        W 4020  34.101   8.613   0.961
37238W        W 4021  22.494  39.190   5.004
37239W        W 4022  36.931  17.189   3.156
37240W        W 4023   7.809   2.368  11.268
37241W        W 4024  29.091  11.090   2.383
37242W        W 4025   6.138  22.405  12.392
37243W        W 4026   9.825  10.028   2.232
37244W        W 4027  27.270   7.393  14.790
37245W        W 4028  13.244  22.046  11.493
37246W        W 4029  11.939  43.027  13.461
37247W        W 4030  34.965  22.101   0.413
37248W        W 4031   4.987  37.140   3.068
37249W        W 4032  21.075  23.534   2.189
37250W        W 4033  14.564  19.163  12.562
37251W        W 4034  44.957  16.782  11.422
37252W        W 4035  34.625  29.626  14.059
37253W        W 4036  38.447  34.521   2.088
37254W        W 4037  26.145  10.048  10.667
37255W        W 4038   3.427  36.353  12.948
37256W        W 4039  41.788  17.453  10.528
37257W        W 4040  40.768  28.083   4.311
37258W        W 4041  34.488  42.971  11.206
37259W        W 4042  32.457   4.806  14.288
37260W        W 4043  21.501  13.850  10.284
37261W        W 4044  26.570  22.470  14.548
37262W        W 4045   8.681   5.407   3.620
37263W        W 4046  10.461  29.082  11.596
37264W        W 4047  19.075  10.657   1.585
37265W        W 4048  32.134  20.672  11.691
37266W        W 4049  22.053   2.613   3.340
37267W        W 4050  37.280   4.691  12.486
37268W        W 4051  26.567  20.339   0.839
37269W        W 4052  15.147  41.830   0.309
37270W        W 4053   6.225  23.635  13.513
37271W        W 4054  30.225  13.424  13.369
37272W        W 4055  34.258   8.817   3.352
37273W        W 4056  41.378   2.426  10.982
37274W        W 4057   4.308   1.350  14.306
37275W        W 4058  17.771   2.800   2.257
37276W        W 4059  13.598  11.443  13.171
37277W        W 4060   8.248  14.199   3.776
37278W        W 4061  38.397  42.458  12.388
37279W        W 4062   0.632  10.761  11.952
37280W        W 4063  38.872  14.378  10.787
37281W        W 4064  36.345  20.564   4.456
37282W        W 4065  34.164  44.788  12.578
37283W        W 4066  33.872   2.153   1.804
37284W        W 4067  34.985   0.501   3.885
37285W        W 4068   9.384  10.223  11.058
37286W        W 4069  28.106  42.565  10.647
37287W        W 4070  25.656  33.375   3.714
37288W        W 4071   1.398  37.480  10.013
37289W        W 4072  40.081  33.598   0.711
37290W        W 4073  23.120  44.354  11.171
37291W        W 4074  24.414  15.556  13.060
37292W        W 4075  16.251  30.468   2.131
37293W        W 4076   2.947  23.493  12.980
37294W        W 4077   4.160  36.505  11.480
37295W        W 4078  44.561  31.103  12.358
37296W        W 4079  28.488   5.698   1.259
37297W        W 4080  17.145  26.602  13.619
37298W        W 4081   2.812  33.327  11.361
37299W        W 4082  35.662  40.464   1.865
37300W        W 4083  36.392  32.054  14.664
37301W        W 4084  11.407  37.056   3.799
37302W        W 4085  21.663   5.042   4.157
37303W        W 4086  18.610  34.946  10.652
37304W        W 4087  40.458  10.638   2.412
37305W        W 4088  10.845  32.689  10.537
37306W        W 4089  38.589   8.186   2.270
37307W        W 4090  38.267  44.489  12.940
37308W        W 4091  10.676  28.513  11.611
37309W        W 4092  27.106   9.795  10.552
37310W        W 4093  26.271  26.642  14.680
37311W        W 4094  23.942  21.810  11.390
37312W        W 4095  31.604  15.587  11.996
37313W        W 4096  12.756   5.251   4.647
37314W        W 4097  31.151  22.542   0.828
37315W        W 4098  23.580  14.655  11.843
37316W        W 4099  35.326  19.983   2.222
37317W        W 4100  24.006  20.808   3.163
37318W        W 4101   7.300  25.957   1.815
37319W        W 4102  12.852  40.811   2.621
37320W        W 4103  16.290  38.044  13.323
37321W        W 4104  17.606  19.818   2.975
37322W        W 4105  15.374   0.533   2.403
37323W        W 4106  26.018   4.397   4.364
37324W        W 4107  14.985  43.743  11.300
37325W        W 4108  14.849  40.979   0.483
37326W        W 4109  36.551  41.542   2.736
37327W        W 4110  38.302  40.814   1.419
37328W        W 4111  11.855  12.156   2.740
37329W        W 4112  23.575  40.096  13.480
37330W        W 4113  14.228  12.590   3.252
37331W        W 4114   4.316   2.564  13.559
37332W        W 4115  27.019  24.416   4.101
37333W        W 4116  37.172  44.745   2.640
37334W        W 4117  22.554   4.396  10.299
37335W        W 4118  28.101  12.182  13.493
37336W        W 4119   6.954  37.487   1.790
37337W        W 4120  20.522  36.587  14.493
37338W        W 4121  17.980   6.229  12.444
37339W        W 4122  24.952  18.154   2.885
37340W        W 4123  43.902  21.545  12.872
37341W        W 4124  13.650   5.874  11.738
37342W        W 4125  31.235  33.053   3.853
37343W        W 4126  25.507  17.327   4.186
37344W        W 4127  32.361  27.561   2.946
37345W        W 4128  10.099  43.771  13.025
37346W        W 4129  35.906   0.543  13.085
37347W        W 4130  26.062  22.403  11.603
37348W        W 4131  15.610  20.271   3.138
37349W        W 4132  14.322  31.311   1.553
37350W        W 4133  41.776  14.279   3.091
37351W        W 4134  15.162  31.603   0.982
37352W        W 4135  12.850  26.667   1.228
37353W        W 4136   2.400  18.585   3.789
37354W        W 4137  19.237  25.098  13.812
37355W        W 4138  19.723  39.996  12.861
37356W        W 4139  29.003   3.365   1.250
37357W        W 4140  32.890  19.749  11.642
37358W        W 4141  40.346   3.662   2.242
37359W        W 4142  29.497  15.755  11.719
37360W        W 4143  18.314  35.929   2.020
37361W        W 4144  30.866  24.126  11.575
37362W        W 4145  23.968   5.774   4.152
37363W        W 4146  26.888  44.445   2.393
37364W        W 4147  19.481  36.856  13.915
37365W        W 4148   5.032  24.424   4.594
37366W        W 4149   3.238  38.297  12.917
37367W        W 4150  25.248   8.324  14.746
37368W        W 4151   1.210   9.416   4.984
37369W        W 4152  23.761  17.993   0.390
37370W        W 4153  14.726  44.267  12.653
37371W        W 4154  28.933  13.681  11.440
37372W        W 4155  30.134  26.908   4.101
37373W        W 4156   1.328  36.405   4.792
37374W        W 4157  25.141  41.892   0.819
37375W        W 4158  15.585  29.648   1.703
37376W        W 4159  41.838  25.777  14.049
37377W        W 4160  26.697   9.022   4.182
37378W        W 4161   2.694  17.620  13.955
37379W        W 4162  18.864   4.305   1.018
37380W        W 4163  26.527  34.762  14.703
37381W        W 4164  15.616   3.180   4.137
37382W        W 4165  10.283  22.514  12.080
37383W        W 4166  32.710   2.458   0.247
37384W        W 4167  27.487   4.011   3.923
37385W        W 4168  12.392   5.327  12.478
37386W        W 4169  19.494   2.766  13.395
37387W        W 4170  19.646  43.566  11.413
37388W        W 4171  41.741  29.571   0.404
37389W        W 4172  15.287   2.018  12.567
37390W        W 4173  26.490   4.795  13.086
37391W        W 4174  14.698  19.201  14.490
37392W        W 4175   2.382  22.192   0.415
37393W        W 4176  35.892   8.509  12.942
37394W        W 4177   3.176   9.341   4.056
37395W        W 4178  11.858   7.766  13.866
37396W        W 4179  24.109  12.404   0.333
37397W        W 4180  35.361  12.836  14.896
37398W        W 4181  38.638  20.621  12.535
37399W        W 4182  21.171  19.001  14.373
37400W        W 4183  26.492   2.975  13.934
37401W        W 4184  43.248  26.224  13.451
37402W        W 4185  25.089  39.772   1.402
37403W        W 4186  44.312  11.810  13.350
37404W        W 4187  35.156  30.636   0.832
37405W        W 4188  43.889   8.871   2.297
37406W        W 4189  35.392  28.083  11.654
37407W        W 4190  16.040  22.147   4.854
37408W        W 4191  32.643  32.422  12.068
37409W        W 4192  43.849  25.761   0.351
37410W        W 4193  40.269  25.954   3.703
37411W        W 4194  14.178  33.508  13.155
37412W        W 4195   7.138  35.143   4.316
37413W        W 4196  26.564   8.454   0.580
37414W        W 4197   6.407  14.566   4.322
37415W        W 4198  38.661  12.714  13.843
37416W        W 4199  18.068  23.680  14.159
37417W        W 4200  25.905  31.125  10.752
37418W        W 4201   2.154   3.897   4.142
37419W        W 4202   2.730  12.800  13.494
37420W        W 4203  10.769   3.457  13.774
37421W        W 4204   3.254  44.893   4.118
37422W        W 4205   8.376  27.165  14.824
37423W        W 4206  30.459  37.042   4.639
37424W        W 4207  10.531  39.514   0.333
37425W        W 4208  24.749  36.970  12.906
37426W        W 4209  12.164  19.747  13.819
37427W        W 4210  38.845  43.333   4.766
37428W        W 4211  42.556  43.870  13.468
37429W        W 4212  31.574  31.173  13.855
37430W        W 4213   8.633  13.622  12.393
37431W        W 4214  42.467  24.511  13.637
37432W        W 4215   2.961  37.235   3.573
37433W        W 4216  25.182  35.036  13.887
37434W        W 4217   1.271  28.122  12.949
37435W        W 4218   3.332  28.645   0.872
37436W        W 4219  11.658  24.988   4.446
37437W        W 4220  43.351  20.506   2.731
37438W        W 4221   6.258  25.780  13.981
37439W        W 4222   7.344  12.082  12.014
37440W        W 4223  35.308  11.725   1.765
37441W        W 4224  29.085   3.774   2.208
37442W        W 4225  24.014   5.950   1.461
37443W        W 4226  14.120  36.050  11.713
37444W        W 4227  29.831  17.345   2.365
37445W        W 4228   9.742   2.189   2.187
37446W        W 4229  31.475  18.179   3.686
37447W        W 4230  19.320   8.914  12.988
37448W        W 4231  44.159  29.065  11.627
37449W        W 4232  37.518  17.455   0.698
37450W        W 4233  24.065  41.904   2.819
37451W        W 4234  22.908  16.954   1.900
37452W        W 4235  19.891  17.993  12.374
37453W        W 4236  16.412  37.972   2.339
37454W        W 4237  26.671  27.453  13.435
37455W        W 4238  38.424  27.192   1.257
37456W        W 4239  15.175  33.656  12.955
37457W        W 4240  25.341   4.901  10.647
37458W        W 4241  18.864  35.343  14.307
37459W        W 4242  35.793  13.482  11.146
37460W        W 4243  14.550  22.213  14.460
37461W        W 4244  12.453  37.840   2.560
37462W        W 4245  20.734  41.003  11.047
37463W        W 4246  34.959  10.764   2.472
37464W        W 4247  26.168   0.481  14.295
37465W        W 4248  10.309  10.054  14.511
37466W        W 4249  29.244   5.522   1.965
37467W        W 4250  20.140  17.086   1.716
37468W        W 4251   4.666  11.435   0.956
37469W        W 4252  17.789   6.392  12.919
37470W        W 4253  27.445   1.073   1.876
37471W        W 4254  33.117  25.102  14.661
37472W        W 4255  29.128  23.805   2.136
37473W        W 4256   7.961  22.320  13.824
37474W        W 4257  30.100   1.784  14.032
37475W        W 4258  16.178  33.853  11.673
37476W        W 4259  33.890  11.437  12.862
37477W        W 4260   7.243  40.301   0.767
37478W        W 4261  42.971  38.954  11.635
37479W        W 4262  35.521  27.655  12.369
37480W        W 4263   8.961  29.982  10.972
37481W        W 4264  38.430   7.741   3.518
37482W        W 4265  13.737   4.970  10.640
37483W        W 4266  42.205   1.779  12.126
37484W        W 4267  24.559  36.496  11.151
37485W        W 4268  28.938   4.281   3.136
37486W        W 4269  10.746   0.199  13.364
37487W        W 4270  23.420  17.630  14.268
37488W        W 4271  42.751   6.186  11.143
37489W        W 4272   8.908  28.666  12.929
37490W        W 4273  21.203   5.969   4.670
37491W        W 4274  44.541  44.796  11.987
37492W        W 4275  13.584  41.258  13.376
37493W        W 4276  25.989   3.880   1.122
37494W        W 4277  17.167  44.104  13.763
37495W        W 4278  36.025  41.436  11.547
37496W        W 4279  24.019  21.821   3.294
37497W        W 4280  14.172  14.735   1.022
37498W        W 4281  44.514  33.625   1.361
37499W        W 4282  37.527  39.875  13.810
37500W        W 4283   0.972  13.537   1.890
37501W        W 4284   9.653  29.899  14.842
37502W        W 4285  41.876  16.084  12.139
37503W        W 4286  34.792  21.239   1.407
37504W        W 4287  25.358  36.569   3.348
37505W        W 4288  23.775  24.016  14.386
37506W        W 4289  26.188  11.278  13.885
37507W        W 4290  22.683   2.141  11.231
37508W        W 4291  20.194   4.010   0.245
37509W        W 4292  22.538  12.233  10.421
37510W        W 4293  23.242  36.289   3.672
37511W        W 4294  26.466  41.059  10.270
37512W        W 4295  23.728  13.221   2.148
37513W        W 4296   3.109   1.071  10.700
37514W        W 4297  28.531  13.499  11.147
37515W        W 4298  39.227  17.331  13.944
37516W        W 4299  26.366  19.070   2.135
37517W        W 4300  40.902  17.739   2.275
37518W        W 4301  39.147  38.987   5.138
37519W        W 4302  20.394  44.996  10.570
37520W        W 4303  39.971  12.157   1.067
37521W        W 4304   1.862  39.913  10.490
37522W        W 4305  37.363  10.416  12.000
37523W        W 4306   6.922   4.751  11.855
37524W        W 4307  37.137  15.800   2.990
37525W        W 4308   1.159  12.086   0.014
37526W        W 4309  23.263  31.769  11.082
37527W        W 4310  38.810  19.232  14.901
37528W        W 4311  27.547  31.162  11.094
37529W        W 4312  27.037  21.621   2.667
37530W        W 4313  10.023   3.237  10.720
37531W        W 4314   7.788  11.860   1.494
37532W        W 4315  15.126  40.992  12.904
37533W        W 4316  38.525   2.395  13.310
37534W        W 4317  35.489  40.941   1.394
37535W        W 4318  29.498   5.107  11.161
37536W        W 4319  17.120  16.321  11.552
37537W        W 4320  35.113  18.501   4.092
37538W        W 4321  29.461  17.440  11.085
37539W        W 4322  42.238  32.930  13.501
37540W        W 4323  33.595   2.179   0.005
37541W        W 4324   8.520   8.630   0.876
37542W        W 4325  29.878  34.612  12.278
37543W        W 4326   1.150   5.246  11.986
37544W        W 4327  34.797   8.977   4.027
37545W        W 4328   3.457   2.379   3.223
37546W        W 4329   1.684  36.136   5.054
37547W        W 4330   7.166   4.884   0.768
37548W        W 4331   8.119  27.793   0.452
37549W        W 4332  35.635  36.781   2.676
37550W        W 4333  33.950  21.755   5.356
37551W        W 4334   8.396  36.883   1.752
37552W        W 4335  37.335  23.734  13.133
37553W        W 4336  39.508  10.753  10.946
37554W        W 4337  31.908  33.984   2.128
37555W        W 4338  14.850  38.502  14.842
37556W        W 4339  41.859   1.797  11.545
37557W        W 4340   3.654  26.170  12.615
37558W        W 4341  14.781  44.216  14.034
37559W        W 4342   6.270  20.184  12.096
37560W        W 4343  41.782  15.372   3.241
37561W        W 4344  43.896  42.451   3.453
37562W        W 4345  44.544  16.822  13.349
37563W        W 4346  16.519  35.447  10.683
37564W        W 4347  31.718  14.751  13.409
37565W        W 4348   2.442   5.030  11.381
37566W        W 4349  38.104  32.898  10.647
37567W        W 4350   6.785  37.972   2.880
37568W        W 4351   3.276  35.620  13.395
37569W        W 4352  21.676  32.797  13.143
37570W        W 4353  32.044  37.281  12.958
37571W        W 4354  16.675  23.664   2.762
37572W        W 4355  39.547   6.677   4.549
37573W        W 4356  44.848  13.685   2.593
37574W        W 4357  30.947  25.231  12.952
37575W        W 4358  20.172  32.479   4.327
37576W        W 4359  12.192  25.988  13.873
37577W        W 4360   3.834  34.898  13.263
37578W        W 4361  31.061  17.081   4.474
37579W        W 4362  42.501  38.774   0.811
37580W        W 4363  35.523  10.710  14.226
37581W        W 4364  29.957  38.906   0.954
37582W        W 4365  15.514  23.109   3.087
37583W        W 4366  42.310   1.393   4.251
37584W        W 4367   2.664  31.639  14.975
37585W        W 4368  40.344  13.617   2.327
37586W        W 4369  35.149  18.984  12.928
37587W        W 4370  43.449  20.812  13.781
37588W        W 4371   0.779  26.715   1.317
37589W        W 4372  13.883   8.271   0.759
37590W        W 4373  12.220   9.391   0.054
37591W        W 4374  33.150  10.721   1.371
37592W        W 4375   3.007  22.727  13.903
37593W        W 4376   3.434  38.772   2.836
37594W        W 4377  33.580  41.805   4.712
37595W        W 4378  39.336  37.292   0.739
37596W        W 4379  31.421  30.874  12.414
37597W        W 4380   4.121  41.917   4.229
37598W        W 4381  39.030   8.469   2.179
37599W        W 4382   4.733  13.930  11.609
37600W        W 4383   6.863  30.410  12.855
37601W        W 4384   3.386   8.408  10.777
37602W        W 4385  42.074  37.380   2.728
37603W        W 4386  13.658  17.351   2.699
37604W        W 4387  28.493   0.374  14.267
37605W        W 4388  36.040   5.889  10.067
37606W        W 4389  31.136  34.655   3.234
37607W        W 4390  34.176   3.275   4.740
37608W        W 4391  42.392  21.582  11.023
37609W        W 4392  18.184   6.893   0.055
37610W        W 4393  40.982   1.073  13.210
37611W        W 4394  27.127  42.323  11.727
37612W        W 4395  39.630  20.895  13.875
37613W        W 4396  39.022  15.269   2.385
37614W        W 4397  29.705  39.505   1.487
37615W        W 4398  14.078  33.033   2.823
37616W        W 4399  22.874  39.005   9.834
37617W        W 4400  23.100  17.333  14.835
37618W        W 4401  42.267  14.397  11.120
37619W        W 4402  40.351  29.596  14.969
37620W        W 4403  32.955  38.343   2.353
37621W        W 4404  18.326  37.096   2.961
37622W        W 4405  29.986  23.567  12.550
37623W        W 4406   7.678  30.010  10.650
37624W        W 4407  37.564   9.888   0.300
37625W        W 4408  15.495  35.957   0.540
37626W        W 4409  43.765   4.220  13.962
37627W        W 4410  15.323  35.852   1.764
37628W        W 4411  10.081  41.730  14.482
37629W        W 4412   8.198  17.188   0.839
37630W        W 4413  19.837  14.993   2.812
37631W        W 4414  44.206   7.497   2.211
37632W        W 4415  34.526  26.763  11.560
37633W        W 4416  13.264  31.915  11.651
37634W        W 4417  10.643  41.694   0.815
37635W        W 4418  14.504  40.373   3.503
37636W        W 4419   8.277   0.286  12.653
37637W        W 4420  42.922   9.989  10.273
37638W        W 4421  43.839  34.427   4.507
37639W        W 4422  44.446   2.712  14.288
37640W        W 4423  32.705   6.273  13.483
37641W        W 4424  36.375   8.397   2.909
37642W        W 4425  21.669  43.797   0.915
37643W        W 4426  44.468  21.985  14.712
37644W        W 4427  38.924   1.493  11.899
37645W        W 4428  25.174  42.051   2.647
37646W        W 4429  31.514   5.621   2.258
37647W        W 4430  21.030  31.847  12.654
37648W        W 4431   7.541  28.462  12.164
37649W        W 4432  19.326   6.119  10.689
37650W        W 4433  20.827  29.561   4.645
37651W        W 4434  43.516  36.820  12.060
37652W        W 4435  40.284   6.857   0.266
37653W        W 4436   4.938  33.087  12.479
37654W        W 4437  24.669  23.875  12.932
37655W        W 4438  44.365  29.003  14.551
37656W        W 4439  13.345   5.374   3.297
37657W        W 4440  21.752  15.875   2.333
37658W        W 4441  24.197  30.395  12.685
37659W        W 4442  29.927  26.685  13.522
37660W        W 4443  28.468  12.617   3.658
37661W        W 4444  23.152  42.443  10.962
37662W        W 4445  44.049  37.525   1.693
37663W        W 4446  12.199   6.864  11.588
37664W        W 4447   6.985  12.644   2.624
37665W        W 4448   3.042   2.400  11.158
37666W        W 4449  11.857  37.816   4.850
37667W        W 4450   5.260   7.316   4.562
37668W        W 4451   6.095  12.157  14.775
37669W        W 4452  23.512  43.336   4.063
37670W        W 4453  42.047   4.943  10.090
37671W        W 4454  31.091  41.985   4.693
37672W        W 4455   3.448  31.414  14.934
37673W        W 4456  11.354  19.292  12.010
37674W        W 4457  29.219  36.957   3.292
37675W        W 4458  23.297  25.977  11.842
37676W        W 4459  39.778  16.456   0.371
37677W        W 4460  43.766   2.391  11.499
37678W        W 4461  19.012   6.304   2.438
37679W        W 4462  18.027  27.051   2.267
37680W        W 4463  27.228  42.421  14.169
37681W        W 4464   6.020  33.081  13.535
37682W        W 4465   3.241  43.428   1.678
37683W        W 4466   8.379  32.410   0.711
37684W        W 4467   8.640  13.904   3.100
37685W        W 4468  27.121  32.350   0.461
37686W        W 4469  34.389   4.378  13.849
37687W        W 4470   6.156  12.773   0.445
37688W        W 4471  39.125   9.425   2.125
37689W        W 4472  42.717  38.043   4.908
37690W        W 4473  32.331  29.616  13.257
37691W        W 4474   0.059  38.840   3.297
37692W        W 4475  12.295  31.892  10.889
37693W        W 4476  18.251   1.198   4.532
37694W        W 4477  21.271  10.563  11.831
37695W        W 4478  44.600   6.277  10.416
37696W        W 4479  31.844  22.722   3.717
37697W        W 4480  27.959  22.796  11.622
37698W        W 4481  13.262  44.365  14.551
37699W        W 4482  26.382  25.778   1.725
37700W        W 4483  40.025  27.567   0.071
37701W        W 4484  41.851   9.441   2.576
37702W        W 4485  19.646  10.355   4.147
37703W        W 4486   8.900  41.339   4.315
37704W        W 4487  12.747  14.168   4.646
37705W        W 4488  35.068  11.257   1.292
37706W        W 4489   3.810  27.364   3.552
37707W        W 4490  22.365   1.432  13.114
37708W        W 4491  37.098   7.881   1.474
37709W        W 4492  25.269  17.201   1.830
37710W        W 4493  33.493  27.857   1.351
37711W        W 4494   2.301  26.553  13.391
37712W        W 4495  37.323  29.165   0.581
37713W        W 4496   9.901   8.438  12.876
37714W        W 4497  14.685  19.170  13.962
37715W        W 4498   5.128   6.368  12.594
37716W        W 4499  43.588  14.524  13.866
37717W        W 4500  10.218  35.251   2.751
37718W        W 4501  29.069  37.093   2.422
37719W        W 4502  24.256  39.978   0.449
37720W        W 4503   9.415  34.572  10.969
37721W        W 4504  26.237  21.285  11.001
37722W        W 4505  11.137  19.347   2.847
37723W        W 4506  38.033  26.872  14.408
37724W        W 4507  10.244  38.337   0.530
37725W        W 4508  20.340  32.884  13.465
37726W        W 4509  36.372  28.948   0.969
37727W        W 4510  22.648  13.075  14.259
37728W        W 4511  18.949   2.449  11.913
37729W        W 4512  21.753  40.332  11.565
37730W        W 4513  40.630  32.024  12.453
37731W        W 4514  19.084  35.210  11.335
37732W        W 4515  31.646  28.111   4.784
37733W        W 4516  23.522   8.512  12.553
37734W        W 4517  18.369  15.808  12.879
37735W        W 4518   4.994  34.283  14.481
37736W        W 4519  42.854  24.741  12.507
37737W        W 4520  32.066  27.652   4.048
37738W        W 4521  36.558   9.333   4.383
37739W        W 4522  11.103   0.138   1.758
37740W        W 4523  39.928  33.202   3.709
37741W        W 4524  19.779  35.071  14.465
37742W        W 4525  28.609   2.985  11.616
37743W        W 4526  43.972  37.533   3.782
37744W        W 4527   6.929  10.455   0.868
37745W        W 4528  35.907  43.957   3.118
37746W        W 4529   8.127  19.444   0.413
37747W        W 4530  22.554  29.710  12.685
37748W        W 4531   8.135  20.466   2.275
37749W        W 4532  17.811  25.458  13.889
37750W        W 4533   2.272  28.112   4.673
37751W        W 4534  39.854  33.671   2.872
37752W        W 4535  37.569  30.153  14.508
37753W        W 4536   2.871  23.243  11.181
37754W        W 4537  19.037  34.137   1.893
37755W        W 4538   7.281  27.716   2.717
37756W        W 4539   8.281  24.186   1.924
37757W        W 4540   6.790  17.863  13.959
37758W        W 4541  22.584   2.972   4.017
37759W        W 4542   6.404  36.605   2.714
37760W        W 4543  21.722   5.220   3.658
37761W        W 4544   3.190  29.123   0.784
37762W        W 4545  12.384  11.868  13.436
37763W        W 4546   5.852  43.430  10.744
37764W        W 4547  17.840   4.161   3.144
37765W        W 4548  15.805   6.735  13.629
37766W        W 4549  23.712  41.353  11.568
37767W        W 4550   2.513  18.169   2.642
37768W        W 4551  18.830  25.477  11.365
37769W        W 4552  18.049   2.172  11.602
37770W        W 4553  21.581   7.698  11.090
37771W        W 4554  25.965  30.118  10.705
37772W        W 4555  27.642   0.629  14.304
37773W        W 4556  21.985   0.415   2.769
37774W        W 4557  11.269  23.536   1.271
37775W        W 4558  26.342  34.115  10.702
37776W        W 4559  30.889  26.450  11.709
37777W        W 4560   1.075  27.142  12.721
37778W        W 4561  11.114  30.467   1.267
37779W        W 4562  11.381   6.936   4.114
37780W        W 4563  23.140  21.163   2.436
37781W        W 4564  18.302   2.151  10.817
37782W        W 4565  12.583   1.887   1.895
37783W        W 4566   8.979  14.191   4.076
37784W        W 4567  25.043  29.585  10.893
37785W        W 4568  19.981  37.069   5.049
37786W        W 4569  41.976   6.145  13.383
37787W        W 4570   3.335  17.213   3.034
37788W        W 4571  39.329  20.157   1.266
37789W        W 4572  26.206  23.599   3.263
37790W        W 4573  32.657  25.138  12.492
37791W        W 4574  18.523  28.675  12.017
37792W        W 4575   6.456  15.603  14.327
37793W        W 4576   8.234  26.542   3.117
37794W        W 4577  36.470   7.896   1.793
37795W        W 4578  44.271  41.910  10.943
37796W        W 4579  29.108  34.524   4.537
37797W        W 4580  17.748  10.754   1.226
37798W        W 4581  16.095  39.363  13.048
37799W        W 4582  35.613  17.614  13.665
37800W        W 4583  25.463   6.188  11.708
37801W        W 4584   5.766  38.523  10.687
37802W        W 4585  27.996   6.710   3.135
37803W        W 4586   0.160   2.966   2.926
37804W        W 4587  15.365  19.223  12.950
37805W        W 4588   4.048  30.730  10.904
37806W        W 4589   3.712  12.698   3.742
37807W        W 4590  15.502  14.747  10.728
37808W        W 4591  22.118  38.259  11.622
37809W        W 4592  30.367  13.925   2.332
37810W        W 4593  30.138   9.557  12.441
37811W        W 4594   9.549   0.308   0.189
37812W        W 4595  25.410   0.343  14.801
37813W        W 4596  40.137   5.318   1.822
37814W        W 4597  14.196  39.048   4.381
37815W        W 4598   2.042   4.775  13.728
37816W        W 4599   5.867  34.611   4.126
37817W        W 4600  15.021  41.353   0.977
37818W        W 4601   6.381  30.676   2.946
37819W        W 4602  15.685  39.522   3.204
37820W        W 4603   9.885  35.897   5.165
37821W        W 4604  26.950  24.811   1.169
37822W        W 4605  29.772  21.250   4.463
37823W        W 4606   3.260  12.327   4.993
37824W        W 4607  16.341   6.000   4.081
37825W        W 4608  19.639  44.775   0.893
37826W        W 4609  36.648  21.440   3.224
37827W        W 4610  41.759  11.953  13.453
37828W        W 4611   3.938  40.754  11.408
37829W        W 4612  35.165   3.846   5.558
37830W        W 4613  25.634  23.759   0.348
37831W        W 4614  17.328   3.473   3.049
37832W        W 4615  37.051  44.344  11.086
37833W        W 4616  26.568  14.538   0.033
37834W        W 4617  26.540   6.858   3.531
37835W        W 4618  19.978  33.850   4.219
37836W        W 4619  34.075  14.680   1.887
37837W        W 4620  24.074  28.002  11.992
37838W        W 4621  34.358  11.883   3.605
37839W        W 4622  29.220  36.078   4.540
37840W        W 4623  17.183   3.044   2.785
37841W        W 4624  44.490  16.305  13.529
37842W        W 4625  22.120  42.795  13.243
37843W        W 4626   4.536  26.401   1.212
37844W        W 4627  30.158  40.483   4.042
37845W        W 4628  26.862  22.628   4.604
37846W        W 4629  24.652  24.062   9.819
37847W        W 4630  39.394  38.758  14.838
37848W        W 4631  31.613  40.049   0.975
37849W        W 4632   8.624  40.168  11.656
37850W        W 4633  34.994  15.789   2.386
37851W        W 4634  43.980  32.053   3.936
37852W        W 4635  41.847  34.103   1.297
37853W        W 4636  13.558  16.156   3.472
37854W        W 4637  14.164  24.286   2.758
37855W        W 4638  17.496  32.714  14.716
37856W        W 4639  11.168  31.450   3.397
37857W        W 4640  22.109  15.834  12.035
37858W        W 4641  37.433   4.331   3.398
37859W        W 4642   9.236  18.604   0.330
37860W        W 4643  15.522  44.991  12.648
37861W        W 4644  12.816  13.176  11.711
37862W        W 4645  38.984  11.652   3.110
37863W        W 4646  21.404  19.336  11.978
37864W        W 4647  20.055   9.332   2.248
37865W        W 4648  41.914  27.976  10.583
37866W        W 4649  20.547  28.914   0.189
37867W        W 4650  15.053  23.635  14.381
37868W        W 4651  29.884  16.485  12.917
37869W        W 4652  35.590  36.291   1.365
37870W        W 4653   9.395  37.122   1.688
37871W        W 4654  13.902  28.479   2.179
37872W        W 4655  34.631  35.102   3.673
37873W        W 4656  13.704  37.517   2.757
37874W        W 4657   0.703   6.295   4.982
37875W        W 4658  15.126  34.437  14.835
37876W        W 4659  29.556  27.913   4.105
37877W        W 4660  14.592  41.100  12.540
37878W        W 4661  19.261  36.044  14.244
37879W        W 4662  24.522  15.375  12.551
37880W        W 4663  36.327  19.681  14.375
37881W        W 4664  35.942  17.391   4.549
37882W        W 4665  26.380  22.542  12.019
37883W        W 4666  15.897   5.022   0.068
37884W        W 4667  25.401  35.682  12.049
37885W        W 4668  23.537  18.714  11.195
37886W        W 4669  12.569  25.024   5.062
37887W        W 4670  33.499   2.146   3.746
37888W        W 4671  13.259  40.475   5.047
37889W        W 4672  21.311  12.531   3.886
37890W        W 4673  39.327   3.571  12.883
37891W        W 4674  17.857  25.972  12.987
37892W        W 4675  35.816   7.702  12.399
37893W        W 4676  43.771  32.903   1.350
37894W        W 4677  27.961  11.250   1.267
37895W        W 4678  33.324  20.128  13.505
37896W        W 4679  33.868  27.625   2.815
37897W        W 4680   9.214   9.924   1.573
37898W        W 4681  26.214  22.552  12.943
37899W        W 4682   7.714  36.069   3.287
37900W        W 4683  35.013   0.971   3.653
37901W        W 4684  40.832  18.371  14.355
37902W        W 4685  20.671   4.269   3.589
37903W        W 4686  25.458  19.298   0.787
37904W        W 4687  11.217   4.977   0.126
37905W        W 4688  41.441  10.190  11.561
37906W        W 4689  36.109  20.033   2.589
37907W        W 4690  27.662  28.283   0.724
37908W        W 4691  41.506  27.506   4.383
37909W        W 4692  14.052  11.118  10.581
37910W        W 4693   2.121  19.056  11.621
37911W        W 4694  17.628  36.480   1.465
37912W        W 4695  43.335  26.191   0.728
37913W        W 4696  44.140  15.187  10.208
37914W        W 4697   6.617  16.513  10.385
37915W        W 4698  20.509   8.426   4.803
37916W        W 4699  37.833  38.411   3.860
37917W        W 4700  23.113  40.836   2.203
37918W        W 4701  34.138  34.953   1.223
37919W        W 4702  17.072  15.141   1.682
37920W        W 4703  23.189   8.698   4.176
37921W        W 4704  16.688  16.710   2.195
37922W        W 4705  16.858   5.737  11.335
37923W        W 4706   3.187  24.072  14.564
37924W        W 4707  41.950   8.418  12.105
37925W        W 4708  16.266  14.580   1.659
37926W        W 4709   8.417  29.353  11.582
37927W        W 4710  21.446   5.572   4.106
37928W        W 4711  40.812  31.794   0.789
37929W        W 4712   5.891   8.159   0.438
37930W        W 4713  34.334  25.024   2.704
37931W        W 4714  14.334   7.964   3.843
37932W        W 4715   7.313  29.387   1.424
37933W        W 4716   6.420   7.776   4.915
37934W        W 4717  15.876   6.895  12.008
37935W        W 4718  31.376  36.344  13.658
37936W        W 4719  40.365   8.331  11.194
37937W        W 4720  31.576  11.694  14.801
37938W        W 4721  42.009   7.279   1.511
37939W        W 4722  21.040  12.164   4.534
37940W        W 4723  23.559  42.115   4.494
37941W        W 4724  19.303  31.643   0.343
37942W        W 4725  44.461  31.909  11.493
37943W        W 4726  37.330  27.679   0.492
37944W        W 4727  16.503  16.235  13.129
37945W        W 4728  42.751   9.279  13.005
37946W        W 4729  44.794  11.579   1.442
37947W        W 4730   1.507   5.286   3.084
37948W        W 4731  14.841  42.860  13.695
37949W        W 4732  22.667   3.764   0.922
37950W        W 4733  10.327  38.337  12.196
37951W        W 4734  35.737  20.826   1.850
37952W        W 4735  18.060  24.250  11.880
37953W        W 4736  17.673  39.433  11.120
37954W        W 4737  13.575  16.865  12.125
37955W        W 4738   7.376  17.544  14.535
37956W        W 4739   8.448  43.062   4.410
37957W        W 4740  27.456   5.870  11.627
37958W        W 4741  16.598  14.716  14.401
37959W        W 4742  13.742  35.061   2.657
37960W        W 4743  24.818  17.771   0.316
37961W        W 4744  18.967  41.069   4.712
37962W        W 4745  33.024   7.933   4.194
37963W        W 4746  22.791  38.521  14.866
37964W        W 4747  13.608  20.778  12.341
37965W        W 4748   5.756   3.885   0.282
37966W        W 4749   5.008  43.784   3.596
37967W        W 4750  33.853  40.564  13.425
37968W        W 4751  42.421  34.091   4.357
37969W        W 4752  21.029  19.786  13.928
37970W        W 4753  40.736  11.719   1.428
37971W        W 4754  10.912  28.165  12.594
37972W        W 4755  28.523  19.735  11.452
37973W        W 4756  16.466  13.205  10.228
37974W        W 4757  19.649  35.473  12.127
37975W        W 4758   9.843  30.806  11.104
37976W        W 4759  40.037  22.837   4.838
37977W        W 4760  31.535  35.148   1.391
37978W        W 4761  32.968  41.934   1.792
37979W        W 4762   7.231   1.503  13.491
37980W        W 4763  15.419  40.819   9.787
37981W        W 4764   9.908   4.520   0.787
37982W        W 4765   7.253  40.889   0.747
37983W        W 4766  24.144   2.700  12.104
37984W        W 4767  42.804  29.940   2.374
37985W        W 4768  33.861  22.190   1.855
37986W        W 4769  26.113   1.608  12.566
37987W        W 4770  17.695  23.704   1.261
37988W        W 4771  27.999  13.049   1.735
37989W        W 4772  43.596   8.325   4.043
37990W        W 4773   7.425   0.360   1.836
37991W        W 4774   1.494  29.024  12.009
37992W        W 4775  26.332  40.545  14.067
37993W        W 4776  32.502   0.488  14.880
37994W        W 4777   6.658  15.300   2.180
37995W        W 4778  18.231  23.132  13.354
37996W        W 4779   1.815  16.595   4.070
37997W        W 4780  14.224  40.529   0.234
37998W        W 4781  22.938  37.046  13.913
37999W        W 4782   1.402   4.864  13.276
38000W        W 4783  39.815  31.424  12.755
38001W        W 4784  17.332  20.730   0.901
38002W        W 4785  37.924  41.553   3.160
38003W        W 4786  41.734  17.745  12.868
38004W        W 4787  11.390  20.690  13.943
38005W        W 4788  20.512  31.167   0.831
38006W        W 4789   9.713   6.894   2.141
38007W        W 4790  31.710   2.313  13.088
38008W        W 4791  37.082  24.987  12.409
38009W        W 4792  11.876  34.779  12.429
38010W        W 4793  19.506   4.499   2.837
38011W        W 4794  35.122  41.214  11.344
38012W        W 4795  35.249  26.674   3.883
38013W        W 4796  14.853  30.566  11.103
38014W        W 4797  27.433  40.396  11.650
38015W        W 4798   7.203  42.909   4.176
38016W        W 4799  34.002  14.945  14.938
38017W        W 4800  42.850   6.682  11.167
38018W        W 4801  16.465  30.979  11.962
38019W        W 4802   9.839  14.303   0.756
38020W        W 4803  26.218  14.268  13.059
38021W        W 4804  18.791   8.778  11.235
38022W        W 4805  43.299  11.458   0.346
38023W        W 4806  14.391   4.492   0.436
38024W        W 4807  18.062  13.562   3.261
38025W        W 4808  35.806   2.152  13.953
38026W        W 4809  14.673   5.178  11.042
38027W        W 4810  30.134  22.758   2.559
38028W        W 4811   0.668  12.187  14.937
38029W        W 4812   3.001   6.729  11.607
38030W        W 4813  37.478  10.533  14.616
38031W        W 4814  20.493  42.293  12.074
38032W        W 4815  15.146  27.233   2.730
38033W        W 4816  34.355  23.465  11.105
38034W        W 4817  12.771  36.988   2.485
38035W        W 4818  30.524  33.563  13.473
38036W        W 4819  22.337  14.689   2.250
38037W        W 4820   9.684  24.762  12.013
38038W        W 4821  30.155   9.822  12.904
38039W        W 4822  38.849  22.145   0.348
38040W        W 4823  42.868  34.252   1.198
38041W        W 4824   9.777  18.170  14.699
38042W        W 4825  30.611  33.020  11.333
38043W        W 4826  29.024  14.306   0.724
38044W        W 4827  16.879   3.212   4.214
38045W        W 4828  34.561  23.379   3.300
38046W        W 4829  27.060  38.924  10.334
38047W        W 4830   3.274  11.574   2.799
38048W        W 4831  12.719  38.605  12.412
38049W        W 4832  22.308  26.708   1.436
38050W        W 4833   2.495   6.936   2.807
38051W        W 4834   1.227  19.292   3.254
38052W        W 4835  34.830  27.743   2.045
38053W        W 4836   9.634  43.436   3.642
38054W        W 4837  20.773  28.194  14.380
38055W        W 4838   4.712  42.390  10.416
38056W        W 4839   1.986  30.486  13.890
38057W        W 4840  34.717  11.676  10.044
38058W        W 4841  34.092   1.216   1.821
38059W        W 4842  28.712  11.667  13.731
38060W        W 4843  19.101  18.186   2.081
38061W        W 4844   1.879  41.921   1.700
38062W        W 4845  18.113  32.935  11.361
38063W        W 4846  27.094  32.053   2.781
38064W        W 4847   3.411  38.529   0.333
38065W        W 4848  14.393  20.046  12.237
38066W        W 4849  22.480  43.330   1.880
38067W        W 4850  12.968   3.488  12.907
38068W        W 4851  21.001   7.205   0.255
38069W        W 4852   0.245  44.850   3.338
38070W        W 4853   7.808  28.643  11.413
38071W        W 4854  20.351  21.468   0.335
38072W        W 4855  26.554  41.939   5.487
38073W        W 4856   9.847  44.697  10.688
38074W        W 4857  41.423  26.676   3.809
38075W        W 4858  25.400   2.439   0.463
38076W        W 4859  20.172  31.114  11.985
38077W        W 4860  24.993   2.198   2.800
38078W        W 4861  44.854   0.227  14.900
38079W        W 4862  34.154   3.903  14.037
38080W        W 4863  41.058  30.519   0.389
38081W        W 4864   0.296  23.475  13.803
38082W        W 4865   5.915  20.702   2.218
38083W        W 4866  39.804  31.063  13.873
38084W        W 4867  28.915  19.326  13.604
38085W        W 4868  33.456  44.140   9.887
38086W        W 4869  20.581  19.545  14.116
38087W        W 4870  15.657  36.030   0.043
38088W        W 4871  11.350  43.253  13.870
38089W        W 4872  20.239  22.673  10.760
38090W        W 4873  29.992  33.874   0.942
38091W        W 4874  44.277   7.411  14.329
38092W        W 4875  38.320  43.360  11.569
38093W        W 4876  20.188   0.034   4.518
38094W        W 4877   3.911   3.827   0.972
38095W        W 4878  22.802  20.928  11.270
38096W        W 4879  10.278  21.617   4.541
38097W        W 4880  28.937  35.188   2.356
38098W        W 4881  33.883  34.936   3.888
38099W        W 4882  14.299  10.394   2.816
38100W        W 4883  29.627  29.093   0.893
38101W        W 4884  15.728  17.155   2.770
38102W        W 4885  16.926  42.843  12.346
38103W        W 4886  41.525  37.380   4.503
38104W        W 4887  37.261  17.217  10.760
38105W        W 4888  23.144  35.167  11.112
38106W        W 4889  35.780  23.248  14.473
38107W        W 4890  36.056   7.680   0.055
38108W        W 4891  10.675  20.094  13.949
38109W        W 4892   2.778  19.105  10.762
38110W        W 4893  38.591  22.971  10.676
38111W        W 4894  40.297  18.621  12.398
38112W        W 4895  39.594  23.114   4.957
38113W        W 4896   0.903  33.010  10.925
38114W        W 4897  12.250  44.501  13.156
38115W        W 4898  17.552  42.873   3.679
38116W        W 4899  22.593  24.720  11.541
38117W        W 4900  24.725  40.230   0.290
38118W        W 4901  30.082  25.537   0.974
38119W        W 4902  23.142   5.292  13.506
38120W        W 4903  41.024  18.314   0.812
38121W        W 4904  39.420   5.391   2.326
38122W        W 4905  20.097  30.363  14.594
38123W        W 4906   1.785  21.327   3.139
38124W        W 4907  41.374  44.625  11.370
38125W        W 4908  31.875  29.506  13.477
38126W        W 4909  21.560  11.632   3.246
38127W        W 4910  29.081  27.058  11.606
38128W        W 4911  25.597  12.651  12.474
38129W        W 4912  18.193   4.222   1.936
38130W        W 4913  27.536  40.451   0.472
38131W        W 4914  21.143  14.587   0.784
38132W        W 4915  25.898  19.648   1.381
38133W        W 4916  15.698  28.008   2.831
38134W        W 4917  42.000  17.910  14.059
38135W        W 4918  30.488  44.400   3.795
38136W        W 4919  40.375  34.028  12.196
38137W        W 4920  35.435  19.404  13.010
38138W        W 4921  25.428   1.381  14.320
38139W        W 4922  13.358  44.827  13.865
38140W        W 4923  33.054  37.616  13.991
38141W        W 4924  39.277  24.663   0.220
38142W        W 4925  15.112  28.792   1.819
38143W        W 4926   8.462  22.627  14.278
38144W        W 4927  12.738   2.318   2.191
38145W        W 4928   9.591  29.129   2.407
38146W        W 4929  43.390  22.174   2.287
38147W        W 4930  35.945  28.606   1.807
38148W        W 4931   1.194  40.497   0.498
38149W        W 4932  30.043  17.563   4.493
38150W        W 4933   1.008  19.562   4.161
38151W        W 4934  29.654  23.207  12.600
38152W        W 4935  19.541  29.254  11.960
38153W        W 4936  25.916   9.260  13.422
38154W        W 4937  24.159   8.698  13.317
38155W        W 4938   3.774   1.287   4.058
38156W        W 4939  27.113  37.044   2.292
38157W        W 4940   5.934   0.893  12.838
38158W        W 4941  33.467  18.540   0.670
38159W        W 4942  31.937  35.926   3.677
38160W        W 4943  14.799   6.362  13.500
38161W        W 4944  16.993  37.038   4.126
38162W        W 4945   4.034  26.947  14.824
38163W        W 4946   7.168  26.452  12.518
38164W        W 4947  41.864  21.471  13.252
38165W        W 4948   4.903  25.545   2.796
38166W        W 4949   7.697  21.000   0.889
38167W        W 4950  25.264  33.193  13.538
38168W        W 4951  35.579  24.036  13.028
38169W        W 4952   3.373  25.129   0.783
38170W        W 4953   2.320  44.701  14.376
38171W        W 4954  16.647  34.321   1.852
38172W        W 4955  25.250   4.507   3.688
38173W        W 4956  42.222  18.929   3.577
38174W        W 4957   9.988   7.614   1.661
38175W        W 4958  16.401  31.101  13.250
38176W        W 4959  20.181  27.833   3.083
38177W        W 4960   0.750  21.032   1.796
38178W        W 4961  39.328  26.363  14.527
38179W        W 4962  32.027  22.276   0.250
38180W        W 4963  14.736  39.485  12.484
38181W        W 4964   0.371  39.454   4.375
38182W        W 4965  29.952  26.672   2.568
38183W        W 4966  34.863  33.116  11.136
38184W        W 4967  12.583   3.476  13.366
38185W        W 4968   2.490  21.689  10.732
38186W        W 4969   5.724  15.254  13.468
38187W        W 4970  25.951   4.170  13.005
38188W        W 4971  32.051  20.959  13.553
38189W        W 4972   6.301  40.835  10.636
38190W        W 4973   1.584  39.425  14.912
38191W        W 4974  33.721  41.367  11.141
38192W        W 4975  35.404  10.389   5.122
38193W        W 4976  18.323  14.132   2.390
38194W        W 4977  17.980  16.007  11.599
38195W        W 4978   0.031  13.396  13.798
38196W        W 4979  17.262  32.976  11.365
38197W        W 4980  41.549  24.151   1.686
38198W        W 4981  13.222  26.574  13.412
38199W        W 4982   5.709  29.818   1.843
38200W        W 4983  19.061  28.503  12.081
38201W        W 4984   2.478   7.305   3.198
38202W        W 4985   1.994  16.057  13.397
38203W        W 4986  20.184  20.130   2.276
38204W        W 4987   8.833  11.618  12.439
38205W        W 4988  17.240   2.950   4.481
38206W        W 4989  10.800  43.487   1.441
38207W        W 4990  19.277  34.313   0.826
38208W        W 4991  18.716  14.688   1.296
38209W        W 4992  12.144  32.154   4.264
38210W        W 4993   9.708  28.039  10.719
38211W        W 4994   7.792  40.826   3.845
38212W        W 4995  29.014  10.705  13.928
38213W        W 4996  27.459  38.938  10.690
38214W        W 4997  16.151  19.750  11.031
38215W        W 4998  38.840   8.127   3.314
38216W        W 4999  41.540   9.374   3.257
38217W        W 5000  35.474  16.962  14.920
38218W        W 5001  34.792  16.766   3.326
38219W        W 5002  27.549   9.298  10.455
38220W        W 5003  12.538  25.793  14.947
38221W        W 5004  18.209  20.800  13.556
38222W        W 5005  37.960   7.824   0.435
38223W        W 5006   0.856  15.121   4.536
38224W        W 5007  42.778  34.967  14.847
38225W        W 5008   0.216  20.520   2.772
38226W        W 5009  14.305   6.175  13.417
38227W        W 5010   5.435  31.444  10.884
38228W        W 5011  23.049  26.652   4.105
38229W        W 5012   8.647  13.840  11.558
38230W        W 5013   1.255  33.168   0.423
38231W        W 5014  21.321  41.293  10.949
38232W        W 5015  33.929  44.764  11.010
38233W        W 5016  24.187  35.498   4.571
38234W        W 5017  35.997  22.231   3.360
38235W        W 5018   2.993  39.932   1.893
38236W        W 5019  23.148  24.164   3.701
38237W        W 5020  17.556   8.838  13.637
38238W        W 5021  18.263  39.386  12.382
38239W        W 5022  19.969  18.797  12.001
38240W        W 5023   8.984  28.732  11.747
38241W        W 5024  35.344  16.668   1.958
38242W        W 5025  17.094  41.033   4.651
38243W        W 5026  10.593  41.038   1.593
38244W        W 5027  28.239  42.878  12.341
38245W        W 5028  23.179   9.844   3.416
38246W        W 5029  43.292  38.535  11.614
38247W        W 5030  18.278  41.426  11.427
38248W        W 5031  35.818  36.811   4.442
38249W        W 5032  32.939  24.089   2.721
38250W        W 5033  31.692  42.584   2.691
38251W        W 5034  13.796  11.200   2.662
38252W        W 5035  41.550   4.228   1.727
38253W        W 5036  40.365  30.331   4.181
38254W        W 5037  32.463  33.354  14.430
38255W        W 5038   6.855  35.117  12.529
38256W        W 5039   9.368  36.754  11.052
38257W        W 5040  21.749   2.270  11.426
38258W        W 5041   9.832  14.242  11.173
38259W        W 5042  37.556  36.082  13.828
38260W        W 5043  32.183   0.940   1.747
38261W        W 5044  35.011  35.542  13.372
38262W        W 5045  23.817  41.445  13.407
38263W        W 5046  27.549  11.677  13.978
38264W        W 5047  18.249   3.197   2.772
38265W        W 5048  37.799  25.961  14.035
38266W        W 5049  17.176  19.897   3.292
38267W        W 5050  24.118  30.269  14.023
38268W        W 5051  34.586  16.688  10.673
38269W        W 5052  36.378  10.180   3.780
38270W        W 5053  22.948  38.653   3.843
38271W        W 5054  24.188  11.580   4.641
38272W        W 5055  29.439  42.550   0.620
38273W        W 5056  16.160   3.031  13.434
38274W        W 5057   2.432  14.167  14.535
38275W        W 5058  15.364  10.780   4.981
38276W        W 5059  33.891   7.507   2.041
38277W        W 5060  27.198   0.073   4.111
38278W        W 5061  27.866  32.464  12.448
38279W        W 5062  32.687  18.585  10.943
38280W        W 5063  28.573  34.661  11.026
38281W        W 5064  19.188  21.662   3.302
38282W        W 5065  11.148  34.382   1.363
38283W        W 5066  14.892  35.466  11.137
38284W        W 5067  44.271  15.561  14.841
38285W        W 5068  10.689  23.694   4.354
38286W        W 5069   1.336   8.368   1.490
38287W        W 5070   1.840  13.645  13.445
38288W        W 5071  25.453   0.269  13.511
38289W        W 5072  12.370  11.077  14.224
38290W        W 5073  19.624  20.286  13.099
38291W        W 5074  23.257  26.107  14.422
38292W        W 5075  14.378   0.820   3.165
38293W        W 5076   4.642  26.173  12.529
38294W        W 5077  22.022  24.087   3.245
38295W        W 5078  18.794  22.128   2.716
38296W        W 5079  38.440  32.470   0.193
38297W        W 5080  29.010  13.774   0.675
38298W        W 5081  31.031   0.831  12.899
38299W        W 5082  32.656  11.746   3.193
38300W        W 5083  17.556  44.529  13.409
38301W        W 5084  39.996  32.117   3.685
38302W        W 5085  12.756  37.270  13.848
38303W        W 5086  17.756  12.567  13.141
38304W        W 5087  25.468  16.329  13.355
38305W        W 5088  42.392  26.160   3.130
38306W        W 5089  35.429  24.260   0.742
38307W        W 5090  14.872  42.897   2.537
38308W        W 5091   6.332  42.376   4.427
38309W        W 5092   9.350  34.529  14.369
38310W        W 5093   0.117  35.581  13.837
38311W        W 5094  10.889  36.034  14.877
38312W        W 5095  12.818  44.372   2.278
38313W        W 5096  15.670  26.906  12.977
38314W        W 5097   9.713  13.022  14.444
38315W        W 5098  30.109  24.416   4.187
38316W        W 5099  18.694   8.155  14.433
38317W        W 5100  35.798  25.946  14.451
38318W        W 5101  20.651  42.018   0.248
38319W        W 5102  15.319  18.107   1.729
38320W        W 5103  21.897  44.045   4.850
38321W        W 5104  14.193   6.418   1.634
38322W        W 5105  25.504   3.519  10.720
38323W        W 5106  15.838  39.506  13.488
38324W        W 5107  24.390  11.470   4.155
38325W        W 5108  41.279   8.360  13.509
38326W        W 5109  38.655  32.063  12.834
38327W        W 5110  39.002  39.171  10.339
38328W        W 5111  11.302  25.063  11.953
38329W        W 5112   7.186  29.623  14.547
38330W        W 5113   8.136  18.721  14.490
38331W        W 5114  40.852  11.604   2.659
38332W        W 5115  17.363  28.594  10.932
38333W        W 5116  34.079  25.187  10.742
38334W        W 5117  37.005  21.499  11.432
38335W        W 5118   0.220  41.209   1.351
38336W        W 5119   1.858  41.447  12.753
38337W        W 5120  13.025   9.357   1.415
38338W        W 5121  27.660  28.170   2.471
38339W        W 5122  16.538  31.024   0.458
38340W        W 5123   5.719  35.574   3.314
38341W        W 5124  42.649  44.902  11.546
38342W        W 5125  22.920  33.926   2.231
38343W        W 5126   1.511  11.627  13.524
38344W        W 5127  32.380  38.506  14.513
38345W        W 5128  40.913  38.094  10.760
38346W        W 5129  41.738  18.024  11.201
38347W        W 5130  35.454  18.754  12.223
38348W        W 5131  40.275  42.507  11.065
38349W        W 5132   7.197  44.722  13.059
38350W        W 5133  21.811  37.275  11.030
38351W        W 5134  12.064   3.708   4.116
38352W        W 5135  10.825  43.145   3.689
38353W        W 5136  40.231   8.049  13.958
38354W        W 5137   3.837  30.672   1.207
38355W        W 5138  36.348  17.278   3.665
38356W        W 5139  14.247   6.284  12.106
38357W        W 5140  12.445  38.570  10.632
38358W        W 5141  35.782  29.598  10.756
38359W        W 5142  11.585  35.824  10.172
38360W        W 5143  22.721  29.358   3.916
38361W        W 5144   0.847  14.275  13.035
38362W        W 5145  11.369  10.102   4.601
38363W        W 5146  33.162  23.664   4.764
38364W        W 5147  43.251  18.528   2.773
38365W        W 5148  44.263  10.831   3.356
38366W        W 5149  23.247   7.705  11.060
38367W        W 5150   1.714  16.297   1.031
38368W        W 5151  27.131   4.921  12.990
38369W        W 5152  18.566  40.222  13.458
38370W        W 5153  32.950  23.224  12.997
38371W        W 5154  21.303   3.648  13.803
38372W        W 5155  15.583  24.519   2.962
38373W        W 5156  28.826  29.687   1.851
38374W        W 5157   0.330  23.642   2.728
38375W        W 5158  34.205   1.921   0.500
38376W        W 5159  21.680  36.618   0.862
38377W        W 5160  10.683  32.080   0.971
38378W        W 5161  15.778  24.169   5.064
38379W        W 5162  31.389   2.294  11.116
38380W        W 5163  44.468   4.428   3.693
38381W        W 5164  23.084  39.075   0.435
38382W        W 5165   2.154   1.808   0.320
38383W        W 5166  15.148   5.138   0.940
38384W        W 5167   7.075  28.561   3.816
38385W        W 5168   9.755  17.792  14.317
38386W        W 5169  42.973  31.051   1.393
38387W        W 5170  35.380  43.857   2.932
38388W        W 5171  19.757   2.281   1.790
38389W        W 5172  27.105   8.853  14.463
38390W        W 5173  30.912   3.363   5.155
38391W        W 5174   6.342  23.926   1.839
38392W        W 5175   4.918  31.574  10.740
38393W        W 5176  21.539  38.723   4.819
38394W        W 5177   8.795  35.398  14.544
38395W        W 5178  35.121   5.839   2.694
38396W        W 5179  26.399  37.566  12.528
38397W        W 5180  31.804   2.483  10.846
38398W        W 5181  17.585  31.597   1.156
38399W        W 5182  15.679   1.203  13.484
38400W        W 5183  16.630  33.329  13.068
38401W        W 5184  38.920  28.421   3.728
38402W        W 5185  26.258  14.853  12.539
38403W        W 5186  12.882  25.186  12.783
38404W        W 5187  39.729  34.207  11.147
38405W        W 5188  31.232  23.571   1.803
38406W        W 5189  24.658   6.257  14.136
38407W        W 5190  26.076  21.579  10.616
38408W        W 5191  41.308  44.173  12.820
38409W        W 5192  16.033  40.541  14.858
38410W        W 5193  16.787  40.485  13.300
38411W        W 5194  16.230  36.983  14.240
38412W        W 5195  10.677  16.660   0.561
38413W        W 5196  44.986  33.006  13.570
38414W        W 5197   2.364   5.787  13.519
38415W        W 5198  40.850  27.197   4.275
38416W        W 5199  13.208   3.193  11.644
38417W        W 5200   6.858   3.401   2.278
38418W        W 5201  25.897  36.960   1.362
38419W        W 5202   2.957  32.522  13.831
38420W        W 5203  39.391  36.827   0.949
38421W        W 5204  13.652  27.038   4.088
38422W        W 5205  34.247   4.924  14.161
38423W        W 5206  37.576   6.347  10.558
38424W        W 5207  28.006  41.447  14.349
38425W        W 5208  34.542   2.376   1.640
38426W        W 5209   6.225  25.460  13.095
38427W        W 5210  40.720  16.150  14.463
38428W        W 5211  11.735  22.615   1.052
38429W        W 5212   6.823  16.992   2.819
38430W        W 5213  41.062  44.943   4.613
38431W        W 5214  37.846  44.450   1.183
38432W        W 5215  40.350  15.922  10.792
38433W        W 5216  38.478  22.602   2.413
38434W        W 5217  36.369   9.761   4.635
38435W        W 5218  25.510   5.949   0.395
38436W        W 5219  38.398  17.910  13.538
38437W        W 5220  29.392   2.871   2.108
38438W        W 5221  36.804  26.729   3.733
38439W        W 5222   3.220  29.915   3.351
38440W        W 5223  21.783  42.698  10.539
38441W        W 5224  29.980  32.991  13.955
38442W        W 5225  38.644   3.357   0.890
38443W        W 5226   7.869  42.037   2.800
38444W        W 5227  12.165   5.289   0.728
38445W        W 5228  13.206  35.822  14.326
38446W        W 5229   8.411   1.365   1.947
38447W        W 5230  22.565  19.079  14.877
38448W        W 5231  41.690   3.498  13.895
38449W        W 5232   2.271   9.285   0.858
38450W        W 5233  28.872  16.707   3.346
38451W        W 5234   3.567  39.843   3.884
38452W        W 5235  43.506  31.842  14.746
38453W        W 5236  20.406  30.165   2.885
38454W        W 5237  44.285  32.173  13.433
38455W        W 5238  38.380  26.584   1.979
38456W        W 5239  10.874   6.684  13.006
38457W        W 5240  33.976   7.725  11.905
38458W        W 5241  23.911  36.565  12.949
38459W        W 5242  13.727  28.155  12.417
38460W        W 5243  40.468   7.665  10.633
38461W        W 5244  37.641  24.290   2.913
38462W        W 5245  14.126   8.064   0.346
38463W        W 5246  44.240  20.575   0.632
38464W        W 5247  33.696   4.993   0.322
38465W        W 5248  42.251  41.305  13.407
38466W        W 5249  19.808  13.947  10.671
38467W        W 5250  12.644  38.494   1.136
38468W        W 5251  31.672  26.022   0.375
38469W        W 5252  14.789  13.899  12.081
38470W        W 5253  42.914  24.708  14.925
38471W        W 5254  40.880  24.221  10.904
38472W        W 5255  29.609  44.866  13.041
38473W        W 5256  10.766  12.514   3.378
38474W        W 5257  37.614   6.150   4.549
38475W        W 5258  41.434  10.587   3.724
38476W        W 5259  31.061  28.264   2.699
38477W        W 5260  30.476  25.577  13.457
38478W        W 5261  43.540  17.892  10.329
38479W        W 5262  22.188  29.320   2.135
38480W        W 5263  30.166  30.894   4.560
38481W        W 5264  32.838  20.992   2.746
38482W        W 5265  24.018  43.033  10.163
38483W        W 5266  29.220  13.628   3.792
38484W        W 5267   1.832  38.988  12.264
38485W        W 5268   7.288  34.810  12.529
38486W        W 5269   3.377   5.145  10.411
38487W        W 5270  38.322  21.013  12.363
38488W        W 5271  12.619  37.316   3.662
38489W        W 5272  31.614   0.796  12.506
38490W        W 5273   5.030   9.410   3.245
38491W        W 5274  26.878  34.072   1.319
38492W        W 5275  33.172   2.688  12.476
38493W        W 5276  23.771  12.370   1.878
38494W        W 5277  35.063  33.416   3.454
38495W        W 5278  15.856  28.153  14.859
38496W        W 5279  31.797  43.571   2.484
38497W        W 5280  18.544  18.597   2.228
38498W        W 5281  15.544   7.443   1.229
38499W        W 5282  40.269  35.762  11.543
38500W        W 5283  21.625  22.622   2.643
38501W        W 5284  42.469   3.535   0.450
38502W        W 5285   6.947  28.159  12.952
38503W        W 5286   2.511  36.463  13.275
38504W        W 5287  30.886  31.478  12.804
38505W        W 5288   6.080  38.210  11.607
38506W        W 5289  21.621  32.446  14.506
38507W        W 5290  22.609  41.946  13.994
38508W        W 5291  25.000  30.295  13.980
38509W        W 5292  37.870  44.742   0.277
38510W        W 5293  40.563   0.800  10.662
38511W        W 5294  33.422  38.592  13.901
38512W        W 5295  17.669  41.338   4.590
38513W        W 5296  38.514  12.933   4.386
38514W        W 5297  17.574   0.067   2.228
38515W        W 5298  11.705   6.696   2.026
38516W        W 5299   3.433   4.670   1.468
38517W        W 5300  17.246  24.021   1.361
38518W        W 5301  10.048   8.419   2.134
38519W        W 5302  16.097  32.032  10.668
38520W        W 5303  17.060  27.554  14.703
38521W        W 5304  35.427  26.602   1.251
38522W        W 5305  11.698  36.352  11.501
38523W        W 5306  41.421  23.892   2.302
38524W        W 5307  22.484  30.392  13.800
38525W        W 5308  33.538  26.750  13.572
38526W        W 5309  26.220  32.283   1.697
38527W        W 5310  23.747   4.107   2.288
38528W        W 5311   8.257   8.240  14.962
38529W        W 5312   2.819  43.308   0.009
38530W        W 5313  39.197  29.786  11.739
38531W        W 5314   1.952  21.724  10.700
38532W        W 5315  24.101  20.312   4.736
38533W        W 5316  44.156  29.912   3.622
38534W        W 5317   1.545  12.147   0.394
38535W        W 5318  10.130   6.693  10.766
38536W        W 5319  17.321  24.512   3.354
38537W        W 5320  26.404  38.359  13.347
38538W        W 5321  18.630  14.173   2.871
38539W        W 5322  23.158  11.500   4.787
38540W        W 5323  28.735  21.901   1.000
38541W        W 5324  21.069  25.346  11.216
38542W        W 5325  30.107   6.014  13.205
38543W        W 5326  26.244   6.479   4.049
38544W        W 5327  25.997  39.312   0.001
38545W        W 5328  37.604   5.181   4.559
38546W        W 5329  42.037  37.378  12.688
38547W        W 5330  26.915  12.783  13.707
38548W        W 5331  18.286   5.938   0.974
38549W        W 5332  29.689   7.133   0.207
38550W        W 5333  10.632  13.306   2.745
38551W        W 5334  38.173   2.530   0.414
38552W        W 5335  16.650   9.947   0.836
38553W        W 5336  44.412  41.437  14.036
38554W        W 5337  43.965  41.224  11.678
38555W        W 5338  41.567  34.614  12.476
38556W        W 5339  21.146  27.307   3.261
38557W        W 5340  18.302  22.048  10.650
38558W        W 5341  21.008  11.865  12.990
38559W        W 5342  25.004  38.869  12.496
38560W        W 5343  44.544  26.536   3.179
38561W        W 5344  35.213  40.954   2.925
38562W        W 5345  18.169  38.963  14.011
38563W        W 5346   9.047  38.116  11.888
38564W        W 5347  43.359   1.937  12.769
38565W        W 5348   2.276  26.219   0.423
38566W        W 5349   4.675  35.518  12.177
38567W        W 5350  20.619  25.460   3.359
38568W        W 5351  14.162   3.326   1.200
38569W        W 5352  25.599  17.788  10.400
38570W        W 5353  34.492   2.459   4.355
38571W        W 5354  40.766  43.715   3.989
38572W        W 5355   7.212   3.788   1.912
38573W        W 5356  36.857   7.492   3.195
38574W        W 5357   4.386  16.071   2.419
38575W        W 5358  28.222  35.683   0.866
38576W        W 5359  23.354   9.388   1.597
38577W        W 5360  40.799  41.624  11.233
38578W        W 5361  42.461  25.204   3.088
38579W        W 5362  14.569   7.188   1.901
38580W        W 5363  24.192   0.226  12.449
38581W        W 5364  11.795  15.304  14.319
38582W        W 5365  37.305  36.488  14.053
38583W        W 5366  27.503   8.926  12.778
38584W        W 5367   5.566  18.017  14.071
38585W        W 5368   1.274   9.072   4.603
38586W        W 5369  36.667  44.540  14.077
38587W        W 5370  42.232  17.513   0.714
38588W        W 5371  44.894   4.747  14.198
38589W        W 5372  10.650  31.832  13.500
38590W        W 5373  32.067  15.207  13.021
38591W        W 5374  24.585  10.893  11.503
38592W        W 5375  30.838  30.098   3.936
38593W        W 5376  31.026  33.542   0.973
38594W        W 5377   8.171  27.969  14.255
38595W        W 5378   8.228  21.020  13.930
38596W        W 5379  20.658  44.074   0.409
38597W        W 5380  10.103  26.930   0.524
38598W        W 5381  30.685   8.690  11.191
38599W        W 5382  30.966   2.420  10.637
38600W        W 5383  23.740  14.915   1.324
38601W        W 5384  42.555  10.264   0.954
38602W        W 5385  23.144  31.568   3.656
38603W        W 5386  23.823  22.094  14.060
38604W        W 5387  34.918  26.917   2.397
38605W        W 5388  13.247  43.877   3.390
38606W        W 5389  20.149  15.500  12.027
38607W        W 5390  28.548  12.021   1.012
38608W        W 5391  21.322  25.308  14.734
38609W        W 5392  40.390  24.470  13.013
38610W        W 5393  26.125  14.379  11.483
38611W        W 5394  31.914  30.062   3.150
38612W        W 5395   2.804  11.618   1.679
38613W        W 5396  21.139  22.236  12.351
38614W        W 5397  17.633  18.057  13.017
38615W        W 5398  36.439   0.469   0.173
38616W        W 5399  44.493  22.273   4.549
38617W        W 5400   4.754   4.148  12.494
38618W        W 5401  23.168  34.008   0.008
38619W        W 5402   3.523  42.418   1.339
38620W        W 5403  14.660   2.886   3.261
38621W        W 5404   4.691  33.976  13.317
38622W        W 5405  27.739   3.436  11.429
38623W        W 5406  26.365   6.168   2.552
38624W        W 5407  28.507   8.899  11.483
38625W        W 5408  28.886  39.371   3.607
38626W        W 5409   0.243  13.325   1.917
38627W        W 5410   7.477  41.819   2.219
38628W        W 5411  27.216  11.844  11.717
38629W        W 5412   3.476  12.233   3.762
38630W        W 5413  26.423  43.458   1.392
38631W        W 5414  38.486  16.589  12.369
38632W        W 5415  36.339  25.801   2.596
38633W        W 5416  39.762  16.701   3.757
38634W        W 5417  22.246  20.403   2.321
38635W        W 5418  23.469  18.058   3.160
38636W        W 5419  22.066   1.809   2.668
38637W        W 5420  15.733  44.279   1.790
38638W        W 5421  14.246  28.434  13.383
38639W        W 5422  14.178   2.016   4.722
38640W        W 5423  42.026  39.558   3.805
38641W        W 5424  16.015  21.997   2.471
38642W        W 5425  28.714  20.740   0.514
38643W        W 5426  26.651  38.305  14.509
38644W        W 5427  31.106  18.779  14.761
38645W        W 5428  11.186  20.277  12.411
38646W        W 5429  44.074  16.167  10.599
38647W        W 5430  19.916  15.077  14.088
38648W        W 5431  23.062  39.779   1.398
38649W        W 5432  38.445  30.982  13.760
38650W        W 5433  32.448  10.172   4.160
38651W        W 5434  15.315   6.168  13.712
38652W        W 5435  36.934  41.070  14.114
38653W        W 5436  17.523  12.736   2.271
38654W        W 5437  28.913   1.558  11.610
38655W        W 5438  42.610   6.291  12.118
38656W        W 5439  14.552  24.444  12.117
38657W        W 5440  23.012  23.045   4.431
38658W        W 5441   6.533  29.089   4.776
38659W        W 5442  12.899  33.764  14.587
38660W        W 5443  36.859  42.794  13.921
38661W        W 5444  17.327  12.776   1.668
38662W        W 5445   6.394  11.212  11.718
38663W        W 5446   5.439   4.800  12.638
38664W        W 5447   5.124  37.524  14.371
38665W        W 5448  21.006   1.667   2.730
38666W        W 5449  12.104  32.434   0.865
38667W        W 5450  34.998   1.043  10.657
38668W        W 5451   3.705   7.210   4.615
38669W        W 5452   9.251  12.620   3.647
38670W        W 5453  26.121   2.261   3.215
38671W        W 5454  32.481  44.945   0.853
38672W        W 5455  31.749   6.377  13.173
38673W        W 5456   7.189  16.034  11.568
38674W        W 5457  29.437  16.832   0.189
38675W        W 5458  38.655  15.181   4.240
38676W        W 5459  19.080  10.052  12.042
38677W        W 5460  17.036  34.015   0.957
38678W        W 5461  22.281  32.352  10.598
38679W        W 5462  26.274  29.047   0.167
38680W        W 5463   7.636  42.573   1.419
38681W        W 5464  31.168   1.048  12.444
38682W        W 5465  43.198  19.185   3.308
38683W        W 5466   7.365  32.021   0.181
38684W        W 5467   7.423  34.597  12.042
38685W        W 5468  42.685  40.496  12.738
38686W        W 5469  28.140  38.796   1.777
38687W        W 5470  10.161  18.969   3.765
38688W        W 5471   2.312  28.467   1.820
38689W        W 5472  44.955  30.193  11.119
38690W        W 5473  33.367  40.505   9.972
38691W        W 5474  28.982  38.024  11.925
38692W        W 5475  27.260  39.047   4.785
38693W        W 5476  29.140  15.556   9.932
38694W        W 5477  33.439  28.608  13.986
38695W        W 5478  15.952  13.130  10.327
38696W        W 5479  40.314  33.848  12.667
38697W        W 5480  29.991  16.164  10.367
38698W        W 5481   9.910   7.398   1.194
38699W        W 5482  11.588  20.606   3.113
38700W        W 5483  23.099  28.413  11.976
38701W        W 5484   0.956  41.725   3.625
38702W        W 5485  13.299  29.157   2.111
38703W        W 5486   7.585   7.801   3.325
38704W        W 5487  43.815  39.045   3.139
38705W        W 5488  31.629  40.256   3.411
38706W        W 5489  26.768  40.127  11.653
38707W        W 5490  13.880  23.605   2.366
38708W        W 5491  34.531  31.858   4.743
38709W        W 5492  17.251  19.729   4.229
38710W        W 5493  43.718  30.920  13.363
38711W        W 5494  38.362  27.255   3.223
38712W        W 5495  28.602   8.460   0.871
38713W        W 5496  16.058   1.847   4.768
38714W        W 5497  19.104  15.182   0.877
38715W        W 5498   4.258  13.134   1.072
38716W        W 5499  38.811   9.226   0.349
38717W        W 5500   0.410   0.000  13.515
38718W        W 5501  18.149  14.356   1.359
38719W        W 5502  37.368   4.147  14.510
38720W        W 5503   3.847  31.848  13.300
38721W        W 5504  23.724  18.683   2.763
38722W        W 5505  41.085  28.787   2.261
38723W        W 5506  31.908  16.568   3.725
38724W        W 5507  27.634   6.370   4.201
38725W        W 5508  23.051   9.404  12.577
38726W        W 5509  13.135  27.803   3.291
38727W        W 5510  39.092   3.460   0.113
38728W        W 5511  40.971  31.025   4.608
38729W        W 5512  14.874  40.764   4.647
38730W        W 5513  37.165  28.341  11.167
38731W        W 5514   1.405  19.726  13.968
38732W        W 5515   3.127  24.479   2.172
38733W        W 5516  44.990   1.574  10.775
38734W        W 5517  30.424   1.480   4.689
38735W        W 5518  16.569  25.275  12.009
38736W        W 5519  28.238  28.743   3.637
38737W        W 5520   1.667   4.222  14.945
38738W        W 5521  32.467  43.375  12.661
38739W        W 5522   3.887   3.920   2.003
38740W        W 5523  17.038  10.371   0.477
38741W        W 5524  14.208  36.861  14.292
38742W        W 5525  31.180   5.206   0.523
38743W        W 5526   9.792  16.346   0.524
38744W        W 5527   4.251  29.109  12.859
38745W        W 5528  17.987  14.320   3.663
38746W        W 5529  10.400  37.353   0.564
38747W        W 5530  10.123  17.586   2.138
38748W        W 5531  18.634  24.257  14.814
38749W        W 5532  15.579  18.699   4.561
38750W        W 5533  11.732  24.607  10.690
38751W        W 5534  34.216  40.570   4.522
38752W        W 5535  35.911  38.400   3.729
38753W        W 5536  44.457   0.801   0.840
38754W        W 5537  42.052   7.074   9.897
38755W        W 5538  37.407  39.463   1.870
38756W        W 5539  23.074   3.897  14.152
38757W        W 5540   3.720   6.968  14.919
38758W        W 5541   2.891   9.249   2.252
38759W        W 5542   7.311  27.397  13.505
38760W        W 5543  14.094  34.599  10.114
38761W        W 5544   4.728   6.306   4.076
38762W        W 5545  43.245  24.078  11.604
38763W        W 5546  25.223   6.861  14.278
38764W        W 5547  10.813  40.369  10.606
38765W        W 5548   8.921  18.896   1.904
38766W        W 5549   9.103  22.627  12.557
38767W        W 5550  15.593  42.833  14.992
38768W        W 5551  40.130   1.766  10.709
38769W        W 5552  44.993  26.223   1.621
38770W        W 5553  34.514  16.870  14.306
38771W        W 5554  13.695  16.088   2.294
38772W        W 5555  16.063  16.734  13.525
38773W        W 5556  19.594  18.589   3.908
38774W        W 5557  21.147   4.897  11.914
38775W        W 5558   1.340  18.744  14.297
38776W        W 5559  17.622  17.868   3.984
38777W        W 5560  42.277  33.890  11.600
38778W        W 5561   3.434  14.547  12.974
38779W        W 5562  25.914   0.261  14.730
38780W        W 5563  22.060  28.804  11.952
38781W        W 5564   3.553  22.647  11.750
38782W        W 5565  37.571  27.547  10.642
38783W        W 5566   4.949  30.204  14.351
38784W        W 5567   0.689  14.554   0.844
38785W        W 5568  44.315   3.435   2.588
38786W        W 5569  23.171  18.754   2.738
38787W        W 5570  24.481  18.189  11.110
38788W        W 5571   8.764  43.476   4.618
38789W        W 5572   5.189  11.274   1.485
38790W        W 5573  41.616  13.582  14.188
38791W        W 5574  18.293  25.638   1.349
38792W        W 5575  23.119  27.083   1.844
38793W        W 5576   0.545  14.652  10.315
38794W        W 5577  44.233  12.335   0.936
38795W        W 5578  17.083  41.580  12.943
38796W        W 5579  29.462  15.154  12.912
38797W        W 5580  35.055   8.393  11.090
38798W        W 5581   4.792  21.577   1.588
38799W        W 5582  27.601   8.700   0.231
38800W        W 5583  37.401  44.521   4.115
38801W        W 5584  13.498  15.263   4.339
38802W        W 5585  34.877  30.101   3.280
38803W        W 5586  24.653  29.974   2.731
38804W        W 5587  30.678  41.574   2.083
38805W        W 5588  28.613  21.341   2.380
38806W        W 5589  21.202  23.155   1.297
38807W        W 5590  24.478   0.362  10.720
38808W        W 5591  28.061  41.313  12.553
38809W        W 5592  21.064  37.049  12.905
38810W        W 5593  41.400  15.680  10.563
38811W        W 5594  22.949   6.943   1.372
38812W        W 5595   2.460  29.892  13.411
38813W        W 5596   3.785  43.448  13.310
38814W        W 5597  23.968   8.169   2.651
38815W        W 5598  19.626  33.395   2.288
38816W        W 5599  23.728  36.687  11.611
38817W        W 5600   3.759  28.024  13.897
38818W        W 5601  36.306  25.186   1.378
38819W        W 5602  15.618  28.432   3.739
38820W        W 5603  15.863  22.833  14.985
38821W        W 5604   8.730  30.372   0.821
38822W        W 5605  44.788  33.220   4.104
38823W        W 5606  20.062  33.982   1.881
38824W        W 5607  23.569  43.845   4.086
38825W        W 5608  15.007  25.424   1.335
38826W        W 5609   0.198   3.780   1.295
38827W        W 5610  29.530  11.140   1.272
38828W        W 5611  12.533   0.102   1.868
38829W        W 5612  23.064  20.407  14.829
38830W        W 5613  27.610   6.395   3.669
38831W        W 5614  32.530  43.283   2.461
38832W        W 5615   0.958  43.536  14.982
38833W        W 5616  34.938  20.742  13.832
38834W        W 5617  17.260  31.944   4.605
38835W        W 5618  17.314   2.208  13.102
38836W        W 5619   4.302   0.027  12.184
38837W        W 5620  19.524  21.806  14.686
38838W        W 5621  37.517  43.945  14.609
38839W        W 5622  39.351   8.217   3.043
38840W        W 5623   6.000  20.228   3.197
38841W        W 5624  18.396   1.427  10.963
38842W        W 5625   9.111  29.166  14.985
38843W        W 5626   8.081   4.661  13.433
38844W        W 5627  24.015  34.949  10.602
38845W        W 5628  31.525   1.702   4.655
38846W        W 5629  11.609  16.514   0.229
38847W        W 5630  27.231  10.902  13.551
38848W        W 5631  35.761  25.438  12.721
38849W        W 5632   4.763  13.346  14.695
38850W        W 5633  10.405  36.285  10.570
38851W        W 5634  26.253  26.978   0.468
38852W        W 5635  27.193  15.596  14.439
38853W        W 5636   1.945  36.826   1.464
38854W        W 5637  23.917   9.704   4.092
38855W        W 5638  27.620  33.449  12.462
38856W        W 5639  40.341  31.146  11.241
38857W        W 5640  35.765  13.561  12.996
38858W        W 5641  41.824  11.454   0.382
38859W        W 5642  12.315  40.773  11.175
38860W        W 5643  14.487  16.515  13.325
38861W        W 5644  37.685   8.676  11.425
38862W        W 5645  29.991   3.292   1.875
38863W        W 5646  30.931  40.080  13.402
38864W        W 5647  44.986  14.332   4.062
38865W        W 5648  25.697  22.714  13.964
38866W        W 5649   1.554   4.807   3.308
38867W        W 5650  21.108   1.587  13.502
38868W        W 5651  19.249   0.357  13.994
38869W        W 5652  41.017  25.389  11.620
38870W        W 5653   1.459   7.295  10.095
38871W        W 5654  10.343  23.614  13.872
38872W        W 5655  41.250  33.004   1.820
38873W        W 5656  15.788  44.776   1.622
38874W        W 5657   5.611   8.424   0.042
38875W        W 5658  11.461  14.072   2.734
38876W        W 5659   4.763  25.655  14.857
38877W        W 5660  36.589  34.281  12.087
38878W        W 5661  22.968  24.703   2.248
38879W        W 5662   3.891  42.975   0.757
38880W        W 5663  15.115  35.648   2.216
38881W        W 5664  40.210   5.753  11.106
38882W        W 5665   3.725  25.402  10.987
38883W        W 5666  26.306  23.251   1.736
38884W        W 5667   3.860  15.908   1.157
38885W        W 5668  32.441  26.698   4.739
38886W        W 5669  26.652  36.350   2.775
38887W        W 5670  35.022  39.128  14.461
38888W        W 5671   6.295  44.763  11.428
38889W        W 5672  41.546   7.433   1.691
38890W        W 5673  38.833  11.945   1.364
38891W        W 5674  11.297  29.942   2.230
38892W        W 5675  20.729  43.292  11.034
38893W        W 5676  40.518   6.861   0.719
38894W        W 5677  28.693  30.906   0.750
38895W        W 5678   9.222  21.940  14.414
38896W        W 5679  20.593   7.797   0.712
38897W        W 5680  34.503  10.223  13.401
38898W        W 5681  22.180  12.175  14.413
38899W        W 5682  30.150  35.630   4.108
38900W        W 5683  24.559  40.488   1.354
38901W        W 5684  25.461  23.237   4.528
38902W        W 5685  33.826  33.569  12.498
38903W        W 5686  17.541  31.229   2.116
38904W        W 5687  10.655   1.040   3.131
38905W        W 5688  29.925   8.779  11.620
38906W        W 5689  34.148  15.225  12.468
38907W        W 5690  44.032   3.792  13.951
38908W        W 5691  41.535  44.423  10.527
38909W        W 5692  22.180  39.040  13.935
38910W        W 5693   8.851  25.672   2.234
38911W        W 5694   8.242  15.491  11.090
38912W        W 5695  43.841  39.956  13.992
38913W        W 5696   1.549  25.143   2.738
38914W        W 5697  10.422  19.092   0.121
38915W        W 5698  30.504  34.813  10.661
38916W        W 5699  23.833  32.100   4.775
38917W        W 5700  22.959  25.214   2.279
38918W        W 5701  39.506  19.090  11.902
38919W        W 5702   9.381  37.481  12.477
38920W        W 5703  10.389  41.399   4.278
38921W        W 5704   9.841   8.314   0.948
38922W        W 5705   9.865  17.098  11.085
38923W        W 5706  17.174  18.065   4.157
38924W        W 5707   4.042   8.855  13.713
38925W        W 5708   6.424   5.596   1.959
38926W        W 5709   3.750  11.815   3.067
38927W        W 5710  38.884  16.638  11.068
38928W        W 5711  44.694  14.838  14.850
38929W        W 5712   2.825  19.004  14.450
38930W        W 5713   2.465  23.578   4.566
38931W        W 5714  16.448   0.906   4.457
38932W        W 5715   0.910   4.828  11.603
38933W        W 5716  19.443  42.275   4.688
38934W        W 5717  14.301  39.371  10.278
38935W        W 5718  17.841  33.623   0.891
38936W        W 5719  44.906  28.680   0.364
38937W        W 5720  43.285   1.483   2.407
38938W        W 5721  34.408  31.405   1.285
38939W        W 5722  25.598  19.971  11.561
38940W        W 5723  34.162  12.471  11.152
38941W        W 5724  38.585  36.437   4.164
38942W        W 5725   0.609  15.345   0.373
38943W        W 5726  10.232   4.728   4.617
38944W        W 5727   2.564  22.632  11.554
38945W        W 5728  32.188  37.887  14.944
38946W        W 5729  42.803  25.331   1.620
38947W        W 5730  35.330  13.697   3.692
38948W        W 5731   5.224   4.756  14.063
38949W        W 5732  23.639  28.465   3.311
38950W        W 5733  23.745   1.651   2.260
38951W        W 5734  31.043  10.195   3.407
38952W        W 5735  28.934   1.423   4.440
38953W        W 5736  36.909  27.674  12.904
38954W        W 5737   0.857   2.988   1.259
38955W        W 5738  20.727  29.614   0.806
38956W        W 5739  20.130  37.334   4.632
38957W        W 5740  43.537   5.936  14.894
38958W        W 5741  42.863  24.299   1.349
38959W        W 5742  12.379  41.531  10.704
38960W        W 5743  18.335  37.410   4.988
38961W        W 5744  43.863   3.390  11.881
38962W        W 5745  39.332  20.188   4.714
38963W        W 5746  38.604  35.799  12.366
38964W        W 5747  30.937  44.319  12.913
38965W        W 5748  33.906  15.703   3.281
38966W        W 5749  15.521  40.517  14.944
38967W        W 5750  37.301  33.794   4.557
38968W        W 5751  13.783   0.464   0.831
38969W        W 5752  42.313  18.284  12.197
38970W        W 5753   9.874  13.789   2.161
38971W        W 5754  29.338  25.143  13.057
38972W        W 5755   5.149  13.667  12.555
38973W        W 5756  41.928  41.857   1.174
38974W        W 5757   7.216  13.536  11.167
38975W        W 5758  43.229  25.090  10.773
38976W        W 5759   9.277  11.320   0.733
38977W        W 5760   0.100  21.228   1.314
38978W        W 5761  17.181  23.606  10.293
38979W        W 5762  35.394  37.619  11.130
38980W        W 5763  29.670  40.408   1.463
38981W        W 5764  34.523   8.144   3.618
38982W        W 5765  18.156   1.825  12.524
38983W        W 5766  21.155  41.533  13.316
38984W        W 5767  27.057  30.380  11.676
38985W        W 5768  34.821  22.707  13.367
38986W        W 5769   6.390  32.137   1.229
38987W        W 5770   4.531  41.759  12.781
38988W        W 5771  17.843  38.435  13.387
38989W        W 5772  21.571  10.290   4.569
38990W        W 5773   3.292  44.319   1.631
38991W        W 5774  29.224  16.504  11.709
38992W        W 5775  20.593  39.031  11.242
38993W        W 5776  30.003  41.995  10.867
38994W        W 5777   8.709   5.598  11.171
38995W        W 5778  26.112  16.916   0.801
38996W        W 5779   9.808  28.524  10.543
38997W        W 5780  18.609  16.796  12.640
38998W        W 5781  44.710  18.579  12.142
38999W        W 5782  13.893  38.798  11.640
39000W        W 5783   4.341  18.676  13.895
39001W        W 5784  30.659  10.882  11.129
39002W        W 5785  27.115  34.223   3.007
39003W        W 5786  11.880  15.056   0.236
39004W        W 5787  10.818   5.278   4.074
39005W        W 5788  36.916  26.506   4.666
39006W        W 5789  31.429  37.339   2.511
39007W        W 5790  30.897   0.047  13.491
39008W        W 5791  39.871  28.566  14.720
39009W        W 5792  20.469  26.438  13.607
39010W        W 5793   9.736  34.029  12.807
39011W        W 5794   0.290   4.952   2.870
39012W        W 5795  25.377  27.325   5.643
39013W        W 5796   2.324  25.177   2.396
39014W        W 5797  29.123  43.891  12.839
39015W        W 5798   7.162  10.648  10.700
39016W        W 5799  25.006  13.058  12.043
39017W        W 5800  37.608  33.043  10.561
39018W        W 5801  34.647  35.893   1.386
39019W        W 5802  42.590  41.321  11.645
39020W        W 5803  17.159  40.893   3.372
39021W        W 5804   5.204  32.676   4.115
39022W        W 5805  43.221   5.438  11.991
39023W        W 5806  19.116  24.731   2.396
39024W        W 5807   9.010  23.660   3.042
39025W        W 5808  40.856  13.367  13.775
39026W        W 5809   3.443   4.799  10.830
39027W        W 5810  35.530  10.407  11.944
39028W        W 5811   4.890  12.624  11.055
39029W        W 5812   4.887  36.024  11.484
39030W        W 5813  32.787  31.195   2.929
39031W        W 5814  24.806  30.916   2.319
39032W        W 5815  41.805  43.310  11.134
39033W        W 5816  11.630   0.985  13.799
39034W        W 5817  35.880  26.556   4.662
39035W        W 5818  30.927  34.088  13.884
39036W        W 5819  34.415  15.762   0.021
39037W        W 5820  44.853  35.403  10.273
39038W        W 5821  34.043  40.919   1.868
39039W        W 5822   0.279  37.377   2.210
39040W        W 5823   1.415  38.902  14.991
39041W        W 5824  29.614   9.253  13.097
39042W        W 5825  13.459   5.129   2.853
39043W        W 5826  15.785  20.755  14.982
39044W        W 5827   6.583  22.203   1.351
39045W        W 5828  10.339   6.238   9.835
39046W        W 5829  19.276  27.432  13.846
39047W        W 5830  22.586  39.012  13.401
39048W        W 5831  14.325  25.714   3.239
39049W        W 5832  40.481  33.681  13.978
39050W        W 5833   2.935   4.480   1.411
39051W        W 5834  36.100  43.739  10.633
39052W        W 5835  29.428  25.463   2.582
39053W        W 5836  44.842  21.580  10.634
39054W        W 5837  10.367  31.009   3.190
39055W        W 5838  23.081  36.047   4.251
39056W        W 5839  33.521  31.424  10.643
39057W        W 5840  18.128  24.448   4.357
39058W        W 5841  10.795  15.429  13.947
39059W        W 5842  28.128  13.807   4.033
39060W        W 5843  39.398  13.839   4.097
39061W        W 5844  33.627  32.065  12.118
39062W        W 5845  23.013  36.413   3.200
39063W        W 5846  12.783  44.359   1.387
39064W        W 5847  29.474  44.201   3.698
39065W        W 5848  23.951  38.882   4.596
39066W        W 5849  39.314   8.833  13.811
39067W        W 5850  20.401  29.666   1.844
39068W        W 5851  13.612  18.820  11.858
39069W        W 5852   4.968  44.538  13.069
39070W        W 5853  44.550  17.005  11.631
39071W        W 5854  27.559  29.061   3.140
39072W        W 5855   9.405  17.562  11.209
39073W        W 5856  12.156  35.351   3.777
39074W        W 5857   1.932  23.064   0.896
39075W        W 5858  43.779  25.063   4.550
39076W        W 5859   1.372  37.087   0.307
39077W        W 5860  28.096   6.585  11.686
39078W        W 5861   2.489  21.344  12.078
39079W        W 5862  20.660   9.480  13.989
39080W        W 5863  30.900  44.056   1.506
39081W        W 5864  21.113  38.882   0.447
39082W        W 5865  43.027   2.438  11.036
39083W        W 5866  30.667   3.510   0.431
39084W        W 5867  35.196  41.859   1.413
39085W        W 5868  21.693  19.645  10.745
39086W        W 5869  33.820  19.300  12.530
39087W        W 5870  15.558  32.151   3.326
39088W        W 5871   1.871   9.198  11.992
39089W        W 5872  18.265  28.621  14.337
39090W        W 5873   8.775  23.123   2.223
39091W        W 5874  33.464  30.628   1.797
39092W        W 5875  11.813  10.819   1.354
39093W        W 5876  21.950  21.537   0.645
39094W        W 5877  12.256  43.368   4.702
39095W        W 5878  41.389  26.674  12.066
39096W        W 5879  20.799  28.673   1.237
39097W        W 5880  17.091  23.458  14.592
39098W        W 5881  33.970  15.467   0.009
39099W        W 5882  28.332  25.550   3.596
39100W        W 5883   0.849  24.543   2.864
39101W        W 5884   0.244  42.498   3.677
39102W        W 5885  24.414   7.155  12.796
39103W        W 5886  31.710   3.274   0.887
39104W        W 5887  17.703   9.334   0.106
39105W        W 5888  33.887  25.669  12.352
39106W        W 5889  39.655   7.168  10.242
39107W        W 5890   3.221  32.045   4.741
39108W        W 5891  34.746  29.734  12.898
39109W        W 5892  19.068   5.201   4.855
39110W        W 5893  31.049  36.919  10.977
39111W        W 5894   4.761  15.317   2.764
39112W        W 5895   9.145  12.842   5.106
39113W        W 5896   4.965  22.745   4.895
39114W        W 5897   9.011  35.293  11.652
39115W        W 5898  24.238  19.265  14.517
39116W        W 5899   2.049  19.549   2.373
39117W        W 5900  19.800  11.159   1.718
39118W        W 5901  33.031  44.106   1.893
39119W        W 5902  44.626  43.717   4.090
39120W        W 5903  38.082  10.193  10.228
39121W        W 5904  30.627  43.191   0.759
39122W        W 5905  20.401  36.090  13.431
39123W        W 5906  29.973   6.871   2.256
39124W        W 5907  41.811  27.080   4.903
39125W        W 5908  41.936  29.748  11.615
39126W        W 5909   7.686  35.495  11.163
39127W        W 5910  13.668  43.764   2.277
39128W        W 5911   1.382  38.311  12.680
39129W        W 5912  15.943   0.292  14.518
39130W        W 5913  16.194  10.873  13.554
39131W        W 5914   7.064  17.516  14.946
39132W        W 5915  42.055  35.329   3.894
39133W        W 5916  40.511   8.871   1.284
39134W        W 5917   0.822  33.538   4.565
39135W        W 5918  24.723  40.059   2.635
39136W        W 5919   4.241  29.033  11.831
39137W        W 5920  17.138   0.794   2.703
39138W        W 5921   0.221  14.568   0.524
39139W        W 5922  34.526   8.220  10.702
39140W        W 5923  29.008   2.634  11.484
39141W        W 5924   2.080   8.680  14.226
39142W        W 5925  37.422  26.630  10.239
39143W        W 5926  28.369  44.549  10.523
39144W        W 5927  32.529  36.670   3.826
39145W        W 5928  36.395   5.810  12.848
39146W        W 5929  17.266  18.995  13.943
39147W        W 5930  28.491  41.583   0.485
39148W        W 5931  10.028  31.616  12.050
39149W        W 5932  30.251  44.422  10.431
39150W        W 5933   4.180  12.840   1.952
39151W        W 5934  11.220   4.255   3.849
39152W        W 5935  31.221  16.347  13.997
39153W        W 5936  26.522  25.313  14.438
39154W        W 5937  10.719  36.912   2.218
39155W        W 5938  24.161  19.060  12.752
39156W        W 5939  26.462  40.567  11.691
39157W        W 5940  41.537   5.822  14.822
39158W        W 5941  12.736   8.767   2.241
39159W        W 5942   9.420  10.566   0.339
39160W        W 5943  14.720  25.341   9.869
39161W        W 5944  25.985   6.877  11.638
39162W        W 5945  28.964  25.203   4.548
39163W        W 5946  20.498  31.542  11.663
39164W        W 5947   7.326  18.496   0.011
39165W        W 5948  27.252  43.176  11.331
39166W        W 5949  37.272   9.928   3.686
39167W        W 5950  27.720  28.262   2.979
39168W        W 5951  33.662  27.521  11.078
39169W        W 5952  38.487   1.331   3.428
39170W        W 5953  38.041  33.731  12.450
39171W        W 5954  13.849  23.592   1.412
39172W        W 5955   7.351  22.277   0.799
39173W        W 5956  37.985  43.308   0.189
39174W        W 5957  12.263  21.571  11.112
39175W        W 5958  13.649  40.841   5.016
39176W        W 5959   8.271  34.682   1.218
39177W        W 5960  41.332  39.098   2.710
39178W        W 5961  22.629  17.479  12.422
39179W        W 5962  24.246  21.178   1.372
39180W        W 5963   0.700   0.784   3.060
39181W        W 5964   3.473  23.127   0.893
39182W        W 5965   7.759  25.679  11.145
39183W        W 5966  33.949  36.492   1.488
39184W        W 5967  26.180  37.412   1.291
39185W        W 5968  15.287  23.672  12.625
39186W        W 5969  17.711  25.972  12.464
39187W        W 5970  13.054  12.385  12.887
39188W        W 5971  39.178  19.161  13.962
39189W        W 5972  11.108  17.489   2.647
39190W        W 5973   3.153  39.888  12.824
39191W        W 5974  16.817  13.869  14.149
39192W        W 5975  16.363  22.061  12.768
39193W        W 5976  29.971  27.256  11.694
39194W        W 5977  29.570  12.903  10.592
39195W        W 5978  30.620   1.921   4.372
39196W        W 5979  10.238  44.566  10.250
39197W        W 5980  38.325  11.250  14.399
39198W        W 5981  21.331   8.176   1.123
39199W        W 5982  11.914  15.370   3.664
39200W        W 5983  27.220  28.246   2.796
39201W        W 5984  36.376  14.751   0.898
39202W        W 5985  39.478  24.173  12.102
39203W        W 5986  31.637  20.612   1.947
39204W        W 5987  35.370  15.811  11.878
39205W        W 5988  32.247   3.985   0.772
39206W        W 5989  37.569  43.417  11.037
39207W        W 5990  12.416  42.557   1.202
39208W        W 5991   3.301  21.428  13.961
39209W        W 5992  40.312  36.451  14.489
39210W        W 5993  44.548  26.994   1.881
39211W        W 5994  40.828  31.277   0.897
39212W        W 5995  29.381  28.405  11.652
39213W        W 5996  41.830  11.074   1.258
39214W        W 5997   1.633  30.910  13.948
39215W        W 5998  43.374  24.959  13.311
39216W        W 5999  40.503  11.264  12.775
39217W        W 6000  12.370  33.865   3.724
39218W        W 6001  14.203  40.063  12.013
39219W        W 6002  29.156  40.950  11.048
39220W        W 6003  14.888   5.840  13.575
39221W        W 6004  15.564  31.080   4.672
39222W        W 6005  33.132  28.607  11.712
39223W        W 6006  37.137  43.567   3.163
39224W        W 6007  29.060   9.306   0.494
39225W        W 6008  32.555  33.172  12.658
39226W        W 6009  40.905  31.584  13.247
39227W        W 6010  10.144  40.531   5.208
39228W        W 6011  43.953  41.574   0.838
39229W        W 6012  31.361  10.842   1.340
39230W        W 6013  23.986  31.847  12.455
39231W        W 6014  31.402  43.133   4.188
39232W        W 6015  25.927  33.931   4.468
39233W        W 6016  41.235  29.084   0.691
39234W        W 6017   4.978  41.432   4.517
39235W        W 6018   4.477  31.447   1.427
39236W        W 6019  12.740   6.106   2.216
39237W        W 6020  21.472  22.427   2.147
39238W        W 6021   4.023  29.823  14.986
39239W        W 6022   8.143   6.256   2.737
39240W        W 6023  33.506  23.669   3.666
39241W        W 6024  34.138   8.258   2.701
39242W        W 6025  41.246  19.561  14.410
39243W        W 6026  21.004  22.057  11.031
39244W        W 6027  39.338   5.521   3.671
39245W        W 6028  19.708  31.856  10.635
39246W        W 6029  11.738  36.241   3.809
39247W        W 6030  43.359  36.853   4.146
39248W        W 6031   5.708  33.907   2.316
39249W        W 6032  30.994   5.774   0.798
39250W        W 6033  43.525  38.102  11.455
39251W        W 6034  34.341   2.794   3.156
39252W        W 6035   9.615   2.316   4.549
39253W        W 6036  36.113  41.101  12.049
39254W        W 6037  12.816  27.530  13.384
39255W        W 6038  39.530  20.546   0.440
39256W        W 6039  32.895   9.216   0.948
39257W        W 6040   9.636  34.581   1.214
39258W        W 6041  38.103   3.590   4.428
39259W        W 6042  40.990  19.247   0.886
39260W        W 6043   3.720  22.222   1.513
39261W        W 6044   4.803  40.467   2.186
39262W        W 6045  44.387  42.499  11.702
39263W        W 6046  25.058   4.450   0.379
39264W        W 6047  41.028  40.483   2.826
39265W        W 6048  14.136  30.683   2.446
39266W        W 6049   8.399  41.107  10.744
39267W        W 6050  24.085  13.835  14.270
39268W        W 6051  10.340  27.962   2.889
39269W        W 6052   8.941   3.235  10.808
39270W        W 6053   3.810  12.876   1.013
39271W        W 6054  17.290  38.200  14.275
39272W        W 6055  17.326  35.304   1.232
39273W        W 6056  18.036  12.908  12.550
39274W        W 6057  37.774  36.441   4.815
39275W        W 6058   0.172  32.146   2.128
39276W        W 6059  25.988  13.867  11.526
39277W        W 6060  21.706  27.532  13.846
39278W        W 6061   2.937  15.544  10.464
39279W        W 6062  17.023   9.862  12.187
39280W        W 6063  15.151  17.634  14.566
39281W        W 6064  20.279  41.334  13.459
39282W        W 6065  15.822  14.415   2.303
39283W        W 6066  22.953  11.379  12.140
39284W        W 6067  42.045  22.067  14.937
39285W        W 6068   1.500  28.355   2.401
39286W        W 6069   3.191   7.277   3.739
39287W        W 6070  37.391  36.573  11.613
39288W        W 6071  20.671  36.217  11.163
39289W        W 6072  26.720  37.091  14.104
39290W        W 6073  21.684  22.176  11.737
39291W        W 6074  25.907  31.193   4.238
39292W        W 6075   2.794  36.539   2.015
39293W        W 6076  17.576  17.564   0.261
39294W        W 6077  37.351  31.667  13.492
39295W        W 6078  44.896  15.361   4.211
39296W        W 6079  37.397  15.093   2.850
39297W        W 6080  10.599  36.955   0.795
39298W        W 6081  17.547  42.060  14.324
39299W        W 6082  17.229  14.363   2.368
39300W        W 6083  24.090   3.688   2.355
39301W        W 6084  44.715  20.428   4.726
39302W        W 6085   3.303   5.405  11.472
39303W        W 6086  36.623  44.310   4.518
39304W        W 6087  21.430  25.053   4.535
39305W        W 6088  20.992   0.861  10.324
39306W        W 6089  38.149  41.269  12.921
39307W        W 6090  42.566  37.790   4.224
39308W        W 6091  40.439  29.386   0.428
39309W        W 6092   5.687   4.319   2.449
39310W        W 6093  11.118  16.370  10.514
39311W        W 6094  25.097  15.950   4.350
39312W        W 6095  20.576  31.068   3.632
39313W        W 6096  36.523  37.883   2.652
39314W        W 6097  11.176   1.940   3.289
39315W        W 6098  24.824  39.452  12.436
39316W        W 6099   3.512   3.009   0.975
39317W        W 6100  37.426  31.860  11.257
39318W        W 6101  31.135  29.948  14.770
39319W        W 6102  35.003  31.979  13.304
39320W        W 6103   6.267  14.105  10.730
39321W        W 6104   5.908  42.349   4.141
39322W        W 6105  44.360  43.206  14.330
39323W        W 6106   6.208  26.965   3.713
39324W        W 6107  40.431  17.499   3.239
39325W        W 6108  18.079  12.027  10.274
39326W        W 6109  36.053  34.082   0.756
39327W        W 6110  27.593  19.164  13.957
39328W        W 6111   7.447  14.352   3.373
39329W        W 6112   0.987  30.608  11.756
39330W        W 6113  43.976  39.852   2.960
39331W        W 6114   0.692  44.158   0.587
39332W        W 6115  26.395  12.726   3.185
39333W        W 6116  41.559  39.250   2.230
39334W        W 6117  19.153  42.034  12.112
39335W        W 6118   5.786  10.818   4.498
39336W        W 6119  11.817  40.427  12.011
39337W        W 6120  26.616  25.060   2.462
39338W        W 6121   3.900  33.762   3.011
39339W        W 6122  25.202  30.520  13.535
39340W        W 6123  38.167  27.798   4.066
39341W        W 6124  43.728  35.844   0.620
39342W        W 6125  15.472  17.728   2.116
39343W        W 6126  20.611  44.416   0.008
39344W        W 6127  12.391  26.860  14.867
39345W        W 6128   4.461   5.872   0.140
39346W        W 6129  30.373  38.590  11.751
39347W        W 6130  38.046  15.669   3.285
39348W        W 6131   8.121  13.723  10.878
39349W        W 6132  27.894   4.892  13.315
39350W        W 6133  24.079  35.443   2.680
39351W        W 6134  26.796   3.432   1.849
39352W        W 6135  17.368  33.395   0.782
39353W        W 6136  43.403  17.069  13.912
39354W        W 6137   5.362  21.877  14.846
39355W        W 6138  25.203  22.399   4.689
39356W        W 6139   1.421  29.350   4.125
39357W        W 6140  43.330   4.053  12.283
39358W        W 6141  19.095  19.622   3.823
39359W        W 6142   2.922  42.503   2.865
39360W        W 6143  39.335  14.906  11.133
39361W        W 6144  40.506   4.182   4.257
39362W        W 6145  17.646  39.228   3.580
39363W        W 6146  39.005   5.452   0.957
39364W        W 6147  39.595   1.707  14.864
39365W        W 6148   5.165  18.078  12.949
39366W        W 6149  17.515  29.468   4.252
39367W        W 6150  28.205  23.348   3.165
39368W        W 6151   8.648  19.582   1.210
39369W        W 6152  13.644  38.019   2.902
39370W        W 6153  19.027  29.010   2.757
39371W        W 6154  30.865  38.385  13.289
39372W        W 6155   9.340  10.326   2.233
39373W        W 6156   4.482  33.359  14.934
39374W        W 6157  11.667  31.228   2.709
39375W        W 6158  25.118  39.912  11.691
39376W        W 6159   3.994  33.450  11.685
39377W        W 6160  44.239  18.486  14.038
39378W        W 6161  39.008  41.367  13.163
39379W        W 6162  19.213  22.822   1.419
39380W        W 6163  35.849  33.339   2.409
39381W        W 6164  25.001  17.242   2.265
39382W        W 6165  40.088  44.848  10.697
39383W        W 6166   0.569  18.675  12.417
39384W        W 6167   3.177   2.735   1.247
39385W        W 6168  16.662  11.377  13.925
39386W        W 6169  26.019  35.726   1.814
39387W        W 6170  28.971  42.634   0.926
39388W        W 6171  37.048  10.900   4.715
39389W        W 6172  17.940   6.883   2.763
39390W        W 6173   7.766  42.379  12.004
39391W        W 6174  42.971  17.001  10.054
39392W        W 6175  42.071  41.037   3.256
39393W        W 6176  16.753  24.554   4.082
39394W        W 6177  12.080  20.318   1.318
39395W        W 6178  19.183  23.332   1.358
39396W        W 6179  40.493  28.858  13.765
39397W        W 6180  38.429  18.559  11.383
39398W        W 6181  38.057  42.236  14.288
39399W        W 6182  34.063   4.201  10.443
39400W        W 6183  37.431  15.680  11.545
39401W        W 6184  15.376   3.291   4.662
39402W        W 6185  13.164   1.636   4.123
39403W        W 6186  18.252   8.766  13.965
39404W        W 6187  39.048  32.803  11.506
39405W        W 6188   9.931  19.143   0.229
39406W        W 6189  22.196  40.563  12.621
39407W        W 6190  44.141  13.252   4.912
39408W        W 6191  34.395  30.077   2.449
39409W        W 6192  31.532  17.765   0.379
39410W        W 6193  29.700   4.760   2.301
39411W        W 6194  14.281   1.721  12.322
39412W        W 6195  36.006  14.645   4.471
39413W        W 6196  21.672  28.013   9.989
39414W        W 6197   5.304  14.556  13.082
39415W        W 6198  38.430  33.889   1.977
39416W        W 6199  34.936  33.037   1.813
39417W        W 6200  22.063  34.143  12.563
39418W        W 6201  25.008   8.779  14.795
39419W        W 6202  33.827  28.612   3.101
39420W        W 6203  20.658  30.002   1.542
39421W        W 6204  39.114  25.663  13.799
39422W        W 6205   2.303  43.521   0.591
39423W        W 6206   4.241   8.934  11.455
39424W        W 6207  34.352  41.068  10.651
39425W        W 6208  29.663  44.890  14.037
39426W        W 6209   0.626   9.649  11.900
39427W        W 6210  37.533  27.052  14.421
39428W        W 6211   4.779   0.310   1.377
39429W        W 6212  29.583  34.656   3.810
39430W        W 6213  25.426  16.308   3.615
39431W        W 6214  13.717  25.167   0.536
39432W        W 6215  18.157   1.950   0.305
39433W        W 6216  44.992  14.911   3.202
39434W        W 6217  29.217  22.812  11.223
39435W        W 6218  27.182  11.084  12.010
39436W        W 6219  41.885  37.995  10.718
39437W        W 6220   4.189  19.703   2.264
39438W        W 6221  32.643  42.485  12.240
39439W        W 6222  15.644  17.699  11.089
39440W        W 6223  41.819  34.650  14.002
39441W        W 6224  24.185  13.314  11.608
39442W        W 6225  14.108  40.817  12.418
39443W        W 6226  18.179   1.801   2.794
39444W        W 6227  24.617  34.453   0.310
39445W        W 6228  18.787  21.996  14.896
39446W        W 6229  22.684  24.991  13.913
39447W        W 6230   3.965   1.755  14.371
39448W        W 6231   8.338   3.295   0.943
39449W        W 6232   1.391  14.201   3.047
39450W        W 6233  30.157  16.475   0.289
39451W        W 6234  23.595   7.221   4.656
39452W        W 6235  36.039   5.831  13.520
39453W        W 6236  23.719   9.931   2.912
39454W        W 6237   1.781   1.999   3.627
39455W        W 6238   5.267  25.205  11.212
39456W        W 6239  26.927  28.445   5.404
39457W        W 6240   3.922  38.393   1.614
39458W        W 6241  36.424  10.286   2.675
39459W        W 6242   5.581  22.716  11.700
39460W        W 6243  32.493  11.512  11.348
39461W        W 6244   7.167  20.537  10.731
39462W        W 6245  20.347  38.269  11.005
39463W        W 6246  20.093   1.181  12.389
39464W        W 6247  10.218  13.907  11.658
39465W        W 6248  27.938  25.134  12.584
39466W        W 6249  31.370  28.408   1.393
39467W        W 6250  11.356  16.886   0.956
39468W        W 6251  32.841  35.342   4.463
39469W        W 6252  22.685  34.553  10.602
39470W        W 6253  19.165  28.623   0.247
39471W        W 6254  22.897   7.568  14.561
39472W        W 6255  44.793  13.544   1.197
39473W        W 6256  23.292   3.682  13.724
39474W        W 6257  41.743  30.148  10.780
39475W        W 6258  16.668   5.681  10.829
39476W        W 6259  40.198  37.460   4.110
39477W        W 6260  39.563   4.397  13.905
39478W        W 6261  41.081   2.961   1.150
39479W        W 6262  10.229  32.339   0.834
39480W        W 6263  15.365  10.217   1.796
39481W        W 6264  32.218  26.894   1.143
39482W        W 6265   3.651  34.313  11.602
39483W        W 6266  36.606  11.693  14.782
39484W        W 6267  42.363  37.915  10.960
39485W        W 6268  41.533  22.035   4.550
39486W        W 6269  35.522  37.830   1.682
39487W        W 6270  37.452  29.072   3.359
39488W        W 6271   7.237   2.382  13.564
39489W        W 6272  40.183  36.249  13.967
39490W        W 6273  44.214  19.578   2.709
39491W        W 6274  10.902   3.451  12.006
39492W        W 6275  12.854  26.195  14.838
39493W        W 6276  33.884  31.661   4.960
39494W        W 6277  40.604  23.516   2.718
39495W        W 6278  41.812  30.616  14.047
39496W        W 6279  35.514  17.093   1.703
39497W        W 6280  37.642   9.156  13.813
39498W        W 6281  25.543  11.813  12.102
39499W        W 6282  15.209  41.961  14.316
39500W        W 6283   3.209  13.219   3.667
39501W        W 6284  38.195   3.439  10.430
39502W        W 6285   3.491  27.315   1.423
39503W        W 6286  26.504  11.552   2.424
39504W        W 6287  41.376  31.465  14.930
39505W        W 6288  18.113  36.319   1.351
39506W        W 6289   9.367  22.696  13.007
39507W        W 6290  33.184  43.554   4.605
39508W        W 6291  16.689   4.585   0.983
39509W        W 6292  38.633   7.212  14.426
39510W        W 6293  37.053  31.478   2.556
39511W        W 6294   7.152  41.825  14.143
39512W        W 6295  39.324  27.573  13.393
39513W        W 6296   5.865  32.847   0.275
39514W        W 6297  41.817  27.076   2.322
39515W        W 6298  31.354  31.439   0.299
39516W        W 6299  36.504  37.942   0.765
39517W        W 6300  37.994   0.663   0.747
39518W        W 6301   8.529  25.324   4.220
39519W        W 6302  44.227  30.711   4.171
39520W        W 6303  12.263  11.387  11.823
39521W        W 6304   2.221  25.498   0.212
39522W        W 6305   7.322  12.774  11.573
39523W        W 6306  42.569   0.351  13.497
39524W        W 6307   6.396  13.600  14.307
39525W        W 6308   3.387  43.909  10.861
39526W        W 6309   9.376  13.883  12.024
39527W        W 6310  33.303  39.869  11.963
39528W        W 6311  17.527  21.832  12.011
39529W        W 6312  44.011  33.949  14.507
39530W        W 6313  39.617   5.962   3.650
39531W        W 6314   4.952  32.104  13.304
39532W        W 6315  39.280  40.051  10.494
39533W        W 6316  29.038  27.505  11.879
39534W        W 6317  34.102  35.360   4.116
39535W        W 6318   5.896  23.728   2.939
39536W        W 6319   4.552   8.625  13.775
39537W        W 6320  15.124  26.311  10.687
39538W        W 6321  31.483   3.660   1.191
39539W        W 6322  11.752  11.345   0.960
39540W        W 6323  11.831   0.463   1.239
39541W        W 6324  18.163  23.934   3.910
39542W        W 6325  40.092  23.042   2.350
39543W        W 6326  20.044  24.673   0.303
39544W        W 6327  10.345  28.402  11.992
39545W        W 6328  13.576   1.865   3.257
39546W        W 6329  39.082  16.939  14.239
39547W        W 6330  21.667  41.821  11.655
39548W        W 6331  21.758   6.256  10.170
39549W        W 6332  42.496  35.523  12.602
39550W        W 6333  22.823  35.331  10.341
39551W        W 6334  28.578   8.609   3.563
39552W        W 6335   0.259  25.016   0.288
39553W        W 6336  38.813   1.984   0.226
39554W        W 6337   6.532  39.973  12.826
39555W        W 6338  44.398  41.107  11.387
39556W        W 6339  18.279  43.538   3.799
39557W        W 6340   7.309  28.594   1.855
39558W        W 6341  25.481   9.352  11.635
39559W        W 6342   3.994  28.574   4.128
39560W        W 6343  21.627  31.409   2.904
39561W        W 6344  24.155  24.014   2.812
39562W        W 6345  25.878  24.389  12.331
39563W        W 6346  42.550   4.543  12.628
39564W        W 6347  16.959  41.081  13.093
39565W        W 6348  17.153   4.759  14.292
39566W        W 6349  29.069   1.980  10.719
39567W        W 6350  41.234  40.836   3.642
39568W        W 6351  19.458   1.446   2.762
39569W        W 6352   8.132  15.123  14.030
39570W        W 6353  18.160  34.981  10.377
39571W        W 6354  17.059  14.087   0.523
39572W        W 6355  23.653  25.707  13.528
39573W        W 6356  25.001  12.905   3.573
39574W        W 6357  38.059   4.741  10.815
39575W        W 6358  20.198  25.595  10.703
39576W        W 6359   4.453  17.024   4.111
39577W        W 6360  23.090   9.372  14.001
39578W        W 6361  41.982  42.264  10.737
39579W        W 6362  43.682  30.869  14.287
39580W        W 6363  33.487   7.562   2.373
39581W        W 6364  41.777  33.672  11.455
39582W        W 6365  17.727  41.922  11.543
39583W        W 6366  31.043  27.967  10.503
39584W        W 6367  29.610   3.551  10.372
39585W        W 6368   5.933   6.598  13.014
39586W        W 6369   7.747  13.253   3.654
39587W        W 6370  14.237  39.433  12.568
39588W        W 6371  31.079  10.686  13.358
39589W        W 6372  33.135  24.229  12.084
39590W        W 6373  21.148  13.262  13.850
39591W        W 6374   9.050  27.030   4.862
39592W        W 6375  10.217  12.242  13.554
39593W        W 6376   9.502  39.845  11.917
39594W        W 6377  18.706  38.718   1.681
39595W        W 6378  22.510  22.214  10.499
39596W        W 6379  27.592  26.053  14.397
39597W        W 6380   7.799   4.513   1.281
39598W        W 6381  18.022  44.856  11.904
39599W        W 6382  19.327   2.357   2.659
39600W        W 6383  25.501  25.998  13.925
39601W        W 6384   2.497   4.377   0.368
39602W        W 6385   8.859  27.906  12.425
39603W        W 6386   8.280  38.564  11.796
39604W        W 6387   6.851   6.637  12.903
39605W        W 6388  10.791  29.689  11.092
39606W        W 6389   0.457  33.026  10.638
39607W        W 6390  14.235  31.018  13.102
39608W        W 6391   9.293   4.351  12.067
39609W        W 6392  26.539  42.224   2.108
39610W        W 6393  12.842  17.522   0.206
39611W        W 6394  21.810  44.707  11.549
39612W        W 6395   5.340  39.959  13.650
39613W        W 6396   9.771  37.010  13.078
39614W        W 6397  14.515   1.783   2.114
39615W        W 6398  31.963  36.567   0.332
39616W        W 6399  44.602  13.558   1.673
39617W        W 6400  31.321  34.925  14.086
39618W        W 6401  34.114  37.953   4.437
39619W        W 6402  27.697  26.307   5.121
39620W        W 6403   0.474  25.304  11.841
39621W        W 6404  20.594  42.745  14.445
39622W        W 6405  27.135  26.176   0.673
39623W        W 6406   8.237  43.330   3.658
39624W        W 6407   3.347  28.285  14.372
39625W        W 6408   1.308   5.182  10.657
39626W        W 6409  39.990  12.679  12.910
39627W        W 6410  11.536  18.799  12.143
39628W        W 6411  41.656   5.647   1.691
39629W        W 6412  13.654  43.932   3.708
39630W        W 6413   0.921  13.596  14.995
39631W        W 6414  40.311   8.179  14.444
39632W        W 6415  18.199  42.553  11.279
39633W        W 6416  31.427  15.072  10.724
39634W        W 6417  26.655  30.711   3.418
39635W        W 6418  14.692  13.744  10.365
39636W        W 6419  25.412   4.661  14.187
39637W        W 6420  31.905  13.825  11.113
39638W        W 6421  14.782   1.991  13.015
39639W        W 6422  33.600   4.247  10.222
39640W        W 6423  39.567  31.776  13.615
39641W        W 6424  21.241   4.440   2.400
39642W        W 6425   5.323  24.506   0.454
39643W        W 6426  10.886  41.421  12.036
39644W        W 6427  26.486  18.104   2.601
39645W        W 6428   6.158   2.624   2.165
39646W        W 6429  19.744  29.100   3.108
39647W        W 6430  17.176   4.046  11.126
39648W        W 6431  25.904  13.471  12.508
39649W        W 6432  38.939  17.046   5.032
39650W        W 6433  29.470  35.098   0.957
39651W        W 6434  28.269  16.563  11.832
39652W        W 6435  20.777  34.028  12.136
39653W        W 6436  42.590  41.688  13.340
39654W        W 6437  44.878  16.680  13.738
39655W        W 6438  41.472  10.320  12.464
39656W        W 6439  19.059  44.491   4.125
39657W        W 6440   1.541  31.060   3.710
39658W        W 6441  15.709  26.143  10.713
39659W        W 6442  24.077  23.754  11.606
39660W        W 6443  30.612  22.746  12.523
39661W        W 6444  44.837  35.084  12.494
39662W        W 6445  16.843  10.086   4.140
39663W        W 6446  42.205  17.219   2.331
39664W        W 6447  28.695  24.774   4.564
39665W        W 6448  31.333  39.017  12.872
39666W        W 6449  25.012  27.040   4.960
39667W        W 6450  12.725  31.143  12.190
39668W        W 6451  30.251  29.292  12.640
39669W        W 6452  33.335  16.032  12.450
39670W        W 6453  40.341   3.958  11.077
39671W        W 6454  30.923  35.554  14.550
39672W        W 6455  40.081   9.336  14.857
39673W        W 6456  28.537  27.605  12.040
39674W        W 6457  23.517  32.025  12.536
39675W        W 6458  25.197  28.013   1.470
39676W        W 6459  32.938  29.185  12.953
39677W        W 6460  31.614  16.807  13.280
39678W        W 6461  36.972   9.283  14.890
39679W        W 6462  44.865  24.449   1.258
39680W        W 6463  13.962  16.540  13.386
39681W        W 6464  24.991  24.622   0.768
39682W        W 6465   9.152  24.838  10.716
39683W        W 6466   9.793  12.296  13.856
39684W        W 6467  22.246  33.594   4.744
39685W        W 6468  35.083  44.078  14.910
39686W        W 6469  18.039  23.214   1.769
39687W        W 6470  33.536  41.644  13.823
39688W        W 6471  13.130  42.860   2.169
39689W        W 6472  24.871   6.487  14.931
39690W        W 6473  41.338  36.928   0.837
39691W        W 6474   6.861  24.084   1.189
39692W        W 6475  11.667  20.066  12.503
39693W        W 6476  16.732  28.199   2.179
39694W        W 6477  34.389   6.323   0.042
39695W        W 6478  33.853  23.429   4.060
39696W        W 6479  15.700   9.449   4.138
39697W        W 6480  15.535   4.698  14.306
39698W        W 6481   3.640   2.592  12.067
39699W        W 6482  44.250  37.120   3.182
39700W        W 6483  43.071   0.221   2.581
39701W        W 6484  39.645  35.348   1.293
39702W        W 6485  30.668  39.971   0.066
39703W        W 6486  27.249   6.734   1.183
39704W        W 6487  40.892  35.766  12.040
39705W        W 6488   9.277  31.642  13.820
39706W        W 6489   1.906   3.500  12.594
39707W        W 6490  30.265  20.114  12.912
39708W        W 6491  25.483  40.944   0.828
39709W        W 6492  13.387  29.401   1.203
39710W        W 6493  29.907  10.238   2.804
39711W        W 6494  23.776  18.407   2.323
39712W        W 6495  30.012  36.524  13.817
39713W        W 6496  32.177  24.697  14.504
39714W        W 6497   0.515   6.863  13.157
39715W        W 6498  40.522  42.711  14.445
39716W        W 6499  12.323  38.296   2.785
39717W        W 6500  20.436  11.377   0.775
39718W        W 6501  26.919  25.222  11.994
39719W        W 6502  15.842   9.568   3.659
39720W        W 6503  37.401  24.610   4.536
39721W        W 6504  18.094   8.178   2.275
39722W        W 6505  12.763  22.054   4.155
39723W        W 6506  21.500  14.281   0.527
39724W        W 6507  27.559  39.624   1.805
39725W        W 6508   2.998  40.792  10.727
39726W        W 6509  36.594  19.300  11.546
39727W        W 6510  28.496  27.053   1.876
39728W        W 6511  24.739  16.006   0.358
39729W        W 6512  33.915  28.171   1.283
39730W        W 6513  27.128  38.119   0.506
39731W        W 6514   1.002  28.480   2.272
39732W        W 6515  44.290  43.030   3.784
39733W        W 6516   2.407  13.754  14.873
39734W        W 6517   1.841  43.074  13.316
39735W        W 6518  44.826  27.622   4.801
39736W        W 6519  27.904  43.079  14.435
39737W        W 6520   4.918   8.677   3.706
39738W        W 6521  42.376   5.681  10.352
39739W        W 6522  30.775  37.342  14.901
39740W        W 6523  24.523  17.455   0.051
39741W        W 6524  41.532  12.819  10.726
39742W        W 6525  13.358  31.440   2.636
39743W        W 6526  43.057  14.286  14.763
39744W        W 6527  19.648  16.330  11.338
39745W        W 6528  26.119   7.168   3.309
39746W        W 6529  16.314  20.636   0.021
39747W        W 6530  30.064  34.533  14.726
39748W        W 6531  25.172   3.562   4.619
39749W        W 6532  44.427  11.623   0.293
39750W        W 6533  39.463   6.173  14.783
39751W        W 6534  38.708   3.263   2.887
39752W        W 6535  39.858  28.759   0.724
39753W        W 6536  11.113  32.590  13.048
39754W        W 6537  33.904  18.900   2.237
39755W        W 6538  28.103  35.105  12.402
39756W        W 6539   1.405  11.728   2.221
39757W        W 6540  17.485  25.360   3.599
39758W        W 6541  31.137  35.540   1.798
39759W        W 6542  30.366  29.154   3.195
39760W        W 6543  20.893  36.084  13.264
39761W        W 6544  21.317   7.895   2.407
39762W        W 6545  14.359  36.131   4.601
39763W        W 6546  28.502  34.153  11.065
39764W        W 6547  17.137  26.610   1.769
39765W        W 6548  25.612  30.539   0.870
39766W        W 6549  25.981   1.159   3.208
39767W        W 6550  36.606  23.613  14.812
39768W        W 6551  43.543  13.168   9.878
39769W        W 6552   0.391  36.315   2.172
39770W        W 6553  25.156   9.288  12.369
39771W        W 6554  24.688   6.750   3.245
39772W        W 6555  25.972   6.929  12.574
39773W        W 6556  17.273  37.649  11.028
39774W        W 6557  13.380  10.911   2.885
39775W        W 6558   6.329   7.288   5.160
39776W        W 6559  43.868  26.408   2.359
39777W        W 6560   1.446  24.159  13.393
39778W        W 6561   0.255  34.771   4.282
39779W        W 6562   2.759  13.228   0.127
39780W        W 6563  17.326  19.519  12.064
39781W        W 6564  17.717  42.946  12.050
39782W        W 6565  43.246   2.030   1.400
39783W        W 6566   3.353   8.189   4.708
39784W        W 6567  30.236  42.972  14.324
39785W        W 6568   2.385  21.897   4.631
39786W        W 6569  41.249  22.194   3.588
39787W        W 6570   2.892  15.831   2.320
39788W        W 6571  39.591   2.791  11.025
39789W        W 6572   9.366  32.058  11.640
39790W        W 6573   5.080  37.380   3.570
39791W        W 6574   4.236   5.646   3.687
39792W        W 6575  27.987  39.099  14.476
39793W        W 6576  13.075  32.622  14.053
39794W        W 6577  20.774  15.760   4.140
39795W        W 6578  33.687  39.898  13.842
39796W        W 6579   0.558  33.597  13.977
39797W        W 6580   6.851  23.118  11.118
39798W        W 6581  20.457  15.187   0.395
39799W        W 6582  26.184   8.262  12.213
39800W        W 6583   9.765  16.220   0.004
39801W        W 6584  39.076  44.386   1.788
39802W        W 6585   5.163  24.798  12.416
39803W        W 6586   0.734  35.080  12.510
39804W        W 6587  28.685  15.252  11.960
39805W        W 6588  29.744   9.596  11.567
39806W        W 6589  26.701   9.599  14.213
39807W        W 6590  36.831  17.773   3.233
39808W        W 6591  10.765  42.739  12.063
39809W        W 6592  22.026  39.788   2.138
39810W        W 6593  33.522   3.263  13.039
39811W        W 6594  31.049  36.662   0.931
39812W        W 6595  18.145  26.636  13.347
39813W        W 6596  28.692  29.490   0.810
39814W        W 6597  39.025  28.324  11.042
39815W        W 6598  36.303  41.223  14.946
39816W        W 6599  18.266   2.720   0.902
39817W        W 6600   7.231  36.997   2.648
39818W        W 6601  32.459  11.266   3.412
39819W        W 6602  22.329   9.178  13.295
39820W        W 6603  17.607  26.608  12.006
39821W        W 6604   0.944  24.758  12.177
39822W        W 6605   1.286   1.209  12.001
39823W        W 6606   7.717  20.970  10.736
39824W        W 6607  12.355  32.442   4.668
39825W        W 6608  20.438  29.208  11.202
39826W        W 6609   9.138  17.160  10.524
39827W        W 6610   3.859   4.311   1.171
39828W        W 6611   0.101  15.759   5.020
39829W        W 6612  19.679   9.669  13.091
39830W        W 6613  21.577  29.644   0.671
39831W        W 6614   6.468  11.370  13.854
39832W        W 6615  31.478   7.022  11.406
39833W        W 6616  39.085  12.112   3.370
39834W        W 6617  43.429  12.194  13.094
39835W        W 6618   1.980  43.962   3.293
39836W        W 6619  10.365  42.178   9.969
39837W        W 6620  30.175  33.259  12.478
39838W        W 6621  33.880  18.909  10.687
39839W        W 6622   6.000  25.735   0.461
39840W        W 6623   3.191  34.337   1.073
39841W        W 6624  43.549  33.925  11.171
39842W        W 6625  36.835  43.729   0.346
39843W        W 6626  26.468  40.516  14.997
39844W        W 6627   4.893  34.887   1.544
39845W        W 6628  13.774  26.903  11.683
39846W        W 6629   7.475  18.296   2.736
39847W        W 6630   3.624  24.842  11.693
39848W        W 6631   2.865  22.653   4.240
39849W        W 6632   8.869  14.574  10.456
39850W        W 6633  25.887   6.129  14.340
39851W        W 6634  21.196  40.396  13.726
39852W        W 6635  35.929  31.339  14.194
39853W        W 6636  30.872   2.150  11.071
39854W        W 6637  38.336  29.356   1.798
39855W        W 6638   4.146   8.532   4.263
39856W        W 6639   8.313  25.004  13.535
39857W        W 6640  30.606  39.019  12.651
39858W        W 6641  36.117  31.527   2.679
39859W        W 6642   2.352   9.234  14.771
39860W        W 6643  25.394  29.454  14.368
39861W        W 6644   9.614  15.607   4.037
39862W        W 6645  37.866  44.209  14.324
39863W        W 6646  21.729   8.237   0.788
39864W        W 6647  25.995  12.191   4.711
39865W        W 6648  11.751   2.158  12.529
39866W        W 6649   2.780  20.087   4.170
39867W        W 6650   0.918  43.051   4.169
39868W        W 6651  44.861   5.151   4.088
39869W        W 6652  17.029  12.243   2.789
39870W        W 6653  12.660   4.741  10.638
39871W        W 6654  44.226  20.255  12.041
39872W        W 6655  35.840   0.465  10.669
39873W        W 6656  42.253  15.431  11.989
39874W        W 6657  41.471  41.510  12.007
39875W        W 6658   1.043   6.751   1.283
39876W        W 6659   7.740  22.249   3.928
39877W        W 6660   2.247  31.881  13.002
39878W        W 6661  25.133  41.535   2.656
39879W        W 6662  39.412   7.653  13.130
39880W        W 6663  32.562  10.710  11.963
39881W        W 6664  14.720   0.999   4.011
39882W        W 6665  15.330  42.303   3.343
39883W        W 6666  34.634  32.325   1.251
39884W        W 6667  36.126  17.108   4.104
39885W        W 6668  10.174  15.636   1.815
39886W        W 6669  24.454  29.573   1.325
39887W        W 6670  18.099  19.717   2.779
39888W        W 6671  23.921   3.273   1.349
39889W        W 6672  28.998  16.500   0.481
39890W        W 6673  44.660  25.555  14.430
39891W        W 6674   7.146   2.696  12.619
39892W        W 6675  23.464  16.283  10.746
39893W        W 6676   8.494  14.252   0.891
39894W        W 6677   0.713  10.428   2.339
39895W        W 6678  29.380  38.318  11.056
39896W        W 6679   6.509   8.618  14.818
39897W        W 6680  43.052  17.676   2.428
39898W        W 6681  11.553  42.858   9.897
39899W        W 6682   0.547  43.054  13.484
39900W        W 6683  29.113  31.444  14.879
39901W        W 6684  18.057  44.299  14.874
39902W        W 6685  23.756  36.316   2.836
39903W        W 6686  38.170   5.440   3.632
39904W        W 6687  14.238  40.017   0.230
39905W        W 6688  31.479  10.111   0.874
39906W        W 6689  33.041  29.666  12.814
39907W        W 6690  16.576  32.235  10.570
39908W        W 6691   1.379  22.075  12.012
39909W        W 6692  30.917  41.562  14.298
39910W        W 6693  25.286  16.543   4.600
39911W        W 6694  43.292   6.765  14.946
39912W        W 6695  28.183  26.731   3.138
39913W        W 6696  27.595  18.179  11.139
39914W        W 6697  14.691  15.890   1.284
39915W        W 6698  43.863  23.983   0.715
39916W        W 6699  14.015  18.302   3.273
39917W        W 6700  15.191  12.417   4.889
39918W        W 6701  22.758   4.293  12.007
39919W        W 6702   2.627  43.999  11.997
39920W        W 6703  28.250  25.060   1.351
39921W        W 6704  26.545   9.011   2.192
39922W        W 6705  42.983  12.027   1.325
39923W        W 6706   1.405  18.360   1.800
39924W        W 6707  17.858  22.590   2.357
39925W        W 6708  30.960   7.706  14.778
39926W        W 6709  41.382  28.150  12.036
39927W        W 6710  10.837  11.177  12.769
39928W        W 6711  12.778  39.646  10.513
39929W        W 6712  15.651   7.585  10.237
39930W        W 6713   9.654   6.929  10.714
39931W        W 6714  38.806  11.240   1.316
39932W        W 6715  28.434   0.662   4.260
39933W        W 6716   6.266   6.250  11.229
39934W        W 6717   9.672  38.589   1.829
39935W        W 6718  28.603   6.347  12.561
39936W        W 6719  34.351  38.802   0.952
39937W        W 6720   0.241  30.954  11.510
39938W        W 6721  43.998  17.130   4.140
39939W        W 6722  16.923   5.932   9.780
39940W        W 6723  21.634  38.220   3.307
39941W        W 6724  29.972   1.028  14.581
39942W        W 6725  14.820   8.903  14.717
39943W        W 6726   8.739  10.301   2.111
39944W        W 6727  37.071  28.122   2.222
39945W        W 6728  14.643  22.855  11.195
39946W        W 6729  35.031   4.619  13.252
39947W        W 6730  24.105  23.569   1.132
39948W        W 6731  27.445  34.126   1.314
39949W        W 6732  27.102  19.786   2.622
39950W        W 6733  40.818   8.402  11.990
39951W        W 6734   0.297  34.650   3.771
39952W        W 6735  43.529  10.585   4.611
39953W        W 6736  30.093  44.291  12.533
39954W        W 6737  36.422  38.454   3.256
39955W        W 6738  34.992   1.272   1.927
39956W        W 6739  16.997   0.291   2.648
39957W        W 6740  33.526  35.436  11.046
39958W        W 6741   8.201  40.092  14.056
39959W        W 6742  18.450  32.415  11.437
39960W        W 6743  33.593  24.670  14.364
39961W        W 6744  27.169  10.892   3.631
39962W        W 6745  34.340  23.072  11.428
39963W        W 6746  44.850  13.923  11.444
39964W        W 6747  44.891  25.511   2.272
39965W        W 6748  15.254  23.625  12.115
39966W        W 6749  10.298   1.009  13.609
39967W        W 6750  23.711  20.282  12.499
39968W        W 6751  34.920  28.895   3.846
39969W        W 6752  38.704  13.628  11.521
39970W        W 6753  16.642  19.930  10.945
39971W        W 6754  20.190  21.197   0.820
39972W        W 6755  23.358  23.891  13.436
39973W        W 6756  30.247  37.263  13.367
39974W        W 6757  14.915  40.050  13.401
39975W        W 6758   6.364  37.739  10.802
39976W        W 6759  17.601  39.284   2.669
39977W        W 6760  42.553  38.275  13.531
39978W        W 6761  11.774  15.362  12.016
39979W        W 6762  35.243   9.887   2.578
39980W        W 6763  33.435  19.008  12.712
39981W        W 6764   7.121  19.800  13.389
39982W        W 6765  33.244  44.338  12.821
39983W        W 6766  26.370  26.963  12.068
39984W        W 6767  18.534  38.941  12.537
39985W        W 6768   5.434  41.466  12.058
39986W        W 6769  44.278  15.027  13.704
39987W        W 6770  28.483  44.851   1.310
39988W        W 6771  27.172   5.294   2.460
39989W        W 6772   6.322  16.632  12.799
39990W        W 6773  35.027   3.526   3.831
39991W        W 6774  24.130  15.272   1.413
39992W        W 6775  27.472  20.913   4.225
39993W        W 6776  37.253   9.821  11.448
39994W        W 6777  38.609  20.416  11.617
39995W        W 6778  42.798   6.568  10.315
39996W        W 6779  37.103  10.911  13.861
39997W        W 6780  44.345  16.513   3.655
39998W        W 6781   6.746  30.434   0.771
39999W        W 6782  27.201  13.830   3.966
40000W        W 6783  28.730  34.317   1.549
40001W        W 6784  27.886  14.211   1.349
40002W        W 6785  11.439  31.993   0.366
40003W        W 6786   4.772  15.694   1.285
40004W        W 6787  28.578  13.925   2.349
40005W        W 6788   7.816  35.665  11.623
40006W        W 6789  37.529  18.523   1.380
40007W        W 6790   7.714  44.803  13.653
40008W        W 6791  27.712   2.212  10.916
40009W        W 6792  21.014  10.176   4.227
40010W        W 6793  14.615  29.519  11.627
40011W        W 6794  28.090  29.466  11.909
40012W        W 6795   4.804   2.655  13.381
40013W        W 6796  20.698  28.558  12.350
40014W        W 6797  14.691  29.731  14.924
40015W        W 6798  12.910  12.253   1.398
40016W        W 6799  15.111  15.756  10.092
40017W        W 6800  39.987  38.294   1.397
40018W        W 6801   6.723  12.206   4.182
40019W        W 6802  13.245  29.964   2.396
40020W        W 6803   2.515   8.701   5.173
40021W        W 6804  14.044  11.586  13.395
40022W        W 6805   5.925  37.281  11.709
40023W        W 6806  20.099   6.017  14.137
40024W        W 6807   6.248  18.972   0.959
40025W        W 6808  14.315  14.342   1.361
40026W        W 6809  12.133  41.936  12.884
40027W        W 6810  15.993  37.285   2.748
40028W        W 6811  40.394   4.598   4.560
40029W        W 6812  31.742  34.270  10.312
40030W        W 6813  14.716  42.559  12.319
40031W        W 6814  16.290  32.973   3.147
40032W        W 6815  15.371  42.496  13.574
40033W        W 6816  40.472  30.461   3.421
40034W        W 6817   6.661   5.271   2.304
40035W        W 6818  43.482   6.030   5.426
40036W        W 6819  27.262  18.944  11.770
40037W        W 6820  34.334  31.919   2.744
40038W        W 6821  19.657  40.917   1.526
40039W        W 6822  35.859  15.756  13.967
40040W        W 6823  38.138   6.108  11.659
40041W        W 6824  13.195  21.155   1.409
40042W        W 6825  28.001  28.143   0.324
40043W        W 6826   4.298  22.507   0.967
40044W        W 6827  28.226  42.118   3.980
40045W        W 6828  24.119  31.985   2.139
40046W        W 6829  38.096   3.135  14.302
40047W        W 6830  33.456   8.631  13.937
40048W        W 6831  33.942  31.917   0.150
40049W        W 6832  17.255   8.276   4.178
40050W        W 6833   6.836  33.094   1.074
40051W        W 6834  41.792  30.006   4.191
40052W        W 6835   2.004  25.522   3.380
40053W        W 6836  18.286  24.712   1.830
40054W        W 6837   2.539  31.639   4.279
40055W        W 6838   2.973  16.588  12.498
40056W        W 6839  37.824  28.469  10.620
40057W        W 6840  38.069  19.979  10.507
40058W        W 6841   3.018  27.031  14.794
40059W        W 6842  43.398  36.833  11.075
40060W        W 6843   4.328  10.326  11.559
40061W        W 6844  22.497  26.599   1.936
40062W        W 6845  38.104  37.465  12.008
40063W        W 6846  21.239   6.423   4.433
40064W        W 6847  41.487  42.097  10.803
40065W        W 6848  21.675   8.138  11.564
40066W        W 6849   5.748   4.410  10.711
40067W        W 6850  42.279  30.463   3.496
40068W        W 6851  15.391  43.428   2.102
40069W        W 6852  36.196  20.538   1.964
40070W        W 6853   7.457  43.802   3.686
40071W        W 6854   9.240  42.094  11.558
40072W        W 6855  40.098  16.664  11.430
40073W        W 6856  32.997   9.810   0.443
40074W        W 6857  42.394  43.653   1.224
40075W        W 6858  27.672   6.229   0.542
40076W        W 6859  28.074   9.251  14.661
40077W        W 6860  44.769  35.179   2.698
40078W        W 6861  33.308  23.190   4.577
40079W        W 6862  23.991  18.452   1.468
40080W        W 6863  44.343  12.391   1.443
40081W        W 6864  24.653  36.609   1.595
40082W        W 6865  28.003  11.530   1.695
40083W        W 6866  22.935  35.529   1.761
40084W        W 6867   3.792   7.550   0.309
40085W        W 6868  10.134  25.723  11.379
40086W        W 6869  35.832   9.654   4.720
40087W        W 6870  29.648   0.897  12.682
40088W        W 6871  25.461  43.712  11.073
40089W        W 6872   8.458  29.227  12.551
40090W        W 6873  29.761  31.665   4.604
40091W        W 6874   2.262  43.750   1.896
40092W        W 6875  33.472   6.279   1.810
40093W        W 6876  10.758  36.548   2.870
40094W        W 6877   9.531  39.494   2.273
40095W        W 6878  34.834   6.964   4.462
40096W        W 6879  17.554   2.325  14.047
40097W        W 6880  28.067  42.785   1.482
40098W        W 6881  36.289  19.872  10.713
40099W        W 6882  43.918  32.442   4.323
40100W        W 6883  14.721  15.245  11.664
40101W        W 6884   8.486  17.584   2.315
40102W        W 6885  19.462  18.103   3.343
40103W        W 6886  27.727  34.865   1.756
40104W        W 6887   7.420  13.040  11.151
40105W        W 6888   3.376  18.576   1.226
40106W        W 6889  38.270   3.205  12.080
40107W        W 6890   2.694   1.044   1.652
40108W        W 6891   6.322   3.618  14.675
40109W        W 6892   3.681  19.694  13.487
40110W        W 6893   3.761  42.446  13.307
40111W        W 6894  17.985  32.462   3.273
40112W        W 6895  28.072  10.500   4.766
40113W        W 6896  30.819  19.153  11.141
40114W        W 6897   1.313   3.172   4.980
40115W        W 6898  30.313  28.443   4.890
40116W        W 6899  29.457   7.753   4.631
40117W        W 6900  33.182  25.305  10.555
40118W        W 6901  40.351  22.218  14.407
40119W        W 6902  38.415  30.445   1.779
40120W        W 6903  32.858  43.443  14.826
40121W        W 6904  32.733  43.792  12.472
40122W        W 6905  40.475  18.683   4.636
40123W        W 6906  42.886   5.958  13.509
40124W        W 6907  43.465   8.672   2.079
40125W        W 6908   8.607  34.473   2.899
40126W        W 6909   1.704  26.039   4.515
40127W        W 6910  32.893   5.705   4.028
40128W        W 6911  28.973  42.793  13.539
40129W        W 6912  39.989  10.443   3.724
40130W        W 6913  40.932  32.140   3.573
40131W        W 6914   0.332  31.058  10.678
40132W        W 6915  31.165   6.131  12.395
40133W        W 6916  19.856  42.213   4.248
40134W        W 6917  18.984  10.944  13.076
40135W        W 6918   0.534   6.870   1.350
40136W        W 6919  38.998   3.659  10.074
40137W        W 6920   5.434  28.522   1.479
40138W        W 6921  38.877  23.202  10.306
40139W        W 6922   5.317  19.540   4.699
40140W        W 6923   7.499  18.112  12.433
40141W        W 6924  32.910   2.149   2.889
40142W        W 6925  27.542  41.657   5.429
40143W        W 6926  18.182  25.588  11.186
40144W        W 6927  17.921  37.423   4.073
40145W        W 6928  24.280  40.971   0.349
40146W        W 6929  39.581  14.404   1.192
40147W        W 6930  31.365  22.009  12.049
40148W        W 6931   5.816  39.845   1.504
40149W        W 6932  25.549  24.135  11.979
40150W        W 6933  39.699  14.880   1.346
40151W        W 6934  33.187  41.333  12.611
40152W        W 6935  32.071  22.579   4.159
40153W        W 6936  27.622  33.178  12.942
40154W        W 6937  31.504  26.508   0.517
40155W        W 6938  18.740  29.428  11.540
40156W        W 6939  38.012  34.393   3.724
40157W        W 6940   4.658  18.497   1.527
40158W        W 6941  24.806  31.050   3.320
40159W        W 6942  25.393  19.568   1.251
40160W        W 6943  16.755  41.464  10.739
40161W        W 6944  18.986  15.752   2.417
40162W        W 6945  31.224   7.712   1.029
40163W        W 6946  24.824   1.494  13.467
40164W        W 6947  21.656   3.491  11.923
40165W        W 6948  28.861  40.462  10.800
40166W        W 6949  28.474  29.372   0.364
40167W        W 6950   9.111  27.349  11.078
40168W        W 6951  17.844  22.561   3.322
40169W        W 6952  29.020  28.610  10.432
40170W        W 6953  21.801   2.508  13.404
40171W        W 6954  31.140  15.569  13.305
40172W        W 6955  23.434   1.500  10.999
40173W        W 6956  11.214  37.629   2.268
40174W        W 6957  28.182  22.288   2.671
40175W        W 6958  16.767   9.265   3.596
40176W        W 6959  20.419   3.248  12.420
40177W        W 6960  22.798  19.818   0.310
40178W        W 6961  31.669  40.193  13.472
40179W        W 6962  11.164  32.963  11.114
40180W        W 6963  37.989  14.406   2.732
40181W        W 6964   5.375  38.929  10.777
40182W        W 6965   9.427  18.690   0.816
40183W        W 6966  43.444  31.568   0.169
40184W        W 6967  11.109  27.160   2.295
40185W        W 6968  44.554  44.531  13.998
40186W        W 6969  11.902  37.963   1.262
40187W        W 6970  40.844  32.200  14.841
40188W        W 6971  36.059  10.231   2.317
40189W        W 6972  37.447   8.697   1.336
40190W        W 6973  38.490  23.874  10.719
40191W        W 6974   0.838  36.149  10.055
40192W        W 6975   4.285  35.954  12.190
40193W        W 6976  34.786   6.898   1.281
40194W        W 6977  33.070   2.993   4.758
40195W        W 6978  31.457   1.137  12.937
40196W        W 6979  39.881  31.921  10.852
40197W        W 6980  10.305  40.430  13.772
40198W        W 6981  44.465  20.032   2.383
40199W        W 6982  24.551  33.265   1.413
40200W        W 6983   5.898   5.660   1.926
40201W        W 6984  14.055  22.622   1.736
40202W        W 6985  18.092  28.221  11.358
40203W        W 6986  42.034  16.226   2.910
40204W        W 6987   7.640  12.605   0.909
40205W        W 6988  41.003  13.277   3.553
40206W        W 6989  30.558  14.694  14.726
40207W        W 6990   3.541   3.352   3.309
40208W        W 6991  24.076   2.737  14.334
40209W        W 6992  15.202  44.061  12.212
40210W        W 6993  38.105  18.683  13.143
40211W        W 6994   3.674  13.951   0.186
40212W        W 6995  39.771  13.288   3.042
40213W        W 6996   1.484   5.853  11.546
40214W        W 6997  32.682  42.641  13.735
40215W        W 6998   0.997  21.995  12.415
40216W        W 6999  18.814  12.771  14.704
40217W        W 7000   2.845  41.356   1.454
40218W        W 7001  32.062  15.567   2.702
40219W        W 7002  11.143  20.257   1.208
40220W        W 7003  34.068  17.381   3.890
40221W        W 7004  31.467   3.281  14.028
40222W        W 7005   0.736  13.276   4.693
40223W        W 7006  22.628  40.778  14.850
40224W        W 7007  34.918   3.557  13.060
40225W        W 7008  24.326  11.369   2.869
40226W        W 7009  20.923  29.819  12.369
40227W        W 7010   2.999  27.427   1.376
40228W        W 7011  38.786   8.945   0.811
40229W        W 7012  42.351  41.540   2.276
40230W        W 7013   7.866  24.643  11.911
40231W        W 7014  26.180  30.115   1.396
40232W        W 7015   5.002   3.410  12.009
40233W        W 7016  40.384  15.513   3.193
40234W        W 7017   4.788  33.324   3.492
40235W        W 7018  32.473  19.760  11.978
40236W        W 7019  13.193  36.843  14.546
40237W        W 7020  18.687  41.259  13.478
40238W        W 7021  20.291   0.082  11.070
40239W        W 7022  17.384  27.125   0.282
40240W        W 7023  24.701   6.220   3.314
40241W        W 7024   6.442  22.105   2.307
40242W        W 7025   1.884  28.439   4.508
40243W        W 7026  11.628  24.084   4.522
40244W        W 7027  27.928  21.536  11.986
40245W        W 7028  34.985  27.776   1.555
40246W        W 7029  16.708   1.386   3.802
40247W        W 7030  22.687  12.240  12.055
40248W        W 7031  35.450   1.239   3.113
40249W        W 7032   6.766  14.877   3.572
40250W        W 7033  38.645   4.332   2.009
40251W        W 7034   7.317  36.908  12.647
40252W        W 7035   6.230  18.342  13.413
40253W        W 7036  18.940  38.071   0.779
40254W        W 7037   9.082  30.954  11.598
40255W        W 7038  11.668  44.743  13.946
40256W        W 7039  28.437  33.887   1.499
40257W        W 7040  34.117  31.825  14.660
40258W        W 7041  18.507   1.549  10.225
40259W        W 7042   9.472   6.558   1.179
40260W        W 7043   2.406  29.347   1.720
40261W        W 7044  36.483  21.987   4.119
40262W        W 7045  13.850  30.640   4.688
40263W        W 7046  31.020   0.757   4.124
40264W        W 7047  20.671   0.026  12.298
40265W        W 7048  35.607  11.708   2.202
40266W        W 7049  17.587  10.191   1.473
40267W        W 7050  29.871  26.047  12.928
40268W        W 7051   4.483  32.875   2.204
40269W        W 7052  40.335   5.485   0.906
40270W        W 7053  38.770  17.719  11.990
40271W        W 7054  39.355  34.051  13.573
40272W        W 7055   0.465   2.706  12.031
40273W        W 7056   9.701  20.180  14.353
40274W        W 7057  17.338  31.934   2.828
40275W        W 7058  42.043   4.749   2.803
40276W        W 7059  40.803  33.355   4.252
40277W        W 7060  12.100  43.067   4.062
40278W        W 7061   6.213  16.181  13.018
40279W        W 7062  37.943  38.113  13.599
40280W        W 7063  29.608  37.615   0.323
40281W        W 7064   2.339  26.381   2.940
40282W        W 7065   5.730  25.573  13.106
40283W        W 7066  25.505  43.354   2.702
40284W        W 7067  11.231  20.156   4.652
40285W        W 7068  44.280  42.942  12.999
40286W        W 7069  11.631  13.469  13.507
40287W        W 7070  20.022  19.316  11.978
40288W        W 7071   6.810  36.916   1.235
40289W        W 7072  44.930  33.693  11.615
40290W        W 7073  12.706  43.841   1.254
40291W        W 7074   2.305  22.890   2.344
40292W        W 7075  23.720  23.634  12.601
40293W        W 7076   8.772  19.800  14.312
40294W        W 7077  17.404   8.908   2.326
40295W        W 7078   8.231  29.129  13.007
40296W        W 7079   7.896  29.235  11.305
40297W        W 7080   3.356  13.647   3.319
40298W        W 7081  34.540  35.147  12.282
40299W        W 7082   8.784  12.437  10.732
40300W        W 7083  31.066  29.833   1.099
40301W        W 7084  16.808  39.090  12.914
40302W        W 7085  36.935  41.572  10.707
40303W        W 7086   8.224  13.609   0.169
40304W        W 7087  22.734   4.059   1.955
40305W        W 7088  43.317   9.719   4.634
40306W        W 7089  22.086  30.438   0.900
40307W        W 7090  27.489   1.180   2.759
40308W        W 7091  27.558  15.710   3.650
40309W        W 7092  21.096   4.962  12.987
40310W        W 7093  27.000   6.107  11.624
40311W        W 7094  43.012  26.169   2.177
40312W        W 7095  23.065  29.915  14.885
40313W        W 7096   1.296  31.814   4.620
40314W        W 7097  17.670  38.592   2.147
40315W        W 7098   8.313  26.105  13.269
40316W        W 7099  31.476  43.330   1.039
40317W        W 7100  41.433  27.395  11.439
40318W        W 7101  19.544   6.741   4.668
40319W        W 7102   2.053  21.893   3.756
40320W        W 7103   2.217  29.990  13.880
40321W        W 7104  27.183  27.053   4.011
40322W        W 7105  36.054   1.446   2.319
40323W        W 7106  31.264   0.931  10.681
40324W        W 7107  43.637  22.189  13.616
40325W        W 7108   8.569   9.785  14.265
40326W        W 7109  35.811   3.001   2.012
40327W        W 7110  29.575  42.345   1.082
40328W        W 7111  43.307  35.496  14.506
40329W        W 7112  30.304  42.625   3.683
40330W        W 7113  44.767  16.615  11.987
40331W        W 7114  14.327  41.615  12.011
40332W        W 7115  27.032  15.674   2.414
40333W        W 7116  27.508  13.649   3.213
40334W        W 7117  42.989  44.564   4.230
40335W        W 7118  36.055  38.719   0.647
40336W        W 7119   4.291  18.783   2.491
40337W        W 7120  12.597  12.595  12.998
40338W        W 7121  44.002  18.274  10.722
40339W        W 7122   3.015   9.375  10.672
40340W        W 7123  42.574  32.458  11.317
40341W        W 7124   6.379  33.494  14.775
40342W        W 7125  30.942  35.038  11.037
40343W        W 7126  30.453  12.098  11.574
40344W        W 7127  39.289  18.118  13.014
40345W        W 7128  22.471  13.077   0.868
40346W        W 7129  28.626  44.875  14.185
40347W        W 7130  32.066  18.487   2.360
40348W        W 7131  22.084  22.468  12.845
40349W        W 7132  21.666  32.317  11.198
40350W        W 7133  24.120  12.969  13.716
40351W        W 7134  38.480  19.181   1.940
40352W        W 7135  34.528   0.171  13.054
40353W        W 7136   8.599  27.397   4.691
40354W        W 7137  40.031   1.761   0.173
40355W        W 7138  18.521   9.244   3.639
40356W        W 7139  37.292   1.933   2.403
40357W        W 7140  25.975  38.382  12.725
40358W        W 7141  38.435   7.896   3.020
40359W        W 7142  33.307   9.919   4.453
40360W        W 7143  30.495  12.443   3.729
40361W        W 7144  13.510  28.002   0.935
40362W        W 7145   5.980  16.173  12.517
40363W        W 7146  19.673   8.650   4.620
40364W        W 7147  30.270  36.403   3.782
40365W        W 7148  13.591  28.084   4.909
40366W        W 7149  39.910  13.920   2.361
40367W        W 7150  38.255  41.791   4.577
40368W        W 7151   5.549   2.839   3.252
40369W        W 7152   9.730  28.970   0.473
40370W        W 7153  34.831  16.381  14.959
40371W        W 7154  25.263  19.421  11.636
40372W        W 7155  19.311  44.844   1.911
40373W        W 7156  10.799  28.462  10.611
40374W        W 7157  31.646  35.805   0.430
40375W        W 7158  22.630  18.658  10.388
40376W        W 7159  37.761  13.770   2.325
40377W        W 7160  39.104  28.996   3.802
40378W        W 7161  12.922   1.420   1.150
40379W        W 7162  41.485  13.874  11.571
40380W        W 7163  41.942  11.603   0.877
40381W        W 7164  13.841   6.298   4.316
40382W        W 7165  21.963  35.085   0.024
40383W        W 7166  40.044  39.309   1.221
40384W        W 7167  35.052  22.955  13.769
40385W        W 7168  23.207   0.788  14.892
40386W        W 7169  13.556   3.490  13.855
40387W        W 7170  37.578  30.011   3.743
40388W        W 7171  25.378  43.614   4.210
40389W        W 7172  33.161  35.942   3.316
40390W        W 7173  32.204  44.853   2.787
40391W        W 7174  37.848   1.788  13.828
40392W        W 7175   9.401  44.484   2.137
40393W        W 7176  37.904  19.069   4.617
40394W        W 7177  39.713  17.679  10.675
40395W        W 7178  13.596   8.895  13.560
40396W        W 7179  16.676  38.279   3.781
40397W        W 7180  44.960  19.754   4.056
40398W        W 7181   8.281  18.033   3.158
40399W        W 7182  12.099  20.014  11.119
40400W        W 7183  41.812  26.676   0.300
40401W        W 7184   5.716  30.421  13.727
40402W        W 7185  26.640   8.919  12.674
40403W        W 7186  36.565  27.855  13.443
40404W        W 7187  10.799  30.175   0.499
40405W        W 7188  35.835   5.485   4.153
40406W        W 7189  32.629  10.161  11.535
40407W        W 7190  14.119  21.275   2.477
40408W        W 7191  15.650  41.873  13.928
40409W        W 7192  11.082  19.677  11.776
40410W        W 7193  12.898  40.785  13.446
40411W        W 7194  22.188  20.192  12.654
40412W        W 7195   9.672  38.849  12.421
40413W        W 7196  32.519  16.111   4.535
40414W        W 7197  11.361  34.383   0.376
40415W        W 7198  20.126  35.345  13.024
40416W        W 7199  33.755  38.013   4.094
40417W        W 7200  17.902  21.366   1.854
40418W        W 7201  34.993  26.091   4.600
40419W        W 7202  14.408  40.970  13.509
40420W        W 7203  20.032  25.748  13.973
40421W        W 7204  40.594  33.775  13.083
40422W        W 7205  39.213   4.303  13.512
40423W        W 7206  39.051  27.283   2.142
40424W        W 7207  28.481  31.758   2.853
40425W        W 7208  42.447   7.013  11.009
40426W        W 7209  10.800  28.781  12.035
40427W        W 7210   6.258  13.638  10.525
40428W        W 7211  19.677   2.152   3.825
40429W        W 7212  11.931  27.917  12.874
40430W        W 7213  20.491  12.049   2.482
40431W        W 7214  16.835  32.416  13.340
40432W        W 7215  13.268   6.436   2.923
40433W        W 7216  41.915  14.785  14.187
40434W        W 7217  24.632   5.762  11.813
40435W        W 7218  37.295  22.338   0.948
40436W        W 7219  26.003  14.120  11.042
40437W        W 7220  13.400  40.799  13.487
40438W        W 7221   8.203  17.528  12.990
40439W        W 7222   7.085  31.322  14.927
40440W        W 7223  43.933  22.316   2.774
40441W        W 7224  12.223  16.199   2.248
40442W        W 7225  23.973  35.952   2.495
40443W        W 7226  24.903  15.340   3.822
40444W        W 7227  36.929  18.781  13.332
40445W        W 7228  40.820  18.511  10.745
40446W        W 7229  36.943  39.996  10.789
40447W        W 7230  25.603   1.383   3.903
40448W        W 7231  42.441  39.070   2.325
40449W        W 7232  19.509   0.431   3.867
40450W        W 7233   2.173  18.463  12.474
40451W        W 7234  21.269  36.639   1.806
40452W        W 7235  42.365  16.775   3.525
40453W        W 7236  18.503   8.860  10.290
40454W        W 7237  13.348  19.670   1.905
40455W        W 7238  31.493  33.932   3.393
40456W        W 7239  27.981  42.025   3.054
40457W        W 7240  10.325  30.922  12.549
40458W        W 7241  10.932  27.703  13.863
40459W        W 7242  42.103  19.096  11.652
40460W        W 7243  21.217  33.289   2.096
40461W        W 7244  15.732  24.517  14.004
40462W        W 7245  21.006   5.041   1.513
40463W        W 7246  26.958  38.318   4.075
40464W        W 7247  18.264  18.555  10.651
40465W        W 7248  41.400  14.740  11.945
40466W        W 7249  37.925  12.154  13.813
40467W        W 7250  23.985  42.266  11.198
40468W        W 7251  34.938  25.334  13.882
40469W        W 7252   0.409  28.886  11.190
40470W        W 7253  38.979  34.342  12.580
40471W        W 7254  35.488  20.741  14.421
40472W        W 7255   9.591  22.135   4.637
40473W        W 7256  28.509  20.734  10.716
40474W        W 7257   3.965  30.159   0.967
40475W        W 7258  21.171  19.770   2.261
40476W        W 7259  38.862   0.736   3.894
40477W        W 7260  33.055  14.558   2.311
40478W        W 7261  42.095  17.729   1.210
40479W        W 7262  15.585   4.668  12.478
40480W        W 7263  18.307  17.814  12.784
40481W        W 7264  13.623  43.901  12.842
40482W        W 7265   7.784  33.434  10.743
40483W        W 7266  11.294   9.432   5.233
40484W        W 7267  35.470  27.603   2.614
40485W        W 7268  17.027   6.442   4.577
40486W        W 7269  13.703  14.750   1.929
40487W        W 7270  20.455  29.929   4.684
40488W        W 7271   2.337   8.163  10.762
40489W        W 7272  30.974  25.632   0.482
40490W        W 7273  11.390  29.608  12.422
40491W        W 7274  34.759  27.196  11.629
40492W        W 7275   5.389   2.965  11.827
40493W        W 7276  20.174  30.461  13.561
40494W        W 7277   1.792  10.619   0.499
40495W        W 7278   0.547   3.879  13.975
40496W        W 7279  30.187   2.911  14.417
40497W        W 7280  17.662  29.065  10.725
40498W        W 7281  37.054   1.318  11.293
40499W        W 7282  42.604  34.015  12.087
40500W        W 7283  40.256  22.159   4.143
40501W        W 7284  38.223  42.389  12.858
40502W        W 7285  14.504   3.422  13.145
40503W        W 7286  36.042   5.709   1.751
40504W        W 7287  30.135   6.354   3.631
40505W        W 7288   3.991  33.434   2.011
40506W        W 7289   7.925   3.119  11.049
40507W        W 7290  12.167  23.138  12.259
40508W        W 7291  16.819  43.524  11.518
40509W        W 7292   0.900  40.570  13.824
40510W        W 7293  13.111   4.895   3.206
40511W        W 7294  15.567  15.092   3.413
40512W        W 7295  14.770  43.084   3.800
40513W        W 7296  42.405  35.983   3.871
40514W        W 7297  38.988   7.950   3.761
40515W        W 7298  34.328  20.264   3.668
40516W        W 7299  17.820  26.480  12.964
40517W        W 7300  38.650  39.255  10.746
40518W        W 7301  41.951  36.016   2.205
40519W        W 7302  11.673   5.464  10.289
40520W        W 7303  14.326   8.582   5.105
40521W        W 7304  15.038  26.820  10.535
40522W        W 7305  25.898  29.373  14.280
40523W        W 7306   1.240   9.307   0.694
40524W        W 7307   2.422  16.249   2.407
40525W        W 7308  23.735  25.067  14.541
40526W        W 7309  42.391  34.450   4.754
40527W        W 7310  30.909   3.288   4.139
40528W        W 7311  24.204  11.251   1.966
40529W        W 7312  26.026  41.200  12.941
40530W        W 7313  10.767  10.128  13.821
40531W        W 7314   7.652   9.919   0.423
40532W        W 7315  11.678  25.735   0.927
40533W        W 7316   0.963  21.770  11.943
40534W        W 7317  30.184   4.980  13.920
40535W        W 7318   8.857  34.348  12.856
40536W        W 7319  12.162  43.483  13.482
40537W        W 7320  25.300  13.618  10.753
40538W        W 7321   6.755  37.000   2.884
40539W        W 7322  24.973  24.034   1.165
40540W        W 7323  37.240  29.509   2.724
40541W        W 7324  22.632  13.704  11.631
40542W        W 7325  32.175  10.461   2.468
40543W        W 7326  28.884  39.836   9.630
40544W        W 7327   4.410  12.300  13.861
40545W        W 7328   3.046   7.662   2.986
40546W        W 7329  41.604  17.286  12.593
40547W        W 7330  18.993  31.564  12.589
40548W        W 7331  40.020  14.617  14.814
40549W        W 7332  42.467   4.737   1.619
40550W        W 7333   1.415  36.564  13.119
40551W        W 7334  17.720  23.703  10.568
40552W        W 7335   1.698  38.531   4.569
40553W        W 7336  30.734  42.679   0.766
40554W        W 7337  21.126  38.828  14.481
40555W        W 7338  24.270  35.453  14.030
40556W        W 7339  26.550  28.748  14.497
40557W        W 7340  30.404  17.849  10.996
40558W        W 7341  19.329  26.168  11.957
40559W        W 7342  16.126  19.640  13.976
40560W        W 7343  40.523  25.894   1.276
40561W        W 7344  20.902  16.834   2.531
40562W        W 7345  19.061  39.415   0.899
40563W        W 7346  40.749  15.528   0.394
40564W        W 7347  41.119  19.639   3.848
40565W        W 7348  20.027  13.949  12.078
40566W        W 7349  37.940  38.944  14.776
40567W        W 7350   3.271   3.969  11.045
40568W        W 7351  30.119  37.540   2.319
40569W        W 7352   5.161  42.714   4.512
40570W        W 7353  18.215  42.504   1.732
40571W        W 7354  24.572  12.601   0.161
40572W        W 7355  21.949  34.830  13.000
40573W        W 7356  44.763   9.403  14.408
40574W        W 7357  42.746  34.516   4.360
40575W        W 7358  36.768  13.145   1.768
40576W        W 7359  35.482  42.364  13.249
40577W        W 7360  11.710  13.605   1.981
40578W        W 7361   4.924  28.273   4.464
40579W        W 7362  31.407   8.945  14.412
40580W        W 7363  13.386  42.750   5.090
40581W        W 7364   3.244  36.840   3.677
40582W        W 7365  10.244  43.421  14.914
40583W        W 7366  36.945  10.841   1.377
40584W        W 7367  44.330  43.319   1.635
40585W        W 7368  23.765   7.853  13.079
40586W        W 7369  32.582  44.201  10.501
40587W        W 7370  13.245   4.663  10.107
40588W        W 7371  26.666  10.395  11.490
40589W        W 7372  29.196  40.051  12.514
40590W        W 7373  38.427  29.348   2.688
40591W        W 7374  39.271  27.150  14.923
40592W        W 7375  34.978  14.172  12.811
40593W        W 7376  36.862   2.398   3.272
40594W        W 7377  11.707  25.994   0.055
40595W        W 7378  35.493   8.077  13.686
40596W        W 7379  24.420  37.396  13.875
40597W        W 7380  16.096  26.873   4.790
40598W        W 7381   6.435  43.543   3.798
40599W        W 7382  28.674  43.461   1.213
40600W        W 7383  22.245  37.867   2.204
40601W        W 7384  24.118   3.249   3.599
40602W        W 7385  38.079  43.749   4.051
40603W        W 7386  34.001  26.004   4.490
40604W        W 7387  21.591  41.484   3.352
40605W        W 7388  33.303  10.633  12.845
40606W        W 7389   4.730  18.132   3.714
40607W        W 7390   4.795   9.888  13.025
40608W        W 7391  18.141   5.790  14.505
40609W        W 7392  20.620  13.137   4.976
40610W        W 7393   4.712  26.750  10.533
40611W        W 7394  33.149  24.398   1.422
40612W        W 7395  34.117  27.681  14.403
40613W        W 7396  40.698   9.299  12.979
40614W        W 7397   3.967   8.472  14.453
40615W        W 7398  42.354  21.664   4.183
40616W        W 7399  23.692  44.476   3.928
40617W        W 7400   5.232  37.010  13.023
40618W        W 7401  44.544   9.340   4.953
40619W        W 7402   8.272   5.718   4.312
40620W        W 7403  29.218   8.572   1.702
40621W        W 7404  23.882  32.054  10.125
40622W        W 7405  14.812  20.772  10.898
40623W        W 7406  12.223  41.597  11.627
40624W        W 7407  39.891  13.391  12.332
40625W        W 7408  30.742  38.361   3.179
40626W        W 7409  20.735  27.466   0.892
40627W        W 7410  35.549  14.860   2.733
40628W        W 7411  44.197   6.784   0.975
40629W        W 7412   5.234  28.156  13.322
40630W        W 7413  10.972   3.848   2.192
40631W        W 7414  39.949  23.791   1.269
40632W        W 7415  34.541  27.997   4.585
40633W        W 7416  35.624   3.992  11.864
40634W        W 7417  26.839  19.045  12.988
40635W        W 7418  16.974  11.297   4.847
40636W        W 7419  34.962   5.797   0.543
40637W        W 7420  35.517   0.782   2.326
40638W        W 7421  12.307  30.564   2.597
40639W        W 7422  43.711  40.354  11.544
40640W        W 7423  21.726  43.352  11.094
40641W        W 7424   1.573  30.017  14.897
40642W        W 7425  23.460   2.666   3.919
40643W        W 7426  27.733  17.685   1.522
40644W        W 7427  29.749  34.612   4.976
40645W        W 7428  11.567  28.110  10.400
40646W        W 7429  15.606   4.235  10.681
40647W        W 7430  44.351   5.246  11.402
40648W        W 7431   7.474  44.503  14.550
40649W        W 7432  29.911  21.595  10.976
40650W        W 7433  23.662  26.128   2.623
40651W        W 7434  23.148  30.325  13.176
40652W        W 7435  21.986  38.994   2.689
40653W        W 7436  14.710  29.657   3.653
40654W        W 7437   8.763  35.517   4.783
40655W        W 7438  36.385  39.346  11.471
40656W        W 7439  19.167  28.634  14.740
40657W        W 7440  30.820  28.394  13.249
40658W        W 7441  18.872  28.910  12.340
40659W        W 7442  17.561  39.418  14.043
40660W        W 7443  35.240   2.436   2.400
40661W        W 7444  44.723  20.309  13.445
40662W        W 7445   9.713  36.983   0.481
40663W        W 7446  12.309  13.916  12.284
40664W        W 7447   5.950  39.313  12.025
40665W        W 7448  11.892   5.371   3.735
40666W        W 7449   1.511   9.875   9.788
40667W        W 7450  32.097  22.606  10.896
40668W        W 7451  14.273   6.735  11.867
40669W        W 7452  28.126  34.681  13.792
40670W        W 7453  12.856  36.954   2.991
40671W        W 7454  21.503  44.796  12.871
40672W        W 7455  29.754   5.149  14.965
40673W        W 7456  11.196  36.454   3.139
40674W        W 7457  40.834  20.621  13.378
40675W        W 7458   0.036  34.927  11.091
40676W        W 7459  44.231   5.115   2.257
40677W        W 7460  11.778   3.997   0.963
40678W        W 7461   6.789   6.121   1.339
40679W        W 7462  12.065  42.429   0.863
40680W        W 7463  33.145  13.416  10.667
40681W        W 7464   7.887  32.882   0.003
40682W        W 7465  23.507  23.787   2.410
40683W        W 7466  17.394  10.688  12.699
40684W        W 7467   6.273   8.657  12.354
40685W        W 7468  24.985  36.023  11.981
40686W        W 7469  27.422  42.712  11.561
40687W        W 7470  44.271  12.883   1.420
40688W        W 7471  44.796   6.914   1.815
40689W        W 7472  27.434  17.707   3.902
40690W        W 7473  21.209  34.016   3.706
40691W        W 7474  16.433   9.019   0.402
40692W        W 7475  16.509  28.452   1.799
40693W        W 7476  43.961  35.987  12.655
40694W        W 7477   6.426  20.976   2.686
40695W        W 7478  28.509  31.930  13.457
40696W        W 7479  15.840  43.894  13.507
40697W        W 7480  44.718  19.005   0.197
40698W        W 7481  18.591  40.733  13.433
40699W        W 7482  20.209  26.736  14.986
40700W        W 7483  36.871   0.242  10.670
40701W        W 7484  44.902   3.832  10.777
40702W        W 7485  40.807   0.862   4.034
40703W        W 7486  38.772  38.447   2.273
40704W        W 7487  23.717  40.081  12.986
40705W        W 7488  20.321  24.130  14.336
40706W        W 7489  25.249   9.910   1.351
40707W        W 7490  30.994   1.824  14.353
40708W        W 7491  39.778   8.071  11.978
40709W        W 7492  27.761  33.144  11.609
40710W        W 7493   6.496  25.059   2.239
40711W        W 7494  38.253   3.960   4.101
40712W        W 7495  41.124   6.289  14.556
40713W        W 7496   8.383  23.142   3.228
40714W        W 7497   3.338  22.445   3.141
40715W        W 7498  10.630   5.815   2.400
40716W        W 7499  20.244  29.495   0.952
40717W        W 7500  25.605  27.356   3.788
40718W        W 7501  37.361   6.363   1.209
40719W        W 7502  14.287  24.461   0.289
40720W        W 7503  20.527   1.476   1.260
40721W        W 7504  30.081   9.643   4.148
40722W        W 7505   0.125   3.786   3.147
40723W        W 7506  11.266  14.367  11.547
40724W        W 7507  12.258  41.414   3.893
40725W        W 7508  32.564   4.726  12.013
40726W        W 7509  20.919  38.518   3.277
40727W        W 7510  41.004  10.921  12.033
40728W        W 7511  26.889  20.759   3.327
40729W        W 7512  15.568  17.227  11.984
40730W        W 7513  28.624  29.578  13.064
40731W        W 7514  12.348  14.574   3.716
40732W        W 7515   4.536  29.905  14.831
40733W        W 7516  34.658  38.569  14.843
40734W        W 7517  36.665  27.053   2.188
40735W        W 7518  27.493  39.368  12.426
40736W        W 7519   7.488   9.613  14.159
40737W        W 7520  17.145   2.410   1.241
40738W        W 7521  20.663  13.235  12.340
40739W        W 7522   9.362  14.233  14.904
40740W        W 7523   4.700  10.375  14.800
40741W        W 7524  20.031  11.820  13.846
40742W        W 7525  10.632   6.799   0.728
40743W        W 7526  32.235  26.742   2.504
40744W        W 7527  40.509  30.236  11.595
40745W        W 7528  44.826  14.720  13.634
40746W        W 7529  21.315  27.087  11.486
40747W        W 7530  42.929   7.787   0.421
40748W        W 7531  19.607  16.797  11.600
40749W        W 7532  34.808  23.753  11.319
40750W        W 7533  19.011  11.125   3.887
40751W        W 7534  43.179   7.653   3.540
40752W        W 7535  27.033   1.825   0.872
40753W        W 7536  20.042  29.766   4.963
40754W        W 7537  43.548  39.463   3.825
40755W        W 7538  15.511  43.978   2.428
40756W        W 7539  25.671  33.379  11.173
40757W        W 7540  27.514  20.097   0.502
40758W        W 7541  15.815  38.921  12.135
40759W        W 7542   8.434  17.567   3.227
40760W        W 7543  20.069  24.746  13.032
40761W        W 7544  21.278  33.376  13.519
40762W        W 7545  23.692  35.124   1.976
40763W        W 7546  19.208   2.983   2.397
40764W        W 7547  13.880   4.493   0.352
40765W        W 7548  18.793  18.138  10.435
40766W        W 7549  22.146   0.053  14.279
40767W        W 7550   8.420  30.954  11.142
40768W        W 7551  42.002  26.133   3.892
40769W        W 7552   3.355  28.238   1.773
40770W        W 7553   7.192  23.522  14.390
40771W        W 7554  29.900  43.522  13.018
40772W        W 7555   8.759   6.598   3.017
40773W        W 7556   5.182   5.752   3.236
40774W        W 7557  39.798   1.194  11.956
40775W        W 7558  20.118  10.636  11.642
40776W        W 7559  43.430  31.664   1.144
40777W        W 7560  32.152  25.191   3.654
40778W        W 7561  25.304  18.112  11.519
40779W        W 7562  34.612   1.899   1.938
40780W        W 7563   9.779  11.991  13.404
40781W        W 7564  19.773  24.614   3.079
40782W        W 7565  15.703   9.214  13.760
40783W        W 7566   5.421  37.903  13.545
40784W        W 7567   5.233  23.453  13.110
40785W        W 7568  34.486  44.241  14.351
40786W        W 7569  10.063  32.097   0.389
40787W        W 7570  29.486  17.232   1.622
40788W        W 7571   2.545   1.485  11.163
40789W        W 7572   7.637  39.494  14.534
40790W        W 7573   4.720  26.776  11.575
40791W        W 7574  23.560  44.077   0.161
40792W        W 7575  36.338  40.062   0.924
40793W        W 7576  43.975   1.778  13.559
40794W        W 7577  14.573  10.931  12.888
40795W        W 7578  23.346  38.441  14.746
40796W        W 7579   2.157   9.951   2.951
40797W        W 7580  37.898   7.112  14.835
40798W        W 7581  13.991  25.428  11.533
40799W        W 7582   0.720  33.320  12.063
40800W        W 7583  15.070  31.560  13.873
40801W        W 7584  37.362  34.642  12.012
40802W        W 7585  11.900  26.998  14.972
40803W        W 7586   4.220  12.687  10.618
40804W        W 7587  21.547  31.952  10.455
40805W        W 7588  44.928  39.514   4.110
40806W        W 7589  12.302  13.363  12.384
40807W        W 7590  17.704  40.084   3.124
40808W        W 7591  23.144  44.810  13.969
40809W        W 7592   3.722  37.846  13.817
40810W        W 7593  39.514   3.680   3.768
40811W        W 7594  20.601  31.352  12.136
40812W        W 7595  17.444   1.243   2.797
40813W        W 7596   0.783  14.199  10.479
40814W        W 7597  13.355  34.082   3.777
40815W        W 7598  42.536   6.913   9.727
40816W        W 7599   0.766  30.886   3.289
40817W        W 7600   3.343  39.356   4.624
40818W        W 7601   8.281   5.821  13.039
40819W        W 7602   1.299  40.930  13.771
40820W        W 7603   5.127  27.712  14.120
40821W        W 7604  32.651   6.198  10.738
40822W        W 7605  22.452  38.448  10.386
40823W        W 7606  28.730   3.802   1.398
40824W        W 7607   2.823  15.829  13.397
40825W        W 7608  19.988  44.769   3.692
40826W        W 7609   8.701   9.694   1.399
40827W        W 7610  31.598   3.369   0.361
40828W        W 7611  36.751  39.330   1.186
40829W        W 7612  27.733  36.427  14.841
40830W        W 7613  30.833  31.865  12.472
40831W        W 7614  12.232  22.308  10.472
40832W        W 7615   8.188  42.542  10.520
40833W        W 7616  32.541   0.202  10.632
40834W        W 7617   1.980  39.367  14.542
40835W        W 7618  12.575  21.218   4.279
40836W        W 7619   9.215  34.934  11.341
40837W        W 7620  42.016   2.300  12.592
40838W        W 7621  14.511   4.310  14.975
40839W        W 7622  10.872  43.964   2.803
40840W        W 7623  20.991   7.141  13.864
40841W        W 7624  41.722  30.875   1.751
40842W        W 7625  30.912  14.092  14.098
40843W        W 7626  29.710   8.229  14.957
40844W        W 7627  25.618  35.064   4.539
40845W        W 7628   6.331  31.121  12.673
40846W        W 7629  25.447  31.471   0.881
40847W        W 7630  42.804  18.532  12.190
40848W        W 7631  28.698  35.283   1.385
40849W        W 7632  23.187  30.707   0.338
40850W        W 7633  41.859  32.223  12.361
40851W        W 7634   0.366  36.845   2.170
40852W        W 7635   8.826  15.645   0.315
40853W        W 7636  42.772  39.161  12.603
40854W        W 7637  15.536  29.132   1.707
40855W        W 7638  44.482  11.445  14.412
40856W        W 7639   5.729  36.919  12.047
40857W        W 7640  11.677  21.644   0.805
40858W        W 7641  31.641  43.032  14.808
40859W        W 7642  42.203  10.386   0.009
40860W        W 7643   0.761  11.337  13.087
40861W        W 7644   2.351  12.238  10.544
40862W        W 7645   5.128  28.988  10.822
40863W        W 7646  42.622  16.903   2.288
40864W        W 7647  43.201  15.458   1.886
40865W        W 7648  10.991  42.224   1.813
40866W        W 7649  31.077  32.181  14.279
40867W        W 7650  14.789  35.139  14.399
40868W        W 7651   1.874   6.570  14.150
40869W        W 7652  27.936   1.288   2.164
40870W        W 7653  33.081  30.013   4.206
40871W        W 7654  24.029  44.833  11.205
40872W        W 7655  13.112  38.606  13.248
40873W        W 7656  41.378  30.722   4.664
40874W        W 7657  39.402  27.392  11.115
40875W        W 7658  17.989  34.130   1.790
40876W        W 7659  28.893  42.925  14.473
40877W        W 7660  44.770  29.991   2.459
40878W        W 7661   9.214  12.606   0.410
40879W        W 7662  18.993  14.075  12.748
40880W        W 7663  42.946  20.131   0.247
40881W        W 7664  29.515  36.025  10.771
40882W        W 7665  15.220   8.190  11.577
40883W        W 7666  23.844   9.986  14.246
40884W        W 7667  14.755   3.844   1.692
40885W        W 7668  15.135  44.229   0.874
40886W        W 7669  32.475  19.171  13.969
40887W        W 7670  16.307  29.131   3.502
40888W        W 7671  31.470  14.723   2.670
40889W        W 7672  26.051  38.611   4.455
40890W        W 7673  40.070  24.252   1.899
40891W        W 7674  17.493  12.435  14.560
40892W        W 7675  14.252  14.891  11.170
40893W        W 7676  14.284  21.992   0.890
40894W        W 7677  21.289  32.834   2.394
40895W        W 7678  13.662   8.149  10.588
40896W        W 7679  28.162   6.994  12.033
40897W        W 7680  21.011  41.198   5.036
40898W        W 7681  42.642   5.689  11.039
40899W        W 7682  14.205   8.749  14.524
40900W        W 7683  15.864  21.304  13.887
40901W        W 7684  40.295   4.926   0.896
40902W        W 7685  15.068  10.183  11.598
40903W        W 7686   5.345  17.368  12.389
40904W        W 7687  30.164   0.211  14.083
40905W        W 7688  18.122  29.089  10.484
40906W        W 7689  24.928  17.517   4.596
40907W        W 7690   0.096  31.866   0.867
40908W        W 7691   7.442  21.968   2.200
40909W        W 7692  38.298  41.902   0.454
40910W        W 7693  38.440  42.038  13.159
40911W        W 7694   5.220   4.158   1.073
40912W        W 7695  41.525  41.482  10.755
40913W        W 7696  28.184   7.431   3.573
40914W        W 7697  16.324  30.287  11.099
40915W        W 7698  35.076   5.471  12.876
40916W        W 7699  16.516  29.322   1.682
40917W        W 7700  37.666  23.055  11.953
40918W        W 7701   5.306   0.007  14.222
40919W        W 7702  35.298   9.432   3.215
40920W        W 7703  11.899  34.563  12.876
40921W        W 7704  41.692  18.305  13.971
40922W        W 7705   2.719   9.660  14.489
40923W        W 7706  30.105  18.574   2.965
40924W        W 7707  18.661  27.496   3.605
40925W        W 7708  34.651  43.334   1.816
40926W        W 7709  25.135   8.690   0.713
40927W        W 7710  24.907  33.100  12.631
40928W        W 7711  31.036   0.447   0.523
40929W        W 7712  14.726  16.030   2.190
40930W        W 7713   5.654   0.584   1.015
40931W        W 7714  23.124   9.404  10.714
40932W        W 7715  21.753   9.607   1.819
40933W        W 7716   2.479   4.797  13.987
40934W        W 7717   5.702   2.788  12.936
40935W        W 7718  19.964  38.908   3.821
40936W        W 7719  19.975  28.649  11.670
40937W        W 7720  22.148   8.367  11.849
40938W        W 7721  16.548  24.039   0.862
40939W        W 7722  25.163   5.283  13.552
40940W        W 7723  10.219  37.174   2.389
40941W        W 7724  39.574  32.020  11.549
40942W        W 7725   6.803  28.419   1.652
40943W        W 7726  31.124  18.668  10.702
40944W        W 7727   4.448   2.210   1.518
40945W        W 7728   2.209   2.966   4.246
40946W        W 7729   8.743  44.793  12.116
40947W        W 7730   2.014  44.218   1.847
40948W        W 7731   7.733  29.131   3.815
40949W        W 7732  44.747  15.258  13.641
40950W        W 7733  36.433  27.377   2.955
40951W        W 7734  40.450  15.297   3.674
40952W        W 7735  23.971  41.274  10.386
40953W        W 7736  22.165  17.495   2.762
40954W        W 7737  36.567  10.716  14.877
40955W        W 7738   0.367  16.646  13.581
40956W        W 7739  13.324   7.202  14.804
40957W        W 7740  16.793   2.702   2.186
40958W        W 7741   5.918   8.381   2.877
40959W        W 7742  16.826  30.074  11.130
40960W        W 7743  27.034  11.234   4.456
40961W        W 7744  36.268  11.160  12.055
40962W        W 7745   9.832   2.428  14.995
40963W        W 7746  38.745  19.643   1.733
40964W        W 7747  36.462  27.685   1.470
40965W        W 7748  28.100  10.158  11.432
40966W        W 7749  20.701  29.133   0.971
40967W        W 7750  18.295  34.548  10.716
40968W        W 7751  20.580  32.418   1.693
40969W        W 7752   4.500  26.561   1.713
40970W        W 7753  15.112   0.222   1.054
40971W        W 7754  44.242   5.770  14.507
40972W        W 7755  20.242  12.301  13.092
40973W        W 7756   9.968  14.240   4.230
40974W        W 7757   7.348   8.302   2.295
40975W        W 7758  12.834  28.425  10.711
40976W        W 7759  32.101  14.383  13.463
40977W        W 7760  15.110   7.709   2.866
40978W        W 7761   2.314  24.524   4.772
40979W        W 7762  34.900  11.276  13.894
40980W        W 7763   4.657  14.753  13.866
40981W        W 7764  18.631  38.871  13.801
40982W        W 7765   8.415   3.372  14.080
40983W        W 7766   5.960  26.575   4.281
40984W        W 7767  30.222  34.507   3.103
40985W        W 7768  29.538  12.406   1.214
40986W        W 7769  33.467  10.277  10.426
40987W        W 7770  18.598   1.701   0.325
40988W        W 7771  23.000  25.645  14.495
40989W        W 7772  36.322  14.786  11.127
40990W        W 7773  32.817  36.432   2.311
40991W        W 7774  14.296   4.371   2.196
40992W        W 7775   5.025  11.619  10.340
40993W        W 7776  16.273   9.628   1.857
40994W        W 7777  21.776   8.807  13.874
40995W        W 7778  30.446  41.904  11.194
40996W        W 7779  36.257  32.134  13.849
40997W        W 7780  23.118  41.482  12.252
40998W        W 7781  20.275  10.584   0.963
40999W        W 7782   3.096  19.877   4.519
41000W        W 7783  19.254   9.516   3.137
41001W        W 7784  14.760  12.661   4.995
41002W        W 7785  28.023   8.985  10.279
41003W        W 7786  43.278  23.512   4.411
41004W        W 7787  42.262  38.293   4.813
41005W        W 7788  38.226   2.162  13.911
41006W        W 7789  24.071  25.143   0.617
41007W        W 7790  21.021  21.625   3.687
41008W        W 7791  32.648  30.115   0.479
41009W        W 7792  29.951  39.972   1.480
41010W        W 7793  26.220  26.301   1.739
41011W        W 7794  36.549  11.116   1.090
41012W        W 7795  34.768  29.042  11.173
41013W        W 7796  12.982   9.030  11.680
41014W        W 7797   7.554   4.651  14.403
41015W        W 7798  44.746   1.482   1.449
41016W        W 7799  16.026  31.026   0.492
41017W        W 7800  41.098  15.753   0.712
41018W        W 7801   3.220  21.742   0.261
41019W        W 7802   9.566  31.697  14.590
41020W        W 7803  44.346  13.540   0.329
41021W        W 7804  10.117  18.764  11.665
41022W        W 7805   5.436  16.843  12.406
41023W        W 7806   0.929  10.803  10.774
41024W        W 7807  39.303   8.954   1.912
41025W        W 7808  30.284  30.416   2.034
41026W        W 7809  38.211  27.454  12.274
41027W        W 7810  21.002   7.720   5.120
41028W        W 7811  13.877  24.430   4.401
41029W        W 7812   7.477  17.795  12.021
41030W        W 7813  34.560   2.773  12.923
41031W        W 7814  41.066  25.972  12.758
41032W        W 7815  36.105   3.256   4.761
41033W        W 7816   3.259  32.628  13.415
41034W        W 7817  39.938  41.756  12.626
41035W        W 7818  20.500  18.295  13.474
41036W        W 7819  33.906  42.538  10.681
41037W        W 7820  25.163  16.081  12.952
41038W        W 7821   1.981   6.976   4.305
41039W        W 7822  28.103  41.406  12.050
41040W        W 7823  21.256   4.868   4.428
41041W        W 7824  36.041  22.209  13.619
41042W        W 7825  27.724  34.516   5.031
41043W        W 7826  26.831   3.560  14.655
41044W        W 7827  12.272   5.381   3.172
41045W        W 7828  41.879  21.478  11.087
41046W        W 7829  11.309  27.549  10.757
41047W        W 7830  33.103   4.083  13.794
41048W        W 7831  11.803  28.948   3.256
41049W        W 7832  40.609   7.393  11.039
41050W        W 7833  20.112  18.944   3.330
41051W        W 7834  42.410  36.987   2.636
41052W        W 7835  38.535  32.966   1.849
41053W        W 7836   7.757  22.609  13.089
41054W        W 7837  42.829   6.323  13.098
41055W        W 7838  43.536   7.275   4.242
41056W        W 7839  23.099   1.928  11.028
41057W        W 7840  44.726  39.768  10.650
41058W        W 7841   0.497   9.249  11.551
41059W        W 7842  41.414  30.807  10.697
41060W        W 7843   8.201  26.679  14.672
41061W        W 7844  27.991  14.857  13.464
41062W        W 7845  32.462  23.478   2.732
41063W        W 7846  13.618  34.978   0.062
41064W        W 7847  11.160  33.614   1.707
41065W        W 7848  18.325  11.591  11.183
41066W        W 7849  44.976  18.589   2.379
41067W        W 7850  13.932   8.986   0.444
41068W        W 7851   8.886  10.043  12.070
41069W        W 7852  27.743  39.955  11.592
41070W        W 7853  39.753  36.721   1.329
41071W        W 7854   5.716  20.597  10.756
41072W        W 7855   2.130  39.349   1.764
41073W        W 7856   5.724   0.554  12.468
41074W        W 7857  42.839  26.013   2.907
41075W        W 7858  19.153  31.308   2.788
41076W        W 7859  20.942  17.138   4.892
41077W        W 7860  13.274  30.159   0.580
41078W        W 7861   0.716  36.806  13.587
41079W        W 7862  14.859  16.331  10.876
41080W        W 7863  11.371  31.543   4.751
41081W        W 7864  42.763  28.099  11.164
41082W        W 7865  40.913  30.622  13.953
41083W        W 7866   6.932  35.120  11.687
41084W        W 7867  31.085  16.060   0.037
41085W        W 7868  17.129  36.354   1.422
41086W        W 7869   4.707  10.341  14.272
41087W        W 7870  31.548   7.357   1.255
41088W        W 7871   7.612  15.913   1.805
41089W        W 7872  31.090  30.652  12.979
41090W        W 7873  22.698  20.417  13.420
41091W        W 7874  32.258   9.172  10.854
41092W        W 7875  20.585  33.203   0.891
41093W        W 7876  11.908  40.090   2.238
41094W        W 7877  36.643  42.408   3.700
41095W        W 7878   9.783   7.438   3.046
41096W        W 7879  37.925  24.667  11.613
41097W        W 7880  34.072  30.351   2.133
41098W        W 7881  10.570   2.879  11.068
41099W        W 7882  39.065  32.466   3.781
41100W        W 7883  44.979   6.754   0.430
41101W        W 7884  21.097  18.191  11.132
41102W        W 7885  39.130   5.283   4.075
41103W        W 7886  15.095  28.112  10.432
41104W        W 7887  36.423  44.071  11.499
41105W        W 7888  11.191   5.961   0.241
41106W        W 7889  20.253  13.570  13.534
41107W        W 7890  44.613  42.495   1.828
41108W        W 7891  31.522  43.923  12.038
41109W        W 7892  26.822  15.177   4.766
41110W        W 7893  43.623  15.151  10.239
41111W        W 7894   0.283  28.725  11.687
41112W        W 7895  33.880  37.131  10.883
41113W        W 7896  23.760  14.116   0.440
41114W        W 7897  40.855   8.616  12.563
41115W        W 7898  19.187  17.116   5.480
41116W        W 7899  44.688  21.801   1.264
41117W        W 7900  39.056  27.225  14.420
41118W        W 7901   0.835  22.214   0.435
41119W        W 7902  43.454   2.198   1.847
41120W        W 7903  32.000  12.786   1.209
41121W        W 7904   4.330  38.975  10.606
41122W        W 7905  23.472  27.457   0.857
41123W        W 7906   0.329  43.806   0.760
41124W        W 7907  12.878  24.284   3.012
41125W        W 7908   0.120  32.587  11.594
41126W        W 7909  15.648  37.997  11.668
41127W        W 7910  12.624  22.469  12.050
41128W        W 7911   9.963  14.801  11.243
41129W        W 7912  19.276  10.764  11.423
41130W        W 7913  42.487  24.020  13.468
41131W        W 7914  12.330  29.547   3.782
41132W        W 7915  22.063  38.889   3.576
41133W        W 7916  15.618   2.365   1.742
41134W        W 7917   5.770   9.167   2.640
41135W        W 7918  19.605  42.804  13.562
41136W        W 7919  43.996  10.178   5.042
41137W        W 7920   6.851  14.304   1.272
41138W        W 7921   9.192  26.464  10.763
41139W        W 7922   0.928  26.589  10.835
41140W        W 7923  36.918  14.648  10.769
41141W        W 7924  41.532  36.111   1.931
41142W        W 7925   1.295  23.215  14.687
41143W        W 7926  35.726  42.727  14.407
41144W        W 7927  27.507  32.509   0.811
41145W        W 7928  14.014   1.840  10.733
41146W        W 7929  18.169   1.731  13.983
41147W        W 7930  12.341  16.230  13.287
41148W        W 7931  29.649   5.787  12.570
41149W        W 7932  20.630   1.304   3.565
41150W        W 7933   6.882  36.510   1.556
41151W        W 7934  29.964  33.811   3.431
41152W        W 7935  41.533  28.630  13.115
41153W        W 7936  38.628  18.882  14.519
41154W        W 7937   7.968  38.961  12.080
41155W        W 7938   3.744  42.715   4.559
41156W        W 7939  14.277  15.005   0.262
41157W        W 7940   2.780   8.480  13.449
41158W        W 7941  13.711  15.269   2.637
41159W        W 7942  43.459  32.125   2.728
41160W        W 7943  20.225  24.589  11.150
41161W        W 7944  22.185  36.411   2.222
41162W        W 7945  41.974  31.435   0.591
41163W        W 7946  21.237  24.591  12.907
41164W        W 7947  10.808  23.964   0.028
41165W        W 7948  39.699   6.620   1.653
41166W        W 7949  18.006   1.700  14.867
41167W        W 7950   8.933  33.804   1.888
41168W        W 7951  41.360  33.317  12.927
41169W        W 7952  22.241   6.042  11.829
41170W        W 7953   5.453  36.865  10.656
41171W        W 7954  30.704  42.839  12.104
41172W        W 7955  43.417  20.986  11.480
41173W        W 7956  20.974  17.222   2.204
41174W        W 7957  13.745  16.299   0.489
41175W        W 7958  33.918   7.826   2.483
41176W        W 7959  38.933  19.114   5.013
41177W        W 7960   8.592   8.931   5.076
41178W        W 7961  35.962  19.765   3.563
41179W        W 7962  20.815  32.591  13.485
41180W        W 7963  36.452  20.472  14.727
41181W        W 7964   7.500  20.704  12.646
41182W        W 7965  27.377  13.875  11.731
41183W        W 7966  43.306  14.345  12.050
41184W        W 7967  19.622  14.642  14.316
41185W        W 7968  25.061  20.473  14.921
41186W        W 7969  43.010   7.163  11.035
41187W        W 7970   1.215  42.860   1.136
41188W        W 7971  40.438   2.775  13.902
41189W        W 7972  34.302  30.947  14.904
41190W        W 7973  40.613   4.162   2.677
41191W        W 7974  41.412  31.651   4.769
41192W        W 7975  22.560  22.119   2.818
41193W        W 7976  38.006   1.759   1.846
41194W        W 7977  29.943  30.403  14.698
41195W        W 7978   7.313  43.813   2.662
41196W        W 7979  40.698   2.313   2.707
41197W        W 7980  40.415   4.675   0.435
41198W        W 7981  10.249  28.827   2.779
41199W        W 7982  21.997  37.896   0.917
41200W        W 7983  41.892   6.163  14.036
41201W        W 7984  42.948  37.489  12.531
41202W        W 7985  19.661  26.796   2.440
41203W        W 7986  17.082  39.788   4.095
41204W        W 7987  38.319  39.071   3.584
41205W        W 7988  30.435   8.673   3.698
41206W        W 7989  24.200  12.867  13.156
41207W        W 7990  20.904  16.430  14.301
41208W        W 7991  10.836   7.332  14.426
41209W        W 7992  34.111  14.761  13.374
41210W        W 7993   7.553  31.103  11.616
41211W        W 7994  26.053  30.319   0.345
41212W        W 7995  29.880   7.347  11.984
41213W        W 7996  39.419   4.041  12.594
41214W        W 7997  37.065  18.220   0.271
41215W        W 7998  28.938  20.133   3.602
41216W        W 7999  43.917  21.093  13.874
41217W        W 8000   0.692  38.247  14.298
41218W        W 8001  20.152   7.822  12.747
41219W        W 8002   8.527  27.883  12.818
41220W        W 8003  11.879  31.953   0.924
41221W        W 8004  38.255   7.487   1.696
41222W        W 8005  41.978  10.546  14.480
41223W        W 8006  25.025   6.193  14.543
41224W        W 8007   1.790  10.170  14.364
41225W        W 8008   8.376   0.896   0.808
41226W        W 8009  20.536  17.315  14.324
41227W        W 8010  16.377  18.186  11.952
41228W        W 8011   9.439  36.413  14.545
41229W        W 8012  21.944  16.322  11.419
41230W        W 8013   1.846  24.642   3.983
41231W        W 8014  32.278   5.242  12.520
41232W        W 8015   1.831  19.809  10.595
41233W        W 8016   5.518  18.980   2.888
41234W        W 8017  26.078  23.771  11.531
41235W        W 8018  26.538  38.989   2.559
41236W        W 8019  34.116  12.427   4.052
41237W        W 8020  14.718   9.059   5.641
41238W        W 8021   2.280   1.962  14.837
41239W        W 8022  32.048  21.705  14.029
41240W        W 8023   0.463   9.398  14.935
41241W        W 8024   2.172  43.188  14.223
41242W        W 8025  27.338   1.895   2.295
41243W        W 8026  40.378   0.367   0.152
41244W        W 8027  40.461   3.955   3.501
41245W        W 8028  29.855  37.908   0.964
41246W        W 8029   3.285  35.067   4.867
41247W        W 8030  38.160  42.173  11.087
41248W        W 8031  32.968  41.797  12.706
41249W        W 8032  42.837   3.144  14.916
41250W        W 8033  43.699  29.764  11.976
41251W        W 8034   1.881   1.714   1.754
41252W        W 8035  32.617  30.096  13.930
41253W        W 8036  41.067  39.994  12.360
41254W        W 8037   7.019   2.896   2.376
41255W        W 8038  36.651   7.745   3.606
41256W        W 8039  24.014  19.116   2.895
41257W        W 8040  27.644  43.540  11.438
41258W        W 8041  34.652  31.760   9.930
41259W        W 8042   8.402  27.050  13.804
41260W        W 8043  19.643  28.703  14.560
41261W        W 8044  10.849  17.295   4.530
41262W        W 8045  36.691  27.485   1.891
41263W        W 8046  24.873  40.553   2.635
41264W        W 8047  41.321  23.971  12.918
41265W        W 8048  22.476  13.369   2.534
41266W        W 8049  11.472  36.424   0.233
41267W        W 8050  25.173  22.682   0.853
41268W        W 8051  13.135   5.468  12.963
41269W        W 8052   7.854  42.119   1.324
41270W        W 8053   4.989  43.282  13.640
41271W        W 8054  32.901  32.035  13.459
41272W        W 8055  18.063  29.412  13.996
41273W        W 8056   1.334  14.095   1.175
41274W        W 8057  39.024  44.518  14.553
41275W        W 8058  19.001  10.325   4.329
41276W        W 8059  31.467  37.334  10.688
41277W        W 8060  33.722  26.623   2.184
41278W        W 8061   0.859  13.144  10.778
41279W        W 8062  16.047  17.289  14.380
41280W        W 8063  22.819  34.779  11.052
41281W        W 8064  21.255  17.504   1.832
41282W        W 8065  19.547  41.849  14.505
41283W        W 8066  22.974   2.354   4.505
41284W        W 8067  25.519  22.057   1.746
41285W        W 8068  15.878  25.136   0.233
41286W        W 8069   8.301  38.987  13.420
41287W        W 8070  18.057  14.271  11.727
41288W        W 8071   8.941  19.902  11.595
41289W        W 8072  11.804  32.390   4.775
41290W        W 8073  26.516   8.319  11.409
41291W        W 8074   8.947  39.739  11.517
41292W        W 8075  30.456   1.906  14.429
41293W        W 8076  38.464   3.801   0.156
41294W        W 8077  38.263  16.364   0.070
41295W        W 8078  23.236  33.158  14.556
41296W        W 8079   2.219  15.931  12.042
41297W        W 8080  38.092  34.642   0.147
41298W        W 8081  14.977  27.132   4.101
41299W        W 8082  14.353   9.037  12.069
41300W        W 8083   5.418   9.237   1.908
41301W        W 8084   6.365   9.919   3.415
41302W        W 8085  14.083  14.222   5.033
41303W        W 8086   3.850   1.262   3.538
41304W        W 8087   3.838  26.768   0.427
41305W        W 8088  27.132  34.880   0.752
41306W        W 8089  42.058  27.903  14.833
41307W        W 8090  24.168  34.421  10.655
41308W        W 8091  26.633  16.074   1.795
41309W        W 8092   6.931  33.082  11.888
41310W        W 8093  42.647  33.637   3.628
41311W        W 8094   8.297  19.071   4.271
41312W        W 8095  43.206   1.033  13.478
41313W        W 8096  38.083  25.305   0.581
41314W        W 8097  29.469  37.021  12.490
41315W        W 8098  33.434  24.022  10.392
41316W        W 8099   8.800  13.320  11.435
41317W        W 8100  24.105  36.825  14.341
41318W        W 8101  29.242   1.465   1.097
41319W        W 8102  17.576   0.016   3.616
41320W        W 8103   0.274  35.033   1.744
41321W        W 8104   4.846   0.247   3.750
41322W        W 8105   3.182  11.425  14.893
41323W        W 8106  41.677   6.999  10.285
41324W        W 8107  20.337  34.630   5.132
41325W        W 8108  29.996  20.316   5.501
41326W        W 8109  40.751  10.842  12.477
41327W        W 8110  22.109  24.159  11.124
41328W        W 8111  44.696  24.599   0.752
41329W        W 8112  30.387  40.395   0.874
41330W        W 8113  27.849   9.391   2.421
41331W        W 8114  37.859  13.567   0.922
41332W        W 8115  18.301   4.718   3.850
41333W        W 8116   3.230  22.238  11.975
41334W        W 8117  29.495  24.261   0.783
41335W        W 8118  19.656  27.869   0.011
41336W        W 8119  19.688  31.564  12.416
41337W        W 8120   0.428  21.200   4.565
41338W        W 8121  41.777   0.458   1.206
41339W        W 8122  20.105  27.609   2.614
41340W        W 8123   4.519  17.106  14.859
41341W        W 8124  26.512   9.220  10.901
41342W        W 8125   5.291  32.761   2.241
41343W        W 8126  19.016  24.565   1.239
41344W        W 8127  16.188  19.641  14.960
41345W        W 8128  41.902  10.071  14.237
41346W        W 8129  41.511   5.406   3.163
41347W        W 8130  41.872  35.161   4.770
41348W        W 8131  30.490  27.374  10.752
41349W        W 8132  32.363  19.634  10.224
41350W        W 8133   5.388  28.042  14.440
41351W        W 8134  28.999  43.469   3.758
41352W        W 8135  10.997  39.004  10.828
41353W        W 8136  42.410  19.608   1.287
41354W        W 8137  35.910   5.332   1.047
41355W        W 8138   9.834  25.609   4.430
41356W        W 8139  25.153  11.167   3.209
41357W        W 8140  30.897  37.500   4.157
41358W        W 8141  11.711  32.395   1.761
41359W        W 8142  28.737   1.479   1.212
41360W        W 8143  22.055   6.449  12.803
41361W        W 8144  23.599  43.513   0.845
41362W        W 8145  16.151  35.568   0.010
41363W        W 8146  25.524  21.702   0.365
41364W        W 8147   7.830  35.907   2.373
41365W        W 8148  28.674  19.663   4.544
41366W        W 8149  38.675  31.567   2.607
41367W        W 8150  28.436  15.196  14.567
41368W        W 8151  43.395  17.088   3.685
41369W        W 8152  29.221  33.513   1.208
41370W        W 8153  26.206  25.189  11.292
41371W        W 8154  14.576  42.293  11.040
41372W        W 8155   2.235  38.833  12.605
41373W        W 8156  22.246  24.729  13.999
41374W        W 8157   1.417  25.853  14.723
41375W        W 8158  11.077  10.957  11.878
41376W        W 8159   9.041  18.322  13.436
41377W        W 8160  32.661  41.677   4.273
41378W        W 8161  20.997  40.588   0.883
41379W        W 8162  31.928  16.838  11.483
41380W        W 8163  38.211  27.524   2.813
41381W        W 8164  40.910   0.265  10.815
41382W        W 8165  26.292  10.400   4.131
41383W        W 8166  15.299  23.058  14.438
41384W        W 8167  23.152  26.662   2.649
41385W        W 8168  43.910  15.246   5.304
41386W        W 8169  24.603  42.956  11.058
41387W        W 8170  43.133   7.676  12.477
41388W        W 8171  34.133  17.069   3.167
41389W        W 8172  40.564  41.011   2.211
41390W        W 8173   4.893  31.892  12.473
41391W        W 8174  43.366  14.964   1.783
41392W        W 8175  21.296  35.480  14.373
41393W        W 8176  34.528  24.721  11.452
41394W        W 8177  34.683  27.922   0.743
41395W        W 8178  37.661  13.083   4.165
41396W        W 8179  38.151   7.534   9.681
41397W        W 8180  32.146  33.951   0.391
41398W        W 8181  11.252  19.280   0.977
41399W        W 8182  11.832   6.118   4.076
41400W        W 8183  37.841   8.081  12.951
41401W        W 8184  13.008   0.570   5.005
41402W        W 8185  20.203  13.396  12.519
41403W        W 8186   9.125  35.375   2.982
41404W        W 8187  21.465  28.581  14.802
41405W        W 8188  13.989  11.637  11.666
41406W        W 8189   4.878  44.598  14.975
41407W        W 8190   7.873   9.163  13.151
41408W        W 8191   2.977  20.267   3.739
41409W        W 8192  36.328  31.578  11.472
41410W        W 8193  40.968   5.874  10.639
41411W        W 8194  28.311  10.219  13.587
41412W        W 8195  42.711   9.112  13.489
41413W        W 8196  29.486  33.034  12.131
41414W        W 8197  12.312  32.951  11.918
41415W        W 8198   1.854  10.096   3.360
41416W        W 8199  20.552  16.553   2.283
41417W        W 8200  16.069  17.521   0.060
41418W        W 8201  11.874  17.096   4.706
41419W        W 8202  15.213  11.163   4.638
41420W        W 8203  14.109   3.437   1.728
41421W        W 8204   2.391  42.394   4.170
41422W        W 8205   8.726  26.164   4.031
41423W        W 8206  41.604  16.817  11.632
41424W        W 8207   3.399  44.895   4.631
41425W        W 8208  41.368  17.330   0.981
41426W        W 8209  14.218  39.723   1.628
41427W        W 8210  14.304   2.825   1.310
41428W        W 8211  10.482  28.525   4.973
41429W        W 8212  29.182   7.181  10.660
41430W        W 8213   8.496  32.619  11.388
41431W        W 8214  36.846  41.286  14.932
41432W        W 8215  35.398  42.912   1.338
41433W        W 8216  37.342   1.201   4.613
41434W        W 8217  28.084   6.246   3.788
41435W        W 8218  28.576  14.849  14.943
41436W        W 8219  25.739  35.772  14.019
41437W        W 8220  24.600  11.114  12.074
41438W        W 8221  36.990   5.950  11.406
41439W        W 8222  28.109  19.702  12.349
41440W        W 8223  36.046  28.940   3.247
41441W        W 8224  33.166  20.557   3.570
41442W        W 8225  29.004   8.374  11.655
41443W        W 8226  32.905   3.404   3.810
41444W        W 8227   0.310  39.807   3.149
41445W        W 8228  27.930  30.880   1.158
41446W        W 8229  29.248   8.173  14.741
41447W        W 8230  22.245  43.494  11.072
41448W        W 8231  42.404   7.836  13.426
41449W        W 8232  43.531   3.788   0.759
41450W        W 8233  22.215  40.651   0.253
41451W        W 8234  16.985  28.445  13.478
41452W        W 8235   5.284  18.031   3.786
41453W        W 8236  28.441  37.857   2.408
41454W        W 8237  30.192  18.872   1.234
41455W        W 8238  11.929  25.992  11.039
41456W        W 8239  21.765  20.460  10.594
41457W        W 8240  17.565   3.896   2.401
41458W        W 8241  31.538  37.339  14.396
41459W        W 8242  20.280  21.775   4.136
41460W        W 8243  18.295  13.421   5.707
41461W        W 8244  22.309  19.685  12.820
41462W        W 8245  16.937  19.648   4.975
41463W        W 8246  16.957   6.324   2.376
41464W        W 8247  44.390   1.790  10.059
41465W        W 8248  31.193  20.150  14.595
41466W        W 8249  22.537  20.619   3.409
41467W        W 8250  20.586  13.307   0.962
41468W        W 8251  37.026  43.365   4.419
41469W        W 8252  20.042  41.298   4.098
41470W        W 8253  30.229   1.999   0.349
41471W        W 8254  15.123  32.698  10.969
41472W        W 8255  15.615  27.092   1.407
41473W        W 8256  39.034  15.511   4.151
41474W        W 8257  36.612  31.426   3.883
41475W        W 8258  30.820   4.930   0.837
41476W        W 8259  43.810  10.456   2.363
41477W        W 8260  24.940  27.237  10.155
41478W        W 8261   7.936  29.477  13.234
41479W        W 8262  30.136  42.056  14.340
41480W        W 8263  34.667  10.881  11.136
41481W        W 8264  20.586  11.098  14.397
41482W        W 8265  23.669  41.594   2.673
41483W        W 8266  29.440   0.446   2.210
41484W        W 8267  13.679  31.776  11.372
41485W        W 8268  29.885  33.320   3.235
41486W        W 8269  33.507  29.336  11.230
41487W        W 8270  40.642   7.769  13.848
41488W        W 8271   2.966  27.739  13.307
41489W        W 8272  36.649  28.485   0.989
41490W        W 8273  38.058  24.148  10.668
41491W        W 8274  30.993   6.326   1.464
41492W        W 8275  29.077  23.305  13.534
41493W        W 8276  19.532  29.573  12.864
41494W        W 8277  29.214  20.529   0.534
41495W        W 8278  35.571  26.809  10.700
41496W        W 8279  25.049  29.870  14.925
41497W        W 8280  43.465  42.456  11.994
41498W        W 8281  13.664  31.510  14.575
41499W        W 8282  28.744  30.338  13.365
41500W        W 8283   9.703  20.739   4.401
41501W        W 8284   0.946  25.683  12.453
41502W        W 8285   5.743  36.246  12.665
41503W        W 8286  12.213  24.551   1.920
41504W        W 8287  18.651  33.387  14.767
41505W        W 8288  29.486  26.692  11.169
41506W        W 8289  27.887   4.005   1.330
41507W        W 8290  38.810   7.397   0.957
41508W        W 8291  38.917   6.841   2.904
41509W        W 8292  29.609   9.296   0.678
41510W        W 8293  32.609  40.804   0.393
41511W        W 8294   7.745  28.900   3.320
41512W        W 8295  15.381  11.460   1.138
41513W        W 8296   0.063   4.725  13.227
41514W        W 8297  21.473  21.314  13.066
41515W        W 8298  22.669   1.704  14.296
41516W        W 8299  42.343   6.531  11.212
41517W        W 8300  33.853  23.502  14.390
41518W        W 8301  17.660   3.507  11.508
41519W        W 8302  17.627  18.189  14.532
41520W        W 8303  17.662   1.804   4.752
41521W        W 8304  21.253  12.543  14.478
41522W        W 8305  11.470  37.396  12.022
41523W        W 8306  34.086  42.381   2.131
41524W        W 8307   9.432  31.589  11.363
41525W        W 8308  42.445  12.343  14.551
41526W        W 8309  37.827  42.006  10.712
41527W        W 8310  32.619  37.548   4.008
41528W        W 8311  38.861  28.235   2.461
41529W        W 8312   2.386   7.726  12.039
41530W        W 8313  25.546  12.934   4.234
41531W        W 8314  35.060  38.519   0.143
41532W        W 8315   6.382  16.073   2.838
41533W        W 8316  32.549  41.615  11.512
41534W        W 8317   5.372   4.908   1.725
41535W        W 8318   8.470  16.811  14.857
41536W        W 8319  11.331   8.404   3.657
41537W        W 8320  28.516  31.014   3.175
41538W        W 8321   5.153  17.107  11.542
41539W        W 8322  33.575   2.120   4.501
41540W        W 8323  23.289  21.331   4.944
41541W        W 8324  12.729  40.469   2.135
41542W        W 8325  41.592  43.361   3.694
41543W        W 8326   2.800  28.368   1.696
41544W        W 8327  16.971  34.856  13.347
41545W        W 8328  10.253  15.486  12.612
41546W        W 8329  38.430  38.937   0.048
41547W        W 8330   8.433  14.683  12.466
41548W        W 8331  11.271  30.463   3.716
41549W        W 8332  36.963   8.165   1.892
41550W        W 8333  39.991  29.132  13.853
41551W        W 8334  24.239   0.961   3.615
41552W        W 8335  26.624  18.486   4.168
41553W        W 8336  11.912  16.983   0.337
41554W        W 8337  41.882  23.477  12.264
41555W        W 8338  36.648  41.054  12.035
41556W        W 8339  32.438  12.983  13.157
41557W        W 8340  10.247  14.912   1.183
41558W        W 8341  38.899  39.015   4.675
41559W        W 8342   4.309  27.200   2.241
41560W        W 8343  27.770  29.362  10.544
41561W        W 8344  39.707  10.508   9.641
41562W        W 8345  17.645  33.883  12.195
41563W        W 8346   3.392  17.853   4.167
41564W        W 8347  20.605  30.828  12.174
41565W        W 8348  40.910  38.977   2.424
41566W        W 8349   5.751  29.176   0.687
41567W        W 8350  26.271   4.807   2.717
41568W        W 8351  40.330  28.061  12.018
41569W        W 8352  26.787  13.138  12.164
41570W        W 8353   6.755  11.908  12.077
41571W        W 8354  26.976  25.183   3.444
41572W        W 8355   0.475   6.912   0.419
41573W        W 8356  13.860  37.960  13.423
41574W        W 8357  33.411   8.069   2.376
41575W        W 8358   4.421  28.197   4.615
41576W        W 8359  19.135  29.037  11.362
41577W        W 8360  11.127   1.178   0.762
41578W        W 8361  41.993  28.930   3.373
41579W        W 8362  29.579  30.946  11.601
41580W        W 8363  35.510  32.365  14.510
41581W        W 8364   5.882  43.416  12.966
41582W        W 8365  32.931  14.829   1.852
41583W        W 8366  29.116  42.739   2.308
41584W        W 8367   8.609  37.574   4.162
41585W        W 8368  30.561  15.856  11.536
41586W        W 8369   2.295  36.293   2.114
41587W        W 8370  29.712  37.932   4.252
41588W        W 8371   9.527  11.276  10.159
41589W        W 8372   0.494  19.153  12.577
41590W        W 8373  29.629   5.215   0.910
41591W        W 8374   6.434  41.952   2.373
41592W        W 8375  25.104  15.414   4.301
41593W        W 8376  22.202  41.574  12.402
41594W        W 8377  25.027   3.314  12.062
41595W        W 8378  31.697  12.826   0.351
41596W        W 8379  44.443  14.277  11.537
41597W        W 8380  39.896  43.226   4.211
41598W        W 8381  30.892  35.805  12.444
41599W        W 8382  28.682   1.506   1.734
41600W        W 8383  41.603  14.905  13.755
41601W        W 8384   0.930  23.731  11.637
41602W        W 8385  40.361   6.925   4.217
41603W        W 8386  12.700  16.215   1.438
41604W        W 8387  42.991   0.834  11.966
41605W        W 8388  23.375   4.260  14.943
41606W        W 8389  33.066  23.970  12.544
41607W        W 8390  41.397  32.005  11.150
41608W        W 8391  31.190  34.408   2.748
41609W        W 8392  28.863  36.804  11.719
41610W        W 8393  31.641  17.381  11.107
41611W        W 8394  14.777  21.721  14.408
41612W        W 8395  20.757  25.192   0.549
41613W        W 8396   6.843  33.776   0.481
41614W        W 8397  17.104  10.670  11.632
41615W        W 8398   4.796  29.985   2.062
41616W        W 8399  23.165  10.870   0.408
41617W        W 8400   2.366  20.542  14.782
41618W        W 8401   1.397  12.037  10.907
41619W        W 8402  31.907  11.587  12.041
41620W        W 8403  44.080  25.832  13.271
41621W        W 8404  33.907  23.999  10.206
41622W        W 8405  21.085  21.991  14.339
41623W        W 8406   6.183  37.590   0.937
41624W        W 8407  19.037  20.087   0.766
41625W        W 8408  11.784  16.975  13.828
41626W        W 8409  39.966  19.977   3.585
41627W        W 8410   3.192  28.989   2.422
41628W        W 8411   6.149  15.354   2.296
41629W        W 8412   6.636  10.748  14.475
41630W        W 8413  12.373  26.818  11.864
41631W        W 8414  42.278  16.510   2.194
41632W        W 8415  20.667  33.150  10.487
41633W        W 8416  21.713  10.917  14.588
41634W        W 8417  12.800  19.203   3.689
41635W        W 8418  21.823  31.470  13.452
41636W        W 8419  18.284  20.697  14.425
41637W        W 8420  38.383  21.019   5.090
41638W        W 8421  14.679   8.650  12.451
41639W        W 8422  26.886  10.437  11.015
41640W        W 8423   4.475  16.754   4.935
41641W        W 8424  15.997   9.728  14.262
41642W        W 8425  39.063  35.836   2.773
41643W        W 8426   0.041  12.813   5.085
41644W        W 8427  36.481   8.880   4.616
41645W        W 8428   5.211  32.041   0.291
41646W        W 8429  29.409  27.898  13.176
41647W        W 8430  36.884  19.249   4.545
41648W        W 8431   9.121  41.792  12.337
41649W        W 8432  33.947  39.346   2.219
41650W        W 8433  31.919  14.615   0.788
41651W        W 8434  39.926  31.593   2.227
41652W        W 8435  41.334  27.492   4.928
41653W        W 8436  14.168  24.441   1.913
41654W        W 8437  36.480  21.270   5.037
41655W        W 8438  38.011  25.799   3.864
41656W        W 8439   9.840  22.797  12.083
41657W        W 8440   9.774  44.008   1.298
41658W        W 8441  19.936   2.242  11.975
41659W        W 8442  10.973  21.225   3.311
41660W        W 8443  19.275  32.445  11.177
41661W        W 8444   5.481  11.501  12.658
41662W        W 8445  32.480  22.257   4.062
41663W        W 8446  27.418  13.668   0.561
41664W        W 8447  29.856  16.600   3.245
41665W        W 8448  37.026  18.100   3.576
41666W        W 8449   4.608  17.995   1.122
41667W        W 8450  34.553   3.148  11.030
41668W        W 8451  32.582  38.139  13.082
41669W        W 8452  30.070  17.139   1.941
41670W        W 8453  10.888   5.772  11.987
41671W        W 8454  10.184  17.209   4.105
41672W        W 8455  39.468   0.261  12.917
41673W        W 8456   7.312  41.643   4.881
41674W        W 8457  40.230  24.876   1.177
41675W        W 8458  25.559  20.150  13.853
41676W        W 8459   5.457  28.575   3.357
41677W        W 8460  13.476  21.170   5.029
41678W        W 8461  20.555   7.003   0.430
41679W        W 8462  35.362  38.040  10.786
41680W        W 8463  41.425  23.460   2.574
41681W        W 8464  28.458  41.789   3.072
41682W        W 8465   7.566  22.614  13.568
41683W        W 8466  11.050  16.136   1.307
41684W        W 8467  23.466   4.944   1.178
41685W        W 8468   5.768   6.440   3.174
41686W        W 8469  14.854  38.963   2.358
41687W        W 8470  40.386  40.897  11.538
41688W        W 8471   1.515   8.457   1.957
41689W        W 8472  43.760  18.848  12.501
41690W        W 8473  29.123   7.037   1.782
41691W        W 8474  39.495  25.591  10.557
41692W        W 8475  25.317  16.753   3.263
41693W        W 8476  41.902  26.168  11.149
41694W        W 8477   8.439   3.546  12.372
41695W        W 8478  21.117  25.282   4.195
41696W        W 8479   6.261   3.920   0.106
41697W        W 8480  40.445  25.063   3.085
41698W        W 8481  20.623  33.029   3.698
41699W        W 8482  22.824  39.760   3.198
41700W        W 8483  15.418  12.836   2.786
41701W        W 8484  14.022  33.811  11.419
41702W        W 8485  33.167   4.555  13.545
41703W        W 8486  34.071   3.545  12.265
41704W        W 8487  16.315  40.980  14.862
41705W        W 8488  40.017  28.068   1.491
41706W        W 8489  22.483  20.454  14.724
41707W        W 8490   8.781  43.076  12.834
41708W        W 8491  12.095   5.782  10.631
41709W        W 8492  43.352  18.446  13.465
41710W        W 8493  30.057  35.455  14.739
41711W        W 8494  34.481  15.317   1.916
41712W        W 8495  14.516  22.498   2.670
41713W        W 8496   1.486   9.269  14.612
41714W        W 8497  44.582  43.769   1.559
41715W        W 8498   5.158  24.695   4.164
41716W        W 8499  43.011  13.886  13.103
41717W        W 8500  34.917  44.809  11.367
41718W        W 8501  24.558  27.469   2.432
41719W        W 8502  43.488  44.450   4.243
41720W        W 8503  19.295  19.648   0.843
41721W        W 8504  32.933  19.290   2.650
41722W        W 8505  42.022  22.641  14.238
41723W        W 8506  39.761  28.299   2.357
41724W        W 8507  18.737  34.399   2.771
41725W        W 8508  26.287  25.761   2.797
41726W        W 8509  39.370  14.084  13.527
41727W        W 8510   3.314  18.306  14.656
41728W        W 8511   3.788  39.989  10.273
41729W        W 8512   7.119  38.855   1.737
41730W        W 8513   0.206  21.952   4.051
41731W        W 8514  10.095  43.811   0.917
41732W        W 8515  13.468   6.208  13.859
41733W        W 8516  25.835  28.117  14.844
41734W        W 8517   8.747  42.715  10.966
41735W        W 8518   6.819  31.440   2.796
41736W        W 8519  43.588  10.856   1.539
41737W        W 8520  12.866   7.779   0.271
41738W        W 8521  10.691  18.061   2.785
41739W        W 8522  42.995   6.591   9.838
41740W        W 8523  18.957   0.440   3.731
41741W        W 8524  10.752  43.472   0.472
41742W        W 8525  35.293  28.479   3.150
41743W        W 8526  36.438  20.990  12.954
41744W        W 8527  18.421  38.035   0.867
41745W        W 8528  23.576  39.575  13.342
41746W        W 8529  10.244  24.837  14.269
41747W        W 8530   7.163  41.752   2.679
41748W        W 8531  17.257  21.597  14.062
41749W        W 8532  39.269  36.908  13.426
41750W        W 8533   9.360  16.710  10.646
41751W        W 8534  11.852   8.029   0.224
41752W        W 8535  23.696  27.449   2.402
41753W        W 8536  42.390  34.106   2.370
41754W        W 8537   1.880  28.927  11.599
41755W        W 8538  24.245  13.774   3.762
41756W        W 8539  38.868  42.903   3.269
41757W        W 8540  20.918  29.528   2.797
41758W        W 8541   4.452   6.726   4.575
41759W        W 8542  30.480   1.524   0.409
41760W        W 8543  29.699  44.964   2.161
41761W        W 8544  13.260  27.901  12.456
41762W        W 8545  34.267   6.758   1.330
41763W        W 8546   6.588  22.969  13.498
41764W        W 8547  22.244  16.610  12.557
41765W        W 8548  34.991  14.627   1.290
41766W        W 8549  21.768   6.473  12.101
41767W        W 8550   9.123  16.275  10.487
41768W        W 8551  31.253  19.084   3.826
41769W        W 8552  12.662   6.198  11.119
41770W        W 8553  44.609  14.284   3.535
41771W        W 8554  31.431  18.704  13.473
41772W        W 8555  25.344   1.703   4.226
41773W        W 8556  19.715  24.565  11.017
41774W        W 8557   5.728  41.416   2.674
41775W        W 8558  44.040  39.532   4.779
41776W        W 8559  39.543  43.384  14.483
41777W        W 8560  23.017  26.820  13.826
41778W        W 8561   9.898  28.549  12.921
41779W        W 8562  31.533   8.630   0.627
41780W        W 8563  25.243  20.229  14.410
41781W        W 8564  10.830   5.307   2.278
41782W        W 8565  19.839  26.716   1.343
41783W        W 8566   7.816   2.315  13.625
41784W        W 8567  43.989  19.479  13.809
41785W        W 8568  32.616  21.735   3.109
41786W        W 8569  39.495  32.671   1.483
41787W        W 8570   5.278  10.185  13.543
41788W        W 8571   5.861  35.990  14.886
41789W        W 8572  20.869  37.906   2.433
41790W        W 8573  11.876   5.233   5.056
41791W        W 8574  38.962  24.161   2.859
41792W        W 8575  36.532  33.648   5.082
41793W        W 8576  25.883  16.698  11.483
41794W        W 8577  24.540  44.715   4.802
41795W        W 8578  39.970   5.385  14.937
41796W        W 8579   0.784  36.362  11.670
41797W        W 8580   8.736   8.740   1.912
41798W        W 8581   0.034   1.350   1.890
41799W        W 8582  22.557   8.804   4.552
41800W        W 8583  18.520  38.997  13.324
41801W        W 8584   5.572  14.122   1.271
41802W        W 8585  21.534   6.858  10.786
41803W        W 8586  36.603   2.148   0.730
41804W        W 8587  25.944  37.347  13.852
41805W        W 8588  43.950  29.334  11.114
41806W        W 8589  14.277  12.835   1.258
41807W        W 8590   4.673  13.132  11.123
41808W        W 8591   3.813  10.149   1.391
41809W        W 8592  31.174   9.661  14.957
41810W        W 8593  42.480  28.022   2.704
41811W        W 8594  34.122  30.577  10.940
41812W        W 8595  43.097  35.638   2.883
41813W        W 8596   3.530  32.717  11.199
41814W        W 8597  10.489  16.682  13.405
41815W        W 8598   0.502  30.711  13.856
41816W        W 8599  33.224  18.119   5.149
41817W        W 8600   8.523  20.777  14.554
41818W        W 8601  27.931   6.733  13.825
41819W        W 8602  16.176  23.461  10.646
41820W        W 8603  20.550  41.723   0.653
41821W        W 8604   2.334  39.969  10.771
41822W        W 8605   3.467   5.052  12.926
41823W        W 8606  41.672   5.229   3.613
41824W        W 8607  11.878   5.312  12.491
41825W        W 8608  42.441  35.478   4.229
41826W        W 8609  40.377   3.782   3.969
41827W        W 8610  16.304  13.377   3.308
41828W        W 8611  27.718  23.093  13.129
41829W        W 8612  11.701  35.356   3.554
41830W        W 8613  33.371  27.965  11.008
41831W        W 8614  43.846  16.894  14.542
41832W        W 8615  12.988  14.535  12.159
41833W        W 8616   8.217  41.461   3.483
41834W        W 8617   7.412  14.873  11.560
41835W        W 8618   7.998   6.557  10.519
41836W        W 8619  24.267  11.090  14.092
41837W        W 8620  33.883  33.106  13.434
41838W        W 8621   1.594  26.704   0.907
41839W        W 8622  13.716   4.269  14.489
41840W        W 8623   2.586  40.277   1.792
41841W        W 8624  29.103  21.593   3.752
41842W        W 8625  21.903  44.030  14.813
41843W        W 8626   4.020  27.676  14.373
41844W        W 8627  22.018  18.609  11.087
41845W        W 8628  29.903  39.595  14.044
41846W        W 8629   4.715  41.606   1.963
41847W        W 8630  35.100  40.299   4.321
41848W        W 8631  33.898  22.224  13.526
41849W        W 8632  21.737  37.104  13.405
41850W        W 8633  39.053  24.698   4.687
41851W        W 8634  43.161  10.747   9.847
41852W        W 8635  37.605  12.189  11.188
41853W        W 8636  25.113   6.299   1.325
41854W        W 8637  11.640  10.862  13.544
41855W        W 8638  27.181  14.112   0.790
41856W        W 8639   1.773  14.734  12.940
41857W        W 8640  37.496  17.657  10.595
41858W        W 8641  30.656  25.422  10.863
41859W        W 8642  38.732  10.836  13.431
41860W        W 8643  30.730  18.363  11.568
41861W        W 8644  36.881  43.186  11.703
41862W        W 8645  18.020   9.311   4.489
41863W        W 8646  20.405  25.559  14.309
41864W        W 8647  19.289   9.277  10.590
41865W        W 8648   3.470   7.921  11.634
41866W        W 8649  20.178   7.052   4.191
41867W        W 8650  22.433   0.857   9.735
41868W        W 8651  21.595  21.876   4.588
41869W        W 8652   6.776  12.783  14.371
41870W        W 8653  32.531   8.759   3.685
41871W        W 8654  40.256  16.822  10.963
41872W        W 8655  33.016  20.705  11.262
41873W        W 8656  42.209  37.095  13.568
41874W        W 8657  15.584   6.939   1.140
41875W        W 8658  28.529  15.736  13.801
41876W        W 8659  19.580  31.855   3.874
41877W        W 8660   8.846  40.442   0.955
41878W        W 8661   9.297  16.285  14.336
41879W        W 8662  13.807  41.902   0.901
41880W        W 8663  44.320  42.421   2.785
41881W        W 8664  18.492   7.982   0.811
41882W        W 8665   4.340  22.351  13.923
41883W        W 8666  12.694  32.409  14.816
41884W        W 8667  11.011  39.846  12.309
41885W        W 8668  10.746  42.943   1.410
41886W        W 8669  32.837  26.940   3.201
41887W        W 8670  40.414  30.456   0.858
41888W        W 8671  37.744   2.072   4.964
41889W        W 8672   9.660  34.986   1.847
41890W        W 8673  28.100  38.885   0.825
41891W        W 8674  18.555  31.386   3.767
41892W        W 8675  30.898  22.155  12.962
41893W        W 8676  42.027   4.896  14.947
41894W        W 8677   2.663  25.844  14.400
41895W        W 8678  17.292  30.427   4.540
41896W        W 8679   2.199  12.361   3.307
41897W        W 8680   1.427   0.024  13.474
41898W        W 8681   3.931  13.167   1.487
41899W        W 8682  32.577  18.284   1.840
41900W        W 8683  40.444  33.644  10.745
41901W        W 8684  42.908  18.061  12.327
41902W        W 8685  32.985   9.281   4.439
41903W        W 8686  15.658  19.060   1.585
41904W        W 8687  37.433  29.376  13.414
41905W        W 8688  22.686  24.972  13.026
41906W        W 8689  42.307   5.882  12.027
41907W        W 8690  17.825   9.247  10.460
41908W        W 8691  21.043  36.951  13.851
41909W        W 8692  25.875  19.062   4.014
41910W        W 8693   4.735   2.528   4.702
41911W        W 8694  21.965  26.639  12.006
41912W        W 8695  43.940  11.259   4.107
41913W        W 8696  12.067  35.988   5.235
41914W        W 8697  42.914  28.371   3.367
41915W        W 8698   0.908  12.448  12.080
41916W        W 8699   5.362  14.001   4.302
41917W        W 8700  37.109  17.183   0.529
41918W        W 8701   5.115   7.655   0.325
41919W        W 8702  14.221  16.046  13.871
41920W        W 8703   1.291  37.601   0.258
41921W        W 8704  43.771  43.850  11.630
41922W        W 8705  14.294   7.372   5.469
41923W        W 8706  38.020  12.151   0.787
41924W        W 8707  33.439  25.787  12.565
41925W        W 8708  13.793  37.082  11.586
41926W        W 8709  36.218  40.371   0.530
41927W        W 8710  43.482   8.699   2.643
41928W        W 8711  26.804   7.223   5.050
41929W        W 8712  28.554  31.940   2.338
41930W        W 8713  41.920  42.283   2.968
41931W        W 8714  42.214  34.980   1.664
41932W        W 8715  11.237   9.855  10.335
41933W        W 8716  19.807  39.438   0.318
41934W        W 8717   9.445  39.825   2.731
41935W        W 8718   7.483  35.492  14.709
41936W        W 8719  25.095  23.679   0.797
41937W        W 8720   6.190   0.114  13.106
41938W        W 8721  10.236   2.478  13.846
41939W        W 8722  26.073  42.497  14.855
41940W        W 8723   5.377   2.205   3.651
41941W        W 8724  21.985  14.097  11.050
41942W        W 8725  13.149  22.489   0.737
41943W        W 8726  17.274  35.532   1.707
41944W        W 8727  10.723  14.511   3.226
41945W        W 8728  17.216  11.918  10.486
41946W        W 8729  10.495  40.526   2.350
41947W        W 8730  37.549  41.733  14.996
41948W        W 8731  27.937  40.984  13.447
41949W        W 8732  15.557  43.453   1.567
41950W        W 8733  42.848  23.208   2.711
41951W        W 8734   5.656  25.529  11.145
41952W        W 8735  23.808  10.435   1.998
41953W        W 8736  31.009  44.182   0.215
41954W        W 8737  44.842  38.099  11.905
41955W        W 8738  11.189  35.568   2.758
41956W        W 8739  25.233   8.341  13.890
41957W        W 8740   0.313  28.135  12.581
41958W        W 8741   3.411   1.533  11.455
41959W        W 8742  12.304   1.459   0.309
41960W        W 8743  12.433  29.566   2.870
41961W        W 8744  27.545  19.800   2.311
41962W        W 8745  24.701  19.802  13.836
41963W        W 8746  33.105   3.458   9.936
41964W        W 8747   9.385   5.672   2.713
41965W        W 8748  28.968  19.631   0.689
41966W        W 8749   8.212  28.955   4.024
41967W        W 8750  33.358  32.078  11.682
41968W        W 8751  19.562  19.632   1.297
41969W        W 8752  24.025  13.600   1.850
41970W        W 8753  31.934   4.712   3.329
41971W        W 8754  30.812   8.788   4.951
41972W        W 8755  31.038  34.073   0.387
41973W        W 8756  16.429   6.411   3.785
41974W        W 8757  32.668  10.345  14.782
41975W        W 8758  15.268  19.057   4.365
41976W        W 8759   4.775  19.747   3.632
41977W        W 8760   1.173   1.962  11.508
41978W        W 8761  34.083  24.467  11.560
41979W        W 8762  30.518   3.790  12.399
41980W        W 8763  13.709  20.283   3.697
41981W        W 8764  32.602  29.998   3.896
41982W        W 8765  33.413  18.075  11.213
41983W        W 8766  38.290  12.866  11.895
41984W        W 8767  36.914  38.821   1.252
41985W        W 8768  16.784   7.782   3.529
41986W        W 8769  10.590  24.524   4.282
41987W        W 8770  16.604  15.194  14.946
41988W        W 8771  41.480  30.891   3.881
41989W        W 8772  30.428  15.299   3.999
41990W        W 8773   2.877  12.217   4.614
41991W        W 8774  25.026  13.227   1.793
41992W        W 8775   0.842  37.583  13.945
41993W        W 8776  22.044   5.659   0.405
41994W        W 8777   2.386   5.090  13.507
41995W        W 8778  13.549  41.921   3.819
41996W        W 8779   7.660  35.807  13.464
41997W        W 8780  37.384  22.206   4.196
41998W        W 8781  18.471  13.638   0.023
41999W        W 8782  36.623  13.371  12.913
42000W        W 8783  24.255  31.518  13.072
42001W        W 8784  37.506  17.224  11.226
42002W        W 8785   9.470  37.615  11.108
42003W        W 8786  33.187   4.349   0.960
42004W        W 8787  29.129  41.403   1.022
42005W        W 8788  38.356   5.140   0.708
42006W        W 8789  26.614  34.560  10.665
42007W        W 8790  10.656  43.737   4.586
42008W        W 8791   2.420   7.308  14.297
42009W        W 8792  27.728  27.637   3.329
42010W        W 8793  35.340  33.882  11.143
42011W        W 8794  21.697  15.285   3.805
42012W        W 8795  29.650  30.925  14.348
42013W        W 8796  28.549  22.331  10.915
42014W        W 8797  33.385  18.580  12.428
42015W        W 8798   0.371   5.845   4.253
42016W        W 8799  11.569  25.248  11.552
42017W        W 8800  20.962  13.411   4.649
42018W        W 8801  32.209  21.131  11.913
42019W        W 8802  32.521  17.052  13.855
42020W        W 8803  22.704  22.074   1.425
42021W        W 8804  41.456   0.960  13.048
42022W        W 8805   7.859   4.720   3.003
42023W        W 8806   6.487  39.165   1.153
42024W        W 8807  27.046  28.072   1.742
42025W        W 8808  35.952   1.995   0.522
42026W        W 8809   3.313  34.815   0.945
42027W        W 8810  10.238  37.912  12.526
42028W        W 8811   1.850  41.437  11.872
42029W        W 8812  25.121  20.338   4.388
42030W        W 8813  37.489  38.022   4.047
42031W        W 8814  29.230  23.020   4.714
42032W        W 8815  20.238   2.467  13.949
42033W        W 8816  15.419  28.947  14.479
42034W        W 8817  36.599  11.235  10.642
42035W        W 8818  32.893  31.186  14.898
42036W        W 8819  24.670  36.529   2.111
42037W        W 8820  21.706  24.768  13.019
42038W        W 8821  33.481   4.102   3.731
42039W        W 8822  40.063   9.460   9.826
42040W        W 8823   6.638  14.702  11.232
42041W        W 8824  43.960  24.724   3.377
42042W        W 8825   3.452  15.151   4.648
42043W        W 8826   3.083   3.505  10.283
42044W        W 8827  20.782  44.775  14.562
42045W        W 8828   8.442  43.839  11.418
42046W        W 8829  32.267  29.144  11.950
42047W        W 8830  34.788   5.656  14.649
42048W        W 8831   4.382  19.314   2.550
42049W        W 8832  35.335  29.896  11.569
42050W        W 8833   2.515  14.959  11.151
42051W        W 8834  35.139  37.826   0.786
42052W        W 8835  11.197  19.615   1.957
42053W        W 8836  32.700  23.585  12.564
42054W        W 8837   1.351  21.128  14.967
42055W        W 8838   0.021  21.527  11.119
42056W        W 8839   6.876   1.673   2.767
42057W        W 8840  28.018  26.184  10.235
42058W        W 8841  16.144  19.300  11.693
42059W        W 8842   0.910  23.726   0.302
42060W        W 8843   8.282  40.933   1.631
42061W        W 8844  31.805  40.041  11.916
42062W        W 8845  42.743  17.674  12.037
42063W        W 8846  23.960  35.554  11.116
42064W        W 8847  21.015   0.111   1.520
42065W        W 8848  29.241  17.535   3.842
42066W        W 8849  33.376  26.687  14.559
42067W        W 8850  13.909   4.837  11.119
42068W        W 8851  14.256  17.518  13.561
42069W        W 8852   2.189  12.884  13.428
42070W        W 8853  35.454  24.014  12.160
42071W        W 8854  28.063  33.421  13.682
42072W        W 8855   8.593   5.376  10.705
42073W        W 8856  16.959  35.118   1.560
42074W        W 8857  16.744  18.573  10.637
42075W        W 8858  44.753  17.743  13.382
42076W        W 8859  42.445  37.421  10.718
42077W        W 8860  34.014   4.362   3.577
42078W        W 8861   4.750   0.475  11.005
42079W        W 8862  32.607  38.368  10.574
42080W        W 8863  22.911  23.382  13.176
42081W        W 8864  29.517  14.324   9.701
42082W        W 8865  15.877   1.292  12.086
42083W        W 8866  16.365  44.291   2.293
42084W        W 8867  26.167  33.375   3.659
42085W        W 8868   8.522  35.582   3.075
42086W        W 8869  24.398  33.203  14.953
42087W        W 8870  27.056   1.762  12.421
42088W        W 8871   7.319  29.476   3.619
42089W        W 8872  32.151  33.204   3.124
42090W        W 8873  30.887  42.437   2.196
42091W        W 8874   8.758  34.873   0.392
42092W        W 8875  41.340  23.448  13.040
42093W        W 8876  33.743  26.566  11.999
42094W        W 8877  24.581  30.587   3.276
42095W        W 8878   2.520  37.249   3.803
42096W        W 8879   9.373   9.289  14.820
42097W        W 8880  42.379   8.832  14.586
42098W        W 8881  22.729  15.534   2.774
42099W        W 8882  32.486  21.240   3.070
42100W        W 8883   8.741  31.914   1.653
42101W        W 8884  44.642  44.415   0.852
42102W        W 8885  23.023  10.638   0.864
42103W        W 8886  15.648  33.583  14.502
42104W        W 8887   7.625   1.446  12.753
42105W        W 8888  41.535   1.223   3.349
42106W        W 8889  38.645  34.738  12.553
42107W        W 8890  14.691  29.628   2.651
42108W        W 8891  21.639  39.881  14.266
42109W        W 8892  39.694  22.498  10.688
42110W        W 8893  12.334  14.827  12.791
42111W        W 8894  41.987  31.983  11.389
42112W        W 8895  30.625  35.404  12.023
42113W        W 8896   6.979   3.898  11.517
42114W        W 8897  16.672  23.494   1.929
42115W        W 8898  15.303  43.889   4.681
42116W        W 8899   8.208  18.140   0.895
42117W        W 8900  44.600   2.739  10.094
42118W        W 8901   9.836  41.838  10.733
42119W        W 8902   5.836  28.016   4.498
42120W        W 8903  41.999  37.353   4.715
42121W        W 8904  12.731   6.505   0.176
42122W        W 8905  25.530  12.870  14.503
42123W        W 8906  36.160  41.465   3.708
42124W        W 8907  24.445  13.859   2.611
42125W        W 8908  23.262  27.511   2.125
42126W        W 8909  19.252  25.236  10.380
42127W        W 8910  20.812  36.892   3.668
42128W        W 8911  21.664  44.744   1.028
42129W        W 8912  30.951   0.844   3.177
42130W        W 8913   9.431   4.724  13.955
42131W        W 8914  33.639  23.707   0.893
42132W        W 8915  37.590  18.229   2.108
42133W        W 8916  38.549  43.759   1.196
42134W        W 8917  24.097  10.829  13.311
42135W        W 8918   6.177  28.992  12.932
42136W        W 8919  41.465   5.302   4.528
42137W        W 8920   9.279  13.422  11.172
42138W        W 8921  43.989   2.415  13.851
42139W        W 8922   3.809  10.752   1.521
42140W        W 8923  42.701  30.442   3.096
42141W        W 8924  35.489   4.178  10.995
42142W        W 8925  22.858  39.918   1.889
42143W        W 8926   1.258  41.052  14.794
42144W        W 8927   2.907  27.046  14.276
42145W        W 8928  10.437  31.203  13.960
42146W        W 8929   1.388  25.685   0.778
42147W        W 8930  19.093  23.310   2.712
42148W        W 8931   3.356   0.236  13.486
42149W        W 8932  39.495  40.564  11.864
42150W        W 8933   0.799  23.586  10.734
42151W        W 8934  35.505  40.664  14.057
42152W        W 8935   1.731  39.958   2.380
42153W        W 8936  33.965  30.845  14.515
42154W        W 8937   2.766  30.733  10.595
42155W        W 8938  34.926  10.930   4.229
42156W        W 8939  30.709  27.442   4.627
42157W        W 8940  15.140  17.592   3.253
42158W        W 8941  12.143  33.348  13.994
42159W        W 8942  23.181  44.939   0.329
42160W        W 8943  28.341  43.260   2.690
42161W        W 8944  25.710  37.388   3.502
42162W        W 8945  37.011  30.936  10.500
42163W        W 8946  36.048  15.129   0.746
42164W        W 8947  28.255  31.501  10.712
42165W        W 8948   6.187   3.110   4.062
42166W        W 8949  14.053  27.185   1.272
42167W        W 8950  30.663   7.932   1.865
42168W        W 8951  16.232  44.207  11.658
42169W        W 8952  26.324  25.792   0.806
42170W        W 8953   7.113  12.811   4.117
42171W        W 8954  17.506  36.121  11.931
42172W        W 8955  20.282   5.680  13.379
42173W        W 8956  10.747   0.500   0.370
42174W        W 8957  36.578  32.080  10.678
42175W        W 8958  31.654   7.194  13.888
42176W        W 8959  38.869   7.470  14.824
42177W        W 8960  24.534   2.024   0.037
42178W        W 8961  17.137  13.591  13.868
42179W        W 8962  41.106  21.156   0.001
42180W        W 8963  18.758   7.605   4.997
42181W        W 8964  14.614   9.342   2.315
42182W        W 8965   1.167   4.145  14.808
42183W        W 8966  36.399  23.189  12.646
42184W        W 8967  14.294  44.296   0.383
42185W        W 8968  16.211  41.909  14.580
42186W        W 8969  10.846  29.472  11.566
42187W        W 8970  31.857   7.399   4.576
42188W        W 8971  39.126  30.370   1.252
42189W        W 8972  24.033  27.911  14.993
42190W        W 8973  42.806  12.728   1.770
42191W        W 8974  32.014  40.094  11.208
42192W        W 8975  38.410  40.301  13.531
42193W        W 8976  36.270  26.584   0.903
42194W        W 8977  15.354  13.339   1.220
42195W        W 8978  27.537  39.629   0.858
42196W        W 8979  30.325  28.001   1.521
42197W        W 8980  40.998  24.914   0.777
42198W        W 8981  37.825  44.485  14.783
42199W        W 8982  39.145  37.289  14.424
42200W        W 8983  32.618  31.216   0.328
42201W        W 8984  11.657  10.354  13.310
42202W        W 8985  40.766  32.328   0.797
42203W        W 8986   9.885  28.600   3.302
42204W        W 8987  18.874   6.165  12.764
42205W        W 8988  25.630  43.307  13.437
42206W        W 8989  29.886   8.894  14.323
42207W        W 8990   7.560   8.742   2.051
42208W        W 8991  30.968   8.829  10.752
42209W        W 8992  12.013  44.417   4.444
42210W        W 8993  27.167   0.006  14.846
42211W        W 8994  15.621  39.699   0.365
42212W        W 8995  25.484   2.757   1.773
42213W        W 8996  23.380  22.295   5.002
42214W        W 8997   3.838  44.754  13.900
42215W        W 8998  14.056   0.295  10.685
42216W        W 8999  44.430  21.767   4.741
42217W        W 9000   2.915   7.668   0.335
42218W        W 9001  36.729  20.513   4.116
42219W        W 9002  17.286  37.124  11.026
42220W        W 9003  18.068  25.173  12.354
42221W        W 9004  27.639  42.865  12.122
42222W        W 9005   2.164   5.224   2.268
42223W        W 9006  23.570  42.034  14.905
42224W        W 9007  17.663  11.683  10.252
42225W        W 9008  33.331   0.271   1.333
42226W        W 9009  13.621  11.920  13.382
42227W        W 9010   3.375  26.091   5.043
42228W        W 9011  29.337  26.071  12.936
42229W        W 9012   0.150  14.332  12.001
42230W        W 9013  42.322  14.627   2.205
42231W        W 9014  37.646  32.357   3.132
42232W        W 9015   8.837  33.564   0.566
42233W        W 9016  27.879   7.202   3.226
42234W        W 9017   7.328  36.143   2.370
42235W        W 9018  25.089  33.615  14.389
42236W        W 9019  19.963  17.104  12.410
42237W        W 9020  28.563  14.754   3.921
42238W        W 9021  25.158  15.447  13.577
42239W        W 9022  36.040   8.705   1.462
42240W        W 9023  26.997   5.725   2.682
42241W        W 9024  29.876  28.439  12.778
42242W        W 9025  11.896  27.461  13.931
42243W        W 9026  39.515  36.047   2.915
42244W        W 9027  44.571  22.021  10.709
42245W        W 9028   0.267   5.098  14.349
42246W        W 9029  19.147   3.969  11.638
42247W        W 9030  39.770  22.076  11.932
42248W        W 9031  32.279  44.189   0.298
42249W        W 9032  21.615  38.044  11.503
42250W        W 9033  27.935   5.274  12.978
42251W        W 9034  16.305   3.470   1.735
42252W        W 9035   6.425  13.528   2.601
42253W        W 9036  44.712  26.754   0.820
42254W        W 9037  38.493  33.493   4.045
42255W        W 9038   7.336  31.534  11.495
42256W        W 9039  44.664  29.967  12.931
42257W        W 9040  13.568   7.205   0.802
42258W        W 9041  36.994  41.824   1.637
42259W        W 9042  22.009  18.746   2.798
42260W        W 9043  10.251  38.820  12.369
42261W        W 9044   0.964  20.680   0.420
42262W        W 9045  20.347  31.824  13.431
42263W        W 9046  17.445  28.569   1.235
42264W        W 9047  13.057   2.672  14.020
42265W        W 9048  40.382  35.396  12.536
42266W        W 9049  19.348  13.623   0.753
42267W        W 9050  39.388   3.924  14.052
42268W        W 9051   2.060  20.750  11.643
42269W        W 9052  19.506   7.259   1.191
42270W        W 9053  43.485  43.856  12.079
42271W        W 9054  29.914  43.691   2.160
42272W        W 9055   5.358  35.257  10.722
42273W        W 9056   6.645  39.570   1.471
42274W        W 9057  18.159   3.994   1.462
42275W        W 9058  26.334  36.985  13.747
42276W        W 9059  18.293  19.829  14.576
42277W        W 9060  40.015  18.085  10.675
42278W        W 9061  11.783  31.502  14.541
42279W        W 9062  13.180  37.910  11.577
42280W        W 9063  12.482  16.549  12.497
42281W        W 9064   9.855  16.653   2.553
42282W        W 9065   6.990   9.697  12.670
42283W        W 9066   6.389  38.768  10.633
42284W        W 9067  22.059  19.368  13.172
42285W        W 9068   1.927  14.048  14.472
42286W        W 9069  21.310   5.478  14.225
42287W        W 9070  10.275  36.764   4.538
42288W        W 9071   6.206   8.843   4.957
42289W        W 9072  27.080  26.619   0.389
42290W        W 9073  11.045   5.155  11.034
42291W        W 9074  40.549  43.572  12.027
42292W        W 9075  30.331  42.510  13.884
42293W        W 9076  36.900   3.802   4.660
42294W        W 9077  35.376  17.829  11.965
42295W        W 9078  15.841  16.114  11.028
42296W        W 9079  21.671   0.200   2.383
42297W        W 9080   6.195   2.716  10.337
42298W        W 9081  32.955   1.694   4.333
42299W        W 9082  30.062  32.508   0.767
42300W        W 9083  17.509  17.217  11.829
42301W        W 9084   1.512   8.346   0.437
42302W        W 9085  15.384  31.911  13.092
42303W        W 9086  22.587  35.329   4.374
42304W        W 9087  30.608  11.717   1.023
42305W        W 9088  36.194  14.093   2.892
42306W        W 9089  27.405  24.978   1.839
42307W        W 9090  36.478  12.020   2.873
42308W        W 9091   7.206  19.189  10.441
42309W        W 9092  24.609  24.004  11.093
42310W        W 9093  28.992  34.182   2.291
42311W        W 9094  13.588  11.558   1.112
42312W        W 9095  15.491  17.778   3.583
42313W        W 9096   1.459   5.737   3.657
42314W        W 9097  25.295  39.538  12.591
42315W        W 9098  38.071  17.679   2.749
42316W        W 9099  44.333  10.662  11.499
42317W        W 9100  35.813  13.555   4.194
42318W        W 9101   9.357  36.357   2.756
42319W        W 9102  29.628  15.773   3.043
42320W        W 9103  10.835  13.567   2.336
42321W        W 9104  43.250  25.108   4.700
42322W        W 9105  32.979  44.006  12.044
42323W        W 9106  30.722  15.999  13.887
42324W        W 9107  25.743   3.290   5.031
42325W        W 9108  42.580  26.986  12.322
42326W        W 9109  30.664   0.403   4.039
42327W        W 9110  29.446  36.499   4.142
42328W        W 9111   6.834   3.467  13.347
42329W        W 9112  36.461  40.655   4.126
42330W        W 9113  34.001   4.346  12.014
42331W        W 9114  41.106   2.332   1.919
42332W        W 9115  17.590  19.760  10.481
42333W        W 9116  44.577  43.114  14.803
42334W        W 9117  15.710  10.707   0.411
42335W        W 9118   1.259  21.078   1.879
42336W        W 9119  30.596  37.524  14.431
42337W        W 9120  38.794  41.596   2.267
42338W        W 9121  39.839  16.334  14.404
42339W        W 9122  28.564  27.670  13.289
42340W        W 9123  41.988  42.949  11.454
42341W        W 9124   3.215  41.792  10.830
42342W        W 9125   3.957   1.794   2.619
42343W        W 9126  16.070  25.428  11.942
42344W        W 9127  11.560  19.521  14.635
42345W        W 9128  25.457  10.707   2.849
42346W        W 9129   6.037  38.962   1.313
42347W        W 9130  25.442  43.985  14.988
42348W        W 9131  23.286  21.979   0.819
42349W        W 9132   8.359  33.129  11.277
42350W        W 9133  10.686  35.904  12.890
42351W        W 9134  13.065  13.361  10.469
42352W        W 9135   4.235  11.805  13.926
42353W        W 9136  10.868  12.163  14.923
42354W        W 9137  21.144  10.798  12.450
42355W        W 9138  33.175  25.274  13.840
42356W        W 9139   2.263  28.754   3.306
42357W        W 9140  23.782  19.049  14.795
42358W        W 9141  25.162   2.699   0.877
42359W        W 9142  11.207  28.209   2.362
42360W        W 9143  41.862   3.041  12.954
42361W        W 9144   6.899  43.485   0.372
42362W        W 9145  10.158  24.010   2.233
42363W        W 9146  37.436   1.798   3.739
42364W        W 9147  25.636  16.917  12.730
42365W        W 9148   7.326  43.177   0.366
42366W        W 9149  30.994  22.237   0.381
42367W        W 9150  39.569   8.914   1.480
42368W        W 9151  32.876  30.569  12.106
42369W        W 9152  18.015  13.633   4.254
42370W        W 9153  42.260   2.528   2.563
42371W        W 9154  21.290  10.963  10.253
42372W        W 9155  12.482  43.055  13.540
42373W        W 9156  37.034  36.578   4.217
42374W        W 9157  26.217   8.112   0.749
42375W        W 9158   6.745  25.052  12.395
42376W        W 9159   1.486  29.865   4.028
42377W        W 9160  33.753   4.213  11.572
42378W        W 9161  35.129   4.701  11.924
42379W        W 9162  38.811  14.731   4.618
42380W        W 9163  29.992  36.300  12.474
42381W        W 9164  18.555   0.206  14.535
42382W        W 9165  16.784  24.057  13.670
42383W        W 9166  27.840  12.048   4.103
42384W        W 9167  32.579  29.937   0.020
42385W        W 9168  21.256  14.556  10.798
42386W        W 9169  39.284  34.299  11.455
42387W        W 9170  22.117  11.167   3.667
42388W        W 9171   3.767  17.519  12.137
42389W        W 9172  16.203  11.125  14.027
42390W        W 9173  11.694  18.347  13.342
42391W        W 9174   7.507   6.343  13.487
42392W        W 9175  25.147   7.852   3.621
42393W        W 9176   1.612  37.046  11.557
42394W        W 9177  25.261  34.502  11.533
42395W        W 9178  29.050  16.841  12.625
42396W        W 9179  14.320  44.194   4.511
42397W        W 9180  18.622  44.480   1.441
42398W        W 9181  21.240  36.375  11.121
42399W        W 9182   3.282  36.142   1.248
42400W        W 9183   6.658   5.858   3.153
42401W        W 9184   9.187  39.584   1.888
42402W        W 9185   2.990  32.042   3.152
42403W        W 9186  38.919  38.069   0.275
42404W        W 9187  38.239   5.786  10.401
42405W        W 9188  12.145  38.406   3.790
42406W        W 9189  33.552  17.752  11.972
42407W        W 9190  33.090  14.594  14.331
42408W        W 9191  24.782  32.566   4.581
42409W        W 9192  11.045  21.226  13.116
42410W        W 9193  38.865  29.590   0.918
42411W        W 9194   2.434  39.176   2.158
42412W        W 9195  27.025  18.231   5.348
42413W        W 9196   7.297  40.573   0.332
42414W        W 9197   0.589  11.116  11.598
42415W        W 9198  16.266  41.875  12.771
42416W        W 9199  31.216  37.960  12.643
42417W        W 9200  31.317  37.570   0.744
42418W        W 9201  20.179  35.437  12.153
42419W        W 9202   3.350  25.471   1.165
42420W        W 9203   1.702   7.275   4.673
42421W        W 9204  27.525  38.318   0.213
42422W        W 9205   7.437  19.150   2.980
42423W        W 9206  41.073  24.750  13.512
42424W        W 9207  22.485  39.856  11.040
42425W        W 9208  17.768   2.046  13.297
42426W        W 9209  17.495  25.123   2.719
42427W        W 9210  23.902  11.149  11.372
42428W        W 9211   2.926  36.019   0.847
42429W        W 9212  40.968  40.863  12.378
42430W        W 9213  13.507   3.948   1.336
42431W        W 9214  36.007  14.349  10.773
42432W        W 9215  43.573  36.251  12.437
42433W        W 9216   9.792  26.118  14.017
42434W        W 9217  16.796  25.207  12.933
42435W        W 9218  15.170  23.123  11.986
42436W        W 9219  41.788   5.823  12.982
42437W        W 9220   4.039  13.742  11.097
42438W        W 9221  12.158  19.000  12.861
42439W        W 9222  35.906  31.897   4.843
42440W        W 9223  20.968   0.443   0.725
42441W        W 9224  44.066   7.685   0.870
42442W        W 9225  29.340  27.962   3.627
42443W        W 9226  23.521  20.543  13.633
42444W        W 9227   2.384  36.508   1.653
42445W        W 9228  21.144  16.768  12.574
42446W        W 9229  43.112  40.125  12.451
42447W        W 9230  12.182  43.850   2.335
42448W        W 9231   2.877  25.603   5.000
42449W        W 9232  43.628  33.286  12.590
42450W        W 9233  18.668  42.022  12.808
42451W        W 9234  33.282  28.076   3.311
42452W        W 9235  41.996  23.693   2.255
42453W        W 9236  31.932  36.634  12.455
42454W        W 9237  15.774  10.256   2.182
42455W        W 9238   8.750  19.965   5.147
42456W        W 9239   6.032  42.591  11.280
42457W        W 9240  27.564   0.184   3.776
42458W        W 9241  27.566  43.778   4.661
42459W        W 9242  17.495  25.711   0.233
42460W        W 9243  28.125  43.079  14.936
42461W        W 9244   5.247   1.848  13.957
42462W        W 9245   4.933  18.874  14.755
42463W        W 9246  20.994  44.030   0.804
42464W        W 9247   8.228   0.815   1.797
42465W        W 9248   7.738  22.893   4.765
42466W        W 9249  39.568  22.680   4.162
42467W        W 9250  10.091   1.462   2.753
42468W        W 9251  20.189  12.561  14.472
42469W        W 9252  18.395  11.692   4.908
42470W        W 9253  19.133  10.335   2.381
42471W        W 9254  37.654  23.350  12.378
42472W        W 9255  17.174  21.668  12.538
42473W        W 9256  43.447  29.431  13.593
42474W        W 9257  32.973  44.835   2.349
42475W        W 9258  39.360  24.626  11.194
42476W        W 9259   2.905  36.996  11.647
42477W        W 9260   7.259  23.989  14.694
42478W        W 9261  35.539  42.718  13.652
42479W        W 9262  40.713  21.479   1.892
42480W        W 9263   4.540  38.816  14.710
42481W        W 9264  15.828   5.236  14.176
42482W        W 9265  32.143  41.315  11.753
42483W        W 9266   4.265  26.095   1.814
42484W        W 9267   3.456  17.485  14.434
42485W        W 9268  39.392  33.404   3.872
42486W        W 9269  18.770  39.465  14.492
42487W        W 9270  26.698  10.829   3.256
42488W        W 9271  24.958  37.121  13.430
42489W        W 9272  35.107  22.040   2.422
42490W        W 9273  44.831   1.200   2.346
42491W        W 9274  36.184  26.101   1.626
42492W        W 9275  19.553  39.868  10.732
42493W        W 9276  23.378  16.169  12.471
42494W        W 9277  25.503  30.637   0.368
42495W        W 9278  23.800  12.889  14.132
42496W        W 9279  29.359  15.693   0.877
42497W        W 9280  25.538  21.584  11.486
42498W        W 9281   8.832   7.610   4.042
42499W        W 9282  11.422  13.840  12.383
42500W        W 9283  25.573  16.275  11.572
42501W        W 9284  14.056  16.057   1.444
42502W        W 9285   2.952  26.070   4.712
42503W        W 9286  35.334  30.162   0.314
42504W        W 9287  23.588  27.655  11.171
42505W        W 9288  29.136   1.502  14.695
42506W        W 9289  32.739  42.125   3.407
42507W        W 9290   4.873  12.219   1.827
42508W        W 9291   2.685  24.605   4.425
42509W        W 9292  32.227  40.054   4.611
42510W        W 9293  22.969  27.568  14.670
42511W        W 9294  18.488  30.528   2.683
42512W        W 9295   0.492   7.095   2.342
42513W        W 9296  41.495  43.977  11.985
42514W        W 9297  32.416  23.472  14.057
42515W        W 9298   2.815   8.907  12.565
42516W        W 9299   8.487   3.055   1.875
42517W        W 9300  43.067   1.677   4.825
42518W        W 9301  29.705  36.054  12.129
42519W        W 9302  27.658  19.563   3.217
42520W        W 9303  25.097  28.389  12.962
42521W        W 9304  27.591  32.794   3.683
42522W        W 9305  28.594   2.742  10.742
42523W        W 9306   3.723  42.945  13.051
42524W        W 9307   9.730  30.877  13.598
42525W        W 9308  39.736  42.888  11.497
42526W        W 9309  14.563  30.431   5.015
42527W        W 9310   6.502  11.821  14.140
42528W        W 9311   8.548  16.836  12.541
42529W        W 9312  39.140  17.460  12.624
42530W        W 9313  44.877  22.714   4.632
42531W        W 9314  14.273   3.941  11.835
42532W        W 9315  44.307  35.068  13.834
42533W        W 9316  25.932  20.941   2.404
42534W        W 9317  37.079  30.075   0.918
42535W        W 9318  30.380  12.221   1.771
42536W        W 9319  13.959  38.639   1.412
42537W        W 9320  33.022   5.164  14.825
42538W        W 9321  10.829   7.624   2.202
42539W        W 9322  18.478  40.263  14.319
42540W        W 9323  43.135  44.062   4.084
42541W        W 9324  17.378   4.200   1.331
42542W        W 9325  35.910  30.837   3.420
42543W        W 9326  22.348   7.842   2.531
42544W        W 9327   3.250  31.527   0.828
42545W        W 9328  25.683  22.033   4.104
42546W        W 9329  31.760  10.704   4.458
42547W        W 9330  43.504   9.586   2.153
42548W        W 9331  11.456  21.673  13.964
42549W        W 9332  31.552  12.824  13.703
42550W        W 9333  20.029  13.962   2.366
42551W        W 9334  13.789  13.662   4.284
42552W        W 9335  40.696   8.010  10.329
42553W        W 9336  14.841  31.036  14.697
42554W        W 9337   6.921  29.415   1.791
42555W        W 9338   8.104  44.702  11.015
42556W        W 9339  22.278  15.517   0.312
42557W        W 9340  28.427   6.975  12.535
42558W        W 9341   6.136  23.110   0.785
42559W        W 9342  31.549  44.624   4.437
42560W        W 9343  43.995  43.151   4.981
42561W        W 9344  43.229  14.292   3.095
42562W        W 9345  19.072  14.723   2.281
42563W        W 9346   5.495  27.140   4.873
42564W        W 9347   2.923  11.658   4.518
42565W        W 9348  24.711   9.273   2.140
42566W        W 9349  16.198  36.376  12.927
42567W        W 9350  29.398  24.876   4.494
42568W        W 9351  31.858  16.348   2.757
42569W        W 9352   6.902  34.629   0.122
42570W        W 9353  23.610  35.820   0.746
42571W        W 9354  33.175   0.743   2.623
42572W        W 9355  12.324   7.059   0.155
42573W        W 9356  29.036  22.097  14.305
42574W        W 9357  14.676  38.111  10.841
42575W        W 9358  12.898  27.601   4.645
42576W        W 9359  21.748  28.529   4.234
42577W        W 9360  33.788  12.259  10.408
42578W        W 9361   7.868  11.139   3.743
42579W        W 9362  15.663  33.058  14.533
42580W        W 9363  37.882  31.174   2.109
42581W        W 9364  26.082   4.951   3.722
42582W        W 9365  44.993  44.000  12.759
42583W        W 9366  10.718   2.490   2.792
42584W        W 9367  39.736   5.556  11.172
42585W        W 9368   6.172   3.023  10.759
42586W        W 9369  12.093  29.502  10.709
42587W        W 9370   1.766  28.430  12.999
42588W        W 9371  23.272  25.221  14.376
42589W        W 9372   8.789  17.071  13.520
42590W        W 9373  29.325  11.180   1.909
42591W        W 9374  16.611   6.358  13.285
42592W        W 9375   8.270  28.852   2.353
42593W        W 9376  35.799  43.811   0.250
42594W        W 9377   8.605  11.668   1.865
42595W        W 9378  40.417  15.443  11.475
42596W        W 9379   4.721  19.064  13.796
42597W        W 9380  42.821  19.534   1.949
42598W        W 9381  10.928  23.708  10.533
42599W        W 9382   0.929   2.257   0.918
42600W        W 9383   3.929   4.244  12.074
42601W        W 9384  30.627  22.428   2.400
42602W        W 9385  30.270  35.556   4.838
42603W        W 9386  35.617  41.812  10.651
42604W        W 9387  43.436  34.989  12.920
42605W        W 9388  38.588   7.245  12.970
42606W        W 9389  27.694  19.054  14.895
42607W        W 9390  42.381  39.612  11.158
42608W        W 9391  11.735  35.837  11.512
42609W        W 9392  18.527  25.077   2.671
42610W        W 9393  34.615  14.318  11.106
42611W        W 9394  32.410  15.682  12.386
42612W        W 9395  32.934   1.361   2.283
42613W        W 9396  22.288  12.216   1.850
42614W        W 9397   9.704  36.879   3.683
42615W        W 9398   5.723  14.222   3.997
42616W        W 9399  34.004  11.332   0.712
42617W        W 9400   6.920  37.536   0.300
42618W        W 9401  19.607   1.491  12.420
42619W        W 9402  37.376  15.519  12.513
42620W        W 9403  15.796  17.583  12.361
42621W        W 9404   6.362  20.711   4.638
42622W        W 9405  23.217  35.322   2.152
42623W        W 9406  24.181  35.072  11.092
42624W        W 9407  37.643  18.759  14.458
42625W        W 9408  12.637  25.169  13.780
42626W        W 9409  42.188  21.743   3.679
42627W        W 9410  40.109  24.485  11.218
42628W        W 9411  37.517  43.119  14.982
42629W        W 9412  15.173  14.070  11.602
42630W        W 9413  16.437  17.500   2.271
42631W        W 9414  18.963  12.441  13.527
42632W        W 9415  18.800  17.891   1.745
42633W        W 9416  44.387   4.096   1.502
42634W        W 9417  17.556  11.595  14.812
42635W        W 9418  21.361  42.360   2.147
42636W        W 9419  13.188  18.632  10.645
42637W        W 9420  14.444  33.642  11.779
42638W        W 9421  24.083  36.581   0.827
42639W        W 9422  41.357  11.656  13.246
42640W        W 9423  12.347  32.989   1.793
42641W        W 9424  33.084  26.601  13.341
42642W        W 9425  18.969  17.095  12.401
42643W        W 9426  26.751  37.614   4.296
42644W        W 9427   4.567  20.464   4.029
42645W        W 9428  22.720  22.582   3.281
42646W        W 9429  11.959  28.093  10.759
42647W        W 9430  31.598  10.560  12.195
42648W        W 9431  25.654  21.755  13.410
42649W        W 9432  38.985  20.736   2.652
42650W        W 9433  37.813  23.115  14.490
42651W        W 9434  38.044  32.685   3.833
42652W        W 9435  33.168  22.076  11.648
42653W        W 9436  42.943  10.084  13.754
42654W        W 9437  37.328  23.694   1.179
42655W        W 9438  38.650  15.790  12.924
42656W        W 9439   9.564  15.612   0.795
42657W        W 9440  26.048  18.373  11.822
42658W        W 9441   8.235   8.957   1.717
42659W        W 9442  31.812  26.560   0.978
42660W        W 9443  15.814  40.269   1.713
42661W        W 9444  25.860  44.029   5.084
42662W        W 9445  15.562  40.515   2.114
42663W        W 9446  34.495  27.156  11.182
42664W        W 9447  39.138   5.472   0.343
42665W        W 9448  38.843  11.510  11.956
42666W        W 9449   7.806  29.467   0.782
42667W        W 9450   6.775  30.061   3.684
42668W        W 9451  26.171  27.162  14.773
42669W        W 9452   8.984  27.953   0.364
42670W        W 9453  32.976  12.913   1.509
42671W        W 9454  32.626  18.215  10.601
42672W        W 9455  33.200  34.042  10.938
42673W        W 9456  19.827  36.032   0.083
42674W        W 9457  21.265  27.037   2.398
42675W        W 9458  24.025  32.498  10.399
42676W        W 9459  27.409   9.794  14.364
42677W        W 9460  12.339  34.553  12.535
42678W        W 9461  42.562   4.770   0.743
42679W        W 9462  35.177   9.296   4.152
42680W        W 9463  39.410  34.866  10.621
42681W        W 9464  41.493  19.588   1.940
42682W        W 9465  23.658  37.218  11.719
42683W        W 9466  22.023  14.748   2.783
42684W        W 9467  27.990   4.802  14.284
42685W        W 9468  26.030  36.108  13.540
42686W        W 9469  30.106  15.400  14.943
42687W        W 9470  39.572   0.175   4.175
42688W        W 9471  32.538   4.988   1.773
42689W        W 9472  18.774  39.618  12.836
42690W        W 9473   8.237  11.804   4.790
42691W        W 9474  26.577  38.436  13.837
42692W        W 9475   5.977  21.310   2.815
42693W        W 9476  39.877  10.549   0.767
42694W        W 9477  22.159   6.629  13.328
42695W        W 9478  37.274  11.835   1.886
42696W        W 9479  15.445  39.456  13.826
42697W        W 9480  13.734  22.194   3.316
42698W        W 9481  13.153  30.597  10.307
42699W        W 9482  23.998  16.622  12.025
42700W        W 9483  16.686   4.693   3.350
42701W        W 9484  11.232  16.874  11.417
42702W        W 9485  27.235  35.577   3.300
42703W        W 9486   9.239   8.774  11.576
42704W        W 9487  24.038  31.154  13.812
42705W        W 9488   0.167  20.739   3.677
42706W        W 9489  18.528  30.802  14.434
42707W        W 9490  40.585   9.588  13.409
42708W        W 9491  25.616  40.835  12.862
42709W        W 9492  40.506  43.975   2.244
42710W        W 9493  27.365  32.262  13.776
42711W        W 9494   8.873   7.724  14.309
42712W        W 9495  36.753  41.364  13.753
42713W        W 9496  35.094  16.988  13.393
42714W        W 9497   1.802  32.797  13.280
42715W        W 9498  21.310   2.790   0.985
42716W        W 9499  27.397  41.894  14.771
42717W        W 9500  31.916   7.379  12.112
42718W        W 9501  12.326  37.124   5.227
42719W        W 9502  22.729   0.354  14.023
42720W        W 9503  22.367  37.096  10.874
42721W        W 9504  21.296  21.320  12.587
42722W        W 9505  32.194  10.359   3.721
42723W        W 9506  24.651   7.705   1.471
42724W        W 9507  14.512  24.039  14.472
42725W        W 9508  35.492   4.951   1.397
42726W        W 9509  28.914   2.441   0.584
42727W        W 9510   9.703  27.627   1.249
42728W        W 9511  27.083  21.229   3.001
42729W        W 9512   1.282  16.593   2.821
42730W        W 9513   4.620  10.841  12.527
42731W        W 9514  18.396  15.727   0.659
42732W        W 9515  10.897  27.318   0.762
42733W        W 9516  36.048   2.393   1.891
42734W        W 9517  34.873   8.389   2.175
42735W        W 9518  22.642  32.648   4.173
42736W        W 9519  16.589  35.590   0.303
42737W        W 9520   1.872  11.842  13.932
42738W        W 9521  12.584  41.274   0.730
42739W        W 9522  43.276  22.353   1.298
42740W        W 9523  27.538  24.040  13.095
42741W        W 9524  35.057  26.057  10.679
42742W        W 9525   7.243  25.074   0.431
42743W        W 9526  21.554  13.986   4.245
42744W        W 9527  36.967  13.623  11.550
42745W        W 9528  15.992  15.487   5.366
42746W        W 9529  39.409   0.793  12.863
42747W        W 9530  31.276  29.371   2.363
42748W        W 9531  44.775  34.563   0.418
42749W        W 9532  31.799   1.468   2.397
42750W        W 9533   3.169  36.885   5.046
42751W        W 9534  37.899  40.528  12.482
42752W        W 9535  28.900  34.489  13.131
42753W        W 9536  39.075  43.811  13.822
42754W        W 9537  31.356  40.041  13.874
42755W        W 9538  23.954   5.866  11.484
42756W        W 9539  28.205   4.824  12.915
42757W        W 9540   0.794   3.493   0.357
42758W        W 9541  35.843   7.226   3.330
42759W        W 9542   6.734  19.199   3.224
42760W        W 9543   6.826  43.851   2.398
42761W        W 9544  27.544   9.328   1.406
42762W        W 9545  39.659  12.349   4.196
42763W        W 9546  14.388  30.372  11.966
42764W        W 9547  18.788  31.655   0.406
42765W        W 9548   5.823  40.089   4.415
42766W        W 9549  10.329  32.392   1.740
42767W        W 9550  39.041  36.038  14.201
42768W        W 9551  27.625  44.898   2.915
42769W        W 9552  33.986  36.399   3.660
42770W        W 9553  23.644  36.965   1.602
42771W        W 9554  19.405  40.080  12.453
42772W        W 9555   5.997  22.378   2.239
42773W        W 9556   5.850  20.604   1.189
42774W        W 9557  24.071  44.556   0.998
42775W        W 9558  42.375  23.174   0.349
42776W        W 9559  14.292  14.088  11.531
42777W        W 9560  43.036   0.230   3.087
42778W        W 9561  17.585   0.684   3.352
42779W        W 9562  18.095  26.019   2.851
42780W        W 9563  26.468  14.577  10.728
42781W        W 9564  10.975  19.770   2.404
42782W        W 9565  42.689   6.074  10.236
42783W        W 9566  11.087  22.115  12.898
42784W        W 9567  16.798  21.634   4.380
42785W        W 9568  38.634   2.844  14.125
42786W        W 9569  36.472  15.771  11.410
42787W        W 9570  11.076  21.711   3.443
42788W        W 9571  28.397  23.349   2.192
42789W        W 9572   4.754   4.861  12.090
42790W        W 9573   7.865  12.308   0.361
42791W        W 9574  42.999  23.225  12.569
42792W        W 9575   5.794  19.227   1.686
42793W        W 9576  41.976  35.407   0.908
42794W        W 9577  40.401  26.496   4.717
42795W        W 9578  23.997  42.411   2.592
42796W        W 9579  28.661  23.145  13.846
42797W        W 9580  36.013   1.057  11.905
42798W        W 9581  18.230   7.949  14.302
42799W        W 9582   2.250  11.824  14.311
42800W        W 9583   5.918   7.470   3.257
42801W        W 9584  32.391  37.093   4.149
42802W        W 9585  25.652  10.857  10.745
42803W        W 9586  43.966  17.119  11.572
42804W        W 9587  43.389  11.117  10.191
42805W        W 9588  37.398   0.078  12.528
42806W        W 9589   1.670  20.789   1.789
42807W        W 9590  39.273  29.351  13.460
42808W        W 9591  10.398  30.974   3.758
42809W        W 9592  21.317  36.351  13.369
42810W        W 9593   4.035  22.540  11.127
42811W        W 9594  37.335  39.024   2.136
42812W        W 9595  38.068  17.039   2.227
42813W        W 9596   8.758  29.479   4.523
42814W        W 9597  37.399  44.470  14.481
42815W        W 9598  15.883  20.607   3.376
42816W        W 9599  12.240   6.294   1.762
42817W        W 9600  23.676   3.987  13.429
42818W        W 9601  41.676   7.448   2.969
42819W        W 9602  22.729  12.814  13.369
42820W        W 9603  13.376  20.644  10.939
42821W        W 9604  39.739  13.076   4.039
42822W        W 9605  10.192  40.842  14.938
42823W        W 9606  19.031  44.920  10.942
42824W        W 9607  37.110  39.526  10.615
42825W        W 9608   3.341  11.621  13.561
42826W        W 9609  31.015   7.464   0.243
42827W        W 9610  11.344  27.520   0.958
42828W        W 9611  29.604  34.676   2.889
42829W        W 9612  35.882   3.713  12.199
42830W        W 9613  44.290  16.246  12.657
42831W        W 9614  29.510  38.527  10.207
42832W        W 9615  35.790   9.830   2.506
42833W        W 9616  24.974  20.540   0.456
42834W        W 9617  22.600  44.805  10.715
42835W        W 9618  14.307   8.315  12.573
42836W        W 9619   2.381  29.596   0.798
42837W        W 9620   2.304  43.474  13.816
42838W        W 9621  32.960  15.655  13.946
42839W        W 9622   7.961  14.534  12.455
42840W        W 9623  34.973   1.825  13.458
42841W        W 9624  20.999  22.180   1.845
42842W        W 9625  37.982  18.825  11.231
42843W        W 9626   1.203  16.114  12.722
42844W        W 9627  11.708  15.805  14.452
42845W        W 9628  42.300   3.548   1.218
42846W        W 9629   5.969  22.550   3.120
42847W        W 9630  40.529  18.085  10.678
42848W        W 9631  40.973   3.564   1.853
42849W        W 9632  31.642  12.914   2.400
42850W        W 9633   6.980   3.114  11.956
42851W        W 9634  17.769   2.765  12.041
42852W        W 9635   7.215  41.103   0.277
42853W        W 9636   4.909   9.376   0.923
42854W        W 9637  15.301  27.244  10.348
42855W        W 9638   7.191   9.664   1.105
42856W        W 9639  20.126  39.469   0.836
42857W        W 9640  18.091   6.367   1.279
42858W        W 9641   1.095  44.457  14.798
42859W        W 9642  35.148  15.742   9.999
42860W        W 9643  41.489   1.227   0.512
42861W        W 9644  21.806   2.294   1.798
42862W        W 9645  13.083   2.793  10.805
42863W        W 9646  21.732  12.981  13.571
42864W        W 9647  20.998  20.480  12.912
42865W        W 9648  24.071  27.534  11.222
42866W        W 9649  33.591  27.183   2.731
42867W        W 9650   9.732  31.860  11.064
42868W        W 9651   4.349   5.124  14.840
42869W        W 9652  33.391   0.886   5.150
42870W        W 9653  40.198  22.592  10.605
42871W        W 9654  25.062  29.322  12.735
42872W        W 9655  25.045   5.800  12.405
42873W        W 9656  18.719  26.882  12.416
42874W        W 9657   9.128  31.698  10.983
42875W        W 9658   1.741  39.028  10.986
42876W        W 9659  20.099   3.233  10.695
42877W        W 9660  23.920  43.002  12.417
42878W        W 9661  29.497  24.699   3.791
42879W        W 9662  29.781  29.084  12.660
42880W        W 9663   1.840  33.408   1.938
42881W        W 9664   3.151   1.758  12.614
42882W        W 9665  13.242  41.112   3.411
42883W        W 9666  35.895  10.318  13.498
42884W        W 9667  32.383  25.498  13.858
42885W        W 9668  39.550  27.573   1.740
42886W        W 9669  26.550  39.669   0.790
42887W        W 9670  11.372  34.163  11.134
42888W        W 9671  26.975  33.405  13.066
42889W        W 9672  29.209  14.346   4.096
42890W        W 9673  12.677  20.656  14.694
42891W        W 9674  13.510   0.388   3.647
42892W        W 9675  21.300  24.679   2.943
42893W        W 9676  41.523  29.589   4.105
42894W        W 9677  35.721  18.522   5.455
42895W        W 9678  39.946  17.026   0.447
42896W        W 9679  26.417  12.366   2.801
42897W        W 9680  11.045  18.896   3.681
42898W        W 9681  23.456   0.209   1.890
42899W        W 9682  30.446  35.090   4.680
42900W        W 9683  31.584  21.022   9.902
42901W        W 9684  11.659  22.400  13.557
42902W        W 9685  44.519  42.401   4.570
42903W        W 9686  15.634  10.654  12.452
42904W        W 9687  33.372   2.215  14.548
42905W        W 9688  29.801  41.510   2.258
42906W        W 9689   1.084   4.809  11.119
42907W        W 9690   9.072  32.414   1.860
42908W        W 9691  18.157  19.285  13.005
42909W        W 9692  35.075  25.752  12.045
42910W        W 9693  41.518  13.756   1.291
42911W        W 9694  36.585  34.372   3.235
42912W        W 9695  36.767  35.751  11.071
42913W        W 9696  28.168   4.965  11.128
42914W        W 9697  39.124  20.754  13.893
42915W        W 9698  24.254  14.283   5.349
42916W        W 9699  41.966  44.864   1.956
42917W        W 9700   0.897   6.247   0.004
42918W        W 9701   0.431  27.712  14.689
42919W        W 9702  13.019  42.485  11.646
42920W        W 9703  35.512   8.061   0.111
42921W        W 9704  27.524  39.688  12.014
42922W        W 9705  43.860   4.275   1.776
42923W        W 9706  41.558  25.467  11.401
42924W        W 9707  25.317  17.115  13.754
42925W        W 9708  26.037  28.629  10.380
42926W        W 9709   4.935  25.171   4.142
42927W        W 9710  16.130  16.062   1.082
42928W        W 9711   2.822  43.355  11.689
42929W        W 9712   6.098  10.695   4.036
42930W        W 9713  24.851  11.243  10.375
42931W        W 9714  20.228  25.182   4.161
42932W        W 9715  27.148  13.325   4.092
42933W        W 9716  40.333  40.601   1.396
42934W        W 9717  17.751  29.864  12.144
42935W        W 9718  28.297   2.195  13.916
42936W        W 9719   1.925  13.199  12.226
42937W        W 9720   4.659  14.401  12.985
42938W        W 9721  15.788  11.701  14.423
42939W        W 9722  31.330   3.256   4.457
42940W        W 9723  42.363  41.967   1.480
42941W        W 9724  10.295  38.535   1.003
42942W        W 9725  44.656  19.816   3.647
42943W        W 9726  41.902   6.327  12.902
42944W        W 9727  18.033  16.475  10.711
42945W        W 9728  12.201  38.124  10.724
42946W        W 9729  25.094  19.894  11.652
42947W        W 9730  10.908  42.143  11.320
42948W        W 9731  35.148  12.572  14.470
42949W        W 9732  44.076  42.865  12.512
42950W        W 9733  13.274   0.991  12.865
42951W        W 9734  28.497   3.377  11.950
42952W        W 9735   1.015   1.981  14.030
42953W        W 9736  41.977  19.262  13.884
42954W        W 9737  15.602  25.117   4.022
42955W        W 9738  27.384   2.067  12.685
42956W        W 9739  32.657  16.235  11.236
42957W        W 9740  28.275  36.377  14.880
42958W        W 9741  28.973  16.634  13.920
42959W        W 9742  35.580  17.176  13.384
42960W        W 9743  13.825  12.793   2.941
42961W        W 9744   9.351   8.794   2.745
42962W        W 9745  29.478  17.355  12.895
42963W        W 9746  41.100  31.001  14.919
42964W        W 9747  30.679  23.217  13.444
42965W        W 9748  34.491  29.157  11.606
42966W        W 9749  40.833  22.091  14.536
42967W        W 9750  11.665  15.787  12.788
42968W        W 9751  16.785   7.264   0.816
42969W        W 9752   3.354  31.080  12.134
42970W        W 9753  40.831   5.130  14.803
42971W        W 9754  15.839   1.313   3.880
42972W        W 9755  12.769  43.270  12.117
42973W        W 9756  31.692  36.005   1.461
42974W        W 9757   5.610  26.403  11.631
42975W        W 9758  15.284  40.024   3.717
42976W        W 9759  20.668  31.320   1.720
42977W        W 9760  37.314  23.050   4.161
42978W        W 9761  32.668   6.344   2.241
42979W        W 9762  21.877  25.152  11.039
42980W        W 9763  41.778  10.577  11.542
42981W        W 9764   8.181  20.231   3.857
42982W        W 9765   0.018   9.867  14.397
42983W        W 9766  36.036  24.093  14.064
42984W        W 9767  38.868  29.002  14.332
42985W        W 9768   0.771   9.346  10.241
42986W        W 9769  20.123   2.546   2.180
42987W        W 9770  40.392   6.858   1.208
42988W        W 9771  31.669  28.197  11.511
42989W        W 9772  19.974   0.230  12.637
42990W        W 9773  18.913  20.529   2.454
42991W        W 9774  33.714  22.012  14.851
42992W        W 9775  22.200  39.596   1.205
42993W        W 9776   8.335  15.161  12.606
42994W        W 9777   9.589  18.437  11.057
42995W        W 9778  12.176  15.687   1.896
42996W        W 9779  39.352   6.673  11.076
42997W        W 9780  11.553  23.882  13.457
42998W        W 9781  42.808  38.964   4.982
42999W        W 9782  11.883  22.554  11.240
43000W        W 9783  37.959  31.004   1.146
43001W        W 9784  41.092  17.038   0.465
43002W        W 9785  24.126   6.727  12.847
43003W        W 9786  42.153  41.714  14.854
43004W        W 9787  36.320  37.722  12.962
43005W        W 9788   2.527  13.216  13.230
43006W        W 9789  23.455  11.526   4.073
43007W        W 9790   1.142  44.935   2.630
43008W        W 9791  26.490   1.884   1.525
43009W        W 9792   1.845  38.494  12.490
43010W        W 9793  19.544   8.931  14.901
43011W        W 9794  42.832   3.854   0.283
43012W        W 9795  14.547   6.715   0.297
43013W        W 9796  35.006  14.644  13.049
43014W        W 9797  41.856  31.063   4.632
43015W        W 9798  39.285  37.080   4.209
43016W        W 9799  25.124  33.612   0.308
43017W        W 9800  15.598  24.158   4.578
43018W        W 9801  37.967  13.287  11.971
43019W        W 9802   8.353  12.330  12.093
43020W        W 9803  11.665  13.677  13.998
43021W        W 9804  15.338  25.972   3.236
43022W        W 9805   4.301   5.786  12.526
43023W        W 9806  13.825   7.775  10.996
43024W        W 9807   6.999   3.348   0.240
43025W        W 9808  21.777  11.847   2.831
43026W        W 9809  40.861  15.093   5.130
43027W        W 9810  28.330  14.821   4.936
43028W        W 9811  25.343  20.791   2.466
43029W        W 9812  43.506  24.597  13.823
43030W        W 9813  16.233  40.374   1.387
43031W        W 9814  27.569  22.286   0.373
43032W        W 9815  27.029  14.514   1.233
43033W        W 9816  20.059  17.764  13.109
43034W        W 9817   9.339  21.886  14.906
43035W        W 9818   3.495  24.994  12.692
43036W        W 9819  22.720   2.073   1.357
43037W        W 9820  18.776  41.849  14.950
43038W        W 9821  40.385   1.304  10.700
43039W        W 9822  43.329  44.377  12.019
43040W        W 9823  26.735   7.379  13.993
43041W        W 9824  32.297  31.465  12.036
43042W        W 9825  30.957  25.156   2.317
43043W        W 9826  17.099  39.275   4.104
43044W        W 9827   9.906   3.641  12.025
43045W        W 9828  22.064  22.711   4.519
43046W        W 9829  19.666  14.526   3.596
43047W        W 9830  30.881   6.720  14.854
43048W        W 9831  15.014   8.287  11.118
43049W        W 9832  23.538  19.089  12.116
43050W        W 9833  11.728  23.705  11.749
43051W        W 9834  31.378  32.478  11.527
43052W        W 9835  42.985  33.326  14.891
43053W        W 9836  22.560   1.404  12.634
43054W        W 9837  16.211  14.174   0.704
43055W        W 9838  24.543  22.007   1.773
43056W        W 9839   4.799  18.136  12.546
43057W        W 9840  15.332  20.795  12.231
43058W        W 9841   2.640   2.441   2.379
43059W        W 9842  29.583  30.903  13.426
43060W        W 9843  20.526  30.807   1.700
43061W        W 9844   7.682   0.886  11.236
43062W        W 9845  17.658   5.886   4.706
43063W        W 9846  19.227  15.824   0.972
43064W        W 9847  12.778  31.581  12.499
43065W        W 9848  30.241  13.776  13.869
43066W        W 9849  31.591   4.623   2.244
43067W        W 9850  16.873  42.205   1.421
43068W        W 9851  21.361  37.068   3.085
43069W        W 9852  42.020  23.936   4.585
43070W        W 9853   9.376  21.175   2.788
43071W        W 9854  26.660  16.244   2.336
43072W        W 9855  36.107  28.739   2.769
43073W        W 9856  32.347   2.819   3.401
43074W        W 9857  18.496  32.497  10.785
43075W        W 9858  11.396  19.291   3.825
43076W        W 9859   0.869  17.301   2.740
43077W        W 9860  24.695  41.476  13.635
43078W        W 9861  33.726  38.831   3.104
43079W        W 9862  29.435   9.416  11.930
43080W        W 9863  32.337   8.639   2.294
43081W        W 9864   0.764   1.991   0.510
43082W        W 9865  26.449   2.756   1.434
43083W        W 9866  12.629  23.394   3.727
43084W        W 9867  10.219  21.493  11.977
43085W        W 9868  17.649  36.258  14.920
43086W        W 9869  32.970  11.381  14.285
43087W        W 9870   3.605  15.117   0.706
43088W        W 9871   9.257  33.861   2.304
43089W        W 9872  11.616  10.265  11.684
43090W        W 9873   7.417   7.929  14.102
43091W        W 9874  11.868  37.954  14.736
43092W        W 9875  39.001  27.030   2.607
43093W        W 9876  17.087   6.922   4.400
43094W        W 9877   8.938  41.389   1.845
43095W        W 9878  43.972  24.554   1.439
43096W        W 9879  39.466  26.549   4.572
43097W        W 9880  11.746  16.641   0.707
43098W        W 9881  28.939   2.315   3.621
43099W        W 9882  15.560   6.310   1.861
43100W        W 9883   4.061  44.497  11.979
43101W        W 9884  43.691  27.715  12.900
43102W        W 9885   2.688  42.553   3.421
43103W        W 9886   1.902   3.408   1.263
43104W        W 9887  41.497   2.143   1.633
43105W        W 9888  15.825  10.192   1.560
43106W        W 9889   6.164   8.851  11.048
43107W        W 9890  31.538   9.165   3.270
43108W        W 9891  26.925  39.775  14.930
43109W        W 9892  19.088  31.611  11.672
43110W        W 9893   1.642  27.863   2.413
43111W        W 9894  26.523  14.992  11.379
43112W        W 9895   5.223  21.174  11.608
43113W        W 9896  29.694  36.095  11.239
43114W        W 9897   9.785  37.415   4.518
43115W        W 9898  41.900  37.712  13.063
43116W        W 9899  21.215   8.952   2.151
43117W        W 9900  40.467  19.085   4.329
43118W        W 9901  42.804  39.238  13.488
43119W        W 9902  14.430  28.224  13.822
43120W        W 9903  38.518  35.010  12.966
43121W        W 9904  13.287  43.345   4.108
43122W        W 9905  44.069   1.221   1.684
43123W        W 9906  32.043  27.658   2.222
43124W        W 9907  31.660   7.687  12.881
43125W        W 9908   7.701   1.128   4.589
43126W        W 9909  36.262  13.128   1.805
43127W        W 9910  11.213  33.606   4.779
43128W        W 9911   1.458   2.282  13.964
43129W        W 9912  40.736  37.612   2.318
43130W        W 9913  13.079   2.187  12.476
43131W        W 9914   6.176  43.793   2.810
43132W        W 9915  27.258  10.773  10.821
43133W        W 9916  43.265  40.772   4.779
43134W        W 9917  10.901   0.240   4.681
43135W        W 9918  43.257  11.617  11.616
43136W        W 9919  33.082  21.209  11.032
43137W        W 9920  31.636  13.645  10.692
43138W        W 9921  34.159  20.269  14.692
43139W        W 9922  14.080  14.674  14.837
43140W        W 9923  31.356  41.007  12.102
43141W        W 9924   8.349  18.510  11.471
43142W        W 9925  23.894   0.983   1.869
43143W        W 9926  37.348  38.388   3.122
43144W        W 9927   8.399  36.080  12.945
43145W        W 9928  13.381   0.882   4.124
43146W        W 9929   9.348   6.447   4.058
43147W        W 9930  26.776  33.822   4.105
43148W        W 9931  11.809  29.419   0.043
43149W        W 9932  33.893  44.203   4.201
43150W        W 9933  41.997  18.205  11.592
43151W        W 9934  40.853   2.441  13.910
43152W        W 9935  29.512  28.395   2.758
43153W        W 9936  29.548  13.383  10.422
43154W        W 9937  24.943   6.317  13.111
43155W        W 9938  14.826  10.350   2.139
43156W        W 9939   5.244   8.462  11.389
43157W        W 9940   7.778  20.518   1.885
43158W        W 9941  13.797   2.961   1.422
43159W        W 9942   1.275  35.844  13.602
43160W        W 9943   6.842   2.384   3.820
43161W        W 9944   4.173  10.270   3.902
43162W        W 9945  17.057  38.867  11.446
43163W        W 9946  33.766  26.999   1.790
43164W        W 9947  24.932   7.843  14.788
43165W        W 9948  41.883   0.447  10.490
43166W        W 9949  38.432   9.430  10.801
43167W        W 9950  18.236  44.913  13.838
43168W        W 9951   1.844  36.394   4.610
43169W        W 9952   7.754  35.596  12.507
43170W        W 9953  36.617  23.752   0.725
43171W        W 9954  35.511  36.519  10.931
43172W        W 9955  14.461  44.451  11.646
43173W        W 9956  20.156  26.441  10.023
43174W        W 9957  19.296  32.301  14.929
43175W        W 9958  43.729  11.673  12.404
43176W        W 9959  22.586  31.663   4.498
43177W        W 9960  20.421  37.888   3.694
43178W        W 9961  41.947   3.260  10.916
43179W        W 9962  14.812   9.868  11.908
43180W        W 9963  36.297  37.013   1.262
43181W        W 9964  40.180   4.388   1.795
43182W        W 9965   2.287   5.137  11.849
43183W        W 9966  26.022  37.472  13.018
43184W        W 9967  25.509  10.826  13.029
43185W        W 9968  24.549   6.885  14.997
43186W        W 9969  36.229  42.767  14.481
43187W        W 9970   0.246  14.703  13.970
43188W        W 9971  27.144  19.213  13.373
43189W        W 9972  11.237  13.745   4.821
43190W        W 9973  22.626  20.428  12.462
43191W        W 9974  41.933  12.852   0.732
43192W        W 9975  19.136  36.081  13.311
43193W        W 9976  41.919  21.183   2.315
43194W        W 9977  27.772  15.356  12.982
43195W        W 9978   5.977   6.156  11.642
43196W        W 9979  27.969  31.761   4.909
43197W        W 9980  40.638  16.264   2.817
43198W        W 9981   2.484   1.699   2.913
43199W        W 9982  21.787  25.611   5.625
43200W        W 9983  23.622  44.838  12.337
43201W        W 9984  37.725   0.265   4.624
43202W        W 9985  32.119  41.332   2.122
43203W        W 9986  25.659  30.876  14.629
43204W        W 9987  18.278  17.207   5.491
43205W        W 9988  27.120  20.447  10.619
43206W        W 9989  18.214  34.995   2.216
43207W        W 9990  10.747  36.996  13.877
43208W        W 9991  33.199  18.112   0.848
43209W        W 9992   2.213   7.434  13.824
43210W        W 9993   5.788   8.909  13.520
43211W        W 9994  33.064   6.998   2.769
43212W        W 9995  23.057  42.539   2.857
43213W        W 9996  37.856  20.225  11.314
43214W        W 9997  14.091  34.046   0.770
43215W        W 9998  27.099  43.274  10.665
43216W        W 9999  34.526  38.493   1.576
43217W        W10000  32.762  10.609   1.008
43218W        W10001  22.111  23.026   0.286
43219W        W10002  13.663  38.535  13.090
43220W        W10003  15.333  12.286  13.898
43221W        W10004  18.101  22.064   2.636
43222W        W10005  31.848  31.140   4.057
43223W        W10006  28.530   7.312   4.786
43224W        W10007   1.793   8.979  14.910
43225W        W10008   8.639   7.832   4.898
43226W        W10009  42.817   4.985  12.553
43227W        W10010  23.500   8.376   3.837
43228W        W10011  29.579   0.571   4.537
43229W        W10012  32.935  44.362  14.439
43230W        W10013  13.039   3.321   4.016
43231W        W10014  10.640  35.897   4.240
43232W        W10015  40.334  32.313   1.216
43233W        W10016  24.069  44.340  14.317
43234W        W10017  23.930  22.135  11.001
43235W        W10018  37.514  26.860   1.883
43236W        W10019  34.511  23.020  12.413
43237W        W10020  34.053  37.850  11.572
43238W        W10021  42.049   3.316  11.415
43239W        W10022  26.717  13.165  11.664
43240W        W10023  23.101   8.872  12.584
43241W        W10024  22.582  28.063  14.053
43242W        W10025  28.297   1.738   2.717
43243W        W10026  35.343  30.406  11.645
43244W        W10027  21.334  25.468   1.525
43245W        W10028   1.322  26.948  12.323
43246W        W10029  13.655  24.002  14.728
43247W        W10030  32.919   1.018  13.794
43248W        W10031  17.695  14.291  12.506
43249W        W10032   3.162   6.229  11.182
43250W        W10033  24.765  31.241  12.111
43251W        W10034  14.809  22.581   2.226
43252W        W10035  13.460  17.959  14.012
43253W        W10036  38.140   2.675  14.025
43254W        W10037  32.944   7.401  12.298
43255W        W10038  11.009  43.326   4.153
43256W        W10039  25.165  20.064  12.129
43257W        W10040  10.710   1.003   1.093
43258W        W10041  29.847  19.210   0.953
43259W        W10042  21.547  25.327   9.834
43260W        W10043  41.900  40.257  14.002
43261W        W10044  43.529  43.915   1.704
43262W        W10045  31.192  19.673  14.835
43263W        W10046  20.164  36.152   0.458
43264W        W10047  12.159  40.961  14.920
43265W        W10048  40.856  21.565   0.205
43266W        W10049  31.020  20.542   0.716
43267W        W10050  27.038   6.954  13.532
43268W        W10051  19.224  29.199  12.553
43269W        W10052  25.504  37.841   5.473
43270W        W10053  19.090   3.848  14.898
43271W        W10054   8.353  42.437  13.751
43272W        W10055   1.949  37.869   2.880
43273W        W10056  31.604  32.052  12.971
43274W        W10057  44.147  37.269   4.209
43275W        W10058  32.517   9.734   3.828
43276W        W10059  38.767  14.108   3.233
43277W        W10060  41.985  10.311  12.463
43278W        W10061  43.246  17.870   9.843
43279W        W10062   8.053  14.810  12.887
43280W        W10063  17.855  29.333  12.994
43281W        W10064   1.477  24.502  13.803
43282W        W10065  11.572   5.028   1.836
43283W        W10066  22.855  33.024  14.208
43284W        W10067  36.966   1.882  11.352
43285W        W10068  37.600  19.505   2.408
43286W        W10069   2.414   1.196  11.557
43287W        W10070  29.163  35.742   4.981
43288W        W10071  16.975  31.995  13.936
43289W        W10072  32.437  11.905   0.787
43290W        W10073  39.030  42.908   2.644
43291W        W10074   7.697   6.838  13.462
43292W        W10075  28.008  19.272  12.072
43293W        W10076   1.101  26.292   3.919
43294W        W10077  10.821  21.239  10.857
43295W        W10078  10.347   8.769  13.479
43296W        W10079  27.883  14.376  10.250
43297W        W10080  15.136  21.214   4.992
43298W        W10081  29.428  20.442   0.043
43299W        W10082  25.424  23.156  14.043
43300W        W10083   9.348  25.492  14.341
43301W        W10084  27.986  19.337   4.544
43302W        W10085  35.373  38.935  10.425
43303W        W10086  19.503  42.348  11.924
43304W        W10087   2.900   0.480   2.571
43305W        W10088   0.099  22.794   1.942
43306W        W10089  12.819  20.497  10.705
43307W        W10090  18.303  40.771   3.218
43308W        W10091  20.634  19.547   3.432
43309W        W10092   5.912   0.987   3.178
43310W        W10093  36.882  35.941   4.754
43311W        W10094  19.266   0.693  14.796
43312W        W10095  21.255  34.604   0.263
43313W        W10096  44.215  28.612   1.740
43314W        W10097  23.609   4.845   9.759
43315W        W10098  13.821   7.862   3.806
43316W        W10099  35.591  19.602   3.212
43317W        W10100  40.787   6.645   4.074
43318W        W10101   8.357  37.351  13.937
43319W        W10102  27.491   9.440  13.508
43320W        W10103  42.563  40.422  10.644
43321W        W10104  37.137   3.350   4.598
43322W        W10105  18.730   2.977   3.616
43323W        W10106  15.182   4.461   1.700
43324W        W10107  14.866  15.574   2.392
43325W        W10108  26.859   3.489   0.874
43326W        W10109   3.428  24.955  12.185
43327W        W10110  30.136  23.060   0.535
43328W        W10111  18.977  44.464  13.387
43329W        W10112  38.935  16.722   3.308
43330W        W10113  44.264  30.397   3.770
43331W        W10114  11.206  38.100  12.498
43332W        W10115  19.297  17.517  14.852
43333W        W10116  34.849  14.065  11.931
43334W        W10117  40.614  20.815   4.485
43335W        W10118  39.375  40.005  14.373
43336W        W10119   3.895  13.647   3.411
43337W        W10120   1.266  43.798  11.831
43338W        W10121  35.702   6.354   2.134
43339W        W10122  31.594   9.337  13.140
43340W        W10123  39.115  26.669  14.906
43341W        W10124  23.954  23.705  10.269
43342W        W10125  11.547  19.765   4.807
43343W        W10126  33.374  34.494  11.538
43344W        W10127  41.034  16.242  13.598
43345W        W10128  19.276   3.284  11.413
43346W        W10129  38.573  20.041   3.134
43347W        W10130  13.831  34.224   2.975
43348W        W10131  22.696   0.545  12.913
43349W        W10132  23.453  42.045  13.257
43350W        W10133  41.851  26.600   4.644
43351W        W10134   3.314  16.877   0.286
43352W        W10135  28.340  11.764  10.716
43353W        W10136  10.790  14.578  11.572
43354W        W10137  19.132   0.922  10.746
43355W        W10138  29.989  18.798   4.293
43356W        W10139   0.326   0.792   3.749
43357W        W10140   7.778  17.356  14.268
43358W        W10141  28.967  35.028   3.688
43359W        W10142  36.337  17.961   3.218
43360W        W10143  29.283   1.850   3.331
43361W        W10144  29.279  11.041   2.848
43362W        W10145  10.338  29.446  10.201
43363W        W10146   8.638  19.688   0.277
43364W        W10147  23.172  29.713   0.459
43365W        W10148  16.292  29.961   2.189
43366W        W10149  20.324   9.571   0.932
43367W        W10150  26.837   7.698   2.302
43368W        W10151  43.911  28.066   0.834
43369W        W10152   8.955   0.510  12.082
43370W        W10153   0.388  21.459   0.380
43371W        W10154  13.564  15.312  12.140
43372W        W10155  18.798  22.734   4.159
43373W        W10156   6.680  38.486   0.375
43374W        W10157  12.181  19.173  11.522
43375W        W10158  13.447  13.696  11.748
43376W        W10159  42.466  22.161   3.542
43377W        W10160  23.710  41.731  12.922
43378W        W10161   0.553  18.815   3.221
43379W        W10162  12.904  26.035  11.088
43380W        W10163  27.403  29.992  13.629
43381W        W10164  41.567  17.689   4.801
43382W        W10165   8.570  37.395  14.950
43383W        W10166   4.865  23.762  12.791
43384W        W10167   5.704  25.072  10.892
43385W        W10168  23.144  42.019  13.994
43386W        W10169  15.741   3.738  14.458
43387W        W10170  30.682  27.531  12.795
43388W        W10171  15.316  25.779  11.461
43389W        W10172   0.011  35.979   4.587
43390W        W10173  30.344   6.447  11.099
43391W        W10174  16.006  16.320  13.230
43392W        W10175  18.802  31.749  11.065
43393W        W10176  19.665  35.059  12.983
43394W        W10177  11.328  12.628   1.223
43395W        W10178  19.997   8.211  12.435
43396W        W10179   8.163  22.647   3.236
43397W        W10180  29.900  35.966  13.749
43398W        W10181  22.627  28.725  13.438
43399W        W10182  44.474  44.449   2.418
43400W        W10183   9.352  36.657  11.817
43401W        W10184  44.586  39.915   4.128
43402W        W10185  31.530  28.342   0.306
43403W        W10186   9.031   7.734  12.517
43404W        W10187  16.759  12.728   4.889
43405W        W10188  18.724  29.354   4.557
43406W        W10189   6.395  42.470   3.906
43407W        W10190   3.958  18.050   2.693
43408W        W10191  41.023  39.130  10.717
43409W        W10192  43.523   9.798   1.233
43410W        W10193  40.540  12.571  12.868
43411W        W10194  11.163  12.177   3.330
43412W        W10195  15.855  32.415  13.408
43413W        W10196   4.110   5.096  14.384
43414W        W10197  22.088  21.141  12.236
43415W        W10198   7.891   5.244   4.891
43416W        W10199  12.738  17.070   0.511
43417W        W10200  40.386  19.103   3.335
43418W        W10201  23.491  38.226   4.591
43419W        W10202   6.069  21.527  14.371
43420W        W10203  41.208  40.059  10.806
43421W        W10204  18.615  23.891  11.284
43422W        W10205  20.827  42.347  11.394
43423W        W10206  15.221  20.630   3.105
43424W        W10207   2.502  20.565   3.261
43425W        W10208   9.109  32.137  10.239
43426W        W10209  43.991   9.856   0.326
43427W        W10210  12.946  44.138   4.727
43428W        W10211  42.874   7.033  10.094
43429W        W10212  42.793   4.351  13.908
43430W        W10213  29.405  35.429   4.552
43431W        W10214   6.681   3.320  10.780
43432W        W10215  10.134  22.590   1.263
43433W        W10216  22.193   5.509   4.520
43434W        W10217  29.609   1.968  12.019
43435W        W10218  14.155  43.973   3.242
43436W        W10219  26.264  17.427   0.920
43437W        W10220  43.817  25.239  14.471
43438W        W10221  28.135  17.513  10.858
43439W        W10222  12.421  24.295  14.117
43440W        W10223  20.986  14.326  11.187
43441W        W10224  27.643  27.505  13.628
43442W        W10225   3.197  23.197   4.754
43443W        W10226  24.013  20.072  10.649
43444W        W10227  12.706  18.695   4.402
43445W        W10228   7.323  34.423   3.724
43446W        W10229  22.310   2.793  14.755
43447W        W10230  38.383  24.264   0.416
43448W        W10231   5.530  24.224  11.239
43449W        W10232  33.572   4.680   2.748
43450W        W10233  28.940   6.955  13.391
43451W        W10234  34.319   2.744  13.917
43452W        W10235  34.518  31.607  14.303
43453W        W10236  34.666  22.257  13.175
43454W        W10237   9.448  21.716  13.152
43455W        W10238  33.075  13.170   3.102
43456W        W10239  15.300  20.553   4.596
43457W        W10240  19.604   2.774   4.121
43458W        W10241  21.410   6.884   0.325
43459W        W10242  33.210  42.992  13.018
43460W        W10243  41.901   4.174  11.900
43461W        W10244  41.038  22.166   4.617
43462W        W10245  13.491  32.899   3.276
43463W        W10246  22.203   2.920  12.179
43464W        W10247   2.395  22.104  12.505
43465W        W10248  24.124  19.469   0.423
43466W        W10249  17.750  33.982  14.632
43467W        W10250  27.697  43.460   3.300
43468W        W10251  29.885  11.606   2.797
43469W        W10252  24.130   7.506   1.697
43470W        W10253  21.552  37.985   4.209
43471W        W10254   4.467   2.452  14.954
43472W        W10255   5.900  44.105   3.264
43473W        W10256  24.429  13.114  10.945
43474W        W10257   5.608   3.155   2.844
43475W        W10258  43.926  37.982   1.983
43476W        W10259   0.051  34.539   1.423
43477W        W10260  44.581  39.904  10.162
43478W        W10261  27.923  29.959  12.608
43479W        W10262  19.559  24.025   0.003
43480W        W10263  33.659  28.153  10.621
43481W        W10264  35.508   9.872  11.989
43482W        W10265   0.955  42.801  12.544
43483W        W10266  23.214   5.860  13.160
43484W        W10267  36.594  13.598  10.733
43485W        W10268  33.683  32.243   1.640
43486W        W10269  17.864  38.067   4.132
43487W        W10270  10.815   2.561   4.142
43488W        W10271   7.941  10.859  11.927
43489W        W10272  41.001  31.617  14.288
43490W        W10273  34.800  16.521  11.534
43491W        W10274   4.431  25.688   2.598
43492W        W10275  20.273  42.557   0.761
43493W        W10276  38.098  32.694   1.840
43494W        W10277  20.590  19.170   4.476
43495W        W10278  18.127  26.135  13.564
43496W        W10279  33.466  40.958   3.265
43497W        W10280  44.856  13.195   3.759
43498W        W10281  19.874  32.886   4.202
43499W        W10282  29.542   9.445  10.670
43500W        W10283  14.210  43.442   3.315
43501W        W10284  18.571  13.318   3.658
43502W        W10285  34.837  20.264  11.625
43503W        W10286   6.187  12.678   1.491
43504W        W10287  13.591   8.713   0.738
43505W        W10288  40.335  23.537  10.635
43506W        W10289  10.356  18.150  10.018
43507W        W10290  24.207  10.280   1.168
43508W        W10291   6.340  23.597  14.674
43509W        W10292   7.463  15.635   0.453
43510W        W10293  29.429  31.147  11.147
43511W        W10294  44.985  22.951  14.747
43512W        W10295  23.960  41.413   5.041
43513W        W10296  24.882  43.194   1.245
43514W        W10297  42.345  38.118   1.892
43515W        W10298  40.631  35.906   1.709
43516W        W10299  30.730  20.726   9.814
43517W        W10300   8.726  30.389  12.504
43518W        W10301  27.398  35.323  13.263
43519W        W10302  27.075  19.272   0.291
43520W        W10303  13.007   6.745  11.765
43521W        W10304  14.277  10.614  13.928
43522W        W10305  10.203  24.524  12.576
43523W        W10306  38.878  26.652  11.068
43524W        W10307  42.150  27.843   5.014
43525W        W10308  20.991   6.393   3.468
43526W        W10309   8.627   3.853  14.429
43527W        W10310  28.050   8.224   2.015
43528W        W10311   5.342   8.938   3.821
43529W        W10312  44.760  34.957   4.581
43530W        W10313  34.664  32.056  12.931
43531W        W10314  10.219  36.343  11.456
43532W        W10315   5.358  32.811  14.447
43533W        W10316  19.963  26.763   5.070
43534W        W10317   3.061  25.402  13.404
43535W        W10318  17.344   3.878  12.433
43536W        W10319  32.929  33.400  11.228
43537W        W10320  13.816   9.610  12.644
43538W        W10321  30.079  12.160   3.833
43539W        W10322  12.200  29.362  12.024
43540W        W10323  20.183   8.925  12.900
43541W        W10324  44.743  43.136  13.091
43542W        W10325  41.806  11.192   2.210
43543W        W10326  20.597   5.115   3.241
43544W        W10327  19.434  32.605  11.635
43545W        W10328  27.447  43.674   0.100
43546W        W10329  23.422  23.124   4.105
43547W        W10330  32.091  11.531   0.805
43548W        W10331  27.776  34.115  10.619
43549W        W10332  29.802  34.176   3.790
43550W        W10333  25.716  36.479  12.429
43551W        W10334  23.726  25.606   2.715
43552W        W10335  27.410   1.835   1.443
43553W        W10336  25.694  28.412  10.039
43554W        W10337   6.249  16.550   4.320
43555W        W10338   8.067  29.898   4.242
43556W        W10339  25.011  21.176   2.485
43557W        W10340   1.209  34.132  10.573
43558W        W10341   0.622  39.078   4.131
43559W        W10342   1.132  37.472  12.453
43560W        W10343  11.155   4.813  12.360
43561W        W10344  17.590  44.460   1.839
43562W        W10345  18.620  42.865  11.118
43563W        W10346  22.764  39.421   1.698
43564W        W10347  21.415  42.857   1.213
43565W        W10348  27.150  23.476  12.547
43566W        W10349   8.498  42.095  14.340
43567W        W10350  23.573   9.722  13.751
43568W        W10351  36.939   5.308  10.634
43569W        W10352   1.799  32.011  13.944
43570W        W10353  25.816  33.584  14.898
43571W        W10354  13.641  39.404  13.439
43572W        W10355  17.786  18.341   1.358
43573W        W10356   6.740   0.991  11.553
43574W        W10357  23.977  44.799   2.252
43575W        W10358  16.134  33.392   4.696
43576W        W10359   0.777  38.123   1.198
43577W        W10360  19.061  27.683   4.438
43578W        W10361  40.735  41.750  11.904
43579W        W10362  21.178  16.149  10.925
43580W        W10363  26.252  38.272  10.183
43581W        W10364  14.114   2.039  11.479
43582W        W10365  18.876  24.262   5.056
43583W        W10366   6.361  17.167   2.216
43584W        W10367  19.133  20.126   3.888
43585W        W10368  32.385  27.422  10.695
43586W        W10369   3.205  26.427  12.581
43587W        W10370  40.865  18.678   1.158
43588W        W10371  26.030  17.349   3.081
43589W        W10372  13.886  10.724   2.840
43590W        W10373  22.947  28.694  13.855
43591W        W10374  27.543  17.151   1.829
43592W        W10375  36.606   7.955  10.805
43593W        W10376  43.154   0.370  12.810
43594W        W10377   3.505  32.643   0.238
43595W        W10378  36.071  15.867  13.013
43596W        W10379  31.546  25.714   4.927
43597W        W10380  25.547  44.877  14.538
43598W        W10381  26.319  39.419   4.496
43599W        W10382  32.956  42.761  12.600
43600W        W10383  23.613   4.464  14.308
43601W        W10384   0.052  41.374  11.709
43602W        W10385  23.503  29.967   2.335
43603W        W10386   0.191  43.543   3.856
43604W        W10387   3.773  15.474  10.457
43605W        W10388  34.976  39.133  13.261
43606W        W10389  42.210  34.952   0.747
43607W        W10390  31.824  17.138  10.673
43608W        W10391  23.628  17.791   4.742
43609W        W10392  28.475  35.856   4.491
43610W        W10393   9.540  35.521   0.723
43611W        W10394   1.229  33.129  12.804
43612W        W10395  14.639   4.366   4.766
43613W        W10396   6.770  32.616   2.839
43614W        W10397   5.744   9.139  12.943
43615W        W10398  26.160  22.816  14.214
43616W        W10399  26.299   6.313   3.548
43617W        W10400  25.239  36.264  12.411
43618W        W10401  30.424  43.232  11.959
43619W        W10402  44.051  40.675  13.128
43620W        W10403  34.287   1.459   4.090
43621W        W10404  14.312  29.117   4.702
43622W        W10405  20.678   6.577   1.399
43623W        W10406  32.910  32.937   1.838
43624W        W10407  30.304  25.626  11.211
43625W        W10408  35.101   2.347  10.478
43626W        W10409   7.377  40.411   1.700
43627W        W10410  16.614  29.506  14.992
43628W        W10411  23.111  40.328  13.543
43629W        W10412  11.016  20.591  14.997
43630W        W10413  39.198  19.679   0.682
43631W        W10414  13.087   5.379  13.894
43632W        W10415  32.011  10.231   1.490
43633W        W10416  20.706  21.626  14.401
43634W        W10417  36.963  20.071   4.239
43635W        W10418  43.263   3.422   0.979
43636W        W10419  30.368   3.737  11.540
43637W        W10420  21.303  32.908   4.411
43638W        W10421  11.252  23.529   4.321
43639W        W10422  26.117  34.727   3.285
43640W        W10423  28.728  43.086   4.724
43641W        W10424   3.575  39.781   2.541
43642W        W10425  16.677   1.898  11.162
43643W        W10426  23.116  12.071   2.811
43644W        W10427  16.669   7.728   2.296
43645W        W10428  35.061  18.152  11.674
43646W        W10429  32.902  27.171   2.189
43647W        W10430   3.507  42.138  11.104
43648W        W10431   7.778  24.965  13.400
43649W        W10432   2.680  12.710   3.723
43650W        W10433   6.370  43.801   2.042
43651W        W10434   1.318  43.699   2.698
43652W        W10435  40.790  15.778  13.778
43653W        W10436  27.655  28.962   0.181
43654W        W10437  28.612  41.279  11.957
43655W        W10438  34.742  14.204  13.256
43656W        W10439  39.456  19.461  13.403
43657W        W10440  12.284  29.572   1.286
43658W        W10441   6.446   0.987   0.548
43659W        W10442  44.565  44.913   1.665
43660W        W10443  28.980  23.742  14.463
43661W        W10444  40.778  42.344  14.953
43662W        W10445  14.427   4.943   3.579
43663W        W10446  16.376   6.943  11.037
43664W        W10447   2.666  27.689   2.324
43665W        W10448   0.198  40.889  14.616
43666W        W10449  10.333  21.704  14.727
43667W        W10450  21.674  27.215  14.271
43668W        W10451  44.094  11.222  12.536
43669W        W10452   0.832  32.572   4.640
43670W        W10453   4.915  21.169   3.200
43671W        W10454  35.533   4.160   0.850
43672W        W10455  21.908  16.805  14.381
43673W        W10456  36.365  21.409   2.346
43674W        W10457  23.776  40.472  14.777
43675W        W10458  22.171   5.844  14.954
43676W        W10459   4.646  10.824  13.573
43677W        W10460  20.648  35.299  11.921
43678W        W10461  34.140  43.244   1.802
43679W        W10462  34.410  43.590  13.885
43680W        W10463  19.420   5.235  13.873
43681W        W10464  44.732  23.594   4.184
43682W        W10465  25.346  10.497  11.909
43683W        W10466  14.639  19.682  14.740
43684W        W10467  12.355  17.824  11.165
43685W        W10468  20.258  30.910   2.416
43686W        W10469   8.847  44.080  13.852
43687W        W10470  35.087  43.371  14.158
43688W        W10471  12.018   9.749  14.740
43689W        W10472   2.270  32.021   2.716
43690W        W10473  20.162  34.500   4.648
43691W        W10474   9.609   5.491  13.512
43692W        W10475  40.965  15.392  13.017
43693W        W10476  29.612  25.522  14.259
43694W        W10477   9.226  37.832  14.902
43695W        W10478   3.737  14.544  10.637
43696W        W10479  38.819  16.470   3.755
43697W        W10480   7.827  37.973  12.453
43698W        W10481  14.676  35.741   9.916
43699W        W10482  12.354  14.710  11.030
43700W        W10483  34.845  39.425   2.204
43701W        W10484  22.515  24.757  13.469
43702W        W10485  12.227  32.976   4.022
43703W        W10486  20.029  10.303   2.723
43704W        W10487  21.261  35.846  12.363
43705W        W10488  42.040   1.502  10.764
43706W        W10489  43.531  22.433  12.529
43707W        W10490   4.964  33.067  13.315
43708W        W10491  14.127  10.547   1.828
43709W        W10492   1.767  41.316  14.778
43710W        W10493  33.028  24.998   4.313
43711W        W10494  10.643  16.185  11.454
43712W        W10495   3.881   6.043  14.496
43713W        W10496  17.254  28.255   3.190
43714W        W10497   0.018  37.618  12.029
43715W        W10498  23.744  21.200   4.684
43716W        W10499   2.494   8.436   1.680
43717W        W10500  30.264  21.593   0.389
43718W        W10501  41.851  16.577   3.854
43719W        W10502  42.372  41.998   1.988
43720W        W10503   0.224  19.248   3.229
43721W        W10504  32.646  27.209   1.202
43722W        W10505  11.036  44.548  12.672
43723W        W10506  35.080  15.701  12.917
43724W        W10507  19.136   0.933  14.369
43725W        W10508  11.241   6.445   3.275
43726W        W10509  19.562   3.641   3.817
43727W        W10510  34.870  44.093   1.835
43728W        W10511  24.668  11.029  12.573
43729W        W10512   9.413  16.555  14.806
43730W        W10513  38.080  34.312  10.437
43731W        W10514  25.077  17.708   2.608
43732W        W10515  31.136  21.668  13.877
43733W        W10516  16.137  26.143   3.765
43734W        W10517  39.844  13.212   4.539
43735W        W10518  13.877  16.140  11.097
43736W        W10519  12.090  14.830   1.305
43737W        W10520  22.461  12.116  12.538
43738W        W10521  38.844  31.174  12.030
43739W        W10522  36.768  15.640  13.522
43740W        W10523   6.685  38.808   0.815
43741W        W10524  19.410  10.207  10.211
43742W        W10525  11.670  37.849   2.169
43743W        W10526  15.254  41.367   4.657
43744W        W10527   6.161  44.234   1.835
43745W        W10528  11.589   4.512  12.104
43746W        W10529  19.441  37.134   0.866
43747W        W10530  22.577  39.900   5.227
43748W        W10531  31.131  14.681  10.441
43749W        W10532  43.916  13.436   2.982
43750W        W10533  17.651  31.454  14.367
43751W        W10534  15.258  44.706  11.597
43752W        W10535  32.384   0.732  13.504
43753W        W10536   8.979  39.026  12.008
43754W        W10537  10.004   1.621  12.025
43755W        W10538  30.457  32.951   1.448
43756W        W10539  26.879   7.244   3.437
43757W        W10540   8.463   8.845  11.939
43758W        W10541  30.157  12.234   4.675
43759W        W10542  38.425  11.908  11.172
43760W        W10543  43.387   2.364  12.491
43761W        W10544   6.737  33.996   2.165
43762W        W10545   4.426   1.976   4.069
43763W        W10546   0.626  34.331   4.035
43764W        W10547  21.565  30.054   3.389
43765W        W10548  28.142  43.724   3.099
43766W        W10549  44.043   4.659  10.103
43767W        W10550  26.217  23.210  14.774
43768W        W10551  25.101   4.996   0.262
43769W        W10552  22.098   4.850   3.364
43770W        W10553  35.403   0.395   0.300
43771W        W10554   6.328  19.024  12.458
43772W        W10555   4.971  14.699   2.199
43773W        W10556  22.293  24.046   2.118
43774W        W10557   2.096  13.604  11.551
43775W        W10558  29.079  25.768  12.002
43776W        W10559   3.667  15.727  14.757
43777W        W10560  24.399  14.047   1.773
43778W        W10561  22.656  24.303   3.553
43779W        W10562  22.267   5.549   2.858
43780W        W10563  17.634  41.042   3.277
43781W        W10564  32.109  31.315  12.516
43782W        W10565  35.677  21.958  14.431
43783W        W10566  28.111  13.927  12.959
43784W        W10567  29.426  36.862   1.451
43785W        W10568  20.833  32.491  10.631
43786W        W10569  11.595   2.964  11.110
43787W        W10570  27.462  20.825   1.072
43788W        W10571   8.417  43.858  12.991
43789W        W10572   3.667   2.232   3.674
43790W        W10573   2.234   4.299   3.667
43791W        W10574  29.038  24.305  13.450
43792W        W10575  14.073  38.442   2.311
43793W        W10576  23.020  26.005  14.882
43794W        W10577  15.763  40.857   3.548
43795W        W10578  44.024  22.859  14.339
43796W        W10579  31.381  23.749   3.305
43797W        W10580  44.021  17.344  12.460
43798W        W10581   1.223  21.640   1.816
43799W        W10582   1.707   1.820   2.662
43800W        W10583   7.148  31.498  11.042
43801W        W10584   3.470  19.112  12.503
43802W        W10585  43.008  14.599   1.662
43803W        W10586  15.996  14.835   2.624
43804W        W10587  15.868  44.001  12.484
43805W        W10588  11.854   1.340  12.861
43806W        W10589  29.763   7.159   3.390
43807W        W10590  34.283  42.325   3.297
43808W        W10591   9.734   6.636   0.296
43809W        W10592  38.346   7.789  10.125
43810W        W10593  15.571  36.794  12.085
43811W        W10594   2.237  31.517  10.514
43812W        W10595   6.326  31.614  12.441
43813W        W10596  33.105  20.978  13.526
43814W        W10597  32.770   0.517   4.110
43815W        W10598  40.050   4.488   3.250
43816W        W10599  39.938  43.432  10.816
43817W        W10600   6.650  15.088   4.099
43818W        W10601  40.272  18.536  10.718
43819W        W10602   5.352  14.951   1.129
43820W        W10603  37.755   6.437   3.674
43821W        W10604  27.559  21.773  10.417
43822W        W10605  41.731  22.917   1.922
43823W        W10606  19.077   2.027   2.243
43824W        W10607   0.198  31.761  11.844
43825W        W10608   4.555  26.622  14.286
43826W        W10609  28.901  39.889   3.610
43827W        W10610  18.957  37.658  12.133
43828W        W10611  28.496  34.337   2.386
43829W        W10612  35.332   0.355   4.680
43830W        W10613  15.661  12.235   5.045
43831W        W10614  17.867  16.273   0.206
43832W        W10615  41.472  44.312   2.211
43833W        W10616  38.880  34.357  10.138
43834W        W10617  41.215  18.031  14.288
43835W        W10618   2.087   7.873   4.461
43836W        W10619   2.243  13.621   1.314
43837W        W10620   5.870  22.061   0.744
43838W        W10621  19.593   8.279   3.063
43839W        W10622  29.169   0.979   4.574
43840W        W10623   4.239   4.882   3.094
43841W        W10624  39.913  13.259  13.763
43842W        W10625  32.962  19.736  13.009
43843W        W10626  38.423  42.572  10.852
43844W        W10627  18.212  14.565   3.266
43845W        W10628  31.178  38.969   2.279
43846W        W10629  11.064  14.864  10.633
43847W        W10630   3.463  33.598   3.697
43848W        W10631  25.514   6.113   1.950
43849W        W10632  42.374  22.400   0.830
43850W        W10633  31.422   4.063  14.734
43851W        W10634  12.766   5.751  11.997
43852W        W10635   9.345  33.303  14.883
43853W        W10636  37.239   7.400   4.678
43854W        W10637   6.907  33.135  12.926
43855W        W10638  32.994  22.258   1.484
43856W        W10639  17.129  10.589  11.129
43857W        W10640  22.117  33.015  12.029
43858W        W10641   3.457  43.047   1.959
43859W        W10642  15.746   3.018   2.465
43860W        W10643  10.299  10.808   3.908
43861W        W10644   0.238  43.044   1.275
43862W        W10645  39.526  24.872   3.617
43863W        W10646  30.194  13.219   3.308
43864W        W10647  11.652  26.551  14.288
43865W        W10648  30.599  12.587  10.702
43866W        W10649  38.481  36.609  12.932
43867W        W10650  18.577  21.053   1.524
43868W        W10651  12.361  39.447   0.994
43869W        W10652  42.581   6.347  14.751
43870W        W10653  29.338  15.339   2.890
43871W        W10654  23.820  43.323   2.258
43872W        W10655  27.921  24.413  13.020
43873W        W10656  44.843  11.379   4.134
43874W        W10657  27.542  10.838  14.357
43875W        W10658   9.365  20.404   1.186
43876W        W10659  31.009   1.188  13.877
43877W        W10660  24.127  38.857   1.449
43878W        W10661   6.493  16.977  13.763
43879W        W10662  26.069   7.314  11.892
43880W        W10663  37.925   2.885   2.707
43881W        W10664  26.396  25.166   1.662
43882W        W10665  11.410  19.782   3.358
43883W        W10666  26.576  30.276   1.054
43884W        W10667  24.755  18.038  13.919
43885W        W10668   5.698   7.881   0.884
43886W        W10669  33.992  17.622  14.450
43887W        W10670  44.679   4.941   3.616
43888W        W10671  11.605  34.547   0.799
43889W        W10672  29.939  30.034   4.402
43890W        W10673  39.464   6.852   3.041
43891W        W10674   7.360   8.781  13.341
43892W        W10675  42.758  17.736  13.990
43893W        W10676  41.672  34.446   2.792
43894W        W10677   4.705   6.938  14.405
43895W        W10678  19.548  33.020   0.928
43896W        W10679  43.522  39.372  13.351
43897W        W10680   1.206   1.438  14.157
43898W        W10681  17.724  18.700  14.819
43899W        W10682   2.563  19.049   0.936
43900W        W10683  14.437  10.829   3.618
43901W        W10684  17.309   4.922  10.462
43902W        W10685  44.363  12.582   3.285
43903W        W10686  29.617   3.461   4.459
43904W        W10687  33.967   7.380  12.287
43905W        W10688  40.290   3.945   3.013
43906W        W10689  30.098  42.659  10.214
43907W        W10690  39.110  17.228   3.486
43908W        W10691  25.705  18.776  11.119
43909W        W10692  37.863  19.606  13.325
43910W        W10693   4.139   7.980  11.081
43911W        W10694  11.224  17.737  10.350
43912W        W10695  17.590  35.867   3.153
43913W        W10696   7.102  39.162  11.247
43914W        W10697  30.422  35.005  11.130
43915W        W10698  20.822   0.836   3.759
43916W        W10699  42.226  36.565   1.293
43917W        W10700  14.237   2.501  14.489
43918W        W10701   1.233  24.514  14.658
43919W        W10702  28.719   0.272  13.813
43920W        W10703  19.746   5.912   4.464
43921W        W10704  31.461  14.140   1.902
43922W        W10705  28.183  10.327   3.180
43923W        W10706  26.423   6.161  10.656
43924W        W10707  14.888  20.518  14.904
43925W        W10708  19.815   5.318  14.189
43926W        W10709  41.286  22.923  12.866
43927W        W10710  32.669  16.906  12.948
43928W        W10711  20.353   9.882  13.328
43929W        W10712  13.133   5.234  11.227
43930W        W10713   5.263  42.379   0.692
43931W        W10714  10.872  43.319  12.033
43932W        W10715  24.044   1.994   0.291
43933W        W10716  37.412  32.491   1.342
43934W        W10717  24.944  26.528   2.209
43935W        W10718  22.649  12.786   3.215
43936W        W10719  38.538  11.625   2.426
43937W        W10720  43.533  26.063  12.663
43938W        W10721  15.723   9.947  12.104
43939W        W10722  34.449  40.066  11.555
43940W        W10723  44.936  38.002  12.398
43941W        W10724   0.468  31.531  13.310
43942W        W10725  17.903  40.855   2.865
43943W        W10726   3.767  15.917  13.990
43944W        W10727   8.844   8.333   1.143
43945W        W10728  25.774  27.254   3.041
43946W        W10729   4.291  33.547   3.400
43947W        W10730  38.811  33.190   3.320
43948W        W10731  28.394   3.232  10.678
43949W        W10732  15.725   5.960  14.963
43950W        W10733  17.565  13.547   3.304
43951W        W10734  12.927   6.133   4.122
43952W        W10735  43.523  29.934   4.515
43953W        W10736  10.162  43.482   1.841
43954W        W10737  13.751   2.739  14.541
43955W        W10738  10.402  42.810   3.627
43956W        W10739  23.094  20.743   0.620
43957W        W10740  18.720  30.248  13.020
43958W        W10741  21.860   6.734   2.255
43959W        W10742  17.416  37.823   9.793
43960W        W10743  29.909  12.261  10.387
43961W        W10744   8.741  15.822   2.758
43962W        W10745  23.417  18.577  12.879
43963W        W10746  26.781  15.599   0.818
43964W        W10747  35.425  16.234   1.629
43965W        W10748  12.753  27.115  12.477
43966W        W10749  33.614  34.450  14.446
43967W        W10750  22.569   6.460   3.849
43968W        W10751  36.008  20.504  12.159
43969W        W10752  20.206  40.941  11.095
43970W        W10753  29.529  22.380   1.371
43971W        W10754  15.271  22.937  13.358
43972W        W10755  20.357  40.859  14.719
43973W        W10756  12.323  37.092  14.302
43974W        W10757  40.035   5.724  11.584
43975W        W10758  32.673   8.385   1.933
43976W        W10759  14.595  41.194  14.939
43977W        W10760  11.263  42.692   0.221
43978W        W10761  34.144  14.596  14.301
43979W        W10762  44.347  33.072   4.358
43980W        W10763  23.045  34.538   4.844
43981W        W10764  35.903  12.199  10.714
43982W        W10765  10.885  14.129  14.828
43983W        W10766  41.238  30.220  12.062
43984W        W10767  39.807  33.518  12.951
43985W        W10768   0.000  22.333   2.243
43986W        W10769  35.783  44.272  10.558
43987W        W10770  13.653   7.179  10.314
43988W        W10771  14.144  10.563   3.271
43989W        W10772  26.953   1.309   0.966
43990W        W10773  36.666  12.920  14.542
43991W        W10774  42.236  43.128   2.823
43992W        W10775   0.381  36.164   4.959
43993W        W10776  26.055  10.822   2.306
43994W        W10777   3.726   2.066  12.033
43995W        W10778  12.053  18.320  14.287
43996W        W10779  15.850  22.339  13.965
43997W        W10780  41.920   1.414   3.676
43998W        W10781  26.225  26.935   3.233
43999W        W10782  19.809  44.090  12.107
44000W        W10783   5.756   0.831  11.056
44001W        W10784  10.330   2.750   3.427
44002W        W10785   6.535  44.806   1.376
44003W        W10786  10.116  11.848   4.128
44004W        W10787  23.451  26.628  14.378
44005W        W10788  39.124  15.295  13.028
44006W        W10789  31.153   6.418   0.462
44007W        W10790  16.835  37.036   2.653
44008W        W10791   4.142  26.687   0.876
44009W        W10792   6.743  36.809  11.506
44010W        W10793  17.082   2.945  13.326
44011W        W10794  23.801   5.490  14.597
44012W        W10795  14.631  27.714   2.199
44013W        W10796  13.800  19.535  11.586
44014W        W10797  35.616  22.035   3.700
44015W        W10798   2.361  27.897   0.708
44016W        W10799  15.317   2.499  14.262
44017W        W10800  43.518  20.751   2.276
44018W        W10801  26.377  43.459   4.049
44019W        W10802  16.326   2.737  11.935
44020W        W10803  43.557  12.911   0.163
44021W        W10804   2.422   5.931   4.269
44022W        W10805  27.508   0.070  12.578
44023W        W10806  23.346  18.807  13.739
44024W        W10807  20.811  26.400   3.546
44025W        W10808  33.707  12.849   0.166
44026W        W10809  18.685  10.646   0.245
44027W        W10810  27.689  22.597  14.940
44028W        W10811  38.844  31.934   3.728
44029W        W10812  38.348  44.603   1.285
44030W        W10813  22.468   0.097   4.250
44031W        W10814   4.707  36.777  12.136
44032W        W10815  22.162  19.488  10.955
44033W        W10816  39.540  26.968  11.960
44034W        W10817  26.704  15.541   3.631
44035W        W10818   3.872  17.802  10.603
44036W        W10819  35.018  19.639   1.289
44037W        W10820  31.805  13.101   0.784
44038W        W10821  14.067  10.188   4.219
44039W        W10822  33.641  38.951   1.229
44040W        W10823  14.158   8.690   1.962
44041W        W10824  36.091  37.488   2.358
44042W        W10825  25.282  25.847  14.846
44043W        W10826  21.021   0.666   1.488
44044W        W10827  21.673  19.126   2.590
44045W        W10828  16.509  14.524   2.864
44046W        W10829  43.368   9.353  12.521
44047W        W10830  10.759  29.998  13.490
44048W        W10831  35.662  41.012  14.391
44049W        W10832  36.508  13.172  14.948
44050W        W10833  26.935   5.060   0.223
44051W        W10834  35.148  21.251   2.702
44052W        W10835  44.623  32.748  11.586
44053W        W10836  12.575   9.871  13.366
44054W        W10837   1.437  27.864  11.886
44055W        W10838  16.981  38.376  11.441
44056W        W10839  10.904   7.359   4.785
44057W        W10840  35.134   8.046  14.414
44058W        W10841  31.527   7.921  11.538
44059W        W10842   0.024  30.898   3.690
44060W        W10843   1.339  23.834   4.722
44061W        W10844  12.602  26.458   3.180
44062W        W10845  14.331  38.881  11.276
44063W        W10846  43.952  31.369   2.997
44064W        W10847  14.111  41.955  12.950
44065W        W10848  20.545  36.245   1.385
44066W        W10849  33.868  38.996  12.345
44067W        W10850  44.963  31.298  11.782
44068W        W10851   1.719   8.775  11.598
44069W        W10852   5.232  20.313  10.748
44070W        W10853   2.416  20.580   1.866
44071W        W10854   2.807  22.455  10.686
44072W        W10855   8.063  41.843   4.501
44073W        W10856  26.209  42.590   3.727
44074W        W10857  28.981  22.537  11.653
44075W        W10858  21.095   2.972  14.263
44076W        W10859  11.221   2.247   2.813
44077W        W10860  34.271  37.558   3.488
44078W        W10861  11.790  43.331   3.686
44079W        W10862   5.589  14.309  11.555
44080W        W10863   6.211  10.061   4.687
44081W        W10864   8.283  31.413   3.746
44082W        W10865   0.855   8.690   3.612
44083W        W10866  14.730   0.669   0.233
44084W        W10867  23.965  42.541   1.161
44085W        W10868  43.260  34.520   4.427
44086W        W10869   2.040  20.602  12.478
44087W        W10870  13.601  35.180   3.174
44088W        W10871  26.065  13.721  14.726
44089W        W10872   3.426   4.977  12.402
44090W        W10873  26.682  22.084   3.660
44091W        W10874  42.167  14.328   4.019
44092W        W10875   2.813  37.512  11.768
44093W        W10876  44.974  35.033   1.199
44094W        W10877  21.088  40.364   4.371
44095W        W10878  21.729   4.814  14.462
44096W        W10879  44.280   5.525  12.039
44097W        W10880  37.442  38.827   1.327
44098W        W10881  10.570  10.387   0.296
44099W        W10882  37.157  14.014  13.249
44100W        W10883  11.374   9.340  11.088
44101W        W10884   2.366  37.949  13.904
44102W        W10885  16.089  25.472   1.788
44103W        W10886   0.815  12.851  12.386
44104W        W10887  32.617  35.655   1.838
44105W        W10888  38.918  17.517   4.818
44106W        W10889  17.686  39.125   2.184
44107W        W10890  44.468   6.402  12.385
44108W        W10891  24.547  42.880   3.362
44109W        W10892  31.229  25.677  12.925
44110W        W10893  10.228  27.633  12.635
44111W        W10894  20.650   2.826  14.044
44112W        W10895  14.845  39.846  12.121
44113W        W10896  40.869  21.268  12.981
44114W        W10897   1.843  18.516  12.075
44115W        W10898   4.025  33.967  11.620
44116W        W10899   1.657   3.248   4.601
44117W        W10900  35.389   3.667  11.040
44118W        W10901  38.879   9.888  13.032
44119W        W10902  29.006   7.898   2.118
44120W        W10903   5.891  37.892  14.447
44121W        W10904  41.901   0.743  13.877
44122W        W10905   9.405  23.710   4.992
44123W        W10906  39.338  21.393  14.853
44124W        W10907   4.019  35.957   4.238
44125W        W10908  36.906  27.903   0.307
44126W        W10909  11.824   8.132  13.481
44127W        W10910  31.899  14.612  14.934
44128W        W10911  33.834   2.646  11.400
44129W        W10912  17.336  14.566  14.750
44130W        W10913   6.094  10.629  10.182
44131W        W10914  23.982  14.861   0.703
44132W        W10915  32.231   9.141   2.812
44133W        W10916  17.880  32.184   1.975
44134W        W10917  16.056   9.456  11.573
44135W        W10918   3.850   9.744   0.513
44136W        W10919  31.320  32.508  12.915
44137W        W10920  28.039   0.036   3.610
44138W        W10921   6.524   8.373  13.347
44139W        W10922  20.955  31.821   5.030
44140W        W10923  16.603  27.614   4.308
44141W        W10924  41.226  15.690   2.498
44142W        W10925   0.709  19.111  12.092
44143W        W10926   7.621  17.049  10.777
44144W        W10927  10.325   3.690   2.890
44145W        W10928   9.507   0.492  12.939
44146W        W10929  11.209   8.692   1.357
44147W        W10930  33.030  31.169  13.017
44148W        W10931  33.948  26.312   4.079
44149W        W10932   9.768   0.817  14.123
44150W        W10933  11.734  29.363   4.199
44151W        W10934  16.538  31.506  11.989
44152W        W10935  43.148   5.585  13.225
44153W        W10936  27.690  39.057  12.770
44154W        W10937   2.045  10.355   1.567
44155W        W10938  19.183  26.045  13.827
44156W        W10939  42.331  33.602   0.584
44157W        W10940  33.017  29.909  12.365
44158W        W10941  31.888  23.596   4.548
44159W        W10942  43.021  20.955   4.209
44160W        W10943  30.360   8.313  11.003
44161W        W10944   7.930  27.293  13.160
44162W        W10945  37.341   1.812   1.051
44163W        W10946   3.591  34.029  14.025
44164W        W10947  30.613   4.615  13.078
44165W        W10948  22.974  42.077   2.595
44166W        W10949  16.024   0.910   4.149
44167W        W10950   5.842  23.275   0.111
44168W        W10951  18.732   3.208  14.376
44169W        W10952  16.294  33.589  13.483
44170W        W10953  24.527   1.714   4.927
44171W        W10954  36.336  34.337  13.443
44172W        W10955  39.517   9.710   4.102
44173W        W10956  28.063  20.077   4.115
44174W        W10957  40.020  29.491  11.069
44175W        W10958  44.287   1.849  12.307
44176W        W10959   3.700  10.710   0.524
44177W        W10960  25.777  16.372   5.018
44178W        W10961  23.538  33.012   3.919
44179W        W10962   9.293  25.981  14.157
44180W        W10963   1.219  40.866   0.894
44181W        W10964  31.969  29.980  10.669
44182W        W10965   1.767  22.549   0.949
44183W        W10966  35.379  30.683   4.545
44184W        W10967  32.630  16.509   1.433
44185W        W10968  22.712  32.033  13.602
44186W        W10969  41.937   8.115   1.081
44187W        W10970   8.462  10.324  12.119
44188W        W10971  44.133  24.477   0.687
44189W        W10972  39.774  33.213  13.383
44190W        W10973  22.520   6.577  12.580
44191W        W10974  40.980  28.102   0.742
44192W        W10975   6.019  22.788  14.119
44193W        W10976  10.380  16.053  14.474
44194W        W10977  19.600  36.041   1.745
44195W        W10978  32.073  20.287   1.341
44196W        W10979  11.133  33.661   0.838
44197W        W10980  44.921   9.920   4.263
44198W        W10981  38.126  26.433  14.714
44199W        W10982   0.636  36.425  13.940
44200W        W10983   6.018  35.499  12.279
44201W        W10984   5.497  36.409   2.907
44202W        W10985   0.234  12.220   1.395
44203W        W10986  35.564  26.801  11.588
44204W        W10987  42.804  12.692  11.060
44205W        W10988  44.499   0.810   2.307
44206W        W10989  26.662  28.911  12.004
44207W        W10990   7.704  27.758  11.453
44208W        W10991   9.660  33.684  12.395
44209W        W10992   4.495  34.394  13.065
44210W        W10993  29.691  38.943  14.887
44211W        W10994  25.188  16.298   1.352
44212W        W10995  38.902  13.008   4.058
44213W        W10996  11.131  26.175   1.419
44214W        W10997  10.406  33.629  12.062
44215W        W10998  15.128  11.578   2.303
44216W        W10999   6.071   4.870  14.478
44217W        W11000  27.937  35.602  14.485
44218W        W11001   5.668  32.838   0.742
44219W        W11002  34.736  28.706  13.618
44220W        W11003   2.910  30.443  11.504
44221W        W11004  32.106  40.308   2.146
44222W        W11005  10.056  36.488   3.621
44223W        W11006  21.187  14.753  13.791
44224W        W11007  36.842  18.162   2.624
44225W        W11008  23.588  11.406   2.366
44226W        W11009  20.731  17.821  13.434
44227W        W11010   8.632  44.647  11.046
44228W        W11011  34.845   9.812   2.189
44229W        W11012  30.473   0.179   4.885
44230W        W11013  39.109  14.583  12.495
44231W        W11014  18.638  24.035   3.636
44232W        W11015   2.342   9.468   3.071
44233W        W11016   7.784  28.142  13.473
44234W        W11017  31.364   6.619   1.728
44235W        W11018   6.797  16.673  14.680
44236W        W11019  18.570  11.723   1.850
44237W        W11020  23.108  10.755   4.176
44238W        W11021  17.699  41.724  13.970
44239W        W11022  16.469  41.212  11.579
44240W        W11023  13.170   5.426  14.795
44241W        W11024  11.685  25.901  12.841
44242W        W11025  35.181  16.197   4.857
44243W        W11026  25.077   8.826  13.839
44244W        W11027  36.421  40.079   4.278
44245W        W11028   4.806   2.138   4.363
44246W        W11029  40.334  32.019   0.779
44247W        W11030  29.694  14.098  14.344
44248W        W11031   7.150  10.667   4.096
44249W        W11032  38.968  11.106   0.052
44250W        W11033  39.487  37.241   4.666
44251W        W11034  37.932   8.756  12.991
44252W        W11035  26.227  18.710  11.135
44253W        W11036  10.880   6.959  13.442
44254W        W11037  41.758  12.955  13.380
44255W        W11038  12.070   8.365  13.873
44256W        W11039   0.348  10.762   3.103
44257W        W11040   6.012   3.520  12.043
44258W        W11041  28.095  44.234   3.104
44259W        W11042  18.816  10.311  14.848
44260W        W11043  34.800  33.655  13.357
44261W        W11044  44.375  44.449   1.886
44262W        W11045   0.852  35.500   0.924
44263W        W11046  23.792  32.953   1.810
44264W        W11047  36.992  32.422   0.394
44265W        W11048  32.416  19.189   4.116
44266W        W11049  10.762  13.213  11.172
44267W        W11050  44.702  40.989   3.416
44268W        W11051  38.956  18.764  13.714
44269W        W11052  42.822  35.531   4.615
44270W        W11053  22.611   4.693  10.723
44271W        W11054  30.343  32.076  11.014
44272W        W11055  21.637  30.387  11.109
44273W        W11056   0.330  32.789   2.770
44274W        W11057  29.077  44.750  13.052
44275W        W11058   6.627  13.660   0.731
44276W        W11059  11.421  23.590  14.867
44277W        W11060  25.094  24.168   2.774
44278W        W11061  31.939  31.384   4.549
44279W        W11062  40.478  34.994   1.766
44280W        W11063  31.121  20.590   1.734
44281W        W11064  24.218  40.018   1.440
44282W        W11065   5.958  36.924   4.336
44283W        W11066  23.651  36.860  10.744
44284W        W11067  34.586  10.471   3.623
44285W        W11068  19.574  18.766   1.649
44286W        W11069  22.550  22.626   2.680
44287W        W11070   3.774  10.315   3.572
44288W        W11071   8.422   0.776   4.310
44289W        W11072  30.196   4.348   2.798
44290W        W11073   5.763  23.250  14.055
44291W        W11074  29.741  22.223   5.399
44292W        W11075  19.568   8.265   3.625
44293W        W11076  33.617  25.447  10.815
44294W        W11077  38.892  35.562  11.246
44295W        W11078   1.260  41.076   1.787
44296W        W11079  34.517  25.048  14.030
44297W        W11080  13.779  13.253   4.962
44298W        W11081  10.910  33.409  11.037
44299W        W11082  11.619  36.537   9.766
44300W        W11083  41.483   2.995   1.473
44301W        W11084  26.986  21.729  14.781
44302W        W11085  25.203  31.600  14.506
44303W        W11086  11.201  41.517  14.880
44304W        W11087   8.149  32.355  12.673
44305W        W11088  23.474  15.736  10.698
44306W        W11089  23.692  39.870   3.067
44307W        W11090  23.814  43.471   9.946
44308W        W11091  13.235  42.182   1.610
44309W        W11092  13.319  40.023   0.695
44310W        W11093  33.293   9.807   4.958
44311W        W11094  43.671  21.766   0.652
44312W        W11095  12.599  38.265   3.232
44313W        W11096  23.035  15.473  12.801
44314W        W11097  39.530  35.035   2.355
44315W        W11098  18.109   5.457   4.057
44316W        W11099  37.408   7.372   0.072
44317W        W11100  17.266   8.413   2.225
44318W        W11101   5.268   4.287  12.443
44319W        W11102  17.104  41.918   0.682
44320W        W11103  26.429  12.711  12.925
44321W        W11104  20.858  38.721  11.564
44322W        W11105   5.932  30.098   0.836
44323W        W11106  10.793   0.733   2.695
44324W        W11107  31.678  42.160  11.672
44325W        W11108   8.734  25.619  10.799
44326W        W11109  37.358   2.882   0.273
44327W        W11110  28.081   0.693  13.792
44328W        W11111  40.269   3.298   3.638
44329W        W11112  21.058   9.168  12.930
44330W        W11113  19.258  23.449  13.364
44331W        W11114  43.571   0.320   4.754
44332W        W11115  31.072  37.067  10.486
44333W        W11116   1.410  35.044   1.437
44334W        W11117  28.522   9.321   4.591
44335W        W11118   8.643  25.737   0.753
44336W        W11119  33.499  41.227  14.837
44337W        W11120  10.578  31.491   1.355
44338W        W11121  31.999   8.494   0.326
44339W        W11122  15.217  28.612  13.213
44340W        W11123  11.811  36.585   1.780
44341W        W11124   3.265   9.285   3.543
44342W        W11125  36.378  19.440  12.961
44343W        W11126   7.927  22.698   1.401
44344W        W11127  41.213  35.359   0.375
44345W        W11128  40.324   6.360  14.039
44346W        W11129  41.192   5.448   1.866
44347W        W11130   4.684  12.732  12.499
44348W        W11131   4.220  13.667   0.333
44349W        W11132   7.200   1.460  14.520
44350W        W11133  12.369  16.320  13.806
44351W        W11134  38.808  42.247  14.857
44352W        W11135  26.119   9.235   2.409
44353W        W11136  37.548   2.233   2.763
44354W        W11137  24.628  27.619   9.929
44355W        W11138  27.584  16.292  10.607
44356W        W11139  15.487   4.814  11.998
44357W        W11140  13.069   0.260   3.419
44358W        W11141   8.349  11.223  12.967
44359W        W11142  16.086  35.830  11.578
44360W        W11143   9.894  18.851   1.689
44361W        W11144  38.114  18.729  11.752
44362W        W11145  32.414  32.209  12.487
44363W        W11146  16.114  29.802   0.918
44364W        W11147   6.574   6.764   2.236
44365W        W11148   2.705  19.474   2.189
44366W        W11149  26.407  27.699  13.020
44367W        W11150  26.743  31.001  13.830
44368W        W11151   2.767   3.382  10.681
44369W        W11152  35.892   4.745   3.659
44370W        W11153   3.273   7.635   4.991
44371W        W11154   5.866   9.127  14.228
44372W        W11155  39.552  24.700  10.734
44373W        W11156  37.303   7.196   0.541
44374W        W11157  18.824  38.395  13.853
44375W        W11158  12.947   3.334  12.085
44376W        W11159  20.857  41.393  11.972
44377W        W11160  10.076  30.350  11.188
44378W        W11161  25.665  19.644  10.618
44379W        W11162  35.974  22.205   0.371
44380W        W11163   5.699  13.500  11.121
44381W        W11164  32.011  31.896   3.626
44382W        W11165  26.042   4.955   1.776
44383W        W11166  29.522  31.217  12.045
44384W        W11167  23.711  17.914   4.226
44385W        W11168  44.427   0.971  10.616
44386W        W11169  39.770   9.257   1.821
44387W        W11170  38.385   7.230   4.142
44388W        W11171  38.358  15.280   4.645
44389W        W11172  11.053  34.649   0.900
44390W        W11173  41.693  11.757   4.061
44391W        W11174  33.894  18.155   1.474
44392W        W11175  28.747  41.317  10.264
44393W        W11176  31.533  30.281  12.359
44394W        W11177  42.320  31.521   1.798
44395W        W11178  29.987  37.045   4.432
44396W        W11179  24.596   0.331  11.624
44397W        W11180   8.607  38.413   1.801
44398W        W11181   1.925  24.315  13.387
44399W        W11182   0.295   4.905   1.418
44400W        W11183  29.196  11.735  11.674
44401W        W11184   3.155  38.428  13.435
44402W        W11185  43.557  25.377  13.567
44403W        W11186   2.210  12.256   1.144
44404W        W11187  35.956   2.184  10.555
44405W        W11188  26.023   0.897  10.707
44406W        W11189   8.382  41.881  11.244
44407W        W11190   5.200  21.697  11.535
44408W        W11191  22.939  21.801  11.059
44409W        W11192   4.371  40.826   3.738
44410W        W11193   4.467   3.259  14.695
44411W        W11194  10.758  43.866  11.960
44412W        W11195  20.624  16.780   3.623
44413W        W11196   9.180  30.285  12.194
44414W        W11197  11.145  11.811   4.163
44415W        W11198  33.641  26.668   4.850
44416W        W11199  23.270  42.530  14.001
44417W        W11200  43.424  28.221   2.698
44418W        W11201   0.696   8.164  14.900
44419W        W11202  15.507   0.542  14.289
44420W        W11203  38.491  33.052  14.520
44421W        W11204  41.655  13.856  13.210
44422W        W11205  17.347   4.854  14.764
44423W        W11206  42.787  23.728  10.147
44424W        W11207  12.211  12.837  14.292
44425W        W11208  41.519  17.734   1.297
44426W        W11209   2.652  22.969   1.369
44427W        W11210  39.791  15.814  13.508
44428W        W11211  44.393  30.102   1.538
44429W        W11212   9.206  44.821  12.379
44430W        W11213   9.094   8.336   2.835
44431W        W11214  29.046  20.717   2.716
44432W        W11215  41.257   6.307   1.052
44433W        W11216  41.077  12.905   2.325
44434W        W11217   5.952  27.072   4.628
44435W        W11218  22.603   9.302  13.713
44436W        W11219  26.487  23.189  12.472
44437W        W11220   2.286  43.248   2.108
44438W        W11221  16.215  23.624  12.083
44439W        W11222  19.981  19.144   2.843
44440W        W11223   1.603  42.091   3.520
44441W        W11224  28.872  21.028  12.909
44442W        W11225  44.534  17.714   2.398
44443W        W11226  31.428   7.174  13.444
44444W        W11227   1.924  39.886   1.044
44445W        W11228  38.892  26.951   1.276
44446W        W11229  28.431  34.348  14.889
44447W        W11230  24.417  39.922  13.823
44448W        W11231  13.049   4.866   1.354
44449W        W11232  21.010  26.958  13.105
44450W        W11233  14.667  32.039  10.734
44451W        W11234  28.825  24.042  11.480
44452W        W11235  12.065  18.075  13.057
44453W        W11236  38.118   9.510  10.092
44454W        W11237  29.940  26.124  12.418
44455W        W11238  26.204  31.817   0.424
44456W        W11239  24.882  29.925   0.947
44457W        W11240   0.385   1.237   4.613
44458W        W11241  14.703  20.961   0.480
44459W        W11242  20.593  23.425   3.333
44460W        W11243  24.010  14.880   0.209
44461W        W11244  38.593  21.568  14.342
44462W        W11245  20.773  38.073  13.088
44463W        W11246   3.992  41.693   4.699
44464W        W11247  26.850  40.134  13.405
44465W        W11248   8.196  38.632   2.673
44466W        W11249  33.011  36.436   1.278
44467W        W11250   8.241  41.433  12.984
44468W        W11251  10.807   5.614   0.485
44469W        W11252   3.237   9.934  11.504
44470W        W11253  19.988  32.450  11.642
44471W        W11254  40.799  25.080   2.206
44472W        W11255  16.529  28.085   4.508
44473W        W11256   3.965  41.523  13.929
44474W        W11257  40.287   4.949   0.004
44475W        W11258  38.807  14.873  14.426
44476W        W11259  13.326   9.619  13.884
44477W        W11260  40.861  29.023   0.320
44478W        W11261  37.441  35.259   0.964
44479W        W11262  42.531   4.788   5.076
44480W        W11263  17.691  24.242   1.355
44481W        W11264   5.961  42.421  12.143
44482W        W11265  41.863  43.478   2.741
44483W        W11266  19.084   7.815  12.996
44484W        W11267  29.405  34.422   2.487
44485W        W11268  34.179  13.074   3.308
44486W        W11269  44.115  16.962   5.459
44487W        W11270  13.211   5.290   2.434
44488W        W11271   0.960  30.762   0.959
44489W        W11272  44.204  22.696   3.823
44490W        W11273  39.764  29.917  13.420
44491W        W11274  11.435  27.693  14.009
44492W        W11275  32.718  10.830   3.944
44493W        W11276  43.278   2.460   3.279
44494W        W11277  22.237  23.788   4.527
44495W        W11278  10.158  28.482   0.543
44496W        W11279   8.518   5.312   2.794
44497W        W11280   3.706  25.676  12.786
44498W        W11281  14.294   1.279  13.047
44499W        W11282  13.287  29.074  11.546
44500W        W11283  17.077  26.754  11.103
44501W        W11284  10.718  40.727  14.821
44502W        W11285  28.468  33.252   1.596
44503W        W11286  23.063  42.784   4.074
44504W        W11287  11.635  21.157  10.391
44505W        W11288  32.628   9.671   0.996
44506W        W11289  22.192  36.836  13.582
44507W        W11290  11.096  16.092  12.493
44508W        W11291  25.114   3.456   3.776
44509W        W11292  17.205   5.991   3.895
44510W        W11293  24.002  44.125   4.126
44511W        W11294   4.887  39.881   1.492
44512W        W11295   5.510   3.428  12.013
44513W        W11296  20.441   3.125  10.288
44514W        W11297  43.893  25.960  11.900
44515W        W11298  36.400   5.843   0.664
44516W        W11299  41.384  43.928   3.844
44517W        W11300  34.853  25.075   2.809
44518W        W11301  13.864  40.790   0.477
44519W        W11302   4.950  31.115  14.359
44520W        W11303  30.493  17.231   4.816
44521W        W11304  42.876  24.312  10.740
44522W        W11305  44.875   5.660   4.170
44523W        W11306  13.684  20.018  14.736
44524W        W11307   2.526  27.522   4.604
44525W        W11308  15.694  18.677  14.816
44526W        W11309   2.518  40.993  10.705
44527W        W11310  33.602  21.556  14.675
44528W        W11311  35.747  34.634   0.018
44529W        W11312  21.329  39.411   1.372
44530W        W11313  16.145  35.943   2.371
44531W        W11314   2.470   6.289   2.860
44532W        W11315  19.776  39.456  13.285
44533W        W11316  26.886  20.777  11.649
44534W        W11317  35.615  41.316  10.714
44535W        W11318  12.200   4.491  10.735
44536W        W11319  30.114   9.620   0.612
44537W        W11320  37.152  42.459   3.798
44538W        W11321  44.323  36.627  14.409
44539W        W11322  16.614  22.019  14.142
44540W        W11323  32.983  34.344   1.270
44541W        W11324   2.399   1.069   0.802
44542W        W11325  42.845  27.824  11.596
44543W        W11326  30.929   1.711  14.853
44544W        W11327   1.977   3.023   3.802
44545W        W11328  17.138   6.108  13.981
44546W        W11329  38.582  30.605   0.329
44547W        W11330  38.965  27.145   0.342
44548W        W11331  42.868  27.419  13.644
44549W        W11332   1.938  34.443   4.595
44550W        W11333  20.450   5.600   1.402
44551W        W11334  33.860  31.474  12.896
44552W        W11335  33.699  40.646   4.625
44553W        W11336  31.833  13.582   3.931
44554W        W11337  22.850   0.805  11.600
44555W        W11338  29.179  41.478  11.166
44556W        W11339   6.331  36.809  11.188
44557W        W11340  39.639  35.603   2.660
44558W        W11341  33.927  13.331   4.534
44559W        W11342   5.480  41.542  12.939
44560W        W11343   0.768  40.899   4.891
44561W        W11344  33.388  44.309  12.324
44562W        W11345  25.494  37.833   2.230
44563W        W11346  30.109  18.598  11.919
44564W        W11347   3.463   8.719  11.189
44565W        W11348   7.497  20.587  12.140
44566W        W11349  28.512  37.167  13.531
44567W        W11350  44.530  16.389   5.078
44568W        W11351   1.480  21.743   2.637
44569W        W11352  24.070  44.382   4.986
44570W        W11353  26.990  20.023   4.172
44571W        W11354   2.993   3.744   1.862
44572W        W11355  31.204   9.680  11.845
44573W        W11356  34.773  19.083   2.339
44574W        W11357  30.041   2.051  13.578
44575W        W11358   6.470  40.089  14.328
44576W        W11359  21.950  32.150   2.027
44577W        W11360  39.401   2.920   3.352
44578W        W11361  35.462  10.452   0.394
44579W        W11362  14.735  29.664   4.246
44580W        W11363  13.269  44.099   2.371
44581W        W11364   5.449   1.350   3.648
44582W        W11365  33.009   6.418   0.299
44583W        W11366  31.919  41.545   0.046
44584W        W11367  35.431   3.593  14.595
44585W        W11368   1.988  41.563  13.766
44586W        W11369  14.131   4.931   0.473
44587W        W11370   2.828  33.979   1.818
44588W        W11371  14.183  42.112  12.009
44589W        W11372  10.150   5.404   0.640
44590W        W11373  36.956  14.830   3.835
44591W        W11374  37.410  13.538  13.957
44592W        W11375  14.233  19.295   3.304
44593W        W11376  34.168  44.053   3.300
44594W        W11377  43.595  33.799   0.754
44595W        W11378  30.627  21.719   1.701
44596W        W11379   7.801  36.599   3.722
44597W        W11380  38.084  21.573   1.539
44598W        W11381  40.471   3.904  12.297
44599W        W11382  26.151   2.687  10.112
44600W        W11383  19.546  20.470  12.612
44601W        W11384   1.557   3.431  13.421
44602W        W11385  43.089   9.796   3.773
44603W        W11386   5.025  16.540  12.576
44604W        W11387   3.898  32.139   2.637
44605W        W11388  12.698  33.942   4.406
44606W        W11389  10.332  19.292  10.698
44607W        W11390  36.128  16.806   3.666
44608W        W11391   9.218   8.888  13.888
44609W        W11392  39.037  43.213  12.120
44610W        W11393  10.644  36.595  13.117
44611W        W11394  14.122  12.073  13.511
44612W        W11395  44.348   1.334   0.706
44613W        W11396  43.385  23.127   3.567
44614W        W11397  38.578   2.764   2.311
44615W        W11398  17.123  12.640  11.619
44616W        W11399  32.442  23.992  14.010
44617W        W11400  26.412  29.156   2.267
44618W        W11401  22.757  37.031   1.453
44619W        W11402   5.618  16.577  13.608
44620W        W11403  26.044   3.016  14.372
44621W        W11404  32.592  22.533   3.641
44622W        W11405   6.788  17.864  12.073
44623W        W11406  19.759  35.654   0.785
44624W        W11407   6.438  19.913  10.686
44625W        W11408  33.973  43.873   3.743
44626W        W11409  33.923   0.397   3.558
44627W        W11410  39.312  35.083   1.884
44628W        W11411  37.666  41.329   4.996
44629W        W11412  10.810  42.704   1.856
44630W        W11413   5.650  30.199  13.272
44631W        W11414  24.019  35.211   1.217
44632W        W11415  38.939  32.010   4.994
44633W        W11416   0.467  29.398  11.071
44634W        W11417  17.322  27.215  11.459
44635W        W11418  12.291  40.522  14.000
44636W        W11419  19.129   6.902  14.556
44637W        W11420  31.353  32.696  13.824
44638W        W11421  34.383  25.241   0.431
44639W        W11422  43.201  42.251  12.903
44640W        W11423  33.842  30.996   1.829
44641W        W11424   1.765  16.084  14.851
44642W        W11425   4.750  42.693  12.286
44643W        W11426  37.599  40.654  14.411
44644W        W11427   7.915  40.469   4.863
44645W        W11428  25.457  35.546  12.987
44646W        W11429  15.161   9.418   4.910
44647W        W11430  36.136   9.310  11.457
44648W        W11431   1.849  18.693  10.928
44649W        W11432   7.892  36.087   3.798
44650W        W11433  32.570  40.979  12.432
44651W        W11434   9.440   0.320   3.710
44652W        W11435  22.209  18.828  12.402
44653W        W11436  37.462  18.674  13.948
44654W        W11437  42.797  16.413   2.220
44655W        W11438  29.549  15.910   1.361
44656W        W11439  12.822  23.794  14.013
44657W        W11440  32.432  38.883  13.293
44658W        W11441  42.558  14.920   3.233
44659W        W11442  43.524  24.854  11.131
44660W        W11443  37.844  44.740  14.339
44661W        W11444   1.961   2.454  11.633
44662W        W11445  15.708  11.522   1.811
44663W        W11446   0.762  25.067   0.386
44664W        W11447  34.627  42.593  13.846
44665W        W11448  20.677   3.280  14.290
44666W        W11449  36.814  32.764   3.362
44667W        W11450   9.595  32.521  13.760
44668W        W11451   8.706  38.524   2.712
44669W        W11452   3.943  37.931   0.948
44670W        W11453  37.062  25.140  11.639
44671W        W11454  20.382  10.660  14.589
44672W        W11455  28.435  30.365   1.244
44673W        W11456  29.052   2.481  10.609
44674W        W11457  37.982  37.281   3.459
44675W        W11458  30.169  11.926  14.538
44676W        W11459   5.475  18.076   2.867
44677W        W11460  31.532  14.674   4.611
44678W        W11461  24.969  31.449  11.516
44679W        W11462  16.153  43.417   0.240
44680W        W11463  30.958  32.063   3.732
44681W        W11464  42.537  33.954  10.930
44682W        W11465  27.229  39.555   4.876
44683W        W11466  26.026  24.625  14.163
44684W        W11467  38.654   7.218  11.024
44685W        W11468  21.709  14.888  14.995
44686W        W11469  23.161  16.692  10.682
44687W        W11470  32.045  35.178  12.015
44688W        W11471  14.614  25.108   1.506
44689W        W11472   5.472  37.858   4.357
44690W        W11473   1.820   6.725   2.460
44691W        W11474  34.057   2.354   3.182
44692W        W11475  37.974  41.986  13.436
44693W        W11476  41.145  14.840  13.993
44694W        W11477  44.155  24.343   5.044
44695W        W11478  18.753  30.973   2.703
44696W        W11479  38.551  10.772  12.951
44697W        W11480  15.333  44.755   0.905
44698W        W11481  21.527  28.129   2.753
44699W        W11482  35.133  23.028  11.036
44700W        W11483  31.000  16.313   0.486
44701W        W11484  28.546  12.128  11.015
44702W        W11485  11.803   5.114   4.197
44703W        W11486  44.435  19.621   4.069
44704W        W11487   6.175  24.682   1.352
44705W        W11488   6.653  31.929   2.396
44706W        W11489   0.279  10.606  12.818
44707W        W11490   6.690  19.701  12.463
44708W        W11491  11.925  44.363   0.447
44709W        W11492  32.599  18.057   3.285
44710W        W11493  43.222  42.853   4.538
44711W        W11494  11.363   7.146   4.631
44712W        W11495  11.784   3.858  13.422
44713W        W11496  25.622  36.399   1.902
44714W        W11497  39.053   4.310  12.229
44715W        W11498  21.099  20.266  11.174
44716W        W11499   9.111   6.528  12.058
44717W        W11500  28.026  24.162  11.071
44718W        W11501  44.984   8.206   3.675
44719W        W11502  33.411  16.638   3.337
44720W        W11503  24.261  14.749   2.789
44721W        W11504   2.390  40.012   4.627
44722W        W11505  43.232  18.179   2.361
44723W        W11506  37.604  33.466   4.823
44724W        W11507  40.415  33.799   1.147
44725W        W11508  35.867  41.477   4.147
44726W        W11509  12.698  40.920  14.858
44727W        W11510  35.810  14.610   2.318
44728W        W11511  40.792  39.572  12.614
44729W        W11512  19.197  37.432  13.923
44730W        W11513   4.020  16.744  10.681
44731W        W11514  16.513  37.915  11.949
44732W        W11515  14.009  44.392  11.975
44733W        W11516  25.985  22.283   1.772
44734W        W11517  43.067   1.678   2.960
44735W        W11518  31.115  15.236  11.147
44736W        W11519  26.897   4.866  12.114
44737W        W11520  41.088   0.231  13.463
44738W        W11521   4.455  43.788   3.352
44739W        W11522   3.776  32.048   4.671
44740W        W11523   0.771  28.512  12.346
44741W        W11524  16.351  37.573   0.986
44742W        W11525  22.498  10.365   2.798
44743W        W11526  19.231  31.480  11.176
44744W        W11527  44.347  35.351  12.520
44745W        W11528  24.235  37.130   4.337
44746W        W11529   0.347   2.213  10.432
44747W        W11530  23.945   7.246  12.073
44748W        W11531   9.448   5.905   1.808
44749W        W11532  38.893  24.834  14.925
44750W        W11533  23.526  40.892   4.063
44751W        W11534  21.975  34.626  14.783
44752W        W11535  20.196  11.258  12.395
44753W        W11536  27.425  10.326  14.307
44754W        W11537  17.595   8.811   1.393
44755W        W11538  40.620  12.340  14.720
44756W        W11539  28.385  43.873   1.238
44757W        W11540  15.583   2.435  10.691
44758W        W11541  16.052  43.899  10.604
44759W        W11542  42.877  17.170   3.703
44760W        W11543  32.108  21.305   0.403
44761W        W11544  23.943  42.832  11.649
44762W        W11545   2.955   2.662   2.728
44763W        W11546  28.541  30.978   3.691
44764W        W11547  29.382  30.988   2.102
44765W        W11548   5.765  15.250   3.755
44766W        W11549  43.001  30.040   4.381
44767W        W11550  23.023  43.975   0.418
44768W        W11551   0.820  18.833  14.460
44769W        W11552   0.255   0.311   1.277
44770W        W11553  27.223  38.355  11.146
44771W        W11554  10.310  35.780   1.906
44772W        W11555  30.172   2.781   4.393
44773W        W11556   7.762  24.228  14.725
44774W        W11557   4.958  18.767   3.729
44775W        W11558   0.506   6.246  11.468
44776W        W11559   0.014  21.556   0.943
44777W        W11560   2.016  35.954  12.187
44778W        W11561  44.523  14.603  12.791
44779W        W11562  39.464  38.370   0.812
44780W        W11563   1.837  36.429  11.008
44781W        W11564  11.320  33.139  13.637
44782W        W11565  15.621  25.342  14.224
44783W        W11566  15.173   4.749   0.344
44784W        W11567  44.056  40.132   1.599
44785W        W11568   4.689  19.120  11.587
44786W        W11569  23.115  14.797  11.580
44787W        W11570  25.901  30.513  13.872
44788W        W11571  10.076  44.918  11.176
44789W        W11572  39.503  15.054  14.409
44790W        W11573  29.471  15.774   1.862
44791W        W11574  32.095  32.124  11.249
44792W        W11575  33.477  32.991  13.747
44793W        W11576  23.044  10.896  12.291
44794W        W11577  30.912   9.301  13.395
44795W        W11578  38.002  17.577   4.246
44796W        W11579  32.580   7.002  13.876
44797W        W11580   2.944  25.640   1.405
44798W        W11581   7.856  24.015  11.613
44799W        W11582  44.100  39.423   2.649
44800W        W11583   6.861   8.169   3.017
44801W        W11584  29.446   4.867   4.124
44802W        W11585  36.630   6.713  11.365
44803W        W11586  21.592   4.187   3.706
44804W        W11587  41.994  14.054   2.230
44805W        W11588  27.737  28.874   1.947
44806W        W11589  43.933  23.016   4.132
44807W        W11590  13.606  22.070  10.518
44808W        W11591  43.815  21.283   3.637
44809W        W11592  22.944  35.656   4.609
44810W        W11593   9.310  33.944  13.074
44811W        W11594  25.993  27.205  11.631
44812W        W11595  24.088   2.890   0.832
44813W        W11596  44.565  36.123   3.242
44814W        W11597  29.586  15.411   4.390
44815W        W11598  40.294   7.857  12.976
44816W        W11599   5.820  44.444  11.630
44817W        W11600  13.383   9.131   3.663
44818W        W11601  11.565  27.732   2.771
44819W        W11602  20.563  17.348   1.904
44820W        W11603  18.284   0.016  13.273
44821W        W11604  15.020  29.023   0.465
44822W        W11605  32.331  40.403   2.864
44823W        W11606  43.774  36.484  13.387
44824W        W11607  43.253  39.860   4.014
44825W        W11608  12.081  38.627  13.530
44826W        W11609   4.775  13.368   3.607
44827W        W11610  20.550  39.529  11.977
44828W        W11611  34.318   1.854  14.692
44829W        W11612  20.948  31.427   0.943
44830W        W11613   6.024  10.204   0.263
44831W        W11614  16.765  34.093  11.052
44832W        W11615  20.134  18.105  10.195
44833W        W11616  33.878   3.839   1.358
44834W        W11617  39.586  17.031   3.349
44835W        W11618  18.156  23.214  11.528
44836W        W11619  12.265  30.618  13.401
44837W        W11620  15.825  18.750  11.131
44838W        W11621  32.920  17.027  13.530
44839W        W11622   1.794  15.625  11.979
44840W        W11623   0.523   6.729   4.765
44841W        W11624  12.089  36.004   2.319
44842W        W11625  31.342  30.031   3.800
44843W        W11626  12.165  23.451   0.255
44844W        W11627  18.214   2.845   4.802
44845W        W11628   6.344  31.244  11.180
44846W        W11629  24.038  15.229  14.479
44847W        W11630  23.971   8.778   4.505
44848W        W11631  20.804  39.583  10.143
44849W        W11632  10.155  38.355   1.849
44850W        W11633  39.477  26.226   0.305
44851W        W11634  39.566  36.711   3.306
44852W        W11635   0.957  39.163  10.879
44853W        W11636   6.191  16.716   2.035
44854W        W11637   9.326   0.385  13.416
44855W        W11638  21.088   1.349   0.677
44856W        W11639  25.209  42.224  12.028
44857W        W11640  32.243  13.499  11.559
44858W        W11641  28.724  31.702  13.031
44859W        W11642  24.011  33.071   4.540
44860W        W11643   0.209  24.551   0.854
44861W        W11644  40.409  35.438   4.772
44862W        W11645  30.573  39.886  10.638
44863W        W11646  39.489  20.010  12.937
44864W        W11647  17.521  10.661   1.675
44865W        W11648  35.511  14.518  14.385
44866W        W11649  26.928  21.051   2.183
44867W        W11650  15.405  29.526   3.045
44868W        W11651   0.040  10.428   1.689
44869W        W11652  12.732   5.695   1.881
44870W        W11653  19.282  16.195   2.411
44871W        W11654   5.849  27.225   0.564
44872W        W11655  27.128  24.087  10.936
44873W        W11656  11.058   2.977  11.908
44874W        W11657  31.131  31.415  12.357
44875W        W11658   8.314  10.653  10.448
44876W        W11659  18.791  41.563  12.623
44877W        W11660   7.800  13.327   0.287
44878W        W11661   7.875  17.172   1.270
44879W        W11662  16.064  40.521  13.921
44880W        W11663  12.343  17.259   0.186
44881W        W11664  39.070  28.877  12.543
44882W        W11665  40.541  38.905  10.729
44883W        W11666  35.029  28.110   0.041
44884W        W11667   4.753  44.332   4.055
44885W        W11668  13.161  34.124   2.302
44886W        W11669  43.784  18.757  10.706
44887W        W11670  23.006   0.954   0.381
44888W        W11671  37.357   3.679  11.369
44889W        W11672   7.000  12.854  13.446
44890W        W11673  28.473   4.667   1.323
44891W        W11674  41.533  22.841  14.418
44892W        W11675  43.484   5.477   4.576
44893W        W11676   7.284  16.860  11.179
44894W        W11677  34.980  35.568   2.358
44895W        W11678   5.199  12.188  11.412
44896W        W11679  36.046  27.482   0.209
44897W        W11680  14.181  44.536  10.200
44898W        W11681   6.856  39.422  10.620
44899W        W11682  25.439   8.279   0.477
44900W        W11683  18.425  18.535  14.473
44901W        W11684   2.972  12.262   3.702
44902W        W11685  28.275  28.060  14.897
44903W        W11686  43.922  24.530  11.914
44904W        W11687   2.483  34.975   4.941
44905W        W11688  27.002  13.711   3.216
44906W        W11689   1.333   5.712  12.906
44907W        W11690  27.675   9.594  13.976
44908W        W11691   4.846  32.995   0.064
44909W        W11692  43.496  14.597   1.392
44910W        W11693  10.793  39.331   1.761
44911W        W11694  23.197  34.542   4.359
44912W        W11695  27.122   5.679   4.039
44913W        W11696  14.456  24.499   3.778
44914W        W11697  23.568  24.150  10.128
44915W        W11698  33.017  30.138   4.711
44916W        W11699   0.604   5.533  14.348
44917W        W11700  27.707  40.880   1.267
44918W        W11701  27.141  12.907   3.573
44919W        W11702  34.109  17.761  12.547
44920W        W11703  30.040  11.712   4.769
44921W        W11704   7.732  21.699  12.409
44922W        W11705  17.143   3.261   0.872
44923W        W11706  40.765  42.541  10.218
44924W        W11707  31.013  19.903  10.177
44925W        W11708  24.222  27.488  13.566
44926W        W11709  22.235  26.462  11.584
44927W        W11710  29.602  24.618  10.542
44928W        W11711  35.841  15.130   4.590
44929W        W11712   9.197  19.225  10.531
44930W        W11713   4.845  12.750   4.486
44931W        W11714   9.370  22.111   3.110
44932W        W11715   5.295  38.636  12.536
44933W        W11716  11.166  32.578   4.554
44934W        W11717  29.442  41.022  12.422
44935W        W11718  35.051  29.185  14.380
44936W        W11719  12.049   0.164   1.646
44937W        W11720  39.338  37.783   1.765
44938W        W11721  14.095  23.061   4.619
44939W        W11722  33.974  44.952  12.056
44940W        W11723  19.229  17.538   2.609
44941W        W11724  40.882  11.420  11.987
44942W        W11725   1.151  31.970   0.364
44943W        W11726  21.297  14.121   2.448
44944W        W11727  27.609   3.780   0.953
44945W        W11728  25.448  36.959   3.674
44946W        W11729   4.798   4.218   0.786
44947W        W11730   7.723  21.836  13.835
44948W        W11731  42.265  34.982  14.818
44949W        W11732   5.260  41.688  14.836
44950W        W11733   4.749  13.771   2.175
44951W        W11734   5.689  34.315  13.807
44952W        W11735  14.551  17.051  11.491
44953W        W11736  17.219  22.084  13.441
44954W        W11737  30.986   2.491   3.267
44955W        W11738  30.456  43.741   0.714
44956W        W11739   4.737  32.874   3.927
44957W        W11740  20.470   7.433   1.645
44958W        W11741   2.704   7.551   3.616
44959W        W11742  28.506   7.054  11.630
44960W        W11743  13.302  14.858  13.418
44961W        W11744  25.118  26.195  11.966
44962W        W11745   8.692  18.867  11.588
44963W        W11746  44.777  19.563  12.147
44964W        W11747  30.352   8.577  12.516
44965W        W11748  37.895  32.181   0.426
44966W        W11749   6.996   9.813  14.072
44967W        W11750   8.550  32.391   1.706
44968W        W11751   5.662  17.674   3.248
44969W        W11752  43.244  27.037   4.256
44970W        W11753   2.941  22.007  14.526
44971W        W11754  39.443  40.302  10.906
44972W        W11755   7.442  16.330  11.244
44973W        W11756  10.946  44.398   0.082
44974W        W11757  26.994  29.489   1.767
44975W        W11758  41.933  20.484  11.876
44976W        W11759   1.815  31.677   4.789
44977W        W11760  41.379   4.414   0.206
44978W        W11761  36.154  17.022  11.471
44979W        W11762  35.599  28.571   2.750
44980W        W11763  20.796  10.610  14.257
44981W        W11764  23.132   0.874   0.888
44982W        W11765  35.158  12.847  13.051
44983W        W11766  41.002   2.749   1.624
44984W        W11767  28.968  25.723   4.462
44985W        W11768  39.402  28.715  10.987
44986W        W11769  14.650  25.965  13.938
44987W        W11770   4.568  21.673   2.442
44988W        W11771  22.780  22.471   1.773
44989W        W11772  40.254  41.442   1.407
44990W        W11773  16.863  15.667  14.778
44991W        W11774   4.975   3.192   1.720
44992W        W11775  15.784  15.215   1.956
44993W        W11776  36.494  38.602   4.595
44994W        W11777   7.337   4.065   3.663
44995W        W11778  16.115  21.018   3.537
44996W        W11779  16.555  27.683  14.505
44997W        W11780   8.750  34.879   1.798
44998W        W11781  35.383  21.204   0.540
44999W        W11782  33.693  37.579  13.096
45000W        W11783  35.672  24.040   1.178
45001W        W11784   8.657  14.730   0.109
45002W        W11785  20.163  26.987   4.630
45003W        W11786  28.673   7.193   1.951
45004W        W11787  36.758  31.540  11.739
45005W        W11788   4.915   4.627  12.502
45006W        W11789  13.088   7.210  12.416
45007W        W11790   4.405  37.211   1.370
45008W        W11791  10.865  20.724  13.146
45009W        W11792   0.135  35.096  13.370
45010W        W11793  40.524   4.869  11.974
45011W        W11794  39.476   0.215   2.112
45012W        W11795  28.355  44.318  10.983
45013W        W11796   2.005  39.702   0.005
45014W        W11797  10.619  15.039   3.254
45015W        W11798  10.120   3.961   3.288
45016W        W11799  36.612  30.955  12.568
45017W        W11800  10.166  24.779  13.365
45018W        W11801  32.903   6.896  14.569
45019W        W11802  33.638  35.431  11.550
45020W        W11803  41.041  10.258   3.859
45021W        W11804   8.626  38.259   4.623
45022W        W11805   2.483  43.876   3.372
45023W        W11806  21.275  15.625   4.928
45024W        W11807  11.785  26.157   0.546
45025W        W11808   6.342  27.400   4.835
45026W        W11809  38.038   8.433  12.612
45027W        W11810   8.595  31.979  12.623
45028W        W11811  29.508  31.012   3.632
45029W        W11812  44.461  23.158  12.464
45030W        W11813  25.247  14.404   2.827
45031W        W11814  34.717  16.127   1.374
45032W        W11815  43.230  30.437  13.880
45033W        W11816   1.534   2.452  13.037
45034W        W11817  42.898  24.755   4.035
45035W        W11818  25.646  14.319   0.424
45036W        W11819  13.985  14.241  12.137
45037W        W11820  43.042  33.237  12.403
45038W        W11821  16.228  22.699   0.362
45039W        W11822  38.814  12.435   0.208
45040W        W11823  14.410  22.546   0.373
45041W        W11824  25.602  42.639   0.151
45042W        W11825  34.428   7.351   1.825
45043W        W11826  37.428  10.866  11.108
45044W        W11827   8.273  43.437  13.535
45045W        W11828  24.976   7.910  13.776
45046W        W11829  30.440  34.042   1.181
45047W        W11830  21.654  39.978  11.221
45048W        W11831  24.186   7.885  10.816
45049W        W11832  18.788   4.718   1.301
45050W        W11833  25.041   9.366  13.298
45051W        W11834   2.322  29.858  12.036
45052W        W11835   0.988  24.036  14.281
45053W        W11836   8.883  25.303   0.595
45054W        W11837  42.537  40.822  11.551
45055W        W11838  27.976  27.152   0.560
45056W        W11839  19.278  22.731  10.831
45057W        W11840  11.151  15.681  12.866
45058W        W11841  15.063  32.485  12.369
45059W        W11842  25.779  28.291  13.572
45060W        W11843  22.741  23.446   3.669
45061W        W11844  12.406  31.436   2.364
45062W        W11845  32.560  37.161   3.647
45063W        W11846  25.702  38.356   5.412
45064W        W11847   7.754   7.028  14.527
45065W        W11848  40.543  41.561   0.400
45066W        W11849  22.399  35.343  14.941
45067W        W11850  42.061  42.310  12.140
45068W        W11851  33.058  39.574  12.738
45069W        W11852  28.743   8.137  14.132
45070W        W11853  43.808  11.232   1.244
45071W        W11854  39.565   0.973   1.686
45072W        W11855  39.820  24.294   3.368
45073W        W11856  21.035  13.764   2.195
45074W        W11857  42.998  44.243   2.384
45075W        W11858  21.435  41.885   4.252
45076W        W11859  10.080  24.926  12.309
45077W        W11860   4.200  16.744  13.981
45078W        W11861  39.434  35.207  13.944
45079W        W11862  16.343  13.816  11.909
45080W        W11863  26.015  18.675   2.341
45081W        W11864  33.844  15.004  14.434
45082W        W11865  33.206  27.137  13.407
45083W        W11866  27.796  23.699   3.211
45084W        W11867   6.355  24.151   1.330
45085W        W11868   4.797   1.677  11.558
45086W        W11869  42.482   4.241   4.418
45087W        W11870  10.694   0.978   0.567
45088W        W11871  18.852  13.241   3.222
45089W        W11872  24.487  15.627  10.644
45090W        W11873  17.403  20.216   0.821
45091W        W11874   9.610  18.163   3.305
45092W        W11875   3.822  21.016   3.278
45093W        W11876  30.681  31.421  13.567
45094W        W11877  18.318  37.594  11.598
45095W        W11878  30.027  40.030  13.346
45096W        W11879  20.147  36.333  11.909
45097W        W11880  26.800  44.950   2.645
45098W        W11881   9.849  21.520  10.748
45099W        W11882  17.994  41.746  11.123
45100W        W11883  35.429   3.838   3.804
45101W        W11884  39.603   5.056  11.180
45102W        W11885   8.847  14.754   2.246
45103W        W11886   8.934  41.258  10.747
45104W        W11887   9.266  27.366  13.405
45105W        W11888  19.604  18.804   2.630
45106W        W11889  16.782  11.457   0.841
45107W        W11890  33.200  22.184   4.500
45108W        W11891  37.523   2.026   4.492
45109W        W11892   7.983  40.718  11.204
45110W        W11893  33.193  39.115  10.682
45111W        W11894  35.838  23.577  13.952
45112W        W11895  21.246  27.307   0.931
45113W        W11896   2.507   9.000   3.153
45114W        W11897  38.065   9.795   3.255
45115W        W11898  40.877  24.717   2.557
45116W        W11899  37.829  19.878   0.262
45117W        W11900  40.450  22.485   0.420
45118W        W11901  36.231  38.676   4.144
45119W        W11902  14.811  30.982   3.079
45120W        W11903  23.636  42.286  13.704
45121W        W11904  40.784  33.646   3.795
45122W        W11905  36.123  23.964  14.934
45123W        W11906  44.029   7.040  11.394
45124W        W11907  43.034  38.408   2.741
45125W        W11908  18.787  11.128  14.466
45126W        W11909  29.023  39.570  14.849
45127W        W11910  28.570  26.505   3.387
45128W        W11911   3.858  43.253   1.187
45129W        W11912  12.598  29.611  10.732
45130W        W11913   6.161  10.251  10.989
45131W        W11914   3.686   8.128  13.787
45132W        W11915   9.436   5.627  13.981
45133W        W11916  40.475  29.060  14.989
45134W        W11917   7.460  20.963  14.039
45135W        W11918  40.266  33.072  10.703
45136W        W11919  21.989  29.925   0.828
45137W        W11920  25.980  13.207   4.508
45138W        W11921  11.239  14.367   2.373
45139W        W11922   4.969  21.118   4.213
45140W        W11923  27.875  21.153   1.802
45141W        W11924   7.607  23.893   4.632
45142W        W11925  24.258  17.246   2.636
45143W        W11926   4.969  40.459   0.632
45144W        W11927  33.415  10.283   1.668
45145W        W11928  22.471  30.065  12.324
45146W        W11929  44.239   1.371   3.440
45147W        W11930  31.142  20.937  12.599
45148W        W11931  34.129  25.301  12.039
45149W        W11932   6.257  18.545   0.662
45150W        W11933  28.260  23.925   0.037
45151W        W11934  35.429  29.805   0.659
45152W        W11935  14.219   3.416   2.248
45153W        W11936  25.158   5.564   3.594
45154W        W11937   4.423  25.087   4.167
45155W        W11938  23.480   6.348   9.823
45156W        W11939  40.716  37.617  10.804
45157W        W11940  27.760  40.956   2.611
45158W        W11941  41.732  18.942   4.620
45159W        W11942  22.136   0.877   0.550
45160W        W11943   3.081   5.724  11.974
45161W        W11944  24.914  13.654   3.316
45162W        W11945  29.360   6.770   3.292
45163W        W11946  34.132  20.943  13.404
45164W        W11947   4.421  26.896   1.291
45165W        W11948  35.295  42.031  12.419
45166W        W11949  11.212  21.756   1.004
45167W        W11950  11.659   2.420   3.915
45168W        W11951  36.858   1.226  10.563
45169W        W11952  31.651  18.391  12.361
45170W        W11953  18.116   2.616  10.747
45171W        W11954   9.140  40.259   2.739
45172W        W11955  40.133   4.284  11.437
45173W        W11956  23.073   7.705   4.226
45174W        W11957   8.283  42.454  11.012
45175W        W11958  41.020  16.781   4.150
45176W        W11959  29.994  28.621   4.194
45177W        W11960  43.772  39.921   3.922
45178W        W11961  40.093   0.777  12.123
45179W        W11962  27.448  34.557   0.991
45180W        W11963  10.144  18.867  12.487
45181W        W11964  23.017  24.281   0.491
45182W        W11965  37.055  36.182  11.206
45183W        W11966  20.887   8.744   9.843
45184W        W11967   6.317  41.667  13.229
45185W        W11968   5.416  44.522   2.197
45186W        W11969  43.651  21.739   4.225
45187W        W11970  32.077  21.477   3.272
45188W        W11971   2.146   8.647   3.211
45189W        W11972   5.484  22.880   0.198
45190W        W11973   2.569  27.671  11.521
45191W        W11974  32.605  23.708   0.928
45192W        W11975  38.930  28.371  12.500
45193W        W11976   9.039  17.807  14.894
45194W        W11977  10.713  40.011   0.394
45195W        W11978  20.584  14.190   1.015
45196W        W11979  14.933  17.431   4.196
45197W        W11980  24.649  12.126  11.460
45198W        W11981  43.861  27.050  12.575
45199W        W11982  31.199  44.764   2.700
45200W        W11983  37.949  22.756  14.835
45201W        W11984  28.495   0.225   4.554
45202W        W11985  10.759  32.954   2.620
45203W        W11986  24.998  20.136  11.219
45204W        W11987  11.810   1.473  11.986
45205W        W11988  37.337  34.292   0.746
45206W        W11989  12.923  23.213  11.845
45207W        W11990  27.431  38.828  12.368
45208W        W11991  12.803   0.590  13.515
45209W        W11992  27.568  26.366  13.958
45210W        W11993  21.278  25.917  13.431
45211W        W11994  33.635  34.956  11.198
45212W        W11995  12.609  25.687  13.997
45213W        W11996  11.389  23.258  12.538
45214W        W11997   0.262  26.187  11.979
45215W        W11998  15.160  17.871   0.712
45216W        W11999  12.842  21.447  11.972
45217W        W12000   5.246  19.818  10.581
45218W        W12001  10.938   7.733   1.180
45219W        W12002   0.364  32.894   4.685
45220W        W12003  29.446   1.778  14.284
45221W        W12004  26.176  18.220   0.347
45222W        W12005  33.627  13.522  14.539
45223W        W12006   1.024  29.478   2.252
45224W        W12007   5.685  22.248  12.685
45225W        W12008  44.424  37.808  13.844
45226W        W12009   1.402  22.042   3.036
45227W        W12010  37.863  22.960   1.403
45228W        W12011   6.342  21.629  11.572
45229W        W12012  40.704  29.165  12.826
45230W        W12013  23.045  40.784   1.690
45231W        W12014  26.997  29.536  14.066
45232W        W12015  10.651  28.627   0.476
45233W        W12016  35.376  38.491  13.894
45234W        W12017  13.993   2.715   0.011
45235W        W12018   7.368   6.189  14.351
45236W        W12019  14.057  38.225   4.966
45237W        W12020  36.163  28.896   1.439
45238W        W12021  44.089  17.667  12.061
45239W        W12022  14.605   4.705   1.411
45240W        W12023   0.844  42.224  13.299
45241W        W12024   3.785  37.478   0.760
45242W        W12025  25.961  27.908  14.398
45243W        W12026  34.887   4.578   3.270
45244W        W12027  29.483  31.430   0.249
45245W        W12028  36.814   0.691   3.865
45246W        W12029  19.976  20.686   4.324
45247W        W12030  44.700  38.688   0.575
45248W        W12031   5.779   7.758   2.630
45249W        W12032  13.410   9.026  12.034
45250W        W12033   5.169  11.240   0.958
45251W        W12034  19.177  39.973  11.079
45252W        W12035  31.405  44.144   4.207
45253W        W12036   8.181  30.169  10.587
45254W        W12037  17.230   7.221  12.970
45255W        W12038  27.167  34.123  13.978
45256W        W12039  43.159  35.425   1.500
45257W        W12040  16.650   6.150  14.253
45258W        W12041  35.423  44.856   4.500
45259W        W12042  25.327  11.924   0.306
45260W        W12043   0.626  10.138   5.114
45261W        W12044  21.617   7.736   3.249
45262W        W12045   3.207  21.483   2.096
45263W        W12046  28.987  41.005  11.544
45264W        W12047  25.621  38.367   4.524
45265W        W12048  36.098  19.271  14.012
45266W        W12049  37.453  39.807  11.644
45267W        W12050   3.689   5.281  14.116
45268W        W12051  20.080  20.264   2.885
45269W        W12052  22.665   1.283  11.499
45270W        W12053   3.964  17.087  12.309
45271W        W12054  21.486  12.793  11.369
45272W        W12055  25.520  31.526   4.971
45273W        W12056  31.057  40.088  11.045
45274W        W12057   0.055   8.824  12.914
45275W        W12058  25.876  39.186  13.128
45276W        W12059  22.159  11.627   3.885
45277W        W12060  11.838  36.765  14.054
45278W        W12061  44.107  31.159   2.135
45279W        W12062  17.882  10.163  12.116
45280W        W12063   5.862  37.112   3.843
45281W        W12064  42.339  37.555   3.834
45282W        W12065  23.258  35.839  11.451
45283W        W12066  22.547  28.144   2.562
45284W        W12067  37.909  27.009   0.273
45285W        W12068  30.711  37.064  13.318
45286W        W12069   5.961  25.263  13.907
45287W        W12070  20.373  24.145  10.922
45288W        W12071  29.048  29.928   4.380
45289W        W12072   8.204  38.084  14.497
45290W        W12073  30.070  25.500  11.667
45291W        W12074  37.750   1.914  13.025
45292W        W12075  27.623  31.524   0.399
45293W        W12076  11.358  13.500   3.857
45294W        W12077   8.761   6.515  14.546
45295W        W12078  26.009  15.146   2.635
45296W        W12079   9.968  40.461   2.228
45297W        W12080  40.015   3.577   2.667
45298W        W12081   5.412  34.926  13.502
45299W        W12082  39.380  10.428  14.780
45300W        W12083   8.603  26.660   2.714
45301W        W12084  24.724  42.859   0.371
45302W        W12085  31.092  12.677   1.125
45303W        W12086   3.323  44.776   3.193
45304W        W12087  35.442  43.763  12.974
45305W        W12088   9.894  11.657  10.145
45306W        W12089  13.444  20.459  13.098
45307W        W12090  35.948  18.420  14.282
45308W        W12091  37.870  25.484  13.305
45309W        W12092  20.016  33.823   0.540
45310W        W12093  24.738  27.420  12.463
45311W        W12094  33.112  10.508  14.072
45312W        W12095   5.638  42.863   1.850
45313W        W12096  39.103  39.080   4.191
45314W        W12097  19.178  19.081   4.541
45315W        W12098  11.229  32.397   1.227
45316W        W12099  24.371  22.167  11.945
45317W        W12100   2.541  26.475   0.905
45318W        W12101  14.738   2.796  11.127
45319W        W12102  25.486  39.147   1.793
45320W        W12103  18.560  43.488  11.928
45321W        W12104   4.377  40.030   1.334
45322W        W12105   7.316  34.189   3.070
45323W        W12106   0.871  31.161   0.490
45324W        W12107  28.250  31.921  14.917
45325W        W12108   9.725  40.077   3.143
45326W        W12109  27.513  17.523   0.286
45327W        W12110  15.184  35.180  13.997
45328W        W12111  17.023  17.377  13.035
45329W        W12112  44.879  26.478   9.823
45330W        W12113  22.442  18.649  12.818
45331W        W12114   7.435   2.757   0.959
45332W        W12115  31.867  24.527   3.223
45333W        W12116  13.781  40.384  10.715
45334W        W12117  32.967  16.049  13.463
45335W        W12118   7.964  20.827  11.185
45336W        W12119  10.247  44.791   1.306
45337W        W12120   0.891  24.949  14.487
45338W        W12121  43.515  19.362   0.448
45339W        W12122  13.619  31.405   3.356
45340W        W12123  12.085  34.456   3.811
45341W        W12124  43.544  31.334  11.279
45342W        W12125  28.660  21.780  12.729
45343W        W12126  25.595  31.980   0.987
45344W        W12127  13.821  25.771   1.974
45345W        W12128  27.182  35.452   2.399
45346W        W12129  43.874  28.985  14.739
45347W        W12130  37.462   5.667   4.508
45348W        W12131  28.179  41.293  11.107
45349W        W12132  14.296  33.951  14.739
45350W        W12133  25.600  28.550  13.976
45351W        W12134  22.462   5.346   0.364
45352W        W12135   7.340  34.808   4.670
45353W        W12136  37.314   6.034   0.277
45354W        W12137  13.266  43.551   4.594
45355W        W12138   2.856  30.208  13.344
45356W        W12139  36.821  24.139  10.960
45357W        W12140  25.449  10.555  14.793
45358W        W12141  34.859  24.552   2.082
45359W        W12142   6.296  24.060  14.423
45360W        W12143  35.577  34.408  12.150
45361W        W12144  32.012  25.037   2.286
45362W        W12145  29.455  34.169   2.928
45363W        W12146   8.230   1.701   1.197
45364W        W12147  10.773   3.910   2.800
45365W        W12148  38.522  40.835  14.806
45366W        W12149  15.374  32.575   1.739
45367W        W12150  26.264  27.216   2.229
45368W        W12151   3.076   7.725   4.518
45369W        W12152   7.388  15.285   1.364
45370W        W12153  17.132  34.292   5.030
45371W        W12154   1.728  43.954  11.567
45372W        W12155  15.673  11.282   4.863
45373W        W12156   0.533  26.471   4.195
45374W        W12157  39.743   5.819  12.907
45375W        W12158  26.906  33.001   3.161
45376W        W12159  17.643  36.557  10.688
45377W        W12160  18.247  21.298  13.550
45378W        W12161   8.943  22.585   2.224
45379W        W12162   0.753  29.031  14.099
45380W        W12163  19.533   3.392  14.276
45381W        W12164  37.407   1.307   0.893
45382W        W12165   9.291  28.172  14.977
45383W        W12166   7.642   3.295   3.714
45384W        W12167   3.804  33.564  13.165
45385W        W12168   8.580  38.071  13.679
45386W        W12169  20.298   2.145   5.542
45387W        W12170  26.131  40.239   0.298
45388W        W12171  26.092   3.933   2.714
45389W        W12172  39.897  22.932  14.869
45390W        W12173   3.755  22.497   3.770
45391W        W12174  14.448  24.067  10.706
45392W        W12175  37.084  28.445  12.508
45393W        W12176   5.167   3.817  13.912
45394W        W12177   9.846  29.026   1.927
45395W        W12178  18.873  11.654   4.688
45396W        W12179  27.020   8.336  14.338
45397W        W12180  14.869  31.935  10.268
45398W        W12181   5.211  29.526   3.764
45399W        W12182  44.072  29.401  14.379
45400W        W12183  44.755   3.334   0.932
45401W        W12184  36.948  29.775   1.353
45402W        W12185  41.872  33.445   0.287
45403W        W12186  10.535  20.407   0.792
45404W        W12187  25.141  41.371  12.349
45405W        W12188  42.497  18.904   0.460
45406W        W12189  18.679  43.738   0.596
45407W        W12190   1.820  29.069   3.850
45408W        W12191  34.058  33.969  11.182
45409W        W12192  13.157  30.662   0.726
45410W        W12193  32.161  36.916   1.410
45411W        W12194  14.474  13.250  12.798
45412W        W12195  43.240   5.310   0.449
45413W        W12196  44.578   2.779   4.124
45414W        W12197  33.702  44.583   3.882
45415W        W12198   6.714  32.909  11.431
45416W        W12199  27.543  27.495  13.121
45417W        W12200  33.409  37.405  14.435
45418W        W12201  35.446  10.130  10.703
45419W        W12202   1.190   0.510   3.849
45420W        W12203  30.611  44.237  13.373
45421W        W12204   8.595  13.798  10.653
45422W        W12205   1.246  15.328  13.307
45423W        W12206  23.041  35.913   0.083
45424W        W12207   1.054  17.035  12.492
45425W        W12208  30.043  26.648  12.345
45426W        W12209  20.140  25.269   3.353
45427W        W12210  29.344  36.451  11.012
45428W        W12211  23.997  18.160   1.924
45429W        W12212   8.116  19.717  13.530
45430W        W12213  14.309  16.194  14.553
45431W        W12214  40.071  37.026  12.891
45432W        W12215  23.119  20.691   3.270
45433W        W12216  35.873  25.100  11.141
45434W        W12217  11.206  38.075  14.457
45435W        W12218  19.083  25.690  10.702
45436W        W12219   5.646  40.492  13.899
45437W        W12220  26.581  15.517  10.611
45438W        W12221  13.641  41.926   2.794
45439W        W12222  35.479  21.631  10.775
45440W        W12223  26.724  44.214  14.721
45441W        W12224  20.763  24.931  11.104
45442W        W12225  14.686  39.739  11.010
45443W        W12226  15.986   4.921  11.944
45444W        W12227  39.633   9.177   3.373
45445W        W12228   9.300  31.167  13.598
45446W        W12229  44.217  37.995  11.207
45447W        W12230   1.424  33.283   0.903
45448W        W12231  28.446  14.747   4.437
45449W        W12232  37.515  44.303   1.820
45450W        W12233  37.327  20.994   4.592
45451W        W12234  10.601  19.886  14.487
45452W        W12235  36.608   5.675   2.576
45453W        W12236  10.128  34.612  14.792
45454W        W12237  30.298  15.514  14.431
45455W        W12238   9.782   0.025   1.467
45456W        W12239  14.418  10.882   4.558
45457W        W12240   7.455   3.822  11.351
45458W        W12241   8.452  31.888   3.847
45459W        W12242  14.331  40.996   2.289
45460W        W12243  11.687  41.394   1.424
45461W        W12244  35.751  17.784   4.842
45462W        W12245  21.756  44.780  13.336
45463W        W12246  12.624  34.539   0.838
45464W        W12247  43.945  29.588  10.652
45465W        W12248   3.300  19.447  13.727
45466W        W12249  35.493  30.865  13.440
45467W        W12250  26.181   5.964  14.860
45468W        W12251  41.590  44.097  14.223
45469W        W12252   0.975  38.645  10.734
45470W        W12253  12.165  40.291   0.455
45471W        W12254  35.284  41.538   3.271
45472W        W12255  36.354   8.111  14.852
45473W        W12256  29.723   2.904  10.841
45474W        W12257  27.434  28.110   1.365
45475W        W12258  27.294  11.665   4.595
45476W        W12259  21.341  25.556   4.559
45477W        W12260  15.062  21.025   3.724
45478W        W12261  31.665   0.167  11.159
45479W        W12262  26.409   2.448   0.310
45480W        W12263  23.972  43.218  12.871
45481W        W12264  41.710  10.826   4.121
45482W        W12265  28.731  37.440  13.937
45483W        W12266  16.275  35.616  11.138
45484W        W12267  23.575  14.099  10.517
45485W        W12268  34.086  11.999   5.023
45486W        W12269  43.395  38.309  10.729
45487W        W12270  12.607  12.861   4.203
45488W        W12271   7.783  17.445   3.631
45489W        W12272  44.396   4.073   5.062
45490W        W12273  11.784  25.647   0.428
45491W        W12274   5.708  38.757   4.602
45492W        W12275  44.899  25.188   1.864
45493W        W12276  19.679  41.971   2.781
45494W        W12277   1.356  34.890   0.932
45495W        W12278  39.374  13.184   1.177
45496W        W12279  42.059  13.352   0.830
45497W        W12280   2.826  13.142  10.598
45498W        W12281  32.052  31.171   0.308
45499W        W12282  32.485  26.931   3.583
45500W        W12283  10.435  20.078   3.698
45501W        W12284  33.800  16.323  12.372
45502W        W12285  32.911  25.522  11.899
45503W        W12286  36.538   6.168   2.394
45504W        W12287  10.127  21.760  11.141
45505W        W12288  35.151  27.989  10.356
45506W        W12289  16.445  38.283   2.954
45507W        W12290  44.920  14.759  13.121
45508W        W12291  38.028  20.757   1.884
45509W        W12292  14.644  11.835  14.708
45510W        W12293  18.250  10.075  11.743
45511W        W12294  11.112  21.153   4.184
45512W        W12295  25.017   9.727   0.890
45513W        W12296  13.192   3.926  13.214
45514W        W12297  42.832  18.613  11.550
45515W        W12298  14.069  36.088   0.249
45516W        W12299  42.890  42.891   2.096
45517W        W12300   5.671  11.926  12.432
45518W        W12301  10.913  32.146  13.821
45519W        W12302  43.020  17.256   3.219
45520W        W12303   6.219  16.925   3.515
45521W        W12304  32.595  29.476   0.887
45522W        W12305   9.726  24.209   3.255
45523W        W12306   0.804   5.639  10.294
45524W        W12307  29.972  11.186  11.680
45525W        W12308  42.811  17.561  10.678
45526W        W12309  13.826  23.050   4.176
45527W        W12310  16.360  18.503  11.270
45528W        W12311   2.022  42.394   4.980
45529W        W12312  33.634  11.927  12.363
45530W        W12313   6.197   7.129  12.475
45531W        W12314  17.846  13.572   1.719
45532W        W12315  29.564   6.607   2.424
45533W        W12316  30.647  14.140   2.750
45534W        W12317  42.860  15.048   1.913
45535W        W12318  22.651  14.478   3.559
45536W        W12319  11.133  34.963  13.052
45537W        W12320  40.868   7.420   3.902
45538W        W12321  21.669  35.558   3.215
45539W        W12322  27.135  35.881   0.294
45540W        W12323  28.539  33.582  14.353
45541W        W12324  19.603  22.440   5.120
45542W        W12325  37.987  15.018  13.784
45543W        W12326  39.535  14.634  13.373
45544W        W12327  15.478  39.647  10.672
45545W        W12328  37.793  41.397  13.879
45546W        W12329  20.189  37.595  11.769
45547W        W12330  31.196   1.494   1.309
45548W        W12331  15.537  17.309  14.422
45549W        W12332  24.295  43.540  13.947
45550W        W12333   3.351  13.728   2.807
45551W        W12334  16.509  31.712  10.690
45552W        W12335  39.006  32.615  10.405
45553W        W12336  20.166  16.195   2.266
45554W        W12337  21.028  11.048   4.120
45555W        W12338  38.009  24.649   1.334
45556W        W12339  10.530  41.260   3.795
45557W        W12340  31.952  36.544  11.927
45558W        W12341  11.716   0.900  10.210
45559W        W12342  18.972  40.833  14.027
45560W        W12343  29.012  39.108  13.598
45561W        W12344  23.891  36.353   1.271
45562W        W12345   8.877   0.955   0.656
45563W        W12346  14.240  26.982  13.500
45564W        W12347  23.930  27.401  14.897
45565W        W12348  30.464  20.812  13.971
45566W        W12349  43.437  16.014   3.782
45567W        W12350  28.566   4.259   2.747
45568W        W12351   1.376  16.341   4.182
45569W        W12352  10.206   7.482   3.624
45570W        W12353  35.553  28.948   2.385
45571W        W12354  17.700  19.271   4.511
45572W        W12355  32.942   9.359   3.167
45573W        W12356  24.119  43.758  11.954
45574W        W12357  40.311  31.316  10.266
45575W        W12358   7.222  27.911  12.583
45576W        W12359  31.394  37.827  14.921
45577W        W12360  36.821  32.043   1.376
45578W        W12361  25.116  14.067  14.278
45579W        W12362   5.307  28.228   2.166
45580W        W12363   5.000   8.864  12.380
45581W        W12364   2.918  44.928  11.191
45582W        W12365  34.892  39.337   4.728
45583W        W12366  30.704  19.225  11.638
45584W        W12367  38.339  27.174   4.451
45585W        W12368  11.772  35.255   1.272
45586W        W12369  36.863  10.714   2.794
45587W        W12370  39.020  23.658   1.169
45588W        W12371  11.068  10.891   0.892
45589W        W12372  14.878  36.100   2.379
45590W        W12373  26.144  19.118  14.743
45591W        W12374  14.499   8.468   4.261
45592W        W12375  31.919  44.463  10.652
45593W        W12376  32.413  35.489  10.977
45594W        W12377   6.357  23.677  11.159
45595W        W12378  29.958  35.092   2.843
45596W        W12379  33.840  30.404  14.302
45597W        W12380   4.160   9.630   3.224
45598W        W12381   0.807  39.481   1.382
45599W        W12382  19.816   5.869   2.245
45600W        W12383   1.168  14.470  14.943
45601W        W12384  15.895  20.650   2.309
45602W        W12385  40.131   9.802   2.964
45603W        W12386  11.648  38.206  11.897
45604W        W12387  20.062  16.484  10.734
45605W        W12388  30.674  25.053   2.739
45606W        W12389  36.184  35.951   2.951
45607W        W12390  40.583  14.793   1.209
45608W        W12391  29.248  40.438  11.144
45609W        W12392  15.391  24.935   1.768
45610W        W12393  37.188  44.699   1.651
45611W        W12394  37.591  36.566   4.319
45612W        W12395   3.934  42.805  11.296
45613W        W12396  19.820   8.241   0.390
45614W        W12397   8.508  44.657  14.441
45615W        W12398  24.042   9.191   2.708
45616W        W12399  14.086  24.037  11.551
45617W        W12400  13.068  35.533  11.575
45618W        W12401  44.427  11.723  11.720
45619W        W12402  29.728   2.755   3.601
45620W        W12403  22.630  26.210   4.096
45621W        W12404  39.349   5.355  11.530
45622W        W12405  42.159  12.241  10.318
45623W        W12406  27.899  29.129   0.601
45624W        W12407  37.804  39.045   1.005
45625W        W12408  17.029  23.416   4.144
45626W        W12409  32.959  35.994   2.056
45627W        W12410   9.859   0.628   3.764
45628W        W12411  44.859  34.202   2.755
45629W        W12412  15.465   0.275  13.852
45630W        W12413  30.225  32.917  12.087
45631W        W12414   7.168  38.117  14.175
45632W        W12415  30.528  41.989   2.918
45633W        W12416  40.371  23.665   3.155
45634W        W12417  13.191   7.164   3.754
45635W        W12418   3.827  26.306   0.644
45636W        W12419  27.119  15.425  10.667
45637W        W12420   8.240   7.426  10.710
45638W        W12421  18.874   4.185   0.243
45639W        W12422   1.455   0.366  13.902
45640W        W12423  36.454  39.948   5.330
45641W        W12424   5.354  44.349   0.820
45642W        W12425   5.886  43.174  13.427
45643W        W12426  34.995  14.583   0.202
45644W        W12427  14.532  44.319  12.150
45645W        W12428  34.940   3.444  11.216
45646W        W12429  10.956  28.715   0.896
45647W        W12430  30.696  27.982   3.697
45648W        W12431  20.478  21.799  13.943
45649W        W12432  18.766  23.959   1.813
45650W        W12433   6.956  17.086   1.311
45651W        W12434   5.940  18.408   3.418
45652W        W12435  43.855  15.451  14.454
45653W        W12436  10.335   3.528  13.227
45654W        W12437   6.346  22.203   2.850
45655W        W12438  10.159  17.075  13.528
45656W        W12439  33.848  26.682   0.943
45657W        W12440  16.094  38.449   2.600
45658W        W12441  11.230  32.703   0.815
45659W        W12442   4.630   1.818   1.784
45660W        W12443   4.345  42.687  10.629
45661W        W12444   3.781  16.420  13.930
45662W        W12445  29.477  44.834  13.550
45663W        W12446  44.775  20.192   4.255
45664W        W12447   6.808   9.325   2.781
45665W        W12448  18.708   1.204   0.306
45666W        W12449   2.342   5.611   1.047
45667W        W12450  40.378  26.620   1.764
45668W        W12451  44.853   1.979  13.733
45669W        W12452  25.587  39.378   9.791
45670W        W12453  20.002   0.289   3.658
45671W        W12454   8.257   7.517   5.476
45672W        W12455  43.804  15.819  14.817
45673W        W12456   3.722  31.960   1.262
45674W        W12457  33.972  31.463  12.384
45675W        W12458  32.905   7.478  11.308
45676W        W12459  29.905  26.537  10.942
45677W        W12460  11.575  10.878   0.868
45678W        W12461  30.752  10.763  12.057
45679W        W12462   0.668  25.361  13.602
45680W        W12463  36.852  23.436   4.157
45681W        W12464  12.162  39.032   4.052
45682W        W12465  11.746  23.460   0.882
45683W        W12466  36.809  42.288  13.885
45684W        W12467  13.702  19.187  14.507
45685W        W12468  31.897   1.540   3.606
45686W        W12469  29.603  26.145  11.480
45687W        W12470  18.187   2.471   0.304
45688W        W12471   0.562  18.689  14.901
45689W        W12472   6.490  19.318   1.909
45690W        W12473  21.724   7.684  12.788
45691W        W12474  22.941   5.120  13.035
45692W        W12475  23.164   4.643  12.955
45693W        W12476  19.630   1.943   2.813
45694W        W12477  19.707  40.569   2.773
45695W        W12478  12.716   3.232   1.477
45696W        W12479  36.682  31.826  12.186
45697W        W12480   3.348  39.875   4.798
45698W        W12481   0.414   3.465  12.984
45699W        W12482  20.629  44.272  14.514
45700W        W12483   9.886  29.115   4.050
45701W        W12484  10.582  25.130  12.551
45702W        W12485   1.846  34.570  11.125
45703W        W12486  40.734  34.094  10.802
45704W        W12487   4.188  35.147  13.801
45705W        W12488  41.187   5.371   2.781
45706W        W12489   1.377   7.564  12.702
45707W        W12490  39.067  10.827  14.577
45708W        W12491  43.523  41.462  14.962
45709W        W12492  11.362  24.484   3.754
45710W        W12493  31.553  38.860   3.598
45711W        W12494  23.686  40.989   1.360
45712W        W12495   4.417  18.296  12.205
45713W        W12496  14.385  25.210  12.345
45714W        W12497  36.100  34.006   1.277
45715W        W12498  13.336  29.032   4.050
45716W        W12499  36.343   4.865  13.929
45717W        W12500  21.266  19.322   0.826
45718W        W12501   4.364  22.245  11.427
45719W        W12502  34.587  22.241   1.429
45720W        W12503  19.567  23.142   0.005
45721W        W12504  44.830   5.156  13.435
45722W        W12505  33.660  10.371   2.729
45723W        W12506  22.505  36.801  14.014
45724W        W12507   0.429  43.441   0.052
45725W        W12508   4.712  40.791   4.133
45726W        W12509  20.734  20.356   2.991
45727W        W12510   0.031   9.556   4.900
45728W        W12511   6.203  37.419   2.369
45729W        W12512  44.734  15.946   1.618
45730W        W12513  35.108  38.465  10.482
45731W        W12514  10.849  14.208  11.226
45732W        W12515  17.015  39.695   2.790
45733W        W12516  29.128  26.559  13.982
45734W        W12517  15.752  29.897   3.575
45735W        W12518  27.488  25.842   5.232
45736W        W12519  13.280   4.965   0.011
45737W        W12520  31.909  10.279   2.860
45738W        W12521  32.787  35.421  12.914
45739W        W12522   1.401  35.374  11.151
45740W        W12523  16.268  29.418   3.038
45741W        W12524  15.805  25.623   0.463
45742W        W12525  21.549   3.804   1.404
45743W        W12526  21.250  43.505  12.587
45744W        W12527  16.119  37.986   0.685
45745W        W12528  28.457  10.646   4.075
45746W        W12529   2.878  39.880   0.899
45747W        W12530   8.187  31.598   4.665
45748W        W12531  22.080   4.866  11.923
45749W        W12532   6.190  20.642   0.795
45750W        W12533  20.533  12.901  11.530
45751W        W12534   0.178  37.333  12.487
45752W        W12535  16.555  33.427  12.556
45753W        W12536  13.871  41.587   1.831
45754W        W12537  39.120  14.850  10.678
45755W        W12538  41.478   5.949  13.402
45756W        W12539  33.326  21.845   3.724
45757W        W12540   3.243   2.918  12.628
45758W        W12541  41.280  16.262   4.605
45759W        W12542  12.765  37.529  11.590
45760W        W12543  25.414  32.906  13.956
45761W        W12544  38.784  37.032   4.086
45762W        W12545  40.296  42.765  13.958
45763W        W12546  29.297  25.010   1.494
45764W        W12547   9.725  22.673  14.253
45765W        W12548  35.584   2.920  13.015
45766W        W12549   6.122  18.146  12.131
45767W        W12550  17.964  16.177   2.955
45768W        W12551  44.408  23.634   2.248
45769W        W12552  26.371  42.845  10.913
45770W        W12553   8.603   6.507   4.703
45771W        W12554   4.268  42.143   3.783
45772W        W12555  40.286  33.345  12.820
45773W        W12556  29.430  18.288  13.267
45774W        W12557  20.679   1.714   2.301
45775W        W12558  31.917   6.848   2.432
45776W        W12559  42.296  17.501  10.630
45777W        W12560  20.585  31.629  12.553
45778W        W12561  14.652  17.095   2.664
45779W        W12562  21.774  20.239  11.654
45780W        W12563   6.567  16.193   4.545
45781W        W12564  36.456  22.482   3.196
45782W        W12565  10.685  16.647  10.524
45783W        W12566  15.796  43.940   0.504
45784W        W12567   6.228   8.224   1.950
45785W        W12568  14.264  17.532  14.091
45786W        W12569  39.491  37.383  12.042
45787W        W12570  32.386   2.724  14.900
45788W        W12571  12.776  23.276   2.920
45789W        W12572  18.316  20.327  13.720
45790W        W12573  28.093  28.529  10.152
45791W        W12574  22.194  23.582   1.887
45792W        W12575   9.837  19.364  13.301
45793W        W12576  25.522  30.891  10.517
45794W        W12577  36.667  25.732   4.275
45795W        W12578  31.776  14.437  12.563
45796W        W12579  17.760  28.451  13.055
45797W        W12580  14.112  42.992  12.899
45798W        W12581  19.232   8.874   4.380
45799W        W12582  24.524  17.275  11.223
45800W        W12583  12.071  24.606   4.291
45801W        W12584   7.689  15.681   3.112
45802W        W12585   8.307   2.621   4.525
45803W        W12586   2.760  10.620   4.245
45804W        W12587  32.592  36.952   0.950
45805W        W12588   1.335   0.149  14.436
45806W        W12589  13.727   6.291   2.349
45807W        W12590  28.805  14.772  14.490
45808W        W12591   0.023  33.862   3.672
45809W        W12592  11.518  19.481  13.375
45810W        W12593  27.168  42.209  13.346
45811W        W12594  29.588  40.060  14.108
45812W        W12595  32.915  34.130  14.967
45813W        W12596  35.031  10.661   3.804
45814W        W12597  42.019  19.246  10.761
45815W        W12598  18.384  27.134   1.893
45816W        W12599  40.595  15.729   0.848
45817W        W12600   1.231  26.228  13.393
45818W        W12601  42.261  29.472  13.918
45819W        W12602   1.240  40.902   3.213
45820W        W12603  14.991  17.690   3.752
45821W        W12604  21.521  21.039  14.421
45822W        W12605   7.652  33.018   2.388
45823W        W12606   9.692   7.134  13.859
45824W        W12607  44.557  32.976  12.836
45825W        W12608  21.772  18.159  11.575
45826W        W12609  23.145  35.555  12.634
45827W        W12610   8.966  33.293  12.946
45828W        W12611  43.060  34.979   3.215
45829W        W12612  12.742  17.685  12.087
45830W        W12613   5.324  16.871   0.785
45831W        W12614  25.483   1.765  14.709
45832W        W12615  44.556  39.443   0.181
45833W        W12616  28.900   9.415   1.838
45834W        W12617  13.563   2.756  12.986
45835W        W12618  40.746  38.058   0.733
45836W        W12619  28.959  31.524   4.686
45837W        W12620  32.435  42.420   4.790
45838W        W12621  35.096  39.865  12.556
45839W        W12622   3.755  44.702  11.561
45840W        W12623  30.505  26.545   1.404
45841W        W12624   3.221  20.986   4.505
45842W        W12625  15.776  13.146   0.342
45843W        W12626  16.279   9.421   0.101
45844W        W12627  25.220   3.566  13.961
45845W        W12628  17.053   5.053   0.124
45846W        W12629  40.532  37.730  12.931
45847W        W12630   2.652   1.829  12.539
45848W        W12631  13.513  29.164   0.378
45849W        W12632  23.603  34.325   0.273
45850W        W12633  40.827  44.739   4.160
45851W        W12634  19.103  32.542  12.084
45852W        W12635  14.063  18.026  14.089
45853W        W12636  10.667  29.996  11.471
45854W        W12637   3.393  17.112  13.498
45855W        W12638  14.318  20.735  11.920
45856W        W12639  19.461  35.711  11.710
45857W        W12640  24.448   3.234   0.456
45858W        W12641  32.689  12.186   1.393
45859W        W12642  28.671  24.953  13.425
45860W        W12643  14.296   8.443   1.300
45861W        W12644  13.384  17.858  12.074
45862W        W12645   8.924  17.304  12.122
45863W        W12646  11.349   6.143   9.764
45864W        W12647   2.705  40.877   2.701
45865W        W12648  30.428  12.881   2.309
45866W        W12649  38.182   7.989  14.916
45867W        W12650  44.272  18.347   3.151
45868W        W12651  42.500   4.462   2.885
45869W        W12652  31.072  22.459   2.100
45870W        W12653  32.907  35.321  12.009
45871W        W12654   1.783  13.282   0.487
45872W        W12655  38.833  11.940   0.377
45873W        W12656   6.689   8.276   4.269
45874W        W12657  25.469  44.984  14.010
45875W        W12658  21.746  21.143   2.577
45876W        W12659   5.824  43.681   0.585
45877W        W12660  14.370  44.744   2.787
45878W        W12661  22.047  11.610  10.494
45879W        W12662  21.277  41.091   0.019
45880W        W12663  22.705  20.815  10.771
45881W        W12664  12.392  24.269   4.039
45882W        W12665  40.335   1.291  11.520
45883W        W12666  27.343  17.650  14.809
45884W        W12667  34.448   4.757   4.951
45885W        W12668  20.556  43.063  12.565
45886W        W12669  37.612  29.053  12.401
45887W        W12670   3.604  25.250  13.608
45888W        W12671   5.228  28.025  10.868
45889W        W12672  30.627  18.144   4.223
45890W        W12673   8.325  19.219   0.862
45891W        W12674  37.050  15.545  13.966
45892W        W12675  38.149  21.008  13.182
45893W        W12676  42.335  36.788   0.824
45894W        W12677   1.213  30.527  12.664
45895W        W12678  28.407  40.316   0.852
45896W        W12679  43.227  31.104  14.251
45897W        W12680  20.313  32.493   3.804
45898W        W12681   6.813  40.964  12.647
45899W        W12682  37.521  37.148   3.690
45900W        W12683   2.464  31.398  12.955
45901W        W12684   6.807   9.323  12.370
45902W        W12685  33.872  41.343   3.086
45903W        W12686  33.183  36.207  11.234
45904W        W12687   4.682  22.906   2.900
45905W        W12688  22.261   9.595   0.541
45906W        W12689  21.413  21.491   2.829
45907W        W12690  28.403  43.392   0.251
45908W        W12691  27.049  33.480  10.625
45909W        W12692   1.504  10.726  12.317
45910W        W12693  23.359   1.811   1.939
45911W        W12694  14.155  12.264   1.047
45912W        W12695  36.613   9.349   3.862
45913W        W12696   5.098  12.972   4.872
45914W        W12697  19.683  28.437   0.902
45915W        W12698   2.243  17.091  12.452
45916W        W12699  36.528  29.635   0.412
45917W        W12700  32.918  26.879   0.451
45918W        W12701  27.763  23.168   2.985
45919W        W12702  40.072  25.568  11.945
45920W        W12703  32.065  25.548   0.991
45921W        W12704  27.393  16.217  13.073
45922W        W12705  44.381  31.499   2.444
45923W        W12706  34.989   8.965  14.725
45924W        W12707   4.425   1.385  10.633
45925W        W12708  31.111  29.424  14.759
45926W        W12709  29.398  23.654   4.505
45927W        W12710  14.177  17.182   0.074
45928W        W12711  27.196  32.926   4.594
45929W        W12712  28.134   4.888   2.353
45930W        W12713   6.887   3.313   4.609
45931W        W12714   5.042   5.111  12.476
45932W        W12715  32.135  32.438  12.064
45933W        W12716  12.306  29.406   0.787
45934W        W12717  19.981  36.082   0.987
45935W        W12718  15.283  23.534   2.060
45936W        W12719  15.890  24.982   1.703
45937W        W12720  43.246   0.501  14.530
45938W        W12721   0.838  34.809  14.323
45939W        W12722  38.555  44.341  11.164
45940W        W12723  22.649  33.131   4.374
45941W        W12724  35.866   1.624  13.925
45942W        W12725  44.111  21.476   2.430
45943W        W12726  15.649  33.002  12.769
45944W        W12727  10.469  14.448   0.337
45945W        W12728  36.888   3.010  14.519
45946W        W12729  15.112   3.476   0.123
45947W        W12730   4.435  36.921  11.536
45948W        W12731   0.292   9.703  13.392
45949W        W12732   6.005  30.900   1.171
45950W        W12733   9.762  23.553   4.586
45951W        W12734  24.666  36.162   0.805
45952W        W12735  34.999   5.706   1.877
45953W        W12736  26.690  34.199  14.806
45954W        W12737  42.353  28.780  14.562
45955W        W12738  26.245  22.249  14.907
45956W        W12739   5.036  38.299  13.016
45957W        W12740  22.549  27.008  13.818
45958W        W12741   3.531  29.888   2.866
45959W        W12742  32.347  27.530   0.946
45960W        W12743  20.014   5.906  11.691
45961W        W12744  36.683  15.796   3.795
45962W        W12745  28.440  37.560  14.361
45963W        W12746  20.478  18.339   4.127
45964W        W12747  27.001   7.778   0.013
45965W        W12748  11.579  29.515  10.788
45966W        W12749  15.316  22.917  14.965
45967W        W12750   9.491  37.798  14.074
45968W        W12751  14.428  40.047  14.332
45969W        W12752   9.507  30.667  11.448
45970W        W12753  42.925  23.498  11.170
45971W        W12754   4.439  15.232  13.866
45972W        W12755  22.749   8.280  12.935
45973W        W12756  21.824  29.161   2.529
45974W        W12757  33.594   1.372  13.420
45975W        W12758   7.108   4.379   4.141
45976W        W12759  13.145  30.676   3.097
45977W        W12760  15.657  34.702   0.339
45978W        W12761   8.678  20.532  13.286
45979W        W12762  14.320  19.700   0.307
45980W        W12763   6.206  14.009   2.729
45981W        W12764  28.032  17.239   1.660
45982W        W12765   9.208   9.271   0.777
45983W        W12766  13.124  15.551   0.742
45984W        W12767  24.587  42.098   3.703
45985W        W12768   9.213   4.162   1.208
45986W        W12769   2.903   0.701   4.101
45987W        W12770  36.040  35.938  10.493
45988W        W12771  40.770  34.894  11.620
45989W        W12772   6.807  21.157  12.099
45990W        W12773  13.254  15.098  10.807
45991W        W12774  36.937   4.700   1.714
45992W        W12775  12.156  24.137   4.493
45993W        W12776  24.727  29.020  10.870
45994W        W12777  12.672  29.902  13.069
45995W        W12778   9.373  14.091  13.872
45996W        W12779  36.118  16.083  14.928
45997W        W12780  17.574  31.996   5.042
45998W        W12781  26.443  12.316  11.664
45999W        W12782  23.856  43.375   3.201
46000W        W12783  29.016  23.275  12.152
46001W        W12784  42.339  34.230   0.216
46002W        W12785   1.158  39.734  14.402
46003W        W12786   5.324   0.874  10.770
46004W        W12787  28.519  25.477  10.450
46005W        W12788   1.553  41.493   1.621
46006W        W12789  24.543  32.910   3.171
46007W        W12790  36.330  40.552  14.729
46008W        W12791  27.992  20.575  13.923
46009W        W12792  20.404  32.918   4.164
46010W        W12793  36.349   7.188   2.306
46011W        W12794  29.632  36.896   4.815
46012W        W12795  10.114  16.214   2.405
46013W        W12796  17.201  10.434  14.489
46014W        W12797  35.482  25.090   3.095
46015W        W12798  10.207   5.740   4.618
46016W        W12799  17.105  41.054  13.838
46017W        W12800  20.505  34.561   2.342
46018W        W12801   1.999  32.460   2.830
46019W        W12802  41.478  44.715   0.553
46020W        W12803  18.158   8.156  13.814
46021W        W12804  17.468  43.305   0.570
46022W        W12805  20.458  14.746   3.854
46023W        W12806  32.106  34.339   4.774
46024W        W12807   0.190  18.489  10.950
46025W        W12808  16.834  12.536   4.429
46026W        W12809  42.712  10.891  11.217
46027W        W12810  28.058   1.303  10.662
46028W        W12811   7.834  15.799  11.201
46029W        W12812  19.787  14.302  10.288
46030W        W12813   5.766   7.136  13.807
46031W        W12814  35.170   8.635  12.530
46032W        W12815  35.973  27.452  10.725
46033W        W12816  14.245  31.945   0.486
46034W        W12817  18.532  43.843  12.413
46035W        W12818   3.419  39.009  10.689
46036W        W12819  11.270  30.734  14.871
46037W        W12820   6.438  27.459   2.673
46038W        W12821  16.358  11.577  12.635
46039W        W12822  19.086  13.381   3.677
46040W        W12823  26.962  36.658  10.743
46041W        W12824  20.837  26.950   0.820
46042W        W12825   3.400   7.365   4.210
46043W        W12826  11.873  28.171  12.405
46044W        W12827  13.167  10.196  11.510
46045W        W12828  43.417  23.532   2.478
46046W        W12829  35.235   0.954   1.593
46047W        W12830  20.094  23.006   4.934
46048W        W12831  11.010  30.937  13.445
46049W        W12832  11.260  19.025  12.982
46050W        W12833  41.074  31.521  10.913
46051W        W12834  13.178   5.995   1.872
46052W        W12835  31.385  12.315  10.675
46053W        W12836  39.930  16.629   3.284
46054W        W12837  31.609  33.396  10.622
46055W        W12838  18.110  20.823  14.900
46056W        W12839  33.626  11.621  11.925
46057W        W12840  38.531  37.851   1.116
46058W        W12841  16.671  16.869  10.759
46059W        W12842  26.661  36.860  13.356
46060W        W12843   2.307  28.679   2.292
46061W        W12844   1.266  17.990  12.569
46062W        W12845  15.322  29.535   2.525
46063W        W12846  30.940  29.050   2.129
46064W        W12847   5.586  26.551  13.464
46065W        W12848  28.063  32.077   2.922
46066W        W12849  23.281  10.528  14.606
46067W        W12850   5.084  22.696   1.163
46068W        W12851  12.853  30.651  12.090
46069W        W12852  25.313  22.144   1.273
46070W        W12853  33.586  40.748   3.731
46071W        W12854  38.433  31.233  12.475
46072W        W12855  25.051  16.982   4.894
46073W        W12856   8.705   4.873  12.597
46074W        W12857  20.040   7.404  11.992
46075W        W12858  19.672  34.925   3.584
46076W        W12859  26.121  21.184   4.405
46077W        W12860   3.330   0.712  14.805
46078W        W12861  11.658  25.787   2.389
46079W        W12862  10.647  16.120  10.518
46080W        W12863   5.122  35.088   2.930
46081W        W12864   5.882  39.964  13.054
46082W        W12865  18.481  30.380   3.726
46083W        W12866  12.764  17.791  14.336
46084W        W12867  44.926  33.099   2.693
46085W        W12868  21.968  42.057   1.441
46086W        W12869  27.979  38.363   2.001
46087W        W12870  33.994  12.882   0.820
46088W        W12871   3.917  41.769   3.711
46089W        W12872  27.991  36.277   0.309
46090W        W12873  11.740   6.860  13.312
46091W        W12874  26.009  11.417   2.338
46092W        W12875  44.061  44.277  12.606
46093W        W12876  33.046  11.150   4.612
46094W        W12877  41.841  38.604  14.270
46095W        W12878  43.995  19.489   4.511
46096W        W12879  23.564  33.667  13.899
46097W        W12880  40.443  21.131   2.175
46098W        W12881  39.987  19.838   3.098
46099W        W12882  41.569  35.958  14.424
46100W        W12883  40.915  15.752  14.758
46101W        W12884  16.584  13.658   2.572
46102W        W12885   1.355   6.895  11.452
46103W        W12886   7.667  44.770  10.748
46104W        W12887  27.993  18.320  11.548
46105W        W12888  40.405   2.292  12.536
46106W        W12889  31.427  29.969   3.285
46107W        W12890  11.872  29.226   2.807
46108W        W12891  12.830  27.543  10.703
46109W        W12892  32.618  37.047  12.088
46110W        W12893  17.644  33.680  13.395
46111W        W12894  10.315   5.793   5.594
46112W        W12895  43.220  25.508  13.994
46113W        W12896  19.859   6.366  13.843
46114W        W12897  44.867  36.080  12.665
46115W        W12898  19.099   5.405  12.555
46116W        W12899  16.521  18.335   4.624
46117W        W12900  35.589  28.883   0.282
46118W        W12901  29.497   5.239  13.751
46119W        W12902  17.229  15.662  12.491
46120W        W12903   0.464   9.767   4.695
46121W        W12904  29.123  23.984  14.013
46122W        W12905  33.691  24.803   3.239
46123W        W12906  44.565  13.884   4.900
46124W        W12907   7.658  22.264   0.322
46125W        W12908  35.147  31.011  11.128
46126W        W12909  37.646  28.687  11.740
46127W        W12910  22.556  44.857  14.058
46128W        W12911  11.230   3.267   4.753
46129W        W12912  13.293  27.115  11.783
46130W        W12913  37.563  44.270  13.404
46131W        W12914  40.064  33.089   0.502
46132W        W12915  25.411   9.408   3.679
46133W        W12916   0.274  44.427  14.395
46134W        W12917  44.142  20.894   3.543
46135W        W12918   2.323  13.337   1.742
46136W        W12919  21.248  15.316  11.086
46137W        W12920  29.340  44.442  10.685
46138W        W12921  34.695  27.661   2.528
46139W        W12922  22.028  40.581   4.575
46140W        W12923  36.330  10.319   1.692
46141W        W12924  43.367  38.282   3.213
46142W        W12925  34.485  31.089   3.639
46143W        W12926  25.319  17.621   0.229
46144W        W12927   2.758  39.287   0.257
46145W        W12928   4.363  44.123   0.318
46146W        W12929  41.782  42.745   5.059
46147W        W12930  27.896  22.143  14.387
46148W        W12931  38.804  15.531   4.620
46149W        W12932  21.649   3.174   0.411
46150W        W12933  40.339  19.987  13.001
46151W        W12934  30.202  12.807   0.726
46152W        W12935   0.298  26.524  10.637
46153W        W12936  29.263  26.723   4.623
46154W        W12937  30.193   4.421   3.678
46155W        W12938   7.001  18.884  13.036
46156W        W12939  33.019  17.145  11.486
46157W        W12940  28.978  44.573   2.423
46158W        W12941  11.096   1.706  13.016
46159W        W12942  20.835  35.442   4.580
46160W        W12943  32.968   6.912   0.089
46161W        W12944  19.426  20.100   2.943
46162W        W12945  21.204  38.335   4.507
46163W        W12946   5.378  22.079  12.318
46164W        W12947  15.148  34.676   3.225
46165W        W12948  19.781  32.454   3.926
46166W        W12949  18.455  28.320  11.032
46167W        W12950  25.228   5.431  14.419
46168W        W12951  35.240   7.646  13.503
46169W        W12952   2.719  28.961   1.119
46170W        W12953   9.648  40.159   4.639
46171W        W12954  43.833   5.449   2.207
46172W        W12955  28.173  14.257  14.452
46173W        W12956  21.611  28.031  11.025
46174W        W12957  41.294  43.617  12.998
46175W        W12958  13.094  39.436   2.962
46176W        W12959   1.465   1.711   1.363
46177W        W12960   9.260  39.516   4.832
46178W        W12961  23.210  40.262   3.763
46179W        W12962   0.317  28.977   2.797
46180W        W12963  37.563  12.286  13.448
46181W        W12964  16.783  16.386   3.577
46182W        W12965  11.437  39.966  10.482
46183W        W12966  23.679  22.000  12.572
46184W        W12967   3.875  25.252   0.840
46185W        W12968  22.225  14.745   3.712
46186W        W12969  26.122  22.709  14.717
46187W        W12970  22.240  31.537  10.847
46188W        W12971   4.346  35.084  13.289
46189W        W12972  18.050   9.431   3.811
46190W        W12973  44.219   7.683   3.549
46191W        W12974  24.650   8.208   2.180
46192W        W12975  42.505  44.116  10.280
46193W        W12976   9.338  44.860  13.372
46194W        W12977   5.958   1.190   0.406
46195W        W12978  43.038  17.269  13.276
46196W        W12979   4.624  34.883   3.799
46197W        W12980  26.100  12.215  10.977
46198W        W12981  21.211  28.569   0.453
46199W        W12982  21.072  35.891  11.087
46200W        W12983  41.009  13.605   3.143
46201W        W12984  10.888  17.651   1.990
46202W        W12985   9.100   9.230   2.694
46203W        W12986  43.915  13.600  14.098
46204W        W12987   1.625  34.406   2.507
46205W        W12988   0.211  14.511   4.986
46206W        W12989  26.544   8.800   4.603
46207W        W12990  43.048  27.163  12.399
46208W        W12991  36.338  27.445  11.152
46209W        W12992  24.909   6.175  11.995
46210W        W12993  28.142  29.467  13.525
46211W        W12994   0.924  44.859   1.742
46212W        W12995  39.385   5.183   0.745
46213W        W12996  22.698  41.477   0.419
46214W        W12997  11.354  30.976   3.580
46215W        W12998  10.710  18.157   2.229
46216W        W12999  30.710   4.302   0.283
46217W        W13000  25.663  26.414   3.241
46218W        W13001   4.710  23.184  11.570
46219W        W13002  44.763  38.853  13.009
46220W        W13003  13.891  31.915   0.898
46221W        W13004  31.008  38.181   2.756
46222W        W13005   2.355  37.460  12.450
46223W        W13006  32.722   8.299  10.655
46224W        W13007  14.638  40.141   2.508
46225W        W13008  34.028   2.029  13.133
46226W        W13009  28.649  32.852  14.741
46227W        W13010  44.858  17.190  13.077
46228W        W13011  15.585  27.574  14.103
46229W        W13012  39.385  28.418  11.393
46230W        W13013  18.995  36.205   3.177
46231W        W13014  28.415   8.767  12.323
46232W        W13015  22.324  40.355   2.615
46233W        W13016  35.867  40.323   0.906
46234W        W13017  36.400  39.985   3.383
46235W        W13018   0.817  21.119  12.714
46236W        W13019  10.434  14.821  11.039
46237W        W13020  44.931  40.109   1.685
46238W        W13021  32.413  43.911   2.690
46239W        W13022   0.682  30.042  11.609
46240W        W13023  24.252  17.600   1.107
46241W        W13024  24.652  42.905  14.499
46242W        W13025  11.051   0.682   0.890
46243W        W13026  31.479  33.043   0.465
46244W        W13027  27.191  17.100  13.445
46245W        W13028  29.708  13.204   1.888
46246W        W13029  32.848  15.734   3.301
46247W        W13030   7.742  25.477  13.384
46248W        W13031  11.096   5.797  14.769
46249W        W13032  30.595  38.912  14.018
46250W        W13033  35.445  35.752  13.950
46251W        W13034   9.971   6.262   0.634
46252W        W13035  28.627  28.270   1.407
46253W        W13036  36.926  18.231  14.776
46254W        W13037  13.446  14.226  13.005
46255W        W13038  40.314   7.749  10.106
46256W        W13039  40.741  21.786  13.830
46257W        W13040  12.373  10.372  13.370
46258W        W13041  32.213  33.350  13.912
46259W        W13042  30.056  31.206  12.596
46260W        W13043  38.840   3.855   0.806
46261W        W13044   3.101  35.006  12.901
46262W        W13045   7.134  30.989   4.107
46263W        W13046  12.707  27.047   2.071
46264W        W13047  19.855   4.963   2.274
46265W        W13048   0.290  24.019  13.813
46266W        W13049  39.784  31.650   3.694
46267W        W13050  33.003  25.548   2.377
46268W        W13051  39.439  11.367  13.032
46269W        W13052  31.947  17.641   0.063
46270W        W13053  15.045  24.414   0.017
46271W        W13054  30.378   7.810   2.896
46272W        W13055  32.062  13.714  12.971
46273W        W13056   6.672  10.312   4.688
46274W        W13057   2.210   7.339   4.594
46275W        W13058  42.059  19.797  13.297
46276W        W13059   9.219  18.087   2.006
46277W        W13060   0.957  41.405  14.516
46278W        W13061  34.028  26.655  12.744
46279W        W13062  34.613   9.174   2.823
46280W        W13063  42.785   7.259   2.169
46281W        W13064  25.395  36.180   0.092
46282W        W13065  23.986  11.355   0.427
46283W        W13066  17.212   4.013   4.601
46284W        W13067  12.783   2.753  14.477
46285W        W13068  22.572  44.273   2.119
46286W        W13069  44.236  16.559  10.880
46287W        W13070   6.051   7.681  11.081
46288W        W13071  36.828   9.333  13.459
46289W        W13072  31.075   0.700  13.723
46290W        W13073  27.860  24.989   4.623
46291W        W13074  15.274  14.117   0.337
46292W        W13075  23.600  11.705  13.137
46293W        W13076  29.198   5.519  12.450
46294W        W13077   5.863  44.708  12.083
46295W        W13078  20.829   6.908   2.220
46296W        W13079  25.727  33.289  13.795
46297W        W13080  17.007  30.892   4.525
46298W        W13081  40.861  40.325  11.103
46299W        W13082  21.503  19.245   4.067
46300W        W13083  37.382  12.676  12.954
46301W        W13084  32.494  31.728   3.749
46302W        W13085  15.853  19.949   2.005
46303W        W13086  44.982  44.525  11.914
46304W        W13087  44.599  28.682  13.432
46305W        W13088  29.217  33.180  13.495
46306W        W13089  25.606  42.004   2.357
46307W        W13090  32.390  24.166  11.307
46308W        W13091  34.031  30.021   0.125
46309W        W13092  35.292  30.622   1.347
46310W        W13093  11.404  42.929   4.994
46311W        W13094   0.999   6.030  11.650
46312W        W13095  24.465   0.039   3.840
46313W        W13096  21.414   1.451  11.020
46314W        W13097  19.883  35.403  12.580
46315W        W13098  34.865  24.675  14.852
46316W        W13099  21.748  13.194  11.063
46317W        W13100  43.091  42.674  10.137
46318W        W13101  19.730  42.788  12.079
46319W        W13102  32.659   6.393   1.238
46320W        W13103  40.309  32.788  11.128
46321W        W13104  19.905  32.044  13.534
46322W        W13105  37.310  43.022  13.819
46323W        W13106  27.947  25.202   3.363
46324W        W13107  24.111  23.152   4.726
46325W        W13108  18.780  13.904   1.972
46326W        W13109  30.068  13.268   4.295
46327W        W13110  15.799  30.378   3.728
46328W        W13111  22.703   5.321  14.450
46329W        W13112   9.226  30.061   1.825
46330W        W13113   8.422  32.357  14.837
46331W        W13114  39.358  19.504   0.218
46332W        W13115  25.894  37.991   3.241
46333W        W13116   3.702  43.334  14.327
46334W        W13117  12.533   6.642   3.562
46335W        W13118  33.298  30.993  10.479
46336W        W13119  36.977  10.143  11.154
46337W        W13120   7.666  30.112   3.944
46338W        W13121  27.985  39.324   2.348
46339W        W13122  44.278  18.809  11.036
46340W        W13123  14.661   8.803  14.242
46341W        W13124  23.487  15.121   0.884
46342W        W13125  24.670  39.730   0.139
46343W        W13126   5.885  28.034   3.491
46344W        W13127   7.208   7.943  12.659
46345W        W13128  26.215  13.210   1.164
46346W        W13129  26.831  43.320   3.185
46347W        W13130  37.483  26.332   1.806
46348W        W13131  11.562   5.718  11.549
46349W        W13132  33.001  18.661  12.779
46350W        W13133   5.790  19.522   0.334
46351W        W13134  14.584  42.563  14.436
46352W        W13135  11.400  30.439   2.384
46353W        W13136  21.740  37.473   0.772
46354W        W13137  37.438  20.979  13.955
46355W        W13138  11.392  14.759  13.767
46356W        W13139  24.475  17.065  13.904
46357W        W13140  26.848  44.482  12.020
46358W        W13141  10.635  29.128   2.318
46359W        W13142   7.056   8.938   3.329
46360W        W13143   8.922  23.082  13.278
46361W        W13144  27.220   4.846  11.280
46362W        W13145  39.615  44.848  11.634
46363W        W13146  29.406  17.173  10.609
46364W        W13147  15.896   1.563  10.215
46365W        W13148  32.066  30.053  12.110
46366W        W13149   7.105  17.176  10.815
46367W        W13150   7.182  24.529   1.295
46368W        W13151   4.669  43.917  13.092
46369W        W13152  16.095  26.738  13.828
46370W        W13153  14.750  11.070   2.926
46371W        W13154  12.548  39.473  13.539
46372W        W13155  12.358  39.413  14.050
46373W        W13156   0.328  12.081   3.917
46374W        W13157  37.311  16.982   0.990
46375W        W13158  37.860  23.614   0.329
46376W        W13159  17.148  15.435  11.326
46377W        W13160   9.253  43.205   0.792
46378W        W13161  26.901  34.061  11.835
46379W        W13162  15.307  15.574  10.694
46380W        W13163  14.245  16.089  11.469
46381W        W13164  29.166  36.616   2.289
46382W        W13165  26.215  38.424   1.906
46383W        W13166  22.724  18.974  12.490
46384W        W13167  17.592  40.265   4.858
46385W        W13168   1.220  12.779   3.135
46386W        W13169   9.830  12.528  13.379
46387W        W13170  15.245  20.030   4.687
46388W        W13171  17.193  18.710  12.487
46389W        W13172  32.013  31.692  11.651
46390W        W13173  20.033   6.018   3.258
46391W        W13174  33.107  43.869   4.204
46392W        W13175  10.117   9.607  13.541
46393W        W13176  17.188  21.816  11.123
46394W        W13177   7.931  36.620   1.817
46395W        W13178   4.487  30.076   0.892
46396W        W13179  27.986   9.539   4.486
46397W        W13180  33.423  43.457  14.224
46398W        W13181  32.265   9.282  14.417
46399W        W13182  40.866  36.623  10.728
46400W        W13183  22.517  22.288  14.763
46401W        W13184  25.256  32.136  12.170
46402W        W13185  37.935  27.924   1.187
46403W        W13186  33.287  17.647  12.759
46404W        W13187   7.388  31.626   3.325
46405W        W13188  38.352  21.696   3.960
46406W        W13189  35.292  15.082   3.784
46407W        W13190  16.348  21.584   4.124
46408W        W13191  28.899   1.833   2.965
46409W        W13192  33.207  40.956  13.081
46410W        W13193  38.308   2.180  11.056
46411W        W13194   3.525  36.852  10.710
46412W        W13195  16.736  14.023   5.702
46413W        W13196  22.111  44.439   2.346
46414W        W13197  22.400   3.864  12.569
46415W        W13198  29.212  15.615  12.106
46416W        W13199   7.861  34.114   1.395
46417W        W13200   0.270  21.084  11.593
46418W        W13201   2.351  37.919   1.688
46419W        W13202   2.903  40.331   0.177
46420W        W13203   7.017  30.487  12.361
46421W        W13204  37.846  34.642   3.291
46422W        W13205   8.912  13.906   0.899
46423W        W13206  27.073  26.568  10.074
46424W        W13207  21.501  16.910  10.920
46425W        W13208  12.821  15.380   1.178
46426W        W13209  28.182  15.760  11.430
46427W        W13210  30.236  37.979   4.197
46428W        W13211  41.973  39.600   2.226
46429W        W13212  40.530  25.592   2.971
46430W        W13213  23.293  21.712  13.272
46431W        W13214  34.490  17.772   2.647
46432W        W13215  11.924  29.365  11.598
46433W        W13216  39.163  14.309   4.074
46434W        W13217  18.223  43.236  14.449
46435W        W13218  24.508  21.583  12.122
46436W        W13219  10.433  38.877   3.691
46437W        W13220  36.306  13.306  11.053
46438W        W13221  17.627  12.598  11.730
46439W        W13222   6.671  43.405   1.645
46440W        W13223   9.257  43.977   3.175
46441W        W13224  17.646  40.563   1.231
46442W        W13225   7.177  30.100  14.327
46443W        W13226   9.106  31.217  10.761
46444W        W13227  18.270  15.287   2.774
46445W        W13228  22.273  13.716   1.390
46446W        W13229   3.188  43.890   1.886
46447W        W13230  39.794  17.665   1.625
46448W        W13231  34.061  13.462  11.007
46449W        W13232  31.018  30.797  10.290
46450W        W13233   9.063   6.866  11.657
46451W        W13234  41.320   5.030  13.567
46452W        W13235  36.843  43.296  14.084
46453W        W13236   1.753   8.006  14.941
46454W        W13237  44.605  43.911   9.967
46455W        W13238  26.277  37.657   0.416
46456W        W13239   3.939  14.326   4.630
46457W        W13240  35.431  29.404   1.015
46458W        W13241   9.832  23.682  13.886
46459W        W13242  39.371  25.555   4.572
46460W        W13243   9.178   3.154   1.321
46461W        W13244   4.682  22.674  14.451
46462W        W13245  13.297   5.289  13.417
46463W        W13246  23.944  27.502  12.193
46464W        W13247  39.904  40.810  13.546
46465W        W13248  39.765  13.205  11.130
46466W        W13249  39.060   7.816   0.387
46467W        W13250  26.924  28.145   4.566
46468W        W13251  11.142  20.855  10.965
46469W        W13252   3.406   4.624  10.345
46470W        W13253  32.995  36.835   2.588
46471W        W13254  13.775   6.667  12.129
46472W        W13255   1.052  40.458   3.021
46473W        W13256  26.133   3.412  13.346
46474W        W13257  37.563  26.964   0.954
46475W        W13258  37.564   5.551   3.651
46476W        W13259  19.035  43.508   1.647
46477W        W13260  22.215  34.503  10.807
46478W        W13261  40.369  29.025  10.293
46479W        W13262  20.529  18.834   2.714
46480W        W13263  42.056  28.858   3.884
46481W        W13264  44.781  43.520  14.589
46482W        W13265  31.306   8.936   0.241
46483W        W13266   4.789  44.743   3.598
46484W        W13267   9.722  30.143   2.722
46485W        W13268   3.928  43.899   2.319
46486W        W13269  21.028  24.497   1.259
46487W        W13270  41.038  30.722  12.015
46488W        W13271   1.751  16.814   3.623
46489W        W13272   7.531   9.749   2.348
46490W        W13273  31.124  36.978  14.025
46491W        W13274   4.851  16.522   1.525
46492W        W13275  26.941  35.431  14.411
46493W        W13276  23.303  42.781   1.955
46494W        W13277  41.433  36.430  12.124
46495W        W13278  11.734   8.904   1.530
46496W        W13279   9.726  20.381   0.814
46497W        W13280  10.300  20.706  12.502
46498W        W13281   0.917  43.461  11.973
46499W        W13282   3.260  43.991  13.015
46500W        W13283   2.839  41.330   2.463
46501W        W13284   3.813   6.467  13.585
46502W        W13285  23.633   4.440   4.998
46503W        W13286  17.770   6.736   2.296
46504W        W13287  21.397  42.934   3.366
46505W        W13288   7.094  31.582   2.356
46506W        W13289  14.683  28.397   1.889
46507W        W13290  20.566  19.732   1.370
46508W        W13291  15.682  43.092   3.343
46509W        W13292  23.419  40.027   1.661
46510W        W13293  25.605   9.716   2.414
46511W        W13294  34.558   2.931   4.535
46512W        W13295  40.003  15.323   4.391
46513W        W13296  31.159  12.853   2.686
46514W        W13297   3.806  18.718  13.047
46515W        W13298   5.643  15.766  11.576
46516W        W13299   4.019  40.970   0.397
46517W        W13300   8.150  12.405  13.328
46518W        W13301  17.282   2.960   2.277
46519W        W13302   0.163  14.323   9.807
46520W        W13303  10.385  13.714   4.651
46521W        W13304  18.152  16.607  12.861
46522W        W13305   2.305  14.671  14.335
46523W        W13306   5.457  32.162  14.861
46524W        W13307   8.181  24.518  12.832
46525W        W13308  43.520  37.732   1.809
46526W        W13309   0.486  37.483  12.962
46527W        W13310  27.997  12.415   3.720
46528W        W13311  15.880  30.597  10.307
46529W        W13312   6.737  33.434  12.219
46530W        W13313   6.000  20.312  11.654
46531W        W13314  19.824   9.733  14.463
46532W        W13315   6.323  43.046  13.123
46533W        W13316  31.154  28.113   5.057
46534W        W13317   0.327  29.252  14.309
46535W        W13318  38.797   1.171   4.848
46536W        W13319  41.020  10.323   4.483
46537W        W13320  36.655   6.661   3.672
46538W        W13321  18.218   6.224   0.264
46539W        W13322   3.696  31.353  13.339
46540W        W13323  44.961  25.015   2.354
46541W        W13324  16.570  21.511   1.848
46542W        W13325  25.893   4.461   2.848
46543W        W13326  42.379  26.622  13.886
46544W        W13327  12.866   5.100   3.604
46545W        W13328   0.379  36.844  12.480
46546W        W13329  43.804  10.723  12.686
46547W        W13330  31.477  11.807   3.919
46548W        W13331  30.024  15.215   4.606
46549W        W13332  37.022  17.669  12.890
46550W        W13333  42.377   6.886  13.474
46551W        W13334  21.861  24.161   4.631
46552W        W13335   0.521  20.462  11.675
46553W        W13336  35.113  11.958  11.891
46554W        W13337  44.802   5.070   1.421
46555W        W13338  42.552  33.229   1.396
46556W        W13339  42.502  11.105  11.600
46557W        W13340  29.907  39.670   4.527
46558W        W13341  39.558  22.497   3.679
46559W        W13342   6.801   8.902   0.783
46560W        W13343  21.646  11.147   2.929
46561W        W13344   0.262  39.620  11.420
46562W        W13345  42.331   0.684   0.566
46563W        W13346  42.253  11.631   0.063
46564W        W13347   9.691   4.257   3.244
46565W        W13348   2.258  21.049  14.861
46566W        W13349  17.513  32.660  11.695
46567W        W13350  28.070   6.887  14.865
46568W        W13351  36.998  11.577  11.210
46569W        W13352  35.091  23.947   4.857
46570W        W13353  15.362  15.533   1.728
46571W        W13354  27.960  44.626   5.049
46572W        W13355  34.053  28.174   4.478
46573W        W13356   2.857  38.049  14.112
46574W        W13357  15.658  34.187   0.497
46575W        W13358  40.851  23.175  12.991
46576W        W13359  18.543  11.088  13.348
46577W        W13360  33.140  25.158   3.325
46578W        W13361  41.278  30.320  10.699
46579W        W13362  19.300  16.979  13.912
46580W        W13363   2.137  40.176   2.076
46581W        W13364  16.142  12.901  14.233
46582W        W13365  19.866   8.447   1.770
46583W        W13366  24.566  11.683   2.175
46584W        W13367  29.085  38.945   1.880
46585W        W13368   4.364  21.811  14.788
46586W        W13369  17.849  32.710   1.779
46587W        W13370  18.893  27.508   0.410
46588W        W13371   8.451  21.183   2.728
46589W        W13372  39.536   3.403  13.335
46590W        W13373  31.407  10.595  12.937
46591W        W13374  24.178  10.455   3.291
46592W        W13375  42.500  24.552  12.149
46593W        W13376  42.958  42.078   0.881
46594W        W13377  26.992  39.397   1.983
46595W        W13378  39.829  22.929   2.905
46596W        W13379  37.326   4.634   0.743
46597W        W13380  35.252   5.502  13.371
46598W        W13381  32.473   3.822  14.403
46599W        W13382  25.478  22.627  12.394
46600W        W13383  22.313  20.274   0.763
46601W        W13384  11.548  32.588  11.052
46602W        W13385  27.942  20.275   1.726
46603W        W13386   4.200  39.218   4.165
46604W        W13387  37.340   2.958  12.316
46605W        W13388  32.826   0.067  12.963
46606W        W13389  37.223   3.902   3.213
46607W        W13390   4.736  25.228  14.551
46608W        W13391  31.212  41.517  12.050
46609W        W13392  43.038  27.393   1.818
46610W        W13393  13.541  13.713   4.736
46611W        W13394   2.041  40.446   3.256
46612W        W13395  34.634   4.834   0.083
46613W        W13396   8.780  23.567   3.857
46614W        W13397  42.482   1.202   1.845
46615W        W13398  14.031   6.640   0.059
46616W        W13399   7.126  43.591  14.280
46617W        W13400   0.851   0.481  12.394
46618W        W13401  19.618  37.431   4.814
46619W        W13402  44.912  40.702  10.466
46620W        W13403  43.833  41.824  12.601
46621W        W13404  38.930  21.577  13.243
46622W        W13405  21.709  39.424   2.796
46623W        W13406  39.365  31.033   0.066
46624W        W13407  37.411  23.360   3.759
46625W        W13408  16.115   4.844  14.004
46626W        W13409  24.398   5.460   4.264
46627W        W13410  22.982   9.404   1.227
46628W        W13411  28.232  42.941  12.858
46629W        W13412   6.379  24.956   1.738
46630W        W13413  21.770   5.090   2.663
46631W        W13414  42.833  27.302   4.097
46632W        W13415  26.229   3.140  11.167
46633W        W13416  38.317  13.755   0.741
46634W        W13417   0.546  32.008  13.506
46635W        W13418  35.884  32.012   2.387
46636W        W13419   0.884   4.781   4.580
46637W        W13420   7.952  19.671  11.636
46638W        W13421  18.333  33.492   4.984
46639W        W13422  24.129  28.118   4.977
46640W        W13423  33.976  19.933   1.193
46641W        W13424  19.160   1.367  14.059
46642W        W13425  24.986  31.008  11.225
46643W        W13426   5.420  43.488   3.772
46644W        W13427  11.002  32.887  14.437
46645W        W13428  32.680  11.219  12.924
46646W        W13429   2.951   5.948  10.409
46647W        W13430  12.848  38.800   4.523
46648W        W13431  25.466   2.347   2.372
46649W        W13432  22.463  19.074  12.055
46650W        W13433  19.100  18.577  12.673
46651W        W13434  40.485   6.259  12.802
46652W        W13435  24.662  38.905   3.217
46653W        W13436  32.932  40.806  14.023
46654W        W13437  14.762   4.417  14.463
46655W        W13438   2.247   3.302   0.821
46656W        W13439  10.519   7.349  13.430
46657W        W13440  41.936   0.996   0.417
46658W        W13441  35.514  43.968  14.249
46659W        W13442  23.447   7.681  14.987
46660W        W13443  29.107  24.711   4.882
46661W        W13444   6.878   3.250   0.773
46662W        W13445  29.589  11.580   4.512
46663W        W13446  39.064   0.365   0.686
46664W        W13447  43.856  18.305  13.408
46665W        W13448  20.101  24.038   1.966
46666W        W13449   9.645  27.952  11.756
46667W        W13450  21.145  39.347   2.880
46668W        W13451  43.582  25.950   2.275
46669W        W13452  43.018  33.293   3.796
46670W        W13453  12.054  26.337   4.035
46671W        W13454  35.940  42.847  10.670
46672W        W13455  29.412   9.332   2.753
46673W        W13456  27.374  31.206   4.250
46674W        W13457  13.372  11.421   2.939
46675W        W13458  33.789  41.924  13.190
46676W        W13459  43.344  36.850   3.638
46677W        W13460  10.758  26.793   0.744
46678W        W13461  40.766  25.952   1.724
46679W        W13462   1.027  31.907   4.148
46680W        W13463  18.089  15.604  12.515
46681W        W13464  32.709  18.448  13.210
46682W        W13465   4.279  11.297   2.897
46683W        W13466   5.259  41.366  13.490
46684W        W13467  39.993   0.983  13.538
46685W        W13468  25.860  18.699  13.321
46686W        W13469   3.990  18.601  12.098
46687W        W13470  11.164   1.721  14.855
46688W        W13471   2.731  32.665  13.358
46689W        W13472  28.938   9.777   3.950
46690W        W13473   1.784  35.454   4.028
46691W        W13474   9.134   3.854  11.366
46692W        W13475  33.387   3.237  14.072
46693W        W13476  18.056  21.404  12.785
46694W        W13477  23.673  43.860   3.159
46695W        W13478  42.463  28.784   3.169
46696W        W13479   2.274   6.644   0.900
46697W        W13480  26.000  40.309  14.804
46698W        W13481  41.252  12.254   0.432
46699W        W13482   9.641  17.202  10.629
46700W        W13483  38.506  30.161   3.365
46701W        W13484  26.425  12.303  13.437
46702W        W13485  24.077  41.207  14.502
46703W        W13486  27.139  40.805  10.718
46704W        W13487  28.569   7.787  13.389
46705W        W13488  19.899  25.460   1.336
46706W        W13489  33.357  30.193   2.110
46707W        W13490  15.200  26.704  11.014
46708W        W13491  21.007   1.609  14.860
46709W        W13492   0.908  11.205   3.691
46710W        W13493  28.046  30.353   1.686
46711W        W13494  31.647  18.521  13.941
46712W        W13495   4.375  36.134   0.703
46713W        W13496   7.955  20.508  12.471
46714W        W13497  26.221  41.289  11.549
46715W        W13498  10.266  14.090  13.899
46716W        W13499   1.270  34.805   2.404
46717W        W13500  37.750  22.012   2.463
46718W        W13501  37.843   8.666  10.926
46719W        W13502  44.057  22.725   1.912
46720W        W13503  27.891  30.887  12.370
46721W        W13504  42.892  35.446   1.970
46722W        W13505  30.690  15.699  13.482
46723W        W13506   0.072  26.936  12.262
46724W        W13507  20.089  27.127  13.890
46725W        W13508  22.451   1.697  11.285
46726W        W13509   9.656  36.897  12.580
46727W        W13510  31.486   3.917  10.755
46728W        W13511  29.728  36.062   1.910
46729W        W13512  18.020   0.965   2.371
46730W        W13513   0.807  12.126  12.470
46731W        W13514   3.841   5.859  11.427
46732W        W13515  28.508   2.419   0.248
46733W        W13516   0.459  39.599  14.442
46734W        W13517  11.532  43.130   4.081
46735W        W13518  16.782   2.822  14.093
46736W        W13519   4.502  34.619   0.956
46737W        W13520  29.561  25.204   0.727
46738W        W13521  34.572  36.105  13.048
46739W        W13522  29.166  18.969  13.962
46740W        W13523  35.349   3.395   1.290
46741W        W13524  43.494  19.620   0.916
46742W        W13525   6.882  37.441  13.801
46743W        W13526   7.638  16.835   1.818
46744W        W13527   9.159  12.320  12.305
46745W        W13528  35.549  29.348   0.493
46746W        W13529  37.823  14.816   0.406
46747W        W13530  32.468  16.508  12.631
46748W        W13531  43.514  33.729  10.322
46749W        W13532  22.176  33.516  11.949
46750W        W13533   1.235  34.050  13.562
46751W        W13534   4.420  36.510   1.629
46752W        W13535  21.698   1.175  10.647
46753W        W13536   5.121  32.824  11.139
46754W        W13537  41.886   6.749   2.756
46755W        W13538  32.134  44.114   1.844
46756W        W13539   8.924  30.874  11.083
46757W        W13540  29.594  27.119   0.056
46758W        W13541  10.354  44.727  10.736
46759W        W13542   4.787   5.403   0.730
46760W        W13543   4.434  42.580   2.399
46761W        W13544  14.559  15.323  14.484
46762W        W13545   6.630   9.642  13.026
46763W        W13546   1.836  35.099  14.042
46764W        W13547  24.166  38.905  14.837
46765W        W13548  36.646  35.854  13.799
46766W        W13549   1.404   7.908   3.712
46767W        W13550  35.405  37.510   3.004
46768W        W13551  34.953  11.334   4.575
46769W        W13552  11.385   6.855  10.338
46770W        W13553  37.128   0.830   0.836
46771W        W13554   6.326  28.458   1.861
46772W        W13555  17.512  11.524   1.807
46773W        W13556  33.474  26.344   3.888
46774W        W13557  38.327   7.498  14.759
46775W        W13558  40.532   5.168   4.125
46776W        W13559  37.317  10.217   3.258
46777W        W13560   0.418   4.391   4.112
46778W        W13561  22.526  38.672   4.799
46779W        W13562   5.352  41.958   1.310
46780W        W13563  44.881  37.631   0.116
46781W        W13564  33.907  18.530   3.198
46782W        W13565  33.456  14.665   0.246
46783W        W13566  33.878  28.354   0.007
46784W        W13567   0.951  22.601  13.112
46785W        W13568  22.294  34.906  11.131
46786W        W13569   3.917  16.799   1.333
46787W        W13570  43.430  14.590   0.315
46788W        W13571  27.028  22.130  14.468
46789W        W13572  30.162  27.995   3.029
46790W        W13573   0.679   4.209   0.929
46791W        W13574  21.139  31.156   3.779
46792W        W13575  32.914   9.857  10.969
46793W        W13576  20.259  16.017  10.708
46794W        W13577  35.935   2.910   3.816
46795W        W13578   0.482  14.694   1.365
46796W        W13579  40.394  42.055   0.176
46797W        W13580  20.775  35.685  14.952
46798W        W13581  12.601  19.471  11.700
46799W        W13582  29.124  17.186  14.873
46800W        W13583  44.424  35.961  14.932
46801W        W13584  17.853  31.375   0.054
46802W        W13585  27.095  34.970   4.541
46803W        W13586  15.762  30.145  13.407
46804W        W13587  14.163  35.155  10.146
46805W        W13588  14.868  31.845  12.984
46806W        W13589  38.402  21.156   1.693
46807W        W13590  33.435  10.305   3.222
46808W        W13591  29.089   0.937  10.729
46809W        W13592  41.834   6.895  12.051
46810W        W13593  30.085  22.128   3.976
46811W        W13594  39.561  34.913   0.679
46812W        W13595  17.729  42.942  10.621
46813W        W13596  29.098   7.757   3.121
46814W        W13597  23.526  37.045  12.640
46815W        W13598  22.954   1.939  11.973
46816W        W13599  24.539  10.346  10.650
46817W        W13600  26.492  22.224   0.389
46818W        W13601  23.423   6.790   1.064
46819W        W13602  31.305  19.000  11.047
46820W        W13603  13.701  21.236   2.146
46821W        W13604  34.362   6.737  14.688
46822W        W13605   9.869   5.261   4.250
46823W        W13606  14.341  23.547   3.668
46824W        W13607  34.580  17.788  10.850
46825W        W13608  26.726  15.671   4.622
46826W        W13609   6.311   2.584   3.621
46827W        W13610  24.004  11.095   0.907
46828W        W13611  11.916  33.558   0.356
46829W        W13612  42.461  28.507  14.085
46830W        W13613  42.824  32.976  13.549
46831W        W13614  23.206  34.995   4.624
46832W        W13615   2.871   2.262  11.624
46833W        W13616  38.393  27.964   4.947
46834W        W13617  34.444  17.789  14.267
46835W        W13618   9.592  30.319  11.051
46836W        W13619  15.771  15.408   0.376
46837W        W13620  37.780  17.708  14.443
46838W        W13621  13.256  37.048  12.185
46839W        W13622   8.931  40.453  13.461
46840W        W13623  39.994  25.772   1.109
46841W        W13624  44.133   0.977   0.342
46842W        W13625  22.183  18.465  11.575
46843W        W13626  35.065  10.147  11.917
46844W        W13627   0.792  29.543   0.032
46845W        W13628  28.078  21.139  14.281
46846W        W13629  15.756  10.847  14.021
46847W        W13630  34.474  33.647  13.880
46848W        W13631  41.831  37.535  12.142
46849W        W13632  15.400  26.645  11.486
46850W        W13633  21.612  13.699  11.230
46851W        W13634   0.702  22.996  11.204
46852W        W13635  23.499  39.901  11.869
46853W        W13636  16.707  44.632   3.582
46854W        W13637   6.680  42.738   0.929
46855W        W13638  30.538  31.964  13.432
46856W        W13639  31.434  38.228  11.946
46857W        W13640  32.686  20.137  14.960
46858W        W13641  18.853  32.170   4.083
46859W        W13642  29.251  41.931   3.334
46860W        W13643  24.661  31.787  12.875
46861W        W13644   6.933   2.088   0.933
46862W        W13645  12.361  14.894   0.395
46863W        W13646  33.929   0.814  11.661
46864W        W13647   3.963  28.681   0.405
46865W        W13648  40.329  22.784  12.412
46866W        W13649  11.793  18.814  11.701
46867W        W13650  38.503   8.182   3.752
46868W        W13651  43.265  24.445  13.383
46869W        W13652  17.451  34.307   1.931
46870W        W13653   8.508  24.303   4.207
46871W        W13654  40.113  29.063   3.406
46872W        W13655  18.858  16.838  11.078
46873W        W13656   4.436  13.287  11.573
46874W        W13657  22.844  43.530   2.938
46875W        W13658  27.066  17.363   3.104
46876W        W13659   4.311  33.862   3.815
46877W        W13660   9.312  12.200  10.550
46878W        W13661  33.544  30.378   4.762
46879W        W13662  15.230  25.447  13.349
46880W        W13663  32.461  30.449  14.859
46881W        W13664  12.441  35.096   9.827
46882W        W13665   1.520  22.943   1.839
46883W        W13666  18.752  27.653   2.235
46884W        W13667  36.886  35.127  13.437
46885W        W13668  15.240  40.870   3.317
46886W        W13669  19.844  22.629  14.297
46887W        W13670   0.848  16.646   4.188
46888W        W13671   4.832  10.361  10.601
46889W        W13672  12.126  11.252   3.580
46890W        W13673  21.713  23.110  10.548
46891W        W13674   4.591  21.158   1.357
46892W        W13675  32.103   2.442  14.001
46893W        W13676  44.566  16.258   0.281
46894W        W13677  14.810  10.790   1.300
46895W        W13678  12.129   2.427  13.719
46896W        W13679   7.212  23.744   2.643
46897W        W13680  32.165  12.150   3.236
46898W        W13681  42.541  22.529   1.837
46899W        W13682  28.457  15.730   4.138
46900W        W13683  33.594   6.006   1.380
46901W        W13684  28.461  39.502  12.766
46902W        W13685  32.167  44.763   0.251
46903W        W13686  44.377  18.141   0.077
46904W        W13687  10.148  13.280   3.164
46905W        W13688  26.019   5.989   0.351
46906W        W13689  43.763  27.142  13.532
46907W        W13690  42.997  32.653  11.505
46908W        W13691  41.367  35.315  13.483
46909W        W13692  15.318  19.331   2.372
46910W        W13693  41.746   3.250  13.420
46911W        W13694  25.974   7.368  11.409
46912W        W13695  33.267  16.213  14.253
46913W        W13696  38.869   1.271   3.969
46914W        W13697  13.098  42.227  10.820
46915W        W13698   5.239  31.684   4.217
46916W        W13699  12.545  19.844  12.942
46917W        W13700  33.375  15.804   0.896
46918W        W13701  22.978  21.585   4.594
46919W        W13702  34.147   9.873  10.736
46920W        W13703   1.988  42.967   3.079
46921W        W13704  10.383  40.607  11.995
46922W        W13705   5.626  12.975   4.126
46923W        W13706   3.195   7.104   0.756
46924W        W13707  20.219  39.054   4.660
46925W        W13708  18.609  19.531  13.370
46926W        W13709  43.272  39.272  13.795
46927W        W13710  38.233  30.172  12.542
46928W        W13711  38.607  24.315  11.994
46929W        W13712  17.090   5.847  10.573
46930W        W13713  15.265   5.428   4.289
46931W        W13714  24.547  35.080   1.973
46932W        W13715  16.266   9.059   1.798
46933W        W13716   4.399   1.440   0.852
46934W        W13717  14.267   8.396  13.084
46935W        W13718  35.284   6.435  11.953
46936W        W13719  36.096  41.994  10.653
46937W        W13720   4.093  39.953   2.152
46938W        W13721  37.507  42.692  14.627
46939W        W13722  18.056  40.049  13.440
46940W        W13723   2.047  41.097  13.061
46941W        W13724   8.366   1.566   3.272
46942W        W13725  29.841  39.550   3.670
46943W        W13726  37.565   4.646   0.267
46944W        W13727  32.405  32.935   0.912
46945W        W13728  14.164  10.233  12.555
46946W        W13729  31.165  20.994  12.063
46947W        W13730  28.518   0.823  14.522
46948W        W13731  35.839  34.137   1.714
46949W        W13732  33.189  42.976   9.902
46950W        W13733  25.113  15.202   0.437
46951W        W13734  14.096  16.104   4.770
46952W        W13735   1.393  10.606   0.835
46953W        W13736   0.833  20.734   2.227
46954W        W13737  40.704  13.734   3.599
46955W        W13738  36.952  13.360   1.163
46956W        W13739  20.608  30.560   4.640
46957W        W13740  20.222  43.337  11.978
46958W        W13741   4.431   5.977  12.996
46959W        W13742  30.418  28.432   3.733
46960W        W13743  16.583  21.113  13.945
46961W        W13744  18.132  11.815   2.403
46962W        W13745  17.368  18.049  10.591
46963W        W13746  25.957  39.811  14.951
46964W        W13747   2.070  24.814  13.369
46965W        W13748  10.884  39.909   4.256
46966W        W13749   8.189  19.003  11.412
46967W        W13750  31.651  34.415  14.367
46968W        W13751  27.729   3.839  10.493
46969W        W13752  21.233  25.263   2.271
46970W        W13753  15.825   8.647  14.899
46971W        W13754  33.069  35.606   2.366
46972W        W13755  12.642  10.482  11.553
46973W        W13756   6.601  43.448  11.030
46974W        W13757  13.517   3.202  13.438
46975W        W13758  38.413  19.181   4.590
46976W        W13759  17.677  34.112  11.484
46977W        W13760  28.472  37.836  13.578
46978W        W13761  11.671  22.442  12.159
46979W        W13762  38.859  43.821  13.360
46980W        W13763   0.935  44.513  12.858
46981W        W13764  29.533  35.165  14.969
46982W        W13765   3.883   6.002   3.962
46983W        W13766  18.657  23.911  11.892
46984W        W13767  30.621  44.758  10.610
46985W        W13768   3.904   0.444  14.140
46986W        W13769  31.116  16.830   0.394
46987W        W13770  27.737  19.696  11.961
46988W        W13771  41.878   0.383  11.888
46989W        W13772  18.322  38.778   4.272
46990W        W13773   3.249  30.948  10.679
46991W        W13774  31.376  16.440   3.645
46992W        W13775  32.514  33.028  11.765
46993W        W13776  30.830  40.350  10.648
46994W        W13777   0.111   5.268   4.528
46995W        W13778  10.631  42.614   2.730
46996W        W13779  40.080  27.700  12.290
46997W        W13780  30.954  19.676   1.261
46998W        W13781  24.718  28.762  12.981
46999W        W13782  35.617  20.239   2.579
47000W        W13783  30.009  20.490  13.156
47001W        W13784  40.822   2.812  13.369
47002W        W13785  24.685  34.595   4.558
47003W        W13786  27.418  18.705   4.671
47004W        W13787   1.460  35.024  11.543
47005W        W13788  31.386  13.630   3.682
47006W        W13789  33.140   9.836   3.166
47007W        W13790  38.161   4.001  13.411
47008W        W13791  12.624   4.561   1.334
47009W        W13792   1.313  41.974  12.049
47010W        W13793  22.098  16.257  13.736
47011W        W13794  44.420  29.520  11.598
47012W        W13795  26.099   4.841  12.522
47013W        W13796  16.588   4.759   1.474
47014W        W13797  27.201  26.822  11.039
47015W        W13798  29.885   4.749  11.085
47016W        W13799  28.380  32.951   3.393
47017W        W13800  29.700  34.072   4.282
47018W        W13801   9.396   3.189   2.669
47019W        W13802  31.003  42.562   1.238
47020W        W13803   9.863  31.660   1.717
47021W        W13804  28.681  20.193   2.912
47022W        W13805  19.634  19.049   4.820
47023W        W13806  15.710  19.310  13.920
47024W        W13807  10.871  11.363   1.451
47025W        W13808  10.282  30.559   3.460
47026W        W13809  16.627  26.205  11.861
47027W        W13810   3.885   2.942  11.724
47028W        W13811  14.603  17.376   1.284
47029W        W13812  28.054   7.252   0.405
47030W        W13813  18.616  42.832   1.736
47031W        W13814  33.060  25.220  11.052
47032W        W13815  10.717  22.775  10.345
47033W        W13816  31.171   3.443  11.589
47034W        W13817  23.603  20.748   0.474
47035W        W13818  39.617  37.296  14.648
47036W        W13819  30.559  22.734   1.985
47037W        W13820  25.645  19.049  12.472
47038W        W13821  14.811   4.313  13.944
47039W        W13822   8.371  19.342  11.756
47040W        W13823  11.153   0.739  11.022
47041W        W13824  23.492  39.063  13.409
47042W        W13825  27.505  13.270  11.162
47043W        W13826   1.963  35.844  14.093
47044W        W13827  12.704  29.550   1.824
47045W        W13828  23.541  35.805  14.891
47046W        W13829  22.262   9.786   3.178
47047W        W13830  40.277  22.168   3.632
47048W        W13831  32.997  44.943  10.889
47049W        W13832  10.381  29.427   4.594
47050W        W13833  26.286  41.023  11.981
47051W        W13834  42.254   4.391  13.950
47052W        W13835  42.070  32.471   4.580
47053W        W13836   9.190   4.849   4.513
47054W        W13837   0.228  28.135  11.760
47055W        W13838  14.625  36.317  12.620
47056W        W13839  40.624  12.338   3.099
47057W        W13840  10.838   0.551  12.424
47058W        W13841  32.490  19.908  12.833
47059W        W13842  10.254   5.376  12.933
47060W        W13843   9.295  18.408  11.482
47061W        W13844  44.979   8.648   2.618
47062W        W13845  13.602   8.331  11.873
47063W        W13846  34.512  39.494   1.376
47064W        W13847  43.943  42.890  11.194
47065W        W13848  37.988   4.435   3.197
47066W        W13849  21.942  14.583   0.357
47067W        W13850  19.257  12.352   2.272
47068W        W13851   9.760   6.238   4.858
47069W        W13852  20.645  10.571  12.516
47070W        W13853   9.868  35.952  12.321
47071W        W13854  44.708   7.183   1.350
47072W        W13855   7.204  10.422   1.805
47073W        W13856  14.093  31.098   4.579
47074W        W13857  33.810  31.861   4.121
47075W        W13858   0.852  28.472  12.887
47076W        W13859   2.231   5.230   1.728
47077W        W13860  12.123  29.066  13.401
47078W        W13861  23.713  10.928   2.197
47079W        W13862  34.515  11.273   4.847
47080W        W13863   6.217  40.956   0.700
47081W        W13864   6.292  20.116   4.271
47082W        W13865  20.108  38.060  11.974
47083W        W13866   7.202   9.199  11.094
47084W        W13867   5.549  14.765   3.852
47085W        W13868  41.779  27.107   1.810
47086W        W13869  36.793  11.325  13.859
47087W        W13870  32.158  42.105  14.406
47088W        W13871  10.117  38.821   4.582
47089W        W13872  24.584  28.237   3.555
47090W        W13873   7.781  36.319  13.428
47091W        W13874  20.036  19.802  11.092
47092W        W13875  40.244   3.634  13.801
47093W        W13876  16.470  23.364   2.396
47094W        W13877  24.212  39.491  11.068
47095W        W13878   2.654  23.420   0.318
47096W        W13879  41.252   7.182   3.633
47097W        W13880  41.273  28.472  10.739
47098W        W13881  12.691  17.219  11.830
47099W        W13882  33.977   8.755  11.019
47100W        W13883  14.338  29.450  12.050
47101W        W13884  33.374  23.637   0.437
47102W        W13885   3.773   8.695  14.902
47103W        W13886  22.561  43.323   4.804
47104W        W13887  34.206   2.671  10.653
47105W        W13888  30.094  39.394   4.139
47106W        W13889  26.027  30.034  14.819
47107W        W13890   6.848  41.221   1.850
47108W        W13891  22.107  28.465   0.888
47109W        W13892   5.192  38.556   3.761
47110W        W13893  38.146  23.622   0.937
47111W        W13894  17.193  30.966   2.753
47112W        W13895   1.991   3.387  14.181
47113W        W13896  10.365  27.504   2.118
47114W        W13897  22.033  43.529   1.167
47115W        W13898  15.091  22.727   1.813
47116W        W13899  27.594  28.472   4.896
47117W        W13900  18.361  19.540   3.198
47118W        W13901  29.160   0.726  12.726
47119W        W13902   8.428   2.188  14.819
47120W        W13903  20.505  36.167   4.128
47121W        W13904   9.342   3.261   1.797
47122W        W13905  22.150  38.185   1.760
47123W        W13906   4.989  15.161  13.891
47124W        W13907   9.143  27.872   3.398
47125W        W13908  44.378   8.621  14.778
47126W        W13909  32.401   2.014   1.999
47127W        W13910  38.932  31.099  14.471
47128W        W13911  43.341   5.416   2.334
47129W        W13912  16.826  28.700   2.335
47130W        W13913  22.526  22.025   1.907
47131W        W13914  21.509  10.760   3.770
47132W        W13915  31.955  12.218   0.928
47133W        W13916  10.354  32.869  10.625
47134W        W13917  29.161  39.100   0.821
47135W        W13918  26.028  21.775   3.588
47136W        W13919  35.682  24.031  10.795
47137W        W13920  24.248  26.274   1.845
47138W        W13921  39.507  36.943  10.924
47139W        W13922  13.221  34.452  11.524
47140W        W13923  37.423  14.269  12.883
47141W        W13924  26.250  18.646  13.976
47142W        W13925  21.436  20.665  10.935
47143W        W13926   8.281  14.830   2.431
47144W        W13927   8.179  16.636   0.762
47145W        W13928   5.386   7.967  13.841
47146W        W13929  17.960  35.022   1.755
47147W        W13930  42.069  18.183  14.989
47148W        W13931   3.006  39.401   0.733
47149W        W13932  37.111  39.791  12.029
47150W        W13933  25.976  21.572   0.882
47151W        W13934  14.464  44.999   1.895
47152W        W13935  17.158  26.141   1.449
47153W        W13936  38.836  32.559  12.890
47154W        W13937  29.459  38.806  12.958
47155W        W13938  41.627  12.597   3.133
47156W        W13939  39.986  30.259  11.602
47157W        W13940  43.864  39.281   1.301
47158W        W13941  35.111   8.720   3.013
47159W        W13942  31.894  11.674  13.117
47160W        W13943   4.864  31.405   4.013
47161W        W13944  11.753  35.297  12.501
47162W        W13945  19.652  25.803  11.551
47163W        W13946  44.029   2.847   0.930
47164W        W13947   0.401  20.027  13.133
47165W        W13948  38.371   3.908  10.669
47166W        W13949   1.982  18.263  11.210
47167W        W13950  25.615  29.294   9.738
47168W        W13951  39.331  42.041   0.209
47169W        W13952  10.964  24.677  11.888
47170W        W13953  31.821  13.798   1.174
47171W        W13954  30.310   8.929   0.508
47172W        W13955   1.319   8.145   2.326
47173W        W13956  27.126  44.597  10.292
47174W        W13957  16.016   6.450   4.142
47175W        W13958  29.899  32.170  10.718
47176W        W13959  11.147   0.954  12.603
47177W        W13960   2.926   5.839  10.914
47178W        W13961  44.705   9.239   0.355
47179W        W13962  24.983  14.406  12.405
47180W        W13963   2.471  44.912  14.851
47181W        W13964  12.576  40.401  13.586
47182W        W13965  11.324  36.317  10.157
47183W        W13966  38.618  20.680  14.853
47184W        W13967  37.875   7.162   4.143
47185W        W13968   1.834  28.597   4.034
47186W        W13969   2.138  36.691  10.707
47187W        W13970  11.822  31.765   4.103
47188W        W13971  28.219  30.925  12.000
47189W        W13972  21.319  25.584   3.827
47190W        W13973  30.037  33.703  13.242
47191W        W13974   2.458  12.889  14.878
47192W        W13975  34.514  23.888   3.218
47193W        W13976   8.772  32.831   1.866
47194W        W13977  21.721  14.825  10.025
47195W        W13978  24.673   4.802  13.067
47196W        W13979  35.495  33.578   1.995
47197W        W13980  35.131  34.374   2.019
47198W        W13981  40.152   4.790   4.135
47199W        W13982  31.889  28.930  11.660
47200W        W13983   5.412  34.875   4.703
47201W        W13984   3.281  42.330  13.440
47202W        W13985  10.198  13.107   1.672
47203W        W13986  37.181  21.227  12.945
47204W        W13987  27.928   2.077  12.505
47205W        W13988   3.162   7.823  13.898
47206W        W13989   0.426  41.353  14.491
47207W        W13990   1.782  14.738   2.680
47208W        W13991  14.856  28.566  12.204
47209W        W13992  20.786  15.707   9.864
47210W        W13993  18.223  26.223  11.135
47211W        W13994   9.927  32.066  13.039
47212W        W13995  42.313  27.131  10.502
47213W        W13996   8.207   3.801   4.550
47214W        W13997  13.566   0.892  11.963
47215W        W13998  11.712  21.717  10.627
47216W        W13999  33.400   4.759   2.209
47217W        W14000  27.885  22.002  13.867
47218W        W14001  23.265  17.620   4.148
47219W        W14002   0.263  32.400   0.695
47220W        W14003  12.907  11.370   4.246
47221W        W14004   3.701   4.172  13.031
47222W        W14005  28.482  21.299  10.687
47223W        W14006  28.330  42.567   2.284
47224W        W14007   1.716   1.346  14.082
47225W        W14008  11.389   1.339   1.542
47226W        W14009  21.519  24.650  14.306
47227W        W14010  42.359  32.354   3.240
47228W        W14011  40.388  43.892  13.370
47229W        W14012  20.741  33.888   4.976
47230W        W14013   8.123  28.078  11.614
47231W        W14014  28.052  28.526  14.963
47232W        W14015  44.360  10.967  10.512
47233W        W14016  10.446  30.657   2.125
47234W        W14017  20.614  17.071   0.804
47235W        W14018  34.506   0.305  14.412
47236W        W14019  14.658  23.964   3.722
47237W        W14020   6.362   3.721   1.463
47238W        W14021  23.621  17.437  11.983
47239W        W14022  42.889  35.727   3.713
47240W        W14023  16.186  21.435  11.581
47241W        W14024  26.417   5.283  13.314
47242W        W14025   7.518  42.253   4.972
47243W        W14026  17.562  12.904  11.325
47244W        W14027  26.525  23.909  11.981
47245W        W14028  41.515  23.768  12.484
47246W        W14029  42.033  13.782  13.971
47247W        W14030   6.807   2.335  11.528
47248W        W14031  44.909   1.032  10.790
47249W        W14032  33.645  35.437   1.719
47250W        W14033  11.384  34.662  11.249
47251W        W14034  32.878  21.575  14.389
47252W        W14035   4.174  17.850  12.125
47253W        W14036   5.343  37.029   1.698
47254W        W14037   3.351  10.892  12.319
47255W        W14038  29.436  34.341   0.375
47256W        W14039  36.514  38.945  12.672
47257W        W14040  32.175  17.489  10.526
47258W        W14041  29.886  29.252  14.915
47259W        W14042   2.926  20.727  10.608
47260W        W14043   5.895  43.285   0.259
47261W        W14044   4.778  43.891   4.316
47262W        W14045  25.201  36.015   4.236
47263W        W14046  38.248  13.346  11.077
47264W        W14047   2.931   3.308  12.494
47265W        W14048  21.657   4.738   2.284
47266W        W14049  28.547  36.555  14.379
47267W        W14050  40.997  36.866  11.161
47268W        W14051  34.339  34.769  14.852
47269W        W14052   0.811   9.160   1.294
47270W        W14053  26.966  36.418  13.018
47271W        W14054  19.691  36.432   3.753
47272W        W14055   2.501  21.749   0.807
47273W        W14056  10.080   5.344   1.672
47274W        W14057  19.854  31.192   3.287
47275W        W14058   9.255  27.951  12.087
47276W        W14059  34.420  18.613   3.296
47277W        W14060  20.653  39.486  12.813
47278W        W14061  20.882  43.519  10.561
47279W        W14062  36.933   5.446  12.031
47280W        W14063  36.771  11.596  14.306
47281W        W14064  36.768  21.223  12.631
47282W        W14065  31.513  24.316  14.262
47283W        W14066   0.718  13.553   0.857
47284W        W14067  18.402  31.421   0.068
47285W        W14068   6.067   9.395   3.536
47286W        W14069  19.260  28.016   3.146
47287W        W14070  36.866  29.611  11.518
47288W        W14071  33.482  18.406   1.663
47289W        W14072  38.288  35.791  13.786
47290W        W14073  35.489  34.368  11.166
47291W        W14074  44.900  10.642  12.431
47292W        W14075  16.595  29.950  14.685
47293W        W14076  32.751  38.022   1.932
47294W        W14077  19.676  30.545   1.854
47295W        W14078   7.730  40.890   0.325
47296W        W14079   0.314  22.944  12.991
47297W        W14080   6.919  23.532   0.399
47298W        W14081  41.809  32.048  14.098
47299W        W14082   5.263  18.270  12.346
47300W        W14083  35.692  22.203  10.562
47301W        W14084  23.110  12.775   3.577
47302W        W14085  31.515  41.606   0.408
47303W        W14086  44.297   7.988  11.873
47304W        W14087   5.363  15.351  14.757
47305W        W14088  22.253  15.024  11.980
47306W        W14089  23.875   0.234  14.913
47307W        W14090   5.155  29.007  14.816
47308W        W14091   4.130  21.969  11.789
47309W        W14092   4.954  39.114   5.080
47310W        W14093   3.381  25.407  12.417
47311W        W14094   6.034  19.036  11.113
47312W        W14095  37.950   7.270  11.503
47313W        W14096  33.388   8.427  12.867
47314W        W14097   5.110   0.682  12.376
47315W        W14098  22.598   9.487  14.200
47316W        W14099  31.037  17.689   2.880
47317W        W14100  39.930   7.450   3.747
47318W        W14101   1.090  16.849   1.430
47319W        W14102  37.516  10.606  14.121
47320W        W14103  36.966  38.306  14.462
47321W        W14104   5.766  18.112   0.466
47322W        W14105  29.184  27.716  14.415
47323W        W14106  28.105  38.602   4.607
47324W        W14107  25.174   5.726   2.001
47325W        W14108  16.163  29.505   4.011
47326W        W14109  38.386  14.843   4.900
47327W        W14110  27.393  35.160  12.030
47328W        W14111  25.289  22.622  11.915
47329W        W14112  42.113  10.843   5.066
47330W        W14113  20.112  13.203  11.565
47331W        W14114  11.841  11.769   1.717
47332W        W14115  28.855  41.498  11.573
47333W        W14116  29.076   9.290   4.580
47334W        W14117   0.011  27.224   1.808
47335W        W14118   3.006  15.175  11.188
47336W        W14119  31.555  39.947  12.332
47337W        W14120  12.333  19.061  13.331
47338W        W14121  41.788  21.924   2.750
47339W        W14122  32.950  10.145  14.408
47340W        W14123   8.851  44.471   9.902
47341W        W14124  44.116   2.319  14.394
47342W        W14125  37.049  12.061   2.337
47343W        W14126   4.771  41.279  11.576
47344W        W14127  20.507   9.628   2.206
47345W        W14128  14.713   2.254  10.679
47346W        W14129  38.064  22.007   1.223
47347W        W14130   6.487   3.859  11.566
47348W        W14131  31.655  25.600   4.353
47349W        W14132  20.063  35.589  13.934
47350W        W14133   5.103  29.047   4.617
47351W        W14134  15.850  25.710  11.561
47352W        W14135  29.148  27.791   0.771
47353W        W14136  30.843  15.233  11.602
47354W        W14137   5.369  36.910   2.674
47355W        W14138   4.021  16.587  13.475
47356W        W14139  29.214  20.085   0.854
47357W        W14140  29.142  35.277  14.621
47358W        W14141  21.541   8.632  13.421
47359W        W14142   2.673   3.945   4.195
47360W        W14143   6.403  34.387  10.341
47361W        W14144  13.220  19.156   1.341
47362W        W14145  24.323  17.967   0.303
47363W        W14146  18.915   2.339  12.652
47364W        W14147  35.769  31.915  11.183
47365W        W14148   1.539   3.648   4.951
47366W        W14149   3.330  17.911   0.465
47367W        W14150  41.252   8.577   3.528
47368W        W14151   8.923  36.915   1.825
47369W        W14152  19.084  15.608  13.954
47370W        W14153   6.709   9.357   1.335
47371W        W14154  13.806  38.251   3.810
47372W        W14155  24.690  15.966  13.201
47373W        W14156  30.196  12.161  12.356
47374W        W14157  25.561  43.437   1.705
47375W        W14158   3.227  25.862  12.587
47376W        W14159   5.807  35.779   2.818
47377W        W14160  43.559  37.186   4.969
47378W        W14161  39.819  25.690  11.520
47379W        W14162  32.140   9.362   4.052
47380W        W14163  19.992  31.469  13.367
47381W        W14164  40.299  19.121  11.557
47382W        W14165   2.667  40.006  13.457
47383W        W14166   1.421  18.751  11.807
47384W        W14167  10.199  12.313  12.564
47385W        W14168  25.942  37.813  12.624
47386W        W14169  39.780   9.316   0.712
47387W        W14170  37.077   0.495   1.314
47388W        W14171  35.542  14.568  10.702
47389W        W14172  38.257  13.665   2.190
47390W        W14173  13.222  22.429   3.193
47391W        W14174  25.739  27.113   2.238
47392W        W14175   8.362  32.267  10.974
47393W        W14176  36.028  20.707  13.158
47394W        W14177  41.956  35.756   3.619
47395W        W14178   2.460  42.281   2.719
47396W        W14179  24.908  18.644   4.186
47397W        W14180  44.161  33.589   1.770
47398W        W14181  33.863  29.632   4.288
47399W        W14182  10.646  29.735   2.967
47400W        W14183   7.446  10.864  14.923
47401W        W14184   3.687  16.202  11.900
47402W        W14185  12.842  29.347  11.585
47403W        W14186   9.745  18.287  14.164
47404W        W14187   2.657  40.279   0.634
47405W        W14188  10.779  19.017  10.709
47406W        W14189  24.813  22.544  12.994
47407W        W14190  33.002  38.367  13.306
47408W        W14191  32.636  24.992  12.981
47409W        W14192  22.991   7.242  14.133
47410W        W14193  29.432  41.421   2.636
47411W        W14194  14.078  37.163  13.034
47412W        W14195  24.612  28.038   0.799
47413W        W14196  15.149  12.869   1.410
47414W        W14197  10.076   9.950   3.994
47415W        W14198   8.670  20.240   0.289
47416W        W14199  22.718  31.542   3.107
47417W        W14200  28.954  33.991   3.688
47418W        W14201  25.094  10.888  11.026
47419W        W14202  38.251   4.020   1.974
47420W        W14203  26.191  27.993   2.730
47421W        W14204   9.699  37.719   3.225
47422W        W14205  11.215  38.137   2.088
47423W        W14206   5.944  14.595   1.829
47424W        W14207  43.530   1.920  12.260
47425W        W14208  14.348  30.624   4.598
47426W        W14209  36.841  32.023   4.369
47427W        W14210   4.334  44.108  11.067
47428W        W14211  43.598   8.606   3.595
47429W        W14212  37.557  18.090  11.177
47430W        W14213  40.304  36.750  14.070
47431W        W14214  42.606  28.056   3.671
47432W        W14215  18.962  26.413   0.348
47433W        W14216  31.104   3.716   0.212
47434W        W14217   8.669  38.389   3.690
47435W        W14218  42.784  34.833   3.650
47436W        W14219  26.976  15.577   9.953
47437W        W14220  43.733  10.737   1.062
47438W        W14221  21.977  36.550   0.335
47439W        W14222  20.449  39.582  14.137
47440W        W14223  26.679   8.784  10.658
47441W        W14224  42.308   9.261   1.908
47442W        W14225  28.904   1.033  13.074
47443W        W14226  32.396  18.046   1.396
47444W        W14227  43.905  17.165  13.791
47445W        W14228  28.593   4.189  14.378
47446W        W14229   1.709  33.426   4.601
47447W        W14230  35.164  44.592   0.009
47448W        W14231  36.896  35.038   2.767
47449W        W14232  15.503   8.722  10.708
47450W        W14233  24.353   0.451  14.844
47451W        W14234  10.347   5.920   0.474
47452W        W14235  29.599  23.505   2.654
47453W        W14236  18.807  16.819  13.912
47454W        W14237  40.327  15.788   3.728
47455W        W14238  30.503  27.732  11.117
47456W        W14239  15.290  40.390  10.577
47457W        W14240  19.673   6.894  10.747
47458W        W14241   4.229  24.033   4.805
47459W        W14242  32.243  44.373  13.002
47460W        W14243  28.927   9.679  11.947
47461W        W14244  32.664  34.180  13.932
47462W        W14245   9.150  13.742  12.467
47463W        W14246  21.557  16.363  10.194
47464W        W14247  21.686  39.117   3.850
47465W        W14248   3.252  11.920  14.019
47466W        W14249  38.308   8.790   0.975
47467W        W14250  13.383   9.359   1.840
47468W        W14251  34.563   4.245   2.405
47469W        W14252   1.854   2.437  10.493
47470W        W14253  34.950   5.851   3.178
47471W        W14254  23.435   9.134  11.232
47472W        W14255  30.938  21.121   4.616
47473W        W14256  21.213  44.164   2.709
47474W        W14257  19.576  12.706  11.540
47475W        W14258   2.280  27.503   1.923
47476W        W14259  35.856  32.564   2.609
47477W        W14260   3.329   2.687  10.592
47478W        W14261  36.755  16.467   0.879
47479W        W14262  38.072  27.035  13.054
47480W        W14263  43.899   2.628   3.593
47481W        W14264  38.945  34.887  14.980
47482W        W14265  37.118  40.572   4.538
47483W        W14266   3.005  15.523   3.571
47484W        W14267  28.226  28.774   1.959
47485W        W14268  26.241  26.152  11.564
47486W        W14269  39.022  23.105  11.866
47487W        W14270   4.021   4.336   0.154
47488W        W14271  38.905  42.485  10.674
47489W        W14272  20.886  34.400  12.515
47490W        W14273  28.473  19.611   3.685
47491W        W14274  21.885   6.783   5.051
47492W        W14275   9.125  32.592   4.721
47493W        W14276   1.414  25.949  10.944
47494W        W14277  19.156  13.248  10.902
47495W        W14278  30.170  21.737   2.548
47496W        W14279  20.328   8.348  12.056
47497W        W14280  17.557   3.729  13.139
47498W        W14281  19.009   0.285  12.200
47499W        W14282  33.036   2.725  12.978
47500W        W14283  18.206  25.129  13.787
47501W        W14284  28.136  18.408  12.600
47502W        W14285   6.187   8.440   3.325
47503W        W14286  27.518  13.800  11.256
47504W        W14287  39.940  12.860  13.404
47505W        W14288   0.022  32.025  10.370
47506W        W14289  26.691  21.056  11.059
47507W        W14290   3.810  30.501   3.700
47508W        W14291  36.600  29.716  12.882
47509W        W14292  17.893   7.292   4.598
47510W        W14293   5.271  44.891   3.710
47511W        W14294  21.105  39.078  13.980
47512W        W14295  42.851  40.261   1.295
47513W        W14296  30.859  17.728   3.397
47514W        W14297   6.485  24.936   3.677
47515W        W14298  31.469  10.650  13.766
47516W        W14299  12.655  29.151   3.832
47517W        W14300   4.878   0.971   2.234
47518W        W14301   1.051  22.498   4.615
47519W        W14302  44.723  20.343   1.463
47520W        W14303  14.369   7.742  10.931
47521W        W14304   3.505  21.911  14.857
47522W        W14305  34.116  36.644  13.345
47523W        W14306  24.806  38.960  13.116
47524W        W14307   9.013  37.818   5.090
47525W        W14308  29.715  43.405  13.936
47526W        W14309  38.258   8.320  12.163
47527W        W14310  31.234  12.762   4.162
47528W        W14311  13.301  34.462   1.326
47529W        W14312  22.519  33.602  11.541
47530W        W14313  41.904  10.400   3.915
47531W        W14314  34.813  25.917   3.268
47532W        W14315   8.232  39.434   1.720
47533W        W14316  29.485  30.428  12.512
47534W        W14317  29.820   4.238  11.056
47535W        W14318  12.522  20.425  13.500
47536W        W14319  37.317  32.986  11.964
47537W        W14320   8.016  14.343  14.552
47538W        W14321  11.770  22.298   2.396
47539W        W14322   6.354  15.001  14.950
47540W        W14323  32.333  16.588   1.025
47541W        W14324  44.074  36.132   0.859
47542W        W14325  27.606   9.205  11.894
47543W        W14326  26.185  43.562   0.909
47544W        W14327   2.406  16.988  14.909
47545W        W14328  37.885  44.000   2.492
47546W        W14329  41.420  20.517   0.441
47547W        W14330   9.648  44.074  14.934
47548W        W14331  21.249  20.842   5.194
47549W        W14332  37.293  37.075  11.519
47550W        W14333   9.068  18.185   3.932
47551W        W14334   6.354  26.912  12.331
47552W        W14335   4.836  16.015   1.684
47553W        W14336  11.047  15.382  10.596
47554W        W14337  42.055   2.020  13.042
47555W        W14338   5.762  33.452  11.582
47556W        W14339  31.009  33.840   4.259
47557W        W14340  16.163  38.599  14.817
47558W        W14341  22.133  26.921  14.440
47559W        W14342  31.099  12.794  10.700
47560W        W14343  11.430  24.518  12.090
47561W        W14344   3.761  37.309  10.704
47562W        W14345   0.558   8.598   4.060
47563W        W14346   8.620  34.027  14.250
47564W        W14347  35.556  33.395  12.020
47565W        W14348   2.858  23.215  14.781
47566W        W14349  15.195  22.008   0.885
47567W        W14350  42.743   7.403   3.626
47568W        W14351  13.369  16.042   0.798
47569W        W14352  11.505  25.726  11.360
47570W        W14353  32.526  20.203   2.308
47571W        W14354  24.289   7.819  13.139
47572W        W14355  19.973   4.720  13.459
47573W        W14356  27.108  15.823   3.414
47574W        W14357   0.758   1.724  10.075
47575W        W14358  35.967  15.301  10.422
47576W        W14359  25.893  36.083  14.929
47577W        W14360   0.355  37.928  12.693
47578W        W14361  25.181  38.948   3.067
47579W        W14362  42.256   2.027  13.928
47580W        W14363  41.958  39.027  10.643
47581W        W14364  15.846   3.750  12.929
47582W        W14365  34.157  14.275  11.341
47583W        W14366  20.340   4.424   2.726
47584W        W14367  15.347   8.158  14.046
47585W        W14368  23.717   4.629  14.782
47586W        W14369  14.231   9.841  14.367
47587W        W14370   2.086  37.586  14.755
47588W        W14371  37.642  41.363  11.510
47589W        W14372  14.209   4.532   3.809
47590W        W14373  23.599  20.483   0.915
47591W        W14374  30.057  25.291  13.520
47592W        W14375  34.869   7.628  12.178
47593W        W14376   6.970  33.599  10.606
47594W        W14377  30.914  30.989  13.719
47595W        W14378  27.705  25.975   4.734
47596W        W14379  33.539  19.615   2.682
47597W        W14380  23.958  12.054   4.604
47598W        W14381   4.561   7.606   5.103
47599W        W14382   2.327  15.305   2.118
47600W        W14383  35.433  20.885  13.304
47601W        W14384   0.817  42.684   0.178
47602W        W14385  44.211  13.761   1.914
47603W        W14386   2.803  13.198   1.918
47604W        W14387  19.076   6.369   1.051
47605W        W14388  10.361  10.056   1.332
47606W        W14389   2.219   7.207  12.456
47607W        W14390  11.645  35.801   2.121
47608W        W14391  13.726  29.265   4.737
47609W        W14392  35.609  37.594  10.630
47610W        W14393   5.459  21.682  13.527
47611W        W14394   7.771   0.778   3.361
47612W        W14395  32.863  21.153  14.906
47613W        W14396  42.297  24.525   2.307
47614W        W14397  10.400  44.831   3.024
47615W        W14398  29.587   6.964  14.337
47616W        W14399  13.845  42.542  12.004
47617W        W14400  16.942  25.633  13.927
47618W        W14401  29.520  30.676  14.789
47619W        W14402  42.040  13.415  14.425
47620W        W14403   3.707  24.114  14.091
47621W        W14404  15.028  31.651   2.335
47622W        W14405   7.391   5.591   1.855
47623W        W14406   2.949  16.582  14.340
47624W        W14407   7.191   2.418   2.198
47625W        W14408  23.068  16.277   0.059
47626W        W14409  23.303  30.482  14.042
47627W        W14410  31.715  15.272   4.862
47628W        W14411  13.094  43.784   3.865
47629W        W14412  37.359  13.563  11.182
47630W        W14413  24.990  38.619   4.551
47631W        W14414   0.816  14.092  14.943
47632W        W14415   6.313  12.746  11.692
47633W        W14416  42.391  17.266   3.875
47634W        W14417  19.003  44.356   3.213
47635W        W14418   2.387  11.245  10.689
47636W        W14419  23.820  38.025  11.993
47637W        W14420  34.425  17.661  13.760
47638W        W14421  11.149  29.943   1.361
47639W        W14422  36.497  33.984   0.441
47640W        W14423  42.817  44.021  12.982
47641W        W14424  22.740  36.423   3.618
47642W        W14425  44.381  23.457  14.341
47643W        W14426   2.671  20.188   1.611
47644W        W14427  23.644  42.219  12.782
47645W        W14428  22.745  15.674  11.443
47646W        W14429  41.885  35.649  11.198
47647W        W14430  32.371   8.351   0.710
47648W        W14431   4.376  32.854  14.809
47649W        W14432  21.134  13.419  12.450
47650W        W14433  14.347  22.120  10.804
47651W        W14434   1.898  37.131  11.982
47652W        W14435  37.441   7.792   1.869
47653W        W14436  25.969  11.568  11.899
47654W        W14437  24.719   0.225   0.345
47655W        W14438  22.697  19.518  12.050
47656W        W14439  17.641  39.910   0.992
47657W        W14440  14.352  15.643   1.586
47658W        W14441  29.495  21.748  10.708
47659W        W14442  43.069  36.039  11.565
47660W        W14443  34.621  39.368   3.275
47661W        W14444  43.290  18.659  12.406
47662W        W14445  19.679  21.279   2.146
47663W        W14446  32.327   0.005  14.763
47664W        W14447  44.854  14.924  11.432
47665W        W14448   7.622  21.453   4.238
47666W        W14449   1.755  25.088   1.303
47667W        W14450  23.111   3.275  13.420
47668W        W14451   0.571  28.464  13.508
47669W        W14452  31.566  37.982   4.549
47670W        W14453  30.133  42.939  11.036
47671W        W14454   5.044  19.275  11.217
47672W        W14455  16.344   8.699  11.046
47673W        W14456   3.223  37.815   3.155
47674W        W14457   0.513  41.088  13.323
47675W        W14458  35.491  12.176  14.485
47676W        W14459  18.433  31.550   3.291
47677W        W14460   6.568   3.935   2.295
47678W        W14461  41.138  31.094  11.641
47679W        W14462   0.443  42.793   2.251
47680W        W14463  34.953  24.651   4.642
47681W        W14464  23.576  32.559  12.461
47682W        W14465  29.742   5.229  11.601
47683W        W14466   3.199  16.118  14.262
47684W        W14467  32.572  22.020   1.250
47685W        W14468  43.667  14.955   2.195
47686W        W14469   9.263  22.981   2.095
47687W        W14470  41.904  37.164   3.159
47688W        W14471  13.142  10.520   3.280
47689W        W14472  16.099  12.383  14.326
47690W        W14473   1.914  17.023   2.189
47691W        W14474   8.883  15.124   0.397
47692W        W14475  19.288  18.789  13.093
47693W        W14476  20.576  38.782  13.814
47694W        W14477   5.176  14.972   4.219
47695W        W14478  42.779  32.487  13.323
47696W        W14479  42.771  42.448  14.893
47697W        W14480  42.722  19.260   0.077
47698W        W14481  23.257  32.670   3.635
47699W        W14482   2.349  18.357   4.261
47700W        W14483  17.777  33.677   0.032
47701W        W14484   5.494   3.371  13.877
47702W        W14485  23.066   6.266  13.500
47703W        W14486   0.369   1.570   2.799
47704W        W14487  20.687  32.819   3.221
47705W        W14488  37.513  10.610   4.872
47706W        W14489  23.806  17.092   0.254
47707W        W14490  23.592  35.314  12.686
47708W        W14491   6.819  39.536   2.808
47709W        W14492  23.908  16.068  10.652
47710W        W14493  24.032  18.962   1.417
47711W        W14494  18.186  30.116  10.315
47712W        W14495  36.338  29.580   1.699
47713W        W14496  32.998  14.916   0.294
47714W        W14497  13.716  27.333  12.885
47715W        W14498  16.111  16.278  14.260
47716W        W14499  30.420  30.655  13.877
47717W        W14500  36.516  20.738  10.952
47718W        W14501  18.261   4.611  13.868
47719W        W14502  44.489  26.134  12.508
47720W        W14503  16.070  40.881   1.315
47721W        W14504  18.416  29.868   3.688
47722W        W14505  24.059   0.331   3.949
47723W        W14506   6.015  23.071   3.238
47724W        W14507  35.760  33.082   0.897
47725W        W14508  26.407  18.181  13.824
47726W        W14509  18.349   8.335  11.959
47727W        W14510  38.432   4.183   0.694
47728W        W14511  41.145  44.734   2.288
47729W        W14512  36.994   9.185  14.357
47730W        W14513   9.206  11.266   3.379
47731W        W14514   0.696  11.782  12.845
47732W        W14515  35.360  27.648   3.633
47733W        W14516  27.802  43.042  12.578
47734W        W14517  16.019  11.098   1.819
47735W        W14518  40.831  43.040   1.261
47736W        W14519  29.542   1.232  10.702
47737W        W14520  12.152  44.332  14.076
47738W        W14521   1.050   2.814   0.241
47739W        W14522  37.274  25.469  13.333
47740W        W14523  37.954  35.887   1.896
47741W        W14524  42.398  39.970   4.661
47742W        W14525  17.051  32.114   3.243
47743W        W14526  19.751  29.331  13.308
47744W        W14527   9.639  29.231   1.313
47745W        W14528   0.809  14.620  10.778
47746W        W14529   3.989   4.868   0.890
47747W        W14530  14.743   4.688  11.969
47748W        W14531   1.024  10.383  13.054
47749W        W14532  23.710  38.144  12.919
47750W        W14533   0.041  27.535  12.555
47751W        W14534  25.081  28.902   3.252
47752W        W14535   3.947  40.451   0.304
47753W        W14536  40.800  13.568  14.452
47754W        W14537   4.831  29.316   0.214
47755W        W14538  30.540   9.409   0.383
47756W        W14539  17.031  40.503  13.809
47757W        W14540  26.027  37.034  11.668
47758W        W14541  26.768  10.465  13.411
47759W        W14542  44.720  15.809  13.480
47760W        W14543  27.213  26.506  10.596
47761W        W14544  11.230  29.932   4.913
47762W        W14545   6.695   3.660  13.846
47763W        W14546  14.200  32.182  11.953
47764W        W14547   5.674   1.136  13.634
47765W        W14548  15.139  10.332  11.046
47766W        W14549  12.006  34.279   2.846
47767W        W14550   8.435  43.779   3.858
47768W        W14551   7.148  13.670  13.376
47769W        W14552   8.163  39.989  13.545
47770W        W14553  44.948  20.520  11.022
47771W        W14554  44.015   9.406   4.927
47772W        W14555  19.159  31.980  11.354
47773W        W14556  18.559   1.292   1.711
47774W        W14557  37.015  29.406  11.081
47775W        W14558  18.091   5.794   0.015
47776W        W14559  29.535   2.546  11.173
47777W        W14560  18.196  27.614  10.741
47778W        W14561  24.466   3.182   1.005
47779W        W14562  33.829   2.902   4.001
47780W        W14563   3.324  39.744  13.355
47781W        W14564  12.071  14.658  10.607
47782W        W14565  22.391  42.826   4.662
47783W        W14566  37.306  13.697  12.488
47784W        W14567   5.554  20.248   4.480
47785W        W14568  36.394   1.889   1.970
47786W        W14569  12.382  17.174  12.256
47787W        W14570  23.419  40.531   0.624
47788W        W14571  11.677   3.402   3.855
47789W        W14572   0.153  25.423  11.454
47790W        W14573  21.704  24.436  12.618
47791W        W14574   5.718  16.727   1.695
47792W        W14575  33.616   2.863  12.318
47793W        W14576  18.584  17.319   1.343
47794W        W14577  21.470  17.844  11.169
47795W        W14578   8.811  26.545  12.375
47796W        W14579  22.601   7.118   2.939
47797W        W14580  11.023  27.493  13.124
47798W        W14581  24.631   3.284   3.692
47799W        W14582  44.615   2.753  12.398
47800W        W14583  39.324  12.057  12.577
47801W        W14584  17.502  17.041  13.123
47802W        W14585  23.169  33.372   4.337
47803W        W14586  11.336  30.514  14.399
47804W        W14587   8.622  23.460  13.510
47805W        W14588  28.570  25.156  14.792
47806W        W14589  14.931   5.039  13.091
47807W        W14590  13.780  40.070  11.136
47808W        W14591   2.952  44.699  12.545
47809W        W14592  39.987   3.062   2.487
47810W        W14593  16.058  34.421   0.238
47811W        W14594  12.533  10.613   0.744
47812W        W14595  40.809   8.276   0.254
47813W        W14596   7.958  11.033   2.374
47814W        W14597  10.334  10.078  13.560
47815W        W14598  10.324  38.590   4.164
47816W        W14599  34.753   3.893   1.719
47817W        W14600  29.675   5.896   2.990
47818W        W14601  29.060  24.406   1.878
47819W        W14602  10.505  14.633  12.539
47820W        W14603  38.855  36.344   1.931
47821W        W14604  41.566  18.743   2.373
47822W        W14605  29.000  19.171   4.647
47823W        W14606  37.436  37.072  10.994
47824W        W14607  24.926   7.245   1.361
47825W        W14608  30.846   3.504  10.887
47826W        W14609  38.455  31.895   2.281
47827W        W14610   2.007   5.158   3.229
47828W        W14611   9.358  38.135   3.231
47829W        W14612   3.486  34.498   2.366
47830W        W14613  30.716  34.949   5.135
47831W        W14614   6.854  40.934  13.681
47832W        W14615  11.870  44.663  12.388
47833W        W14616  23.412  11.130   4.405
47834W        W14617  38.529  24.213  12.860
47835W        W14618  28.515  34.121  14.319
47836W        W14619  32.756  31.635  11.080
47837W        W14620  21.385  41.260   2.909
47838W        W14621  27.280  13.603   1.872
47839W        W14622  44.366  39.003   2.781
47840W        W14623  39.280   4.175   0.850
47841W        W14624  40.325  17.668   2.384
47842W        W14625  18.747   9.661  10.696
47843W        W14626  24.813   4.538  14.915
47844W        W14627  33.452  36.987   0.386
47845W        W14628  40.544   8.741   4.235
47846W        W14629  15.234  28.523  13.715
47847W        W14630  35.102  20.806   0.272
47848W        W14631  44.289  36.359  13.406
47849W        W14632   6.597  11.817   4.761
47850W        W14633  17.681  18.626   2.812
47851W        W14634  14.589   0.383  10.642
47852W        W14635  13.522  41.459   0.849
47853W        W14636  27.031  30.404   0.826
47854W        W14637  30.542  32.972   0.556
47855W        W14638  26.999  42.584  10.122
47856W        W14639  39.344   8.200   4.066
47857W        W14640   4.640  22.712   2.343
47858W        W14641  37.994   1.012   3.782
47859W        W14642  17.578  23.454   1.706
47860W        W14643  43.326  43.097   1.317
47861W        W14644  18.677  38.531   1.196
47862W        W14645   1.941  21.474  13.974
47863W        W14646  32.393  25.059   2.645
47864W        W14647  25.759  17.572  12.112
47865W        W14648  30.187   9.137   4.175
47866W        W14649  42.379  22.024   1.286
47867W        W14650  13.578  36.162   3.359
47868W        W14651  28.813  15.130   1.292
47869W        W14652  22.097   1.534  10.195
47870W        W14653  11.145  43.932   3.689
47871W        W14654   1.089  34.876  13.324
47872W        W14655  39.891  30.323  12.657
47873W        W14656   3.453  11.185   3.118
47874W        W14657  24.618  30.125   0.089
47875W        W14658  21.362  16.698   3.843
47876W        W14659  36.078  20.670   1.492
47877W        W14660   9.747  22.124   4.097
47878W        W14661  16.061   8.567  13.227
47879W        W14662  19.934  43.472   1.956
47880W        W14663  20.267  19.287   0.983
47881W        W14664  20.642  44.018  12.785
47882W        W14665  17.080  37.385  11.444
47883W        W14666  33.564  20.448   3.280
47884W        W14667  39.411  21.568  11.150
47885W        W14668  20.676   5.935   4.603
47886W        W14669   2.753  44.899  13.015
47887W        W14670  14.651  35.616   2.466
47888W        W14671  30.140   3.508   0.394
47889W        W14672  32.357  22.955   2.709
47890W        W14673  28.077   5.231   3.664
47891W        W14674  37.808  16.211   3.967
47892W        W14675  21.521  39.860  13.260
47893W        W14676  22.487  42.291   3.572
47894W        W14677  36.301  29.433   0.813
47895W        W14678   4.011  39.999  12.552
47896W        W14679  39.444  32.160   0.010
47897W        W14680  21.667  44.360   3.170
47898W        W14681  29.521  38.443  12.332
47899W        W14682   0.599   2.844   3.190
47900W        W14683  14.620  38.067  11.366
47901W        W14684  34.534  31.134  12.817
47902W        W14685  11.791  34.837   4.575
47903W        W14686  22.572  15.194  11.443
47904W        W14687  44.123   6.415  11.999
47905W        W14688  16.055  25.232  11.469
47906W        W14689  12.245  13.125  10.451
47907W        W14690  13.198  14.726   1.646
47908W        W14691  15.479   8.549   1.964
47909W        W14692  36.327  10.671   2.266
47910W        W14693  34.038   2.283  11.688
47911W        W14694  38.830  37.445   0.861
47912W        W14695  17.277  33.518  14.741
47913W        W14696  40.950  32.556   1.339
47914W        W14697  43.015  36.885   0.213
47915W        W14698   2.572  26.809  11.233
47916W        W14699  27.091  39.976   3.170
47917W        W14700  14.009  30.046  14.556
47918W        W14701  15.227  27.659  10.650
47919W        W14702  34.973  18.800   4.568
47920W        W14703  35.493   8.302   0.867
47921W        W14704  35.059  42.921  13.797
47922W        W14705  33.908  11.574   1.847
47923W        W14706  13.284   1.729  12.403
47924W        W14707   6.892   0.043   0.263
47925W        W14708  38.542   5.278   3.304
47926W        W14709  28.424  41.972   3.535
47927W        W14710  19.750   7.956   1.718
47928W        W14711  10.288  38.823  13.365
47929W        W14712   0.929  16.444  14.237
47930W        W14713   0.975   1.729   0.937
47931W        W14714  21.931  39.432  14.919
47932W        W14715   3.735  24.256   1.433
47933W        W14716  33.303  41.987   0.105
47934W        W14717  15.562   5.424   0.842
47935W        W14718  11.030  22.229   0.940
47936W        W14719  36.147  43.834  11.874
47937W        W14720   9.396  12.217   3.368
47938W        W14721  14.067  30.419   4.212
47939W        W14722   3.642   2.734   4.117
47940W        W14723  26.552  35.811   0.241
47941W        W14724  40.492   4.826  13.005
47942W        W14725  34.767  35.473   0.524
47943W        W14726  23.111  19.708   2.314
47944W        W14727  32.582  16.627  10.316
47945W        W14728  11.246  23.908   0.293
47946W        W14729  38.888  37.127  11.596
47947W        W14730   8.713  13.422   4.571
47948W        W14731  25.577  43.880  12.970
47949W        W14732  30.418  26.989   0.219
47950W        W14733  10.246   9.759  11.246
47951W        W14734  14.684  18.841  13.337
47952W        W14735  16.255   2.538   3.267
47953W        W14736  12.557   1.448   0.783
47954W        W14737  17.107  13.988  12.095
47955W        W14738   2.447  41.292  13.339
47956W        W14739  34.073  43.089  11.536
47957W        W14740  26.580   6.778  13.399
47958W        W14741   4.679  17.051  11.765
47959W        W14742  27.544  16.844   2.291
47960W        W14743   6.389  25.469   1.810
47961W        W14744  35.577  37.552  14.339
47962W        W14745  34.222  41.894   2.298
47963W        W14746  21.738  36.603  13.528
47964W        W14747  20.451  17.592   3.896
47965W        W14748   3.827   8.026   3.834
47966W        W14749  42.301  34.320  11.307
47967W        W14750  15.656  35.445  11.560
47968W        W14751   1.818  37.075  10.567
47969W        W14752   3.487   2.517  12.856
47970W        W14753  42.374  37.582   1.329
47971W        W14754   6.072  28.484  13.094
47972W        W14755  39.396  37.803   0.798
47973W        W14756  20.541   5.746  14.834
47974W        W14757  28.877  38.162   0.063
47975W        W14758  38.529  19.419  12.634
47976W        W14759  12.665  37.484   1.165
47977W        W14760  11.171  41.538  13.511
47978W        W14761  44.673   0.425   4.488
47979W        W14762   6.450   4.304  13.876
47980W        W14763  25.895  22.476   4.208
47981W        W14764  30.828   8.808  12.611
47982W        W14765  18.504  34.138  13.939
47983W        W14766   5.849  20.600  12.054
47984W        W14767  34.001   3.043  13.068
47985W        W14768  44.745  28.111   4.616
47986W        W14769  11.823  40.607   2.177
47987W        W14770  19.074  11.391   0.702
47988W        W14771  38.890  13.655  13.285
47989W        W14772  40.746  20.295  10.674
47990W        W14773   7.418  26.734   2.094
47991W        W14774  40.997  38.347  13.438
47992W        W14775  27.039  32.954  12.090
47993W        W14776  30.947  39.292   1.792
47994W        W14777  34.490   0.280   3.726
47995W        W14778  31.104  12.771   1.645
47996W        W14779  36.927  13.901   1.878
47997W        W14780  31.409  44.982   3.607
47998W        W14781  44.186  39.089   2.235
47999W        W14782  43.193  10.738   1.867
48000W        W14783  40.496  11.114  13.269
48001W        W14784  15.653  20.684  11.119
48002W        W14785  34.678  41.888   1.449
48003W        W14786  31.629  30.065   4.251
48004W        W14787  17.691  19.183  14.281
48005W        W14788   0.958  29.738   1.813
48006W        W14789   7.158  11.319   3.320
48007W        W14790  40.550  18.504   0.732
48008W        W14791  28.950   9.810   0.254
48009W        W14792  19.697   3.670   4.310
48010W        W14793  20.979   0.464   0.212
48011W        W14794   2.399  35.510   0.161
48012W        W14795  22.163  38.493  12.082
48013W        W14796  33.990  23.990   0.510
48014W        W14797  32.192   8.765  11.139
48015W        W14798  29.353  31.431   4.361
48016W        W14799  18.668  41.899   4.842
48017W        W14800  14.629   9.398   4.976
48018W        W14801  37.746   3.914   3.304
48019W        W14802  17.687   1.655  10.447
48020W        W14803  30.858   9.723   4.549
48021W        W14804   4.736  31.967  14.276
48022W        W14805  21.538  16.106   1.870
48023W        W14806  29.451  35.135  13.574
48024W        W14807   4.717   3.801  14.177
48025W        W14808  17.259  16.750   0.829
48026W        W14809  13.520  15.305  13.571
48027W        W14810  28.059  39.261  13.111
48028W        W14811  14.571   6.944  10.732
48029W        W14812   6.470  23.571  10.673
48030W        W14813  43.637  12.714  10.662
48031W        W14814  41.039  35.568   2.185
48032W        W14815   0.963  43.375   1.775
48033W        W14816  44.214  12.240  10.917
48034W        W14817  10.483  36.597  14.078
48035W        W14818   9.082  31.856  12.040
48036W        W14819  42.732   2.636   0.920
48037W        W14820  15.839  29.341  11.230
48038W        W14821   1.292   6.367  13.532
48039W        W14822  10.628  29.662  12.862
48040W        W14823  10.476  23.792  14.667
48041W        W14824  11.364  17.283  10.130
48042W        W14825  37.404   3.918   4.611
48043W        W14826  34.581  42.870  11.691
48044W        W14827   4.796  25.244  10.738
48045W        W14828  14.181  13.671   0.378
48046W        W14829  23.616  22.281  11.546
48047W        W14830   6.954   6.652  13.870
48048W        W14831  43.392  27.424   3.924
48049W        W14832   8.366  13.069  13.201
48050W        W14833  11.779  37.396  12.430
48051W        W14834  32.156  24.232  10.594
48052W        W14835   9.712  26.572   2.932
48053W        W14836   1.505  29.628   2.785
48054W        W14837  17.792  26.665   0.986
48055W        W14838  20.938  13.713   1.685
48056W        W14839  13.811  15.132   1.111
48057W        W14840  17.300  29.680   0.497
48058W        W14841   7.385  13.637  12.915
48059W        W14842  30.162   6.770  13.166
48060W        W14843  16.069  17.882   0.420
48061W        W14844   7.266  36.641  14.809
48062W        W14845   2.130  24.217   2.219
48063W        W14846  30.055  30.582   0.641
48064W        W14847  29.143   1.996  13.451
48065W        W14848   5.204  33.542  13.334
48066W        W14849  37.918  29.157   3.606
48067W        W14850   9.697  38.058   1.840
48068W        W14851  12.639  10.045   1.822
48069W        W14852   0.620  38.978   5.148
48070W        W14853  29.096  29.365  12.990
48071W        W14854   0.267  10.319  14.435
48072W        W14855  37.618  36.247   0.743
48073W        W14856   7.037  14.258  14.354
48074W        W14857  21.277  31.635   0.346
48075W        W14858  14.112   5.383   1.713
48076W        W14859  44.396  40.106  11.018
48077W        W14860  18.856   8.344   1.673
48078W        W14861  42.917  34.035   3.077
48079W        W14862  18.621   1.236   3.172
48080W        W14863   9.154  17.755   1.260
48081W        W14864   6.735   6.231   3.798
48082W        W14865  23.026  27.079  12.932
48083W        W14866   8.848  13.493   3.323
48084W        W14867  33.393  41.974  11.934
48085W        W14868  19.046  29.101   4.251
48086W        W14869   7.270  21.800   3.826
48087W        W14870  20.166  29.063   3.633
48088W        W14871   9.836  33.291   2.665
48089W        W14872   9.879  38.557  11.948
48090W        W14873  44.830  41.313  12.878
48091W        W14874   0.369  30.131   3.208
48092W        W14875  35.977  43.201  14.425
48093W        W14876  16.681  28.995  14.819
48094W        W14877   3.818  41.475  12.102
48095W        W14878  40.888  11.163  10.683
48096W        W14879  24.408  27.024   0.881
48097W        W14880  10.696  18.255  14.306
48098W        W14881  38.537  44.530  13.902
48099W        W14882   3.821  34.912   4.172
48100W        W14883  35.041   2.453   4.580
48101W        W14884  24.556   4.196  14.355
48102W        W14885  19.558  36.780   0.476
48103W        W14886  13.463  14.328  12.033
48104W        W14887  44.244   9.768  11.744
48105W        W14888  19.077  15.779   1.483
48106W        W14889  39.762  26.367   2.806
48107W        W14890  37.358  27.878   0.020
48108W        W14891   5.728  34.895  13.086
48109W        W14892  20.772   1.302   0.260
48110W        W14893  32.359   7.246   3.512
48111W        W14894  25.963  30.722  11.531
48112W        W14895  33.454  40.024   3.331
48113W        W14896  15.763  35.903  13.667
48114W        W14897  36.090   3.749   1.730
48115W        W14898  10.651   8.894  10.908
48116W        W14899   5.989  20.490  12.852
48117W        W14900  31.679  42.858  11.259
48118W        W14901  13.162   4.331  10.538
48119W        W14902  14.588   1.220  11.085
48120W        W14903  37.807  32.067   1.249
48121W        W14904  28.179  34.982  11.139
48122W        W14905  30.873  27.783   4.184
48123W        W14906   0.368  17.103  13.298
48124W        W14907  25.631  19.645   3.102
48125W        W14908  16.069   7.457  12.976
48126W        W14909  42.854  24.230  12.536
48127W        W14910  31.084  17.358  14.523
48128W        W14911  38.632   9.270   1.215
48129W        W14912   8.713  38.033  11.193
48130W        W14913   8.430   1.914  14.356
48131W        W14914  26.957  28.081  11.599
48132W        W14915  30.667   2.308  14.715
48133W        W14916   7.283  29.122  10.717
48134W        W14917  44.630  44.898   4.157
48135W        W14918  42.292  27.495  12.920
48136W        W14919   5.169  15.877  10.756
48137W        W14920  28.605  30.519   2.920
48138W        W14921   3.778   2.712  11.258
48139W        W14922  36.807  44.374  10.619
48140W        W14923  15.859   6.202   0.682
48141W        W14924  12.814  41.742   4.612
48142W        W14925   2.866  13.266  12.833
48143W        W14926  28.162  17.895   4.292
48144W        W14927  38.342  37.313   4.125
48145W        W14928  40.002   4.727  13.291
48146W        W14929  21.038  37.538  10.705
48147W        W14930  23.342  38.249   3.653
48148W        W14931  13.631  19.881  14.214
48149W        W14932  34.428   4.599   4.449
48150W        W14933  14.781  33.467   0.759
48151W        W14934   3.408  39.529  11.481
48152W        W14935  33.154  32.341  12.097
48153W        W14936  24.194  16.558   2.302
48154W        W14937   4.884  15.281  14.896
48155W        W14938  41.754  13.583   2.233
48156W        W14939  15.561  39.975   4.956
48157W        W14940   2.749   1.215   4.106
48158W        W14941  33.098   9.311  11.211
48159W        W14942   0.640  14.660   4.536
48160W        W14943  34.910  37.019   2.307
48161W        W14944   0.383  19.547  13.341
48162W        W14945  10.392  29.678   5.058
48163W        W14946  26.971  11.740   4.202
48164W        W14947   1.783  22.974  12.984
48165W        W14948  25.760  36.905   4.114
48166W        W14949  11.760  20.770  14.598
48167W        W14950  19.197  11.722   2.963
48168W        W14951   3.048   1.017  14.424
48169W        W14952   8.315  30.576  14.376
48170W        W14953  42.982  16.566  10.666
48171W        W14954  30.803  30.678   5.095
48172W        W14955  24.193  10.790  10.566
48173W        W14956   6.675  15.640   3.137
48174W        W14957   1.282   8.292   0.978
48175W        W14958   4.844   7.941   4.152
48176W        W14959  31.628  36.991   3.349
48177W        W14960  17.695  32.461  14.289
48178W        W14961  38.479  27.154   1.799
48179W        W14962  43.029  24.964   1.921
48180W        W14963  14.733  36.380   0.950
48181W        W14964  12.870  29.452   1.227
48182W        W14965  13.230  41.601   4.913
48183W        W14966  21.060  38.325  12.762
48184W        W14967  10.668  26.682  14.679
48185W        W14968   3.320  21.903   1.297
48186W        W14969  33.095  39.997   2.980
48187W        W14970   9.863  10.591   4.075
48188W        W14971  19.771  34.033  11.119
48189W        W14972   2.035  27.776   1.491
48190W        W14973  34.010  39.812   4.516
48191W        W14974  42.964  29.594   4.642
48192W        W14975  21.120  34.859   4.022
48193W        W14976  34.163   5.378   1.894
48194W        W14977  43.323  34.170   1.731
48195W        W14978  42.562  11.207  12.441
48196W        W14979  10.756  17.977   0.642
48197W        W14980  15.070   9.340  10.197
48198W        W14981   6.846  36.648  12.528
48199W        W14982  14.657  13.727  13.536
48200W        W14983  44.031   9.734   5.341
48201W        W14984   5.431  19.611  11.003
48202W        W14985   5.728  43.522  14.827
48203W        W14986  39.800   0.581   2.849
48204W        W14987   8.538   2.894   4.107
48205W        W14988  27.093  38.358  13.916
48206W        W14989  25.081  35.182   0.176
48207W        W14990  27.479  26.721   2.839
48208W        W14991  25.675  21.133  11.697
48209W        W14992   1.929  43.847  10.728
48210W        W14993   1.683  24.680  14.240
48211W        W14994  37.370  40.429  12.399
48212W        W14995  43.585  40.473   2.659
48213W        W14996  37.380  27.346  11.075
48214W        W14997  24.730  35.610  10.750
48215W        W14998   8.492  28.362  13.023
48216W        W14999   7.350   4.050   2.796
48217W        W15000  28.130  35.935  12.080
48218W        W15001  20.652  40.977   0.138
48219W        W15002  29.485   6.818  14.840
48220W        W15003  36.343  37.949  11.053
48221W        W15004  29.379   9.925  12.015
48222W        W15005  23.999  26.005   2.967
48223W        W15006  23.291  23.002   0.750
48224W        W15007  21.319  19.333  13.942
48225W        W15008  28.609  32.970  11.334
48226W        W15009   4.880  38.328  12.514
48227W        W15010  29.619  42.919  14.146
48228W        W15011  41.101  19.001  12.708
48229W        W15012   4.178  20.004  12.046
48230W        W15013  44.418   4.211   4.161
48231W        W15014  20.254  35.163   1.349
48232W        W15015  38.491  38.463   1.847
48233W        W15016   1.741  32.321  13.141
48234W        W15017   4.914  12.360  13.768
48235W        W15018  27.067  22.584   1.119
48236W        W15019  34.446   6.030   3.166
48237W        W15020   4.330   1.446  11.600
48238W        W15021  16.067   7.777   0.805
48239W        W15022  44.801   5.715  12.123
48240W        W15023  33.014   4.770   2.864
48241W        W15024  32.040  28.567  12.512
48242W        W15025  13.765  27.361   4.455
48243W        W15026  13.245  41.954   0.204
48244W        W15027  26.566  33.447  14.355
48245W        W15028  18.069  15.689  13.308
48246W        W15029  12.590   0.690  11.925
48247W        W15030  31.677  17.414   3.682
48248W        W15031  38.961  27.636  11.265
48249W        W15032   9.725  15.248  12.563
48250W        W15033  43.775  34.315   1.251
48251W        W15034  43.331  22.113   1.755
48252W        W15035  12.580   2.933  13.999
48253W        W15036   6.254  22.234   1.807
48254W        W15037  38.322  38.856  12.439
48255W        W15038   5.544  38.192  13.156
48256W        W15039  37.373  10.606   2.893
48257W        W15040  19.627  18.314  14.763
48258W        W15041   9.676   7.673   3.518
48259W        W15042  20.130   8.975  14.803
48260W        W15043  12.379  30.095   2.965
48261W        W15044  29.434  19.481   1.184
48262W        W15045  38.596  24.919  14.287
48263W        W15046  15.842  16.105  10.161
48264W        W15047   6.295  18.059  12.968
48265W        W15048  34.581  32.021  14.779
48266W        W15049  15.253   7.666  14.821
48267W        W15050  33.543   8.199  10.724
48268W        W15051  28.567   6.028  13.450
48269W        W15052  32.019  43.716   2.980
48270W        W15053  34.546  12.355  13.823
48271W        W15054  43.220   7.652  12.979
48272W        W15055  30.986  36.335  11.595
48273W        W15056  16.206  15.825  13.446
48274W        W15057   7.669  15.329  14.013
48275W        W15058  27.268  21.046  11.409
48276W        W15059   2.466  41.911   2.198
48277W        W15060  24.548  15.709  11.797
48278W        W15061  33.614  21.777  13.381
48279W        W15062  13.351   4.473   2.124
48280W        W15063  18.079  28.596   4.718
48281W        W15064  29.095   8.463  14.332
48282W        W15065  43.793  33.426  14.488
48283W        W15066  23.128  11.274   0.725
48284W        W15067  32.089  32.941   4.833
48285W        W15068  11.446  16.128   2.871
48286W        W15069  17.739  43.394   2.809
48287W        W15070  13.938   1.969  12.649
48288W        W15071   7.977  21.819   4.190
48289W        W15072  43.795  32.399  13.481
48290W        W15073  39.409   4.550  12.538
48291W        W15074  33.466  32.368  10.983
48292W        W15075  11.146   9.628  12.851
48293W        W15076  34.873  44.876  10.410
48294W        W15077   2.305   0.946   4.175
48295W        W15078  13.056  28.797  12.556
48296W        W15079  39.359   0.805  11.426
48297W        W15080   8.334   7.209   1.286
48298W        W15081  13.053  13.287   0.804
48299W        W15082  38.812  36.257  14.597
48300W        W15083  12.900  11.629   3.801
48301W        W15084  18.889  44.284  14.360
48302W        W15085  16.559   4.006   1.734
48303W        W15086  32.635  18.916  13.059
48304W        W15087  42.351   3.694   4.033
48305W        W15088   7.350  10.111   0.843
48306W        W15089  11.865  37.947  13.340
48307W        W15090  10.097  21.080   9.656
48308W        W15091  11.202  24.561  14.557
48309W        W15092  23.666   8.218   2.179
48310W        W15093  35.582  21.824   5.040
48311W        W15094  39.968   3.885   4.572
48312W        W15095  34.892   4.521   5.103
48313W        W15096  14.621  34.329   2.584
48314W        W15097   3.940  31.089   0.005
48315W        W15098   2.592   0.342   0.389
48316W        W15099  36.654   9.822   2.778
48317W        W15100  21.306  41.614  11.338
48318W        W15101  43.877  29.565   4.300
48319W        W15102  14.266  37.180  13.892
48320W        W15103  20.725  12.290  10.388
48321W        W15104  11.701  34.296  11.678
48322W        W15105  28.065  42.952  11.878
48323W        W15106  19.825  20.704   2.863
48324W        W15107  16.877   8.704  11.112
48325W        W15108   9.460  32.501   1.543
48326W        W15109  29.515  16.932  11.048
48327W        W15110  17.089  27.022  14.833
48328W        W15111  21.159   0.681  11.124
48329W        W15112  22.587  32.906  13.790
48330W        W15113   7.039  11.626  11.172
48331W        W15114   1.024  26.527   4.385
48332W        W15115  16.716  15.709   2.148
48333W        W15116  31.030  30.360   2.625
48334W        W15117   9.123  11.724   1.860
48335W        W15118  44.587  15.581   4.926
48336W        W15119  41.781  33.380  14.244
48337W        W15120  13.227  31.574   0.417
48338W        W15121  23.003  11.140   2.602
48339W        W15122  21.612   0.731  10.899
48340W        W15123  15.640   2.356   0.209
48341W        W15124  30.059  22.457  12.345
48342W        W15125  24.492  22.751   2.356
48343W        W15126  29.968  40.331   0.525
48344W        W15127  33.177  15.749  10.571
48345W        W15128  10.307  20.589   3.716
48346W        W15129  14.591  33.948   0.747
48347W        W15130   6.118  30.217   2.808
48348W        W15131  29.158  34.109   1.795
48349W        W15132   4.822   7.952  13.402
48350W        W15133  44.917  42.570  10.510
48351W        W15134  30.668  26.126   3.682
48352W        W15135  14.683  17.177   0.788
48353W        W15136  31.113  36.125  12.045
48354W        W15137   8.362   1.665  12.465
48355W        W15138   2.756  27.365  11.131
48356W        W15139  41.032   8.727   1.852
48357W        W15140   2.687  33.826  14.154
48358W        W15141  37.425   1.658  11.193
48359W        W15142  28.184  20.229  14.294
48360W        W15143  14.862   8.657  11.435
48361W        W15144  18.053  13.998  10.292
48362W        W15145  10.520   2.181   5.028
48363W        W15146  40.242  43.789  12.390
48364W        W15147   6.461  38.801   3.279
48365W        W15148  13.138   0.916   2.820
48366W        W15149  44.262  35.338  13.392
48367W        W15150  16.778   2.519  12.047
48368W        W15151  16.906  24.502  10.335
48369W        W15152  26.004  36.439   4.186
48370W        W15153  10.679  20.306   0.315
48371W        W15154  40.379  21.701   3.359
48372W        W15155  13.587  37.568   2.146
48373W        W15156  17.999  35.001   0.859
48374W        W15157  23.456  15.719  13.366
48375W        W15158  33.899  44.946   0.782
48376W        W15159  28.753  37.466   2.260
48377W        W15160  16.351   3.821   3.942
48378W        W15161  15.023  27.021  12.285
48379W        W15162   0.375  44.595   2.005
48380W        W15163  12.700   2.239  12.878
48381W        W15164  27.569  15.089  12.555
48382W        W15165   4.710  28.348   1.342
48383W        W15166  17.042  19.630   0.205
48384W        W15167  18.252   4.320   4.809
48385W        W15168  29.362   9.942  11.495
48386W        W15169   9.774   9.723  12.592
48387W        W15170  13.618   4.583  14.902
48388W        W15171   3.292  21.517   2.619
48389W        W15172  38.618  24.214   3.689
48390W        W15173  20.702  25.235  12.444
48391W        W15174  16.017  36.714  11.444
48392W        W15175  30.381   6.847   1.785
48393W        W15176  35.406  35.811   1.144
48394W        W15177   0.336   0.657  12.117
48395W        W15178  36.289   1.974  14.842
48396W        W15179  22.172  16.153   4.540
48397W        W15180  43.519   1.726  14.190
48398W        W15181  37.916  34.910   1.927
48399W        W15182   3.385   5.187   2.140
48400W        W15183  42.209   9.838  12.399
48401W        W15184  42.662   1.425   0.265
48402W        W15185   0.826  16.138   0.886
48403W        W15186   8.819   7.223  13.825
48404W        W15187  31.629  10.198  13.160
48405W        W15188  42.105  13.800  13.472
48406W        W15189  19.598  27.850   2.722
48407W        W15190   2.675   4.991  13.087
48408W        W15191  19.031   5.384   2.250
48409W        W15192  31.659  34.913   0.349
48410W        W15193  40.539  30.887  14.284
48411W        W15194  26.190   1.083  12.536
48412W        W15195  11.879  16.066  13.556
48413W        W15196  18.681   0.142   2.333
48414W        W15197   7.348  13.389   2.145
48415W        W15198  34.634  10.448   0.026
48416W        W15199   6.773  21.777  11.334
48417W        W15200  14.683  42.841   3.014
48418W        W15201  25.603  12.139  11.149
48419W        W15202  16.620  40.551   4.169
48420W        W15203  14.838  33.886   1.683
48421W        W15204  10.289  18.170  11.607
48422W        W15205  10.726  39.808  14.480
48423W        W15206  18.544   2.307   1.155
48424W        W15207  41.414  43.742   2.771
48425W        W15208  26.927  14.238   4.668
48426W        W15209  16.630  24.653  11.308
48427W        W15210  39.348  14.435  11.690
48428W        W15211   1.408  43.730  10.840
48429W        W15212  30.659  34.889   3.246
48430W        W15213   5.312  37.832   2.361
48431W        W15214  36.340  30.933  14.877
48432W        W15215  35.839  31.516   2.225
48433W        W15216  17.536   1.830  14.281
48434W        W15217  19.798  24.284   5.160
48435W        W15218  32.217  16.402  11.465
48436W        W15219  10.403   2.254   4.199
48437W        W15220   2.488  22.838   1.850
48438W        W15221  39.884   7.470   2.776
48439W        W15222  13.123  28.318  12.704
48440W        W15223   0.387  42.094  11.562
48441W        W15224  28.518  42.745  14.908
48442W        W15225  14.557  32.447  14.064
48443W        W15226  22.528   4.219   2.639
48444W        W15227  23.934   4.998  13.914
48445W        W15228  38.475   0.928   0.486
48446W        W15229   7.888  32.849   4.186
48447W        W15230  28.000   7.947  14.212
48448W        W15231  11.134  23.114   1.670
48449W        W15232  16.676  31.068   2.657
48450W        W15233  28.158   4.015  12.634
48451W        W15234   9.798  26.675   1.942
48452W        W15235  34.115  44.347   0.291
48453W        W15236   7.312  27.158  13.018
48454W        W15237  35.551   6.342   2.659
48455W        W15238  33.463  42.979   0.251
48456W        W15239   1.066  23.158  10.811
48457W        W15240   2.253  20.079   1.932
48458W        W15241  14.360   7.909   1.270
48459W        W15242   4.546   8.272  12.590
48460W        W15243  28.605  13.760  13.061
48461W        W15244  37.947  11.832   0.135
48462W        W15245  30.619   3.742   4.216
48463W        W15246  14.703  26.478  14.086
48464W        W15247   0.902   7.403  12.557
48465W        W15248  17.651   5.950   3.663
48466W        W15249  18.279   9.650  10.973
48467W        W15250   1.269  21.529   0.281
48468W        W15251  22.876  26.648   1.605
48469W        W15252  40.443  27.170  13.027
48470W        W15253  29.717   9.209  12.590
48471W        W15254  13.521  19.044  12.388
48472W        W15255  15.982  38.110  11.055
48473W        W15256  24.092  42.944   1.479
48474W        W15257  19.411  32.157  13.620
48475W        W15258  25.099  36.008  11.082
48476W        W15259   8.015   2.034   2.371
48477W        W15260   0.758  42.279  14.873
48478W        W15261  32.261  16.133  14.057
48479W        W15262   7.285  42.278  14.336
48480W        W15263  18.402  20.441   2.356
48481W        W15264  39.615  19.989   2.252
48482W        W15265  35.181  22.661   2.758
48483W        W15266  16.518  10.777  12.874
48484W        W15267  17.766   7.187   3.353
48485W        W15268  17.051   6.321   1.326
48486W        W15269   3.834  34.503  13.976
48487W        W15270   6.479  12.995  11.269
48488W        W15271  13.101  29.264   1.650
48489W        W15272   8.849  43.353   1.343
48490W        W15273   2.944  34.813   0.199
48491W        W15274   7.911   3.363  14.235
48492W        W15275  11.748  24.765   2.919
48493W        W15276  20.793  18.609   0.468
48494W        W15277  43.228  29.145  13.091
48495W        W15278  14.244  28.956   3.657
48496W        W15279  23.181  37.780   2.408
48497W        W15280  40.610  31.113   3.332
48498W        W15281  16.894  17.667   3.939
48499W        W15282   3.379  18.716   2.093
48500W        W15283  35.830  14.118   4.282
48501W        W15284  19.577  36.668   4.202
48502W        W15285  42.902  35.572  11.326
48503W        W15286  37.511  39.429  11.005
48504W        W15287  44.284  20.410  14.585
48505W        W15288   7.136  37.112  14.603
48506W        W15289  39.407  32.348   4.184
48507W        W15290   0.352  37.824  13.977
48508W        W15291  19.409  17.896  13.885
48509W        W15292  20.513  14.124  11.149
48510W        W15293   7.687  28.099  12.573
48511W        W15294  31.315  20.439   3.250
48512W        W15295  20.168  43.404  14.230
48513W        W15296   3.564  20.936   0.218
48514W        W15297   0.206   0.259  10.717
48515W        W15298   2.152   0.772   2.999
48516W        W15299  43.414  16.285  12.812
48517W        W15300   1.313  35.216  14.721
48518W        W15301  34.691  39.875   3.310
48519W        W15302  19.749   4.884   4.485
48520W        W15303  19.551  19.187  12.153
48521W        W15304  16.484  19.505  14.343
48522W        W15305  17.552   6.380   4.560
48523W        W15306  39.064  18.704   4.714
48524W        W15307  27.039   7.291   2.917
48525W        W15308  34.141  42.009   4.564
48526W        W15309   2.127  16.967  11.971
48527W        W15310  40.340  27.923   1.869
48528W        W15311  26.158  42.994   2.316
48529W        W15312  42.843  34.124   0.403
48530W        W15313  30.260   5.063   0.098
48531W        W15314   7.441  26.047   3.583
48532W        W15315  27.012   0.799   1.694
48533W        W15316  20.476  23.740  11.650
48534W        W15317  25.499  19.112  13.921
48535W        W15318  24.082  28.715  12.551
48536W        W15319  22.170  12.809  12.394
48537W        W15320  24.992  37.353  11.628
48538W        W15321  29.704  15.474  12.154
48539W        W15322  16.872  35.084  13.850
48540W        W15323  18.199  12.635   4.640
48541W        W15324  15.368  38.953   2.334
48542W        W15325  11.882   6.703  10.251
48543W        W15326   7.225  10.245  12.789
48544W        W15327  17.564  38.945  11.356
48545W        W15328  40.105  18.722   0.963
48546W        W15329  27.471   7.700  12.174
48547W        W15330  31.427  13.572   3.102
48548W        W15331   9.943  36.482   0.490
48549W        W15332   4.389   6.113  14.481
48550W        W15333  23.342   6.218   2.324
48551W        W15334  28.660  30.374   0.741
48552W        W15335  17.151  31.382  14.071
48553W        W15336   9.855  42.263   3.251
48554W        W15337  15.158  19.018  13.375
48555W        W15338   8.410  10.219   4.393
48556W        W15339  37.032  14.604   3.385
48557W        W15340  37.434  18.563  11.012
48558W        W15341   9.726  21.104   0.112
48559W        W15342  10.826  10.929  11.456
48560W        W15343   8.617  33.273  13.517
48561W        W15344  23.924   4.357   2.697
48562W        W15345  19.843  30.388  10.799
48563W        W15346  34.920  16.329   0.682
48564W        W15347  20.183  40.969   0.955
48565W        W15348  23.705  41.914   1.864
48566W        W15349  11.170  33.385  11.491
48567W        W15350  16.773  24.110  10.761
48568W        W15351  35.317  17.219  12.935
48569W        W15352  44.435  12.813   0.890
48570W        W15353  15.823  23.001   1.404
48571W        W15354  41.307  29.409   2.772
48572W        W15355  41.871  38.629   0.276
48573W        W15356   8.262  17.301  14.922
48574W        W15357  23.484  44.941  14.328
48575W        W15358  24.707  40.072   2.126
48576W        W15359  24.497  37.923   0.410
48577W        W15360  31.593   3.896   0.265
48578W        W15361   1.095  34.386  14.147
48579W        W15362  12.151  25.601   2.413
48580W        W15363  31.157   9.951   2.940
48581W        W15364  21.307  40.413   2.864
48582W        W15365  42.785  41.287   1.284
48583W        W15366  21.529  27.526   3.828
48584W        W15367  23.484  19.769  11.469
48585W        W15368  32.234  15.594   1.742
48586W        W15369  17.519  36.596  13.016
48587W        W15370  32.149   3.769   3.285
48588W        W15371  43.925   2.378  14.874
48589W        W15372  19.042  26.581   4.582
48590W        W15373  13.241  23.285  14.190
48591W        W15374  23.992  43.048  14.248
48592W        W15375  35.510  25.702  12.350
48593W        W15376   6.112  27.077   1.827
48594W        W15377  38.661  28.987  13.329
48595W        W15378  38.597  30.483   2.367
48596W        W15379  14.249   3.180   2.734
48597W        W15380  15.275   9.504   2.237
48598W        W15381  26.841  35.118  14.909
48599W        W15382  22.556  10.960   3.446
48600W        W15383  18.864   0.770  12.071
48601W        W15384   0.844   3.861   4.604
48602W        W15385  15.153  41.416   3.860
48603W        W15386   3.474   6.328   1.124
48604W        W15387   4.847   5.798   3.865
48605W        W15388  15.680  32.606   3.109
48606W        W15389  22.276  32.338   0.034
48607W        W15390  32.990  41.203   0.379
48608W        W15391  42.507  44.105  11.161
48609W        W15392   8.636  33.028   2.371
48610W        W15393  19.149  36.334  12.861
48611W        W15394   5.298  19.991   3.592
48612W        W15395  22.351  43.870  11.675
48613W        W15396  21.246  37.708   1.761
48614W        W15397  40.840  43.318   4.312
48615W        W15398  30.127  18.706  14.786
48616W        W15399  32.957  41.200   2.580
48617W        W15400  18.185  19.974   2.336
48618W        W15401  40.355  21.713   4.386
48619W        W15402   3.985  24.243   1.904
48620W        W15403  20.233   1.726   0.907
48621W        W15404  27.475  41.412   2.638
48622W        W15405  17.609  11.241  11.019
48623W        W15406  38.744  28.027  12.141
48624W        W15407   7.904  41.922   0.427
48625W        W15408  30.333  24.487   0.524
48626W        W15409  17.619  38.130  13.009
48627W        W15410  36.139  35.957  14.544
48628W        W15411  11.755  16.650   1.235
48629W        W15412  38.067  41.279  10.708
48630W        W15413  16.095  14.357  10.216
48631W        W15414  43.399   9.126  12.057
48632W        W15415   3.241  13.676   0.308
48633W        W15416   8.665   8.914   0.448
48634W        W15417  21.741  30.169   2.035
48635W        W15418  36.421  17.179   4.514
48636W        W15419  41.867  30.106  11.257
48637W        W15420  34.440  39.310  11.144
48638W        W15421  10.142  32.114   4.883
48639W        W15422  29.326  37.023   3.819
48640W        W15423  21.633  26.788   2.694
48641W        W15424  17.754   2.858   3.605
48642W        W15425  31.079  15.552   0.004
48643W        W15426  43.461  43.839  13.825
48644W        W15427  34.080  44.949   3.783
48645W        W15428  37.641  42.269  11.166
48646W        W15429   8.578   2.438  13.030
48647W        W15430   3.311  29.438   1.196
48648W        W15431  32.627  27.998   3.696
48649W        W15432   8.978  36.110   3.670
48650W        W15433  24.111  21.957   3.790
48651W        W15434  36.271  12.061  11.057
48652W        W15435  18.610  39.361  14.005
48653W        W15436   3.539  15.673   4.106
48654W        W15437  29.973   3.322  12.119
48655W        W15438   9.735  39.005   2.322
48656W        W15439  12.796  36.899  14.205
48657W        W15440  34.589  35.823   4.232
48658W        W15441  12.470  35.781   0.929
48659W        W15442  19.797  31.676  12.905
48660W        W15443  28.170   9.002   2.281
48661W        W15444   5.805  14.173   0.776
48662W        W15445  33.106  36.871  12.909
48663W        W15446  37.433   8.644   0.287
48664W        W15447  10.353  38.190   2.297
48665W        W15448  16.254  40.800  14.337
48666W        W15449   8.246  41.218   1.189
48667W        W15450  19.317  37.135   4.130
48668W        W15451  10.656  34.601  12.463
48669W        W15452  42.379  18.762  12.403
48670W        W15453  35.063  40.584  10.249
48671W        W15454   6.169  15.808  11.535
48672W        W15455  32.899  17.719   4.138
48673W        W15456  30.455  28.612  10.823
48674W        W15457  35.771   5.205   2.370
48675W        W15458  19.670  17.533  12.345
48676W        W15459  41.614  34.329   1.722
48677W        W15460  14.107   9.118   2.256
48678W        W15461  11.421  43.276  13.019
48679W        W15462   4.666   4.375  13.354
48680W        W15463   8.640  40.890   1.085
48681W        W15464  22.723  32.073  13.074
48682W        W15465   3.874  26.907   2.244
48683W        W15466  21.767   4.278   0.085
48684W        W15467  11.864  35.625  11.995
48685W        W15468  28.436  32.687  13.900
48686W        W15469  24.585   8.194   1.658
48687W        W15470  29.986  13.272  10.692
48688W        W15471  16.156  31.038  11.510
48689W        W15472  14.533  28.608   2.866
48690W        W15473  13.510  16.312  10.408
48691W        W15474  32.588  42.612  11.269
48692W        W15475  32.073  17.323   0.948
48693W        W15476  29.999  21.732   9.838
48694W        W15477   6.164   8.006  11.615
48695W        W15478  33.064   4.487   1.495
48696W        W15479  42.837  16.056  11.639
48697W        W15480  41.740  41.085  11.971
48698W        W15481  12.988   8.668   0.279
48699W        W15482   9.393  29.618   3.661
48700W        W15483   6.271  31.751   0.371
48701W        W15484  25.198  18.075   1.239
48702W        W15485  41.018  40.291  14.076
48703W        W15486  36.081   3.612   2.619
48704W        W15487  19.043  34.259  13.815
48705W        W15488  44.795  22.163  12.963
48706W        W15489  42.745  11.572  11.607
48707W        W15490  17.303  38.562   1.768
48708W        W15491   6.283  33.210   0.244
48709W        W15492  11.869   4.316  12.517
48710W        W15493  39.579  15.574  12.850
48711W        W15494  30.618   7.318  12.503
48712W        W15495  28.026   4.167  10.765
48713W        W15496  42.778   9.301   2.214
48714W        W15497  43.418  12.676  13.268
48715W        W15498  44.946  23.764   0.061
48716W        W15499  21.932  31.452   0.941
48717W        W15500  38.085   0.194  11.517
48718W        W15501  20.729  29.308  10.750
48719W        W15502  21.301  22.244  14.919
48720W        W15503  44.871  43.530  10.641
48721W        W15504  14.220   0.680   4.679
48722W        W15505  30.479   3.281   3.830
48723W        W15506  22.246   0.407  10.929
48724W        W15507  13.545  32.136  11.037
48725W        W15508  20.806  37.051  10.708
48726W        W15509   7.406  28.452   4.226
48727W        W15510  27.002  10.733   2.762
48728W        W15511  38.741  36.049  13.766
48729W        W15512   4.200  17.358   0.208
48730W        W15513  22.064  29.590  14.405
48731W        W15514  44.423  36.986   2.690
48732W        W15515  26.721   4.633  14.587
48733W        W15516  10.455   8.166  11.590
48734W        W15517  33.514  25.768   0.224
48735W        W15518   1.689  39.896  13.215
48736W        W15519  17.136  30.830  11.415
48737W        W15520   0.247   5.956  14.494
48738W        W15521   4.544  31.563  11.149
48739W        W15522  13.060  40.561  11.645
48740W        W15523  24.141  26.450  13.546
48741W        W15524   4.304  34.943  11.534
48742W        W15525  34.988  26.761  14.813
48743W        W15526  12.403  24.362  10.767
48744W        W15527  43.867  15.800  11.338
48745W        W15528  20.633  17.268   3.536
48746W        W15529  29.120   0.245  11.106
48747W        W15530  30.074   9.341   4.624
48748W        W15531  43.814  33.986   1.716
48749W        W15532  17.252   3.764  10.676
48750W        W15533  40.474   0.977  13.333
48751W        W15534  39.622  12.850   0.458
48752W        W15535  11.414  34.824   2.289
48753W        W15536  35.099  16.294  10.981
48754W        W15537  13.612  36.770  14.941
48755W        W15538  35.620  12.163   1.863
48756W        W15539  44.299   0.670  11.504
48757W        W15540  33.797  42.847  12.582
48758W        W15541  33.425  33.090   0.702
48759W        W15542  41.422  23.496   3.097
48760W        W15543  14.253  16.611  11.441
48761W        W15544  34.773  38.619  12.471
48762W        W15545   9.342  34.011  12.035
48763W        W15546   9.830  25.030   0.091
48764W        W15547  42.468  42.524   4.164
48765W        W15548  33.326  40.080  14.240
48766W        W15549  16.320  36.305  11.552
48767W        W15550  13.248  24.710   2.408
48768W        W15551   9.738  28.429  13.950
48769W        W15552  13.104  16.723   3.689
48770W        W15553  19.234  34.788  13.166
48771W        W15554  11.547  33.476   2.968
48772W        W15555  31.538   0.387   0.202
48773W        W15556  34.796   7.825  13.708
48774W        W15557  33.045  40.419   3.709
48775W        W15558  15.028  43.863   2.279
48776W        W15559   0.145   8.703   0.572
48777W        W15560  33.237  25.078  11.861
48778W        W15561  39.856  13.297   3.563
48779W        W15562  44.763   2.461   2.820
48780W        W15563   2.431  22.795  10.781
48781W        W15564  35.016  44.982   4.850
48782W        W15565  19.686  19.435   4.424
48783W        W15566  44.706   1.270   3.227
48784W        W15567   1.273  44.190  12.626
48785W        W15568  37.959  30.195   0.467
48786W        W15569  26.962  35.570  13.403
48787W        W15570  30.613  14.483  12.026
48788W        W15571  32.540   9.629  14.133
48789W        W15572  24.236  10.384   1.689
48790W        W15573  36.087  14.203  11.754
48791W        W15574  43.965  14.707  10.244
48792W        W15575  12.408  43.806  14.303
48793W        W15576  21.141  24.274   4.123
48794W        W15577   8.820  22.661  12.986
48795W        W15578  28.540  26.001   3.295
48796W        W15579  28.806  11.118   1.927
48797W        W15580   4.168  28.190   3.331
48798W        W15581  24.999  12.326   0.245
48799W        W15582  44.713   4.899   0.685
48800W        W15583  35.915  37.333  14.746
48801W        W15584  21.017   7.405  12.448
48802W        W15585   5.358   7.182  10.646
48803W        W15586   5.996  15.755   2.625
48804W        W15587  41.418  31.153   4.362
48805W        W15588   6.475  36.427   0.037
48806W        W15589  32.152  26.087  11.678
48807W        W15590   9.765  38.979  13.380
48808W        W15591  21.091  26.447   2.598
48809W        W15592   9.272   9.858   4.325
48810W        W15593  28.959  23.497  12.618
48811W        W15594  30.968  23.753  14.681
48812W        W15595  23.309  14.846   2.586
48813W        W15596   7.988  19.561   3.722
48814W        W15597  40.091  12.088  11.236
48815W        W15598  33.359  28.111   0.325
48816W        W15599  27.567  17.360   2.315
48817W        W15600   8.714  31.585  14.068
48818W        W15601  34.102  37.611   4.021
48819W        W15602  29.171  20.647   1.762
48820W        W15603   9.538  38.048  14.548
48821W        W15604  31.340  16.364   2.809
48822W        W15605  37.533  18.064  12.671
48823W        W15606  21.761  20.714  11.332
48824W        W15607   5.761  44.535  13.943
48825W        W15608  38.387  35.082  14.354
48826W        W15609  42.526  14.241  14.724
48827W        W15610  12.953  27.406   2.787
48828W        W15611  32.543  38.036   2.412
48829W        W15612  16.937  13.245  12.117
48830W        W15613  30.898  19.217   1.012
48831W        W15614  39.325   4.837  14.048
48832W        W15615  30.574  39.951   0.615
48833W        W15616   9.603  27.120  10.818
48834W        W15617   0.275  28.954  12.304
48835W        W15618  17.990  30.051   1.593
48836W        W15619  21.503  26.453   3.545
48837W        W15620  25.955  26.941  14.340
48838W        W15621  41.025  37.636  13.088
48839W        W15622  13.660   2.238  10.706
48840W        W15623  37.190  10.322   1.243
48841W        W15624  34.535  23.640   3.756
48842W        W15625  35.917  14.258   1.084
48843W        W15626  31.197  41.009   0.375
48844W        W15627  30.636   5.930   3.607
48845W        W15628  26.548  31.319   4.153
48846W        W15629  31.660  14.130   3.707
48847W        W15630  14.024  44.618  11.401
48848W        W15631  22.135  10.337   0.752
48849W        W15632  18.789  44.342  10.999
48850W        W15633  10.330   5.776   1.417
48851W        W15634   8.186  32.458   4.542
48852W        W15635   1.504  13.098  11.955
48853W        W15636  21.320  39.116   0.902
48854W        W15637  19.056  43.479  10.667
48855W        W15638  10.146  20.132   0.967
48856W        W15639   5.963  25.967  12.372
48857W        W15640  40.027   5.673   3.129
48858W        W15641  34.513  19.415   9.537
48859W        W15642  18.742   8.185  13.412
48860W        W15643  20.581  30.929  10.809
48861W        W15644  28.240  13.900  11.017
48862W        W15645  13.378  39.890  13.385
48863W        W15646  15.779   5.535  12.722
48864W        W15647  41.518  28.346   2.806
48865W        W15648  30.575  30.632   2.694
48866W        W15649   1.261  34.575   3.426
48867W        W15650  22.181  42.578  14.679
48868W        W15651   0.267  44.308   0.830
48869W        W15652  34.910  40.295   2.409
48870W        W15653   4.646   8.124  13.930
48871W        W15654   5.218  16.740   1.898
48872W        W15655  35.444   3.525   4.215
48873W        W15656  23.040  33.592  10.710
48874W        W15657  20.583  13.332  14.445
48875W        W15658  44.983   9.272  10.783
48876W        W15659  42.410  43.935   0.786
48877W        W15660  25.486  26.499   0.473
48878W        W15661   6.066  35.774  10.472
48879W        W15662  17.544   8.193   4.612
48880W        W15663  13.657  44.953   0.850
48881W        W15664  44.272   9.252   3.634
48882W        W15665  38.903   3.824  11.389
48883W        W15666   5.417  18.275  10.789
48884W        W15667  12.614  21.124   0.498
48885W        W15668   9.731   2.534  14.454
48886W        W15669   3.347  40.765  13.345
48887W        W15670  14.065  19.740  12.865
48888W        W15671  22.209  39.040   4.577
48889W        W15672  19.449  17.110  12.592
48890W        W15673  12.472  17.137  11.063
48891W        W15674  31.545  24.995  10.833
48892W        W15675  22.234  13.148   0.354
48893W        W15676  33.110  28.065   4.644
48894W        W15677  19.246  27.196   4.516
48895W        W15678  11.021  35.649   2.296
48896W        W15679  29.188  27.235   1.360
48897W        W15680  21.706  26.298  12.934
48898W        W15681  39.674  39.428   4.921
48899W        W15682  37.833  42.332   1.653
48900W        W15683  22.530  13.221  11.769
48901W        W15684  22.146  17.276   0.995
48902W        W15685  17.209  17.663  13.444
48903W        W15686  20.533  41.486   4.199
48904W        W15687  24.533  32.777   1.241
48905W        W15688   3.242  41.410   3.344
48906W        W15689  17.049  26.562  14.116
48907W        W15690  21.115   3.928   0.462
48908W        W15691   1.790  10.825  11.073
48909W        W15692  16.708  39.860   1.849
48910W        W15693  12.385   9.792   2.557
48911W        W15694  27.927  32.578   4.262
48912W        W15695  28.451   5.246  13.831
48913W        W15696   7.395   3.464  12.152
48914W        W15697  20.957   4.339   1.945
48915W        W15698  33.954  17.645  11.583
48916W        W15699  34.121  32.411   1.369
48917W        W15700   7.599  24.625   4.135
48918W        W15701  16.813  31.635   3.270
48919W        W15702  14.997  35.838   1.371
48920W        W15703  17.123   4.320   0.909
48921W        W15704  23.055  32.942   4.086
48922W        W15705   5.944   4.868   4.275
48923W        W15706  12.845   4.177   0.310
48924W        W15707  32.033   3.206  11.557
48925W        W15708  22.962  42.425   0.329
48926W        W15709  37.830  28.200  14.752
48927W        W15710  43.320  35.601   3.359
48928W        W15711  29.986  43.408  11.756
48929W        W15712  43.748  44.245   2.854
48930W        W15713  27.432  32.472  14.793
48931W        W15714  12.537  34.377   2.672
48932W        W15715  36.138   9.234   0.267
48933W        W15716  17.155   2.685  13.782
48934W        W15717  30.947  10.725   3.573
48935W        W15718  28.920  22.702   2.845
48936W        W15719  29.825  17.915   1.262
48937W        W15720  32.072   7.328  12.619
48938W        W15721  42.490  40.091   3.106
48939W        W15722  17.285  25.567   4.264
48940W        W15723  17.307  31.818  11.706
48941W        W15724  37.139  15.142   0.495
48942W        W15725  22.615   1.526   9.827
48943W        W15726   2.061  33.850  11.949
48944W        W15727   7.609  36.902   0.451
48945W        W15728  39.814  10.167   4.234
48946W        W15729  12.784  11.896  11.850
48947W        W15730  33.471  12.366  12.884
48948W        W15731  12.175   4.336   1.203
48949W        W15732  18.255   5.836  12.626
48950W        W15733  31.598  27.406   2.322
48951W        W15734  16.652  10.361  13.845
48952W        W15735  23.171   2.279  13.651
48953W        W15736   6.664  32.539   3.740
48954W        W15737  34.857  18.232   0.025
48955W        W15738  42.858  36.636  10.570
48956W        W15739   5.936  42.684   3.762
48957W        W15740  27.196  39.566   3.910
48958W        W15741  29.692  44.854  12.199
48959W        W15742  22.913  17.752  10.772
48960W        W15743  35.536  25.989  11.920
48961W        W15744  38.386  10.273  13.849
48962W        W15745  36.477  24.669   1.534
48963W        W15746   1.630  40.893   3.597
48964W        W15747   1.777  11.862   2.578
48965W        W15748  40.971  24.221   2.423
48966W        W15749  30.560  25.774  11.658
48967W        W15750   5.004  21.733  14.452
48968W        W15751   0.722   4.614   2.232
48969W        W15752   0.036  17.933  13.794
48970W        W15753  33.466   2.327  14.071
48971W        W15754  39.946  18.109   1.923
48972W        W15755  19.060  13.212  11.404
48973W        W15756   0.059  32.963   3.180
48974W        W15757  42.305  13.771  14.794
48975W        W15758  16.782  37.486  12.213
48976W        W15759  10.454   3.705   2.376
48977W        W15760   1.041   9.679  10.578
48978W        W15761  13.955  17.322   4.092
48979W        W15762  12.664   7.299   2.539
48980W        W15763  14.678   3.911  14.280
48981W        W15764  21.489  11.203   0.920
48982W        W15765  13.238  34.928   2.879
48983W        W15766  10.903  13.207  13.784
48984W        W15767  22.761  35.184   0.797
48985W        W15768  23.928  37.904  12.508
48986W        W15769   4.223  35.422   1.778
48987W        W15770  32.971  26.170  14.227
48988W        W15771  43.847  43.294  14.444
48989W        W15772  34.929  19.415  14.408
48990W        W15773  26.792  23.514   3.310
48991W        W15774   4.047  20.213   2.346
48992W        W15775  29.129  33.697  13.482
48993W        W15776  19.037  19.638   1.299
48994W        W15777  20.022  20.248   4.646
48995W        W15778   0.269  35.681  13.356
48996W        W15779  11.853  24.683   0.377
48997W        W15780   1.757   1.488   2.239
48998W        W15781  42.960  19.961   4.296
48999W        W15782  32.743  29.009   0.371
49000W        W15783  41.263   7.489   9.829
49001W        W15784  32.220   2.054   1.097
49002W        W15785  20.053  23.312  11.659
49003W        W15786  31.956  29.620   1.746
49004W        W15787  32.674   3.991  12.789
49005W        W15788  44.846  41.327  13.783
49006W        W15789  14.621  16.921  13.643
49007W        W15790  16.584  11.241   4.440
49008W        W15791  29.934  43.780  14.770
49009W        W15792   1.440   8.228  10.657
49010W        W15793  27.606  21.075   3.010
49011W        W15794  23.079  33.612   0.404
49012W        W15795  43.963  11.086  10.183
49013W        W15796  19.942   2.042  13.961
49014W        W15797   4.108   9.385  11.089
49015W        W15798  13.773  22.230  14.035
49016W        W15799  26.762   2.696   3.717
49017W        W15800  20.260  13.210   1.951
49018W        W15801  31.815  42.081  14.801
49019W        W15802  25.411  38.372   4.982
49020W        W15803   6.753  32.331   3.287
49021W        W15804   4.749   5.983  11.294
49022W        W15805  14.476  36.093  10.339
49023W        W15806  23.714  15.571  11.592
49024W        W15807  20.357  11.366  11.072
49025W        W15808  19.130  30.965   0.452
49026W        W15809   7.675   0.446   1.170
49027W        W15810   5.497  14.635  12.230
49028W        W15811  14.879  19.767   4.968
49029W        W15812  40.409  34.937   4.581
49030W        W15813  23.231   8.185  13.847
49031W        W15814  42.025  26.439   1.177
49032W        W15815  29.100   8.144  10.780
49033W        W15816  44.359  17.239   2.324
49034W        W15817  11.815  13.025  12.391
49035W        W15818  22.612  40.998  13.208
49036W        W15819   9.224  36.009  14.930
49037W        W15820  31.585   1.910  12.785
49038W        W15821  28.573  32.073   3.252
49039W        W15822  41.461  26.936  13.485
49040W        W15823  19.017  12.073   1.886
49041W        W15824  41.620  12.322  11.831
49042W        W15825  31.455  26.553  13.409
49043W        W15826  30.585  28.263  11.192
49044W        W15827  18.820   0.935   0.736
49045W        W15828  10.875  10.153   3.539
49046W        W15829  40.356  12.554   4.673
49047W        W15830  38.442   9.452   4.779
49048W        W15831   9.306   1.424   3.197
49049W        W15832  40.841   6.871   3.616
49050W        W15833  35.641  23.070  10.998
49051W        W15834  42.938   6.263  13.951
49052W        W15835  26.425  16.260  13.772
49053W        W15836  41.853  31.581   0.118
49054W        W15837  13.411  41.303   1.956
49055W        W15838  24.598  33.143  11.439
49056W        W15839  33.617   6.109   5.287
49057W        W15840  15.124  23.083   4.618
49058W        W15841  11.746  20.547   4.148
49059W        W15842  25.960  34.681   4.409
49060W        W15843  21.844  26.207   4.479
49061W        W15844   7.166  15.109   3.789
49062W        W15845   0.596   6.047   0.858
49063W        W15846   4.342  23.126  13.262
49064W        W15847  44.148  30.183   1.097
49065W        W15848  28.198  33.318  12.615
49066W        W15849  35.360  28.943   0.756
49067W        W15850  14.021   1.956   1.881
49068W        W15851  25.419  39.098  13.381
49069W        W15852  24.721   6.885  11.991
49070W        W15853   3.254  39.129  14.971
49071W        W15854   9.448  37.452   2.839
49072W        W15855  12.170  33.578  14.893
49073W        W15856  42.788  15.405   2.330
49074W        W15857  20.875  15.870   0.337
49075W        W15858  15.909  21.438  10.393
49076W        W15859  37.583  29.540   3.128
49077W        W15860  30.953  42.851  11.644
49078W        W15861  34.947  28.829   4.366
49079W        W15862   2.393  39.320  12.477
49080W        W15863  13.628  22.924  14.866
49081W        W15864  38.800   6.405   3.694
49082W        W15865  18.075  23.271  13.825
49083W        W15866   5.665  40.373   1.679
49084W        W15867  28.412   7.906  12.452
49085W        W15868  18.798   7.328  10.300
49086W        W15869  41.279   7.899  12.651
49087W        W15870  23.604  16.737   3.131
49088W        W15871  18.188  30.610  14.063
49089W        W15872   5.786   8.853   0.779
49090W        W15873  10.413   6.536  14.303
49091W        W15874  42.897  26.036   3.424
49092W        W15875  10.622  16.372  12.492
49093W        W15876  32.808   0.930  14.296
49094W        W15877  17.049  13.238   3.653
49095W        W15878  23.206  18.984   0.450
49096W        W15879  31.362  44.357   2.958
49097W        W15880  28.114  39.352   0.022
49098W        W15881  23.892   4.473  13.850
49099W        W15882  31.530   7.390   3.094
49100W        W15883  39.440  19.344  10.841
49101W        W15884  42.100  32.487  14.073
49102W        W15885  33.062  33.945   3.278
49103W        W15886  34.450  16.567   4.806
49104W        W15887  42.110  23.661   1.240
49105W        W15888  28.459  23.416   4.844
49106W        W15889   2.240  21.942   3.264
49107W        W15890  28.614  26.547  11.213
49108W        W15891  32.496  36.439   1.016
49109W        W15892  22.094   8.804  11.582
49110W        W15893  30.634  24.639  13.336
49111W        W15894  42.259   1.446   2.239
49112W        W15895   1.963  42.921   3.616
49113W        W15896  42.054  44.177  14.468
49114W        W15897  34.553   9.862  11.156
49115W        W15898  36.938   8.392  14.023
49116W        W15899  38.733   6.856   0.480
49117W        W15900  28.399  23.250   1.297
49118W        W15901  35.025   7.179   2.801
49119W        W15902  41.488  32.616  12.351
49120W        W15903  35.479  40.716   0.003
49121W        W15904  33.036  23.016   4.147
49122W        W15905  24.661   8.707  13.501
49123W        W15906  40.850  34.965  10.783
49124W        W15907  33.319  28.603  13.457
49125W        W15908  40.870  14.159   1.781
49126W        W15909  26.365   8.611   1.363
49127W        W15910  40.823  25.644  14.509
49128W        W15911   9.293  17.942   2.959
49129W        W15912  19.693   6.082  11.056
49130W        W15913   0.021   6.860   2.294
49131W        W15914  17.031  21.983  11.996
49132W        W15915   6.726  24.964  11.603
49133W        W15916  18.920   6.883  11.885
49134W        W15917  21.926  39.301   3.280
49135W        W15918  12.701  39.879   3.529
49136W        W15919  19.704  41.600  11.585
49137W        W15920   2.259  23.457  13.439
49138W        W15921  42.035   2.804  13.419
49139W        W15922  41.492  15.289   4.953
49140W        W15923  33.815  17.581  12.925
49141W        W15924   9.019  23.817  10.676
49142W        W15925  32.907  27.574   4.684
49143W        W15926  26.969   8.356  11.164
49144W        W15927  20.041   8.061  11.743
49145W        W15928   5.244  24.944   2.859
49146W        W15929  10.151  32.099  10.151
49147W        W15930  34.364  22.899   3.324
49148W        W15931  12.232  10.574  14.380
49149W        W15932  32.968  42.467   4.713
49150W        W15933   2.081  17.363   4.386
49151W        W15934  41.948  32.548   3.599
49152W        W15935  28.428   2.243  12.159
49153W        W15936  42.482  33.404  14.773
49154W        W15937  21.730  36.528   3.586
49155W        W15938   9.439  38.888  12.925
49156W        W15939  12.581  44.515  11.396
49157W        W15940  19.187   6.196   3.264
49158W        W15941  37.607   1.023   4.171
49159W        W15942  29.630  30.028   1.384
49160W        W15943   9.160   0.464   3.292
49161W        W15944  13.747  42.400   3.817
49162W        W15945  33.108  26.204  10.742
49163W        W15946  39.421  18.171  14.057
49164W        W15947  29.540  32.458   0.642
49165W        W15948  22.791  30.567  10.622
49166W        W15949  21.661  22.326  12.567
49167W        W15950  28.496  39.703  11.781
49168W        W15951  30.847  15.784   5.056
49169W        W15952  22.578  12.028  10.918
49170W        W15953   5.474   6.879  14.753
49171W        W15954   2.516  14.893  12.022
49172W        W15955  31.575  25.539  14.209
49173W        W15956  23.774  10.164  12.212
49174W        W15957   8.304   5.367  11.398
49175W        W15958  30.114  27.468  13.881
49176W        W15959  29.728  16.251  13.875
49177W        W15960   7.836   2.523  10.753
49178W        W15961  38.915   8.463   3.713
49179W        W15962   8.143  29.374   2.204
49180W        W15963  43.533  28.638  11.128
49181W        W15964  39.811  12.277  11.632
49182W        W15965  16.797   0.936  13.607
49183W        W15966  15.659  27.668   4.146
49184W        W15967   2.202  24.898  11.633
49185W        W15968  16.448  11.098  12.459
49186W        W15969  26.923  20.747   4.240
49187W        W15970  27.009  18.640  12.709
49188W        W15971   3.306  42.005   1.698
49189W        W15972  10.644  14.550  10.669
49190W        W15973  34.643  27.699  14.367
49191W        W15974  17.885  14.685   0.810
49192W        W15975  44.234  14.076  11.979
49193W        W15976   3.837  26.040   3.677
49194W        W15977  25.966  31.476   3.645
49195W        W15978  34.297   5.715  13.068
49196W        W15979  15.999  12.706   0.481
49197W        W15980   6.134  22.286   5.134
49198W        W15981  14.004   1.032   1.709
49199W        W15982  12.845  40.428  10.721
49200W        W15983  18.639  35.143  13.895
49201W        W15984  33.361  37.802   1.921
49202W        W15985   7.559  30.568  14.888
49203W        W15986  26.706  15.381  14.453
49204W        W15987  13.317  43.852  14.602
49205W        W15988  12.148  30.470   0.741
49206W        W15989   4.793  28.225  11.692
49207W        W15990  37.791  31.442  11.427
49208W        W15991  30.483  25.405  14.793
49209W        W15992  21.555   0.975  12.969
49210W        W15993   1.592   7.407   9.598
49211W        W15994  10.323  17.311  12.869
49212W        W15995  14.489  15.233   4.395
49213W        W15996  37.235   9.452   1.435
49214W        W15997  38.579  11.621   4.396
49215W        W15998  18.454  36.503  11.852
49216W        W15999  15.278   0.432   0.258
49217W        W16000  37.651  26.056  10.997
49218W        W16001   7.096  30.920   3.607
49219W        W16002  25.959  10.807  11.157
49220W        W16003   4.161  14.233   4.167
49221W        W16004  27.049  24.999  14.059
49222W        W16005   3.864  35.481  14.010
49223W        W16006  25.066   8.214  12.106
49224W        W16007   6.139   3.848  11.103
49225W        W16008  31.882   9.765  12.990
49226W        W16009   0.435  14.654   4.061
49227W        W16010  10.121  25.559   0.774
49228W        W16011   9.286  19.841  12.921
49229W        W16012  36.372   3.715   4.608
49230W        W16013  13.051  27.467  12.093
49231W        W16014  37.229  41.501  13.917
49232W        W16015   9.680   7.400  13.402
49233W        W16016  19.041  20.477  12.469
49234W        W16017  41.878  17.213  11.418
49235W        W16018   4.688  35.925   0.342
49236W        W16019  17.121  42.413   4.283
49237W        W16020  14.058  37.681  12.977
49238W        W16021  24.656  37.429   4.534
49239W        W16022  15.024  41.811  11.427
49240W        W16023  30.914   9.184  14.953
49241W        W16024  27.433  20.957  13.148
49242W        W16025   9.024   8.937   4.265
49243W        W16026   7.834  24.260  11.168
49244W        W16027  11.099  23.132  11.128
49245W        W16028  10.064  39.864   3.894
49246W        W16029  25.972  30.054  13.409
49247W        W16030  27.567  11.780   0.458
49248W        W16031  22.025  11.406   2.714
49249W        W16032   7.212  17.737  11.598
49250W        W16033  36.528  26.083   2.959
49251W        W16034  42.716  23.168  12.997
49252W        W16035  10.733  13.796  13.988
49253W        W16036  16.536  27.019  12.566
49254W        W16037  34.631  13.524  13.998
49255W        W16038  12.974  17.999   3.286
49256W        W16039   1.154  42.380  12.331
49257W        W16040  28.313  17.550  11.879
49258W        W16041   8.881  16.126   0.158
49259W        W16042  12.150   1.013   2.131
49260W        W16043  22.208   8.965   2.251
49261W        W16044  11.108  32.986   0.395
49262W        W16045  13.914   5.441  11.624
49263W        W16046  20.191  43.924  13.057
49264W        W16047  37.419  12.278  14.348
49265W        W16048   6.177  39.588   1.206
49266W        W16049  38.620  13.175  12.527
49267W        W16050   5.001   0.920   0.403
49268W        W16051  15.303  36.475   3.547
49269W        W16052  25.634   3.056   4.587
49270W        W16053  32.613  32.584   2.700
49271W        W16054  13.201  13.714   2.700
49272W        W16055  17.704  32.584   0.723
49273W        W16056  37.974  29.104   2.591
49274W        W16057  44.926  20.296   2.357
49275W        W16058  30.660  37.311   1.363
49276W        W16059   0.715  41.831  14.636
49277W        W16060  25.550  35.639   3.329
49278W        W16061  40.881  31.602   2.173
49279W        W16062   4.149  30.308  14.932
49280W        W16063  12.571  31.629   3.720
49281W        W16064  20.694  15.608  12.482
49282W        W16065  41.409  11.675  14.669
49283W        W16066  29.225   6.226   3.715
49284W        W16067  43.951   0.387  13.378
49285W        W16068  28.407  25.658   4.529
49286W        W16069   2.547  38.859  11.593
49287W        W16070   3.130  28.766   4.480
49288W        W16071  14.769  12.747  12.581
49289W        W16072   5.300  18.318  14.943
49290W        W16073  17.866  31.891   4.164
49291W        W16074   0.556   6.446   1.660
49292W        W16075  27.883   7.449  11.990
49293W        W16076   8.243  27.508   3.079
49294W        W16077   3.633  30.702  14.244
49295W        W16078  15.706  16.628  11.018
49296W        W16079  42.543  21.781  11.951
49297W        W16080   0.461  42.895   0.703
49298W        W16081  26.699  20.619  10.299
49299W        W16082  38.399  38.931  14.541
49300W        W16083  36.880  11.778   3.662
49301W        W16084  14.734  44.808   4.606
49302W        W16085  25.631   6.889  12.065
49303W        W16086   3.769  14.410  14.940
49304W        W16087   2.344   1.834   1.498
49305W        W16088   7.344  20.071   2.944
49306W        W16089   3.838  43.692  11.621
49307W        W16090  17.114  12.324   1.833
49308W        W16091  43.426  30.413  14.366
49309W        W16092  32.447  42.780   2.158
49310W        W16093  37.807  25.058   4.562
49311W        W16094  15.283  17.577   4.572
49312W        W16095  42.074  28.429  11.996
49313W        W16096  25.602  13.558   4.496
49314W        W16097   0.784  19.186   1.225
49315W        W16098  20.555  31.186  14.012
49316W        W16099  35.618  44.866  12.480
49317W        W16100   6.589  12.897   1.709
49318W        W16101  32.706  28.159   1.120
49319W        W16102  13.284   1.489  12.846
49320W        W16103  36.322  33.499   2.291
49321W        W16104  10.198  36.998   3.614
49322W        W16105   5.785   4.872   3.287
49323W        W16106   8.077   5.938   3.389
49324W        W16107   1.784  11.891   1.235
49325W        W16108  34.872   6.209  10.646
49326W        W16109  17.429  26.636   5.065
49327W        W16110  44.365  22.602   1.463
49328W        W16111  32.548  14.637  14.287
49329W        W16112   9.148  33.528   1.446
49330W        W16113  10.859  33.430   3.867
49331W        W16114   7.208  21.965  13.986
49332W        W16115   1.088  18.268  13.028
49333W        W16116  29.160   4.832  13.793
49334W        W16117  43.142  16.210  14.513
49335W        W16118  32.128  36.263   4.051
49336W        W16119  14.811  19.535   0.221
49337W        W16120  32.266  17.705  12.420
49338W        W16121   5.068  14.819  11.306
49339W        W16122  43.721  31.940   2.324
49340W        W16123  19.221  42.726   0.891
49341W        W16124   9.871  13.425  11.609
49342W        W16125  31.464  25.897  11.190
49343W        W16126  37.468  36.209   5.191
49344W        W16127  42.840  40.892  10.659
49345W        W16128   4.476  17.490  14.273
49346W        W16129  19.293  43.061  12.111
49347W        W16130  41.809  12.235   1.919
49348W        W16131  40.987   1.897   3.355
49349W        W16132  40.888  33.548  14.997
49350W        W16133  14.667  20.990   1.386
49351W        W16134  13.328  33.479  14.458
49352W        W16135   8.894  35.643  14.123
49353W        W16136  11.170  41.006  14.795
49354W        W16137  35.911  36.421  10.606
49355W        W16138  12.065  18.124  10.846
49356W        W16139   6.691   9.095  11.038
49357W        W16140  39.512  18.528  14.535
49358W        W16141   8.869  31.626   3.054
49359W        W16142   9.619  37.419  14.860
49360W        W16143  40.124  13.083   0.676
49361W        W16144  41.656  25.158  12.220
49362W        W16145  25.790  37.972   5.071
49363W        W16146  15.695  26.011  12.525
49364W        W16147  20.042   0.339   1.773
49365W        W16148  10.836  23.654   3.843
49366W        W16149  35.351  31.115  13.891
49367W        W16150  11.953  20.750   1.053
49368W        W16151  27.185  28.143   5.058
49369W        W16152  14.168  21.750  14.867
49370W        W16153  39.823  44.048  12.503
49371W        W16154   0.446   5.888   3.348
49372W        W16155   0.100  13.696   1.586
49373W        W16156  18.716   6.695  14.300
49374W        W16157   8.153  31.690  11.900
49375W        W16158   9.762  24.757   3.219
49376W        W16159  42.053  10.300   0.867
49377W        W16160  15.355   0.431   2.919
49378W        W16161  35.930  25.127  13.147
49379W        W16162  25.634  33.040  12.136
49380W        W16163  12.722   7.104   3.535
49381W        W16164  17.338   2.986   0.282
49382W        W16165  29.107  37.337  12.981
49383W        W16166  20.558   1.475  14.302
49384W        W16167  41.104  16.701  13.823
49385W        W16168  31.879   2.887  14.753
49386W        W16169  12.881  35.300   2.135
49387W        W16170   8.866  34.323  11.995
49388W        W16171  36.457  14.545  10.573
49389W        W16172  39.541  24.397   3.852
49390W        W16173  40.596  38.326  11.989
49391W        W16174  22.313  44.206   1.680
49392W        W16175  43.072  12.771  11.514
49393W        W16176  41.753  34.333   4.205
49394W        W16177  19.786  43.830   1.266
49395W        W16178  43.032  20.846   5.023
49396W        W16179   7.996  41.919   2.299
49397W        W16180   5.425  21.082   0.530
49398W        W16181  19.766   6.590  11.154
49399W        W16182  11.236  17.701   4.560
49400W        W16183   3.772  33.835  14.925
49401W        W16184  40.527   7.911   3.325
49402W        W16185  25.663  21.095  14.719
49403W        W16186  14.250   7.939   2.503
49404W        W16187  42.743   0.731  11.534
49405W        W16188   1.916  15.300  10.632
49406W        W16189  24.783   3.808   3.571
49407W        W16190   8.853  43.906   1.819
49408W        W16191  32.391   7.388  11.207
49409W        W16192  25.979  16.098   4.198
49410W        W16193  27.676  41.585  12.314
49411W        W16194  44.257  44.974   3.162
49412W        W16195  28.591  26.551   3.932
49413W        W16196  44.543  31.015   3.795
49414W        W16197   0.389  30.201  13.580
49415W        W16198  39.509  30.457   2.963
49416W        W16199  19.532  22.226  13.914
49417W        W16200  23.597   5.558  13.621
49418W        W16201  42.762  44.020   1.172
49419W        W16202  13.290  11.633   4.497
49420W        W16203  19.120  19.472  14.031
49421W        W16204  43.821  10.364  11.995
49422W        W16205  24.701  32.848  14.322
49423W        W16206  33.552  21.683   5.699
49424W        W16207  15.704   1.965  10.943
49425W        W16208   6.756   9.850   3.060
49426W        W16209  37.909  23.887  12.351
49427W        W16210   0.977  15.859   1.284
49428W        W16211   0.294   3.709   2.281
49429W        W16212  12.256  13.147   2.728
49430W        W16213   3.145   3.878  13.306
49431W        W16214  27.127  31.507   2.338
49432W        W16215   5.389  43.942  11.550
49433W        W16216   7.751  38.784   2.871
49434W        W16217  16.629  24.097   4.668
49435W        W16218  36.065  17.661   3.894
49436W        W16219  21.430  21.494  14.872
49437W        W16220  33.305  10.854  11.527
49438W        W16221  25.245  43.988   3.843
49439W        W16222  39.545  10.796   1.284
49440W        W16223  18.161  41.174   0.720
49441W        W16224  27.553  18.507  13.404
49442W        W16225  20.751   0.238  10.870
49443W        W16226  42.469   3.448   2.708
49444W        W16227  19.043  19.159   5.019
49445W        W16228  11.176  10.010   4.105
49446W        W16229  23.742  29.497   3.250
49447W        W16230  43.889   4.227   4.937
49448W        W16231  21.556   5.424   1.270
49449W        W16232  19.498   7.649  11.243
49450W        W16233  18.315  21.549   4.069
49451W        W16234   9.767   7.223   5.639
49452W        W16235  14.100   3.155  10.049
49453W        W16236  27.571   6.701  14.817
49454W        W16237  30.447  29.562  13.023
49455W        W16238   8.809  23.180   3.535
49456W        W16239  43.951   5.185  12.962
49457W        W16240  32.449  18.164  12.253
49458W        W16241  28.891  28.917  14.902
49459W        W16242  25.866  26.902  12.020
49460W        W16243  43.417  18.803  11.063
49461W        W16244  22.322  34.396   4.183
49462W        W16245  26.045  36.393  11.256
49463W        W16246  37.122   6.296   4.568
49464W        W16247  35.891   8.989  11.152
49465W        W16248  40.913  27.178   4.807
49466W        W16249  41.604  10.296  13.870
49467W        W16250  27.194  40.128   0.202
49468W        W16251   9.705  20.115  12.733
49469W        W16252  21.071  31.499   1.433
49470W        W16253  29.051  15.487  12.865
49471W        W16254  34.070   9.622  11.192
49472W        W16255  27.591  12.680  12.044
49473W        W16256   7.422  25.167   4.903
49474W        W16257  28.077  16.333   4.717
49475W        W16258  21.802   3.919   1.857
49476W        W16259  30.461  36.503  12.611
49477W        W16260  18.195  29.616  11.182
49478W        W16261  25.206  30.620  12.050
49479W        W16262   4.831  24.910   4.570
49480W        W16263   1.733  44.021   2.782
49481W        W16264  39.212   2.428   2.818
49482W        W16265  31.859  42.056  12.882
49483W        W16266  14.205  19.249  14.546
49484W        W16267   8.750  11.535   3.192
49485W        W16268   6.162  33.572  13.370
49486W        W16269   6.356  25.703   1.326
49487W        W16270  16.076  43.323   4.627
49488W        W16271  22.072  40.121   1.274
49489W        W16272   7.395  29.765   2.596
49490W        W16273  15.364  13.855  14.891
49491W        W16274  29.061  38.541   2.200
49492W        W16275  15.140   3.834  12.114
49493W        W16276  31.532  10.963   0.612
49494W        W16277   4.865  11.364   3.124
49495W        W16278   8.323   0.646  14.397
49496W        W16279  32.850  36.458  11.521
49497W        W16280  40.273   8.294   3.560
49498W        W16281  33.599  40.948   0.284
49499W        W16282  22.690   4.938   2.124
49500W        W16283  28.192  31.217  11.593
49501W        W16284  40.967  26.757   4.501
49502W        W16285  34.629  33.598   0.875
49503W        W16286  23.454  44.794   3.598
49504W        W16287   6.749  13.396  14.838
49505W        W16288  14.051  43.348  13.482
49506W        W16289  25.592   1.252  14.965
49507W        W16290  19.744  27.385   0.185
49508W        W16291  25.266  13.500  12.017
49509W        W16292   5.400   0.955   2.240
49510W        W16293   3.970  17.205   4.240
49511W        W16294  39.492  20.298  12.504
49512W        W16295   0.372  40.345   1.394
49513W        W16296  37.329  15.653   1.289
49514W        W16297  44.382   4.784  14.316
49515W        W16298  13.704  15.168   4.811
49516W        W16299  42.388  12.690  12.376
49517W        W16300  24.320  41.185  13.898
49518W        W16301  16.425  15.893  14.474
49519W        W16302  13.702  40.622   4.125
49520W        W16303   9.340   3.315  14.514
49521W        W16304  17.023   3.666  13.891
49522W        W16305  15.024  33.854  11.999
49523W        W16306  20.016  36.379   2.284
49524W        W16307  37.151  38.383   1.471
49525W        W16308  21.550  18.318  11.993
49526W        W16309  22.966  16.327   4.150
49527W        W16310  37.428  16.210   3.511
49528W        W16311  20.117  20.582  10.731
49529W        W16312  25.574  44.492   1.799
49530W        W16313  40.002  44.488   2.708
49531W        W16314  21.471  27.186  12.962
49532W        W16315   3.202  33.410  13.003
49533W        W16316   6.514  23.196   3.202
49534W        W16317   9.637   5.736   3.508
49535W        W16318   6.715  38.560  12.152
49536W        W16319  26.636  27.174  12.939
49537W        W16320  31.306  37.296  14.869
49538W        W16321  21.283  35.580  10.660
49539W        W16322  42.304  19.538  11.422
49540W        W16323  20.141  42.036   0.793
49541W        W16324  24.163   8.915   1.394
49542W        W16325  15.390   3.032  14.984
49543W        W16326  33.786  19.565   4.206
49544W        W16327   5.339  34.646  10.581
49545W        W16328  33.150   1.282  14.875
49546W        W16329  17.948   7.622  11.646
49547W        W16330   9.239  39.353  11.661
49548W        W16331  26.988  10.021  14.231
49549W        W16332  14.887   0.278  12.092
49550W        W16333  37.527   1.384  13.970
49551W        W16334   0.906  39.045  10.386
49552W        W16335  32.628  15.219   4.436
49553W        W16336   8.348   0.291   2.857
49554W        W16337  35.730  23.594  11.097
49555W        W16338   1.734  44.909   1.284
49556W        W16339   7.454  26.976   1.494
49557W        W16340  33.008  28.507   0.364
49558W        W16341  15.299   4.966   1.668
49559W        W16342  16.040  29.955   1.732
49560W        W16343  42.017  18.437  11.086
49561W        W16344  44.105  39.128  10.646
49562W        W16345  33.567  40.952  12.694
49563W        W16346  21.252  32.295  13.553
49564W        W16347  44.300  20.736   1.664
49565W        W16348   2.418   4.744   4.594
49566W        W16349  41.529  37.301  10.418
49567W        W16350  26.141  30.295  14.321
49568W        W16351  27.951  39.895   9.847
49569W        W16352  25.751  38.111  10.133
49570W        W16353  10.128  12.661   2.839
49571W        W16354  11.634   5.942   4.520
49572W        W16355  38.499   8.680   0.458
49573W        W16356   1.407   9.234  10.590
49574W        W16357   4.178  11.897   2.762
49575W        W16358  13.080  37.405   2.347
49576W        W16359  39.081  14.665   1.631
49577W        W16360   3.278  23.670   1.879
49578W        W16361  34.110  16.196  11.128
49579W        W16362  11.036  35.467  11.088
49580W        W16363   9.745   0.140  13.204
49581W        W16364  30.003  31.271   1.943
49582W        W16365   7.616  19.077  13.389
49583W        W16366   6.024  39.538   4.540
49584W        W16367  41.070  30.445   1.496
49585W        W16368  15.286  21.810  11.615
49586W        W16369  16.137  21.111   0.718
49587W        W16370  16.972  27.021  13.878
49588W        W16371   2.151   5.151   1.201
49589W        W16372   1.082  13.269   3.217
49590W        W16373  14.930  22.246  11.640
49591W        W16374  30.898  23.687   2.701
49592W        W16375  16.359  27.522   2.684
49593W        W16376  27.168  26.713   2.412
49594W        W16377  40.929  39.021   4.837
49595W        W16378  11.659  17.047  13.344
49596W        W16379   1.583  25.595   1.286
49597W        W16380  26.070  43.055  12.627
49598W        W16381  15.124  28.596  12.683
49599W        W16382  39.804  28.710   0.216
49600W        W16383  36.141  44.844   3.258
49601W        W16384  13.630   2.420   3.816
49602W        W16385  39.773  27.127  14.855
49603W        W16386  32.825  17.796   1.495
49604W        W16387  21.400  25.234  12.523
49605W        W16388  34.633  29.676  13.531
49606W        W16389  31.595  36.865  12.099
49607W        W16390  39.551  23.335  13.354
49608W        W16391  20.815  23.924   2.449
49609W        W16392  17.326  21.022   2.656
49610W        W16393  13.985   8.274   2.225
49611W        W16394  37.452   6.248   0.726
49612W        W16395  23.461  25.290   2.382
49613W        W16396   9.348  15.120   2.907
49614W        W16397  30.226  18.556   3.468
49615W        W16398  26.441  14.911  14.415
49616W        W16399  39.482   2.865  14.876
49617W        W16400  23.564  21.351   2.193
49618W        W16401  15.703  42.136  10.747
49619W        W16402  21.442  13.703   1.793
49620W        W16403  31.320  32.596   4.617
49621W        W16404  33.138  12.747  12.783
49622W        W16405  36.866  24.552  14.130
49623W        W16406  20.053  40.379   1.081
49624W        W16407  35.093  10.192  14.081
49625W        W16408  12.414  27.749   4.456
49626W        W16409  31.688   2.937   2.686
49627W        W16410  36.106  44.787   4.729
49628W        W16411  26.629   5.941   3.723
49629W        W16412  17.064   3.871  14.826
49630W        W16413  13.855  15.553   1.440
49631W        W16414  27.428  39.501  13.910
49632W        W16415   5.160  44.035  13.055
49633W        W16416  38.948   3.231   1.774
49634W        W16417   3.367  18.676   5.167
49635W        W16418  10.324  41.392  11.295
49636W        W16419   4.157  25.104   0.407
49637W        W16420  34.459  19.886   2.762
49638W        W16421  16.181  14.649   4.212
49639W        W16422  29.194   7.110   3.664
49640W        W16423   2.775   7.625  14.494
49641W        W16424  34.181  33.873  14.860
49642W        W16425  37.591  24.278  13.779
49643W        W16426  23.994   7.273  14.442
49644W        W16427  29.513  20.098   0.416
49645W        W16428  18.439   2.242   2.871
49646W        W16429  36.150  37.976  13.984
49647W        W16430  34.659  26.531  12.063
49648W        W16431  41.399  34.296  13.339
49649W        W16432  25.552  42.859  11.458
49650W        W16433  15.821  34.176   3.838
49651W        W16434  14.430  15.562   2.093
49652W        W16435  17.831  30.479   4.540
49653W        W16436   0.178   2.992  13.664
49654W        W16437  43.333   7.923  11.603
49655W        W16438  34.892   5.595   5.057
49656W        W16439  30.153  39.405  14.463
49657W        W16440  20.323  22.258  11.603
49658W        W16441  18.584  34.032   3.219
49659W        W16442  30.002  16.746  11.034
49660W        W16443  34.324  38.398  13.892
49661W        W16444  18.500   1.263  11.435
49662W        W16445  35.930  25.459  12.189
49663W        W16446  40.695  33.450  13.513
49664W        W16447   2.925   8.967  13.578
49665W        W16448  12.469   8.672   3.728
49666W        W16449  38.449   8.697   3.640
49667W        W16450   2.156  24.814  12.555
49668W        W16451   6.307  33.061   1.843
49669W        W16452  43.492  42.059  12.321
49670W        W16453  44.902  21.674   0.446
49671W        W16454  31.724  26.151  13.576
49672W        W16455  35.865   0.835  12.647
49673W        W16456  35.615  34.781  13.702
49674W        W16457  24.215  10.202   0.636
49675W        W16458   4.351   6.430   3.230
49676W        W16459  39.908  24.321   1.396
49677W        W16460  38.886   9.890   3.897
49678W        W16461  35.039  14.245  11.473
49679W        W16462  36.507   8.015   4.023
49680W        W16463  38.921   0.765  11.161
49681W        W16464  20.070  28.127   2.658
49682W        W16465  33.911  36.591  10.800
49683W        W16466   4.583  36.966  10.662
49684W        W16467  15.270  19.753   4.220
49685W        W16468   5.424  24.465   2.870
49686W        W16469  16.549  24.821  14.350
49687W        W16470  22.917   5.426  13.994
49688W        W16471   7.529  10.289  12.364
49689W        W16472  17.772   5.342  12.771
49690W        W16473  30.522  34.020   4.147
49691W        W16474  22.084  44.885  10.806
49692W        W16475   9.832  27.539  10.570
49693W        W16476  33.666  34.623   2.942
49694W        W16477   3.239   1.954  10.273
49695W        W16478   0.395  33.322  13.574
49696W        W16479   9.371  25.543   1.470
49697W        W16480  29.676  33.635  11.606
49698W        W16481  33.099   2.193   4.263
49699W        W16482  42.534  40.846   4.171
49700W        W16483  36.320  12.628   4.091
49701W        W16484  44.927  31.963  14.479
49702W        W16485   7.274  41.956  10.654
49703W        W16486  11.242  38.371   0.787
49704W        W16487  12.923  17.508  12.674
49705W        W16488  10.087  34.772  13.895
49706W        W16489   4.953   6.359   2.791
49707W        W16490  35.494  15.224   1.817
49708W        W16491  30.153  12.335   3.357
49709W        W16492  18.473   6.782   0.499
49710W        W16493  29.662   7.531  10.698
49711W        W16494  30.569  11.300   1.357
49712W        W16495  19.771  32.984   1.387
49713W        W16496  28.058  18.229  10.124
49714W        W16497  37.332  22.853   3.646
49715W        W16498   5.134  36.481   4.799
49716W        W16499  22.983  40.001   4.144
49717W        W16500  28.547  23.649  13.836
49718W        W16501  20.942   3.139  12.489
49719W        W16502   8.660  17.800   1.291
49720W        W16503  42.041  32.438   0.366
49721W        W16504  27.056   0.090   0.360
49722W        W16505  29.949  24.537   1.824
49723W        W16506  38.019  35.324  13.806
49724W        W16507  26.124   5.634  11.386
49725W        W16508   9.366   8.880  12.052
49726W        W16509  29.733  21.754   3.321
49727W        W16510  20.485  11.854  13.016
49728W        W16511  39.568  26.580   2.329
49729W        W16512  30.946  27.879  13.184
49730W        W16513  44.021  11.730   3.797
49731W        W16514  14.641  30.488   3.294
49732W        W16515  14.099  41.295  11.646
49733W        W16516  13.307  42.654  12.490
49734W        W16517   1.457  43.418  13.614
49735W        W16518  20.574   1.048  12.102
49736W        W16519  28.012  35.511   4.508
49737W        W16520  15.409  26.084  12.075
49738W        W16521   5.824  10.429  10.583
49739W        W16522  25.474  37.124  13.437
49740W        W16523  36.598  30.024   1.646
49741W        W16524   3.908   9.095   2.205
49742W        W16525  25.001   0.898   3.257
49743W        W16526  29.665  23.749  10.396
49744W        W16527   7.977  13.909   4.173
49745W        W16528   5.305   5.745  13.284
49746W        W16529  42.528  42.440   4.789
49747W        W16530  24.646  19.784  11.160
49748W        W16531  37.437   2.073   3.285
49749W        W16532  41.402   1.921  11.274
49750W        W16533   8.173   1.489   3.741
49751W        W16534   4.411  28.047  14.349
49752W        W16535  24.573  28.484  12.528
49753W        W16536  18.865   0.763   4.137
49754W        W16537  20.231   3.483  13.024
49755W        W16538  32.402  27.935  13.310
49756W        W16539  18.420  37.512   2.653
49757W        W16540  29.571  21.205  10.230
49758W        W16541  17.907  26.507   2.896
49759W        W16542  18.979  16.594  13.085
49760W        W16543  35.958  38.348  11.142
49761W        W16544  39.723  12.363   2.072
49762W        W16545  20.297  13.280   2.934
49763W        W16546  18.565  41.546  13.947
49764W        W16547  29.547   6.844   1.967
49765W        W16548   0.418   0.460   2.215
49766W        W16549  12.571   0.324   4.714
49767W        W16550  33.876  18.632  13.861
49768W        W16551  31.200   2.189   0.444
49769W        W16552  35.409   6.485   3.188
49770W        W16553  44.307  42.199   4.132
49771W        W16554  31.252   2.380  14.365
49772W        W16555  32.385   4.446   3.225
49773W        W16556  41.958  19.714   2.207
49774W        W16557   7.950   3.685  13.142
49775W        W16558  38.288  33.972   4.694
49776W        W16559  21.509  11.967   4.526
49777W        W16560  29.182  38.426  10.605
49778W        W16561   3.103   0.737   1.711
49779W        W16562  41.532  36.307   4.150
49780W        W16563   2.356  37.751   4.616
49781W        W16564  15.765  33.100  12.285
49782W        W16565   7.677   6.885   3.284
49783W        W16566   8.124  24.036   4.480
49784W        W16567  10.199  14.319  10.830
49785W        W16568  16.122  27.551   3.204
49786W        W16569  28.344  22.565  13.387
49787W        W16570  37.489  12.844  14.324
49788W        W16571  14.718  20.736  14.276
49789W        W16572   6.424  11.250  14.363
49790W        W16573  42.471  23.001   4.961
49791W        W16574  41.402  33.635  12.533
49792W        W16575   0.817  39.316  11.359
49793W        W16576  23.491   4.059   4.040
49794W        W16577   3.947  25.170   1.892
49795W        W16578  13.452  24.470  13.806
49796W        W16579  26.509  21.930  14.576
49797W        W16580  13.317  41.634   3.089
49798W        W16581  37.734  44.792   3.811
49799W        W16582  13.283   9.654   2.269
49800W        W16583  22.008  44.395   4.485
49801W        W16584  31.942  37.918  11.051
49802W        W16585  35.994  26.530  10.627
49803W        W16586  35.155  26.578  13.296
49804W        W16587  10.699  35.425   4.527
49805W        W16588  14.250  10.054   3.251
49806W        W16589  40.253   6.850  13.848
49807W        W16590   1.322  10.973  14.824
49808W        W16591  38.301  35.581  14.323
49809W        W16592  26.038  10.331   3.706
49810W        W16593   9.581  37.978   2.793
49811W        W16594   1.921  44.301   0.898
49812W        W16595  17.721  24.218  10.512
49813W        W16596   9.403  43.501  10.510
49814W        W16597  13.137  25.535   3.532
49815W        W16598  39.948  25.084   3.336
49816W        W16599  11.068  37.516  10.765
49817W        W16600  29.035  32.428   2.790
49818W        W16601   9.378  17.159   4.613
49819W        W16602  30.685   1.229   3.377
49820W        W16603  29.038  13.659  12.325
49821W        W16604   7.174   3.355   1.356
49822W        W16605  11.365  36.864   1.862
49823W        W16606  34.116  19.272  14.907
49824W        W16607  42.908  40.926  12.952
49825W        W16608  15.631   4.830   1.287
49826W        W16609  30.448  37.129  11.512
49827W        W16610  44.075  24.046  11.178
49828W        W16611   3.955  37.771  10.795
49829W        W16612  10.118  11.999  11.479
49830W        W16613  29.120  25.097   1.006
49831W        W16614   4.830  34.051  13.798
49832W        W16615  43.349  22.794  13.810
49833W        W16616  28.727   6.199   3.621
49834W        W16617  11.815   6.429   4.482
49835W        W16618  16.310  25.429   0.422
49836W        W16619  40.607  41.162  11.162
49837W        W16620  43.038   4.513  14.328
49838W        W16621  19.776  19.087   0.872
49839W        W16622  20.914  31.623  11.336
49840W        W16623   8.428   7.255   0.231
49841W        W16624  37.546   4.920   1.113
49842W        W16625   7.805   7.481  11.707
49843W        W16626  41.887  42.237   2.022
49844W        W16627   7.838  26.029  10.695
49845W        W16628  22.336  41.122   0.446
49846W        W16629   5.262  31.000   1.696
49847W        W16630  42.754  15.758  13.811
49848W        W16631  38.726  31.024   2.262
49849W        W16632  12.676  26.118   2.789
49850W        W16633  19.691  37.608   2.445
49851W        W16634  23.518   5.326   9.962
49852W        W16635  10.555  25.692  11.093
49853W        W16636  44.516  40.392   0.888
49854W        W16637  43.270   7.425  11.451
49855W        W16638  34.975  10.557  14.459
49856W        W16639   3.308   8.035   2.649
49857W        W16640  27.230  44.735   3.709
49858W        W16641   1.959  34.542  13.418
49859W        W16642  27.985   6.729  12.452
49860W        W16643  22.624  30.561   2.170
49861W        W16644  42.551  20.672  11.176
49862W        W16645  28.983  35.088   4.547
49863W        W16646  33.594  28.127   2.898
49864W        W16647  20.115  41.077  14.289
49865W        W16648  11.883  16.310  11.926
49866W        W16649  25.221  18.588   2.794
49867W        W16650   3.883   2.906  13.621
49868W        W16651   1.544  24.730  13.348
49869W        W16652  12.772  14.169  14.534
49870W        W16653  36.391  23.421  13.137
49871W        W16654   5.844  11.985   3.215
49872W        W16655  11.915   2.341   1.559
49873W        W16656  23.027  44.505   2.115
49874W        W16657   6.223   0.213   1.448
49875W        W16658   1.924   8.313  14.544
49876W        W16659   9.340   1.896  13.229
49877W        W16660   4.363  29.806  13.973
49878W        W16661   6.968   4.330   2.585
49879W        W16662   9.196  10.914  12.506
49880W        W16663   0.334   1.744   4.474
49881W        W16664  37.094  24.167  13.875
49882W        W16665  41.635  43.784  11.090
49883W        W16666  31.886   3.863  14.840
49884W        W16667  19.396   7.186   4.470
49885W        W16668  42.741   7.017  10.592
49886W        W16669  30.406  25.170  11.446
49887W        W16670   2.783  32.920   1.877
49888W        W16671  29.653  38.908  13.965
49889W        W16672  26.657  24.027  11.158
49890W        W16673   9.374   2.339   0.223
49891W        W16674  35.149   6.773   3.585
49892W        W16675  28.102   4.209   1.785
49893W        W16676  33.395  42.814   4.559
49894W        W16677  26.719  15.282   2.361
49895W        W16678  35.050  30.120   0.808
49896W        W16679  31.891  10.806  12.977
49897W        W16680  40.601  26.783  14.872
49898W        W16681  44.586   8.101   0.326
49899W        W16682  37.590  20.202   1.274
49900W        W16683  21.115  18.576   3.733
49901W        W16684  21.781  35.534  10.725
49902W        W16685  30.536   2.734  13.352
49903W        W16686  22.694  20.306   0.181
49904W        W16687  21.702  25.641  12.430
49905W        W16688   5.840  24.161   2.621
49906W        W16689  22.685  24.621   3.081
49907W        W16690  41.398  33.976   2.903
49908W        W16691  44.570  11.027  12.456
49909W        W16692  18.845  35.404  12.608
49910W        W16693  38.711   0.210   4.693
49911W        W16694  41.145  12.276  12.018
49912W        W16695  39.588  24.954   0.904
49913W        W16696  36.057   3.408  12.566
49914W        W16697  13.182  42.892  14.858
49915W        W16698   6.338   2.030   0.409
49916W        W16699  37.394  26.404  12.143
49917W        W16700  24.078  11.805   2.818
49918W        W16701  34.477  34.931  12.853
49919W        W16702  21.815  19.555  12.754
49920W        W16703  36.260  19.014  11.134
49921W        W16704  10.787  34.386  12.000
49922W        W16705  12.480  35.089  14.461
49923W        W16706  30.980  28.636   3.673
49924W        W16707   4.938  43.302   3.764
49925W        W16708  19.677  24.733  13.385
49926W        W16709   8.776  10.521  10.237
49927W        W16710  29.402  28.674   2.312
49928W        W16711  39.513  16.856  13.950
49929W        W16712  43.025  34.489  14.784
49930W        W16713  28.070   0.949   3.692
49931W        W16714  22.148  28.137   3.362
49932W        W16715  44.831  16.176  10.304
49933W        W16716  31.095  14.272   0.394
49934W        W16717  16.054  23.699   0.618
49935W        W16718  23.779  36.173  11.587
49936W        W16719   4.350   1.501   2.831
49937W        W16720  34.030  24.190  12.833
49938W        W16721   1.997  36.416  12.410
49939W        W16722  19.177  17.548  12.631
49940W        W16723   6.392  38.360  14.014
49941W        W16724  44.367  43.201  13.463
49942W        W16725  39.908  41.067  14.025
49943W        W16726  18.165  36.019   0.495
49944W        W16727  35.970  25.663  13.127
49945W        W16728  36.878  13.595   2.324
49946W        W16729   6.629  36.377  11.762
49947W        W16730   0.767  43.646   0.488
49948W        W16731  19.977  35.028  13.409
49949W        W16732   7.362  20.851   3.669
49950W        W16733   8.887  13.570  13.369
49951W        W16734  25.848   4.993  12.119
49952W        W16735  44.206  11.342  14.870
49953W        W16736  32.059  33.220  12.365
49954W        W16737   9.102  34.793  13.799
49955W        W16738   2.780   2.067  14.218
49956W        W16739  31.157  19.696   1.760
49957W        W16740  34.479  39.068  13.382
49958W        W16741   5.733  32.464   3.374
49959W        W16742  20.223  36.065  10.960
49960W        W16743  31.468  42.058   0.697
49961W        W16744  10.601  26.974   3.722
49962W        W16745   5.698   2.916  14.881
49963W        W16746  37.004  22.337  14.734
49964W        W16747  36.456   7.715   0.817
49965W        W16748  23.102  32.054  11.633
49966W        W16749   9.867   0.276  13.692
49967W        W16750  25.154   9.575  12.840
49968W        W16751  17.340  18.749  11.057
49969W        W16752   4.025  18.762  14.698
49970W        W16753  27.238  43.292   1.765
49971W        W16754  30.353  12.452  13.820
49972W        W16755   1.000  37.381   3.676
49973W        W16756  22.758  13.637   3.747
49974W        W16757  35.491  18.785   2.817
49975W        W16758   4.371  26.685   2.305
49976W        W16759  11.181  42.220  10.637
49977W        W16760  37.616  33.660  14.405
49978W        W16761  13.876  15.601  13.340
49979W        W16762  44.238  15.572   0.885
49980W        W16763  28.095   7.913  11.986
49981W        W16764  39.077  28.479  12.019
49982W        W16765  21.801  31.071  12.087
49983W        W16766  28.058  24.618  13.472
49984W        W16767  43.373  43.574   4.095
49985W        W16768   4.850  28.708  14.469
49986W        W16769  43.572  26.703  14.414
49987W        W16770  29.677  22.377   4.192
49988W        W16771   6.200  15.172  14.473
49989W        W16772  10.420  16.893   0.037
49990W        W16773  32.562  29.118   1.280
49991W        W16774  11.632  28.401  11.561
49992W        W16775  22.516  41.395  12.881
49993W        W16776  40.351  21.685  13.332
49994W        W16777  37.762  10.124   4.744
49995W        W16778   2.439   2.563   3.357
49996W        W16779  12.419  13.739   3.436
49997W        W16780  36.347  41.609   3.222
49998W        W16781   9.781  18.397  13.650
49999W        W16782   6.689   4.639   1.484
50000W        W16783  16.483  38.164   1.756
50001W        W16784  26.302   0.577  11.655
50002W        W16785  42.529  26.944  10.917
50003W        W16786  27.516   1.240   0.998
50004W        W16787   0.791  42.016  11.886
50005W        W16788   4.929  27.632  11.552
50006W        W16789  20.558  17.086   4.035
50007W        W16790  24.770  24.393   5.220
50008W        W16791  41.098  32.417   1.841
50009W        W16792   2.342  39.025  14.014
50010W        W16793   8.863   3.348   0.946
50011W        W16794  42.796  32.016   4.626
50012W        W16795  18.048  16.660   2.193
50013W        W16796   1.276  21.471  13.524
50014W        W16797  22.975  15.671  11.920
50015W        W16798  29.349  41.073   3.120
50016W        W16799   6.512  32.138   4.518
50017W        W16800  28.861  42.726   3.469
50018W        W16801  31.637  35.929   2.464
50019W        W16802  44.677  43.270   2.879
50020W        W16803  16.814  30.090   3.099
50021W        W16804  35.951  20.417   2.915
50022W        W16805  17.088  31.979   1.785
50023W        W16806  34.375   9.144  12.477
50024W        W16807  16.173  12.866  12.009
50025W        W16808  10.678   7.168   2.479
50026W        W16809  33.032  30.937  11.723
50027W        W16810  30.024  44.687  14.913
50028W        W16811  19.361   8.343   1.705
50029W        W16812  36.624  18.707   3.372
50030W        W16813  35.907  36.370   0.876
50031W        W16814  43.770  16.605   4.150
50032W        W16815   6.891  15.828  10.491
50033W        W16816  22.112  16.319  11.910
50034W        W16817  18.140   7.239   1.283
50035W        W16818  42.448  40.840  13.146
50036W        W16819  25.138   0.034  12.439
50037W        W16820  10.724  30.516  12.800
50038W        W16821  12.661  19.448  12.220
50039W        W16822  35.980  25.290   3.991
50040W        W16823  41.925  39.860  14.898
50041W        W16824  38.095  24.154  13.756
50042W        W16825   5.793  36.367   4.783
50043W        W16826  18.661  12.312  12.992
50044W        W16827  34.078   4.193   2.136
50045W        W16828  32.577   6.486   1.732
50046W        W16829  35.068   9.367   1.403
50047W        W16830  31.877  34.417   0.281
50048W        W16831  44.240  19.148   4.158
50049W        W16832  12.098  31.449  10.643
50050W        W16833  23.589  24.933  14.039
50051W        W16834   2.861  10.905  11.175
50052W        W16835   5.186  40.424  12.465
50053W        W16836  38.368  42.271  13.620
50054W        W16837   0.837   5.342  12.412
50055W        W16838  18.707  16.333  12.424
50056W        W16839   3.488  41.274   2.892
50057W        W16840  16.274  43.418  10.639
50058W        W16841  35.574  19.450  13.934
50059W        W16842  14.402  39.895   2.096
50060W        W16843   9.224  31.000   1.901
50061W        W16844  28.778  41.741   1.871
50062W        W16845  40.286  37.892  14.797
50063W        W16846  22.207   0.422   0.890
50064W        W16847  40.562  38.517  11.081
50065W        W16848  41.565  26.421  14.908
50066W        W16849  25.389  37.991   0.508
50067W        W16850  18.684  14.877   4.204
50068W        W16851  39.056  17.204   4.002
50069W        W16852  26.947  22.701  10.288
50070W        W16853  15.703  38.177   2.815
50071W        W16854  42.721   8.099  12.556
50072W        W16855  42.453  19.686  14.962
50073W        W16856   7.491  40.986  13.132
50074W        W16857  14.587  43.800   4.878
50075W        W16858  30.220  25.350  14.014
50076W        W16859  16.113   7.833   4.882
50077W        W16860  15.547  34.787  12.082
50078W        W16861  30.644  44.955   0.511
50079W        W16862  37.326  40.998  11.330
50080W        W16863  40.969  27.639   4.574
50081W        W16864  31.753  35.295   5.084
50082W        W16865  10.832   0.753   4.763
50083W        W16866   3.743  30.005  13.999
50084W        W16867   1.143   9.647  12.013
50085W        W16868   5.063  34.330  13.201
50086W        W16869  32.024  41.491   4.641
50087W        W16870   9.139  41.309   1.356
50088W        W16871   5.946  10.685  13.042
50089W        W16872  32.024  23.113  10.735
50090W        W16873  17.639  24.722  10.325
50091W        W16874  27.676  17.765  10.831
50092W        W16875  16.340   5.616   2.730
50093W        W16876  23.659  21.770   3.678
50094W        W16877  41.355  19.176   3.786
50095W        W16878  33.079   3.849   4.045
50096W        W16879  12.361   7.908   0.222
50097W        W16880   7.175   2.426  14.435
50098W        W16881   0.765   0.033   0.331
50099W        W16882  36.565  26.272   0.599
50100W        W16883  43.959  40.380   3.064
50101W        W16884  34.588   2.735   0.743
50102W        W16885  43.504   5.796   4.967
50103W        W16886   0.363  37.584   2.679
50104W        W16887  20.843  44.978  13.353
50105W        W16888   9.712  17.919   2.124
50106W        W16889  36.482  40.475   3.231
50107W        W16890   2.233  12.315   1.660
50108W        W16891  36.435  19.539   9.806
50109W        W16892  22.705  30.038   5.046
50110W        W16893  40.796  15.017   0.339
50111W        W16894  38.568  40.892  13.758
50112W        W16895  15.168   0.421  13.439
50113W        W16896  37.236  30.213   1.401
50114W        W16897  15.185  11.829   0.214
50115W        W16898   3.438  12.408  14.009
50116W        W16899   5.297  16.509   4.305
50117W        W16900  21.976  11.223   1.250
50118W        W16901  27.104  29.984   1.915
50119W        W16902  25.167  25.136   0.819
50120W        W16903  29.709  17.779   0.787
50121W        W16904   7.293   9.731  10.685
50122W        W16905  44.306  34.184   4.316
50123W        W16906  21.575   4.954   3.218
50124W        W16907  42.779   5.778   0.376
50125W        W16908  24.232   5.728  13.027
50126W        W16909   0.685  40.326   0.347
50127W        W16910  34.728  28.858   2.777
50128W        W16911  29.427  19.217  13.575
50129W        W16912  44.533  11.223   3.171
50130W        W16913  36.530  21.663   2.775
50131W        W16914  15.170  20.361   2.634
50132W        W16915  15.202  21.493   0.923
50133W        W16916  42.995  19.890  10.671
50134W        W16917  40.616  16.229  12.941
50135W        W16918   1.759  31.112   0.404
50136W        W16919   1.634  43.498  12.577
50137W        W16920  38.868   7.655  10.891
50138W        W16921  30.711  13.099   1.755
50139W        W16922  15.832   5.868  13.569
50140W        W16923  32.154   1.844   1.574
50141W        W16924  16.854  17.217   2.166
50142W        W16925  27.409   3.846  13.032
50143W        W16926  18.171  38.493   2.310
50144W        W16927  18.766  18.719   5.080
50145W        W16928  43.866  24.967  13.517
50146W        W16929  11.878  42.971  11.294
50147W        W16930  21.203  11.037   2.688
50148W        W16931  43.719   9.864  11.862
50149W        W16932  36.600  15.270  11.264
50150W        W16933  40.067  25.171  12.499
50151W        W16934  22.007   3.529  12.790
50152W        W16935  21.065  40.908   2.715
50153W        W16936  12.684  28.887   3.398
50154W        W16937  18.200  35.043  12.331
50155W        W16938  30.602  31.953  12.913
50156W        W16939  20.121  39.835  11.991
50157W        W16940  25.461   7.821   0.757
50158W        W16941  34.435  29.607   4.445
50159W        W16942  19.048  14.585  12.607
50160W        W16943  11.633  38.759   0.599
50161W        W16944   1.512  20.195   0.752
50162W        W16945  16.562  16.536  14.401
50163W        W16946  23.133  36.422   0.921
50164W        W16947  41.481  44.794  10.897
50165W        W16948  38.432   1.263  13.137
50166W        W16949   1.292   6.635  14.829
50167W        W16950  36.783  17.753  10.907
50168W        W16951  12.070   1.839   1.792
50169W        W16952   9.267  41.440  10.357
50170W        W16953  25.294   2.314   5.770
50171W        W16954  11.697  19.563   4.248
50172W        W16955  21.159  19.806   0.691
50173W        W16956  29.840  11.045  12.560
50174W        W16957  10.562  33.424   4.296
50175W        W16958   3.415  26.546   0.184
50176W        W16959   1.057  43.828   3.153
50177W        W16960  42.862   2.540  11.505
50178W        W16961  39.453   8.228   2.553
50179W        W16962  31.470  38.388  14.912
50180W        W16963  30.647  19.594  14.910
50181W        W16964  23.113  29.226   2.360
50182W        W16965   5.841  30.442   0.416
50183W        W16966  42.013  21.205  11.565
50184W        W16967  44.655   2.775   0.207
50185W        W16968  39.259  42.425  11.060
50186W        W16969  37.623   3.789  13.283
50187W        W16970  41.417  27.147   3.529
50188W        W16971  18.157  38.879   2.922
50189W        W16972  25.462  12.109  10.287
50190W        W16973  22.043   3.932   1.275
50191W        W16974   8.648  25.510  14.732
50192W        W16975  10.034   3.742   1.365
50193W        W16976   4.030  39.990   4.053
50194W        W16977  12.667  16.017  12.498
50195W        W16978  15.555  18.743  13.035
50196W        W16979  26.504  10.471   0.428
50197W        W16980  11.611  36.602   4.690
50198W        W16981   5.937  37.546  12.247
50199W        W16982  26.708  22.112  11.250
50200W        W16983  14.452  24.532  13.427
50201W        W16984  40.792  22.537   1.876
50202W        W16985  37.967  16.760  10.705
50203W        W16986  16.513  16.834   4.445
50204W        W16987   4.782  27.207  10.769
50205W        W16988   3.925  44.799  14.439
50206W        W16989  41.247  31.614   2.922
50207W        W16990  29.584   2.895  14.739
50208W        W16991  10.303  30.783   1.607
50209W        W16992  12.629   4.834   1.762
50210W        W16993  34.867  36.836  13.114
50211W        W16994   7.267  23.940   1.975
50212W        W16995  16.149   5.378  10.318
50213W        W16996  29.219  28.174   2.383
50214W        W16997  11.018   3.881   4.118
50215W        W16998  30.435  13.651  11.642
50216W        W16999   9.913  33.019   4.580
50217W        W17000  40.192  10.343   2.807
50218W        W17001  43.753  20.918   9.739
50219W        W17002  10.609  11.194  11.106
50220W        W17003  40.296  41.470   2.416
50221W        W17004  10.224  32.680   1.304
50222W        W17005  23.245  34.999   0.901
50223W        W17006  38.639  26.162   4.665
50224W        W17007  31.657  33.108   3.283
50225W        W17008  30.427   1.276   0.932
50226W        W17009  14.045  23.496   3.225
50227W        W17010   7.202  40.498   2.773
50228W        W17011  26.992  35.373   0.866
50229W        W17012  43.323  17.866   4.119
50230W        W17013  44.705   4.792   0.181
50231W        W17014  23.232  20.227  11.109
50232W        W17015  34.082  34.396  10.861
50233W        W17016  13.196   7.577  14.192
50234W        W17017   8.730  39.387   1.644
50235W        W17018   5.178   4.942  11.269
50236W        W17019  39.463   5.371  10.772
50237W        W17020  39.117   9.949   4.354
50238W        W17021  17.844   0.256  13.992
50239W        W17022  35.087  33.070  14.392
50240W        W17023  20.314  36.374   1.833
50241W        W17024  15.114   5.673   0.825
50242W        W17025  12.370  44.220   1.080
50243W        W17026  39.791  36.698   2.845
50244W        W17027  35.014   1.684  14.389
50245W        W17028  18.007  30.579  12.575
50246W        W17029  37.375   8.943  14.827
50247W        W17030  39.385  32.543   3.336
50248W        W17031  28.478  18.365   1.471
50249W        W17032   5.882  29.444  10.741
50250W        W17033   2.435   4.717   2.829
50251W        W17034  38.299  37.327  13.822
50252W        W17035  26.323  23.376   4.329
50253W        W17036  25.190  40.526   0.343
50254W        W17037  20.777  15.347   1.887
50255W        W17038  19.695   8.903   4.148
50256W        W17039  13.649  42.897  14.551
50257W        W17040  17.877  40.101   2.477
50258W        W17041   0.728  37.419  11.458
50259W        W17042  42.129  21.216   0.079
50260W        W17043  38.391  25.345  11.017
50261W        W17044  40.596  12.396  12.019
50262W        W17045  44.541   1.442   0.248
50263W        W17046   3.155  37.761  11.041
50264W        W17047  15.679  44.681   2.613
50265W        W17048  10.852  29.191  12.926
50266W        W17049  43.536  11.382   1.709
50267W        W17050  11.461  12.117   1.814
50268W        W17051   8.745  36.144   2.372
50269W        W17052  40.810  13.180  11.865
50270W        W17053  24.092  14.938   4.252
50271W        W17054  24.609  19.552   3.188
50272W        W17055  32.220   8.563   3.226
50273W        W17056  38.550   2.811   4.532
50274W        W17057  44.431   2.071  13.452
50275W        W17058  26.684   0.260   0.043
50276W        W17059  16.677  18.260  13.003
50277W        W17060  40.395  23.669   4.533
50278W        W17061  44.027   5.313   0.236
50279W        W17062  17.252  22.229  14.896
50280W        W17063  37.628  15.750   3.616
50281W        W17064  38.929  13.359  14.377
50282W        W17065   1.472   5.806   4.187
50283W        W17066   4.201  29.290   0.918
50284W        W17067  19.243  43.707   4.647
50285W        W17068   9.717  36.808   1.450
50286W        W17069  31.868   6.449   0.985
50287W        W17070   6.769  43.794  12.099
50288W        W17071   3.745  19.162  13.813
50289W        W17072  23.734  32.914  14.497
50290W        W17073   2.969  34.609   4.124
50291W        W17074   1.412  24.602   2.725
50292W        W17075  17.275  28.592   4.053
50293W        W17076  22.308  38.547  13.955
50294W        W17077  30.781  27.734   1.686
50295W        W17078   8.891  36.103  11.407
50296W        W17079   6.701  44.872   4.430
50297W        W17080  38.774  16.382  14.946
50298W        W17081  18.992   1.496  11.558
50299W        W17082  28.930  38.233  11.451
50300W        W17083  10.697  19.550  11.456
50301W        W17084  37.954  22.482   2.318
50302W        W17085   6.860  16.531   5.014
50303W        W17086  17.170  25.240  12.502
50304W        W17087   7.386  42.107   0.523
50305W        W17088  30.439  27.169   1.873
50306W        W17089  41.478  14.589  14.852
50307W        W17090  33.554  14.288   2.731
50308W        W17091  31.575  32.743   1.657
50309W        W17092  22.902  18.100  11.157
50310W        W17093   3.423  27.683  13.547
50311W        W17094   3.625  10.397   9.852
50312W        W17095  19.014  38.057  11.009
50313W        W17096  27.866   3.694   4.066
50314W        W17097  16.746  10.455   0.889
50315W        W17098  18.957  11.052  11.105
50316W        W17099  14.834  24.238   4.114
50317W        W17100  14.404  12.388   3.691
50318W        W17101   2.389  17.295   2.954
50319W        W17102  27.587  27.745  12.185
50320W        W17103  29.443  22.770  11.680
50321W        W17104  19.528   7.040  11.241
50322W        W17105  32.621  25.508  12.967
50323W        W17106  34.590  20.384   2.676
50324W        W17107   4.299  30.943  13.196
50325W        W17108   7.412  12.472   3.848
50326W        W17109  10.581   8.243  14.054
50327W        W17110  36.231  36.403   4.326
50328W        W17111  11.904  11.718   3.621
50329W        W17112  38.385   7.251  13.900
50330W        W17113  34.702  40.324   3.082
50331W        W17114  22.731  32.199   4.427
50332W        W17115   8.417  16.026  12.244
50333W        W17116  37.431  39.007  12.576
50334W        W17117  23.310  10.272   4.213
50335W        W17118  42.814   7.414   2.650
50336W        W17119   1.752  34.859   2.218
50337W        W17120  11.680  12.654   3.842
50338W        W17121  28.740  12.420  12.483
50339W        W17122  19.382  21.013   2.845
50340W        W17123  38.814  43.747   4.457
50341W        W17124   8.494  44.958   3.690
50342W        W17125   1.362   2.307  12.571
50343W        W17126  25.951   7.371  10.918
50344W        W17127   0.680   9.285   2.645
50345W        W17128  17.394  36.542   5.225
50346W        W17129  16.843  35.498   4.848
50347W        W17130  35.506  44.978  14.471
50348W        W17131   7.388   0.512   2.355
50349W        W17132  40.557  26.980  13.544
50350W        W17133  11.184  29.918   0.236
50351W        W17134  30.522   2.870   2.272
50352W        W17135  38.503  13.150   1.372
50353W        W17136  10.152  21.318  14.336
50354W        W17137   1.575   0.523   0.682
50355W        W17138   4.854  35.997   0.850
50356W        W17139  13.073  20.238  12.112
50357W        W17140  20.528  28.093   3.341
50358W        W17141   1.390  20.779   4.250
50359W        W17142   3.447  25.607   0.672
50360W        W17143  15.662  30.601   1.296
50361W        W17144  44.708  44.533   0.331
50362W        W17145  14.074  38.432  13.452
50363W        W17146  10.170  24.103  13.876
50364W        W17147  40.293  32.467  13.529
50365W        W17148  24.603  40.675  14.433
50366W        W17149  41.071  44.251  13.595
50367W        W17150  18.765   0.958  12.629
50368W        W17151  35.517  17.071   4.700
50369W        W17152  34.550  11.217   1.195
50370W        W17153  15.987   7.675  14.356
50371W        W17154   7.187  36.767   3.118
50372W        W17155   2.315  27.942  13.954
50373W        W17156   7.461  36.006  11.425
50374W        W17157  36.066  21.475  11.540
50375W        W17158  28.913   4.314   3.652
50376W        W17159  31.642  21.220   2.135
50377W        W17160   9.557  10.593   3.221
50378W        W17161  34.852  29.347   2.667
50379W        W17162  25.576  25.033  13.905
50380W        W17163   3.736   8.147   4.344
50381W        W17164  37.807   5.009   0.680
50382W        W17165  38.991   9.388  12.996
50383W        W17166  12.679   4.190   2.861
50384W        W17167  26.741  39.535   0.333
50385W        W17168  28.127  21.350   4.605
50386W        W17169  38.332  22.045  14.464
50387W        W17170  19.548  34.473   3.254
50388W        W17171   7.797  18.301  12.857
50389W        W17172  25.944   7.173   1.364
50390W        W17173  38.289  17.257  10.669
50391W        W17174  27.005   5.286  11.064
50392W        W17175   1.333  22.262   0.729
50393W        W17176  19.416  42.289  14.747
50394W        W17177  30.388  20.693  12.101
50395W        W17178   8.232   4.810  11.171
50396W        W17179  17.559  12.256   0.207
50397W        W17180  39.630  32.025   1.953
50398W        W17181  42.693  34.202  11.608
50399W        W17182   8.792   9.600   3.651
50400W        W17183  43.378   0.632  13.776
50401W        W17184   9.332  13.292  13.508
50402W        W17185  29.311  32.831   3.782
50403W        W17186  22.063  38.413   3.045
50404W        W17187   2.892  26.594   3.333
50405W        W17188  34.848  35.445  12.620
50406W        W17189  15.864  40.259   1.055
50407W        W17190  43.860  23.288   3.685
50408W        W17191  14.854  37.996   0.228
50409W        W17192  25.288  13.955  13.015
50410W        W17193  37.944  44.997  11.059
50411W        W17194   6.216  19.643  14.320
50412W        W17195   4.933   6.799  11.493
50413W        W17196  39.018  35.071   2.377
50414W        W17197  41.336  35.493  12.052
50415W        W17198  37.301  31.990   1.224
50416W        W17199  10.758  41.499   1.436
50417W        W17200  35.536  33.165  10.762
50418W        W17201  16.635   7.895   1.819
50419W        W17202   4.727   2.945  11.157
50420W        W17203  41.994  26.647   1.984
50421W        W17204  26.156  39.020  11.619
50422W        W17205  18.098  23.254  14.904
50423W        W17206  24.253   6.761   4.159
50424W        W17207  16.739  11.364  11.134
50425W        W17208   2.922  37.385   2.654
50426W        W17209  31.073  12.839  14.482
50427W        W17210   7.754  24.005   0.672
50428W        W17211  30.633  38.064   0.405
50429W        W17212  27.921  18.913  14.434
50430W        W17213  38.906  23.191  11.351
50431W        W17214  36.514  20.550  13.915
50432W        W17215  25.682   1.664   3.053
50433W        W17216   0.025  15.768   4.508
50434W        W17217  33.073  33.095  12.556
50435W        W17218   7.103  30.954  13.302
50436W        W17219  40.564  35.142   0.790
50437W        W17220  19.768  43.190  11.781
50438W        W17221  31.701  14.971   2.249
50439W        W17222  35.645  36.235  13.691
50440W        W17223  18.058  32.848   1.320
50441W        W17224  36.582  16.262  11.465
50442W        W17225  36.666  24.520  12.388
50443W        W17226  21.571  11.336  11.581
50444W        W17227  22.862  26.082  12.107
50445W        W17228   6.153  41.529   1.808
50446W        W17229  26.454  10.735   1.285
50447W        W17230   3.554  30.503   4.652
50448W        W17231  14.108  42.715  14.299
50449W        W17232  33.743  19.228  13.068
50450W        W17233   1.632  20.169   4.532
50451W        W17234  38.800  28.446   3.212
50452W        W17235   0.391  13.154  12.396
50453W        W17236   5.783  41.334   3.922
50454W        W17237  13.752  30.672   2.101
50455W        W17238   7.739  37.908  11.068
50456W        W17239  42.373  13.318   3.883
50457W        W17240  24.669  38.479   1.017
50458W        W17241   0.286   7.052  11.095
50459W        W17242  38.813   0.769   2.015
50460W        W17243  41.496  30.715   1.306
50461W        W17244  39.338  39.611  13.833
50462W        W17245  14.070  40.468   3.788
50463W        W17246   3.816  41.305  10.741
50464W        W17247  35.368  18.014  13.442
50465W        W17248   4.671  13.865  13.006
50466W        W17249  32.622  16.639   4.520
50467W        W17250  43.924  10.625  13.168
50468W        W17251  44.718  19.789  12.610
50469W        W17252  22.721   6.736  13.010
50470W        W17253  18.585   9.726   3.837
50471W        W17254  31.155  17.675  14.082
50472W        W17255   0.263  37.033   3.204
50473W        W17256  40.757  23.287  11.572
50474W        W17257   5.379  29.596   2.453
50475W        W17258  21.104  15.062  14.211
50476W        W17259  12.486  36.861  12.896
50477W        W17260  27.019   5.874  12.190
50478W        W17261  38.444  34.237  11.470
50479W        W17262   9.830  23.542   0.807
50480W        W17263  22.142  27.238  14.030
50481W        W17264  11.327   4.257   0.844
50482W        W17265  41.586  43.087   4.129
50483W        W17266  17.980  22.994  10.599
50484W        W17267   6.875  42.679   1.578
50485W        W17268  12.146  22.985   4.558
50486W        W17269   8.137  24.969  13.051
50487W        W17270   1.412   3.347   4.144
50488W        W17271  32.103  27.621  12.977
50489W        W17272  24.439   3.344  14.918
50490W        W17273   5.853  23.051   1.771
50491W        W17274  28.915   4.765   3.362
50492W        W17275  20.934  43.181  12.912
50493W        W17276   3.666  18.149   1.385
50494W        W17277  22.483  21.354   4.657
50495W        W17278  11.120   6.413   1.479
50496W        W17279   1.189   7.813  14.510
50497W        W17280  27.858   3.380   1.690
50498W        W17281  22.430  43.388   2.706
50499W        W17282  28.037  34.151  13.853
50500W        W17283  17.375   7.077  11.136
50501W        W17284  24.280  29.534  13.251
50502W        W17285  13.638  42.260   0.453
50503W        W17286  19.744   4.287   1.311
50504W        W17287  19.569   7.975  14.955
50505W        W17288  44.882   9.760   2.256
50506W        W17289   6.156  31.705   3.847
50507W        W17290  38.470   1.350   2.920
50508W        W17291  37.947  32.539   1.382
50509W        W17292  41.905  10.568   1.358
50510W        W17293  44.160  24.563   3.869
50511W        W17294  33.433  30.923   1.317
50512W        W17295   7.938  23.140   4.160
50513W        W17296  36.226   9.725  14.356
50514W        W17297  33.625  19.029   3.822
50515W        W17298  19.094  41.505   1.869
50516W        W17299  14.111  18.683   2.693
50517W        W17300  14.338  11.717   0.539
50518W        W17301  33.436  42.731   3.239
50519W        W17302   5.211   6.083   4.127
50520W        W17303  24.758  33.464   4.058
50521W        W17304   6.361  20.628   1.290
50522W        W17305  40.437  21.974   1.406
50523W        W17306  14.083   4.753   1.386
50524W        W17307  23.174  23.042  10.583
50525W        W17308  41.039  33.870   0.855
50526W        W17309   2.974  12.279   2.294
50527W        W17310   2.400  20.396  11.975
50528W        W17311  22.799  30.468  12.046
50529W        W17312  35.107  11.838  11.015
50530W        W17313   5.243   6.082  14.690
50531W        W17314  31.492  36.023   4.511
50532W        W17315   7.678   6.160  10.408
50533W        W17316  42.150   5.443   9.945
50534W        W17317  31.034  37.912   4.640
50535W        W17318  35.791   4.420  12.825
50536W        W17319  32.531   7.154  12.526
50537W        W17320  12.894  16.160  14.522
50538W        W17321  44.443  43.416  12.161
50539W        W17322   9.684  28.422  14.754
50540W        W17323  26.414  12.613   2.312
50541W        W17324  34.551   9.800   0.798
50542W        W17325  36.073  36.537  11.103
50543W        W17326  29.909   5.103  12.813
50544W        W17327  34.206  25.535   3.637
50545W        W17328  14.806  27.182  14.471
50546W        W17329  11.388  27.252  12.704
50547W        W17330   5.132   9.803   2.215
50548W        W17331  18.501  31.315  14.396
50549W        W17332   2.006  37.038   0.997
50550W        W17333  24.203  16.622  14.066
50551W        W17334  11.852  27.903   0.225
50552W        W17335  15.506   7.892  12.950
50553W        W17336  39.810   5.225   2.942
50554W        W17337  33.905  37.121  13.409
50555W        W17338  23.051  42.066   1.344
50556W        W17339  20.421  27.580  14.550
50557W        W17340  20.743  30.169  14.942
50558W        W17341   1.797   2.002   2.178
50559W        W17342  10.122  12.394   0.687
50560W        W17343  19.973  32.951   0.007
50561W        W17344  39.880   4.016   0.250
50562W        W17345   5.146  30.990   3.656
50563W        W17346  19.576  18.049   0.673
50564W        W17347  40.532  19.507   0.875
50565W        W17348  12.637  36.284   4.676
50566W        W17349  35.060  31.996   0.389
50567W        W17350   5.306  27.930  11.357
50568W        W17351   2.836  28.573   2.181
50569W        W17352  32.086  13.260  12.283
50570W        W17353  35.903  37.523  11.338
50571W        W17354  19.986  39.774   4.157
50572W        W17355  41.245  13.165  13.351
50573W        W17356  11.217  38.634  12.444
50574W        W17357  43.323  31.429   3.636
50575W        W17358  11.908  17.642  11.591
50576W        W17359   2.783   8.545   4.178
50577W        W17360  42.775  13.047  14.981
50578W        W17361  27.610  24.541   1.665
50579W        W17362  37.742   2.746   1.372
50580W        W17363  12.568  33.375   0.847
50581W        W17364  38.848  25.439  11.253
50582W        W17365  20.150  12.882   0.925
50583W        W17366  28.355  24.616   2.667
50584W        W17367  20.035   7.812   3.791
50585W        W17368  23.994   0.303  10.969
50586W        W17369  28.364  39.796   0.744
50587W        W17370   6.193   7.818   0.702
50588W        W17371  40.922  35.535   0.799
50589W        W17372  19.743  36.033  10.757
50590W        W17373  34.908   7.369   0.292
50591W        W17374   2.365  33.487   1.217
50592W        W17375  37.002  19.106   0.839
50593W        W17376   2.877  32.406   1.766
50594W        W17377   7.732   1.248   2.225
50595W        W17378  22.119  21.482   1.704
50596W        W17379  29.393   3.279   0.062
50597W        W17380  16.537  23.080   3.287
50598W        W17381  40.093  15.580  11.104
50599W        W17382  29.431  19.236  10.960
50600W        W17383  24.665  37.875  10.955
50601W        W17384  41.285  33.502   1.591
50602W        W17385   3.646  36.517  11.557
50603W        W17386   5.046   0.254  11.405
50604W        W17387   0.064  17.657  11.965
50605W        W17388  24.326   0.816  11.573
50606W        W17389   5.122  14.174   3.304
50607W        W17390  32.348  21.135   3.562
50608W        W17391   1.894  18.790  10.437
50609W        W17392  28.671  42.955   0.379
50610W        W17393  38.015  30.637   0.213
50611W        W17394   6.752  29.023  12.006
50612W        W17395  23.180   4.842   1.627
50613W        W17396   0.190  17.684   1.710
50614W        W17397   0.809  40.589  12.379
50615W        W17398  32.091  36.797   0.905
50616W        W17399  12.099   8.156   1.849
50617W        W17400  28.551  35.294  12.618
50618W        W17401   2.889  13.679  13.488
50619W        W17402  18.812  30.457  14.857
50620W        W17403  11.699  34.818  11.615
50621W        W17404  12.128   9.667   4.858
50622W        W17405  17.790  42.229  13.825
50623W        W17406   7.327   8.613   4.645
50624W        W17407   7.247  30.623   0.863
50625W        W17408  20.953  13.787  13.016
50626W        W17409  32.424  18.359  13.613
50627W        W17410   7.815  39.093   3.333
50628W        W17411   9.287  34.596   4.041
50629W        W17412  37.819  19.691  11.465
50630W        W17413   3.762  20.157   0.202
50631W        W17414  16.159  28.588  14.841
50632W        W17415   7.863   6.945   1.390
50633W        W17416  30.825  23.210  11.604
50634W        W17417  43.933  16.942   9.706
50635W        W17418   1.478  36.499  14.394
50636W        W17419   5.129   1.679  13.388
50637W        W17420  27.907  12.171   2.788
50638W        W17421  12.114  44.920  14.797
50639W        W17422   3.275   8.178  12.050
50640W        W17423  36.152  42.988  13.031
50641W        W17424  24.010  13.717  12.556
50642W        W17425  40.282  30.709  11.531
50643W        W17426  41.778  27.046   0.702
50644W        W17427   0.221  36.118  13.012
50645W        W17428  22.564   7.952   3.298
50646W        W17429  43.416  36.484   2.354
50647W        W17430  30.472  10.155  14.032
50648W        W17431  12.306  42.562   2.094
50649W        W17432  28.418   9.614  14.425
50650W        W17433  41.465   0.194   3.101
50651W        W17434  30.059  15.438  11.136
50652W        W17435  18.253  35.627  14.928
50653W        W17436   5.252  14.773   4.712
50654W        W17437  26.516  32.476  11.610
50655W        W17438  10.290  18.119   4.561
50656W        W17439  40.806   5.863   1.499
50657W        W17440  24.708   2.351   1.834
50658W        W17441  12.314  15.287   1.208
50659W        W17442  30.939  31.978   0.879
50660W        W17443  23.300  29.048  12.400
50661W        W17444  12.473  20.673   1.115
50662W        W17445  33.039  39.509   4.692
50663W        W17446  21.772  35.602  11.605
50664W        W17447   5.731  12.806   1.263
50665W        W17448   9.761  44.513   0.214
50666W        W17449  43.496  23.621   3.455
50667W        W17450  13.179  20.009   4.115
50668W        W17451  32.607  23.303   4.116
50669W        W17452  12.187  16.376   0.793
50670W        W17453  31.412  22.217   4.681
50671W        W17454  24.667  30.933  10.345
50672W        W17455  42.286  42.804   3.738
50673W        W17456   2.561  39.160   0.796
50674W        W17457  32.315  17.212   3.127
50675W        W17458  19.457  28.806  12.197
50676W        W17459  31.891  27.430   3.113
50677W        W17460   9.840  15.190   0.922
50678W        W17461  22.859  32.055   2.280
50679W        W17462  41.146  25.523  12.995
50680W        W17463  27.576  17.550  13.399
50681W        W17464  25.056  29.675   3.723
50682W        W17465  18.695  42.381   0.995
50683W        W17466  16.854   1.749   4.190
50684W        W17467  39.882   2.885   2.011
50685W        W17468  25.145   6.439   0.736
50686W        W17469  39.396  16.107   1.644
50687W        W17470   6.277  38.496   4.507
50688W        W17471  32.946  40.915  11.056
50689W        W17472  18.696  26.930   2.872
50690W        W17473  24.757  16.946   0.901
50691W        W17474  35.494  27.878   1.607
50692W        W17475  24.569  28.030  14.303
50693W        W17476  43.547  25.122  12.855
50694W        W17477  42.593  17.542   1.079
50695W        W17478   0.837   1.084  13.908
50696W        W17479  26.695  42.883   1.317
50697W        W17480  33.952  23.017  11.095
50698W        W17481  25.670  38.456   0.537
50699W        W17482   7.013   5.942   1.787
50700W        W17483  18.014   8.720   0.526
50701W        W17484  39.523  26.233   3.262
50702W        W17485  42.893   3.046  11.579
50703W        W17486  17.532  30.940  13.004
50704W        W17487  39.378  20.212   4.201
50705W        W17488  41.919   0.263  14.060
50706W        W17489  44.951  28.660  11.104
50707W        W17490   5.611  36.639  13.968
50708W        W17491  33.925  24.930  13.339
50709W        W17492  20.167  14.117  14.807
50710W        W17493  43.860  38.866  13.096
50711W        W17494   3.723  40.101   0.651
50712W        W17495   3.986  41.784   1.411
50713W        W17496  44.470  39.847  11.486
50714W        W17497  10.487  39.263   1.325
50715W        W17498  36.770  13.864  11.132
50716W        W17499   4.135  27.181   3.157
50717W        W17500  24.654  15.649   4.217
50718W        W17501  21.575  12.972  14.486
50719W        W17502  17.527  18.669  14.316
50720W        W17503  22.975  40.912  11.500
50721W        W17504  24.804  16.938   1.772
50722W        W17505  21.636   8.943  14.538
50723W        W17506  22.419   8.736  13.026
50724W        W17507  42.512  15.350   2.776
50725W        W17508  20.788   0.262   2.187
50726W        W17509  38.272  17.752  11.897
50727W        W17510  12.676   4.225   3.703
50728W        W17511   7.842  43.263  12.053
50729W        W17512  30.669  10.762   2.852
50730W        W17513  31.953  25.628  14.566
50731W        W17514  44.374   5.344  13.244
50732W        W17515  38.571  12.856   1.793
50733W        W17516  30.075  18.831  10.442
50734W        W17517  15.340   7.095   0.621
50735W        W17518  41.870  12.762   3.576
50736W        W17519  33.118  30.004  13.559
50737W        W17520   0.846  25.576   0.468
50738W        W17521  10.214  43.201   3.185
50739W        W17522  11.207  42.829  12.899
50740W        W17523  35.900  22.637  12.155
50741W        W17524   3.602  30.140  14.921
50742W        W17525  41.362  15.082  12.978
50743W        W17526  22.772  28.923  10.924
50744W        W17527   1.686  13.644   1.223
50745W        W17528  19.025   8.374  12.401
50746W        W17529  31.564  32.981   4.845
50747W        W17530  44.768  26.237  10.549
50748W        W17531  30.973   0.524   2.067
50749W        W17532  21.000   4.621   1.185
50750W        W17533  43.563   4.776  11.057
50751W        W17534  32.907  26.643  12.381
50752W        W17535  30.460  21.993   4.685
50753W        W17536   6.200   3.845  13.903
50754W        W17537   3.990  21.609   3.812
50755W        W17538   3.301  41.600  12.939
50756W        W17539  31.850  33.388   4.978
50757W        W17540  23.967  33.283   3.698
50758W        W17541   7.054  11.205   2.410
50759W        W17542   5.828  17.776   4.617
50760W        W17543  43.562   6.821   4.016
50761W        W17544  15.269  11.543  11.914
50762W        W17545  16.635  29.163  13.901
50763W        W17546   1.733  32.166   4.560
50764W        W17547  11.156   3.855   0.607
50765W        W17548  27.711  10.330   2.678
50766W        W17549  28.559  20.231  12.773
50767W        W17550  34.038  38.585  12.059
50768W        W17551  18.029  12.078  11.149
50769W        W17552  16.287  11.794   4.199
50770W        W17553  11.508  11.831   0.716
50771W        W17554   9.565  43.297   2.643
50772W        W17555  13.114  17.805  14.810
50773W        W17556  37.091   6.151   1.869
50774W        W17557  41.300  12.163   0.945
50775W        W17558   0.731  31.073  13.544
50776W        W17559  28.380  32.414  12.478
50777W        W17560  22.973  43.848  14.917
50778W        W17561  21.340   0.426  12.845
50779W        W17562  12.678  12.519   1.038
50780W        W17563  13.745  17.251  13.492
50781W        W17564   2.283  21.244  11.614
50782W        W17565  39.702  44.885   4.702
50783W        W17566  29.827  18.971   1.872
50784W        W17567  11.573  15.072   1.912
50785W        W17568   4.808  39.941   2.029
50786W        W17569   1.223  43.597  14.037
50787W        W17570   5.356   9.135  12.609
50788W        W17571   9.314   2.983  11.583
50789W        W17572   3.283  14.226   1.138
50790W        W17573  34.510  17.300  11.943
50791W        W17574  23.520  35.092  10.347
50792W        W17575   2.758  15.641  11.178
50793W        W17576   1.675   2.020   0.296
50794W        W17577  26.491   3.381   3.654
50795W        W17578   2.588  16.153   3.256
50796W        W17579  19.316  32.563   3.681
50797W        W17580  21.606  36.369   2.732
50798W        W17581   7.458  23.724  12.493
50799W        W17582  20.516  37.541   2.254
50800W        W17583   4.649  40.437  12.453
50801W        W17584  15.185  39.050   3.666
50802W        W17585   2.856  13.987   1.372
50803W        W17586  40.810  27.243  14.755
50804W        W17587  42.706  36.012  12.463
50805W        W17588   4.483   9.290  10.717
50806W        W17589  38.378  29.910  12.124
50807W        W17590  36.425  26.313  11.773
50808W        W17591  37.882  36.777  10.923
50809W        W17592  22.777  42.904   1.905
50810W        W17593  22.160  27.574  13.096
50811W        W17594  33.579  43.409  11.596
50812W        W17595  37.558   9.142  14.344
50813W        W17596  16.019  35.927   0.424
50814W        W17597  34.293  12.670  14.804
50815W        W17598   4.320  17.718   2.573
50816W        W17599  44.785  17.668  10.458
50817W        W17600   9.325  23.801  13.871
50818W        W17601  32.851  33.228   2.401
50819W        W17602  22.783  43.599  11.881
50820W        W17603   9.875  12.040   3.251
50821W        W17604  24.747  17.505  13.978
50822W        W17605   2.014  12.858   0.336
50823W        W17606   0.709  20.147   4.663
50824W        W17607  38.522  25.286   4.460
50825W        W17608  13.377  18.702   1.827
50826W        W17609  25.487  14.592   3.253
50827W        W17610  26.033  25.461   1.927
50828W        W17611  38.407  20.091   0.243
50829W        W17612  36.045  14.847  10.660
50830W        W17613  23.443   4.687  13.870
50831W        W17614  12.239  16.288   4.598
50832W        W17615   6.812  31.377  10.682
50833W        W17616   5.468  24.946   2.025
50834W        W17617  30.092  32.927   4.863
50835W        W17618  35.067  19.316  13.911
50836W        W17619  33.371  19.567  11.516
50837W        W17620  20.639  12.307   0.883
50838W        W17621  34.104  41.371   2.212
50839W        W17622  20.894  18.600   1.832
50840W        W17623  34.466  18.707  10.712
50841W        W17624  25.979  14.737  10.565
50842W        W17625  30.544   0.575   4.530
50843W        W17626  33.520  31.637  11.507
50844W        W17627  15.277   6.728   2.469
50845W        W17628   8.479   1.844   2.198
50846W        W17629  19.673   6.198  12.334
50847W        W17630  10.400  15.277  11.279
50848W        W17631  24.108  41.651  14.229
50849W        W17632  41.037  31.234  12.136
50850W        W17633  24.090  44.403   3.585
50851W        W17634  28.049  32.401  12.928
50852W        W17635  20.061  13.753   3.304
50853W        W17636  31.451  30.585   1.385
50854W        W17637  40.601  39.124  14.101
50855W        W17638  23.803  16.243   4.077
50856W        W17639  20.597   7.813   2.093
50857W        W17640  37.447   1.646  13.518
50858W        W17641   1.474   0.393  12.938
50859W        W17642  30.113   7.301  12.430
50860W        W17643   5.274   2.542  13.170
50861W        W17644  12.343   1.876  13.034
50862W        W17645  12.385  27.243  13.302
50863W        W17646  32.336  28.647  12.078
50864W        W17647  28.933  42.484   0.450
50865W        W17648  32.600  24.243   2.306
50866W        W17649  44.270  40.298   0.433
50867W        W17650   8.793  35.225   3.357
50868W        W17651   1.135  37.797  13.517
50869W        W17652   0.028   3.288   1.381
50870W        W17653  33.511  17.793   2.931
50871W        W17654   5.216  15.370  13.472
50872W        W17655   6.080  23.462  13.058
50873W        W17656  34.869  30.138  11.587
50874W        W17657  29.899  27.008  13.924
50875W        W17658  25.706  43.803   4.600
50876W        W17659  12.386   9.096   1.870
50877W        W17660   3.607  12.881  13.923
50878W        W17661   1.757  12.674  11.517
50879W        W17662  35.279  26.079   1.880
50880W        W17663  34.410  25.459  14.964
50881W        W17664  35.297   6.339   0.782
50882W        W17665  42.109  16.261   4.967
50883W        W17666  41.439  43.749   0.191
50884W        W17667  18.737  41.485   4.558
50885W        W17668  17.770  34.709  14.325
50886W        W17669  26.307  31.423  11.352
50887W        W17670  43.909  44.520  14.181
50888W        W17671  29.469  32.156   2.858
50889W        W17672  21.209  38.509  10.875
50890W        W17673  35.522  32.153   1.328
50891W        W17674  14.803  36.023  13.039
50892W        W17675  37.931  20.991   2.381
50893W        W17676  14.881  14.095  11.170
50894W        W17677  42.016  31.200   3.187
50895W        W17678  30.253  36.064  12.921
50896W        W17679  38.890  15.702   1.638
50897W        W17680  18.716   9.129  11.916
50898W        W17681  14.874  27.709   2.672
50899W        W17682   6.439  41.561  12.137
50900W        W17683  28.561  44.685  13.145
50901W        W17684   8.345  17.393  13.470
50902W        W17685  29.138   4.904   4.931
50903W        W17686  30.813  14.277  10.313
50904W        W17687  44.277  13.144  11.158
50905W        W17688  38.712  43.535  12.963
50906W        W17689   7.393  16.562  10.770
50907W        W17690   2.352  25.046   0.465
50908W        W17691   3.361  38.826   4.549
50909W        W17692  28.244  17.965   0.857
50910W        W17693  32.994  13.613   3.349
50911W        W17694   1.273  24.064  12.525
50912W        W17695  20.780  44.960  11.327
50913W        W17696   7.289  24.037   1.460
50914W        W17697  25.847  31.687  14.135
50915W        W17698  32.106  21.452   2.379
50916W        W17699   6.678  39.851  11.948
50917W        W17700  17.761   8.987  14.100
50918W        W17701  33.505  40.281  10.587
50919W        W17702  13.815  20.116   1.264
50920W        W17703  23.073  25.656   1.438
50921W        W17704  22.543   0.331  14.497
50922W        W17705  35.989   9.661  12.090
50923W        W17706  41.400  20.754  12.632
50924W        W17707  31.201  18.675   2.683
50925W        W17708  35.405  27.601  11.889
50926W        W17709  35.989  23.251   4.262
50927W        W17710  44.749  44.396  14.461
50928W        W17711  34.051  44.454   0.823
50929W        W17712  19.497  33.131   1.844
50930W        W17713  17.464  13.658   9.655
50931W        W17714  38.339  22.952   1.719
50932W        W17715  39.035  18.723  14.234
50933W        W17716  35.957  23.659  12.896
50934W        W17717   7.241  19.652  11.189
50935W        W17718  16.276  11.893  14.420
50936W        W17719  22.098  32.210  11.500
50937W        W17720  38.775  34.160  13.558
50938W        W17721  11.057  29.037  13.462
50939W        W17722  22.239  34.976  11.632
50940W        W17723   7.625  41.794  13.348
50941W        W17724  44.259  16.823   4.987
50942W        W17725  27.894  43.341  12.167
50943W        W17726  12.823  22.900   0.934
50944W        W17727  19.807  27.095  11.524
50945W        W17728  32.668  33.092   3.629
50946W        W17729  22.615   0.221   1.232
50947W        W17730  41.718   9.880   0.754
50948W        W17731  18.505  11.125  12.556
50949W        W17732  44.081  25.511  13.673
50950W        W17733  35.429  29.292  14.975
50951W        W17734  18.081  40.618  14.435
50952W        W17735  43.735  26.974  14.823
50953W        W17736  12.061  33.571   2.280
50954W        W17737   1.280  20.447  13.425
50955W        W17738  27.002  35.216   2.819
50956W        W17739  12.176  30.103   1.422
50957W        W17740  44.269  20.099  13.605
50958W        W17741   0.941  20.505  12.565
50959W        W17742  37.898  13.717  11.181
50960W        W17743  16.748  34.070  14.304
50961W        W17744  36.164  24.531  12.502
50962W        W17745  40.280   4.433  12.721
50963W        W17746  43.809  31.370   3.496
50964W        W17747  31.453  13.766  13.327
50965W        W17748  40.996  40.877   3.180
50966W        W17749  22.133  30.724  11.956
50967W        W17750   4.739  12.151  14.753
50968W        W17751   2.147  40.485   4.719
50969W        W17752   5.296   5.044   1.242
50970W        W17753  21.591  42.835  12.385
50971W        W17754  40.403  36.812  10.621
50972W        W17755  44.236   7.409  13.468
50973W        W17756   3.835  28.102   2.521
50974W        W17757  39.424  19.306  11.410
50975W        W17758  36.172  18.155   4.071
50976W        W17759  12.780  22.259  11.544
50977W        W17760   6.586   3.556   0.455
50978W        W17761  30.861  41.610  11.020
50979W        W17762  40.701  20.094   4.466
50980W        W17763  41.267  14.637   2.381
50981W        W17764  31.524  34.445   3.543
50982W        W17765   4.826  30.781  10.270
50983W        W17766  38.430  21.706  10.991
50984W        W17767  28.063  32.788   0.336
50985W        W17768   1.952   9.141  14.423
50986W        W17769  32.174  10.704   1.712
50987W        W17770  20.003   1.775   1.826
50988W        W17771   0.667  38.209   4.374
50989W        W17772  22.500   1.221  13.554
50990W        W17773  13.144  15.764  14.722
50991W        W17774  21.172   2.812   3.748
50992W        W17775  44.910  31.605   0.431
50993W        W17776  16.833  30.885   0.903
50994W        W17777  26.669   5.523  14.249
50995W        W17778  16.660   7.736   4.147
50996W        W17779  42.507  35.849  14.380
50997W        W17780   7.470  16.204   4.575
50998W        W17781  35.002  11.157  12.060
50999W        W17782  35.287   9.430  11.446
51000W        W17783  15.541  38.496   3.201
51001W        W17784  36.931  18.285   0.791
51002W        W17785  11.590  12.033  12.075
51003W        W17786   1.956  14.640   1.182
51004W        W17787   5.951  13.068  13.880
51005W        W17788  20.289   0.361   2.234
51006W        W17789  23.194  28.252  13.878
51007W        W17790  36.519  40.590  14.224
51008W        W17791  27.506  32.463  14.259
51009W        W17792  16.627  41.672  12.484
51010W        W17793  31.518  28.234   3.310
51011W        W17794  37.350  28.359  13.667
51012W        W17795  15.391  24.565  13.605
51013W        W17796  22.216  35.071   3.675
51014W        W17797   4.363   2.710   2.269
51015W        W17798  24.530  44.306  13.332
51016W        W17799  26.913  37.538  14.232
51017W        W17800   2.180   9.373   4.079
51018W        W17801   5.744  13.366   3.006
51019W        W17802  29.105  15.320   4.229
51020W        W17803  10.172  26.904  14.411
51021W        W17804  13.693  26.411   4.611
51022W        W17805   1.287  26.662  14.302
51023W        W17806  29.688  44.409   4.224
51024W        W17807  11.381  37.895  14.915
51025W        W17808  37.945  36.631   0.902
51026W        W17809  17.124  16.501  10.624
51027W        W17810  32.602  44.418   1.875
51028W        W17811   0.373  15.114  14.422
51029W        W17812  17.973  33.814   4.284
51030W        W17813   7.348  38.622  12.012
51031W        W17814  39.519   0.596  13.852
51032W        W17815  10.797  18.830  13.474
51033W        W17816  31.478   5.992  11.996
51034W        W17817   4.426   0.423   4.664
51035W        W17818   9.130  25.920   0.893
51036W        W17819   5.755  44.540  14.805
51037W        W17820  20.008   7.227  11.117
51038W        W17821  24.427  34.651   0.786
51039W        W17822   9.705  38.777   1.161
51040W        W17823  23.383  39.981   2.181
51041W        W17824  21.612  10.896  10.644
51042W        W17825   4.205  23.682   3.901
51043W        W17826  24.831  43.873   3.533
51044W        W17827  37.516  20.187  12.150
51045W        W17828   4.870   8.936  10.719
51046W        W17829  23.503  13.672  12.454
51047W        W17830   8.199   5.294  12.893
51048W        W17831  35.416  21.148   0.027
51049W        W17832  22.688  34.096   3.222
51050W        W17833  44.049  21.823   2.823
51051W        W17834   7.765  16.703  11.115
51052W        W17835  23.861  26.511   1.642
51053W        W17836  27.151  33.108   2.667
51054W        W17837  22.973  13.037  12.984
51055W        W17838  19.332  13.597   2.820
51056W        W17839  13.088  11.246   0.216
51057W        W17840  14.314  33.230   3.393
51058W        W17841  44.833  34.567  12.496
51059W        W17842   3.372  20.792  12.136
51060W        W17843  12.140  27.809  12.103
51061W        W17844  20.813  41.310   0.488
51062W        W17845   1.387  28.932  11.451
51063W        W17846  18.199  10.540  12.014
51064W        W17847  17.125  36.676  12.288
51065W        W17848  28.477  38.811  10.979
51066W        W17849  18.175  20.725   0.608
51067W        W17850  11.746  31.592  11.492
51068W        W17851   3.707  20.192   4.234
51069W        W17852  39.596  20.021  14.349
51070W        W17853  25.231  16.727   1.023
51071W        W17854  22.954  34.946  13.953
51072W        W17855  16.067  35.422   2.263
51073W        W17856   6.500  20.295   0.468
51074W        W17857  24.672   8.792   3.363
51075W        W17858  13.795   4.975   4.806
51076W        W17859   6.602  13.890  14.942
51077W        W17860  33.306   5.775   1.865
51078W        W17861   7.862  17.312   0.259
51079W        W17862   7.644   6.044  13.933
51080W        W17863  30.251  24.953   1.820
51081W        W17864  20.806   8.259   3.378
51082W        W17865  40.476  29.664   4.930
51083W        W17866  11.713  42.816  13.030
51084W        W17867   9.640   8.840   3.176
51085W        W17868   2.168   6.796   0.014
51086W        W17869  35.864  37.651   3.222
51087W        W17870  42.726  43.793   3.854
51088W        W17871  36.240  37.321  10.385
51089W        W17872  24.732  34.473  11.503
51090W        W17873  22.401  10.119   5.071
51091W        W17874  30.701   4.953  14.841
51092W        W17875  24.451  23.865  10.250
51093W        W17876  41.464  27.894   0.742
51094W        W17877  22.149  42.938   1.924
51095W        W17878  10.063  22.356   1.897
51096W        W17879  31.221  40.837   2.431
51097W        W17880  17.362  22.620   3.110
51098W        W17881   0.836  26.226  12.611
51099W        W17882  24.911   0.203   4.127
51100W        W17883  17.795  28.433  13.997
51101W        W17884  36.886  19.579   0.622
51102W        W17885  28.938  27.946   3.281
51103W        W17886  44.221  34.633  10.948
51104W        W17887  20.518   6.578  14.917
51105W        W17888   4.973  29.551   4.610
51106W        W17889  29.097  37.939   1.690
51107W        W17890   7.292  38.201   1.222
51108W        W17891  17.828  24.650   3.562
51109W        W17892  33.103  31.348  13.516
51110W        W17893  21.711  31.874  11.473
51111W        W17894  11.013  22.248  11.009
51112W        W17895  40.597  34.976   4.095
51113W        W17896  25.421  34.538   3.703
51114W        W17897  24.997  28.045  14.574
51115W        W17898   3.309  14.744  14.285
51116W        W17899  36.124  32.920   0.513
51117W        W17900  24.141  19.754  12.005
51118W        W17901   0.797  36.972  11.701
51119W        W17902  29.435   1.251   1.997
51120W        W17903  15.997   8.283  12.469
51121W        W17904   8.897  36.447   0.501
51122W        W17905  18.211   6.831   0.955
51123W        W17906  27.103  43.997   2.249
51124W        W17907   1.406  20.044  14.754
51125W        W17908  43.906  16.803  12.175
51126W        W17909  25.960  34.145  14.388
51127W        W17910  25.567  19.620  13.824
51128W        W17911  25.486  29.631  11.206
51129W        W17912  20.296  32.073  13.904
51130W        W17913  17.723  10.095  13.028
51131W        W17914  38.826  19.978   2.537
51132W        W17915   4.755  12.149  10.643
51133W        W17916  17.658   8.125   3.871
51134W        W17917  17.949  27.522   0.899
51135W        W17918  25.753  36.006   4.173
51136W        W17919  16.745   6.011   4.604
51137W        W17920  20.739  39.775  12.378
51138W        W17921  31.954  13.365  13.330
51139W        W17922  33.952  39.796  14.780
51140W        W17923  13.819   7.838   4.590
51141W        W17924  35.642  28.109   2.476
51142W        W17925  41.066   3.607  11.164
51143W        W17926  18.809  36.044   3.650
51144W        W17927  40.685  15.790   4.509
51145W        W17928  24.166  19.644   4.295
51146W        W17929  12.188   5.432   2.679
51147W        W17930  15.524  40.555   0.479
51148W        W17931   1.076  13.725   3.691
51149W        W17932  13.333   6.340  12.386
51150W        W17933   1.445  16.991  14.998
51151W        W17934  44.793  37.926   4.274
51152W        W17935  35.034  16.331   3.439
51153W        W17936  32.710  26.104  12.525
51154W        W17937  31.371  31.090   0.686
51155W        W17938  42.805  28.165  13.063
51156W        W17939  21.799  13.436   0.236
51157W        W17940  40.784   1.200  14.539
51158W        W17941  31.061  22.968  11.213
51159W        W17942  42.469  37.996  12.360
51160W        W17943   9.934  34.922   3.465
51161W        W17944  35.608  30.853   0.990
51162W        W17945  24.363  20.165  13.914
51163W        W17946  34.073  22.237  11.890
51164W        W17947  28.045  37.064   4.736
51165W        W17948  32.487  19.010   2.704
51166W        W17949  23.768  32.452  14.282
51167W        W17950  29.436  12.412  14.806
51168W        W17951  41.043  18.125  12.515
51169W        W17952  25.927  35.569  12.021
51170W        W17953  28.896  14.989  11.546
51171W        W17954  31.290  16.623  12.904
51172W        W17955   8.688   4.790   1.398
51173W        W17956  33.374  19.141   2.877
51174W        W17957  38.065   9.875  14.469
51175W        W17958  38.329  19.417  13.499
51176W        W17959  21.962   6.992  11.923
51177W        W17960   1.301  21.684  14.767
51178W        W17961  14.337  36.715  12.771
51179W        W17962  13.515  22.060   2.498
51180W        W17963  26.182  15.772  10.972
51181W        W17964   1.288  44.283  11.587
51182W        W17965  11.276  14.797  13.264
51183W        W17966   4.812  24.944   1.577
51184W        W17967  35.148  43.719  14.537
51185W        W17968  28.071  37.424   1.380
51186W        W17969  10.409   6.774   4.711
51187W        W17970   9.196  41.407   0.455
51188W        W17971   3.465   9.215  11.905
51189W        W17972  13.109  25.173   3.891
51190W        W17973   2.291  15.421  11.920
51191W        W17974  11.597  12.741  10.945
51192W        W17975  17.045  24.250  14.987
51193W        W17976  43.716   9.868   0.760
51194W        W17977  20.805  16.032   0.852
51195W        W17978  37.751  33.581  14.916
51196W        W17979  10.711  12.125  13.474
51197W        W17980  23.622  21.780   0.472
51198W        W17981  31.045  12.859   9.751
51199W        W17982  11.974  37.405  10.989
51200W        W17983   1.340   5.215  13.885
51201W        W17984  33.643  43.456   3.728
51202W        W17985  26.285   4.257  11.594
51203W        W17986  26.988  38.940  12.026
51204W        W17987  16.908  21.067  11.519
51205W        W17988  12.320  36.287   0.790
51206W        W17989  24.668  37.816  11.964
51207W        W17990  18.419  19.740  12.929
51208W        W17991  19.254  15.884   2.005
51209W        W17992  17.770  19.305   2.688
51210W        W17993  30.991   2.815   1.207
51211W        W17994  32.076  34.109  12.612
51212W        W17995  10.588  18.394   3.628
51213W        W17996  36.915  39.569   0.187
51214W        W17997  12.120   5.777   4.437
51215W        W17998  41.106  10.185  13.952
51216W        W17999   8.757  32.424  13.406
51217W        W18000  11.673  23.859   2.357
51218W        W18001   0.871  24.761  14.970
51219W        W18002  34.668  15.843   2.808
51220W        W18003  16.583  41.489  12.997
51221W        W18004   1.172  40.434  10.673
51222W        W18005  33.958  17.506   9.762
51223W        W18006  17.552  35.540  10.582
51224W        W18007   3.461  15.637   0.668
51225W        W18008  20.235  33.181   1.313
51226W        W18009  24.533  40.452  13.075
51227W        W18010  38.999  21.969   3.205
51228W        W18011  19.543  40.438  14.404
51229W        W18012  14.438  28.857  10.872
51230W        W18013   8.532  29.538   0.631
51231W        W18014  37.879  14.329  12.626
51232W        W18015   5.050  38.927  14.568
51233W        W18016   3.673  25.069   3.158
51234W        W18017  11.797  36.562   4.226
51235W        W18018  38.777  32.624  14.369
51236W        W18019  36.767  11.164  11.930
51237W        W18020  36.991  22.290  11.871
51238W        W18021  21.228  20.292   2.285
51239W        W18022  18.566  14.812  12.788
51240W        W18023  44.224   1.467   3.939
51241W        W18024  17.602  35.144  11.681
51242W        W18025  20.506  30.231   1.988
51243W        W18026  33.464  30.724  11.433
51244W        W18027  12.778  22.950   3.947
51245W        W18028   0.216  41.682  12.921
51246W        W18029   0.546  39.402  10.536
51247W        W18030   3.922   7.517  13.617
51248W        W18031  22.875  34.422  14.880
51249W        W18032  12.692  15.817  12.025
51250W        W18033  36.101  14.198  12.251
51251W        W18034  42.621  13.030  11.439
51252W        W18035  22.070   0.940  11.028
51253W        W18036   4.290  13.629   2.364
51254W        W18037  29.362   1.434   3.633
51255W        W18038  22.498  10.115  11.127
51256W        W18039  30.187  12.894  13.540
51257W        W18040  34.836  32.544   1.672
51258W        W18041   4.222   8.102   0.667
51259W        W18042  39.827   6.851   2.637
51260W        W18043  20.102  43.523   0.976
51261W        W18044   4.326   2.307  10.728
51262W        W18045  11.823  37.587   1.728
51263W        W18046  17.307  30.576   1.316
51264W        W18047  20.580  18.759  13.668
51265W        W18048  10.799  31.597   1.826
51266W        W18049  41.705   9.086  12.908
51267W        W18050   0.101  30.990  14.016
51268W        W18051   9.045   8.680   2.340
51269W        W18052  14.212  33.767   4.188
51270W        W18053  33.914  34.968  11.620
51271W        W18054   0.452   6.427  12.848
51272W        W18055   1.445  34.170  14.501
51273W        W18056  35.297  33.387  11.169
51274W        W18057  11.197  19.304  11.465
51275W        W18058  43.355  28.768  14.982
51276W        W18059   8.800  21.125  13.388
51277W        W18060   0.791  40.414   4.520
51278W        W18061  35.059  44.413  10.263
51279W        W18062  36.600  37.448   2.370
51280W        W18063  11.740  32.671   3.933
51281W        W18064  12.204  38.591   3.258
51282W        W18065  28.164  24.393  13.933
51283W        W18066  23.023   9.647   3.868
51284W        W18067   7.465  28.487  14.649
51285W        W18068   8.166  19.312  10.433
51286W        W18069   6.748  17.157   3.334
51287W        W18070  13.629  10.675   3.270
51288W        W18071  29.996  18.047   1.750
51289W        W18072  41.600  15.142  14.378
51290W        W18073  20.042  31.336  11.531
51291W        W18074  10.835  15.609   4.549
51292W        W18075   7.846  17.795  14.574
51293W        W18076  36.386   0.906  13.904
51294W        W18077  41.867  30.545  12.881
51295W        W18078   4.736  19.797  13.499
51296W        W18079  32.677  16.348   4.090
51297W        W18080  41.928   3.473   2.028
51298W        W18081  36.557  20.160   2.844
51299W        W18082  35.395  20.506  13.908
51300W        W18083   1.744  32.904   1.139
51301W        W18084  41.929  22.837  11.571
51302W        W18085  12.317   3.838   4.558
51303W        W18086   4.631  38.865  14.212
51304W        W18087  38.232  25.745   0.804
51305W        W18088  27.761  35.991  13.055
51306W        W18089   5.992  32.609   1.877
51307W        W18090  16.801  31.366   4.559
51308W        W18091  21.229   6.601  12.083
51309W        W18092   3.273   3.463   0.907
51310W        W18093  30.047  40.638  12.717
51311W        W18094  42.223  31.551  11.609
51312W        W18095  18.214   0.225   0.949
51313W        W18096  25.537   7.161  10.691
51314W        W18097  18.034  33.426  14.155
51315W        W18098  19.641  13.283   1.714
51316W        W18099  32.698  31.457   4.147
51317W        W18100  40.060  10.591  14.382
51318W        W18101  39.939  36.002   4.136
51319W        W18102   8.660  40.767   0.570
51320W        W18103  14.307  14.554  13.427
51321W        W18104  28.111  11.252  10.595
51322W        W18105  15.363   4.641   2.740
51323W        W18106  33.869  22.469   1.407
51324W        W18107  24.493  13.279  13.890
51325W        W18108  29.916   5.236   2.292
51326W        W18109   8.363  20.624   3.543
51327W        W18110   6.258   4.964   1.455
51328W        W18111  18.211   2.956   1.381
51329W        W18112  28.056  41.616   3.362
51330W        W18113  37.405  20.937  12.564
51331W        W18114  18.820  31.216  11.905
51332W        W18115  38.464  18.061  11.208
51333W        W18116  18.975  26.141   3.617
51334W        W18117   4.467  22.905  12.818
51335W        W18118  42.879   0.103   4.285
51336W        W18119  11.082  14.212  12.547
51337W        W18120  12.631   1.352   4.637
51338W        W18121  18.929  28.895  12.950
51339W        W18122  33.380   1.934   2.699
51340W        W18123  38.630  12.812   3.656
51341W        W18124  44.479  43.412  11.631
51342W        W18125   4.122  25.468  12.108
51343W        W18126  39.838  41.987  14.377
51344W        W18127  21.965  32.850   1.299
51345W        W18128  12.567  25.149  12.385
51346W        W18129  10.272  26.172  13.021
51347W        W18130  18.725  22.174  13.461
51348W        W18131  15.623  41.378  11.878
51349W        W18132  34.119  22.169   0.450
51350W        W18133   8.421  37.396   1.787
51351W        W18134   0.524  24.559   1.780
51352W        W18135  19.972  40.303   3.259
51353W        W18136  19.723  41.194   0.726
51354W        W18137  12.191  15.041  11.974
51355W        W18138  33.448  27.103   4.012
51356W        W18139  33.901  23.018  14.568
51357W        W18140  12.430  17.642  12.506
51358W        W18141   8.270  44.237  14.689
51359W        W18142  37.346  13.664   1.019
51360W        W18143  15.970  22.990  12.945
51361W        W18144   6.950   1.449  11.455
51362W        W18145  10.381  29.470   1.468
51363W        W18146  23.416  41.627  10.986
51364W        W18147  41.035   9.278  14.780
51365W        W18148  33.436  27.095  12.951
51366W        W18149  43.675   1.999  14.596
51367W        W18150  41.253   5.795  11.073
51368W        W18151   8.387   6.112  13.600
51369W        W18152  34.510  36.198  10.617
51370W        W18153   2.789   6.010  13.365
51371W        W18154  41.591  42.367   0.407
51372W        W18155  19.205   2.990  14.435
51373W        W18156  24.368  32.333  10.730
51374W        W18157  14.864  33.598  10.047
51375W        W18158   8.196  24.010  12.892
51376W        W18159  22.644  37.802  14.165
51377W        W18160  44.497  38.565  11.201
51378W        W18161  25.194  29.410   3.292
51379W        W18162   5.293  42.027   0.293
51380W        W18163   3.525   5.207   0.501
51381W        W18164  34.651  29.401   1.361
51382W        W18165   5.042  20.697   3.896
51383W        W18166  18.590   5.226   4.090
51384W        W18167  37.745  34.745   4.932
51385W        W18168  19.128  20.095   1.895
51386W        W18169  16.809   5.280  11.140
51387W        W18170   0.083  44.026  13.318
51388W        W18171  40.992  29.438   1.040
51389W        W18172  29.303   8.760   2.917
51390W        W18173   5.738  18.635  10.949
51391W        W18174  43.308  29.801  10.641
51392W        W18175  15.107  12.885  13.317
51393W        W18176  13.803  33.091  10.659
51394W        W18177  12.826  31.940   0.061
51395W        W18178  11.730  14.350   2.259
51396W        W18179  35.084  11.065  13.039
51397W        W18180  19.112  18.500  14.907
51398W        W18181  39.303   2.860   1.608
51399W        W18182   8.191  40.585   0.387
51400W        W18183  34.187  12.879  11.878
51401W        W18184  12.096  19.325   4.503
51402W        W18185  11.725  43.820  11.856
51403W        W18186  34.563  41.930   3.118
51404W        W18187  15.048  15.901   4.945
51405W        W18188   8.748  29.063   3.245
51406W        W18189  30.211  22.672  10.232
51407W        W18190  19.661  17.644   3.275
51408W        W18191  34.512  24.896   1.849
51409W        W18192  28.904  20.512   0.958
51410W        W18193  38.199  38.413   2.396
51411W        W18194  29.595  43.938  10.622
51412W        W18195  37.413   6.776   0.844
51413W        W18196  23.219   1.089   5.574
51414W        W18197  22.088   6.773  12.376
51415W        W18198  19.723  20.565  14.455
51416W        W18199  31.364  30.942  13.411
51417W        W18200  42.765   1.247  13.808
51418W        W18201  17.660  16.005  14.793
51419W        W18202  40.920  43.748   3.150
51420W        W18203  21.078   2.302   9.975
51421W        W18204  37.638   7.902   5.315
51422W        W18205  37.933  10.783   4.617
51423W        W18206  23.213  31.368   3.143
51424W        W18207  41.539  10.806  14.550
51425W        W18208  21.271  20.130   0.295
51426W        W18209  41.070   9.688   2.602
51427W        W18210   8.069  36.639  11.718
51428W        W18211  18.192  35.462   1.839
51429W        W18212   6.152  12.147   1.267
51430W        W18213  11.784   3.334   3.347
51431W        W18214  34.062  40.313  13.030
51432W        W18215  31.671  40.592   1.919
51433W        W18216  19.519  30.613  12.567
51434W        W18217  24.568  35.075   2.483
51435W        W18218  24.973  24.603   3.796
51436W        W18219  38.569  26.635  11.943
51437W        W18220  15.642  37.063   0.808
51438W        W18221  14.584  13.114   0.766
51439W        W18222   8.915  26.046  10.227
51440W        W18223  32.994  29.109   4.806
51441W        W18224  38.438  40.028  13.061
51442W        W18225  17.511  30.555   2.777
51443W        W18226   5.567   1.857   2.846
51444W        W18227  43.334  20.248  14.939
51445W        W18228  35.769  30.732  11.704
51446W        W18229  37.004  15.612   0.859
51447W        W18230  37.948  22.674   2.812
51448W        W18231  43.071  27.357  11.550
51449W        W18232  19.521  32.613  13.820
51450W        W18233  27.210  31.682   3.147
51451W        W18234  41.019   9.056   1.250
51452W        W18235   1.250  18.282   2.307
51453W        W18236  22.607   5.581  14.934
51454W        W18237  44.357  29.464   3.821
51455W        W18238   4.746  14.272  12.017
51456W        W18239  25.988  44.552  14.466
51457W        W18240   3.079  26.525   1.813
51458W        W18241  12.780  30.123   2.222
51459W        W18242   8.914  13.364  13.845
51460W        W18243  25.371   0.779  13.484
51461W        W18244  30.505  15.846   4.668
51462W        W18245   5.182  41.560   2.871
51463W        W18246  15.867   6.914  11.083
51464W        W18247  31.953   1.637   2.861
51465W        W18248  37.693   0.571  10.435
51466W        W18249   5.148  14.457   1.179
51467W        W18250  25.101  18.093  12.475
51468W        W18251  18.443  39.461   2.303
51469W        W18252  31.888   2.903  13.886
51470W        W18253  37.445  21.840   0.916
51471W        W18254   4.274  27.453   0.384
51472W        W18255  42.452  14.555  13.365
51473W        W18256  27.026  15.218  11.144
51474W        W18257  28.089  31.329   0.315
51475W        W18258   9.101  21.905   4.636
51476W        W18259  38.121  15.198   2.377
51477W        W18260  20.225  42.941   9.598
51478W        W18261   4.777  43.257   1.354
51479W        W18262  26.674  12.697  11.401
51480W        W18263   7.875  11.818  12.427
51481W        W18264  32.608  16.857  11.683
51482W        W18265  13.786  34.619  10.986
51483W        W18266   8.282  11.245   0.630
51484W        W18267  27.186  18.961  14.908
51485W        W18268  24.229  27.618   0.488
51486W        W18269  25.048  41.585  11.406
51487W        W18270  30.516  17.845   2.372
51488W        W18271   3.963  38.535  12.123
51489W        W18272  10.667  31.998   4.968
51490W        W18273   1.555  28.562  10.694
51491W        W18274  23.829  28.579  14.249
51492W        W18275   1.963  10.910  12.154
51493W        W18276  34.247  13.684   2.694
51494W        W18277  20.738   2.493   1.912
51495W        W18278  24.135   5.829   0.410
51496W        W18279  20.630   1.028   4.676
51497W        W18280  41.107  13.188  14.260
51498W        W18281  10.440  34.435   0.194
51499W        W18282  40.191  17.365  12.060
51500W        W18283  13.339  37.779  14.656
51501W        W18284  28.548  24.204   3.645
51502W        W18285   6.685  23.803   4.465
51503W        W18286  21.091  35.027  14.547
51504W        W18287  17.149  27.032  11.958
51505W        W18288  42.497  16.733  11.718
51506W        W18289  30.619  13.585   1.930
51507W        W18290  41.067  41.483   0.460
51508W        W18291  21.718  16.653  13.363
51509W        W18292  28.649  22.451  12.105
51510W        W18293  28.806   8.419  13.066
51511W        W18294  11.253  10.840  14.392
51512W        W18295  31.999  25.488   4.994
51513W        W18296  21.176  17.765  13.859
51514W        W18297  11.304  35.581  11.671
51515W        W18298  33.575  21.920   1.202
51516W        W18299  29.266  35.598  13.783
51517W        W18300   2.266  30.299   3.072
51518W        W18301  33.008   3.527  11.405
51519W        W18302  18.060  24.186  11.316
51520W        W18303  35.389  15.335  13.173
51521W        W18304  22.809   8.120   2.691
51522W        W18305   7.279  11.756   1.587
51523W        W18306   5.650  38.778   2.587
51524W        W18307  17.732   1.666   1.395
51525W        W18308  16.639   3.376  11.869
51526W        W18309  33.036  24.217  10.115
51527W        W18310  25.704  38.044  11.556
51528W        W18311  20.191   0.430   5.080
51529W        W18312  32.044  17.569  13.236
51530W        W18313   0.602  31.448   0.123
51531W        W18314  27.743  14.291  13.019
51532W        W18315  33.944  42.807  13.530
51533W        W18316   0.356  34.535  14.404
51534W        W18317   2.324   9.842   3.428
51535W        W18318   0.246  10.341   0.791
51536W        W18319  17.805  27.423  13.821
51537W        W18320   3.014  33.178   2.304
51538W        W18321  38.867  34.358  11.122
51539W        W18322   8.179  13.667  13.307
51540W        W18323  33.081   7.957  10.746
51541W        W18324   6.385  27.873   4.615
51542W        W18325  35.935   4.297  14.821
51543W        W18326   1.594   8.759  14.460
51544W        W18327  40.085  22.532  11.434
51545W        W18328   1.200  10.311  12.541
51546W        W18329  37.580  28.199   4.549
51547W        W18330  11.408  31.150  13.712
51548W        W18331   0.549  15.548  12.447
51549W        W18332  12.679  23.978   4.382
51550W        W18333  25.649  27.540   1.030
51551W        W18334  22.630  24.578   0.702
51552W        W18335  28.413  19.167   1.256
51553W        W18336  25.987  35.226  14.282
51554W        W18337  26.522  16.812   3.375
51555W        W18338  20.567  33.550  12.145
51556W        W18339  10.111  21.680   3.062
51557W        W18340   7.804  18.177  13.894
51558W        W18341   4.872  32.923  11.594
51559W        W18342  41.862  17.717   1.677
51560W        W18343  37.025  28.740   0.742
51561W        W18344  11.184   9.218   4.187
51562W        W18345  11.209  17.080  13.583
51563W        W18346  13.418  33.820  11.192
51564W        W18347   0.960  23.538   1.842
51565W        W18348  27.458   6.694  13.361
51566W        W18349  20.717  18.666  13.139
51567W        W18350  37.881  14.925   2.792
51568W        W18351  35.350  28.689  10.420
51569W        W18352   5.785  37.845  11.856
51570W        W18353  25.170   0.004   2.359
51571W        W18354  19.489  11.029   0.740
51572W        W18355  25.996  12.716   4.161
51573W        W18356  37.055  16.589  12.678
51574W        W18357   4.257  19.296  13.840
51575W        W18358  36.111   8.963  14.433
51576W        W18359  44.897  30.560   3.247
51577W        W18360  32.293  24.586   0.484
51578W        W18361  22.654  18.218  10.703
51579W        W18362  11.230  20.443  13.404
51580W        W18363  15.418  14.083  14.154
51581W        W18364   8.807  30.885   1.595
51582W        W18365  37.452  18.194  11.668
51583W        W18366  42.911  34.356   2.090
51584W        W18367  12.426  21.466  14.278
51585W        W18368  29.810  40.511   0.048
51586W        W18369   7.352  13.588   0.313
51587W        W18370  23.862  26.202  12.488
51588W        W18371  32.223  30.066   1.686
51589W        W18372  33.010  40.076  14.680
51590W        W18373  13.162  41.020  13.078
51591W        W18374  11.057  35.123  12.466
51592W        W18375   5.823   1.067  12.361
51593W        W18376   3.185  15.216  14.484
51594W        W18377  19.723   7.166  12.673
51595W        W18378   0.342  20.448   4.078
51596W        W18379  33.641  10.118  14.902
51597W        W18380  21.166  35.403   4.104
51598W        W18381  36.099  26.573   4.200
51599W        W18382   2.994  41.322   3.768
51600W        W18383  15.185   8.268   2.790
51601W        W18384  12.751  29.709  13.520
51602W        W18385  28.964   6.745  13.894
51603W        W18386  44.826  44.870   2.557
51604W        W18387  33.407  38.919   0.187
51605W        W18388  43.868   2.257   4.490
51606W        W18389   4.759  33.152   3.004
51607W        W18390  17.771  13.209   4.107
51608W        W18391   5.520  13.130  11.458
51609W        W18392  19.561  28.359  11.380
51610W        W18393  12.657  18.664  13.388
51611W        W18394  16.003  38.107   3.231
51612W        W18395  31.586  27.143   2.801
51613W        W18396  34.041  34.627   0.243
51614W        W18397   3.217  15.216   4.202
51615W        W18398  17.057   0.777  13.019
51616W        W18399  18.812  26.387  13.167
51617W        W18400  39.350   3.808  14.553
51618W        W18401  35.923  39.095   4.106
51619W        W18402   1.468  12.189   2.862
51620W        W18403  32.108  25.252   4.524
51621W        W18404  36.553   4.997   1.849
51622W        W18405  17.788   0.027  13.500
51623W        W18406  19.581  16.541   3.739
51624W        W18407   7.263  42.017   4.136
51625W        W18408  39.249  10.126   4.829
51626W        W18409  13.312  27.024  14.707
51627W        W18410  20.439  20.484  13.762
51628W        W18411  40.884  26.556  13.552
51629W        W18412   6.896  43.096  12.859
51630W        W18413   0.445  32.406   4.959
51631W        W18414  10.642  21.311  14.585
51632W        W18415  44.488   9.033  13.471
51633W        W18416  33.223  36.340   3.713
51634W        W18417   4.987  30.296   0.426
51635W        W18418  30.497  25.889  10.708
51636W        W18419   4.704  21.750  14.005
51637W        W18420  34.382   1.462   2.189
51638W        W18421   8.939  31.005  14.943
51639W        W18422   3.149  32.554   3.180
51640W        W18423   9.673   0.654  10.567
51641W        W18424  30.012  44.440  14.446
51642W        W18425  11.146  20.922  13.524
51643W        W18426  31.983  29.465  10.662
51644W        W18427  41.503  19.126   2.773
51645W        W18428  27.426  19.591   3.683
51646W        W18429   2.792  36.348   0.043
51647W        W18430  30.958  22.755  10.749
51648W        W18431  28.371  14.135  11.477
51649W        W18432  35.851   9.455   2.156
51650W        W18433  21.525  31.032  13.379
51651W        W18434  29.174  42.975   0.484
51652W        W18435  32.056  37.062   3.722
51653W        W18436   1.918  25.617  13.932
51654W        W18437  43.888  43.301   2.412
51655W        W18438  17.408  41.505  11.396
51656W        W18439  18.538  44.956   4.769
51657W        W18440   4.033  20.270   4.622
51658W        W18441  17.319  23.755  14.961
51659W        W18442   9.879  43.960  10.917
51660W        W18443  22.180   7.654   1.487
51661W        W18444   1.048  11.390  13.525
51662W        W18445  12.159  24.571  14.475
51663W        W18446  40.313   0.922   4.127
51664W        W18447  11.607   3.003   2.176
51665W        W18448   4.661  40.841   0.793
51666W        W18449   2.887  44.615   1.771
51667W        W18450  19.149  16.074  11.426
51668W        W18451  36.841  11.103   0.212
51669W        W18452  25.526   0.512   5.011
51670W        W18453  19.506  25.975  10.718
51671W        W18454  33.594   6.517   1.320
51672W        W18455  34.368  17.375  12.863
51673W        W18456   4.194  11.764   3.348
51674W        W18457  12.860  36.016  12.084
51675W        W18458   2.218  23.758  10.939
51676W        W18459  32.536  21.255   2.163
51677W        W18460  31.133  28.880   2.581
51678W        W18461  30.340  36.415   1.141
51679W        W18462   7.175  22.271  13.564
51680W        W18463   4.428  44.308  14.834
51681W        W18464  25.666  15.829  14.317
51682W        W18465  25.465   8.275  12.531
51683W        W18466  43.713   0.870  13.461
51684W        W18467  14.453  12.295  14.840
51685W        W18468  22.654   6.581  13.482
51686W        W18469  40.888  12.944  13.033
51687W        W18470  20.528  11.584   2.261
51688W        W18471  10.279   8.336  13.214
51689W        W18472   9.701   4.852   3.589
51690W        W18473  29.636   8.765  12.916
51691W        W18474  39.530   6.185   1.888
51692W        W18475  14.086  41.702   2.645
51693W        W18476  15.858   0.460  10.996
51694W        W18477  22.692   6.222  11.671
51695W        W18478  41.441  25.876  11.091
51696W        W18479  31.060  38.341  13.755
51697W        W18480  21.777  41.479  12.096
51698W        W18481  14.179  41.360   4.552
51699W        W18482  17.103  43.556  13.964
51700W        W18483  17.163  44.439  10.042
51701W        W18484  18.986  27.681  11.215
51702W        W18485  17.488  20.292   3.147
51703W        W18486  17.799   7.130   0.872
51704W        W18487  29.386  22.685   3.613
51705W        W18488   4.841   8.467  14.274
51706W        W18489  21.746  23.181  11.905
51707W        W18490  36.645   8.926  10.707
51708W        W18491   1.478  28.260  13.402
51709W        W18492  30.836  12.986   0.765
51710W        W18493  32.394  35.678   3.679
51711W        W18494  41.360   5.393  12.163
51712W        W18495  31.944  24.070   2.273
51713W        W18496  24.149  19.506   9.884
51714W        W18497  38.934  34.614   4.576
51715W        W18498  14.879  24.608  13.723
51716W        W18499   0.083  24.126  13.373
51717W        W18500   2.636   6.814   3.285
51718W        W18501   2.181  37.767   0.769
51719W        W18502   5.440  28.064   3.243
51720W        W18503  21.607  14.648  14.093
51721W        W18504  18.263  15.166   4.070
51722W        W18505  36.914  39.247  14.766
51723W        W18506   1.359   7.846  13.632
51724W        W18507  31.514  17.243  11.575
51725W        W18508  34.991  37.951  11.219
51726W        W18509  35.977  19.170   2.035
51727W        W18510   0.789   9.821   1.828
51728W        W18511  24.149  18.048  12.401
51729W        W18512   3.453   9.705  13.503
51730W        W18513  34.272  19.941  11.641
51731W        W18514  43.117  29.628   3.139
51732W        W18515   5.766  37.091   2.363
51733W        W18516   7.566  42.766  10.300
51734W        W18517   4.461  33.483   0.469
51735W        W18518   4.313   5.642  12.046
51736W        W18519  33.074  42.286   4.215
51737W        W18520  21.668  21.929  14.189
51738W        W18521   0.038   2.407  11.142
51739W        W18522  37.056  13.430   0.659
51740W        W18523  20.796   2.411  11.885
51741W        W18524   7.853  12.125  13.930
51742W        W18525   6.453   4.145   1.790
51743W        W18526  42.515  41.340  12.957
51744W        W18527   1.127  24.235   2.441
51745W        W18528  43.300  29.677  14.025
51746W        W18529  38.011   8.836  14.411
51747W        W18530   3.932  44.462  14.851
51748W        W18531  26.684  31.071   3.018
51749W        W18532  27.705  31.030   1.982
51750W        W18533  13.969  26.994  13.926
51751W        W18534   4.673  34.587   4.789
51752W        W18535  17.595  11.675   1.277
51753W        W18536  28.165  34.918   0.521
51754W        W18537  44.575  43.718  13.453
51755W        W18538  17.657  21.546  13.728
51756W        W18539  21.135   3.383   1.751
51757W        W18540  39.203  15.840   4.503
51758W        W18541  35.898   2.925  13.553
51759W        W18542  26.489   0.860  14.425
51760W        W18543  20.792  21.556  10.486
51761W        W18544  21.052  15.312   4.502
51762W        W18545  21.075   8.404  13.406
51763W        W18546  10.280  36.711   5.099
51764W        W18547  18.309  43.777   2.207
51765W        W18548  43.008   9.895   4.262
51766W        W18549  31.811  34.917  14.415
51767W        W18550  29.844   5.820  10.495
51768W        W18551   3.470  32.070   3.331
51769W        W18552  43.762  20.149   3.206
51770W        W18553   2.111  19.649   0.409
51771W        W18554  39.358   3.900   2.377
51772W        W18555  38.017   0.920  10.809
51773W        W18556  36.578  16.659   2.598
51774W        W18557  21.666   8.345   3.988
51775W        W18558  21.252  42.731   3.854
51776W        W18559  15.090  30.956   1.838
51777W        W18560  29.136  21.619  13.017
51778W        W18561  30.064   1.870  11.558
51779W        W18562  13.874  32.916  13.798
51780W        W18563  30.177   3.207  11.637
51781W        W18564  38.980   0.653   4.807
51782W        W18565  43.383   5.141  14.122
51783W        W18566  33.188   4.086  10.661
51784W        W18567  42.221  38.937  14.343
51785W        W18568  13.878   8.103   1.256
51786W        W18569  16.420  25.781  12.106
51787W        W18570   4.223  38.475   2.021
51788W        W18571   3.418  36.258  11.129
51789W        W18572  36.369  22.659  13.528
51790W        W18573   5.233  43.995   0.443
51791W        W18574  16.702  15.137  12.087
51792W        W18575  25.877  40.242   1.854
51793W        W18576   9.734  39.246  14.431
51794W        W18577  15.563  23.696  11.435
51795W        W18578  18.821  31.594   1.334
51796W        W18579   7.335  10.706  13.038
51797W        W18580   8.878  29.034   0.834
51798W        W18581  32.384   9.841  13.131
51799W        W18582  37.080  11.832   4.138
51800W        W18583   3.400   3.165   0.475
51801W        W18584  12.082  18.767  14.545
51802W        W18585  19.225  14.925   1.364
51803W        W18586  40.509  22.973   2.664
51804W        W18587  32.023  37.549  14.316
51805W        W18588  39.071  11.226  13.623
51806W        W18589  27.389   0.927   0.159
51807W        W18590  43.006   2.895   3.327
51808W        W18591  24.712  18.514   3.203
51809W        W18592   0.019  24.258  14.926
51810W        W18593  19.741  32.495  12.869
51811W        W18594  18.759  23.048  13.156
51812W        W18595  26.291  39.403   3.453
51813W        W18596  23.044   4.286   2.684
51814W        W18597  14.096   5.741   2.848
51815W        W18598  36.483   4.958   0.297
51816W        W18599  18.271  13.482   5.196
51817W        W18600  15.052  18.093   3.349
51818W        W18601  14.081   6.192   3.146
51819W        W18602  43.440  16.212  13.308
51820W        W18603  24.445   8.862   2.373
51821W        W18604  13.346   6.794  12.594
51822W        W18605   6.914  32.319   0.848
51823W        W18606   8.793  33.965   2.858
51824W        W18607  40.514  29.179   1.289
51825W        W18608  35.636  28.414   0.044
51826W        W18609  36.617  21.727   3.676
51827W        W18610   2.477  13.194   4.780
51828W        W18611   4.401  19.428   4.822
51829W        W18612  32.098   7.670   3.211
51830W        W18613  20.076   9.318   4.817
51831W        W18614  25.550  43.782   1.290
51832W        W18615   2.415  44.151   2.234
51833W        W18616  42.432  34.982   1.210
51834W        W18617   3.299   1.315   2.915
51835W        W18618  17.696   9.912  12.548
51836W        W18619  44.058  42.772  13.440
51837W        W18620   5.728  24.174  11.932
51838W        W18621   0.348   4.883  11.436
51839W        W18622  19.074  12.809  13.887
51840W        W18623  27.134  42.790  12.025
51841W        W18624  41.034  28.662   3.125
51842W        W18625  11.902  38.538  10.634
51843W        W18626   7.031  36.446  12.068
51844W        W18627   9.553   1.304   2.760
51845W        W18628   1.863  41.412   1.223
51846W        W18629   6.196  11.400   0.717
51847W        W18630  38.673  38.387  10.651
51848W        W18631  40.857   3.878   2.318
51849W        W18632  22.478  21.136   1.147
51850W        W18633  22.475  38.474  14.452
51851W        W18634   1.263  19.606   2.837
51852W        W18635   0.914   6.490  14.499
51853W        W18636  20.448  42.043   3.253
51854W        W18637  40.536  14.096  14.371
51855W        W18638  24.335  27.632   4.960
51856W        W18639  30.550  18.807   3.122
51857W        W18640  17.675  20.220   1.276
51858W        W18641  43.215  17.411  12.046
51859W        W18642  38.335  35.855   3.482
51860W        W18643   4.451  23.273   4.097
51861W        W18644  12.714   3.938  13.023
51862W        W18645  30.979   8.782   4.444
51863W        W18646  32.453   0.716   2.152
51864W        W18647  33.075  19.111  10.321
51865W        W18648   8.812   9.623   0.896
51866W        W18649  20.241  39.634   2.749
51867W        W18650  40.543  17.017  12.118
51868W        W18651  14.295   4.779  14.980
51869W        W18652  22.449   8.735   0.389
51870W        W18653  34.180  29.632  13.778
51871W        W18654  43.371  36.953  13.879
51872W        W18655  33.377  32.887  13.258
51873W        W18656   9.992  41.221  14.416
51874W        W18657  17.151  28.881  12.157
51875W        W18658  39.887  10.624   4.604
51876W        W18659  35.755   3.487  12.979
51877W        W18660   5.730  21.152  14.541
51878W        W18661  36.561  42.652  14.866
51879W        W18662  40.894  14.828  13.084
51880W        W18663  37.743   3.007  11.976
51881W        W18664  32.021  44.233  14.675
51882W        W18665  29.453   4.750  13.368
51883W        W18666  15.846  16.413  12.306
51884W        W18667  17.336   5.334  13.026
51885W        W18668  23.541  39.570  10.012
51886W        W18669  23.961  24.683  13.741
51887W        W18670  24.596  21.744   2.265
51888W        W18671   9.338  40.820  10.563
51889W        W18672  31.637   8.310   4.050
51890W        W18673  17.102  22.686  14.071
51891W        W18674   3.963  21.203   2.796
51892W        W18675  42.852  23.718   0.796
51893W        W18676  40.844  20.066  14.931
51894W        W18677  14.720  17.508  14.327
51895W        W18678  13.137   5.022  11.781
51896W        W18679  42.039  29.501  11.169
51897W        W18680  35.566   5.877   1.839
51898W        W18681  20.129  25.591   4.713
51899W        W18682  41.575  30.634  12.005
51900W        W18683  23.536   8.662  14.981
51901W        W18684  43.540  26.642   0.557
51902W        W18685  14.446  43.885  12.451
51903W        W18686  11.111  42.829   4.062
51904W        W18687  31.044   3.494  13.341
51905W        W18688  18.737  32.428  12.449
51906W        W18689  40.062  14.128  13.617
51907W        W18690  10.140  25.209  11.434
51908W        W18691  10.803  32.462  14.214
51909W        W18692  25.744   6.823   3.199
51910W        W18693  35.481  17.991   2.288
51911W        W18694  24.225  21.767   0.880
51912W        W18695  13.805  40.525   1.708
51913W        W18696  37.561  32.027  12.130
51914W        W18697   1.912  42.070  13.338
51915W        W18698  15.870  15.043   5.682
51916W        W18699  37.468  11.658   1.434
51917W        W18700   8.157  36.891   3.120
51918W        W18701   0.207  22.713  14.325
51919W        W18702  18.835   0.522  12.881
51920W        W18703   9.362  16.265   3.100
51921W        W18704   1.894  35.898   3.809
51922W        W18705  10.381   4.253   0.277
51923W        W18706  20.817  31.917   1.157
51924W        W18707  40.710  36.556   3.036
51925W        W18708   4.739  18.052  11.493
51926W        W18709  13.298  36.095  13.876
51927W        W18710  43.908  22.049  14.590
51928W        W18711  20.363  19.492   9.946
51929W        W18712  44.556  15.007  10.995
51930W        W18713  25.942  18.988  13.722
51931W        W18714  13.661  44.202   3.224
51932W        W18715  19.888  25.506  14.431
51933W        W18716  41.579  39.197  10.991
51934W        W18717   0.822   0.898  12.086
51935W        W18718  33.370  11.289   3.411
51936W        W18719  38.862  30.267  10.982
51937W        W18720  19.009  28.115  14.253
51938W        W18721  14.806  40.823  11.976
51939W        W18722  18.121   3.228   0.860
51940W        W18723  23.017  37.110   0.894
51941W        W18724  35.098   1.254  13.400
51942W        W18725  43.430  12.617  12.373
51943W        W18726  26.147  38.993   3.178
51944W        W18727  28.291   8.383  14.074
51945W        W18728  15.831  12.418   4.163
51946W        W18729  41.017  36.160   3.990
51947W        W18730  17.026  12.787   2.103
51948W        W18731  10.976  39.408  10.215
51949W        W18732  34.748  34.700  13.267
51950W        W18733  25.400  10.934   3.690
51951W        W18734  20.485  25.540   0.282
51952W        W18735  26.578  10.840   4.161
51953W        W18736  32.976  15.276   3.546
51954W        W18737  31.110  13.769   1.835
51955W        W18738  22.023  31.386  13.954
51956W        W18739  38.352  32.544  14.676
51957W        W18740   4.812   9.679  11.945
51958W        W18741  18.670  24.062  14.337
51959W        W18742  43.786  24.705   2.868
51960W        W18743  19.566  38.132   2.980
51961W        W18744  14.781   8.200   1.186
51962W        W18745  17.584  37.397   4.665
51963W        W18746  35.474  10.156  12.424
51964W        W18747  35.917  32.447  11.287
51965W        W18748  15.668  42.332   1.894
51966W        W18749   1.724  21.746  13.473
51967W        W18750  34.177  20.759  14.494
51968W        W18751   4.892  29.937   4.122
51969W        W18752  32.804  39.871  14.219
51970W        W18753   9.460  40.988   0.313
51971W        W18754  39.793  32.493  11.622
51972W        W18755  41.241   7.813   2.856
51973W        W18756   4.342  20.713   0.680
51974W        W18757  25.245  42.765  12.117
51975W        W18758  18.207  26.863   2.710
51976W        W18759   4.331  33.099   0.803
51977W        W18760  38.723  40.485   1.399
51978W        W18761  20.507   3.365   3.660
51979W        W18762   3.328  19.431  11.612
51980W        W18763  33.005  35.855   0.585
51981W        W18764  22.048   3.237  14.690
51982W        W18765  43.254  27.485  12.033
51983W        W18766  13.757  25.030   5.043
51984W        W18767   9.113  44.944   2.260
51985W        W18768   5.975  36.471  14.941
51986W        W18769  21.198  32.386   4.227
51987W        W18770  38.655   5.438  11.109
51988W        W18771   9.641  17.387   2.232
51989W        W18772  35.162  43.847   2.459
51990W        W18773   1.314  38.676   2.682
51991W        W18774  31.866  37.647  12.606
51992W        W18775  43.843   4.057   1.273
51993W        W18776  32.384  24.174   0.828
51994W        W18777  17.091  20.236  12.425
51995W        W18778  44.940  32.752  13.103
51996W        W18779  32.557  30.687   0.340
51997W        W18780  36.477   4.209  13.396
51998W        W18781  33.929  36.891   1.158
51999W        W18782  29.594  38.949  12.443
52000W        W18783  35.134  35.975   2.658
52001W        W18784  19.630   3.481   3.292
52002W        W18785   9.469  41.257  10.783
52003W        W18786   1.739  18.727   2.655
52004W        W18787   8.392  38.345   2.279
52005W        W18788  31.432  40.398  11.249
52006W        W18789  44.406  43.331   0.703
52007W        W18790  39.290  18.499   2.323
52008W        W18791   8.234  38.718   3.597
52009W        W18792   8.910  38.163   0.978
52010W        W18793  10.268  42.698   3.132
52011W        W18794   4.497  15.822  13.059
52012W        W18795  39.510  17.247   0.757
52013W        W18796  24.659  16.367  14.227
52014W        W18797  11.078  32.455  10.928
52015W        W18798  12.575   0.457  11.096
52016W        W18799  38.121  37.437  14.397
52017W        W18800  14.187  31.866  10.781
52018W        W18801  20.098  32.380  14.285
52019W        W18802   5.161  42.011  11.089
52020W        W18803  42.386  16.127  13.927
52021W        W18804   0.763  11.123  13.988
52022W        W18805  18.795  23.537  13.565
52023W        W18806  13.769  16.268  11.567
52024W        W18807   9.918  15.761  14.053
52025W        W18808  27.090  17.286   4.642
52026W        W18809  22.365  42.521   1.145
52027W        W18810   9.941  37.595   2.765
52028W        W18811  11.420  22.659   1.654
52029W        W18812   7.015  26.482   0.259
52030W        W18813   4.260  31.938   1.259
52031W        W18814  11.343  40.734  11.256
52032W        W18815  15.483  29.003   2.621
52033W        W18816   0.734   7.470  14.329
52034W        W18817  29.909   8.719   0.248
52035W        W18818  39.536  11.588  12.573
52036W        W18819  43.131   5.054   4.609
52037W        W18820  30.322  40.344  10.536
52038W        W18821  40.164   1.794  12.537
52039W        W18822  39.328  13.094   3.733
52040W        W18823  43.833  39.523  10.446
52041W        W18824  26.660  20.146   4.573
52042W        W18825  40.051  21.116   0.821
52043W        W18826  35.793  41.550   0.148
52044W        W18827   6.516   3.448  12.813
52045W        W18828   3.614  38.099  11.177
52046W        W18829  33.819  21.112  10.807
52047W        W18830  22.288  38.957  12.945
52048W        W18831   9.344  14.855   2.426
52049W        W18832  40.495  16.996   0.932
52050W        W18833  12.772  44.598  13.307
52051W        W18834  37.088  35.989  14.058
52052W        W18835  36.039  14.676  11.571
52053W        W18836   4.244  31.532   0.942
52054W        W18837  30.749  11.136  14.331
52055W        W18838  22.692  28.362  13.075
52056W        W18839  29.714  32.198   4.538
52057W        W18840  23.744  40.089   1.256
52058W        W18841   9.345  36.605   1.781
52059W        W18842  28.030  39.614  14.558
52060W        W18843  30.077  16.041   1.252
52061W        W18844  33.955  44.473  10.596
52062W        W18845  33.364  43.836   2.860
52063W        W18846  41.530  33.058   4.677
52064W        W18847  44.257  41.964  12.835
52065W        W18848  21.069  14.854  11.178
52066W        W18849  33.506   7.830   2.825
52067W        W18850  34.817  31.396   4.673
52068W        W18851  29.043   0.039   2.732
52069W        W18852  14.695  21.216  14.498
52070W        W18853   9.799  26.511   2.440
52071W        W18854   6.456  29.118  12.460
52072W        W18855   4.929  26.461  12.859
52073W        W18856  13.089  10.798   5.652
52074W        W18857   5.438   0.374   3.699
52075W        W18858  19.475  21.191   1.667
52076W        W18859  40.830  24.590  13.942
52077W        W18860  32.282  19.721  14.722
52078W        W18861  38.334  17.098  12.417
52079W        W18862  14.906   5.230   3.355
52080W        W18863  19.966  42.426   2.690
52081W        W18864   3.049  14.817  13.849
52082W        W18865  29.718   7.820   4.188
52083W        W18866  33.152   9.150   2.723
52084W        W18867   8.821  36.472  12.459
52085W        W18868  16.078   1.734  12.829
52086W        W18869  11.624  17.299  12.059
52087W        W18870  37.884  42.528  10.700
52088W        W18871  16.708   4.716  12.556
52089W        W18872  23.937  21.064  10.258
52090W        W18873  26.581  17.696   1.752
52091W        W18874  24.025  23.711  14.778
52092W        W18875  43.393  28.389   4.142
52093W        W18876  31.725  44.731   2.664
52094W        W18877  11.186  28.727  13.871
52095W        W18878  42.932  10.793   5.450
52096W        W18879  12.673  15.390  13.783
52097W        W18880  11.358  18.120  14.807
52098W        W18881  41.304  17.562   3.706
52099W        W18882   1.439  15.858   2.392
52100W        W18883   6.337  16.387   3.290
52101W        W18884   6.205  15.505   0.018
52102W        W18885  42.861  29.395   3.653
52103W        W18886   3.711  34.962  13.743
52104W        W18887  34.374  15.722  13.985
52105W        W18888   4.583   2.653   1.763
52106W        W18889  27.938  29.168  13.058
52107W        W18890   1.469  10.170  13.817
52108W        W18891  33.869   3.850  11.904
52109W        W18892  18.563   9.689  12.630
52110W        W18893   9.582  26.090   2.230
52111W        W18894  14.091  22.958   3.186
52112W        W18895  10.343   2.250  11.925
52113W        W18896  15.161  27.394   0.864
52114W        W18897  11.390  36.036  14.834
52115W        W18898  15.282  44.661  12.979
52116W        W18899  38.959   9.434   3.593
52117W        W18900   9.052  31.514  14.825
52118W        W18901  14.045  29.885  10.780
52119W        W18902  27.518  13.107   1.988
52120W        W18903  24.069  20.303   3.073
52121W        W18904   4.376  22.685   1.867
52122W        W18905  23.489   0.310   3.752
52123W        W18906  17.543  33.025   2.060
52124W        W18907  26.954  37.418   1.016
52125W        W18908  30.606   9.700   2.354
52126W        W18909  37.879   1.880  11.092
52127W        W18910  29.571   9.274   4.744
52128W        W18911  27.505  28.905  10.636
52129W        W18912  41.106  21.136   1.843
52130W        W18913  41.946  30.887   4.150
52131W        W18914  21.175  19.103  11.523
52132W        W18915  26.791   3.957   1.774
52133W        W18916  33.442  10.342  10.946
52134W        W18917  28.027   9.188   1.224
52135W        W18918  40.989  26.695  11.143
52136W        W18919  39.331   9.814   3.634
52137W        W18920  20.569  42.872   3.735
52138W        W18921  12.881  30.409   0.348
52139W        W18922  18.546  27.922  14.078
52140W        W18923  15.361  32.996   3.217
52141W        W18924  39.579   3.403  10.678
52142W        W18925  15.183   1.818  12.105
52143W        W18926  22.856   7.301   0.510
52144W        W18927   2.566  19.247  13.001
52145W        W18928  30.446  28.722   0.876
52146W        W18929   4.294  20.407  12.988
52147W        W18930  11.080  11.163   0.235
52148W        W18931  11.430   9.145   1.210
52149W        W18932  34.106  16.897  10.643
52150W        W18933   0.854   5.820  14.708
52151W        W18934  20.086  15.256  12.486
52152W        W18935  15.407   7.171  14.818
52153W        W18936   3.876  13.174  14.767
52154W        W18937   9.147   0.411  10.538
52155W        W18938  31.656  40.522   2.445
52156W        W18939  18.307   8.351  10.520
52157W        W18940  11.253  23.453  11.883
52158W        W18941   6.320  18.021  11.259
52159W        W18942   3.264  19.795  11.967
52160W        W18943  29.641   0.991   3.822
52161W        W18944  30.535  36.220   4.880
52162W        W18945  29.127   8.123  13.789
52163W        W18946  29.888   7.707   1.744
52164W        W18947  24.739  41.463  13.097
52165W        W18948  16.027  15.177   0.815
52166W        W18949  44.899  21.226  14.204
52167W        W18950  24.082  14.485   1.815
52168W        W18951  22.548   0.424  11.417
52169W        W18952  15.910  42.999   2.391
52170W        W18953  26.592  22.810   1.530
52171W        W18954   5.864  15.800  11.128
52172W        W18955  31.077  40.395   2.648
52173W        W18956  37.030  12.213  13.537
52174W        W18957  30.416  21.953  12.889
52175W        W18958  31.936  32.607  14.510
52176W        W18959   5.509  35.244   1.979
52177W        W18960  10.274  24.326  14.417
52178W        W18961  20.718  26.049   2.456
52179W        W18962  37.902   5.996   0.776
52180W        W18963  17.664   5.572  13.328
52181W        W18964  34.609  19.647  13.334
52182W        W18965  44.083  44.484  13.707
52183W        W18966  34.578  38.856   3.146
52184W        W18967  15.845   9.255  10.614
52185W        W18968  27.115  36.076  12.624
52186W        W18969  23.467  12.307   4.604
52187W        W18970  30.471  25.634   1.324
52188W        W18971  28.633  34.038   1.958
52189W        W18972  19.091  19.285  10.906
52190W        W18973  35.370  38.925  13.552
52191W        W18974  41.755  44.171   4.115
52192W        W18975  12.356  26.345  14.793
52193W        W18976  14.863   8.806   3.178
52194W        W18977  17.452   6.829   0.171
52195W        W18978  12.870  43.425   3.353
52196W        W18979  37.116  26.287   3.760
52197W        W18980  16.792  39.551   3.247
52198W        W18981   7.994   3.999  10.712
52199W        W18982  26.486   4.237   0.416
52200W        W18983  34.118  38.837   1.394
52201W        W18984   4.292  34.819   2.341
52202W        W18985  11.041  18.243   3.316
52203W        W18986  16.246  25.538   2.314
52204W        W18987  35.932  33.880   3.739
52205W        W18988  19.480   3.278   0.320
52206W        W18989   5.201  39.504   1.298
52207W        W18990  41.539   1.690  10.709
52208W        W18991  31.437  27.972  11.131
52209W        W18992  25.130  34.539  14.860
52210W        W18993  38.394  16.024  14.075
52211W        W18994  19.010  25.743  14.564
52212W        W18995  23.023  11.699   3.805
52213W        W18996  12.235   5.380   4.143
52214W        W18997  13.174  20.731   3.609
52215W        W18998  15.876  37.091  12.425
52216W        W18999  44.160   8.700   3.636
52217W        W19000   9.066  36.345  10.980
52218W        W19001   5.757  20.163  13.365
52219W        W19002   1.967  12.340   2.847
52220W        W19003  37.579   2.511  12.564
52221W        W19004  33.493   2.936   4.382
52222W        W19005  14.343  35.396  14.367
52223W        W19006  26.692  26.900   4.092
52224W        W19007  26.720  28.650   0.516
52225W        W19008  17.263   1.252   4.507
52226W        W19009  20.759  12.500  13.659
52227W        W19010  19.197   6.002  11.622
52228W        W19011  28.199  31.414  14.810
52229W        W19012   8.395  39.307  14.858
52230W        W19013   8.625  41.761   3.227
52231W        W19014   9.588   6.722   5.000
52232W        W19015  44.297  31.497  13.065
52233W        W19016  40.243  36.521   1.434
52234W        W19017  36.497  26.673  10.809
52235W        W19018  43.817  42.366  14.378
52236W        W19019  26.785  23.285   2.800
52237W        W19020   7.939   4.591  12.947
52238W        W19021   6.366  38.060  11.205
52239W        W19022  22.093  22.374   2.762
52240W        W19023  24.522  20.642  12.611
52241W        W19024  33.595   1.200  11.604
52242W        W19025  44.943  30.384  12.727
52243W        W19026  30.848   6.214  14.752
52244W        W19027   1.481   2.297  10.806
52245W        W19028  43.065  31.664   0.561
52246W        W19029   0.005  18.318   0.934
52247W        W19030  21.016  44.545   0.737
52248W        W19031  38.467  35.327  12.531
52249W        W19032  37.776  23.846   3.160
52250W        W19033  11.150   6.150   4.516
52251W        W19034  39.012  27.500  10.788
52252W        W19035  37.762  19.574   0.685
52253W        W19036   8.417  28.319   2.478
52254W        W19037   3.785  23.399   0.526
52255W        W19038  34.596   5.677   9.788
52256W        W19039  21.964   3.989  11.715
52257W        W19040  18.015  16.133  13.008
52258W        W19041  21.553  28.899  10.424
52259W        W19042  44.436  36.387  11.202
52260W        W19043   1.398  11.925   0.857
52261W        W19044  24.397  29.010   2.168
52262W        W19045  38.578  23.958   1.866
52263W        W19046  39.597  39.544   3.248
52264W        W19047  25.641  42.169  14.830
52265W        W19048  34.112   2.665   3.623
52266W        W19049  13.324  43.045  11.176
52267W        W19050  38.219  39.545  13.941
52268W        W19051  37.535   7.827   4.823
52269W        W19052  27.557   4.348  10.609
52270W        W19053   4.264  44.458  10.690
52271W        W19054   1.826  44.096   0.418
52272W        W19055  42.140  22.578   4.959
52273W        W19056  21.300  15.581   4.062
52274W        W19057   4.617   2.417  14.417
52275W        W19058  21.732  31.826  13.920
52276W        W19059  10.767  15.674  12.524
52277W        W19060  44.672  34.139   3.952
52278W        W19061  43.102  13.678   0.408
52279W        W19062  30.040  18.543  11.419
52280W        W19063  34.467  15.255   4.421
52281W        W19064  29.831   9.104  14.806
52282W        W19065  17.100  25.991  11.890
52283W        W19066  30.230  25.154  10.968
52284W        W19067   7.643  18.679  12.582
52285W        W19068   9.426   9.331  11.226
52286W        W19069  14.136  35.960   3.210
52287W        W19070  16.827  29.195   2.131
52288W        W19071   0.762  10.219   0.935
52289W        W19072  31.418  41.466  14.405
52290W        W19073  22.680  20.951  13.202
52291W        W19074   9.880  41.621   4.720
52292W        W19075   7.350  42.760  14.530
52293W        W19076  11.256   2.756   3.924
52294W        W19077  21.431  32.558   0.894
52295W        W19078  32.563  18.577  11.914
52296W        W19079  10.267   3.432  13.731
52297W        W19080  23.108  26.006   4.031
52298W        W19081  23.044  16.784  12.956
52299W        W19082  27.903  43.306  13.017
52300W        W19083  34.467  18.523  11.443
52301W        W19084  27.882  15.351   2.848
52302W        W19085   2.630  28.016   3.372
52303W        W19086  29.737  15.371   0.328
52304W        W19087  14.076  12.653   2.357
52305W        W19088  39.330   2.057  13.982
52306W        W19089   4.199   3.731  13.957
52307W        W19090  26.105  40.675   4.467
52308W        W19091  21.192  24.758   2.132
52309W        W19092   6.178  38.904   0.816
52310W        W19093  43.817   0.953  12.949
52311W        W19094  37.890  34.078   0.079
52312W        W19095  13.213  18.710  12.625
52313W        W19096   9.580  26.124  12.138
52314W        W19097  37.616  43.526   1.353
52315W        W19098  27.475   3.841   4.816
52316W        W19099   3.556   1.278   1.304
52317W        W19100   1.857  10.058   5.184
52318W        W19101  25.738  20.083  14.791
52319W        W19102  31.466  10.664   3.476
52320W        W19103  25.225  10.608   1.940
52321W        W19104  16.667   5.718  12.629
52322W        W19105   4.361   5.767   0.643
52323W        W19106  25.916  30.026   0.773
52324W        W19107   8.788  26.450   0.289
52325W        W19108   7.814  39.518  12.156
52326W        W19109  26.495  16.590   0.668
52327W        W19110  29.456  10.360  13.937
52328W        W19111  37.889  32.265  11.817
52329W        W19112   3.652   1.722  12.498
52330W        W19113  25.400  11.987  12.929
52331W        W19114  15.781  43.891   4.942
52332W        W19115  15.769   4.272  14.510
52333W        W19116  11.766  12.591   0.010
52334W        W19117  31.204  41.066   3.787
52335W        W19118   5.372  28.215   3.752
52336W        W19119  16.889  35.426   4.341
52337W        W19120  40.124  19.763  11.936
52338W        W19121  40.319  14.068   3.764
52339W        W19122  20.806  26.483   5.256
52340W        W19123  16.505   1.858   1.466
52341W        W19124  41.037  27.186  14.298
52342W        W19125  42.835  37.394   3.078
52343W        W19126   0.550  21.745  14.394
52344W        W19127  37.102  28.899  14.432
52345W        W19128  10.978  15.939   2.743
52346W        W19129  42.937  19.822  14.354
52347W        W19130  26.231  30.051  12.847
52348W        W19131   3.849   7.854   1.880
52349W        W19132  20.519  28.143  13.898
52350W        W19133  28.011   2.659   2.265
52351W        W19134  35.078  28.943  12.561
52352W        W19135  12.695   5.670   3.840
52353W        W19136  13.165  17.112  12.920
52354W        W19137  24.217   7.468  14.000
52355W        W19138  10.209  33.402  11.585
52356W        W19139  12.796   3.787  14.358
52357W        W19140   8.406  35.923   0.989
52358W        W19141  24.894   7.156   2.907
52359W        W19142  40.388  36.060   1.211
52360W        W19143  21.041  16.351   0.507
52361W        W19144  13.226  19.222   4.581
52362W        W19145  37.299  14.116   1.276
52363W        W19146  44.711  34.525  11.116
52364W        W19147   8.199   7.784  10.344
52365W        W19148   2.702  38.001  11.861
52366W        W19149   4.323   0.053   1.283
52367W        W19150  15.232  26.523   4.905
52368W        W19151   1.155  32.410   3.225
52369W        W19152  15.614  12.638  11.623
52370W        W19153   7.668  25.265   0.210
52371W        W19154  39.510  22.575   2.692
52372W        W19155   3.330  41.516   0.575
52373W        W19156  23.994  10.180   3.736
52374W        W19157   1.422  43.339  12.115
52375W        W19158  38.163  35.120   4.063
52376W        W19159   3.138   1.736   1.963
52377W        W19160  13.090   8.612   1.617
52378W        W19161  40.568   6.638   2.184
52379W        W19162  33.386   1.816   0.322
52380W        W19163  41.989   5.361  10.435
52381W        W19164   4.161   7.872  13.891
52382W        W19165  43.385  32.380   3.570
52383W        W19166  22.209  12.340  13.917
52384W        W19167  25.125  16.006   0.887
52385W        W19168   2.785  30.649   3.168
52386W        W19169   6.190  35.564   0.792
52387W        W19170  42.266  34.884   3.724
52388W        W19171  37.916  40.481  13.592
52389W        W19172  33.851   2.029  12.143
52390W        W19173  30.005  18.289  14.468
52391W        W19174   5.278   5.412   1.665
52392W        W19175  41.615  30.569  11.111
52393W        W19176  20.693  18.095   4.559
52394W        W19177   0.050  23.635  11.388
52395W        W19178  38.091  22.475   1.459
52396W        W19179   2.270  44.273  13.467
52397W        W19180  20.683   5.997   2.198
52398W        W19181  29.940  36.811  12.499
52399W        W19182  12.668   9.464  11.656
52400W        W19183  29.195  20.047  10.532
52401W        W19184   2.171  31.461  12.427
52402W        W19185  39.405  39.236  11.045
52403W        W19186   3.703  23.807   3.362
52404W        W19187  20.189   6.261   2.208
52405W        W19188  22.701  44.551  11.412
52406W        W19189  12.671  16.919  14.343
52407W        W19190  20.585  19.830   3.865
52408W        W19191  28.329  18.637  14.627
52409W        W19192   0.919  42.035   2.244
52410W        W19193  35.462  38.426   3.420
52411W        W19194   7.221   8.941  10.329
52412W        W19195   3.976  31.520   0.283
52413W        W19196  29.190  40.291  12.054
52414W        W19197  11.817  32.687  10.614
52415W        W19198  14.721  21.097  11.708
52416W        W19199  18.556   4.818   5.095
52417W        W19200  28.103  43.451  11.698
52418W        W19201  14.063  22.120   0.438
52419W        W19202  14.372   2.240   3.300
52420W        W19203  10.269  24.494   3.896
52421W        W19204  20.863  16.865  12.023
52422W        W19205  10.369  32.902   1.816
52423W        W19206  43.239   7.577   1.454
52424W        W19207  34.647  37.015  11.264
52425W        W19208  34.583  28.664  11.446
52426W        W19209   0.631   3.735   3.206
52427W        W19210  10.089   1.859   3.407
52428W        W19211  15.850  28.361  12.020
52429W        W19212  20.511   2.020  11.089
52430W        W19213  40.426  30.249  10.786
52431W        W19214   2.931  25.204   3.600
52432W        W19215  44.756  23.454  10.994
52433W        W19216   5.242   2.865   0.218
52434W        W19217  33.920  24.301   5.515
52435W        W19218  43.852  40.653   4.175
52436W        W19219  39.118  10.519  11.850
52437W        W19220  12.154  12.331  13.499
52438W        W19221  29.480   9.112   0.211
52439W        W19222  33.548  41.915   3.627
52440W        W19223  29.112  36.869  11.224
52441W        W19224   9.541  21.037   2.299
52442W        W19225  26.141  23.176   2.226
52443W        W19226  36.660  15.207   0.817
52444W        W19227  21.139  43.787   0.350
52445W        W19228  43.962  13.159  14.385
52446W        W19229   7.795  23.692  12.072
52447W        W19230  36.030  27.107  13.780
52448W        W19231  25.558   7.174  11.628
52449W        W19232   9.491  41.808  12.841
52450W        W19233  22.075   7.948   1.057
52451W        W19234  36.888  15.335   3.719
52452W        W19235   6.911  41.805  12.150
52453W        W19236   1.997   6.863   0.512
52454W        W19237  18.708   9.396  13.943
52455W        W19238  25.606   6.016   4.144
52456W        W19239  38.637  17.210   3.695
52457W        W19240   1.852  38.693  10.594
52458W        W19241   3.642  19.508   3.760
52459W        W19242  23.613  11.272   4.878
52460W        W19243  37.059  42.847  12.040
52461W        W19244  13.437  21.237   4.520
52462W        W19245  17.176  10.194  11.472
52463W        W19246  42.016  12.114  12.124
52464W        W19247  38.793  22.523  10.530
52465W        W19248  34.061  23.312   5.406
52466W        W19249  25.670   1.885   2.244
52467W        W19250  15.102   1.278  11.187
52468W        W19251  10.811   1.988  10.713
52469W        W19252   8.194  22.239   1.298
52470W        W19253   5.396  11.369   4.800
52471W        W19254  31.464  44.646   4.946
52472W        W19255  26.703   5.210  12.894
52473W        W19256   3.456  26.723   4.243
52474W        W19257  44.399   5.862  13.648
52475W        W19258   8.571  12.194  13.561
52476W        W19259  33.892   9.183   4.139
52477W        W19260   2.858  23.316  12.509
52478W        W19261   6.915  19.809  13.875
52479W        W19262  25.979  43.256   4.966
52480W        W19263  14.383   9.420   5.423
52481W        W19264  31.138  10.141  11.603
52482W        W19265   4.654  24.705  12.391
52483W        W19266  44.421  20.073   2.893
52484W        W19267   2.387   1.195   3.709
52485W        W19268  35.990  34.168  14.289
52486W        W19269  38.384  18.205  13.966
52487W        W19270  36.650  22.131   1.290
52488W        W19271  44.811  21.396   4.787
52489W        W19272  32.215  41.944   4.795
52490W        W19273  26.755  29.671  12.007
52491W        W19274   5.722  21.101  11.978
52492W        W19275  36.755  30.552  10.754
52493W        W19276   2.758  30.123   3.212
52494W        W19277  31.390  42.398   0.317
52495W        W19278  40.247  30.660  12.457
52496W        W19279  40.455  33.484   2.805
52497W        W19280  44.723  31.423  14.988
52498W        W19281  42.876  36.797  13.710
52499W        W19282  40.205  14.764   0.754
52500W        W19283  37.516  27.159   1.434
52501W        W19284   5.749   4.040   0.772
52502W        W19285  32.883  10.944   3.469
52503W        W19286   1.371  11.584   2.757
52504W        W19287  21.427  24.974  11.201
52505W        W19288  38.450  33.008   3.834
52506W        W19289  14.395  13.030  12.330
52507W        W19290  16.786   8.371   1.889
52508W        W19291  16.213  10.422   1.305
52509W        W19292  44.449  30.433  10.614
52510W        W19293   8.621   5.661  13.410
52511W        W19294   0.151  37.343  10.631
52512W        W19295  33.361   6.130   3.731
52513W        W19296  15.302  41.797  10.628
52514W        W19297  22.943   1.736  11.483
52515W        W19298  14.486  31.415  14.719
52516W        W19299  16.164  32.555  10.610
52517W        W19300  40.492  15.314   4.617
52518W        W19301  18.209  16.709   5.615
52519W        W19302  42.429   9.240  10.324
52520W        W19303  25.072   2.755  13.381
52521W        W19304  43.359  36.503  10.654
52522W        W19305  16.695  20.194   1.495
52523W        W19306  33.892  43.160   0.472
52524W        W19307  26.519  24.899  11.919
52525W        W19308  18.106  39.592  11.919
52526W        W19309   8.634  26.464  11.906
52527W        W19310  38.898  44.514   4.198
52528W        W19311  43.344  30.285  14.863
52529W        W19312  27.430   6.164  12.857
52530W        W19313  12.925  40.752   0.322
52531W        W19314  18.064  29.672   2.829
52532W        W19315  27.346  31.995  14.997
52533W        W19316  32.916  33.948   0.907
52534W        W19317  12.739  11.438  11.623
52535W        W19318  23.421  21.666   1.215
52536W        W19319  44.486   2.730  11.903
52537W        W19320  25.452  29.607   2.614
52538W        W19321  13.767  41.323   1.359
52539W        W19322  32.003  43.801  14.956
52540W        W19323   7.252  43.346   3.843
52541W        W19324  25.565  20.551  12.538
52542W        W19325  25.380  12.132   1.215
52543W        W19326   2.800  11.385  10.950
52544W        W19327  17.155   9.361  13.527
52545W        W19328  14.785  32.426  13.559
52546W        W19329  10.511  21.868  10.342
52547W        W19330  41.570  37.189   2.699
52548W        W19331   2.503  44.351   4.047
52549W        W19332  33.400  30.389  13.302
52550W        W19333  19.201   4.577  10.604
52551W        W19334  26.897   5.353   1.944
52552W        W19335  22.880  39.461   4.103
52553W        W19336  10.270   8.165   1.194
52554W        W19337  14.898  33.972   4.619
52555W        W19338  43.446  25.489   4.408
52556W        W19339  43.254   9.624  10.486
52557W        W19340  43.791   9.368   0.921
52558W        W19341  42.065  31.532   1.325
52559W        W19342  24.974  26.415  11.392
52560W        W19343  23.648  43.389   9.440
52561W        W19344  39.914  37.112   3.173
52562W        W19345  24.989  24.010   0.393
52563W        W19346  33.683  19.002   3.268
52564W        W19347  36.375  13.672   2.633
52565W        W19348  21.211  20.827   0.906
52566W        W19349  36.838  19.745   2.688
52567W        W19350  13.825  30.391   1.666
52568W        W19351  43.898  27.471  13.929
52569W        W19352  32.086  23.674   1.837
52570W        W19353  23.603  33.135   2.276
52571W        W19354  39.914  18.987  12.414
52572W        W19355   9.931  42.009   3.759
52573W        W19356  20.852  39.398  10.624
52574W        W19357  34.755  20.785  12.108
52575W        W19358  26.483   2.084   2.891
52576W        W19359  12.663  28.633   1.341
52577W        W19360  36.119  36.365   1.367
52578W        W19361  37.079  43.378   0.064
52579W        W19362  14.604  38.608  14.378
52580W        W19363   9.348  10.317  14.797
52581W        W19364  39.289  24.561   0.723
52582W        W19365  28.925   5.764  10.748
52583W        W19366  19.483  25.499   4.085
52584W        W19367  16.796  14.339  12.452
52585W        W19368   7.751  38.318   0.362
52586W        W19369  18.206  11.035  12.144
52587W        W19370   9.703  41.336  12.937
52588W        W19371   6.155  30.411  11.094
52589W        W19372  23.737  44.594  11.879
52590W        W19373   2.767  20.584  14.376
52591W        W19374  12.541  31.133  14.359
52592W        W19375  17.037  34.886   1.056
52593W        W19376  39.337  40.240   0.130
52594W        W19377  23.103  15.094   2.166
52595W        W19378  32.917  35.176   0.014
52596W        W19379   1.821  26.710  13.392
52597W        W19380  35.923  16.081   4.137
52598W        W19381  41.332  28.141   3.230
52599W        W19382  43.006   3.329  14.442
52600W        W19383  44.425  31.996  12.917
52601W        W19384  27.477  36.907  14.941
52602W        W19385  29.771  24.089   3.913
52603W        W19386  22.252  44.831   4.668
52604W        W19387  43.440  40.904   1.840
52605W        W19388  39.272  38.593   3.179
52606W        W19389   2.186  18.500  11.669
52607W        W19390  44.792  36.875   1.934
52608W        W19391   7.803   3.187  11.907
52609W        W19392  33.120  24.937   3.808
52610W        W19393   2.522  24.638  10.782
52611W        W19394   8.754   4.353  13.837
52612W        W19395  34.990  42.331   1.887
52613W        W19396  39.359   4.865   4.298
52614W        W19397  33.479   3.171  10.176
52615W        W19398  35.606  40.460  10.985
52616W        W19399  26.967  23.687   2.035
52617W        W19400  20.519  24.613   1.306
52618W        W19401  13.714  10.205  13.994
52619W        W19402  33.167   8.489  10.499
52620W        W19403  44.451  34.082   2.438
52621W        W19404  30.290  36.915   1.720
52622W        W19405  11.757  33.429  13.643
52623W        W19406  33.948  32.639   2.810
52624W        W19407  10.012  38.933  14.745
52625W        W19408  26.746  32.948  11.643
52626W        W19409  39.324  40.754   3.711
52627W        W19410  33.565   2.540   1.764
52628W        W19411   2.712  32.689  14.697
52629W        W19412  14.236  18.302  14.487
52630W        W19413   7.297  42.749  12.910
52631W        W19414  24.701  18.021   3.368
52632W        W19415   7.785  18.341  14.446
52633W        W19416  44.278  12.301   3.728
52634W        W19417   0.208  18.685  12.034
52635W        W19418   4.680  32.166  12.834
52636W        W19419  31.319   9.449   2.911
52637W        W19420  38.585  38.591   4.727
52638W        W19421  41.647  29.086  14.792
52639W        W19422   0.324  14.570  13.430
52640W        W19423  41.815   6.415   4.711
52641W        W19424  27.944  24.750  11.330
52642W        W19425  35.416   9.873   3.457
52643W        W19426  25.118  13.737   4.626
52644W        W19427  34.500  15.279   0.870
52645W        W19428  41.834  19.370   3.677
52646W        W19429  32.420  20.741   3.179
52647W        W19430  40.050   8.309  13.034
52648W        W19431  32.227  39.499  13.542
52649W        W19432   8.674  34.582  11.587
52650W        W19433  19.677  31.853  11.985
52651W        W19434  30.243  13.238  11.138
52652W        W19435  10.627  20.000   1.132
52653W        W19436   5.277  32.428   2.680
52654W        W19437  33.036  32.155   4.688
52655W        W19438  11.355  44.258   2.151
52656W        W19439  17.611  29.873   3.387
52657W        W19440  26.093  12.300  13.846
52658W        W19441  37.426  26.461  13.554
52659W        W19442  14.699   4.157  12.035
52660W        W19443  10.869   9.319  11.132
52661W        W19444  25.359   5.561   4.085
52662W        W19445  31.683  19.216  12.986
52663W        W19446   0.332  11.587   4.133
52664W        W19447  16.139   5.629  14.988
52665W        W19448   6.255   5.304   3.689
52666W        W19449  26.497   7.663   4.906
52667W        W19450  26.421  28.700  10.722
52668W        W19451  11.932  25.984   2.008
52669W        W19452  24.751  42.378   2.455
52670W        W19453   9.941  37.042   1.881
52671W        W19454  39.335  34.146   1.886
52672W        W19455   4.831  15.844   2.194
52673W        W19456   0.526  39.771  12.627
52674W        W19457   5.392   9.643   4.266
52675W        W19458  10.176   9.717  11.730
52676W        W19459  27.918  29.486   1.354
52677W        W19460  24.076  38.259   2.259
52678W        W19461  32.142   5.277  10.660
52679W        W19462  22.167   8.876   1.347
52680W        W19463  25.503  34.017  13.136
52681W        W19464  28.695  32.598  12.091
52682W        W19465  17.897  36.952   3.807
52683W        W19466  22.570  27.803  12.875
52684W        W19467  44.272  24.015   3.227
52685W        W19468  12.426  41.099  14.441
52686W        W19469  32.309  37.857   1.190
52687W        W19470   7.438  16.777  12.138
52688W        W19471  24.495  23.394  12.978
52689W        W19472  30.089  29.587  13.523
52690W        W19473   0.617  28.179  13.958
52691W        W19474   8.708  25.247   3.751
52692W        W19475  19.789   4.818  14.355
52693W        W19476   5.842   3.224  14.268
52694W        W19477   7.691   6.013  11.315
52695W        W19478  34.485  30.572   1.890
52696W        W19479  28.958  44.776   4.106
52697W        W19480  35.485  29.481  14.498
52698W        W19481  17.050  19.180  11.168
52699W        W19482  12.384   1.415  11.406
52700W        W19483  19.104  15.658  13.444
52701W        W19484  32.064  40.821   2.233
52702W        W19485   1.382  20.053  10.723
52703W        W19486   3.920  15.295   1.769
52704W        W19487  35.992  39.249   0.691
52705W        W19488   6.103  26.600  13.460
52706W        W19489   8.722  14.908   4.580
52707W        W19490  44.690   0.584  13.410
52708W        W19491  31.055  18.543   0.790
52709W        W19492   3.512  23.306  13.454
52710W        W19493  43.316  29.486  12.154
52711W        W19494  17.641  44.045  11.490
52712W        W19495  23.587  39.320  13.839
52713W        W19496  37.856  34.006   1.102
52714W        W19497  38.022   2.491  13.530
52715W        W19498  13.142  26.428   1.673
52716W        W19499  17.829  41.391   1.070
52717W        W19500  11.290  29.390   0.301
52718W        W19501   1.759  23.587   2.220
52719W        W19502  16.666   6.461   4.927
52720W        W19503  25.490  28.971  11.511
52721W        W19504  21.645  16.134  10.629
52722W        W19505  35.138  38.604  14.623
52723W        W19506  18.494  43.044   0.426
52724W        W19507   3.819  39.283  11.672
52725W        W19508  44.100  41.375  12.535
52726W        W19509  12.922  19.865  14.553
52727W        W19510  19.209  37.877   1.205
52728W        W19511   0.632   5.184   3.357
52729W        W19512  15.192  24.953   2.245
52730W        W19513  34.914  33.358   4.923
52731W        W19514  10.882  36.102   4.678
52732W        W19515  31.411  24.627  13.859
52733W        W19516  20.047  14.074  13.523
52734W        W19517  33.087  21.313   0.963
52735W        W19518  43.227  21.578  10.527
52736W        W19519   4.783  43.694  10.225
52737W        W19520  34.622  40.947  13.455
52738W        W19521   9.115  40.856  11.041
52739W        W19522   2.968  20.092  12.996
52740W        W19523  43.042   7.759  11.150
52741W        W19524   5.700  21.031  11.041
52742W        W19525  12.675  35.374   4.600
52743W        W19526   7.676  14.776  11.142
52744W        W19527  14.920  28.139  13.900
52745W        W19528  25.948   7.394  10.415
52746W        W19529  20.896  44.326   4.513
52747W        W19530   4.550  35.076  11.965
52748W        W19531  19.075  21.320  14.477
52749W        W19532  12.555  31.967   4.565
52750W        W19533  44.645  27.739   0.987
52751W        W19534  31.504  16.289   0.341
52752W        W19535  34.401  36.923   1.358
52753W        W19536  44.365  15.805  11.494
52754W        W19537  26.636  36.562  12.437
52755W        W19538   5.878   6.701   2.727
52756W        W19539  37.304  25.249   1.336
52757W        W19540   6.416  32.054  12.031
52758W        W19541  44.831  36.950   4.624
52759W        W19542  36.503  30.725  11.196
52760W        W19543  24.501   1.448   0.992
52761W        W19544  28.502   9.634   3.696
52762W        W19545  25.653  30.340  11.958
52763W        W19546  24.457  32.564  13.930
52764W        W19547  39.888  25.095  14.705
52765W        W19548  33.635  15.326  13.166
52766W        W19549   7.431   3.790   1.449
52767W        W19550  19.546   8.777   1.185
52768W        W19551  19.049  16.650   3.703
52769W        W19552  23.605   5.039  13.480
52770W        W19553  42.339   1.618  12.941
52771W        W19554  44.320   4.333  11.131
52772W        W19555  26.118  30.645  10.680
52773W        W19556  35.355  33.891   3.310
52774W        W19557  42.817  15.402   0.589
52775W        W19558   8.651  36.852   3.010
52776W        W19559  14.246  32.613  12.839
52777W        W19560  19.231  11.199  14.736
52778W        W19561   1.192  24.703  11.727
52779W        W19562  15.587  38.913  14.267
52780W        W19563  32.415  36.586   4.341
52781W        W19564   4.464  43.901   2.362
52782W        W19565  25.947   0.028  14.272
52783W        W19566   1.838   9.789  12.651
52784W        W19567  38.836  35.149  14.560
52785W        W19568  16.648  10.355  11.497
52786W        W19569   3.998  19.872  11.506
52787W        W19570  38.158  17.601  12.366
52788W        W19571  38.396   0.227  11.116
52789W        W19572  22.891  41.065   0.198
52790W        W19573  13.910  34.939   9.745
52791W        W19574  31.004   2.471   4.658
52792W        W19575   2.000  21.050   4.458
52793W        W19576  19.036  29.392  13.025
52794W        W19577  30.143  41.078  12.956
52795W        W19578  20.080  29.333   4.104
52796W        W19579  12.052  37.144  11.448
52797W        W19580  13.744  12.043  13.868
52798W        W19581  17.545  14.791  13.493
52799W        W19582   2.871   4.002   2.297
52800W        W19583  30.373  11.795  11.170
52801W        W19584  27.014   6.856   0.748
52802W        W19585   7.968  13.194   1.532
52803W        W19586   9.237  28.884  14.561
52804W        W19587  33.968  29.454  11.362
52805W        W19588  23.119   9.577  14.982
52806W        W19589  43.821  16.334   3.684
52807W        W19590  14.433  16.085   3.784
52808W        W19591   4.712   5.830   1.019
52809W        W19592   4.911  40.941  11.189
52810W        W19593  10.758  30.150   4.638
52811W        W19594  15.970  38.651  12.546
52812W        W19595  44.666  15.887  12.479
52813W        W19596   9.225  20.662   4.147
52814W        W19597   5.446  10.809  13.103
52815W        W19598  41.120  43.549   3.620
52816W        W19599  27.713   9.494   0.908
52817W        W19600  20.937  25.032   4.642
52818W        W19601   3.657  15.119   2.175
52819W        W19602  16.927  26.602   1.295
52820W        W19603  27.348  20.007  13.771
52821W        W19604   8.206   6.259   1.450
52822W        W19605  15.142  32.601  11.857
52823W        W19606   6.326  38.417   0.759
52824W        W19607  34.823  41.185  13.861
52825W        W19608  26.060  29.516   2.195
52826W        W19609  19.246  11.726  11.603
52827W        W19610   1.581  27.320   4.679
52828W        W19611  12.379   9.891  12.399
52829W        W19612   6.404  35.052   1.687
52830W        W19613   5.047  20.733  14.422
52831W        W19614  28.474  30.650   0.336
52832W        W19615  23.552  41.461   1.641
52833W        W19616  40.499  13.128   3.539
52834W        W19617  42.421  27.552   2.912
52835W        W19618  14.845  35.482   4.196
52836W        W19619  10.604  30.586   1.187
52837W        W19620  29.211  11.648  13.554
52838W        W19621   5.008  17.224   2.005
52839W        W19622  17.689   3.787   3.914
52840W        W19623  43.479  32.635   2.619
52841W        W19624  14.627  26.420  10.772
52842W        W19625   8.654  24.772  12.955
52843W        W19626   4.005  23.005   0.245
52844W        W19627  10.223  16.546   0.366
52845W        W19628   4.329  39.852   3.631
52846W        W19629  21.831   9.923  11.340
52847W        W19630   2.413  22.167  14.080
52848W        W19631  42.168  38.399  11.978
52849W        W19632   3.265   4.375   3.875
52850W        W19633  24.823   8.755  11.237
52851W        W19634  18.550  20.549  14.849
52852W        W19635  11.365   0.745  14.878
52853W        W19636  28.241  40.002  11.467
52854W        W19637   7.829  38.479  11.994
52855W        W19638  38.873  19.416  10.718
52856W        W19639  19.351  33.096   4.186
52857W        W19640  36.339  23.634   4.531
52858W        W19641  24.413  43.862   2.310
52859W        W19642   9.674  19.660  14.466
52860W        W19643  26.837  43.820   9.880
52861W        W19644  40.967  42.979  14.381
52862W        W19645  11.333  24.045  10.631
52863W        W19646  29.447  32.419  12.484
52864W        W19647  20.261  27.154   1.670
52865W        W19648  29.973  37.899   1.482
52866W        W19649  30.581   6.408   3.353
52867W        W19650  35.821  30.269  11.479
52868W        W19651  30.024  36.070   2.432
52869W        W19652   3.433  12.167  12.940
52870W        W19653   1.617  23.178  11.792
52871W        W19654  42.475  10.815  12.055
52872W        W19655  12.118  24.056  14.531
52873W        W19656  38.079  44.197  13.328
52874W        W19657   9.242  28.394   0.471
52875W        W19658  30.953  35.267   0.703
52876W        W19659  23.069  29.708   2.155
52877W        W19660  17.621  34.228  14.201
52878W        W19661  17.157  22.605  10.682
52879W        W19662   4.848   9.149  12.794
52880W        W19663  40.109  42.501   0.188
52881W        W19664  18.805   7.600   4.103
52882W        W19665   5.807   6.411   1.699
52883W        W19666  30.728  14.446  11.161
52884W        W19667   7.187  43.529   1.214
52885W        W19668  12.208  41.943   3.706
52886W        W19669   4.326  29.493   0.221
52887W        W19670  36.626  16.572  10.748
52888W        W19671  24.283  29.073  10.607
52889W        W19672  20.660   6.832   4.243
52890W        W19673  44.001   3.170   1.370
52891W        W19674  40.780  42.228  12.019
52892W        W19675  23.824   3.426  12.467
52893W        W19676  32.451  31.700  12.498
52894W        W19677  11.641   5.467  12.955
52895W        W19678  26.112  34.039  11.219
52896W        W19679  44.936  23.034  10.745
52897W        W19680  32.062  22.427   1.886
52898W        W19681  22.432  14.071   3.843
52899W        W19682  19.751  34.186   2.682
52900W        W19683  41.471  40.816  11.168
52901W        W19684  24.560  17.075   4.611
52902W        W19685  37.060  33.517   1.786
52903W        W19686  29.448  12.535   4.488
52904W        W19687  43.303  10.596   2.340
52905W        W19688  41.452   3.362   0.684
52906W        W19689  18.549   9.414   4.520
52907W        W19690  42.983  18.175  13.224
52908W        W19691  32.432   0.774   5.200
52909W        W19692  26.917  38.072   3.196
52910W        W19693  14.851  10.680   0.210
52911W        W19694   9.920  24.100  12.495
52912W        W19695  37.340  24.390  14.266
52913W        W19696  18.241  25.353   4.309
52914W        W19697  39.739  22.103   2.721
52915W        W19698  23.734  11.838  13.615
52916W        W19699  29.004  14.090   2.601
52917W        W19700  32.427   5.456  11.098
52918W        W19701  10.891   6.703   1.851
52919W        W19702   1.855  27.075  10.705
52920W        W19703  36.145  33.023  13.328
52921W        W19704  38.914   4.802   4.556
52922W        W19705  40.212  33.223   5.018
52923W        W19706  40.697  35.352   0.306
52924W        W19707  44.551  23.000  11.994
52925W        W19708  38.479  25.107  13.802
52926W        W19709  13.186  12.158  10.487
52927W        W19710  11.324  20.268   3.652
52928W        W19711  17.747  40.800  14.853
52929W        W19712  10.444  18.547   2.417
52930W        W19713  37.418  41.953  12.287
52931W        W19714  30.149  38.368   0.357
52932W        W19715  27.925   2.515  13.824
52933W        W19716   3.231  14.723  11.564
52934W        W19717  32.923  26.260  12.978
52935W        W19718  25.797  43.438  13.932
52936W        W19719  32.522   3.311  12.649
52937W        W19720  35.111  10.661  12.049
52938W        W19721   0.647  14.210  12.034
52939W        W19722  38.808  17.547   1.356
52940W        W19723   5.868  36.855   0.965
52941W        W19724   3.948  24.983  11.209
52942W        W19725  32.575  28.369  13.074
52943W        W19726  25.454  38.278   3.187
52944W        W19727  16.257  17.677  12.617
52945W        W19728  24.413   9.889  11.577
52946W        W19729   8.760  34.944  10.578
52947W        W19730   0.024  41.407   3.211
52948W        W19731  44.146  28.353  11.033
52949W        W19732  34.488  31.555   3.315
52950W        W19733   6.378  40.046  10.194
52951W        W19734  14.983   4.160   3.105
52952W        W19735   4.349  18.363   0.339
52953W        W19736  25.972  28.447   1.414
52954W        W19737  14.051   3.347   4.157
52955W        W19738  24.320  28.095   4.500
52956W        W19739  26.424  24.624   3.367
52957W        W19740  28.849  36.858   3.687
52958W        W19741  15.789  12.641   1.806
52959W        W19742  12.761   9.802  12.048
52960W        W19743  16.339  26.775  13.360
52961W        W19744  31.114  10.761  14.319
52962W        W19745   4.439   3.760  11.443
52963W        W19746  35.082  21.182   3.207
52964W        W19747  24.114  37.357  14.497
52965W        W19748  39.043   3.233  13.354
52966W        W19749   3.741  28.236  11.803
52967W        W19750   7.698  13.746  11.166
52968W        W19751  23.548  24.758   3.240
52969W        W19752   6.270  35.883   3.391
52970W        W19753   3.754  42.008  12.091
52971W        W19754  44.524  42.454  11.203
52972W        W19755  29.634  21.344  13.576
52973W        W19756   2.399  11.121  11.203
52974W        W19757  33.537  21.232   4.003
52975W        W19758   6.646  19.555  13.514
52976W        W19759   8.618  22.558   0.471
52977W        W19760  32.545  21.990   2.639
52978W        W19761   8.363  11.944  11.231
52979W        W19762  38.043   2.324   1.274
52980W        W19763   5.386  34.212   0.902
52981W        W19764  27.620  14.699   3.202
52982W        W19765  42.601  29.060   9.965
52983W        W19766  15.809  42.901   4.713
52984W        W19767  38.808  31.230   1.640
52985W        W19768  27.537  31.699   4.174
52986W        W19769  33.534  41.515   4.280
52987W        W19770  31.026   4.742   0.364
52988W        W19771  21.684  39.718   4.555
52989W        W19772  27.234   6.771  12.917
52990W        W19773   9.070  12.571  12.983
52991W        W19774  14.581  22.394  12.083
52992W        W19775  12.615   8.873  12.484
52993W        W19776  18.593  35.992  11.572
52994W        W19777  23.594  11.404   0.898
52995W        W19778  21.037  24.612  14.480
52996W        W19779  14.272   0.850  13.373
52997W        W19780  42.524  38.834  11.338
52998W        W19781  37.849  12.877   1.356
52999W        W19782   4.950  14.387  10.962
53000W        W19783   7.619  25.296  12.915
53001W        W19784  27.634  27.803   0.922
53002W        W19785   7.399  36.033   1.771
53003W        W19786  17.786   2.284   2.270
53004W        W19787  36.897  23.409   2.910
53005W        W19788  32.688  24.825  14.525
53006W        W19789  10.884  42.970   0.533
53007W        W19790   5.369  41.582  13.950
53008W        W19791  40.504  21.275   4.684
53009W        W19792  32.159  18.238   2.874
53010W        W19793  19.121  22.427   3.897
53011W        W19794  17.007   0.380   1.728
53012W        W19795  30.940  32.630   3.805
53013W        W19796   6.512   9.724   2.614
53014W        W19797  17.670   4.442  10.525
53015W        W19798  22.016   8.650   0.905
53016W        W19799   1.165  16.596   4.592
53017W        W19800  30.007  28.056   0.336
53018W        W19801   6.801  13.290  14.330
53019W        W19802  30.095   6.021  12.405
53020W        W19803  40.023   1.024  14.464
53021W        W19804  22.922   1.776   4.965
53022W        W19805   4.264  34.638  14.876
53023W        W19806  41.053  25.535   2.361
53024W        W19807   0.218  36.621  13.582
53025W        W19808  12.741  39.366  13.070
53026W        W19809  39.472  38.103   1.373
53027W        W19810   1.658  27.937  14.756
53028W        W19811  15.994  26.992   3.924
53029W        W19812  29.120  43.034  14.005
53030W        W19813   8.859  33.958   1.375
53031W        W19814  44.386   5.732   3.332
53032W        W19815   3.216  14.843  10.764
53033W        W19816   2.270  33.717   3.147
53034W        W19817  13.252   9.242  14.861
53035W        W19818  30.520  20.294  13.896
53036W        W19819  18.789  36.458  11.478
53037W        W19820  21.999  26.738   0.471
53038W        W19821  36.880  26.171  11.471
53039W        W19822   0.744  34.936  11.606
53040W        W19823   5.343  13.849   0.050
53041W        W19824  17.513  19.748   1.432
53042W        W19825  20.550  31.244   2.716
53043W        W19826  39.642  40.260  12.826
53044W        W19827  16.060   9.375   2.237
53045W        W19828  17.287   3.993   0.280
53046W        W19829  17.529  35.300   2.419
53047W        W19830  25.790   1.742   0.138
53048W        W19831  26.366  16.508  13.323
53049W        W19832  11.565  24.880   3.428
53050W        W19833   3.287  23.503   3.221
53051W        W19834   4.407  36.527  12.795
53052W        W19835  26.476   7.331  11.549
53053W        W19836  38.468  20.173   4.054
53054W        W19837  14.981  34.097  11.538
53055W        W19838   9.776  35.472   1.204
53056W        W19839  17.641   3.001  11.599
53057W        W19840  29.007  11.569   2.209
53058W        W19841  11.223  31.128  11.025
53059W        W19842  18.560  12.689  13.747
53060W        W19843  26.068   8.628   4.629
53061W        W19844  31.167  33.037  13.018
53062W        W19845  39.235   2.722   0.305
53063W        W19846  22.258  33.972  13.011
53064W        W19847  18.928  40.385   2.350
53065W        W19848  22.184  20.541   1.622
53066W        W19849   1.008  11.141   3.160
53067W        W19850   8.093  42.076  14.025
53068W        W19851  21.155  31.492   4.165
53069W        W19852   3.098  16.596  10.774
53070W        W19853  18.199  29.542  12.673
53071W        W19854  36.610  27.604  12.485
53072W        W19855  42.333  15.703   2.419
53073W        W19856  30.153  39.859  11.408
53074W        W19857  23.158  32.052  13.872
53075W        W19858   1.346  35.427   4.428
53076W        W19859   6.329  12.526  14.482
53077W        W19860  14.317  17.839   4.427
53078W        W19861  36.059  15.756   1.250
53079W        W19862  16.631  33.816   4.208
53080W        W19863   1.410  21.633   1.276
53081W        W19864  30.101  44.995   2.510
53082W        W19865  10.835  12.391  11.447
53083W        W19866  33.359  15.151  11.195
53084W        W19867   4.342  27.104  14.406
53085W        W19868   6.121  22.339   0.353
53086W        W19869  22.629  36.529  13.549
53087W        W19870  39.452   1.547  13.125
53088W        W19871  32.566  35.687   4.160
53089W        W19872  44.419  23.150   5.024
53090W        W19873  21.484  27.298   2.874
53091W        W19874  18.957  40.337   0.650
53092W        W19875  25.505  10.901  14.402
53093W        W19876  31.022  17.613  12.574
53094W        W19877  12.654  12.141   0.291
53095W        W19878  33.461  12.390   4.555
53096W        W19879  21.892   1.008   4.952
53097W        W19880   7.369  38.594  13.314
53098W        W19881  25.366  25.344  10.650
53099W        W19882   6.158  18.921  11.595
53100W        W19883  14.601   8.835   2.202
53101W        W19884  22.149  44.773   0.262
53102W        W19885  15.936  26.153  11.203
53103W        W19886  18.654   1.728   2.985
53104W        W19887  23.038  24.609   1.055
53105W        W19888  40.695   4.450   1.908
53106W        W19889  38.004  43.165   1.316
53107W        W19890   0.274  13.772  11.205
53108W        W19891  27.208  25.407   4.268
53109W        W19892   1.729  12.331   1.520
53110W        W19893  40.991  15.852  12.772
53111W        W19894  11.537  25.527  14.971
53112W        W19895  10.313   9.703  14.959
53113W        W19896  15.776  17.814   1.221
53114W        W19897  17.516   5.849  11.911
53115W        W19898  21.650  33.953  14.889
53116W        W19899  29.257  14.715  13.738
53117W        W19900  15.237  18.161   3.827
53118W        W19901  35.885  32.651   1.759
53119W        W19902  29.065  24.468   4.366
53120W        W19903   3.249   3.461   4.597
53121W        W19904  29.566  39.431   4.151
53122W        W19905  27.631  12.085   0.010
53123W        W19906   5.893  28.866  13.690
53124W        W19907  22.372  22.425   0.703
53125W        W19908   3.758  13.297  12.355
53126W        W19909  39.786   5.383   3.473
53127W        W19910  31.716   1.532  11.275
53128W        W19911   7.034  18.692   2.130
53129W        W19912   6.800  38.431  10.714
53130W        W19913  12.818  37.816  14.635
53131W        W19914  23.519   5.183   2.432
53132W        W19915  34.548   8.121  13.335
53133W        W19916   8.848  19.285   3.433
53134W        W19917   4.397  12.070  14.344
53135W        W19918  42.372   0.490  12.632
53136W        W19919  21.065   6.883   4.677
53137W        W19920  37.788  33.060   0.046
53138W        W19921   7.679  35.371   2.726
53139W        W19922  35.598  29.840  13.547
53140W        W19923   2.689   8.928   0.015
53141W        W19924  14.836  13.187  13.748
53142W        W19925  27.609   4.340   1.687
53143W        W19926  21.962  34.998  10.736
53144W        W19927  27.927  35.644   2.765
53145W        W19928  31.105   6.654   3.219
53146W        W19929  14.613   5.472  12.994
53147W        W19930  20.560  22.484   3.615
53148W        W19931  31.016  36.053  14.452
53149W        W19932  40.811  10.894   2.116
53150W        W19933  42.999  43.811   3.064
53151W        W19934  16.617  14.358   0.393
53152W        W19935   8.566  21.599   0.694
53153W        W19936  32.469   7.669  14.887
53154W        W19937  39.816  24.945  13.880
53155W        W19938  36.869  23.527  14.388
53156W        W19939   8.251  25.273   0.983
53157W        W19940  27.197  44.080   0.295
53158W        W19941  39.844  32.219  12.055
53159W        W19942   6.771  16.131   3.221
53160W        W19943   3.881   6.247  11.747
53161W        W19944  18.645  26.785  13.463
53162W        W19945  29.487  12.351  14.015
53163W        W19946  23.818  16.323  11.122
53164W        W19947  33.491  34.707   4.150
53165W        W19948   1.429  32.293   3.944
53166W        W19949  42.555  18.144   3.748
53167W        W19950  39.013  37.061  11.080
53168W        W19951   9.974  39.227  12.594
53169W        W19952  14.923  21.982   1.347
53170W        W19953   7.202  21.876  11.583
53171W        W19954  14.413  31.818   4.114
53172W        W19955  26.926  27.885   3.024
53173W        W19956  26.047  25.155   3.614
53174W        W19957  27.496   8.520   0.745
53175W        W19958  38.103   1.825  14.281
53176W        W19959  28.312  39.710   2.380
53177W        W19960  40.395  18.544  14.793
53178W        W19961  13.835  11.130  13.513
53179W        W19962  11.423  34.054   4.591
53180W        W19963  42.117   8.161   3.920
53181W        W19964  31.009  19.030   3.360
53182W        W19965  10.089  18.447   3.782
53183W        W19966   2.812  14.818  14.421
53184W        W19967  23.344   5.276  12.126
53185W        W19968   9.147  40.755   1.261
53186W        W19969  22.719  18.780   3.524
53187W        W19970  12.292  29.042   3.069
53188W        W19971  34.062   1.650   2.718
53189W        W19972   0.737  14.779  11.270
53190W        W19973  36.711  23.039  13.521
53191W        W19974  41.995  35.121   3.357
53192W        W19975   3.735  34.957  10.725
53193W        W19976  41.476  22.055  12.747
53194W        W19977  16.215  20.650  10.948
53195W        W19978   8.768  15.384   3.040
53196W        W19979  44.733  33.462   4.619
53197W        W19980  16.418  25.554  10.711
53198W        W19981  44.620  28.194  14.202
53199W        W19982  40.893  29.647   1.957
53200W        W19983  18.520  34.215  14.679
53201W        W19984   0.691  38.026  13.654
53202W        W19985  32.830  36.811  14.277
53203W        W19986   0.331  11.550  11.535
53204W        W19987  26.441   6.259   1.141
53205W        W19988   4.188  25.523   1.180
53206W        W19989  20.537  26.434   2.031
53207W        W19990  18.976   1.548   0.012
53208W        W19991  32.118   1.948  11.434
53209W        W19992  12.141  38.952  12.860
53210W        W19993  14.261  41.398  14.286
53211W        W19994   5.590   2.704   2.050
53212W        W19995  29.384  37.517  14.870
53213W        W19996  15.645  24.200   3.703
53214W        W19997  29.262   3.435  14.223
53215W        W19998  32.142  40.512   3.896
53216W        W19999   7.908  19.754  14.020
53217W        W20000  18.090  33.171  10.458
53218W        W20001  16.233  44.815   3.746
53219W        W20002  44.910  28.439   3.256
53220W        W20003  31.446  15.585  14.382
53221W        W20004  13.628  26.652  12.129
53222W        W20005  23.134   8.736  14.606
53223W        W20006  28.811  18.826  11.945
53224W        W20007  13.608  28.621   0.421
53225W        W20008  35.960  23.931  12.051
53226W        W20009  32.869  21.225   1.501
53227W        W20010  22.805  33.898   1.334
53228W        W20011  39.121  20.711  12.671
53229W        W20012   6.456  33.877  12.340
53230W        W20013  24.116   6.119   2.813
53231W        W20014   7.379   5.222  11.231
53232W        W20015  39.564   9.371  10.736
53233W        W20016  25.991   1.921   2.689
53234W        W20017  17.385  44.245  11.886
53235W        W20018  21.580   6.954   1.355
53236W        W20019  12.196   0.081  13.068
53237W        W20020   5.127  34.421  12.446
53238W        W20021  27.535  38.472  14.191
53239W        W20022  29.105  41.444  13.768
53240W        W20023  38.495  33.965   4.217
53241W        W20024  34.604  22.446   3.226
53242W        W20025  28.193  43.839   0.386
53243W        W20026   3.757  40.336   2.067
53244W        W20027  39.480  14.686   3.876
53245W        W20028  26.205   3.295  14.773
53246W        W20029  34.110  19.443   4.660
53247W        W20030  18.633  25.469  14.379
53248W        W20031  20.785  42.254  14.383
53249W        W20032  33.603  19.419   9.548
53250W        W20033  41.290  11.175  14.806
53251W        W20034   4.033  20.542  14.391
53252W        W20035   1.286  12.119  12.272
53253W        W20036  37.326  18.990   0.004
53254W        W20037  17.655   2.984   1.781
53255W        W20038  34.045   2.808   4.471
53256W        W20039  16.820  29.102   0.758
53257W        W20040  37.384  37.142   2.176
53258W        W20041  29.251  32.357   1.832
53259W        W20042  17.183  25.743  11.045
53260W        W20043  37.126  15.037  13.800
53261W        W20044  34.157  38.620  10.880
53262W        W20045  39.152  14.157  13.997
53263W        W20046  14.856  26.707   5.216
53264W        W20047  17.523  41.586   1.454
53265W        W20048  42.282  20.532  13.025
53266W        W20049  24.838   6.402  13.618
53267W        W20050  36.608  22.114  12.953
53268W        W20051  11.303  12.868   0.754
53269W        W20052  21.452  23.421   3.116
53270W        W20053  33.332  20.299   0.754
53271W        W20054   9.883  22.120   3.215
53272W        W20055  19.977  20.974  13.683
53273W        W20056  26.085   5.896   1.302
53274W        W20057  18.945  31.968   4.975
53275W        W20058  26.471   8.487  12.872
53276W        W20059  23.536  25.063   0.032
53277W        W20060  42.033  17.698  11.487
53278W        W20061  37.486   0.270  13.553
53279W        W20062  44.957  19.184   0.650
53280W        W20063   4.810  26.085  11.229
53281W        W20064  21.635  13.306   4.038
53282W        W20065  34.189  44.033   2.309
53283W        W20066  28.575  24.701  13.865
53284W        W20067   2.466  28.516   1.272
53285W        W20068   8.956   9.113  11.292
53286W        W20069  15.618  33.861   2.474
53287W        W20070  25.514  22.223   0.384
53288W        W20071  35.904  27.688   2.338
53289W        W20072   8.919  16.795  11.960
53290W        W20073  19.851  14.479   2.721
53291W        W20074  42.559  32.424  13.857
53292W        W20075  21.255  33.676   0.248
53293W        W20076  30.495  13.125  11.566
53294W        W20077  23.713  23.090  13.352
53295W        W20078  11.075  31.371   1.322
53296W        W20079  21.030  24.406   2.551
53297W        W20080   1.181  36.909   3.590
53298W        W20081   7.163  37.280   3.083
53299W        W20082  14.635  15.181  12.631
53300W        W20083  32.933  33.536  14.364
53301W        W20084   2.010  41.422   2.923
53302W        W20085   3.366  28.508   3.179
53303W        W20086  24.454  44.396  12.432
53304W        W20087  10.124  28.245   3.885
53305W        W20088  17.612  16.768  10.659
53306W        W20089   3.275  27.054  13.865
53307W        W20090  37.126  26.081  11.017
53308W        W20091   9.583   8.112  12.137
53309W        W20092  35.917  13.341  12.182
53310W        W20093  42.389  21.873  13.886
53311W        W20094  15.179   0.500   1.494
53312W        W20095  30.098   7.869  11.370
53313W        W20096  42.529  25.645  13.567
53314W        W20097  32.173  17.974  10.682
53315W        W20098  25.225  32.288  13.612
53316W        W20099   9.451  41.064  14.421
53317W        W20100  40.803  21.268  13.889
53318W        W20101  34.608   2.788   3.613
53319W        W20102  31.709  12.655   3.992
53320W        W20103   5.094  17.810  12.238
53321W        W20104  19.956  22.037  14.500
53322W        W20105   3.415  31.625  13.774
53323W        W20106  38.808   3.233  11.120
53324W        W20107  29.122  23.070   1.818
53325W        W20108  26.070   3.261  13.852
53326W        W20109  17.990  40.876  13.945
53327W        W20110  23.093  26.911  14.883
53328W        W20111  41.285  32.917  11.976
53329W        W20112  44.567  22.060   2.186
53330W        W20113  11.687  15.608  13.817
53331W        W20114  33.141  28.940   1.908
53332W        W20115   6.255  27.078   1.333
53333W        W20116  21.271  39.007   3.277
53334W        W20117  30.439  11.942   3.490
53335W        W20118  38.397  22.498  14.801
53336W        W20119  21.249  20.179   3.163
53337W        W20120  40.269   8.767   2.836
53338W        W20121  11.127  26.656  14.104
53339W        W20122   0.421  12.925  10.592
53340W        W20123   7.657  28.034   1.809
53341W        W20124  36.005  28.697   3.729
53342W        W20125  39.619  15.141  13.116
53343W        W20126  23.054  20.252   1.495
53344W        W20127   8.810  18.343  11.645
53345W        W20128  11.663  33.069   3.622
53346W        W20129  36.912  30.426   1.785
53347W        W20130  33.847  23.105  11.586
53348W        W20131   3.549   7.176  12.092
53349W        W20132  34.991   1.405   1.395
53350W        W20133  11.860  44.484   2.693
53351W        W20134   7.769  23.774   3.690
53352W        W20135  24.514   3.641   0.781
53353W        W20136  35.549  35.113   3.706
53354W        W20137  39.402   2.577  13.064
53355W        W20138   6.723  15.369  14.987
53356W        W20139   8.453  16.569  14.381
53357W        W20140  35.498  44.086  13.730
53358W        W20141  19.122  36.046   4.066
53359W        W20142  42.601  21.163   0.267
53360W        W20143   7.364   9.854   4.399
53361W        W20144  14.759  21.019  14.964
53362W        W20145   1.207   9.109   2.624
53363W        W20146  34.650  30.103  13.238
53364W        W20147  23.029  39.590   0.445
53365W        W20148  14.524  26.115  13.070
53366W        W20149   2.884  21.551  14.253
53367W        W20150  19.144  32.849   2.828
53368W        W20151  23.699   0.226   4.730
53369W        W20152   8.211   4.899   2.677
53370W        W20153  13.312   2.307   0.357
53371W        W20154   5.587  16.559   2.822
53372W        W20155  35.352  39.409  12.436
53373W        W20156  23.540  33.436   1.756
53374W        W20157  34.836  21.226  12.362
53375W        W20158  25.141   5.733  11.909
53376W        W20159  15.288  35.593   2.758
53377W        W20160  34.532  40.756   1.742
53378W        W20161  12.257   6.403  13.410
53379W        W20162  19.216  39.343  11.538
53380W        W20163  16.604  41.351  12.077
53381W        W20164  16.156   6.847   3.829
53382W        W20165  32.181  14.632  10.680
53383W        W20166  41.098  35.068   4.073
53384W        W20167  41.639  21.158   1.824
53385W        W20168  25.914  15.695  14.751
53386W        W20169  19.504  11.212   4.112
53387W        W20170  31.403  11.991   1.777
53388W        W20171  42.849  28.426   2.832
53389W        W20172  19.376  19.554  12.529
53390W        W20173  34.653  41.928   4.568
53391W        W20174   2.468  18.047  12.494
53392W        W20175  35.340   7.547   1.353
53393W        W20176  26.067  32.496  14.371
53394W        W20177  27.448  43.394   1.070
53395W        W20178  26.073   2.019   1.208
53396W        W20179   3.923  13.176   4.426
53397W        W20180  28.936   4.419  11.234
53398W        W20181   1.316  42.380  13.564
53399W        W20182  27.934  33.474  11.132
53400W        W20183   0.794   1.231  14.432
53401W        W20184  18.528   5.838   0.523
53402W        W20185  10.919   7.269   2.919
53403W        W20186  36.559   3.423   1.396
53404W        W20187  42.435  23.750   3.411
53405W        W20188  13.958  43.908   4.740
53406W        W20189  31.733  15.250   3.918
53407W        W20190  43.942  27.150   3.112
53408W        W20191   3.816   6.411  12.226
53409W        W20192  14.069  18.763   1.192
53410W        W20193  10.237  17.505   0.263
53411W        W20194  28.529   5.195   2.773
53412W        W20195   7.851   7.421  10.243
53413W        W20196  38.937  38.021   3.734
53414W        W20197  39.988  24.119   3.809
53415W        W20198  28.944  36.407  13.126
53416W        W20199  15.950  16.299   4.454
53417W        W20200  16.642  21.179  12.468
53418W        W20201  21.828  40.378   2.746
53419W        W20202  13.819  20.705   3.266
53420W        W20203  12.262  22.282   2.203
53421W        W20204  37.572  41.832   3.390
53422W        W20205   2.213  17.608  12.398
53423W        W20206  21.714  18.985  13.844
53424W        W20207   4.807  35.009  14.309
53425W        W20208  19.006  36.659   2.291
53426W        W20209  12.024   6.642   2.691
53427W        W20210  16.398  35.402   2.658
53428W        W20211  13.214  28.426  12.213
53429W        W20212  17.065  35.501  12.472
53430W        W20213  41.035  24.147  10.413
53431W        W20214  18.849  15.663  12.858
53432W        W20215   1.979   3.320   2.702
53433W        W20216   5.636  26.097   0.327
53434W        W20217   1.433   7.621   3.272
53435W        W20218  26.122  32.958  12.096
53436W        W20219  43.935   3.779   2.602
53437W        W20220  13.903  18.672   1.748
53438W        W20221   8.144   9.003   0.415
53439W        W20222   9.885  37.940   3.640
53440W        W20223  35.541   1.196  11.229
53441W        W20224   2.117  20.053   2.730
53442W        W20225  43.851  17.759   0.756
53443W        W20226  25.790  15.632  12.487
53444W        W20227  24.634   1.481   1.943
53445W        W20228   4.987  11.636  12.594
53446W        W20229  42.527  18.204  11.737
53447W        W20230  41.254  41.346   1.403
53448W        W20231   3.511  15.541  13.272
53449W        W20232   6.313  43.878  12.381
53450W        W20233   4.168  16.232  13.103
53451W        W20234  17.604  24.229  11.035
53452W        W20235  44.914   1.703   0.920
53453W        W20236  40.530  40.406  14.138
53454W        W20237  34.618  17.233   3.234
53455W        W20238  38.626   2.803  12.046
53456W        W20239  27.743  27.697   1.419
53457W        W20240  27.844  34.018   4.929
53458W        W20241  12.740   3.722   0.711
53459W        W20242  19.521   9.290   1.352
53460W        W20243   7.073  19.605   0.345
53461W        W20244   2.341  27.208  11.451
53462W        W20245  14.738   5.685  11.169
53463W        W20246  33.306   3.720   1.308
53464W        W20247  40.956   1.401   1.700
53465W        W20248  34.512  19.849  12.889
53466W        W20249  35.997  19.569   4.031
53467W        W20250  26.844  29.463   1.280
53468W        W20251  10.808  35.986   1.831
53469W        W20252  41.554  23.056   3.353
53470W        W20253  20.551  35.493  13.974
53471W        W20254  16.517  18.805   2.730
53472W        W20255   6.213   7.746  14.165
53473W        W20256  14.804   9.396   4.509
53474W        W20257  40.916  15.326  11.581
53475W        W20258  25.381   8.539   2.708
53476W        W20259  43.347   3.003   4.733
53477W        W20260  36.961  12.087   0.439
53478W        W20261  14.670  10.707  13.354
53479W        W20262   1.695  28.743  14.317
53480W        W20263  35.433   9.253   3.674
53481W        W20264   9.596  21.234   4.138
53482W        W20265   7.002  11.816   0.717
53483W        W20266  23.597  41.329  12.078
53484W        W20267  17.029  41.372   4.234
53485W        W20268   6.425  37.048  13.439
53486W        W20269  29.069  16.287  14.495
53487W        W20270  38.521   0.880  12.788
53488W        W20271  15.094   6.864  10.706
53489W        W20272   2.168  24.683  14.394
53490W        W20273  40.608  25.117  12.377
53491W        W20274  15.749  38.457   4.180
53492W        W20275  33.341  40.994  10.251
53493W        W20276  18.889  35.814   2.849
53494W        W20277  10.074  26.716   4.241
53495W        W20278  12.488  21.470  13.774
53496W        W20279  29.531  17.543   4.668
53497W        W20280  15.348  22.011  10.369
53498W        W20281  10.806  39.386   3.080
53499W        W20282  14.315  38.594   4.159
53500W        W20283  32.048  31.532  10.749
53501W        W20284  37.826  33.845  10.320
53502W        W20285  14.477   5.724   9.994
53503W        W20286  12.022  25.299  10.678
53504W        W20287  13.603   7.058   2.834
53505W        W20288  32.036   5.097  11.140
53506W        W20289   5.771  32.035  13.701
53507W        W20290  21.668   3.396  12.433
53508W        W20291  44.254  43.522  14.738
53509W        W20292  14.769  31.016   1.458
53510W        W20293  18.624  14.645  12.325
53511W        W20294  31.695   2.448   2.530
53512W        W20295  43.194  29.157  13.978
53513W        W20296  11.329  27.683   3.806
53514W        W20297  21.050  42.450   1.233
53515W        W20298  27.084  12.767  11.698
53516W        W20299  36.382  14.457   1.343
53517W        W20300  35.963  11.495  13.048
53518W        W20301   0.282   4.782  10.597
53519W        W20302   0.344   2.220   0.718
53520W        W20303   3.279  40.257   4.406
53521W        W20304  24.442  40.374  13.576
53522W        W20305  43.860  34.546  12.415
53523W        W20306   7.795  26.152   1.015
53524W        W20307  23.614   1.400   2.713
53525W        W20308  15.852  44.115  11.056
53526W        W20309  40.976   1.968   4.713
53527W        W20310  15.644  29.551  12.530
53528W        W20311  30.301   6.878  12.216
53529W        W20312  37.060  40.707  11.987
53530W        W20313  33.229  38.320   1.920
53531W        W20314  33.561  19.313  14.563
53532W        W20315  21.142   5.377  10.936
53533W        W20316   4.281   0.414  14.503
53534W        W20317  21.509  27.926   1.841
53535W        W20318  22.443  13.800  13.118
53536W        W20319  38.375  43.768   0.674
53537W        W20320  14.325  38.086   4.047
53538W        W20321   3.435  40.453   2.885
53539W        W20322   9.319  29.933  11.315
53540W        W20323  13.130   1.657  11.562
53541W        W20324  29.080  14.399  14.233
53542W        W20325  21.217  27.978  14.539
53543W        W20326   1.851  11.159  12.599
53544W        W20327  13.358  31.502  13.432
53545W        W20328  13.544  18.201   4.076
53546W        W20329  25.786  18.021  11.314
53547W        W20330  23.660  11.112   3.347
53548W        W20331   6.963  43.599  12.826
53549W        W20332  37.206  19.846   2.372
53550W        W20333  31.438  24.630   4.955
53551W        W20334  27.956  30.991  10.746
53552W        W20335  33.028  15.091  14.798
53553W        W20336  30.412  43.024   1.719
53554W        W20337  20.513   3.709   2.267
53555W        W20338  29.052  43.753   3.194
53556W        W20339  21.618   9.522   4.439
53557W        W20340  42.056  28.368   4.101
53558W        W20341   6.912  20.688   2.281
53559W        W20342  15.101  17.322  13.095
53560W        W20343  25.077  43.552   2.903
53561W        W20344  11.194  37.372   4.137
53562W        W20345  21.057   8.882  12.457
53563W        W20346  30.525  16.201  13.370
53564W        W20347  32.662  18.615  14.024
53565W        W20348   4.792  38.374   4.402
53566W        W20349  38.283  20.251  10.964
53567W        W20350   4.320  26.430   0.386
53568W        W20351  32.192  11.557  13.525
53569W        W20352  27.380  16.407   0.850
53570W        W20353  22.231  38.549   4.393
53571W        W20354  42.841  28.395   1.852
53572W        W20355  34.158  24.130  11.931
53573W        W20356  31.685  21.270  13.392
53574W        W20357  28.006  43.669   1.858
53575W        W20358   2.068  22.544   1.845
53576W        W20359  40.339  24.308   0.139
53577W        W20360  41.546  17.892  13.447
53578W        W20361  39.399  42.556  13.424
53579W        W20362  15.056  32.785   3.589
53580W        W20363  30.376  12.373   4.249
53581W        W20364  35.415  18.035   4.540
53582W        W20365   5.452   5.530   1.204
53583W        W20366  31.967  23.528  14.326
53584W        W20367  12.935  12.442   4.218
53585W        W20368   3.400  40.547   1.198
53586W        W20369  30.354  33.161   2.808
53587W        W20370  24.177  32.932  10.712
53588W        W20371  22.569  14.529   1.647
53589W        W20372  40.378   4.178   0.293
53590W        W20373   8.353  30.710  12.297
53591W        W20374   9.416  34.796   2.252
53592W        W20375  12.962   7.207  11.105
53593W        W20376  19.339   0.982   4.165
53594W        W20377  41.187   3.438  14.043
53595W        W20378  22.625  16.901   4.669
53596W        W20379  29.902  44.371  13.030
53597W        W20380  24.654  16.957  13.423
53598W        W20381  41.477  21.533  14.271
53599W        W20382  11.592  37.567   2.638
53600W        W20383  34.501  31.482  14.813
53601W        W20384   8.092  40.044   1.253
53602W        W20385  21.732  41.985   3.735
53603W        W20386  22.239  21.245   3.408
53604W        W20387  21.061  10.384   4.688
53605W        W20388  37.322  39.031   4.932
53606W        W20389   4.765  35.372  13.460
53607W        W20390  15.162  11.143   2.617
53608W        W20391  34.021  33.764   2.224
53609W        W20392   1.288  11.157   0.327
53610W        W20393  23.165  31.300  13.395
53611W        W20394  25.072  15.098  14.513
53612W        W20395   1.013  42.865   3.268
53613W        W20396  25.036  30.148  10.660
53614W        W20397  12.630  34.485   4.055
53615W        W20398  30.088  19.052  12.146
53616W        W20399  15.981  13.135  13.366
53617W        W20400  14.091  14.611   2.291
53618W        W20401  40.795  31.543  11.751
53619W        W20402  11.724  14.224   3.166
53620W        W20403  23.379  37.305  13.997
53621W        W20404  44.059  32.038   0.665
53622W        W20405  34.013  15.052   0.821
53623W        W20406  21.466  22.305  14.455
53624W        W20407  32.588  15.097   0.554
53625W        W20408  23.225  38.123   2.811
53626W        W20409  35.466  40.515  14.540
53627W        W20410  23.443  28.390   2.829
53628W        W20411  22.743  29.714   4.287
53629W        W20412   1.947  41.947   2.197
53630W        W20413  36.915  24.789   4.604
53631W        W20414   2.524  27.383   0.616
53632W        W20415  16.515  37.556   0.480
53633W        W20416  14.122  23.524  11.506
53634W        W20417   2.559  44.530   2.591
53635W        W20418  34.612  31.824  12.040
53636W        W20419  10.372   6.544   3.230
53637W        W20420  34.694  39.808  13.995
53638W        W20421  30.637   7.687   1.342
53639W        W20422   2.536  37.559  12.945
53640W        W20423   2.130  36.313  11.555
53641W        W20424  34.620   9.875  11.983
53642W        W20425  44.473  31.567  12.587
53643W        W20426   7.367  25.025  14.365
53644W        W20427  17.659  42.549   4.229
53645W        W20428   9.926   8.686  14.399
53646W        W20429  27.024  39.137  12.537
53647W        W20430   5.461  10.683  10.329
53648W        W20431   1.381  15.385   0.046
53649W        W20432  25.436  12.170  13.423
53650W        W20433  43.048   9.683   1.963
53651W        W20434  18.570  21.059  11.015
53652W        W20435  30.364  26.666   2.235
53653W        W20436  13.296   2.743  13.547
53654W        W20437  32.702  39.368  14.433
53655W        W20438   2.852  22.735  11.135
53656W        W20439  19.761  13.762   1.532
53657W        W20440   4.066   7.353  14.904
53658W        W20441  14.480  33.333   4.129
53659W        W20442  13.664   2.253   2.501
53660W        W20443  24.087  22.781  12.431
53661W        W20444  15.875   4.380   1.406
53662W        W20445  24.808  17.633  11.018
53663W        W20446   4.190  15.021  12.417
53664W        W20447  34.629  33.941   0.436
53665W        W20448  18.781  43.234  11.508
53666W        W20449  33.274   5.373   3.268
53667W        W20450  36.640  11.354  12.955
53668W        W20451  14.283  38.814   1.025
53669W        W20452  40.049  24.647  12.107
53670W        W20453  21.804  10.100  13.927
53671W        W20454  43.315   1.471  13.017
53672W        W20455   7.126  10.152  10.971
53673W        W20456  12.348   9.275  11.286
53674W        W20457   6.194  43.344   1.875
53675W        W20458   7.937   0.388   1.615
53676W        W20459  40.885  29.448  12.442
53677W        W20460  38.922  23.024  12.404
53678W        W20461  20.852  15.579   2.345
53679W        W20462  43.142  33.790   3.697
53680W        W20463  14.890  14.014   0.834
53681W        W20464  24.604  13.766   4.689
53682W        W20465   9.400  10.232  13.362
53683W        W20466  15.687  32.612  14.806
53684W        W20467  39.374  35.907  10.675
53685W        W20468  39.897  34.474   0.806
53686W        W20469  33.952  44.424   1.348
53687W        W20470  24.504  23.455   4.523
53688W        W20471   0.270  25.121   4.184
53689W        W20472  43.265   6.232   1.248
53690W        W20473  20.458   0.863  10.358
53691W        W20474  32.102   9.410  13.938
53692W        W20475  23.328  37.799   1.568
53693W        W20476  40.960  30.513   1.991
53694W        W20477  43.815  17.087  12.847
53695W        W20478  44.433  20.657   1.159
53696W        W20479  31.628  38.788   1.335
53697W        W20480  32.688  36.817   1.450
53698W        W20481  35.819  11.401  12.028
53699W        W20482  40.967  40.811  11.093
53700W        W20483  12.239  29.309   4.612
53701W        W20484  18.554  28.431   1.937
53702W        W20485   9.894  36.355  10.601
53703W        W20486   8.412  21.600   4.386
53704W        W20487   0.242  12.172   4.417
53705W        W20488  18.143  33.585   2.930
53706W        W20489  28.536  34.241  13.805
53707W        W20490   9.289  23.740   4.499
53708W        W20491   6.956   4.814   2.355
53709W        W20492  42.978  16.057   3.994
53710W        W20493  44.064  43.069  13.893
53711W        W20494  18.148  36.832   3.367
53712W        W20495  13.456  44.029   4.640
53713W        W20496  10.190  26.193  10.602
53714W        W20497  37.837   2.831   3.253
53715W        W20498  33.416  42.830  13.486
53716W        W20499   5.492  18.410  13.270
53717W        W20500  24.085  22.587   0.449
53718W        W20501  29.106  26.651   2.128
53719W        W20502  39.127  44.918   1.025
53720W        W20503  29.896  42.323   2.436
53721W        W20504   6.135  18.530  11.277
53722W        W20505  22.993  14.105   4.726
53723W        W20506   9.651  40.224  11.572
53724W        W20507  31.371   7.405   3.646
53725W        W20508  19.482   9.668   1.870
53726W        W20509  20.396  33.177  11.254
53727W        W20510  28.557   1.342  10.529
53728W        W20511   4.521  35.539  13.920
53729W        W20512  19.162   8.851   2.489
53730W        W20513  36.981  12.901   1.372
53731W        W20514  41.455  25.476  11.895
53732W        W20515  23.632  33.503   1.237
53733W        W20516  23.542   7.990  12.608
53734W        W20517  21.131  27.016   1.837
53735W        W20518   0.296  39.953   2.160
53736W        W20519  22.141  22.402  11.621
53737W        W20520  20.200  31.514  13.843
53738W        W20521   0.251   3.417   4.116
53739W        W20522  20.702  33.398   1.378
53740W        W20523  38.590  10.120   0.223
53741W        W20524  12.627  42.671  12.909
53742W        W20525  43.577   4.156   3.691
53743W        W20526  36.941  30.439  11.200
53744W        W20527  32.344   6.107  10.319
53745W        W20528  24.504  27.119   2.824
53746W        W20529  25.500  36.895   1.714
53747W        W20530  20.185  23.294   0.793
53748W        W20531  38.745  34.509  12.104
53749W        W20532   7.699  28.898  14.453
53750W        W20533   7.444  31.908  10.927
53751W        W20534  19.494  38.530  13.618
53752W        W20535  11.244  37.134  12.390
53753W        W20536   2.968  41.797   2.248
53754W        W20537  16.123  33.581   1.699
53755W        W20538   0.053  35.496   0.421
53756W        W20539  33.227  23.256   1.391
53757W        W20540  30.160   1.885   3.616
53758W        W20541  10.118   3.860  14.041
53759W        W20542  14.531  21.097  13.082
53760W        W20543  13.409   8.728  11.612
53761W        W20544   0.780  18.445  10.776
53762W        W20545   9.038  43.279   0.327
53763W        W20546  30.595  21.026   4.115
53764W        W20547   8.732  10.701   2.935
53765W        W20548  24.210  31.500  10.976
53766W        W20549  35.393  30.240  10.694
53767W        W20550  20.766   5.986   3.755
53768W        W20551  42.810  23.696   4.302
53769W        W20552   7.748   2.134   1.784
53770W        W20553  38.829  19.408  11.531
53771W        W20554  33.077  29.365  11.515
53772W        W20555   9.359  17.057  11.968
53773W        W20556  26.858  40.965  13.408
53774W        W20557   2.756  34.907  11.103
53775W        W20558   3.799  12.315   2.778
53776W        W20559  33.725  25.960   1.475
53777W        W20560   5.456  40.985   2.690
53778W        W20561  18.696   1.772  12.016
53779W        W20562  33.498  12.792  11.192
53780W        W20563  14.807  26.453  10.259
53781W        W20564  40.874  37.000   4.174
53782W        W20565  20.640  22.034   0.888
53783W        W20566  44.359  26.897  11.413
53784W        W20567  11.192   9.659   3.230
53785W        W20568  29.486  14.625  14.612
53786W        W20569  39.144  37.609  11.723
53787W        W20570  40.255  28.725   3.771
53788W        W20571  19.517   7.682  13.932
53789W        W20572   6.878   7.388   2.072
53790W        W20573  34.129  19.698  10.945
53791W        W20574  37.897  18.597   2.327
53792W        W20575  17.963  13.837   9.786
53793W        W20576   8.169  19.759   2.859
53794W        W20577  11.348   6.640   4.561
53795W        W20578  22.496  43.255  10.684
53796W        W20579   9.525  11.371  11.776
53797W        W20580  35.130  11.153   3.698
53798W        W20581  34.931  21.662   2.988
53799W        W20582  19.581  28.745  13.878
53800W        W20583  35.359  34.409  11.650
53801W        W20584  34.431  32.089  13.820
53802W        W20585  25.130  35.871   0.804
53803W        W20586  12.828   7.287  13.002
53804W        W20587  12.300   9.167   3.711
53805W        W20588  32.500  12.057   2.816
53806W        W20589  35.886  37.115  12.512
53807W        W20590   6.381  33.515  11.866
53808W        W20591  18.191  31.648  12.153
53809W        W20592   8.215  27.024  12.809
53810W        W20593  29.683  29.905   3.094
53811W        W20594   9.815   6.239  12.488
53812W        W20595  20.818  26.161  11.369
53813W        W20596   1.082  12.994   4.978
53814W        W20597   1.304  13.512   2.322
53815W        W20598  32.634  18.016   2.775
53816W        W20599  37.678  35.790   1.443
53817W        W20600  29.539  40.724  12.906
53818W        W20601  27.737  37.499  12.092
53819W        W20602  36.156  42.458  12.993
53820W        W20603  30.203  15.779  13.353
53821W        W20604  16.189  40.012  13.971
53822W        W20605  31.065   5.411  11.571
53823W        W20606   2.920  28.660  10.652
53824W        W20607  26.170  40.742   2.768
53825W        W20608  40.413  39.962  14.436
53826W        W20609  36.427   5.161  12.486
53827W        W20610  24.710  36.334  12.531
53828W        W20611   7.292  37.404  12.414
53829W        W20612  19.826  24.760   4.164
53830W        W20613  37.922  23.616  11.544
53831W        W20614  31.322  26.893  11.066
53832W        W20615  29.143  23.996  14.870
53833W        W20616   5.466  14.692  10.628
53834W        W20617  42.332  30.196  14.818
53835W        W20618  43.230   7.598   0.936
53836W        W20619  28.162  36.579   3.624
53837W        W20620  14.909  23.248   0.825
53838W        W20621  25.470  37.598  14.385
53839W        W20622  28.381  19.085  11.050
53840W        W20623   5.529  27.557  12.176
53841W        W20624  44.827  37.906  11.442
53842W        W20625   6.693  28.855  14.227
53843W        W20626  19.772  24.586   3.660
53844W        W20627  19.535  43.800  12.455
53845W        W20628   4.854   3.752  10.741
53846W        W20629   8.811  33.596  14.522
53847W        W20630  34.396  26.794   0.460
53848W        W20631   7.544  33.810   4.829
53849W        W20632   7.550  32.913  14.601
53850W        W20633  43.058  44.765   3.327
53851W        W20634  41.087   9.825  13.366
53852W        W20635  33.211  30.376   3.164
53853W        W20636  31.520  19.116   3.403
53854W        W20637  41.579  24.786  13.628
53855W        W20638  34.291  13.645   1.151
53856W        W20639   3.779   9.639   1.382
53857W        W20640  27.373  39.123   1.739
53858W        W20641  41.441   1.873   1.158
53859W        W20642  30.110  31.683  13.481
53860W        W20643  44.969  25.252  11.902
53861W        W20644  14.631  44.476   4.212
53862W        W20645  36.303   3.515  12.999
53863W        W20646  14.071   5.350  13.052
53864W        W20647  38.490  13.551  12.937
53865W        W20648   4.998  17.018   0.024
53866W        W20649  20.036   3.252   1.962
53867W        W20650  27.177  31.498   3.632
53868W        W20651   4.794  27.685  11.045
53869W        W20652  28.267   5.898   1.729
53870W        W20653  10.891  17.592   0.973
53871W        W20654  18.245  36.687   4.275
53872W        W20655   8.287  34.849  14.882
53873W        W20656  37.936  30.206  11.989
53874W        W20657  36.396  36.529   0.956
53875W        W20658  25.675  33.604  11.692
53876W        W20659  19.766  42.516   3.844
53877W        W20660   7.136  33.113   2.415
53878W        W20661   6.782   1.412  13.754
53879W        W20662   6.113  34.172   4.261
53880W        W20663   2.739  37.479  10.576
53881W        W20664  42.897  12.428  14.300
53882W        W20665  27.171  22.926   4.093
53883W        W20666  41.873  24.432   1.964
53884W        W20667  13.870  30.185  13.462
53885W        W20668   3.398   3.200   4.178
53886W        W20669   4.726  25.450  12.084
53887W        W20670  15.229  40.864   0.831
53888W        W20671  21.152   2.904   1.475
53889W        W20672  43.839  26.309  14.945
53890W        W20673  24.394  17.346  11.701
53891W        W20674  44.540   2.399  11.140
53892W        W20675  44.168  10.736  12.325
53893W        W20676  44.019   3.834   0.765
53894W        W20677   9.777  17.992  11.237
53895W        W20678  10.283   1.117   5.140
53896W        W20679  40.929   3.270  14.456
53897W        W20680  31.743  21.721   2.076
53898W        W20681   6.082   4.299   0.419
53899W        W20682  22.598  13.206  13.765
53900W        W20683  16.752  12.729  10.829
53901W        W20684  18.309  18.362  11.907
53902W        W20685  19.566  33.963  10.663
53903W        W20686   5.774  13.717  14.820
53904W        W20687  38.847  26.284  11.436
53905W        W20688  44.356  31.678  10.149
53906W        W20689  11.231  28.581   1.359
53907W        W20690   9.847  31.327  11.112
53908W        W20691  34.635  40.487  10.688
53909W        W20692  26.815  10.167  12.323
53910W        W20693   6.851  21.978  10.694
53911W        W20694  36.284   4.827   2.267
53912W        W20695   6.738   7.182  11.167
53913W        W20696  26.499  16.625  12.429
53914W        W20697  36.456  43.968  12.812
53915W        W20698  37.972  37.525   1.797
53916W        W20699  42.339   6.259   1.840
53917W        W20700  25.260  32.134   0.585
53918W        W20701  18.068   4.942  14.452
53919W        W20702   5.921  38.335  14.760
53920W        W20703  32.481  14.344  12.827
53921W        W20704  35.883  27.707   3.671
53922W        W20705  16.542  15.141   0.818
53923W        W20706   9.818  20.622  11.776
53924W        W20707  25.573  25.117  11.906
53925W        W20708  33.829  22.707  12.026
53926W        W20709  37.574   4.340   4.306
53927W        W20710   5.342  35.337  11.552
53928W        W20711  38.882   6.867  14.960
53929W        W20712  14.261  31.005   0.108
53930W        W20713  41.077  22.034   0.995
53931W        W20714  13.779  13.319  13.042
53932W        W20715  37.115  39.254  11.943
53933W        W20716  11.180  30.017  14.273
53934W        W20717  41.366   6.173   3.604
53935W        W20718  28.352  22.044  14.080
53936W        W20719  32.018   7.188   1.469
53937W        W20720  21.228   1.847  10.748
53938W        W20721   7.185   9.931   2.022
53939W        W20722   8.765   2.426  11.166
53940W        W20723  19.529  13.087   2.797
53941W        W20724  19.937  37.828   4.621
53942W        W20725   2.740   8.937  10.850
53943W        W20726   3.357   5.915  11.575
53944W        W20727  17.219  10.129   1.852
53945W        W20728  20.337  10.379   0.026
53946W        W20729  14.760  16.797   3.314
53947W        W20730  33.757   0.837  14.406
53948W        W20731  27.021  19.076  14.441
53949W        W20732  13.852  33.000  12.073
53950W        W20733  44.738   6.882   0.910
53951W        W20734  44.857  35.964  13.595
53952W        W20735  24.783   9.235   3.103
53953W        W20736  25.160   1.921   2.247
53954W        W20737  22.775  17.270   0.290
53955W        W20738  11.713  20.277  14.397
53956W        W20739   8.899  18.433  14.337
53957W        W20740  36.192  37.356  12.182
53958W        W20741   2.465  35.939  10.273
53959W        W20742  21.287  35.554   2.808
53960W        W20743  38.898  35.964  11.572
53961W        W20744  20.551  34.930  14.633
53962W        W20745  11.054  17.195   2.217
53963W        W20746  44.811  34.165  13.885
53964W        W20747   1.621  41.176  12.388
53965W        W20748  31.897  25.520  13.626
53966W        W20749  43.885  38.402   1.471
53967W        W20750   0.703   8.420   2.290
53968W        W20751   5.923   1.839   2.470
53969W        W20752  10.350  25.247  14.547
53970W        W20753  10.767  20.526  12.683
53971W        W20754   4.237   3.855   1.353
53972W        W20755  36.376   8.939   4.101
53973W        W20756  18.764  28.181   2.331
53974W        W20757  32.267   0.203   1.359
53975W        W20758  30.524   4.864   3.609
53976W        W20759  11.128  26.908  13.627
53977W        W20760  16.624  41.402   0.465
53978W        W20761  29.141  25.618   2.168
53979W        W20762  44.797   6.225  14.412
53980W        W20763  38.467  43.868   3.697
53981W        W20764   6.699   2.430  13.529
53982W        W20765   0.803   2.389  10.659
53983W        W20766  43.961  43.038  10.702
53984W        W20767  34.493  20.990  13.767
53985W        W20768  18.253  27.546   2.302
53986W        W20769   7.639  35.375   0.500
53987W        W20770  35.489  19.723  12.187
53988W        W20771  41.647  19.537  11.038
53989W        W20772  40.354  24.069   1.463
53990W        W20773  31.203   6.309   5.014
53991W        W20774  41.312  21.637   4.843
53992W        W20775  21.034  23.636  10.878
53993W        W20776  37.303  33.313   1.337
53994W        W20777  36.533  19.713  11.172
53995W        W20778  15.883   5.790   0.982
53996W        W20779   1.012  31.158  11.059
53997W        W20780  15.993   7.202   2.199
53998W        W20781  30.618  34.022  14.296
53999W        W20782   1.990   9.943  10.772
54000W        W20783  33.477   0.367  14.972
54001W        W20784  11.835   0.173  12.363
54002W        W20785  33.878  37.814   2.133
54003W        W20786  18.733   0.037  14.063
54004W        W20787   4.902  25.173   3.184
54005W        W20788  21.189  23.607   4.643
54006W        W20789  12.709  21.453  10.550
54007W        W20790   8.935  39.758   2.823
54008W        W20791  33.481  26.544   1.724
54009W        W20792  25.474  20.283  10.580
54010W        W20793  20.443  22.655   2.733
54011W        W20794  29.364   9.771   4.901
54012W        W20795  28.124  40.104  10.978
54013W        W20796   7.150   9.732  12.191
54014W        W20797  34.842   2.840   2.464
54015W        W20798  35.415  14.352  14.864
54016W        W20799  15.645  34.945   1.628
54017W        W20800   9.116   6.702  12.615
54018W        W20801  29.880  20.864   4.129
54019W        W20802  27.017  29.138   3.778
54020W        W20803  23.556  36.499  13.541
54021W        W20804  21.238  15.315  12.903
54022W        W20805  28.538  35.804  12.613
54023W        W20806  35.339  28.042   2.873
54024W        W20807  42.597  19.274   0.845
54025W        W20808  15.299  34.166  13.848
54026W        W20809   3.414   8.629   5.083
54027W        W20810  26.608  37.164   2.434
54028W        W20811  14.552  40.790  10.691
54029W        W20812   3.665   6.439  14.223
54030W        W20813   7.069  30.704   1.346
54031W        W20814   0.497  25.591   4.316
54032W        W20815  24.258   1.051   0.737
54033W        W20816  19.771  21.264  10.952
54034W        W20817  42.845  42.033   1.720
54035W        W20818  13.510  14.743   1.248
54036W        W20819  21.041  15.851   3.675
54037W        W20820  44.752  12.084   1.469
54038W        W20821  13.812   9.252  14.986
54039W        W20822   9.381   9.813  14.042
54040W        W20823  31.134  22.616  13.875
54041W        W20824  14.151  39.170   1.592
54042W        W20825  43.406  11.181  10.697
54043W        W20826  12.607  42.322   3.639
54044W        W20827  35.708  41.047   2.935
54045W        W20828  12.689  35.471  13.750
54046W        W20829  30.546   5.864   4.116
54047W        W20830   0.768   8.684  10.637
54048W        W20831  19.864   3.697  13.405
54049W        W20832   8.233   4.847   4.217
54050W        W20833  36.831   3.219  12.113
54051W        W20834  42.803  31.222  12.550
54052W        W20835   9.399  24.125  12.528
54053W        W20836  30.376   3.433  11.124
54054W        W20837   3.425  36.887   4.608
54055W        W20838   0.534  42.760  13.909
54056W        W20839  43.380  13.643  12.840
54057W        W20840  29.948  17.366   4.957
54058W        W20841  37.501  43.888  13.040
54059W        W20842  25.313  22.126  14.915
54060W        W20843   2.321  19.124   2.250
54061W        W20844  27.664  30.150   4.215
54062W        W20845  15.222   5.326   3.747
54063W        W20846  13.263  21.739   4.696
54064W        W20847  39.776  28.682  10.427
54065W        W20848   5.359  26.966   2.666
54066W        W20849  24.853  27.851  10.327
54067W        W20850  39.941  20.945   2.204
54068W        W20851  16.856  35.048  11.734
54069W        W20852  20.144  38.300   4.494
54070W        W20853   2.407  36.909  11.778
54071W        W20854  16.180   9.268  12.032
54072W        W20855   9.867  27.836  14.838
54073W        W20856  11.886   6.226   2.163
54074W        W20857  25.954  37.518   0.828
54075W        W20858  31.150  16.581  13.421
54076W        W20859  24.087  30.480   1.700
54077W        W20860  37.812  24.419   0.927
54078W        W20861  32.368  36.356  12.645
54079W        W20862  41.055  44.285  10.708
54080W        W20863  10.609  18.539  11.108
54081W        W20864  23.848  40.222   1.843
54082W        W20865  12.565  12.312   3.222
54083W        W20866  44.540  35.037  11.072
54084W        W20867  35.077  43.607   1.850
54085W        W20868  24.740  26.200   0.552
54086W        W20869   8.375  40.371  11.228
54087W        W20870   3.397  12.179  14.471
54088W        W20871  23.122   6.473  10.466
54089W        W20872  20.626  19.770   2.328
54090W        W20873   5.289  22.826  10.755
54091W        W20874   2.947   4.791   4.686
54092W        W20875  11.098  39.912  12.807
54093W        W20876  37.799  18.972   1.342
54094W        W20877  44.959   4.338   3.501
54095W        W20878   4.150  15.879   4.708
54096W        W20879  35.489  34.980  12.840
54097W        W20880   2.843  30.902  12.873
54098W        W20881  25.162  21.099  13.000
54099W        W20882  34.440  43.816   1.866
54100W        W20883  19.560  30.736  13.090
54101W        W20884  18.231  43.569  13.346
54102W        W20885  34.975  27.217  13.076
54103W        W20886  31.206  34.448   4.941
54104W        W20887   9.952  30.454   3.843
54105W        W20888  15.738   8.938   4.169
54106W        W20889  15.046  29.882  14.431
54107W        W20890   0.794  24.014   1.628
54108W        W20891  40.254  43.225  14.938
54109W        W20892  40.264  23.145  11.239
54110W        W20893  37.093   0.939  14.606
54111W        W20894  19.148  15.107  13.838
54112W        W20895  41.606  16.555   4.339
54113W        W20896  19.241  11.842   0.523
54114W        W20897   4.677  15.208   1.002
54115W        W20898  37.375  13.931  11.541
54116W        W20899  28.225  24.135   0.492
54117W        W20900  26.667  37.267   0.399
54118W        W20901  22.492  34.819  14.816
54119W        W20902   9.236  38.584   0.435
54120W        W20903   6.722   1.933  12.444
54121W        W20904  44.022   9.831  14.310
54122W        W20905   6.434  21.520  12.100
54123W        W20906  41.498  12.210   4.242
54124W        W20907  30.149  16.599  13.485
54125W        W20908   5.761  38.776   3.132
54126W        W20909  38.351  15.814  13.384
54127W        W20910  31.069  29.981   1.650
54128W        W20911  32.680   9.556  12.470
54129W        W20912  30.687  32.662   3.358
54130W        W20913   8.337   8.188  10.809
54131W        W20914  31.024  14.637   2.399
54132W        W20915  16.271   2.909  13.981
54133W        W20916  44.320  28.448   4.657
54134W        W20917   9.758  23.617  11.128
54135W        W20918   1.379   7.907  12.334
54136W        W20919  12.812  11.820  13.723
54137W        W20920   2.599  15.807   0.994
54138W        W20921   2.252   8.186  14.914
54139W        W20922   0.802  39.404  11.874
54140W        W20923  23.588  32.069  11.379
54141W        W20924  22.535   4.674   1.242
54142W        W20925  13.617  35.995  11.705
54143W        W20926  44.473  15.108   4.050
54144W        W20927   8.708  42.745  13.251
54145W        W20928  23.025   4.466   1.205
54146W        W20929  42.332  30.454  12.467
54147W        W20930  12.279   8.049  14.212
54148W        W20931  12.467  40.184  14.394
54149W        W20932  37.503  31.884   3.153
54150W        W20933  29.422  16.272   2.751
54151W        W20934  30.558   9.448   3.306
54152W        W20935  14.552  42.025   3.605
54153W        W20936  33.870  31.320   2.499
54154W        W20937   2.153   0.347   1.907
54155W        W20938   7.933  28.441   2.295
54156W        W20939  10.993  23.056  13.438
54157W        W20940  40.542  41.002   0.117
54158W        W20941  37.256  42.545   1.392
54159W        W20942  29.203   5.467   0.745
54160W        W20943  40.681  10.583   2.900
54161W        W20944  25.059  30.156   1.825
54162W        W20945  15.425  38.347   5.113
54163W        W20946  13.105  26.713   2.115
54164W        W20947   7.349  20.843   9.998
54165W        W20948  12.909  32.182   0.526
54166W        W20949   9.803  21.400   2.668
54167W        W20950  19.618  36.024  14.610
54168W        W20951   8.421  33.352   4.530
54169W        W20952   7.690  30.001  12.994
54170W        W20953  37.300  43.402   0.949
54171W        W20954  14.802  17.182  11.066
54172W        W20955  39.309  29.643   3.094
54173W        W20956   3.121   4.384  10.744
54174W        W20957  36.445   7.431   0.378
54175W        W20958   1.174  22.135  12.883
54176W        W20959  22.474   1.534   0.022
54177W        W20960  32.137   3.692  11.382
54178W        W20961  16.038  20.643  11.447
54179W        W20962  22.305  22.333   3.593
54180W        W20963  14.774   1.848  12.499
54181W        W20964  37.665  24.688  14.511
54182W        W20965  37.303  28.250   4.109
54183W        W20966  33.184  23.297  13.906
54184W        W20967  18.523  32.052   0.214
54185W        W20968   9.295   2.921  12.417
54186W        W20969   8.792   5.767  11.644
54187W        W20970   0.371  12.641   3.146
54188W        W20971  25.191  14.151   3.262
54189W        W20972   0.615  17.033   0.916
54190W        W20973  14.601  38.083   5.064
54191W        W20974   2.764  33.570   3.120
54192W        W20975  20.102  25.702   1.988
54193W        W20976  12.255  41.413   0.354
54194W        W20977  44.787  34.679   3.848
54195W        W20978  14.212   2.237  13.558
54196W        W20979  36.239  27.214   1.850
54197W        W20980  30.998  44.034   0.965
54198W        W20981  23.646  15.840  10.216
54199W        W20982  36.953  34.497   2.891
54200W        W20983   0.208   3.684  12.022
54201W        W20984  17.257  12.425  10.599
54202W        W20985  24.647   3.855  10.255
54203W        W20986  31.166  35.105  12.837
54204W        W20987   7.445  20.069  10.526
54205W        W20988  29.476  30.159   4.564
54206W        W20989  31.660  36.528  14.920
54207W        W20990  22.506  19.188   4.294
54208W        W20991  35.219  18.191  13.983
54209W        W20992  28.426   6.395   1.568
54210W        W20993  16.480  16.313   4.303
54211W        W20994  33.086  35.718  11.131
54212W        W20995  32.074  39.483   1.295
54213W        W20996  15.652  13.754   0.320
54214W        W20997  21.506  19.805  13.689
54215W        W20998  35.923  40.880  14.805
54216W        W20999  21.615   1.913  11.876
54217W        W21000  43.882  38.496   2.449
54218W        W21001  27.098   5.426  14.810
54219W        W21002  35.611  20.777  12.826
54220W        W21003  40.632  17.587  13.729
54221W        W21004  34.302  27.157   1.752
54222W        W21005  10.897  11.757   3.728
54223W        W21006  23.706  36.043   3.551
54224W        W21007  16.569  38.764  14.517
54225W        W21008   6.707  14.665  14.269
54226W        W21009  24.988  32.426   2.280
54227W        W21010  33.576  31.723   1.815
54228W        W21011  19.604  30.596  11.232
54229W        W21012   6.219  42.310   2.697
54230W        W21013  14.671  27.265   2.434
54231W        W21014  44.982  40.687   0.828
54232W        W21015  27.120  19.431  10.694
54233W        W21016  43.508  44.798   1.756
54234W        W21017  44.397   9.584   2.371
54235W        W21018   4.821  41.564   2.473
54236W        W21019  27.458  14.146  10.469
54237W        W21020   7.364   5.723   0.199
54238W        W21021  15.113   6.820  14.436
54239W        W21022  22.170  21.811  10.417
54240W        W21023   7.546  24.119  13.306
54241W        W21024  36.912  12.941  12.102
54242W        W21025   7.284   7.158   5.130
54243W        W21026   1.161   8.590   4.793
54244W        W21027  11.917  32.495   2.406
54245W        W21028  24.718  44.341   2.280
54246W        W21029  22.926  21.243  11.680
54247W        W21030  29.485   3.963   4.300
54248W        W21031  18.854   7.127  12.550
54249W        W21032  24.744   2.032  11.126
54250W        W21033   3.469   1.481  14.243
54251W        W21034  12.600  18.759   3.894
54252W        W21035  42.802  17.210  14.294
54253W        W21036  22.730   1.952  13.814
54254W        W21037  36.379  33.586  10.813
54255W        W21038  25.848  43.495   4.048
54256W        W21039  10.727  37.534   4.221
54257W        W21040  12.369  43.334   3.203
54258W        W21041  34.552  28.429  14.355
54259W        W21042  39.906  20.681   4.083
54260W        W21043  16.160  36.085  14.907
54261W        W21044  37.937  14.251  13.138
54262W        W21045  14.235  24.962   1.853
54263W        W21046   6.250  18.849  13.347
54264W        W21047  10.081   1.475   3.752
54265W        W21048  44.407  28.204   0.944
54266W        W21049  35.629  22.026   1.382
54267W        W21050  14.817   9.237  10.671
54268W        W21051  43.744  18.599  13.834
54269W        W21052  23.240   7.248  13.666
54270W        W21053  17.541  41.563   3.210
54271W        W21054  27.485  14.354  11.531
54272W        W21055   4.837  41.396  10.614
54273W        W21056   6.441   9.312  10.644
54274W        W21057  21.689  21.934  14.741
54275W        W21058  37.463  35.847  13.334
54276W        W21059   9.934  41.528   2.499
54277W        W21060   1.221   3.047  10.196
54278W        W21061  10.943  18.740   2.231
54279W        W21062  41.994  23.153   1.143
54280W        W21063  44.998  43.348   4.827
54281W        W21064  29.462  12.325   0.690
54282W        W21065  37.054  19.643  11.076
54283W        W21066  11.363   9.141   0.479
54284W        W21067   3.496  31.975  11.920
54285W        W21068  38.842  18.277  12.825
54286W        W21069  12.900  38.316  12.019
54287W        W21070  41.054  13.419  12.845
54288W        W21071   6.649   0.792   2.788
54289W        W21072   2.884   9.799   3.503
54290W        W21073  24.565  10.137   3.124
54291W        W21074  28.297  12.582  14.509
54292W        W21075   9.278  42.358   4.868
54293W        W21076  31.445  40.686   3.171
54294W        W21077  33.026  20.781   0.237
54295W        W21078  19.029   0.784   0.265
54296W        W21079   8.132  25.063  12.062
54297W        W21080   6.705  28.416   2.707
54298W        W21081   4.362  36.495  13.303
54299W        W21082  35.018  40.933   4.599
54300W        W21083   2.523  41.989   3.571
54301W        W21084   4.764  10.941   0.834
54302W        W21085  38.969  39.448  12.877
54303W        W21086  31.160   0.330  12.039
54304W        W21087  15.338  40.545  12.015
54305W        W21088  38.942   1.570  10.889
54306W        W21089  31.590  15.540   1.687
54307W        W21090  24.243  17.546  13.860
54308W        W21091   4.657  18.016   2.325
54309W        W21092  41.681   9.871   1.887
54310W        W21093  13.669  18.605  12.806
54311W        W21094   7.228  40.313  13.034
54312W        W21095  28.923  31.861   3.687
54313W        W21096  34.570   0.517   4.212
54314W        W21097  36.532   6.918  14.090
54315W        W21098  19.060  27.961   2.682
54316W        W21099  16.689  12.622   3.454
54317W        W21100  17.670   0.752   1.439
54318W        W21101   8.736  38.513  12.052
54319W        W21102   6.947  41.510   2.259
54320W        W21103  27.795   7.862   1.265
54321W        W21104   3.776  34.430  14.968
54322W        W21105  10.336  42.254   3.410
54323W        W21106  29.510  14.733   1.605
54324W        W21107  18.666  13.541  11.474
54325W        W21108  12.341   8.171   0.903
54326W        W21109   6.729  42.539   2.586
54327W        W21110  42.937  35.434  11.828
54328W        W21111  43.941   7.000  14.212
54329W        W21112   8.870  27.170  13.114
54330W        W21113  33.892   9.880  13.076
54331W        W21114  31.190  43.885   3.738
54332W        W21115  43.810  40.771  14.535
54333W        W21116  40.152  32.579   3.894
54334W        W21117  40.290  17.691   1.824
54335W        W21118  40.001  11.909   2.110
54336W        W21119  14.314  15.677   4.606
54337W        W21120  39.996   6.955  13.395
54338W        W21121  43.511  20.838   4.154
54339W        W21122  27.606  14.960   1.835
54340W        W21123  19.270  40.015  14.251
54341W        W21124   6.380  33.724   0.265
54342W        W21125  15.852  13.503  12.873
54343W        W21126   2.690  43.772   0.947
54344W        W21127  14.614  14.692  12.856
54345W        W21128  15.284  26.990   3.176
54346W        W21129  23.883  42.336   4.069
54347W        W21130  14.120  31.522  12.957
54348W        W21131  34.900   7.812  12.672
54349W        W21132  12.099   2.510   2.448
54350W        W21133  42.226  20.841   0.439
54351W        W21134  43.805   4.495   4.488
54352W        W21135  40.883  27.070   1.847
54353W        W21136   7.934  34.210  12.972
54354W        W21137  31.582   2.455   3.800
54355W        W21138  35.703   7.592  13.771
54356W        W21139  32.008   8.287  11.209
54357W        W21140  22.290  26.036   2.221
54358W        W21141   1.228   6.477   4.918
54359W        W21142  11.696  30.426  14.960
54360W        W21143  43.971  13.074   3.945
54361W        W21144   2.274  32.875  12.955
54362W        W21145  40.665   3.895  13.731
54363W        W21146  21.419  32.056   5.021
54364W        W21147  38.478   1.555   0.330
54365W        W21148  14.113   1.783  13.258
54366W        W21149  17.472  13.618   0.020
54367W        W21150  37.514  31.424   3.355
54368W        W21151  10.214  37.144  11.053
54369W        W21152   8.614  25.595   0.246
54370W        W21153  31.458   4.446  13.386
54371W        W21154  43.372  41.589   3.390
54372W        W21155  42.726  34.577   0.184
54373W        W21156  14.347  43.356  10.914
54374W        W21157  27.119   1.210  14.805
54375W        W21158  20.374  33.681   3.447
54376W        W21159  38.096  44.829   3.099
54377W        W21160  42.360  15.950  11.997
54378W        W21161  35.360   9.675   2.132
54379W        W21162  42.068  18.549   4.516
54380W        W21163  27.918  42.082   3.551
54381W        W21164  17.791  21.678   1.368
54382W        W21165  20.722  25.478  11.981
54383W        W21166   7.277  23.494  12.951
54384W        W21167  38.496   3.646  11.141
54385W        W21168  38.433  37.999   0.632
54386W        W21169  14.080  38.880   0.538
54387W        W21170  38.785  26.425   1.347
54388W        W21171  35.521  34.446  12.684
54389W        W21172  11.340   1.834   4.202
54390W        W21173  39.356  23.933  10.734
54391W        W21174  19.752  42.010  12.522
54392W        W21175  24.420  44.348  10.685
54393W        W21176   9.018  33.941   0.249
54394W        W21177  29.408  15.611  13.193
54395W        W21178   1.751  11.332  13.890
54396W        W21179  11.537  41.458  14.487
54397W        W21180  19.415  10.850   1.239
54398W        W21181  26.359  44.055   0.972
54399W        W21182  20.753  21.119  11.284
54400W        W21183  33.290   5.784   0.404
54401W        W21184  15.146  19.172  10.766
54402W        W21185  36.345  32.782  11.125
54403W        W21186  38.992  21.724   2.669
54404W        W21187  40.344  15.024   4.126
54405W        W21188   4.434  31.670  13.916
54406W        W21189  16.842  19.635  12.544
54407W        W21190  32.520   4.825   0.861
54408W        W21191   1.212  15.310  12.778
54409W        W21192  13.362  17.919  13.465
54410W        W21193   2.551  32.188  13.517
54411W        W21194  22.026  31.169   1.794
54412W        W21195  18.164  41.153   2.527
54413W        W21196  29.866  30.062  11.260
54414W        W21197  22.149  15.209   3.362
54415W        W21198  29.970  25.913  14.272
54416W        W21199  21.747  26.824  13.246
54417W        W21200  26.257   9.536   4.581
54418W        W21201   6.890  32.460  13.454
54419W        W21202  44.903  17.050  14.108
54420W        W21203  30.527  44.815   1.005
54421W        W21204  44.375   9.119  14.951
54422W        W21205  43.247  20.550   0.394
54423W        W21206   6.287  33.594   4.489
54424W        W21207   4.379   7.430   1.655
54425W        W21208  28.612  36.085   0.291
54426W        W21209  38.870  13.740  13.784
54427W        W21210   4.298   9.999  12.820
54428W        W21211  20.682   2.063   2.821
54429W        W21212  34.316  14.376   4.493
54430W        W21213  40.399  24.993   3.623
54431W        W21214   0.905  23.567   4.625
54432W        W21215  13.105   5.938   3.673
54433W        W21216  24.513  31.016  13.079
54434W        W21217  28.006  23.026   2.213
54435W        W21218  41.287  43.315  12.518
54436W        W21219  43.455  31.552  10.822
54437W        W21220  13.147  16.150   4.434
54438W        W21221  14.107  13.909   4.615
54439W        W21222  21.322  38.878   2.183
54440W        W21223  10.338  27.129  11.955
54441W        W21224   6.391   1.447  10.775
54442W        W21225  10.863  23.250   4.170
54443W        W21226  31.591   9.797  10.601
54444W        W21227  40.848   0.736   0.942
54445W        W21228  44.591  42.748  13.396
54446W        W21229  24.502   1.941   2.737
54447W        W21230  19.191   4.769  12.953
54448W        W21231  37.456  38.523  14.511
54449W        W21232  41.847  44.780  11.252
54450W        W21233  26.923  19.268  11.140
54451W        W21234  28.159  44.952   2.144
54452W        W21235  31.698  18.278  11.536
54453W        W21236  18.579  44.746   3.213
54454W        W21237   8.756  34.598   1.361
54455W        W21238   7.809  30.488   1.697
54456W        W21239  42.803  41.789   1.287
54457W        W21240  20.155  31.353  12.490
54458W        W21241  24.666   9.591  14.487
54459W        W21242  28.988  32.771  11.634
54460W        W21243  38.095  20.162   3.460
54461W        W21244  29.911  13.662   2.261
54462W        W21245  44.450  41.844  14.853
54463W        W21246   9.865   7.255   2.560
54464W        W21247  23.558   5.922  14.007
54465W        W21248  27.425  37.402   0.759
54466W        W21249  30.379   8.355  11.978
54467W        W21250  19.145  25.555  13.585
54468W        W21251  34.376  37.810  11.133
54469W        W21252  28.779  23.940   3.238
54470W        W21253   9.102   0.049  13.799
54471W        W21254  12.515  19.624   4.565
54472W        W21255  12.317  18.729  10.859
54473W        W21256  24.858  37.378   1.958
54474W        W21257  42.882  41.280  14.372
54475W        W21258   8.493  42.532  11.459
54476W        W21259  12.217  10.228  13.850
54477W        W21260  15.789   8.127   4.567
54478W        W21261   7.907  24.481  13.288
54479W        W21262  30.971  23.992   3.118
54480W        W21263  37.393  38.371  11.247
54481W        W21264   4.618   0.759  12.457
54482W        W21265  35.282  30.942   1.833
54483W        W21266  26.319  34.550  11.558
54484W        W21267  23.191  12.699  12.440
54485W        W21268  18.259  15.618   1.136
54486W        W21269   7.351  25.512   3.649
54487W        W21270  36.018  13.714   4.779
54488W        W21271   0.783  40.901  11.975
54489W        W21272  12.563  11.649  12.828
54490W        W21273  27.143   1.961   0.321
54491W        W21274  21.481  34.465  14.785
54492W        W21275   3.580  11.401  11.156
54493W        W21276  22.970  43.806  13.921
54494W        W21277  11.881  34.372   0.363
54495W        W21278  41.527  17.835  11.681
54496W        W21279   8.305  12.603   0.485
54497W        W21280  41.276  31.621  11.919
54498W        W21281  37.050  29.210   3.795
54499W        W21282  13.744  27.148  11.106
54500W        W21283  38.920  32.496   4.778
54501W        W21284  29.644   4.644   0.150
54502W        W21285  43.898  28.470  11.478
54503W        W21286  18.038  34.098   0.913
54504W        W21287  10.813  27.672  10.902
54505W        W21288  35.454  36.099   4.875
54506W        W21289   4.970  32.924   4.652
54507W        W21290  20.986  17.232  12.402
54508W        W21291  37.854  40.092   1.639
54509W        W21292  30.478   1.486   2.897
54510W        W21293   0.377  34.057   1.703
54511W        W21294   8.601  13.499   0.754
54512W        W21295  37.380  41.212   2.371
54513W        W21296   4.347  16.309   2.917
54514W        W21297  18.747   2.522   0.738
54515W        W21298  35.042  28.287   1.411
54516W        W21299  19.214   1.724   0.868
54517W        W21300  21.722  15.551  12.871
54518W        W21301  20.829  41.386   3.737
54519W        W21302  40.088  24.654   4.676
54520W        W21303  19.056  33.286  13.527
54521W        W21304   2.722  25.204   2.096
54522W        W21305  18.545  31.433   0.897
54523W        W21306  13.706  27.655  13.284
54524W        W21307  10.831  25.640  12.486
54525W        W21308   8.696  20.014   2.603
54526W        W21309  36.337   0.444   3.747
54527W        W21310  42.529   8.252  11.701
54528W        W21311  31.668  19.866  12.987
54529W        W21312  21.178  32.569  13.104
54530W        W21313  44.903   2.819   1.010
54531W        W21314  13.165  25.683   4.552
54532W        W21315  40.519  18.146   1.641
54533W        W21316  25.284  31.177  12.014
54534W        W21317  38.960  41.254   4.121
54535W        W21318  43.204  24.423   3.562
54536W        W21319  28.457  36.567   0.330
54537W        W21320  33.225  30.893  13.905
54538W        W21321  34.502  37.063  13.883
54539W        W21322  28.991  22.128   3.623
54540W        W21323  32.179  25.438  11.105
54541W        W21324   2.774  37.997   4.780
54542W        W21325  35.362  37.204   2.558
54543W        W21326  21.968  19.236   4.285
54544W        W21327   2.893  34.669  10.657
54545W        W21328  42.557  14.224   3.709
54546W        W21329  40.931  23.070   4.626
54547W        W21330  17.798   9.885   0.183
54548W        W21331  20.992  29.559  14.459
54549W        W21332  37.253  42.443  11.491
54550W        W21333  23.289  26.435  14.823
54551W        W21334  35.423  12.603   3.126
54552W        W21335   7.840  31.646  11.401
54553W        W21336  23.226   4.036   2.238
54554W        W21337  20.241  34.577  13.395
54555W        W21338  15.257  31.888  12.587
54556W        W21339  43.582  43.301  13.972
54557W        W21340  18.594  23.249  12.685
54558W        W21341  16.307  24.650  10.697
54559W        W21342  16.189  41.886  11.882
54560W        W21343  38.401  32.014  11.970
54561W        W21344  39.488   7.771   3.780
54562W        W21345  40.583   6.672  13.139
54563W        W21346  34.410  16.588   4.280
54564W        W21347  23.090  10.974   4.785
54565W        W21348   4.033  36.808   1.407
54566W        W21349  36.608  41.279  10.395
54567W        W21350   1.245  38.840  13.542
54568W        W21351  38.613  17.201  11.081
54569W        W21352   7.882  15.287   0.398
54570W        W21353  42.841   9.690  14.104
54571W        W21354  19.143   9.814   4.560
54572W        W21355  20.909  28.502  13.891
54573W        W21356  27.581   5.660  14.187
54574W        W21357  36.965  28.366  14.364
54575W        W21358  34.944   6.719  10.834
54576W        W21359  12.743  25.565   4.270
54577W        W21360  38.463   7.268  11.504
54578W        W21361  11.782   5.569   5.430
54579W        W21362  23.482  40.090   2.669
54580W        W21363   7.321  27.656  11.090
54581W        W21364   3.971  22.774  13.020
54582W        W21365   8.847   5.576  10.297
54583W        W21366   3.103  16.655   0.727
54584W        W21367  33.454  22.864  11.084
54585W        W21368  36.081   6.135  13.961
54586W        W21369   0.342   2.666  10.687
54587W        W21370  17.837  42.598   1.392
54588W        W21371   8.107   8.901  10.074
54589W        W21372  40.771  16.212   1.755
54590W        W21373   9.352  23.750   0.926
54591W        W21374   3.432   7.645  11.203
54592W        W21375  35.480  19.112   1.170
54593W        W21376   0.530  24.227   4.198
54594W        W21377  26.528  18.681  10.690
54595W        W21378  41.944  20.114  12.899
54596W        W21379  10.860  23.246  14.286
54597W        W21380  10.649   9.119   0.886
54598W        W21381  44.045  41.530  14.991
54599W        W21382  43.711  39.741   0.414
54600W        W21383   1.856  37.475  10.882
54601W        W21384  32.624   3.858  11.545
54602W        W21385  40.197  35.270   1.396
54603W        W21386  22.702  23.185  11.593
54604W        W21387  27.509   6.927   2.946
54605W        W21388  13.195  37.331   1.862
54606W        W21389  22.029  19.484   3.836
54607W        W21390  37.484   6.857   2.872
54608W        W21391  23.285  25.486  14.884
54609W        W21392  26.744  19.217   1.170
54610W        W21393  37.053  36.468  12.563
54611W        W21394  30.349  34.173   0.690
54612W        W21395  44.420  40.625  11.192
54613W        W21396  34.445  39.079   4.683
54614W        W21397  42.671  36.094  11.239
54615W        W21398  16.412  20.986  11.555
54616W        W21399  17.770   9.737   1.287
54617W        W21400  27.663  42.219  12.902
54618W        W21401   9.057  42.912   1.219
54619W        W21402  30.146  19.713   1.648
54620W        W21403  18.038  40.798   0.343
54621W        W21404  28.964  38.359   4.129
54622W        W21405   1.578  13.127   3.064
54623W        W21406   5.517  43.998   3.598
54624W        W21407  38.359  15.800   4.750
54625W        W21408  38.319   2.740  14.538
54626W        W21409   4.303  12.411   2.678
54627W        W21410   7.337  33.935   3.624
54628W        W21411  36.366  17.193  13.580
54629W        W21412  32.254  36.252  13.680
54630W        W21413  25.569  12.162   1.721
54631W        W21414  44.373  43.858  11.866
54632W        W21415   0.362  28.161   3.246
54633W        W21416  23.229  41.431   0.439
54634W        W21417  30.662  41.711   4.873
54635W        W21418  27.460  22.400  14.524
54636W        W21419  33.141  43.925   1.417
54637W        W21420   9.108  41.742  13.807
54638W        W21421  33.357  29.549   4.114
54639W        W21422  40.335  32.560   1.932
54640W        W21423   0.277  11.645   3.190
54641W        W21424  44.462  27.417   3.585
54642W        W21425  19.526  39.544  11.167
54643W        W21426  15.104  14.846  12.885
54644W        W21427   8.008  18.398   2.907
54645W        W21428  19.232  11.394  14.263
54646W        W21429   9.207  43.722   0.624
54647W        W21430  10.547  37.552  11.098
54648W        W21431  17.866  31.878  13.778
54649W        W21432   6.500  44.777   0.464
54650W        W21433  21.774  10.785   4.515
54651W        W21434   3.905  22.144  14.599
54652W        W21435   8.339  15.353   3.376
54653W        W21436   9.956  26.093  12.530
54654W        W21437  41.754  37.918   0.802
54655W        W21438  11.658   3.269  13.342
54656W        W21439  34.700   7.431   4.219
54657W        W21440  44.855  27.670   3.790
54658W        W21441  39.209  30.138   1.795
54659W        W21442  17.575  25.144  14.393
54660W        W21443  24.916   9.135  14.311
54661W        W21444  27.515   5.728  14.707
54662W        W21445  43.309  10.488   0.295
54663W        W21446   8.921  11.160  14.431
54664W        W21447  25.612  15.187  13.623
54665W        W21448  29.467  26.628  10.663
54666W        W21449  23.284  42.018   3.600
54667W        W21450  27.631   9.834   1.305
54668W        W21451  13.734  36.523   2.700
54669W        W21452  33.669  40.749   1.153
54670W        W21453  34.239   5.746   0.601
54671W        W21454  31.433  43.793  11.148
54672W        W21455  17.693  23.022  11.463
54673W        W21456  14.072  34.550   3.716
54674W        W21457   5.741  16.742  14.076
54675W        W21458  28.081   4.028  13.487
54676W        W21459  24.147  17.739   2.708
54677W        W21460  25.190  42.831  14.498
54678W        W21461  41.463  36.890  13.176
54679W        W21462  35.801  26.043   3.365
54680W        W21463  22.568   0.994   4.545
54681W        W21464  21.335  11.550   2.737
54682W        W21465  26.863  41.508  12.793
54683W        W21466  19.270  16.714  14.798
54684W        W21467   2.198  39.893  14.565
54685W        W21468  10.461   2.768  12.395
54686W        W21469  27.025   8.609  12.981
54687W        W21470   8.806  43.587  12.117
54688W        W21471   3.235   1.733   1.418
54689W        W21472  42.815  11.753   2.841
54690W        W21473  11.123  40.385  11.575
54691W        W21474  44.874  18.263  13.406
54692W        W21475  10.792   6.172  13.078
54693W        W21476  30.910  31.872  13.788
54694W        W21477  16.680  18.509   2.345
54695W        W21478  15.890  24.210   4.148
54696W        W21479  23.145  27.234   4.799
54697W        W21480  22.640  37.865   4.211
54698W        W21481  35.407  22.413  14.462
54699W        W21482   7.614  19.389  14.220
54700W        W21483  25.922  44.774  13.846
54701W        W21484  16.247  25.064   0.811
54702W        W21485   5.902   9.364  10.692
54703W        W21486  43.413  32.030  12.033
54704W        W21487  16.667  39.978  13.449
54705W        W21488  35.997  15.220  13.884
54706W        W21489  18.787   7.805   1.642
54707W        W21490  34.425  38.907  14.003
54708W        W21491  39.446  37.388   0.119
54709W        W21492  10.279  39.455  12.944
54710W        W21493  26.482  12.194   3.775
54711W        W21494  33.463  14.757  10.890
54712W        W21495   4.150   0.359   3.106
54713W        W21496  34.950  17.930  14.351
54714W        W21497  11.672  42.443  14.487
54715W        W21498  27.626  39.446  13.393
54716W        W21499  14.617  12.140   0.711
54717W        W21500  18.892   3.239   4.178
54718W        W21501  34.557  14.869   1.663
54719W        W21502  14.433  30.074   4.309
54720W        W21503  11.409  38.640  13.798
54721W        W21504  39.799  28.182  11.173
54722W        W21505  25.058  36.789  14.298
54723W        W21506  17.772  33.941   0.476
54724W        W21507  18.620   6.298  13.752
54725W        W21508   9.910  23.532  10.642
54726W        W21509  31.937  12.841   3.571
54727W        W21510   2.018  25.741  13.397
54728W        W21511  38.374   4.716  11.587
54729W        W21512   2.648  10.654  11.603
54730W        W21513  13.561  26.881  13.118
54731W        W21514  15.101  43.777  14.038
54732W        W21515   1.428  37.816  11.527
54733W        W21516  32.125  25.564   4.078
54734W        W21517  22.177   4.151  11.211
54735W        W21518  11.258  12.650   3.533
54736W        W21519  24.259  35.419  10.710
54737W        W21520   2.031   6.368   2.095
54738W        W21521  43.031  13.204   1.827
54739W        W21522   1.729  31.379  12.713
54740W        W21523   5.478   9.699   3.330
54741W        W21524  22.525  31.403  14.016
54742W        W21525  43.951  24.826  13.020
54743W        W21526  32.617  27.394   3.365
54744W        W21527  28.485  13.620  11.644
54745W        W21528  44.138  14.543  11.146
54746W        W21529  36.860  31.482   0.696
54747W        W21530  10.542   5.154   0.400
54748W        W21531  16.325   7.795  11.209
54749W        W21532  30.858   3.715   2.778
54750W        W21533   8.509   4.925   2.260
54751W        W21534   0.508  33.603  14.777
54752W        W21535  22.106  14.367   0.859
54753W        W21536  30.833  13.738   4.899
54754W        W21537  43.434  26.955  10.817
54755W        W21538  36.994   3.036  13.475
54756W        W21539   4.517  29.959  11.672
54757W        W21540  26.712  42.101   4.174
54758W        W21541   3.398  35.471  11.579
54759W        W21542  23.758  44.497  14.792
54760W        W21543   2.805  26.149   3.058
54761W        W21544  11.222  43.421  14.701
54762W        W21545  20.441  21.206  14.567
54763W        W21546  21.826  31.319  11.110
54764W        W21547   3.976   6.745  13.133
54765W        W21548  21.898  32.863  14.427
54766W        W21549  15.402  35.141   2.981
54767W        W21550  41.867  22.966   4.570
54768W        W21551  22.475  39.314   3.354
54769W        W21552  11.742  36.810  14.972
54770W        W21553  41.023   6.013   3.257
54771W        W21554  30.546  21.471  14.295
54772W        W21555   0.843   2.457   4.800
54773W        W21556  21.611  16.417  11.034
54774W        W21557  19.107  12.730   2.600
54775W        W21558  19.166  35.951  14.901
54776W        W21559   5.872  36.862  11.399
54777W        W21560  41.986  31.406   4.121
54778W        W21561  38.025   1.331  14.086
54779W        W21562  16.348  27.988   0.645
54780W        W21563  27.513  33.943  12.601
54781W        W21564   9.897  22.829  13.789
54782W        W21565  44.496   2.550   2.388
54783W        W21566  18.568  18.769   3.598
54784W        W21567  26.228  41.336  10.708
54785W        W21568  38.066   3.724  13.856
54786W        W21569  17.639   2.422   1.767
54787W        W21570  32.911  40.878  12.043
54788W        W21571  23.853  30.022  12.591
54789W        W21572   8.593  36.420   4.902
54790W        W21573  34.144   6.710  11.556
54791W        W21574  26.055  43.289   1.813
54792W        W21575  19.541  31.380  10.770
54793W        W21576   6.769  36.837   2.387
54794W        W21577  21.614  36.003  11.996
54795W        W21578  42.564   1.171  11.275
54796W        W21579  23.285   9.979   4.663
54797W        W21580  34.453  38.096  14.844
54798W        W21581  39.972  41.215  11.603
54799W        W21582  40.861  14.477   2.689
54800W        W21583  38.803  44.434  13.109
54801W        W21584  41.864  15.378  11.604
54802W        W21585   1.508  14.386   0.350
54803W        W21586  11.826  12.929   1.443
54804W        W21587  27.437  19.815  10.057
54805W        W21588  43.362   8.594  13.838
54806W        W21589  29.811  29.925   4.951
54807W        W21590  43.944   4.410   3.978
54808W        W21591  24.416  18.754  14.520
54809W        W21592  21.790  24.990   4.176
54810W        W21593  25.218  14.041  12.131
54811W        W21594  15.425  31.445   3.512
54812W        W21595  34.066  14.888  10.679
54813W        W21596  17.283   4.219  12.046
54814W        W21597  31.645  11.243  14.408
54815W        W21598  44.986   8.858   3.214
54816W        W21599  15.199  19.497   4.660
54817W        W21600  19.972  11.221  13.544
54818W        W21601  44.308  18.734   3.771
54819W        W21602  42.884  25.455   2.895
54820W        W21603   6.217  30.549   0.853
54821W        W21604   2.266  38.872  10.328
54822W        W21605  15.606  12.259  14.340
54823W        W21606  19.825   4.316  12.328
54824W        W21607  10.375  40.862  14.461
54825W        W21608  35.567  17.649  13.121
54826W        W21609  44.449  15.588  12.830
54827W        W21610  25.171   3.779   1.808
54828W        W21611  10.867  22.855  13.895
54829W        W21612  26.893  26.252   2.357
54830W        W21613  21.319  40.237  10.834
54831W        W21614  29.107   5.466  11.136
54832W        W21615   4.770  42.648  12.964
54833W        W21616  42.579   9.411   4.622
54834W        W21617  31.777   6.322  13.695
54835W        W21618  22.219   1.322   2.728
54836W        W21619  28.592  25.621   4.057
54837W        W21620  27.591  25.520  14.398
54838W        W21621  12.159  13.092   4.565
54839W        W21622  23.133   4.410   5.448
54840W        W21623   7.261  40.415   5.032
54841W        W21624  43.891   7.732  12.077
54842W        W21625   5.696  31.267  14.944
54843W        W21626  38.560  13.736   0.293
54844W        W21627  22.874  12.406  10.765
54845W        W21628   9.466  34.651   0.290
54846W        W21629  38.250  39.729  13.426
54847W        W21630  14.238  16.557   1.390
54848W        W21631  17.619  13.368  11.058
54849W        W21632  35.022  39.356  11.003
54850W        W21633  19.713  31.675   2.494
54851W        W21634  20.336  28.434  12.004
54852W        W21635  23.875  42.886   1.943
54853W        W21636   0.359   9.222  13.627
54854W        W21637   4.693  36.379  14.092
54855W        W21638   6.164  31.216  13.522
54856W        W21639  21.092   7.595  11.966
54857W        W21640   9.489  24.646  11.081
54858W        W21641  23.139   3.797  14.690
54859W        W21642  31.696   5.486  10.504
54860W        W21643  12.553   0.297  10.599
54861W        W21644   2.219  24.360  11.713
54862W        W21645  11.684  33.374  12.185
54863W        W21646  37.550  16.640   3.761
54864W        W21647  37.952  16.282   0.759
54865W        W21648   1.728  21.613   4.097
54866W        W21649  23.934  42.067  14.491
54867W        W21650  29.775  36.937   1.849
54868W        W21651  21.940  17.180  11.631
54869W        W21652  34.072  35.083   4.884
54870W        W21653  25.554   1.021   5.197
54871W        W21654  36.572  37.185  14.223
54872W        W21655   4.117  37.448  11.896
54873W        W21656   7.832  34.681   3.792
54874W        W21657  25.582   3.385  13.595
54875W        W21658   3.487  12.333  13.475
54876W        W21659  14.855  28.700   2.273
54877W        W21660  40.407  43.226   1.870
54878W        W21661  33.393  20.676  14.863
54879W        W21662  10.005  42.080  11.156
54880W        W21663   2.460  30.366  14.126
54881W        W21664  21.722  22.612  13.499
54882W        W21665  11.372  13.841   3.219
54883W        W21666   8.812  29.105  10.540
54884W        W21667  33.818   8.838   4.547
54885W        W21668  24.477  20.606   3.186
54886W        W21669  22.137   6.036  10.441
54887W        W21670   6.312   7.522  11.532
54888W        W21671  28.598  41.475  13.717
54889W        W21672  43.385  22.682  13.013
54890W        W21673  33.463  37.327  11.126
54891W        W21674   6.796  36.846  13.800
54892W        W21675  12.052  34.202   5.147
54893W        W21676  22.312  15.429  10.608
54894W        W21677  40.310  10.937   2.797
54895W        W21678  37.764  25.536   0.960
54896W        W21679  17.279  23.235  15.000
54897W        W21680  25.595  30.374  14.437
54898W        W21681  20.283   2.340   1.724
54899W        W21682  38.992  26.533   2.368
54900W        W21683  34.070  37.429  13.775
54901W        W21684  29.065   5.029   4.440
54902W        W21685  28.701  15.747  11.353
54903W        W21686  31.692  21.686   2.592
54904W        W21687   9.099  42.805  13.950
54905W        W21688  33.503  19.338   5.526
54906W        W21689   4.819   9.450  13.319
54907W        W21690  19.738  15.717   2.229
54908W        W21691  13.874  21.974   2.865
54909W        W21692  28.275  40.380   3.575
54910W        W21693  24.024  26.134   1.244
54911W        W21694  43.682  39.586   4.337
54912W        W21695  35.554  11.983  13.995
54913W        W21696  36.115   8.300  12.032
54914W        W21697  42.531  21.184  14.736
54915W        W21698  36.566  12.766   2.070
54916W        W21699  35.018  27.323   3.348
54917W        W21700  36.226  22.018  10.270
54918W        W21701  22.763  19.643  13.059
54919W        W21702   4.745  43.567  14.014
54920W        W21703  19.904  32.957  13.106
54921W        W21704  22.523   8.683  14.372
54922W        W21705  22.261   9.718   0.020
54923W        W21706   6.994  31.016  13.829
54924W        W21707  27.097  28.555  11.931
54925W        W21708  12.585  36.315   3.642
54926W        W21709  15.676  42.514  12.330
54927W        W21710  26.735  14.361   2.702
54928W        W21711  10.290  36.796  10.654
54929W        W21712  37.867  12.223  10.742
54930W        W21713  20.760  16.125  10.162
54931W        W21714  17.611  26.211   0.315
54932W        W21715  27.240  20.527  12.954
54933W        W21716   3.794  33.868  13.578
54934W        W21717  12.001  25.334  13.190
54935W        W21718   4.740  40.879  10.707
54936W        W21719  34.172  38.960  14.983
54937W        W21720  16.261  42.414   3.450
54938W        W21721  23.962  37.501   0.958
54939W        W21722  39.993  28.029   2.734
54940W        W21723  34.433  28.771   4.026
54941W        W21724  40.936  38.137  11.658
54942W        W21725  25.709  21.087   3.223
54943W        W21726  23.304   3.524  12.486
54944W        W21727  17.091  41.045   1.005
54945W        W21728  30.583  37.324   1.866
54946W        W21729  14.762   1.689  11.152
54947W        W21730   1.874  26.073  12.114
54948W        W21731  17.292  34.009   3.721
54949W        W21732  35.393   5.359   1.104
54950W        W21733   1.921  22.260   2.966
54951W        W21734  34.633  27.730   0.271
54952W        W21735  44.968  23.293   1.920
54953W        W21736  43.370  26.074   1.813
54954W        W21737   8.283   7.161  11.151
54955W        W21738   9.159   9.384  12.169
54956W        W21739  14.722   1.249  10.583
54957W        W21740  38.466  20.797   3.814
54958W        W21741  19.342  16.480  14.054
54959W        W21742   1.077  13.383  11.616
54960W        W21743  11.822  39.804   4.122
54961W        W21744  23.025  28.023   0.557
54962W        W21745  32.097  40.532  13.339
54963W        W21746   5.846  24.688   1.762
54964W        W21747  39.879  19.162  13.386
54965W        W21748   7.675  27.245   3.865
54966W        W21749   7.667   3.374   2.770
54967W        W21750   1.190   7.664   2.187
54968W        W21751   4.323  34.295  10.688
54969W        W21752  11.247   2.915   0.408
54970W        W21753  36.109  40.457  12.935
54971W        W21754  43.964   0.536  11.999
54972W        W21755  12.577  10.665  12.036
54973W        W21756  39.023  31.620  10.711
54974W        W21757  35.075   9.913   3.057
54975W        W21758   7.130  13.607   0.769
54976W        W21759   6.676   9.642  11.993
54977W        W21760  19.376  39.088   2.181
54978W        W21761   6.413  34.068   1.773
54979W        W21762  39.591   0.997   0.357
54980W        W21763  24.576   2.199   5.108
54981W        W21764  44.831  25.300  13.112
54982W        W21765  30.253   5.892  11.916
54983W        W21766   7.347   7.030  13.846
54984W        W21767  22.232  33.670   3.543
54985W        W21768  23.585  10.859  12.432
54986W        W21769   6.735  13.902   3.522
54987W        W21770   5.845   3.979   3.854
54988W        W21771   6.282  26.397   0.826
54989W        W21772  30.013   6.380  12.834
54990W        W21773  31.879  15.886   3.074
54991W        W21774   6.300  25.685   4.196
54992W        W21775  34.110   0.172  11.240
54993W        W21776  37.021  20.160   1.351
54994W        W21777  25.525  24.591   3.098
54995W        W21778  27.010   6.034  10.337
54996W        W21779   1.549   0.094   3.576
54997W        W21780  32.543   6.176   2.738
54998W        W21781  15.338  10.858   3.784
54999W        W21782  12.969  19.862   9.943
55000W        W21783   7.968  30.488  12.550
55001W        W21784   3.440  29.424  10.598
55002W        W21785  42.332  34.960   4.615
55003W        W21786  10.678   4.679   3.324
55004W        W21787  40.797  24.044  13.387
55005W        W21788  13.539  28.392  14.951
55006W        W21789  29.673  32.697   4.645
55007W        W21790  15.782  40.402   4.454
55008W        W21791  33.847  41.523  14.417
55009W        W21792  28.372  13.162  11.900
55010W        W21793   8.592   3.264  11.821
55011W        W21794  30.306  33.134   1.914
55012W        W21795  34.077  22.675  13.896
55013W        W21796   9.512   4.876   2.350
55014W        W21797  29.698  38.443  13.783
55015W        W21798  36.908  15.830   1.532
55016W        W21799  20.541  23.194  12.465
55017W        W21800  16.014   1.172  11.073
55018W        W21801  43.839  29.556  13.923
55019W        W21802   5.661  39.613  13.401
55020W        W21803   0.898  15.749   4.039
55021W        W21804  10.943  44.487   1.209
55022W        W21805   8.076  35.394   3.232
55023W        W21806   8.117  11.095  14.965
55024W        W21807  20.928  16.038  12.313
55025W        W21808  28.016  17.729  14.403
55026W        W21809  35.188   4.243   1.658
55027W        W21810  43.600  36.468   2.864
55028W        W21811  38.621   5.604   1.271
55029W        W21812  43.348  14.136  13.584
55030W        W21813  43.955  10.898   0.043
55031W        W21814   3.495  25.155   2.691
55032W        W21815   6.661   0.968  14.990
55033W        W21816  11.941  27.137   2.766
55034W        W21817  23.972   1.413  12.280
55035W        W21818   1.406  14.629  14.498
55036W        W21819  26.666  23.253   2.113
55037W        W21820   9.705  26.739   1.029
55038W        W21821   9.597  22.650   0.386
55039W        W21822   6.209  44.980  12.326
55040W        W21823   3.207  13.769  11.691
55041W        W21824  24.620  19.246  12.562
55042W        W21825  36.209   9.038   1.823
55043W        W21826  13.233  10.699  11.629
55044W        W21827  22.122  37.388  11.896
55045W        W21828  33.662   4.446  14.459
55046W        W21829  17.750  42.942   4.564
55047W        W21830   9.275  41.119  13.103
55048W        W21831  15.838  42.055   1.335
55049W        W21832  13.967  19.817   3.639
55050W        W21833  21.785  21.137  12.655
55051W        W21834   4.384   2.878  11.848
55052W        W21835   2.183   5.605  12.094
55053W        W21836  27.448  25.052   3.317
55054W        W21837   7.180   6.163   0.356
55055W        W21838   3.763   4.359   2.272
55056W        W21839  38.125  24.231   3.089
55057W        W21840  44.264  44.592   3.996
55058W        W21841   8.225  19.971   0.318
55059W        W21842   5.158  16.063   0.563
55060W        W21843  35.856  40.348  14.835
55061W        W21844  38.826  37.656   1.824
55062W        W21845  27.043   9.729   4.808
55063W        W21846  13.660   5.806   0.521
55064W        W21847  21.653  36.837   4.790
55065W        W21848  43.011  27.448  14.536
55066W        W21849   6.207   0.849   4.657
55067W        W21850   8.429   9.409  14.577
55068W        W21851  16.487   5.792  11.722
55069W        W21852  18.581  19.086   0.228
55070W        W21853  16.010  29.846  11.151
55071W        W21854  20.954  43.764  10.994
55072W        W21855  29.848   6.306  11.087
55073W        W21856   8.476  38.971  12.035
55074W        W21857  31.400  19.541   4.051
55075W        W21858  10.069   5.012   5.019
55076W        W21859  23.297  18.385   3.635
55077W        W21860  12.685  26.527  10.930
55078W        W21861  37.286  25.047   2.776
55079W        W21862  24.559   2.015  12.001
55080W        W21863  13.673  27.409  14.676
55081W        W21864  43.927  27.533   3.766
55082W        W21865  28.466  43.904  13.941
55083W        W21866  40.458  43.367  10.750
55084W        W21867  43.855   8.134   2.867
55085W        W21868   0.703  32.055   2.614
55086W        W21869   9.961  16.091   4.755
55087W        W21870  14.651  38.129  14.263
55088W        W21871  11.325   4.228  11.028
55089W        W21872  23.161  30.525   3.736
55090W        W21873   8.978  15.365   4.587
55091W        W21874  24.764  43.746  14.414
55092W        W21875   5.828  41.002   4.314
55093W        W21876   7.974  25.785  14.377
55094W        W21877  27.057  23.006   2.411
55095W        W21878  10.555  21.289   0.384
55096W        W21879  30.867  35.057  14.337
55097W        W21880  40.371  35.432   4.244
55098W        W21881  22.573  33.412   1.399
55099W        W21882  11.260   1.878   1.240
55100W        W21883  34.630  12.781  14.416
55101W        W21884  21.798  32.553   2.839
55102W        W21885  44.505  40.942  13.852
55103W        W21886  35.123  32.321  10.740
55104W        W21887  11.678  26.526  11.962
55105W        W21888   0.985  18.157  13.894
55106W        W21889  19.849  43.978   1.760
55107W        W21890  18.350  24.105   5.011
55108W        W21891  10.579  44.815  12.861
55109W        W21892  40.403  31.791   2.359
55110W        W21893  25.999  27.151   0.901
55111W        W21894   3.475  37.527  13.415
55112W        W21895  33.346  36.588  11.536
55113W        W21896  21.596  26.767   1.767
55114W        W21897  38.336  34.075   0.850
55115W        W21898  43.912  39.119  14.892
55116W        W21899  15.577   1.104   4.312
55117W        W21900  14.331   7.387  10.572
55118W        W21901  15.076  22.798  11.479
55119W        W21902  29.465  37.334   5.039
55120W        W21903  25.644   9.790  12.933
55121W        W21904  18.085  12.157   4.480
55122W        W21905  40.564  41.278  14.525
55123W        W21906  39.171  14.111  14.787
55124W        W21907  21.321   4.130  14.826
55125W        W21908  40.298  13.082   0.191
55126W        W21909  16.294  18.012  11.478
55127W        W21910   2.340  19.542  14.955
55128W        W21911   3.844  28.061   1.067
55129W        W21912  16.204  10.200   2.951
55130W        W21913  35.964  31.459   4.526
55131W        W21914  33.352   4.716  13.074
55132W        W21915  21.834  14.835   2.291
55133W        W21916  41.518  35.837   4.408
55134W        W21917  23.748   6.603   3.226
55135W        W21918   9.291   8.543   3.679
55136W        W21919  37.966  31.755  11.921
55137W        W21920  20.459  28.748  13.819
55138W        W21921  19.735   6.831   3.259
55139W        W21922  33.509  12.399  13.446
55140W        W21923  37.024  18.189  12.119
55141W        W21924   2.205   1.268  12.021
55142W        W21925   9.167  21.278   3.264
55143W        W21926  38.350  24.686  12.896
55144W        W21927  37.832   0.310   2.958
55145W        W21928   1.244  42.510  14.870
55146W        W21929  27.248   1.279  12.507
55147W        W21930  18.545  20.910   2.464
55148W        W21931  27.647  37.630  13.904
55149W        W21932  36.266   4.351   1.455
55150W        W21933  31.921  38.331   0.851
55151W        W21934  41.806   0.776  13.373
55152W        W21935   4.852   0.521  13.779
55153W        W21936  40.608   6.534  13.645
55154W        W21937  17.193  33.858  11.974
55155W        W21938  32.940  10.302  10.184
55156W        W21939  29.005   7.466   3.979
55157W        W21940  10.141   2.911   4.792
55158W        W21941  42.328  31.658   2.316
55159W        W21942  42.054  29.663   2.876
55160W        W21943   3.289   5.167   4.608
55161W        W21944  25.267  22.320  14.001
55162W        W21945   1.408  36.573   3.901
55163W        W21946   2.055  18.318   3.383
55164W        W21947  42.333   5.240  13.800
55165W        W21948   3.365  31.020   3.380
55166W        W21949  40.970  43.503  14.515
55167W        W21950   8.885  13.305   5.376
55168W        W21951  43.884  37.487  10.483
55169W        W21952  38.386  28.833   2.695
55170W        W21953  22.419  40.848   4.791
55171W        W21954  16.768  10.386   1.786
55172W        W21955   7.811  37.021  12.813
55173W        W21956  36.088  20.691  12.645
55174W        W21957   1.289  44.229  12.115
55175W        W21958  33.016  34.169  13.545
55176W        W21959   0.954  19.260  10.580
55177W        W21960  15.318  20.101  11.093
55178W        W21961  31.953  13.965   9.958
55179W        W21962   7.321  25.104  12.469
55180W        W21963  12.232  35.175   5.159
55181W        W21964  42.473  44.343  13.242
55182W        W21965  32.568  27.011  10.398
55183W        W21966   1.186  42.266   0.342
55184W        W21967  18.279  26.661   3.864
55185W        W21968  37.323  39.305  11.472
55186W        W21969  26.734  40.931  14.790
55187W        W21970  28.402  29.742  14.464
55188W        W21971  40.069  42.227   4.115
55189W        W21972  23.266   1.793  13.784
55190W        W21973  27.445   4.886  12.323
55191W        W21974  36.177  15.691   2.997
55192W        W21975  23.031  34.641  14.401
55193W        W21976  28.950  27.222  10.687
55194W        W21977  16.653  10.147   3.191
55195W        W21978  17.244  34.789  11.966
55196W        W21979  10.221  31.644  12.866
55197W        W21980  15.404  43.932  14.441
55198W        W21981  31.369  38.904   1.775
55199W        W21982  37.557  18.556   2.739
55200W        W21983   6.051   1.849   2.979
55201W        W21984  23.611   3.764  11.179
55202W        W21985   2.017   9.891   3.854
55203W        W21986  32.383  17.777   1.844
55204W        W21987  24.179  18.223  14.463
55205W        W21988  44.777  28.121   0.265
55206W        W21989   2.373  22.500  14.958
55207W        W21990  41.360  27.541  12.324
55208W        W21991  36.264  42.863   0.266
55209W        W21992   6.912  33.902   4.527
55210W        W21993  26.163  24.802  13.687
55211W        W21994   7.665  23.275   3.725
55212W        W21995  31.404  35.861   3.471
55213W        W21996  42.946  23.033  14.683
55214W        W21997  17.556  18.038   3.271
55215W        W21998  13.932  12.364  11.828
55216W        W21999   2.022   1.285  13.581
55217W        W22000  20.349  15.715  14.500
55218W        W22001  31.471  22.524  12.070
55219W        W22002  43.548   0.292   3.774
55220W        W22003  36.874  19.285  13.139
55221W        W22004  33.021   0.051  11.903
55222W        W22005  17.292   9.419   0.412
55223W        W22006  14.971  40.777  12.452
55224W        W22007  11.773  38.845   2.617
55225W        W22008  13.881  42.730  13.289
55226W        W22009   0.514  15.762   3.716
55227W        W22010  25.444  27.986  11.528
55228W        W22011  43.266  11.965  14.278
55229W        W22012  32.096  22.224   2.829
55230W        W22013  44.993  43.436  11.525
55231W        W22014  39.178  41.757   1.971
55232W        W22015  30.051  30.612   0.144
55233W        W22016   4.282  16.237  13.988
55234W        W22017   9.386  34.438   0.782
55235W        W22018   3.735  39.291   3.381
55236W        W22019  24.692  18.296  14.400
55237W        W22020  35.334  10.732   3.363
55238W        W22021   9.250  27.904   4.366
55239W        W22022  14.186   1.052  12.415
55240W        W22023  11.302  43.911   4.578
55241W        W22024  15.209  43.226   3.529
55242W        W22025  10.515   6.314   4.984
55243W        W22026  22.971  38.919   4.663
55244W        W22027   5.427   9.892   3.823
55245W        W22028   8.127  37.057  14.320
55246W        W22029   4.672  39.842   0.972
55247W        W22030  21.196  30.407  14.857
55248W        W22031  17.743  38.422   3.224
55249W        W22032  38.933  32.474   2.264
55250W        W22033   0.789   2.860  10.989
55251W        W22034  35.885  39.945  12.953
55252W        W22035   3.040  32.557   3.844
55253W        W22036  31.156  32.931   3.356
55254W        W22037  32.354  12.340   1.901
55255W        W22038  43.292  32.083   0.871
55256W        W22039  22.315  19.971   0.338
55257W        W22040   7.849  19.541   0.864
55258W        W22041  22.526  24.064   0.713
55259W        W22042  21.660  14.208  10.653
55260W        W22043  35.062   2.211  14.499
55261W        W22044  34.337  16.190   1.753
55262W        W22045  23.893  29.168  10.942
55263W        W22046   4.703  21.082  10.927
55264W        W22047   2.738  44.345  10.575
55265W        W22048  12.241   2.162  10.700
55266W        W22049  36.562   6.205  11.274
55267W        W22050  39.895  38.050  14.480
55268W        W22051  22.169  41.896   2.802
55269W        W22052  32.853  14.078   3.197
55270W        W22053  25.527  29.994  14.802
55271W        W22054  28.404  31.067   4.210
55272W        W22055  21.231  20.772  11.432
55273W        W22056  38.928   2.699   1.921
55274W        W22057   0.125  43.139  14.740
55275W        W22058  19.537   5.427   2.128
55276W        W22059  13.880   8.874   3.715
55277W        W22060   0.508  36.461   3.905
55278W        W22061  20.163  25.908  12.537
55279W        W22062  38.293  14.730  11.026
55280W        W22063  36.387  42.456   3.182
55281W        W22064   5.758  41.364  13.333
55282W        W22065  38.471   0.921  14.537
55283W        W22066  36.978  11.591  10.656
55284W        W22067  11.346  44.433   4.544
55285W        W22068  31.369   1.458  14.129
55286W        W22069  36.865  18.604  13.869
55287W        W22070  15.156   5.749  10.611
55288W        W22071  31.584  41.028  13.999
55289W        W22072   4.828   4.543  11.251
55290W        W22073  36.252  37.495   0.095
55291W        W22074  11.160  17.652  13.923
55292W        W22075  27.454  21.474  13.064
55293W        W22076  23.617  31.123  13.545
55294W        W22077  24.230  39.911   1.948
55295W        W22078   8.403   6.565  14.961
55296W        W22079  41.962  32.983  13.949
55297W        W22080  32.149   8.415   3.975
55298W        W22081  16.980  31.965  10.753
55299W        W22082  41.071  28.956   3.619
55300W        W22083  42.424  25.991   3.636
55301W        W22084  33.736  35.079   2.587
55302W        W22085  27.130  18.352   0.320
55303W        W22086  21.580  28.125   4.528
55304W        W22087  21.290  21.075   3.763
55305W        W22088  13.813  25.685  14.275
55306W        W22089  37.520  30.819  12.655
55307W        W22090  38.530   7.804  13.018
55308W        W22091  19.089  10.420  13.057
55309W        W22092  18.244  30.476  10.696
55310W        W22093  18.862  22.985  11.047
55311W        W22094   1.529  22.279   2.580
55312W        W22095  30.122  20.102  11.949
55313W        W22096  38.330  24.528   0.909
55314W        W22097  10.544   7.968   3.498
55315W        W22098  42.024  17.643   3.143
55316W        W22099  43.052  18.485  14.870
55317W        W22100   6.213  24.893  13.118
55318W        W22101  12.342  28.213   2.030
55319W        W22102  36.778  19.956  14.404
55320W        W22103  37.615   2.469   3.604
55321W        W22104  16.895  30.950  13.176
55322W        W22105   3.896  35.468   0.034
55323W        W22106  15.743  25.725  14.543
55324W        W22107   1.566  25.595  12.118
55325W        W22108  22.974  23.123  14.571
55326W        W22109  16.178  15.264   2.394
55327W        W22110   7.205  23.489   4.522
55328W        W22111   5.413   4.412  14.647
55329W        W22112  23.109  17.949  11.598
55330W        W22113  41.687  18.076  14.461
55331W        W22114  23.895   3.209  14.241
55332W        W22115   7.159  12.098   3.295
55333W        W22116   7.231  44.340  12.687
55334W        W22117  18.424  25.562   0.415
55335W        W22118  13.541  15.701   0.435
55336W        W22119  21.078  22.750   2.143
55337W        W22120  12.367   6.167   4.223
55338W        W22121  11.159   8.388   0.890
55339W        W22122   9.274  25.124   4.647
55340W        W22123  34.831  13.686   2.820
55341W        W22124  30.187  12.439  14.445
55342W        W22125  17.132  26.152   3.891
55343W        W22126  28.965  27.706  10.462
55344W        W22127  13.113  20.321   2.768
55345W        W22128  16.985  41.511  11.718
55346W        W22129  31.473   6.798  10.586
55347W        W22130   2.205  26.714  14.442
55348W        W22131  27.722  44.719   3.924
55349W        W22132  36.349  43.934  12.327
55350W        W22133  24.465  22.990  13.735
55351W        W22134  32.375  41.383   1.126
55352W        W22135  25.717  14.234   2.670
55353W        W22136  38.909  19.303  14.377
55354W        W22137  18.109  41.814   0.963
55355W        W22138   7.576  24.224  10.720
55356W        W22139  33.071  33.117   4.680
55357W        W22140  34.494  24.472  10.991
55358W        W22141  33.823  30.013  14.641
55359W        W22142   6.929  39.229   0.568
55360W        W22143  40.286   9.316  11.191
55361W        W22144   2.801  19.056   4.143
55362W        W22145  28.595  10.625   0.817
55363W        W22146  22.536   3.144   3.533
55364W        W22147  44.572  17.144   9.795
55365W        W22148   5.911   1.475  10.944
55366W        W22149  39.795  28.957  11.875
55367W        W22150  25.989  23.658   1.847
55368W        W22151   3.298   3.475   3.754
55369W        W22152  39.151  29.556   2.137
55370W        W22153  40.780  39.505  11.513
55371W        W22154  12.594  22.477   0.740
55372W        W22155   8.513   8.800   4.234
55373W        W22156  31.943  19.323   4.265
55374W        W22157  40.157  30.873   3.364
55375W        W22158   6.374  13.117   0.114
55376W        W22159  34.149  14.863   1.311
55377W        W22160  29.905  14.842   1.913
55378W        W22161  21.195   1.099   1.712
55379W        W22162  32.369  25.513  10.590
55380W        W22163  30.411  25.744   3.210
55381W        W22164  16.574  35.792  14.808
55382W        W22165   5.785  15.489   1.677
55383W        W22166  37.565  27.410   1.882
55384W        W22167  14.764  13.851   3.431
55385W        W22168  11.730  41.247   4.823
55386W        W22169   7.849  29.990  12.499
55387W        W22170  36.641  20.131   3.733
55388W        W22171  37.072  36.115  13.560
55389W        W22172  36.877  42.035   4.843
55390W        W22173   3.703  36.819  13.003
55391W        W22174  29.220  14.150  11.083
55392W        W22175  17.671   4.823   2.774
55393W        W22176  32.534  39.535   2.898
55394W        W22177  28.897  28.134   0.420
55395W        W22178  30.647  36.452  12.095
55396W        W22179  38.191  10.733  10.431
55397W        W22180  24.531  34.518  13.802
55398W        W22181  44.854   3.230   3.273
55399W        W22182  23.953  41.880   4.812
55400W        W22183   8.875  16.804   2.654
55401W        W22184  24.188  20.720   0.885
55402W        W22185  37.380  36.934  13.821
55403W        W22186  27.344  19.775  14.564
55404W        W22187  17.055  32.210   9.990
55405W        W22188  26.182  31.283  14.003
55406W        W22189  34.397  44.825   0.660
55407W        W22190  19.778  30.901  11.665
55408W        W22191  35.059   5.978  13.494
55409W        W22192   5.930   0.962   2.265
55410W        W22193  23.959  23.794   2.113
55411W        W22194  27.590  28.451   0.213
55412W        W22195  42.659   0.495   2.769
55413W        W22196  14.266  40.953  11.166
55414W        W22197   4.920  28.832   0.359
55415W        W22198  39.853  37.619   5.091
55416W        W22199  27.244  27.202  13.761
55417W        W22200  13.073  34.529  10.682
55418W        W22201  43.828  26.535  13.965
55419W        W22202  40.068  21.236  11.202
55420W        W22203  29.049   4.479   2.689
55421W        W22204  29.494  42.982  13.632
55422W        W22205  23.605   3.334   3.554
55423W        W22206   6.826  40.770   0.458
55424W        W22207  20.504  13.578  10.272
55425W        W22208  39.599  29.435   1.289
55426W        W22209  38.550  22.963   0.831
55427W        W22210  15.310  16.579  13.934
55428W        W22211  14.396  32.634   2.889
55429W        W22212  35.536   5.783   4.979
55430W        W22213   0.596  26.674   4.686
55431W        W22214  16.667  11.768   1.779
55432W        W22215   5.968  13.877  14.363
55433W        W22216  42.876  32.857   1.594
55434W        W22217  30.744  35.050  13.812
55435W        W22218  10.682  22.740  14.351
55436W        W22219  36.151  19.773   4.471
55437W        W22220   8.862   4.792  11.547
55438W        W22221  16.201  39.814  10.543
55439W        W22222  25.015  23.638   1.492
55440W        W22223  33.680   0.445   4.388
55441W        W22224   7.727  35.056  12.426
55442W        W22225  38.798  12.936  11.905
55443W        W22226  22.721  37.591   2.267
55444W        W22227  43.800  22.039  12.763
55445W        W22228   1.348  12.364   4.417
55446W        W22229  37.226   8.184  14.389
55447W        W22230  27.126  30.450  12.188
55448W        W22231  44.408  34.353  12.258
55449W        W22232   5.443  30.813  11.987
55450W        W22233  29.418  28.448   5.049
55451W        W22234  34.122  21.520  14.605
55452W        W22235  22.152   1.307   9.739
55453W        W22236  41.338  13.801   2.471
55454W        W22237  14.891  31.633  11.486
55455W        W22238   6.274  16.326  12.112
55456W        W22239   4.157  27.445  14.870
55457W        W22240  39.352  33.532   1.561
55458W        W22241   3.964  29.442  13.319
55459W        W22242  44.475  38.581  11.972
55460W        W22243  30.973  29.487   1.492
55461W        W22244  42.343  10.224  11.170
55462W        W22245   7.877  41.175   4.229
55463W        W22246  25.539  39.062  14.391
55464W        W22247  37.292  41.433  11.069
55465W        W22248  31.470  27.544   0.921
55466W        W22249  44.051  14.324   3.550
55467W        W22250  40.315  15.375   1.804
55468W        W22251   5.548  19.650   1.892
55469W        W22252   0.249  23.254  11.117
55470W        W22253  42.324  15.660  14.162
55471W        W22254  22.015  24.554   2.310
55472W        W22255  13.112   6.387   3.418
55473W        W22256  40.761   9.989  12.085
55474W        W22257  44.915  44.428   1.746
55475W        W22258  37.606   9.905  13.272
55476W        W22259  34.409  24.458  13.092
55477W        W22260  31.332   9.887   3.743
55478W        W22261  17.982  19.011   4.888
55479W        W22262  42.441  37.457   0.307
55480W        W22263  24.653  36.922   0.211
55481W        W22264  12.825  30.856   1.160
55482W        W22265   1.790  38.878   2.667
55483W        W22266  14.827  24.153   3.244
55484W        W22267  44.371  32.995   4.887
55485W        W22268   8.087   6.791   2.299
55486W        W22269  43.806  35.470  11.834
55487W        W22270  10.571   9.870   4.153
55488W        W22271  24.829  40.082  12.072
55489W        W22272  30.607  36.821   0.676
55490W        W22273  18.029  29.606   1.888
55491W        W22274  15.904  43.335   2.939
55492W        W22275  35.630   8.786   3.749
55493W        W22276   5.696   4.194   1.265
55494W        W22277  42.702  33.393  14.069
55495W        W22278  14.203   5.712   3.341
55496W        W22279   2.387  28.944  11.677
55497W        W22280  39.984   4.106  12.388
55498W        W22281  29.357  11.727  11.112
55499W        W22282  17.536   9.391   2.135
55500W        W22283  19.531   6.301   2.372
55501W        W22284  13.661  43.020   4.259
55502W        W22285  29.461  44.296   0.337
55503W        W22286  40.904  18.426   4.776
55504W        W22287  18.641   4.224   4.056
55505W        W22288  18.458  22.671  13.376
55506W        W22289   2.796  22.737   0.760
55507W        W22290  35.932   8.196   1.368
55508W        W22291   6.850  22.500   2.681
55509W        W22292  14.120  23.244  12.905
55510W        W22293  16.875   6.738   0.047
55511W        W22294  36.519  15.227  12.554
55512W        W22295  15.080   4.866  14.464
55513W        W22296  31.927  37.545  13.394
55514W        W22297  21.623  22.547  10.555
55515W        W22298   4.928  28.278   0.396
55516W        W22299   8.993   4.262   0.739
55517W        W22300  44.264  27.215  13.397
55518W        W22301  37.395  33.972  13.453
55519W        W22302  23.894  39.488   4.142
55520W        W22303   6.974  33.606   2.413
55521W        W22304  44.832   2.330   4.103
55522W        W22305  26.313   7.956   2.955
55523W        W22306   0.808  15.527  11.960
55524W        W22307  44.994  28.987  14.014
55525W        W22308  39.585  26.450  11.890
55526W        W22309  18.905  28.203  11.232
55527W        W22310  29.337  42.464  13.707
55528W        W22311  18.201   9.708   4.217
55529W        W22312   8.328  39.861  12.020
55530W        W22313  42.402  31.582  13.982
55531W        W22314  18.020   9.804  13.358
55532W        W22315  43.879  13.305   0.381
55533W        W22316   4.756   3.465   2.138
55534W        W22317  11.823  20.183  11.537
55535W        W22318  26.457   0.832   5.181
55536W        W22319   1.487  21.502   5.020
55537W        W22320  29.742  18.764  14.371
55538W        W22321  11.894  29.019  10.781
55539W        W22322  10.338  20.011  14.960
55540W        W22323  22.738  28.504   3.708
55541W        W22324   3.165  11.145   4.645
55542W        W22325   1.777   8.253  13.062
55543W        W22326   5.318  11.639  12.188
55544W        W22327  38.472  21.194   0.286
55545W        W22328  24.590  34.149   1.828
55546W        W22329  13.259  15.122  11.511
55547W        W22330  13.879   2.270   3.397
55548W        W22331  22.610   6.625  14.769
55549W        W22332  24.826  18.902   0.003
55550W        W22333  44.249  43.789  12.598
55551W        W22334  19.799   7.373  14.441
55552W        W22335  30.911  35.565   0.288
55553W        W22336  34.943  17.537  12.037
55554W        W22337  39.274   7.143   0.882
55555W        W22338  23.310  12.614   1.396
55556W        W22339   8.799   2.733  12.382
55557W        W22340  25.253  14.775   3.686
55558W        W22341   9.387  19.710  14.912
55559W        W22342  33.436   6.688  12.500
55560W        W22343  16.081  43.434   1.312
55561W        W22344  33.625   1.820  10.337
55562W        W22345  32.544  35.423  14.279
55563W        W22346   2.418  33.199   3.013
55564W        W22347  31.645  18.644  11.904
55565W        W22348  36.689  17.526  12.489
55566W        W22349   0.175  17.451  14.615
55567W        W22350  12.406  12.793   3.130
55568W        W22351  36.533  43.013  13.575
55569W        W22352  32.554  30.578   4.317
55570W        W22353  33.447  22.903  12.325
55571W        W22354  25.493  24.715  12.561
55572W        W22355  18.066  18.633   3.710
55573W        W22356  15.337  39.135  12.030
55574W        W22357   9.650  11.364  14.958
55575W        W22358   3.165  18.871   1.603
55576W        W22359  35.383  41.719  13.983
55577W        W22360  25.175   8.361   3.743
55578W        W22361  41.745  27.392   1.388
55579W        W22362  44.061  43.975  14.904
55580W        W22363  24.810   8.711   3.846
55581W        W22364   0.740  11.610   1.858
55582W        W22365  25.150  17.585   1.187
55583W        W22366  12.425  22.009   4.573
55584W        W22367  13.561  31.081   1.858
55585W        W22368  42.119  18.438   3.773
55586W        W22369  35.820  10.346   1.735
55587W        W22370   5.620  10.646   1.210
55588W        W22371  25.084   6.813   4.558
55589W        W22372  33.838  18.857  14.731
55590W        W22373  33.904  15.520   2.383
55591W        W22374  41.834  32.163   3.293
55592W        W22375  31.155  28.098  12.371
55593W        W22376  19.546  15.534   3.565
55594W        W22377  12.571  13.635  11.917
55595W        W22378  19.054  36.513  13.586
55596W        W22379  10.580  26.632   3.319
55597W        W22380  29.623  11.381  13.725
55598W        W22381  16.821  27.153   0.262
55599W        W22382  34.521   4.076  14.377
55600W        W22383  41.265   5.297   0.959
55601W        W22384  37.510  27.479  14.091
55602W        W22385  41.189   6.345  11.794
55603W        W22386  30.171  44.661   2.119
55604W        W22387  27.230  11.283  11.076
55605W        W22388  32.806  18.747  10.074
55606W        W22389   1.033   2.324  12.978
55607W        W22390  30.981  26.518   0.206
55608W        W22391   1.802  38.543  13.450
55609W        W22392  21.250  21.497  14.386
55610W        W22393  38.829  17.696   0.298
55611W        W22394   5.419  17.074   2.273
55612W        W22395   2.912  39.061   4.492
55613W        W22396   1.251  18.646   2.683
55614W        W22397  35.573  42.490  12.309
55615W        W22398  24.439  36.691   4.527
55616W        W22399  26.699  29.606  14.466
55617W        W22400   7.977  27.934   2.204
55618W        W22401   7.634   8.870   0.446
55619W        W22402  22.591   8.068  12.491
55620W        W22403  13.566   3.862   3.262
55621W        W22404  29.071   6.942  14.413
55622W        W22405   1.146  36.852   3.096
55623W        W22406   0.888  38.330   1.969
55624W        W22407  38.804  42.208  11.118
55625W        W22408  14.219   1.968   3.818
55626W        W22409  20.975  22.612   2.644
55627W        W22410  44.540  17.256   4.987
55628W        W22411   8.458  17.187   4.685
55629W        W22412  27.657   3.321  13.822
55630W        W22413  42.361  11.085   3.293
55631W        W22414   3.068  35.813  13.831
55632W        W22415   8.365  29.912   0.183
55633W        W22416  13.160  10.252   1.923
55634W        W22417  31.480  24.286   0.830
55635W        W22418   6.726  30.061   4.196
55636W        W22419  22.219  32.543   0.928
55637W        W22420  17.792  13.943  14.730
55638W        W22421  29.949  35.184  13.451
55639W        W22422  14.261   7.375  14.854
55640W        W22423  19.696  21.762  12.695
55641W        W22424   7.757  41.664   1.706
55642W        W22425  12.599   3.060  13.065
55643W        W22426  38.403  43.101   3.348
55644W        W22427  31.488  30.668  10.651
55645W        W22428   5.792   2.448  12.517
55646W        W22429  25.086   8.077   1.826
55647W        W22430  44.307  40.726   3.767
55648W        W22431   4.669   7.682   3.763
55649W        W22432  19.496   9.134   3.386
55650W        W22433  33.532  18.560   4.020
55651W        W22434   3.834  30.031   1.970
55652W        W22435  22.956  20.524  12.860
55653W        W22436  10.227   9.689  10.741
55654W        W22437  13.554   9.914   1.906
55655W        W22438  14.690  10.174  14.486
55656W        W22439  32.509  13.798   2.242
55657W        W22440  36.141  16.329   1.494
55658W        W22441   9.261  35.667   4.856
55659W        W22442  39.075  14.421  11.268
55660W        W22443   4.450  18.776  11.994
55661W        W22444  40.901  18.251   4.294
55662W        W22445  21.796  24.694   2.796
55663W        W22446  44.423   4.641  12.420
55664W        W22447  10.471  37.439   3.549
55665W        W22448  39.454  42.904   1.346
55666W        W22449  26.260  25.286   0.845
55667W        W22450  14.909  36.254  14.798
55668W        W22451  34.482  36.465  14.560
55669W        W22452  11.669   3.509  11.223
55670W        W22453  21.173   9.671  13.908
55671W        W22454   7.327  40.500  14.419
55672W        W22455  43.254  26.627   1.003
55673W        W22456  33.901   2.142   2.735
55674W        W22457  18.116  37.925   0.441
55675W        W22458  19.578  23.072   2.876
55676W        W22459  30.514  23.519  12.946
55677W        W22460  36.300  16.702   0.793
55678W        W22461  27.064  26.243  13.373
55679W        W22462  44.974  32.870   0.044
55680W        W22463  18.059  10.708   4.087
55681W        W22464  27.043  28.572  13.783
55682W        W22465  30.646  42.455   2.668
55683W        W22466  25.245  27.444   4.129
55684W        W22467   9.222  35.445   2.492
55685W        W22468  36.024  26.971  11.873
55686W        W22469  23.434  18.090  11.170
55687W        W22470  33.051  42.907  10.699
55688W        W22471  36.441  22.600   1.291
55689W        W22472   6.756  38.405   4.712
55690W        W22473  26.990  37.971  12.145
55691W        W22474  22.527  33.879   0.770
55692W        W22475  13.434  12.789   3.308
55693W        W22476  37.635  22.668   4.029
55694W        W22477  24.174  33.589   2.288
55695W        W22478   2.346  27.291   0.133
55696W        W22479   7.880  34.622   1.611
55697W        W22480   2.893  12.337   0.254
55698W        W22481  12.380  28.565  11.624
55699W        W22482  16.630   9.127   1.319
55700W        W22483  19.551  10.729  14.749
55701W        W22484  10.370  35.871  11.409
55702W        W22485  28.487   5.483   3.282
55703W        W22486  17.878  20.473   4.069
55704W        W22487  26.663   8.802  11.683
55705W        W22488  42.815  31.342  13.678
55706W        W22489  44.523  40.082   1.335
55707W        W22490   5.414   6.436   0.722
55708W        W22491  43.762  40.277  14.392
55709W        W22492   3.239   9.569  14.449
55710W        W22493  30.625  18.295   1.380
55711W        W22494  12.352   0.347  13.475
55712W        W22495   9.706  25.299   3.182
55713W        W22496  16.320  20.223  11.246
55714W        W22497  29.678  33.566   4.238
55715W        W22498   9.191  44.751  11.359
55716W        W22499  31.624  10.795  11.026
55717W        W22500  23.758   6.825  14.495
55718W        W22501   3.735  10.824   3.381
55719W        W22502   1.124   2.802  12.764
55720W        W22503   3.451  24.074  13.090
55721W        W22504  22.154  35.650  14.604
55722W        W22505  30.635  39.276   3.155
55723W        W22506  38.483  16.789  10.779
55724W        W22507  11.338  34.331   3.209
55725W        W22508  16.334  18.227  10.763
55726W        W22509  10.296  22.062   2.256
55727W        W22510  28.613  31.478  12.574
55728W        W22511  21.250  25.983  12.054
55729W        W22512  17.611  19.736  14.086
55730W        W22513  12.680   7.436   9.562
55731W        W22514  31.117   5.225   0.003
55732W        W22515  11.121  34.030  14.090
55733W        W22516  23.153  13.414   0.475
55734W        W22517  26.886  12.226   0.290
55735W        W22518  43.051   4.790  10.188
55736W        W22519  10.237  37.482   1.034
55737W        W22520  34.922   5.065   4.214
55738W        W22521  20.232  28.140  10.775
55739W        W22522   5.451  26.462  10.964
55740W        W22523  18.113  36.018   9.627
55741W        W22524  33.799  14.228  13.560
55742W        W22525  27.638  10.201  11.706
55743W        W22526  21.198  13.231   1.828
55744W        W22527  32.661   9.902   3.366
55745W        W22528  16.994  38.323   2.807
55746W        W22529  20.396  43.319  10.598
55747W        W22530  31.929  32.617   1.052
55748W        W22531  25.195  18.253  10.618
55749W        W22532  13.249   0.477  12.016
55750W        W22533   2.905  38.510   4.567
55751W        W22534  37.815  33.422  12.800
55752W        W22535  24.294  38.031  10.618
55753W        W22536  28.921   5.653  13.291
55754W        W22537  37.489   9.883   1.262
55755W        W22538  26.227   3.756  13.909
55756W        W22539   0.378   7.296  12.890
55757W        W22540   1.843  34.097   4.157
55758W        W22541  11.642  35.373  13.553
55759W        W22542   4.369  31.363  12.900
55760W        W22543  10.696  40.965   4.386
55761W        W22544   9.137   3.776   0.846
55762W        W22545   5.975  36.137   3.726
55763W        W22546  31.175  35.328  13.714
55764W        W22547  34.740  44.453  14.757
55765W        W22548  40.800  16.895   9.942
55766W        W22549   6.939  14.101   0.798
55767W        W22550   8.850  32.151   4.032
55768W        W22551  43.207   3.982  11.798
55769W        W22552  32.389  21.851  14.416
55770W        W22553  36.428   1.812   4.647
55771W        W22554  27.752  11.785  13.480
55772W        W22555  14.783  34.447   1.732
55773W        W22556  28.933  19.102  10.991
55774W        W22557  34.294  28.388  13.705
55775W        W22558   6.639  17.086   4.231
55776W        W22559  28.097   9.306  14.143
55777W        W22560   0.389  30.617  14.901
55778W        W22561  23.263  35.937   1.131
55779W        W22562   7.808  33.378   4.985
55780W        W22563   2.487  33.470  13.788
55781W        W22564  18.304  38.627  11.169
55782W        W22565   7.738   6.452  11.563
55783W        W22566  21.560  43.895  11.787
55784W        W22567  24.433  36.365   4.109
55785W        W22568  30.913   8.866   3.653
55786W        W22569  37.954  16.560  14.705
55787W        W22570  22.632   9.799   2.813
55788W        W22571  43.433  42.778   4.997
55789W        W22572   1.116  17.751  13.017
55790W        W22573   5.301  26.388  14.071
55791W        W22574  13.088   3.914   1.040
55792W        W22575  33.392  41.325  13.449
55793W        W22576  34.854  34.971   5.063
55794W        W22577  15.784   4.500  12.927
55795W        W22578  11.257  27.940  13.543
55796W        W22579  36.514   4.820  14.448
55797W        W22580  24.028  32.627  12.037
55798W        W22581  35.538  38.645  14.983
55799W        W22582   4.616  27.271  11.748
55800W        W22583  32.553   1.148   4.835
55801W        W22584   3.230   1.904  11.149
55802W        W22585   3.901   0.800   3.792
55803W        W22586   5.588  39.102  11.681
55804W        W22587   0.432  38.986   2.960
55805W        W22588  33.916  27.334  14.799
55806W        W22589  30.360  12.377   2.265
55807W        W22590  19.762   8.445  14.879
55808W        W22591  27.321  14.707  11.193
55809W        W22592  32.045  13.188   2.596
55810W        W22593  17.931   1.181   4.936
55811W        W22594  15.240  39.445   0.779
55812W        W22595  27.954   1.730  12.093
55813W        W22596  29.462  30.901  10.708
55814W        W22597  42.890  44.572   0.321
55815W        W22598  25.446  34.732   4.191
55816W        W22599  18.234  12.078   0.808
55817W        W22600  36.262  24.442  13.480
55818W        W22601  22.611   9.336  14.875
55819W        W22602  42.876  31.524   2.274
55820W        W22603  24.587  31.594   4.933
55821W        W22604   4.292  38.524  13.727
55822W        W22605   4.459  41.994   3.308
55823W        W22606  15.107   0.963  14.318
55824W        W22607   3.433  40.598  14.638
55825W        W22608  31.560  28.622   4.853
55826W        W22609   3.343  14.707   1.357
55827W        W22610  33.194  16.436   4.127
55828W        W22611   9.268   7.214  12.580
55829W        W22612   4.499   9.798   1.835
55830W        W22613  43.068  10.277   1.683
55831W        W22614  29.827  42.089  12.039
55832W        W22615  18.621  35.475   2.136
55833W        W22616   0.868  30.880  10.654
55834W        W22617  30.184  36.928   1.008
55835W        W22618  16.509   2.890   0.500
55836W        W22619  35.102  29.034  13.449
55837W        W22620   1.808   2.962  14.526
55838W        W22621  31.349  15.932   3.770
55839W        W22622  19.866   4.208   2.610
55840W        W22623  36.531  42.135   1.942
55841W        W22624  43.804   4.988  10.638
55842W        W22625   9.249  13.530   1.710
55843W        W22626  39.468  21.678   2.872
55844W        W22627  28.164   5.269  11.569
55845W        W22628  44.061  39.750  13.551
55846W        W22629  30.712   6.839   3.724
55847W        W22630   4.793  23.576  12.322
55848W        W22631  10.130  29.101   2.360
55849W        W22632  12.160   2.019   2.271
55850W        W22633  11.785  42.946  14.379
55851W        W22634  23.556  29.432  10.668
55852W        W22635  19.342  33.419   3.716
55853W        W22636  36.074  29.243  14.327
55854W        W22637   9.889  35.831   3.161
55855W        W22638  25.150  27.532   1.235
55856W        W22639   0.616   5.574  13.430
55857W        W22640   4.749  34.963  12.443
55858W        W22641  13.198   3.464  14.260
55859W        W22642  25.576  21.718  10.497
55860W        W22643  11.421  30.148   2.868
55861W        W22644  25.888  25.377   2.807
55862W        W22645  27.131   4.165   3.594
55863W        W22646  40.507  31.948   3.364
55864W        W22647  41.405  18.533   4.541
55865W        W22648   6.902  12.032  13.821
55866W        W22649  14.223  16.680   3.365
55867W        W22650  17.616  26.697  13.394
55868W        W22651  16.167  18.143   4.185
55869W        W22652  34.453  33.644   4.072
55870W        W22653  21.590   3.895  12.599
55871W        W22654  18.841  19.587  12.533
55872W        W22655  38.051  41.846  13.937
55873W        W22656  36.296  11.793   4.400
55874W        W22657  20.563  11.313   2.720
55875W        W22658  35.619   0.441  11.224
55876W        W22659  16.711  25.766  14.413
55877W        W22660  27.446  12.128  12.085
55878W        W22661  34.418   3.777   2.228
55879W        W22662  17.808  33.394   0.446
55880W        W22663  18.527  39.478   3.061
55881W        W22664  41.247   8.199   3.865
55882W        W22665  12.645  26.463  14.395
55883W        W22666   7.418  25.056   3.882
55884W        W22667  32.643  32.874  14.481
55885W        W22668  24.982  28.640  13.434
55886W        W22669  19.187  17.623  11.766
55887W        W22670  15.190   1.386   1.533
55888W        W22671  37.321  21.064   2.622
55889W        W22672  16.106  20.107   3.218
55890W        W22673  44.428  13.574   5.320
55891W        W22674  24.935  26.061   3.891
55892W        W22675   3.911  22.986  13.501
55893W        W22676  26.008  31.823  13.101
55894W        W22677  27.562  31.920   4.645
55895W        W22678  41.041  23.153   1.345
55896W        W22679   0.539  17.160   5.278
55897W        W22680  14.066  36.548   4.493
55898W        W22681   9.208  26.941   3.356
55899W        W22682  40.789  42.812  11.569
55900W        W22683  34.106   6.610   2.198
55901W        W22684  28.661  26.770  11.670
55902W        W22685  23.975  12.327  13.447
55903W        W22686  27.756   2.898   4.347
55904W        W22687  30.913  17.071  14.939
55905W        W22688  18.888  42.704  11.530
55906W        W22689   7.727  27.186  12.691
55907W        W22690  16.203  39.952   1.819
55908W        W22691  42.294  43.231  14.468
55909W        W22692  31.189  31.487  11.860
55910W        W22693  35.072  40.997   1.003
55911W        W22694  22.753  25.598   3.193
55912W        W22695   5.196   9.578   0.479
55913W        W22696  11.753  26.858   4.843
55914W        W22697  22.070   4.447   2.502
55915W        W22698  22.354  18.012  14.991
55916W        W22699  30.354   8.660  13.448
55917W        W22700   8.072  38.259  12.802
55918W        W22701  38.766  14.101  10.334
55919W        W22702  43.782  12.290  11.237
55920W        W22703  17.865  39.133  13.064
55921W        W22704   6.350  13.057   3.699
55922W        W22705  21.337  16.063   0.859
55923W        W22706   2.788   6.401   2.182
55924W        W22707   2.811   0.304  14.907
55925W        W22708   5.731   4.740  13.978
55926W        W22709  29.439  17.343   0.260
55927W        W22710  32.358  44.453   4.103
55928W        W22711   4.700   6.919   2.034
55929W        W22712  30.234  24.054   4.590
55930W        W22713  29.053  28.163  11.173
55931W        W22714  24.495  36.077   2.355
55932W        W22715  21.325  38.408  12.341
55933W        W22716   8.659   2.288   3.599
55934W        W22717  44.401  26.874   2.370
55935W        W22718   8.329  42.370  14.746
55936W        W22719  11.817   5.589   3.265
55937W        W22720  23.685  29.562  11.572
55938W        W22721  10.716  19.356  13.462
55939W        W22722  16.660  19.556   2.303
55940W        W22723  38.276   9.422  13.571
55941W        W22724   4.696   8.572   2.536
55942W        W22725  24.815  25.136  11.644
55943W        W22726  36.065  13.838  14.262
55944W        W22727  32.560   2.533  12.916
55945W        W22728  31.333  36.831   2.604
55946W        W22729  10.241  10.756   2.584
55947W        W22730  28.921  12.202   2.855
55948W        W22731  30.992  24.962   0.847
55949W        W22732  29.183  43.850   0.210
55950W        W22733  14.462  20.072  13.600
55951W        W22734  38.009  23.067  11.554
55952W        W22735   0.483  24.125  14.269
55953W        W22736  22.458  21.450   3.921
55954W        W22737  32.930  40.290  13.948
55955W        W22738  21.291  27.718  14.990
55956W        W22739  37.920  44.047  13.821
55957W        W22740  22.541  39.910   2.780
55958W        W22741  10.651  21.083   1.753
55959W        W22742  29.907   9.418   1.513
55960W        W22743  11.357  24.763  11.066
55961W        W22744  31.099  10.614  10.357
55962W        W22745  15.799   3.999   2.767
55963W        W22746  28.904  29.673  12.623
55964W        W22747  36.231   7.025  11.470
55965W        W22748   3.390  38.115  12.437
55966W        W22749  17.326  35.019  12.452
55967W        W22750   4.771   6.093   3.203
55968W        W22751  35.305  44.853  14.020
55969W        W22752  44.114  42.405   1.918
55970W        W22753  40.420  39.249   2.777
55971W        W22754  43.011   4.214   4.416
55972W        W22755  24.493  19.334  13.076
55973W        W22756  10.691  30.672   0.667
55974W        W22757  43.324  17.592  10.695
55975W        W22758  26.497   9.901   4.092
55976W        W22759   1.451  32.552   2.475
55977W        W22760  33.852  44.679   2.931
55978W        W22761  40.587  35.370  11.555
55979W        W22762  40.360  28.496  13.371
55980W        W22763  30.476  38.819  12.203
55981W        W22764  12.146  41.825   4.205
55982W        W22765  15.115  44.395   2.224
55983W        W22766  27.282  16.247  14.809
55984W        W22767  38.034   2.173   0.769
55985W        W22768  29.719   0.532  11.914
55986W        W22769  31.625  32.164   3.375
55987W        W22770   9.671  40.776  12.938
55988W        W22771  21.260   6.348  11.494
55989W        W22772   9.137  30.415  11.690
55990W        W22773   2.422  17.237  10.580
55991W        W22774  26.705  34.720   4.065
55992W        W22775  41.572  19.095   1.732
55993W        W22776  42.273  12.456   4.560
55994W        W22777  34.104  23.163  14.090
55995W        W22778  14.069  13.380   3.662
55996W        W22779  14.319  27.631   1.394
55997W        W22780  15.038  43.386   1.732
55998W        W22781  29.712  18.017   4.527
55999W        W22782  23.052  21.254  13.400
56000W        W22783  33.506  42.343   2.851
56001W        W22784  12.846  22.253  11.035
56002W        W22785   1.455  36.734   4.411
56003W        W22786  25.145  15.173   1.446
56004W        W22787  30.167   9.354  14.464
56005W        W22788   8.487  27.913   2.174
56006W        W22789  29.888  13.807  12.558
56007W        W22790  43.743  37.414  11.879
56008W        W22791  42.010  26.962  13.512
56009W        W22792  18.222  30.055  12.826
56010W        W22793  37.450  29.508  12.222
56011W        W22794   6.179  20.515   2.789
56012W        W22795  31.362   4.926   4.094
56013W        W22796   5.131  15.244   0.720
56014W        W22797  15.254  14.866  11.155
56015W        W22798  28.078  22.121  11.036
56016W        W22799  27.914  40.361  13.850
56017W        W22800   4.434   9.119   0.852
56018W        W22801   2.908  39.419  12.902
56019W        W22802  23.400   4.193  13.031
56020W        W22803  24.677  40.373  11.608
56021W        W22804  32.794  29.019  11.954
56022W        W22805  43.537  16.545  14.281
56023W        W22806  29.844  34.612  14.282
56024W        W22807  16.307  27.488   1.347
56025W        W22808  28.143  37.514   0.393
56026W        W22809  20.633  42.805   1.867
56027W        W22810  16.231  37.117  13.289
56028W        W22811  37.812  19.269   3.739
56029W        W22812  22.511  21.759  13.970
56030W        W22813   5.240   0.332  10.860
56031W        W22814  20.149  37.516  10.389
56032W        W22815   8.891  27.682  13.139
56033W        W22816   0.357   1.166  12.092
56034W        W22817   2.932  26.033   4.125
56035W        W22818  41.522  18.503  11.142
56036W        W22819  30.385  26.319   1.849
56037W        W22820  36.730  42.854  14.417
56038W        W22821  43.194  39.768   5.023
56039W        W22822  32.743  19.110   3.671
56040W        W22823  40.922   4.215  14.508
56041W        W22824  40.927  18.154   1.308
56042W        W22825  25.848   7.789   2.217
56043W        W22826  31.223  36.213   0.759
56044W        W22827  29.075  32.903   0.044
56045W        W22828  36.330  32.727   3.533
56046W        W22829   4.891  24.418  11.165
56047W        W22830  39.201  15.595   4.962
56048W        W22831   1.408  24.454   3.734
56049W        W22832  19.297  34.155  13.366
56050W        W22833  34.954   5.884  10.192
56051W        W22834  41.956  16.398  14.003
56052W        W22835  32.560  32.230   3.689
56053W        W22836  25.091  38.359  12.545
56054W        W22837  17.516  43.656   3.237
56055W        W22838  34.032  31.669   1.531
56056W        W22839  34.711  25.518   3.796
56057W        W22840  21.247   2.208   4.522
56058W        W22841  35.590  22.142  14.920
56059W        W22842  17.765  30.609  10.934
56060W        W22843  38.368  24.783  11.875
56061W        W22844   3.786  12.332  12.630
56062W        W22845  44.722   5.251  11.954
56063W        W22846   2.269  13.124   3.772
56064W        W22847  20.366  22.648   4.100
56065W        W22848  29.078  19.142  12.413
56066W        W22849  33.388  24.221  13.438
56067W        W22850   9.605   2.564  11.735
56068W        W22851  39.867  16.233   1.816
56069W        W22852  14.872  10.617   3.746
56070W        W22853  30.720  18.095   0.889
56071W        W22854  31.348  21.040   1.741
56072W        W22855  21.459  42.590   1.652
56073W        W22856  11.732  22.501  12.666
56074W        W22857  35.243  21.842   4.504
56075W        W22858   0.754  11.790  13.413
56076W        W22859  17.197  43.425   2.241
56077W        W22860  25.566  23.525  10.688
56078W        W22861  10.902  20.587   1.770
56079W        W22862   9.638   0.450  14.705
56080W        W22863  30.967  39.770  13.005
56081W        W22864  43.921  13.272   3.478
56082W        W22865  13.114   8.241  12.900
56083W        W22866  23.238  39.000  14.062
56084W        W22867  41.871  29.714  12.497
56085W        W22868  11.263   0.889  11.642
56086W        W22869  15.325  27.942   2.199
56087W        W22870  21.106   0.914   0.372
56088W        W22871  25.417  44.689   1.336
56089W        W22872  29.002  31.039  10.459
56090W        W22873  28.944   3.213   1.885
56091W        W22874  38.958  28.521   0.326
56092W        W22875  21.127  28.605  10.496
56093W        W22876   3.268   7.323  10.832
56094W        W22877  14.698  27.119   4.939
56095W        W22878  25.040  18.203  11.969
56096W        W22879  41.713  15.744  11.253
56097W        W22880  17.023  32.088   0.359
56098W        W22881  32.574  10.901   1.978
56099W        W22882  26.023  36.655   0.631
56100W        W22883  40.787   5.178  13.395
56101W        W22884  30.220  14.082  14.289
56102W        W22885  40.906   0.823   3.253
56103W        W22886  39.422  27.977  14.730
56104W        W22887  13.395   0.973   2.334
56105W        W22888  16.642  37.464  11.710
56106W        W22889  43.800  25.186   3.179
56107W        W22890  13.108  40.498   0.773
56108W        W22891  23.091  43.857   4.267
56109W        W22892   3.378  23.077  10.508
56110W        W22893   2.291   0.282   3.181
56111W        W22894  29.938  19.754   3.954
56112W        W22895  42.760  19.931  12.548
56113W        W22896  34.453  38.553   4.575
56114W        W22897   3.122  10.515  11.435
56115W        W22898   1.419  23.930  10.497
56116W        W22899  42.689  13.565   2.021
56117W        W22900  41.572  31.687   4.275
56118W        W22901   1.747  16.597  11.092
56119W        W22902  36.969  21.031   1.960
56120W        W22903   8.633   3.716  11.540
56121W        W22904  41.208  25.375  11.042
56122W        W22905  30.367  39.850   4.146
56123W        W22906   3.291  37.336   4.412
56124W        W22907  42.423   1.727   3.860
56125W        W22908  19.024  23.054   1.832
56126W        W22909   3.180  14.089  13.302
56127W        W22910  27.167   0.483   0.008
56128W        W22911   5.260  12.770   1.719
56129W        W22912   4.243  44.139  12.899
56130W        W22913  35.569  18.807   4.093
56131W        W22914   7.224  13.197  13.127
56132W        W22915   9.185  44.788   4.538
56133W        W22916  14.577  25.570  14.652
56134W        W22917  23.399   7.258   1.352
56135W        W22918   9.472  33.652   3.567
56136W        W22919  37.782  20.998   3.366
56137W        W22920  39.838  21.705  13.413
56138W        W22921   9.626   6.929   3.141
56139W        W22922  32.025  42.486  11.456
56140W        W22923  24.223  43.389   2.801
56141W        W22924   1.298  39.882  13.574
56142W        W22925  10.765  12.245   2.911
56143W        W22926   7.868   2.492   0.845
56144W        W22927  42.386   6.696   2.947
56145W        W22928  12.742  13.646  12.411
56146W        W22929  14.169  19.935   0.897
56147W        W22930  40.795   7.755   9.884
56148W        W22931   2.428  29.300   4.181
56149W        W22932  22.222  10.714   4.234
56150W        W22933  38.106  33.544   4.952
56151W        W22934   0.630  18.712  11.742
56152W        W22935  44.540  11.148   1.680
56153W        W22936  43.315  29.653   3.587
56154W        W22937  22.648   0.342  10.454
56155W        W22938   5.771  32.972  10.565
56156W        W22939  40.339  41.200  12.872
56157W        W22940  21.174  16.679  14.685
56158W        W22941  28.973   8.446   2.186
56159W        W22942   6.390  11.696   3.201
56160W        W22943  27.592  42.441   2.783
56161W        W22944  41.466  26.133  14.068
56162W        W22945   1.485  44.242   1.812
56163W        W22946   8.241   7.434  12.079
56164W        W22947  32.528  16.965  10.728
56165W        W22948   6.203  44.911  10.496
56166W        W22949   9.793  42.919   4.499
56167W        W22950  38.059  21.613  14.323
56168W        W22951  10.701  20.045  11.657
56169W        W22952  18.733   2.087  11.059
56170W        W22953  27.253   3.193  11.520
56171W        W22954  20.086  15.163  14.960
56172W        W22955   4.833  21.572  12.414
56173W        W22956  43.546   8.453   3.100
56174W        W22957  39.585  38.500  11.904
56175W        W22958  21.241  30.515   2.572
56176W        W22959  18.664  12.942   1.799
56177W        W22960   0.892   9.013   4.994
56178W        W22961  43.372   9.441   3.505
56179W        W22962  18.215  30.169  11.823
56180W        W22963  32.768  28.703   2.229
56181W        W22964  40.774   0.945   2.768
56182W        W22965  27.449  38.851   0.323
56183W        W22966  20.716   6.319   4.284
56184W        W22967  19.388  17.214   2.234
56185W        W22968  23.006  24.278   9.873
56186W        W22969   9.779  27.629  12.931
56187W        W22970   7.428  17.868  11.150
56188W        W22971  34.055   4.907   2.802
56189W        W22972  15.965  14.363   2.808
56190W        W22973   9.704  11.150  13.313
56191W        W22974  15.860   8.623   3.303
56192W        W22975  28.113  41.840  12.474
56193W        W22976  14.711  18.144   3.727
56194W        W22977   6.712  40.173  14.816
56195W        W22978  14.713  34.438   3.078
56196W        W22979  24.632  24.354  10.262
56197W        W22980   0.482  44.530   1.497
56198W        W22981  27.575  39.414  14.420
56199W        W22982  22.701  24.035   4.514
56200W        W22983  23.258  15.851   0.374
56201W        W22984  24.038  29.614  12.323
56202W        W22985  17.711  22.707  12.388
56203W        W22986  31.104  13.724  12.925
56204W        W22987  19.736  39.587   2.179
56205W        W22988   2.512  38.643   0.881
56206W        W22989   3.416  14.335  13.703
56207W        W22990  22.556   8.279   0.142
56208W        W22991  21.732  17.957   2.094
56209W        W22992   5.283  15.254   2.811
56210W        W22993  10.148  21.263   1.762
56211W        W22994  14.241  14.898  14.405
56212W        W22995  40.372   1.154  14.830
56213W        W22996   7.408  27.588  10.568
56214W        W22997  24.511  27.152   5.041
56215W        W22998  14.142  27.470  13.785
56216W        W22999  10.618  18.577  11.624
56217W        W23000  44.068  14.275   2.696
56218W        W23001   8.188  17.804   3.628
56219W        W23002   6.288  19.254   3.995
56220W        W23003  44.825  40.257  10.768
56221W        W23004  18.052  28.576  11.720
56222W        W23005   4.269  19.036  10.812
56223W        W23006   6.167  11.886   0.479
56224W        W23007  27.604  28.603  12.424
56225W        W23008  44.858  24.869  12.195
56226W        W23009  17.062  29.171   4.049
56227W        W23010  14.965  24.479   3.668
56228W        W23011  16.215  11.451   1.494
56229W        W23012   6.957   4.201   1.688
56230W        W23013  43.422  14.844  12.052
56231W        W23014   6.825  14.261   2.213
56232W        W23015  16.718  23.122   2.785
56233W        W23016  32.989  19.515   5.512
56234W        W23017   0.485  27.108   0.348
56235W        W23018  19.757   8.752   3.649
56236W        W23019  18.624   8.376  13.955
56237W        W23020  27.647   8.644   3.531
56238W        W23021  43.304   1.780   3.802
56239W        W23022  12.396   4.376   4.164
56240W        W23023  25.615   7.413  12.097
56241W        W23024  34.015  30.448   2.636
56242W        W23025  34.689   7.924   2.323
56243W        W23026  31.111   1.017   2.259
56244W        W23027  20.902  42.528   2.354
56245W        W23028  22.979  42.963   0.256
56246W        W23029  39.600  18.024  14.523
56247W        W23030  15.676  12.584  12.540
56248W        W23031  17.148  41.368  10.402
56249W        W23032  22.625  21.723  10.658
56250W        W23033  39.427  29.044   5.100
56251W        W23034  10.691  13.104  13.328
56252W        W23035  35.864  11.367  12.549
56253W        W23036  26.093  29.210   3.254
56254W        W23037  31.105  31.959  12.072
56255W        W23038  19.322  12.331   0.342
56256W        W23039  41.478  43.117  12.980
56257W        W23040  44.394   5.286  10.868
56258W        W23041   6.378  32.013   1.792
56259W        W23042   5.906  16.531   0.032
56260W        W23043   1.312   7.640   0.845
56261W        W23044  23.824  23.070   0.731
56262W        W23045  16.761  21.597  14.945
56263W        W23046  30.999   7.968   0.448
56264W        W23047  32.722  41.483  12.389
56265W        W23048   6.426  17.966   1.260
56266W        W23049  15.747   9.182   1.292
56267W        W23050  34.818  25.536  12.442
56268W        W23051  26.035  29.518   4.354
56269W        W23052  40.844  30.502   4.643
56270W        W23053  22.688  21.032   3.707
56271W        W23054   5.229  31.933  14.454
56272W        W23055   6.155  22.506   1.355
56273W        W23056  11.693   2.924   3.654
56274W        W23057  16.128  40.642   4.816
56275W        W23058  18.743   0.500  13.856
56276W        W23059  37.913  19.037   1.863
56277W        W23060  19.765  29.711   3.903
56278W        W23061  40.170  32.052   1.968
56279W        W23062  17.113   1.900  10.785
56280W        W23063  25.676  39.975  13.333
56281W        W23064  27.496  11.615   1.794
56282W        W23065  12.168  36.111  11.588
56283W        W23066  40.308   7.191   4.671
56284W        W23067  18.131  31.612  14.637
56285W        W23068  27.164  34.112   1.736
56286W        W23069  38.487   5.995   3.808
56287W        W23070  12.681   5.228  12.051
56288W        W23071  28.090  36.254  10.261
56289W        W23072   9.417  21.505   4.664
56290W        W23073  19.951  22.514   2.812
56291W        W23074   4.991  39.026  12.366
56292W        W23075  43.408  23.520  10.922
56293W        W23076   6.782   6.754   4.075
56294W        W23077  10.696  20.609  11.123
56295W        W23078   7.326  21.565   1.264
56296W        W23079  10.249  39.955  14.508
56297W        W23080   0.434  41.860  10.614
56298W        W23081  19.732   1.733  11.977
56299W        W23082   7.205  24.274   0.145
56300W        W23083  44.533  18.785  13.740
56301W        W23084   4.256  43.243  13.853
56302W        W23085  35.578  21.268  11.637
56303W        W23086   7.652  12.200  11.621
56304W        W23087  19.769  35.166  13.935
56305W        W23088   1.230  15.336   4.189
56306W        W23089   2.933  12.218  14.738
56307W        W23090  20.345  35.992   2.424
56308W        W23091  39.887   4.019  13.821
56309W        W23092   7.719  17.621  12.443
56310W        W23093  26.399   7.251   1.672
56311W        W23094  10.156  39.360  10.668
56312W        W23095  33.412  40.292   1.325
56313W        W23096  32.578  16.305  14.450
56314W        W23097   6.108  12.120  14.246
56315W        W23098  26.150  30.487   0.833
56316W        W23099  10.131  11.217   3.616
56317W        W23100   3.262  35.570   4.988
56318W        W23101   5.789  13.806   0.357
56319W        W23102  39.424   9.870  13.030
56320W        W23103  23.925   0.989  13.551
56321W        W23104   6.705  21.428   2.736
56322W        W23105  27.433  41.039  13.358
56323W        W23106  15.866   2.446  11.125
56324W        W23107  39.541  37.357  11.519
56325W        W23108  33.997  32.836  13.875
56326W        W23109   0.975   4.323  14.323
56327W        W23110  36.593  21.201   3.703
56328W        W23111  23.119  20.711  13.346
56329W        W23112  21.594  42.236  10.659
56330W        W23113  18.172  19.139  12.471
56331W        W23114   7.182  34.166  13.865
56332W        W23115  35.179  31.401  10.777
56333W        W23116  26.966  19.897  11.560
56334W        W23117  35.458  22.205   4.175
56335W        W23118  17.986  20.277  11.037
56336W        W23119  25.947  41.225  14.439
56337W        W23120  31.766  18.629   3.579
56338W        W23121  44.628  37.864   0.883
56339W        W23122   4.185  12.620  12.488
56340W        W23123   2.228  37.136  10.980
56341W        W23124  44.461  13.584  12.924
56342W        W23125  19.033   5.602   4.034
56343W        W23126   0.142   5.276   3.632
56344W        W23127  18.409  25.534  12.204
56345W        W23128  38.273  22.604  12.470
56346W        W23129  42.836  16.330   0.898
56347W        W23130  30.509  41.304   1.155
56348W        W23131   6.819  42.394   3.587
56349W        W23132  16.354  13.815  14.592
56350W        W23133   6.107  27.613   1.425
56351W        W23134  15.655  19.101  13.444
56352W        W23135  23.098  15.305  11.592
56353W        W23136  15.728  12.410   2.716
56354W        W23137  33.849   9.127   3.226
56355W        W23138  32.147  26.636  14.992
56356W        W23139   3.736  11.560  14.846
56357W        W23140  38.603  14.843  10.615
56358W        W23141  28.327  43.996  10.566
56359W        W23142   9.641  23.999  12.969
56360W        W23143  16.019  13.707   4.360
56361W        W23144  25.678  22.542   1.381
56362W        W23145  34.455   6.647  14.171
56363W        W23146  34.039  35.331  11.280
56364W        W23147  32.641  34.781   4.210
56365W        W23148   1.298   3.779  11.211
56366W        W23149   5.419  36.146   5.056
56367W        W23150   7.423  20.038   4.745
56368W        W23151  21.706  21.479  10.557
56369W        W23152  36.002  24.647   1.720
56370W        W23153  24.217  15.299   0.466
56371W        W23154  42.563  22.685   0.419
56372W        W23155  42.444  36.950  13.995
56373W        W23156  17.271  12.056  10.978
56374W        W23157  35.022  38.115  12.404
56375W        W23158  30.500  22.655  14.530
56376W        W23159  39.398  17.778   1.945
56377W        W23160  36.588  19.107  14.001
56378W        W23161  35.794  41.565   3.181
56379W        W23162  44.263  34.480   2.145
56380W        W23163  39.423   0.507   0.289
56381W        W23164  21.420  14.341   4.578
56382W        W23165  14.564   3.462  12.638
56383W        W23166  28.614  13.739   0.316
56384W        W23167  36.998  32.525  13.526
56385W        W23168   3.842  27.690   2.833
56386W        W23169  42.678  27.166  12.790
56387W        W23170  35.155  35.994  11.967
56388W        W23171  36.617   8.299  11.995
56389W        W23172  21.194  41.548   4.621
56390W        W23173  26.028  34.310   1.306
56391W        W23174  30.978   7.274  11.115
56392W        W23175  19.542  10.456  11.015
56393W        W23176  38.518  38.054   2.601
56394W        W23177  32.104  19.765   1.348
56395W        W23178   6.752  33.445   1.493
56396W        W23179  30.434  33.638   0.789
56397W        W23180  39.039  10.262   0.437
56398W        W23181  43.081  26.914  14.500
56399W        W23182  16.886  36.441   4.156
56400W        W23183   6.661  26.509  12.434
56401W        W23184  28.338   2.252   2.778
56402W        W23185  21.807  38.889  10.671
56403W        W23186  10.445  30.110   3.234
56404W        W23187  22.007  22.741  13.928
56405W        W23188  40.817  17.115  10.944
56406W        W23189  18.190   3.691   3.804
56407W        W23190   2.013  31.162  11.959
56408W        W23191  33.085   2.806  11.119
56409W        W23192  15.057  30.526  13.326
56410W        W23193  16.057   1.233   2.122
56411W        W23194  24.649  35.384  11.643
56412W        W23195   3.367  13.055   0.740
56413W        W23196  44.676   4.378   0.707
56414W        W23197  11.638  28.705  11.146
56415W        W23198  16.291  22.763   4.255
56416W        W23199   5.303   7.470   1.543
56417W        W23200  39.176  24.442   5.114
56418W        W23201  33.571   8.689  11.580
56419W        W23202  42.028  37.084   0.492
56420W        W23203  34.485  17.838   0.838
56421W        W23204   2.838  23.026   3.849
56422W        W23205  31.724  31.535  14.724
56423W        W23206  21.954  17.760  14.232
56424W        W23207  13.213  44.543  11.208
56425W        W23208   0.865  30.418   0.018
56426W        W23209  36.298   5.807  14.325
56427W        W23210  41.694  32.183   2.298
56428W        W23211  33.879   8.951  11.860
56429W        W23212  29.143   0.035   3.638
56430W        W23213  35.293  31.633   3.685
56431W        W23214  20.718  42.736  11.724
56432W        W23215  16.894  12.436  14.729
56433W        W23216  36.507  18.168  11.987
56434W        W23217  40.462  32.360  10.286
56435W        W23218  25.444  33.970   4.352
56436W        W23219   4.725  31.250  13.287
56437W        W23220  21.527  25.517  11.053
56438W        W23221  14.609  16.654   0.802
56439W        W23222  37.178  27.720   1.723
56440W        W23223  25.677  40.392  12.014
56441W        W23224  13.024  28.967   1.222
56442W        W23225  21.062   1.600   1.606
56443W        W23226  25.902  39.412  14.514
56444W        W23227  25.748  13.344  13.061
56445W        W23228   1.587  29.594   0.455
56446W        W23229  29.581  17.683  10.646
56447W        W23230  40.365  43.428  13.145
56448W        W23231  27.167  24.570  13.760
56449W        W23232  11.617  41.851  14.814
56450W        W23233  37.493  40.698  13.827
56451W        W23234   6.384  27.469  13.417
56452W        W23235  14.793   5.521  14.007
56453W        W23236   6.225  10.779  13.478
56454W        W23237  29.035  24.997  14.973
56455W        W23238  37.025  42.100  12.606
56456W        W23239   3.955  14.860  14.796
56457W        W23240  31.421  32.459   1.252
56458W        W23241  27.957  11.850  14.254
56459W        W23242  12.245   8.929   2.336
56460W        W23243   7.822  16.033  13.437
56461W        W23244  31.652  24.016  10.626
56462W        W23245  37.350  31.624  12.962
56463W        W23246  11.902  16.754   2.425
56464W        W23247  15.682  14.257   0.019
56465W        W23248  16.802  22.609   3.154
56466W        W23249  14.924  11.301   1.356
56467W        W23250  31.035  26.957   4.616
56468W        W23251  37.883  34.035  13.612
56469W        W23252   3.879  12.215  14.240
56470W        W23253  31.472  35.123  13.303
56471W        W23254  29.931  39.307   1.898
56472W        W23255  37.317  10.158  12.720
56473W        W23256  11.398  23.073   4.104
56474W        W23257  30.445   8.815  11.630
56475W        W23258  43.884  32.937   4.635
56476W        W23259  26.883  36.918  11.189
56477W        W23260  23.573   5.970   0.914
56478W        W23261  23.401  36.385   1.415
56479W        W23262   0.225   5.412   3.125
56480W        W23263   4.549  18.539  11.550
56481W        W23264  36.855   4.825   0.638
56482W        W23265  22.599  10.131   0.589
56483W        W23266  38.824  12.546   2.112
56484W        W23267  31.717  20.060   0.476
56485W        W23268  15.806  36.938  13.911
56486W        W23269  17.205  24.403   3.865
56487W        W23270  12.302  15.362   0.193
56488W        W23271  36.851  29.908   3.158
56489W        W23272  13.327  35.949  13.019
56490W        W23273  37.908   0.255  14.375
56491W        W23274  25.636  19.134  10.731
56492W        W23275  24.557  12.149   0.441
56493W        W23276  15.371  44.009   3.692
56494W        W23277  29.500  30.158  14.782
56495W        W23278  24.648   5.495  12.305
56496W        W23279  19.825  37.215  11.639
56497W        W23280  24.314  38.476   3.773
56498W        W23281  33.689   4.449   1.893
56499W        W23282  42.889  35.535  10.810
56500W        W23283  30.082   0.286  12.200
56501W        W23284   6.393  38.350   2.258
56502W        W23285  27.008  27.069   2.773
56503W        W23286  25.880  14.224  13.453
56504W        W23287  14.664  30.615   2.293
56505W        W23288   7.316   5.783   2.391
56506W        W23289  37.586  36.175  12.933
56507W        W23290  15.172  16.102   1.296
56508W        W23291  10.463  27.896  11.983
56509W        W23292  20.277   3.849   3.574
56510W        W23293  26.254  35.958  13.999
56511W        W23294  32.634  10.708   1.486
56512W        W23295  38.532  39.585   2.268
56513W        W23296  14.243  22.984  11.471
56514W        W23297  27.906   9.707  14.453
56515W        W23298  39.596  29.444  11.446
56516W        W23299  44.845   9.242   2.185
56517W        W23300  43.599  16.586   0.315
56518W        W23301  44.265  16.211   1.705
56519W        W23302   9.664  43.426   4.530
56520W        W23303   7.915  27.270  14.558
56521W        W23304  14.033  10.866  14.989
56522W        W23305  21.196  12.606  12.073
56523W        W23306  11.882  37.003   5.447
56524W        W23307  41.882   7.595  12.434
56525W        W23308  11.880  10.964   1.904
56526W        W23309  19.133  41.422  11.460
56527W        W23310  23.134  34.477  10.329
56528W        W23311   3.772  39.024  13.044
56529W        W23312  35.710  40.441   4.921
56530W        W23313  29.378  10.646   4.114
56531W        W23314  22.616  39.090   0.800
56532W        W23315  36.772  20.538   2.072
56533W        W23316  37.852  42.343  14.759
56534W        W23317   4.624  37.361   0.909
56535W        W23318  27.849  36.758   0.277
56536W        W23319  30.678   4.941  11.061
56537W        W23320  20.140  24.218  13.026
56538W        W23321  23.254  27.183  14.475
56539W        W23322  13.752  21.527  11.979
56540W        W23323  22.977  24.914  11.840
56541W        W23324  38.997  44.248  14.095
56542W        W23325  36.522   4.723   4.033
56543W        W23326  14.678   2.764   3.765
56544W        W23327   2.042  26.217  11.631
56545W        W23328   0.721   2.889  13.684
56546W        W23329  22.536  18.296   4.197
56547W        W23330   5.865  13.337  10.666
56548W        W23331  18.814  33.099   1.556
56549W        W23332   5.401   0.853   4.357
56550W        W23333  36.040  44.122  10.971
56551W        W23334  26.761  27.894   2.481
56552W        W23335  34.562   8.265   1.260
56553W        W23336  37.036  34.047   1.113
56554W        W23337  13.228  13.858   0.215
56555W        W23338   0.107   6.460   1.956
56556W        W23339  42.420  36.225   1.993
56557W        W23340   0.884  31.404  10.621
56558W        W23341   3.827  16.715   4.164
56559W        W23342  18.777  17.731  12.998
56560W        W23343  41.193  41.270  11.139
56561W        W23344  43.287  30.479   3.671
56562W        W23345  11.715  32.722   2.845
56563W        W23346   4.185  22.535  14.383
56564W        W23347  27.761   4.234   0.762
56565W        W23348   9.025  39.197  12.864
56566W        W23349  18.034  21.588  10.615
56567W        W23350   7.416  33.341   2.795
56568W        W23351  28.114  23.893  13.965
56569W        W23352   5.504  23.136  11.306
56570W        W23353   7.070   3.560  12.828
56571W        W23354  15.095  41.336   1.480
56572W        W23355  28.483   0.189  13.339
56573W        W23356  42.964  20.188   2.729
56574W        W23357  31.465   7.155  10.924
56575W        W23358  32.096  39.390   3.122
56576W        W23359  22.448  16.159  12.822
56577W        W23360  36.511  18.110   2.229
56578W        W23361  39.046  19.769  12.833
56579W        W23362  19.946  35.553  14.880
56580W        W23363  14.220   5.911   1.738
56581W        W23364  34.916  16.857   0.687
56582W        W23365  19.634  41.714   0.851
56583W        W23366   5.123  36.447   2.471
56584W        W23367   0.264  43.490  14.390
56585W        W23368   0.589   2.819   2.657
56586W        W23369  42.083  40.765   1.917
56587W        W23370  19.958   1.466  12.800
56588W        W23371  12.149   7.721   0.709
56589W        W23372  44.117  40.531  14.085
56590W        W23373  13.411  33.818   1.839
56591W        W23374  14.219  16.722  14.774
56592W        W23375   6.795   0.268  13.476
56593W        W23376   3.130  24.937  14.428
56594W        W23377  44.429  23.787   1.358
56595W        W23378  36.773  32.167   1.874
56596W        W23379   9.360  12.188  12.762
56597W        W23380   9.402  32.342  14.870
56598W        W23381  20.770  11.590   3.736
56599W        W23382  29.407  38.538   4.867
56600W        W23383  37.052  36.904  14.354
56601W        W23384  16.725  25.022   0.653
56602W        W23385  43.489  17.415   0.551
56603W        W23386   7.722  37.095   0.908
56604W        W23387  11.572  31.140   2.187
56605W        W23388  44.318  26.468  10.716
56606W        W23389  23.664  23.395  11.586
56607W        W23390  29.686  26.177   1.507
56608W        W23391   9.498  32.396   3.003
56609W        W23392  42.988  16.682  11.578
56610W        W23393   4.887  18.341  11.984
56611W        W23394  24.674   5.676  12.779
56612W        W23395  41.679  35.390  10.789
56613W        W23396  20.163  43.018   1.853
56614W        W23397  36.541  36.273  11.148
56615W        W23398  17.356  20.516  12.046
56616W        W23399  11.144   9.328   2.838
56617W        W23400  41.927  40.233   4.677
56618W        W23401   2.408  34.455  14.194
56619W        W23402  12.156  22.766   0.748
56620W        W23403  13.284  35.274  14.280
56621W        W23404  22.068   2.897   0.215
56622W        W23405  22.195   7.448  12.097
56623W        W23406  20.813  44.862   3.073
56624W        W23407   3.228  43.370   0.309
56625W        W23408  41.673  17.124  14.381
56626W        W23409  11.931  26.971  14.036
56627W        W23410  14.284  10.257   0.841
56628W        W23411   4.170  23.184   4.515
56629W        W23412   6.855  40.008  13.222
56630W        W23413  32.027   1.486  10.759
56631W        W23414  44.899  17.685  10.985
56632W        W23415  17.152   2.151   4.110
56633W        W23416  21.711  10.603   0.962
56634W        W23417  12.603  36.345  11.755
56635W        W23418  18.678  18.636   9.893
56636W        W23419  20.748  14.895  11.600
56637W        W23420  11.123  43.255   3.219
56638W        W23421  35.556  26.696  12.477
56639W        W23422  32.148  21.540   0.905
56640W        W23423  24.563  36.189   4.589
56641W        W23424   2.977  39.803  11.587
56642W        W23425  20.708  12.373   0.365
56643W        W23426  23.802  32.934   2.720
56644W        W23427  12.956  36.410  10.881
56645W        W23428  34.152  19.471  13.489
56646W        W23429  36.977  17.543  10.485
56647W        W23430  25.056  12.011  12.096
56648W        W23431  14.536  10.783   0.859
56649W        W23432   1.998  40.916  10.713
56650W        W23433   4.867   9.953  12.397
56651W        W23434  26.458  37.450   0.853
56652W        W23435  29.555  10.114  12.523
56653W        W23436   4.943  34.970   3.396
56654W        W23437  35.382  22.700  12.085
56655W        W23438  24.133   9.379   1.187
56656W        W23439  30.055  38.569   2.825
56657W        W23440  40.095  16.648   0.797
56658W        W23441  37.439   9.129   1.033
56659W        W23442  10.791   6.208   3.323
56660W        W23443  23.563  21.458  11.366
56661W        W23444   7.907  35.861  12.091
56662W        W23445  18.770   1.704  14.547
56663W        W23446  20.108  11.165  11.531
56664W        W23447   4.441   6.481  13.079
56665W        W23448  43.080  29.074  10.620
56666W        W23449   5.786  15.665  12.463
56667W        W23450  34.626  12.270   3.882
56668W        W23451  11.542  44.549  11.145
56669W        W23452  39.917   3.143  12.598
56670W        W23453  27.718  32.492   3.092
56671W        W23454  12.611  12.819   1.944
56672W        W23455  22.626  44.355  10.455
56673W        W23456  12.321  39.926   0.823
56674W        W23457  23.472   4.530   2.448
56675W        W23458  42.752  14.411   3.270
56676W        W23459  17.121  20.641   1.792
56677W        W23460  26.071  35.984   4.596
56678W        W23461  17.442   0.443  14.270
56679W        W23462  33.509  10.355   4.279
56680W        W23463   5.310  38.274  14.987
56681W        W23464   8.441  30.433   0.295
56682W        W23465  44.259  22.443  14.583
56683W        W23466  37.944  16.136   3.473
56684W        W23467  31.529   9.729   3.297
56685W        W23468  43.258  18.272   3.239
56686W        W23469  35.403  38.142   0.068
56687W        W23470   7.143  31.449   3.731
56688W        W23471  44.134   7.795   0.357
56689W        W23472  28.468  27.270  12.982
56690W        W23473  10.315  10.358   4.202
56691W        W23474  22.555  44.574   4.368
56692W        W23475  25.778  43.542   3.149
56693W        W23476  30.950   0.493   1.509
56694W        W23477  10.782   4.719   0.284
56695W        W23478  26.619  39.759  12.002
56696W        W23479  30.902  43.743  11.202
56697W        W23480  26.043  22.965  13.245
56698W        W23481  23.007  29.663   2.670
56699W        W23482  15.679   3.377  12.145
56700W        W23483  39.578  16.721   0.906
56701W        W23484  18.138  35.524   2.345
56702W        W23485  14.354   0.316  12.026
56703W        W23486  36.920  16.869   4.959
56704W        W23487  22.907  14.047  11.968
56705W        W23488   1.851  44.755   4.624
56706W        W23489   0.286   1.302  11.597
56707W        W23490  35.340  18.224  12.370
56708W        W23491  22.647  43.414  14.917
56709W        W23492  41.289  14.245   1.184
56710W        W23493  44.457  12.175   1.911
56711W        W23494  15.594  34.628  13.549
56712W        W23495  13.524  14.310   1.720
56713W        W23496  25.222   0.333  10.515
56714W        W23497  40.874   6.187   0.043
56715W        W23498  12.235  11.390   1.702
56716W        W23499  22.096  29.045  14.626
56717W        W23500  16.741  44.842   0.814
56718W        W23501  39.192   6.490   1.651
56719W        W23502  25.894  10.572  14.475
56720W        W23503  40.939  39.892   4.072
56721W        W23504  39.351  35.299  12.422
56722W        W23505  15.578  33.586  10.630
56723W        W23506  13.481  12.350  14.824
56724W        W23507  28.486  21.872   2.432
56725W        W23508   9.319  38.947   4.187
56726W        W23509  40.815  19.759  10.604
56727W        W23510  17.676  25.623  11.102
56728W        W23511  39.382  35.388  10.585
56729W        W23512  27.145   4.920  10.118
56730W        W23513  29.202   8.425  13.396
56731W        W23514  34.321   0.041  13.969
56732W        W23515   6.720  44.836   1.890
56733W        W23516  14.628   8.310   4.792
56734W        W23517  32.909   8.283  14.508
56735W        W23518  18.186  28.013   0.783
56736W        W23519  30.503  15.688   1.832
56737W        W23520  10.819  12.029  10.669
56738W        W23521   5.629  28.919  12.898
56739W        W23522  14.068  42.364  11.541
56740W        W23523  25.724  28.780   0.321
56741W        W23524   8.227  29.052  14.771
56742W        W23525  36.008   9.153   3.708
56743W        W23526  22.511  15.996   2.812
56744W        W23527  17.073  44.901   2.343
56745W        W23528   0.766  38.446   0.357
56746W        W23529  22.586  33.121  12.799
56747W        W23530   5.764  32.512   4.924
56748W        W23531  33.475  10.398  12.372
56749W        W23532  31.421  23.662  14.965
56750W        W23533  24.210  12.243   3.396
56751W        W23534  24.641  28.990  12.512
56752W        W23535  10.716  20.788   0.452
56753W        W23536  16.437  39.595  14.896
56754W        W23537  39.111  34.615   1.728
56755W        W23538  41.982  15.403   1.780
56756W        W23539   8.797  17.602   0.295
56757W        W23540  33.969  29.908   3.415
56758W        W23541   3.928  42.390   4.133
56759W        W23542  16.212  22.244  11.342
56760W        W23543  37.446  22.135   9.906
56761W        W23544  43.324   9.775  11.475
56762W        W23545  21.780  32.927   3.786
56763W        W23546   4.630  26.911  13.474
56764W        W23547   7.380  43.562   0.718
56765W        W23548  24.024   3.664  14.472
56766W        W23549  30.460  35.441   1.538
56767W        W23550  41.386   0.138  11.262
56768W        W23551  26.040  38.979  12.116
56769W        W23552  43.010   2.292  11.961
56770W        W23553  43.822  18.105   4.266
56771W        W23554  19.643   5.389   3.043
56772W        W23555  28.693  22.624  14.557
56773W        W23556  20.037  13.073   3.683
56774W        W23557  26.409   5.152   4.195
56775W        W23558  36.616   6.720   2.301
56776W        W23559  28.881  18.009  10.723
56777W        W23560   2.883  10.195   1.280
56778W        W23561  36.762   4.746  12.445
56779W        W23562  17.951  36.346  11.985
56780W        W23563  13.454  35.158  13.792
56781W        W23564  34.149   4.450  13.383
56782W        W23565  15.893   3.627   4.042
56783W        W23566  21.685  23.180   3.602
56784W        W23567  39.084  41.789  14.834
56785W        W23568  26.496  35.401   1.793
56786W        W23569  40.993  40.382   3.782
56787W        W23570  21.990  36.827   4.367
56788W        W23571  37.666  16.584   3.258
56789W        W23572  13.695  38.023  12.940
56790W        W23573  27.482  44.240   4.371
56791W        W23574  24.162  25.275   1.698
56792W        W23575  41.473  10.305  14.398
56793W        W23576   8.160  32.494  10.562
56794W        W23577  34.359  14.031   1.491
56795W        W23578  43.754   3.632   3.767
56796W        W23579  15.776   9.066   3.581
56797W        W23580  27.378  30.400   1.272
56798W        W23581  17.197  11.943  12.388
56799W        W23582  30.012  20.113   0.609
56800W        W23583  38.117   5.744   1.267
56801W        W23584  41.041   4.492  10.862
56802W        W23585   9.310   7.809  11.420
56803W        W23586  43.250  29.212  11.707
56804W        W23587  40.584  36.983  14.434
56805W        W23588  14.344  28.469   0.910
56806W        W23589  35.435  41.530   4.657
56807W        W23590  27.145  27.153  14.882
56808W        W23591  39.951  40.686   2.692
56809W        W23592  23.560  13.146  12.406
56810W        W23593   9.907  29.666   1.223
56811W        W23594  35.520  38.466   4.881
56812W        W23595  19.363  32.947  11.117
56813W        W23596  28.506   8.207  11.610
56814W        W23597  36.362   0.989   3.767
56815W        W23598  34.422  10.159  11.542
56816W        W23599  20.759  26.982  11.406
56817W        W23600   7.456  18.998  13.900
56818W        W23601  10.286  29.944   4.622
56819W        W23602  21.446  37.413   0.371
56820W        W23603  17.660  30.378   1.896
56821W        W23604  44.210  16.018   3.669
56822W        W23605  33.028  22.140  10.894
56823W        W23606   0.239  15.775  11.135
56824W        W23607  33.799  39.904  12.887
56825W        W23608  11.290   3.667   1.769
56826W        W23609  35.365  36.282  12.472
56827W        W23610  29.008  23.629   4.134
56828W        W23611  39.724  34.522  11.959
56829W        W23612  12.149   3.672  11.147
56830W        W23613  27.155  15.873  12.566
56831W        W23614  12.812  18.039   0.684
56832W        W23615   2.033  13.363  10.376
56833W        W23616  20.719  43.540   0.458
56834W        W23617  38.097  23.802   1.626
56835W        W23618  18.754   5.766  12.436
56836W        W23619   0.688  35.548  12.187
56837W        W23620  37.474  20.115   4.128
56838W        W23621   5.431  43.528   0.301
56839W        W23622   4.661  13.246   3.100
56840W        W23623  15.300  38.635  12.155
56841W        W23624   2.452   0.265   1.275
56842W        W23625  43.684  34.955   2.847
56843W        W23626   3.205  26.477   2.927
56844W        W23627  37.524  41.370  13.453
56845W        W23628  17.346  35.396  13.830
56846W        W23629   8.543  33.227   0.309
56847W        W23630  37.245  31.440  13.952
56848W        W23631   0.386  17.449   1.291
56849W        W23632   9.809  23.728  12.106
56850W        W23633  27.625   4.783  12.904
56851W        W23634   4.713  37.042  13.007
56852W        W23635   4.013   2.912   0.954
56853W        W23636  17.688   4.377   2.143
56854W        W23637  26.411  31.092  10.663
56855W        W23638  40.001   2.624  14.802
56856W        W23639  28.073  11.756   2.152
56857W        W23640  28.714   3.818   3.741
56858W        W23641  23.479  28.499  11.392
56859W        W23642  35.506   4.679  11.055
56860W        W23643  39.289  44.274  14.948
56861W        W23644  42.858  41.752  12.902
56862W        W23645   5.237  22.523  12.560
56863W        W23646  12.565  33.869   1.489
56864W        W23647  36.353  25.767   3.852
56865W        W23648  19.960  40.306  11.808
56866W        W23649   0.978  43.376   1.266
56867W        W23650  24.949   1.698   2.852
56868W        W23651  22.625  36.128  10.739
56869W        W23652   1.673   2.821   5.121
56870W        W23653  27.449  25.478  11.097
56871W        W23654  16.711  36.540   2.570
56872W        W23655   1.810   9.178   3.705
56873W        W23656  16.749  38.213  14.596
56874W        W23657   2.481  35.012   0.271
56875W        W23658  34.013   3.194  11.268
56876W        W23659   2.407   5.239   2.840
56877W        W23660  12.820   2.942  11.311
56878W        W23661  24.722  30.043  14.570
56879W        W23662   4.888  44.075   0.885
56880W        W23663  24.725  26.934  11.421
56881W        W23664  42.923   6.799   0.310
56882W        W23665   9.780  16.206  12.327
56883W        W23666  13.764  42.802   4.712
56884W        W23667  33.667   5.867  11.393
56885W        W23668   8.411  32.869  14.933
56886W        W23669  19.579  14.707   0.171
56887W        W23670  38.791  23.184   1.256
56888W        W23671  19.070  26.500  13.587
56889W        W23672  23.173  44.926  12.010
56890W        W23673  38.749  26.612   2.848
56891W        W23674  44.817  37.850  10.552
56892W        W23675  41.854  27.039   2.833
56893W        W23676  25.658  37.050   0.143
56894W        W23677  30.889  40.266  12.904
56895W        W23678   0.943  27.421   3.360
56896W        W23679  40.435  16.796   2.303
56897W        W23680   0.395   5.118  12.303
56898W        W23681  43.097   7.126   3.334
56899W        W23682  24.749   6.385   0.428
56900W        W23683  41.468  11.530   4.841
56901W        W23684   0.747  25.461   1.641
56902W        W23685  12.248  35.023  14.915
56903W        W23686  23.756  43.097   3.672
56904W        W23687  40.794   2.952  11.592
56905W        W23688   9.639  32.953  13.461
56906W        W23689  26.459  24.499  11.049
56907W        W23690  18.204  17.290  10.132
56908W        W23691  22.146  27.739  12.000
56909W        W23692  16.813  24.522   0.832
56910W        W23693  30.958   6.727  10.609
56911W        W23694   0.774  41.068  13.768
56912W        W23695  26.198  31.054   1.352
56913W        W23696  21.540  25.227   5.407
56914W        W23697  39.267   0.447  12.485
56915W        W23698  37.894  22.249  14.720
56916W        W23699  43.487  18.234  13.012
56917W        W23700  39.248  33.523  13.594
56918W        W23701  15.274  40.902   0.193
56919W        W23702  25.087   7.560   1.725
56920W        W23703   6.268  31.663  14.423
56921W        W23704   0.987  17.255   1.756
56922W        W23705   3.982  30.346   2.899
56923W        W23706   4.810  36.946  14.964
56924W        W23707  22.549  27.170   3.212
56925W        W23708  11.998  13.261  14.589
56926W        W23709  42.293   2.935   4.628
56927W        W23710  36.066  38.336  13.299
56928W        W23711  44.555  22.953  14.396
56929W        W23712  13.014  17.274  12.239
56930W        W23713  12.222  26.213  11.648
56931W        W23714   6.968  22.187   2.289
56932W        W23715  25.082  36.872   0.890
56933W        W23716   9.230   1.113   4.161
56934W        W23717  32.118  28.755  14.339
56935W        W23718  40.373  33.107   1.931
56936W        W23719  16.718  32.401   2.768
56937W        W23720  16.609  12.885  12.282
56938W        W23721  43.002  36.469  11.043
56939W        W23722  28.973   6.670   2.791
56940W        W23723  24.316   0.847   1.283
56941W        W23724  43.213  38.799  14.400
56942W        W23725  17.520   7.297   3.785
56943W        W23726  40.817  35.404   1.727
56944W        W23727  15.938   2.253   5.059
56945W        W23728   7.673   9.275  12.069
56946W        W23729  36.083  29.854  12.947
56947W        W23730  33.178  25.964   3.652
56948W        W23731  29.422  40.028  10.866
56949W        W23732   7.199  35.918   3.212
56950W        W23733  37.030  43.460  10.820
56951W        W23734   6.010  33.150  11.899
56952W        W23735  24.248  17.047  10.596
56953W        W23736  35.038  33.416   1.120
56954W        W23737  28.104  19.523   2.386
56955W        W23738  19.141  31.884   0.814
56956W        W23739  20.029   3.543   2.377
56957W        W23740  22.507  31.455  10.410
56958W        W23741   6.171  12.635   2.871
56959W        W23742   6.272   8.154  12.437
56960W        W23743   4.198  19.740  13.514
56961W        W23744  33.726  40.533   0.675
56962W        W23745  26.983   6.618  11.617
56963W        W23746  14.715  13.175   1.260
56964W        W23747  20.213  27.189   0.253
56965W        W23748   7.666  31.814   1.454
56966W        W23749  27.432  16.828   3.914
56967W        W23750  41.451  35.981   1.388
56968W        W23751  18.763  11.731   4.170
56969W        W23752  44.562  30.542  13.547
56970W        W23753  29.493  41.552  10.735
56971W        W23754  11.843  44.124   0.905
56972W        W23755  43.823  18.636  12.997
56973W        W23756   0.944   5.702   4.213
56974W        W23757  44.306  36.872  12.556
56975W        W23758  31.806   1.976  11.016
56976W        W23759   0.467  29.609  12.563
56977W        W23760   1.977  22.040   4.339
56978W        W23761   3.328  10.659   4.902
56979W        W23762  25.100  17.945  14.868
56980W        W23763  13.837  25.664  11.960
56981W        W23764  43.207   8.955   3.655
56982W        W23765  18.171  31.488  13.621
56983W        W23766  13.820   3.465   2.831
56984W        W23767  42.424  24.547  11.621
56985W        W23768  24.588  29.965  13.975
56986W        W23769  22.578  15.662  12.901
56987W        W23770  26.608  35.785  11.262
56988W        W23771   4.624  22.140  11.861
56989W        W23772  15.036  15.942   0.472
56990W        W23773   8.543  28.995  13.408
56991W        W23774  35.955  18.024   1.553
56992W        W23775  21.277  23.522  13.518
56993W        W23776  18.560  17.908   4.010
56994W        W23777  19.560  19.128  10.656
56995W        W23778  32.666  35.794  12.067
56996W        W23779  36.309  11.883  12.969
56997W        W23780   9.317  37.161  11.967
56998W        W23781   4.370  20.712   1.193
56999W        W23782  26.517   2.301   1.200
57000W        W23783  19.633  42.986  13.068
57001W        W23784  34.095  41.946   1.423
57002W        W23785  33.174  16.791  12.829
57003W        W23786  27.639  29.418  14.918
57004W        W23787   1.310  19.579  14.958
57005W        W23788  40.902  10.583  10.730
57006W        W23789  16.616  21.427  11.284
57007W        W23790  18.609  30.246  11.097
57008W        W23791  36.554  26.730  12.054
57009W        W23792  11.279  25.714  13.683
57010W        W23793  10.244   4.916  12.107
57011W        W23794  44.578  12.328  10.552
57012W        W23795   0.048  11.182   3.243
57013W        W23796  24.721  41.091   0.018
57014W        W23797  32.052  24.587  13.469
57015W        W23798  27.229  11.834  13.599
57016W        W23799  38.255   1.340   4.831
57017W        W23800  21.291  32.402  10.378
57018W        W23801  32.882  27.623   1.856
57019W        W23802  42.161  32.989  12.474
57020W        W23803   3.201  17.543  12.648
57021W        W23804  40.959   6.319  13.035
57022W        W23805  13.815  31.503   1.696
57023W        W23806   8.114  18.832  13.598
57024W        W23807  15.579  20.238   2.336
57025W        W23808   5.770   6.928  12.073
57026W        W23809   9.676  24.095   4.662
57027W        W23810  43.513  40.549   3.292
57028W        W23811   6.773  21.506  10.906
57029W        W23812  22.502  26.097  12.518
57030W        W23813  32.887  31.331  14.027
57031W        W23814  38.073  10.558  12.951
57032W        W23815  23.157   4.387  12.515
57033W        W23816  33.364  36.305  11.954
57034W        W23817   3.757  21.982  13.602
57035W        W23818  19.711  25.589   0.878
57036W        W23819  34.545  24.168  14.373
57037W        W23820  15.365  23.870  13.080
57038W        W23821   9.891  19.864  12.318
57039W        W23822  36.935  44.310   2.425
57040W        W23823   6.416  19.918  13.945
57041W        W23824   1.987  43.932   1.376
57042W        W23825  16.898  44.339   0.800
57043W        W23826  30.459   8.698   1.449
57044W        W23827  29.491  23.258  11.088
57045W        W23828  17.234  13.278  12.851
57046W        W23829  25.047  38.611  11.147
57047W        W23830  14.141   8.963  11.254
57048W        W23831  39.220  34.525  11.927
57049W        W23832  24.001   1.992   0.846
57050W        W23833  37.477  19.490   0.004
57051W        W23834  43.200  19.811   3.530
57052W        W23835   7.166  32.441   3.657
57053W        W23836  10.528  38.461   4.618
57054W        W23837  43.662  23.602   4.055
57055W        W23838  31.803  40.887   5.043
57056W        W23839  44.308  23.733  12.511
57057W        W23840   0.502  28.881   3.717
57058W        W23841  41.054  11.420   3.100
57059W        W23842  22.161  33.002  12.557
57060W        W23843  15.703  41.849   3.758
57061W        W23844   4.509   8.873  12.448
57062W        W23845  11.530  43.086  12.559
57063W        W23846   3.327  12.116   0.439
57064W        W23847  14.061  12.347  11.014
57065W        W23848   3.139  42.913   4.868
57066W        W23849   4.273   6.265   2.290
57067W        W23850  12.661   8.753   0.802
57068W        W23851  26.965  37.347  14.805
57069W        W23852  22.987   4.324   4.046
57070W        W23853  32.443  39.302   3.883
57071W        W23854  37.431  20.823   3.707
57072W        W23855  27.745  10.028   0.814
57073W        W23856  12.638  38.624  14.369
57074W        W23857  28.033  18.805   0.526
57075W        W23858   8.327  19.212  12.265
57076W        W23859  11.686  16.786  12.032
57077W        W23860   6.739  20.054  12.881
57078W        W23861  42.443   5.775   0.766
57079W        W23862  11.380  43.088   2.768
57080W        W23863  22.238  28.403   1.855
57081W        W23864  15.667  38.768   2.764
57082W        W23865  42.665   2.439   4.047
57083W        W23866  36.049  15.189  11.467
57084W        W23867   7.173   6.450   1.687
57085W        W23868  26.482  10.537   2.200
57086W        W23869   8.721  25.419   1.140
57087W        W23870  22.614  11.609   0.271
57088W        W23871  31.755  43.795   1.752
57089W        W23872  30.581  39.623   1.977
57090W        W23873  13.938  30.152  11.746
57091W        W23874  25.283  21.529   2.738
57092W        W23875  10.889  19.667  14.114
57093W        W23876  36.804  30.443   3.261
57094W        W23877  13.352  24.737   3.780
57095W        W23878  29.516  11.932  10.256
57096W        W23879  34.534  15.385  12.777
57097W        W23880   9.764  15.006   4.745
57098W        W23881  28.235   9.292   3.232
57099W        W23882   5.039  13.804  13.933
57100W        W23883  17.294  41.947  14.794
57101W        W23884  37.261   3.013  10.754
57102W        W23885  29.656  35.054   4.206
57103W        W23886  12.936   6.855   5.104
57104W        W23887  39.477  26.279  13.210
57105W        W23888  11.775  37.804   0.230
57106W        W23889   0.037  37.051   4.164
57107W        W23890   9.898  31.454  14.898
57108W        W23891  30.693  29.335   5.017
57109W        W23892  39.124  25.746  14.707
57110W        W23893  38.363  27.632   0.446
57111W        W23894  34.614  22.468  14.681
57112W        W23895  34.880  22.959   3.240
57113W        W23896  19.513  44.241   4.191
57114W        W23897  42.018   6.198   3.235
57115W        W23898  21.446  26.551  11.214
57116W        W23899  19.781  14.023   3.644
57117W        W23900  12.329  41.911   4.703
57118W        W23901  27.629  18.132   3.667
57119W        W23902  29.453  24.239   3.560
57120W        W23903  23.941  24.718   0.857
57121W        W23904   8.724  19.144  12.595
57122W        W23905  17.578  39.863  13.427
57123W        W23906  15.316  36.532   3.026
57124W        W23907  42.975  12.227   2.670
57125W        W23908   8.814  20.513   2.690
57126W        W23909  39.651  40.502   4.044
57127W        W23910  30.133  12.047   2.928
57128W        W23911  21.723  22.440   3.119
57129W        W23912  28.501  35.325   4.525
57130W        W23913   9.191  26.125  11.183
57131W        W23914  31.576  17.872   4.138
57132W        W23915  17.562  12.852  12.741
57133W        W23916  27.997  25.738   9.945
57134W        W23917   8.224  27.025   3.313
57135W        W23918   8.123  21.259  10.945
57136W        W23919  15.598   1.579  11.722
57137W        W23920  25.669  37.574   1.263
57138W        W23921  38.587  30.527   1.245
57139W        W23922  19.267   6.445  12.585
57140W        W23923  21.082  14.203   4.936
57141W        W23924  43.728   2.803  14.094
57142W        W23925  21.166  23.340   0.748
57143W        W23926  11.882  34.009  11.108
57144W        W23927  35.603   5.808   4.467
57145W        W23928  38.819   2.900   4.970
57146W        W23929  13.506  20.704   2.798
57147W        W23930  17.453  11.686  12.843
57148W        W23931  26.624  12.109  13.919
57149W        W23932  34.073  19.140   4.258
57150W        W23933  39.183  16.441   0.330
57151W        W23934  15.181   5.214  12.091
57152W        W23935  29.255  32.134   4.091
57153W        W23936  17.813   8.184  14.534
57154W        W23937  41.796  40.897  10.599
57155W        W23938   3.367   8.728  13.079
57156W        W23939  43.989  24.148   4.594
57157W        W23940  35.284  42.311   0.805
57158W        W23941  14.757  44.571  10.359
57159W        W23942   2.148  33.638   4.797
57160W        W23943  31.876   0.211   2.538
57161W        W23944  29.031  28.656  12.557
57162W        W23945   9.865  38.643   0.695
57163W        W23946  42.828  19.597  12.172
57164W        W23947  11.045  40.425   0.437
57165W        W23948  24.745   4.773   3.619
57166W        W23949  26.758  14.596   4.020
57167W        W23950  37.228  18.520   2.325
57168W        W23951   0.938  31.345  13.171
57169W        W23952  12.440  27.300   2.824
57170W        W23953  10.804  31.058   2.860
57171W        W23954  41.517   9.646  13.089
57172W        W23955  23.294  36.339  11.551
57173W        W23956  32.553  27.479   3.876
57174W        W23957   9.084  24.974   3.573
57175W        W23958  17.653  15.472   2.046
57176W        W23959  35.009  39.899   0.379
57177W        W23960  23.468  26.372  12.751
57178W        W23961  36.425  40.594  12.090
57179W        W23962  24.071  32.687   4.896
57180W        W23963  39.321  27.171  10.528
57181W        W23964   9.781  15.603  10.725
57182W        W23965   2.270  18.299  14.378
57183W        W23966  14.244  16.061  13.343
57184W        W23967  39.908  11.268   2.748
57185W        W23968   7.181  22.052  13.075
57186W        W23969   5.387  19.232  12.626
57187W        W23970  16.572  25.395  13.526
57188W        W23971  32.602   5.251  13.302
57189W        W23972  11.354  41.441   3.955
57190W        W23973  30.399  33.423   2.355
57191W        W23974   4.772  12.698  13.375
57192W        W23975  32.557  44.378  11.996
57193W        W23976   3.318  29.009  11.829
57194W        W23977   7.540  40.864  12.044
57195W        W23978  29.138  21.464   4.652
57196W        W23979  16.196  11.217  12.985
57197W        W23980   7.737  32.473   2.724
57198W        W23981  34.142   6.727   3.539
57199W        W23982  28.425   9.176   1.831
57200W        W23983  15.775  30.484  14.405
57201W        W23984  25.458   7.438   2.145
57202W        W23985  13.756  38.462  12.125
57203W        W23986  23.677  24.242   2.205
57204W        W23987  33.935  20.621  11.539
57205W        W23988   9.613   2.532  12.259
57206W        W23989  30.500  36.851   2.652
57207W        W23990  43.349  36.823   4.663
57208W        W23991  17.578  44.544  11.514
57209W        W23992  16.881  35.828  14.405
57210W        W23993  18.726  37.632   0.942
57211W        W23994  19.204  40.793   1.251
57212W        W23995  43.707  28.266  11.952
57213W        W23996   1.369  15.071   4.630
57214W        W23997  17.076  27.537  12.088
57215W        W23998  37.240   5.524   0.247
57216W        W23999  17.686  12.692  12.234
57217W        W24000   7.229  10.841   2.094
57218W        W24001  32.102   2.854   4.601
57219W        W24002  14.363   6.683   3.279
57220W        W24003  31.874  32.931   4.372
57221W        W24004  41.159   1.511   0.217
57222W        W24005  27.542  36.276  13.437
57223W        W24006  26.399  41.394   0.950
57224W        W24007   3.293   9.700  12.994
57225W        W24008  41.565  22.197   0.903
57226W        W24009  30.447  27.128  13.059
57227W        W24010  25.381  23.722   2.831
57228W        W24011  44.657   5.982   3.773
57229W        W24012  19.613  28.097   4.508
57230W        W24013  37.076  26.585   3.319
57231W        W24014  42.378  20.617   0.882
57232W        W24015  13.898   6.515  13.524
57233W        W24016  22.752  31.027   3.136
57234W        W24017  24.392  31.233   4.208
57235W        W24018  38.689  39.417   3.590
57236W        W24019   9.954  11.124  14.301
57237W        W24020  14.878  38.839  12.004
57238W        W24021  39.020  33.843  12.717
57239W        W24022   5.766  24.267  10.760
57240W        W24023   4.882   0.911   3.132
57241W        W24024   0.804   1.449  10.872
57242W        W24025  33.357  32.630   1.804
57243W        W24026  30.957   3.370  12.467
57244W        W24027  42.758   5.445  13.549
57245W        W24028  10.650  35.882   0.323
57246W        W24029  31.650  34.463   4.572
57247W        W24030   3.421  42.396   4.326
57248W        W24031   9.045  27.019  10.685
57249W        W24032  40.038  43.008  14.337
57250W        W24033  43.317  39.434  14.793
57251W        W24034   3.190  11.978   1.479
57252W        W24035  42.538  43.315  14.031
57253W        W24036  16.221  44.242   4.974
57254W        W24037  34.920  31.439   1.273
57255W        W24038  11.178  10.348  14.609
57256W        W24039  36.392   1.009  12.471
57257W        W24040  17.530  21.214   4.498
57258W        W24041  19.762  12.581   0.722
57259W        W24042   3.306   5.232   0.007
57260W        W24043   0.477  20.739  12.499
57261W        W24044  33.583  10.238  14.005
57262W        W24045  24.997  41.039   2.627
57263W        W24046  11.723   5.985  12.945
57264W        W24047  30.356  14.169   3.219
57265W        W24048  17.019  27.531  13.378
57266W        W24049  37.536  26.639   1.377
57267W        W24050  30.637  28.060  12.462
57268W        W24051  14.451  17.130  12.351
57269W        W24052  28.479  25.086   1.835
57270W        W24053  35.487  12.111   3.224
57271W        W24054  37.138  17.660  13.893
57272W        W24055   3.956  10.172  13.654
57273W        W24056  15.680  18.213  14.553
57274W        W24057   7.983   4.907  14.267
57275W        W24058  33.604  37.489  10.650
57276W        W24059  44.047  12.795   0.062
57277W        W24060  34.112  39.546  12.053
57278W        W24061  29.126   9.785   2.643
57279W        W24062  44.498  17.305   4.128
57280W        W24063  32.577   6.122  12.010
57281W        W24064  31.673  30.436   3.890
57282W        W24065  35.008   9.365   4.625
57283W        W24066  21.283  41.585  14.844
57284W        W24067  31.807   6.701   9.844
57285W        W24068  23.108  17.959   0.223
57286W        W24069  41.857   5.447  11.366
57287W        W24070   7.395  32.531   0.907
57288W        W24071  40.374  26.517  14.420
57289W        W24072   5.863  35.496  10.878
57290W        W24073  17.235   0.469   2.221
57291W        W24074  42.253  22.719   2.366
57292W        W24075  33.428   5.373  13.534
57293W        W24076  12.058  13.558  11.978
57294W        W24077   1.254  26.161   0.979
57295W        W24078  36.801  44.174   1.440
57296W        W24079  19.174   1.498  10.467
57297W        W24080  12.154  37.551   3.351
57298W        W24081  26.554  43.440   4.548
57299W        W24082   9.854  36.570   4.125
57300W        W24083  29.159  39.065  12.191
57301W        W24084   3.964  28.453  14.930
57302W        W24085  35.432  13.188  10.917
57303W        W24086  39.031  40.404  10.166
57304W        W24087  44.803  34.048  12.491
57305W        W24088   8.232  27.465  13.536
57306W        W24089  27.678  18.040  14.123
57307W        W24090   0.874  13.360  13.153
57308W        W24091  43.569  32.077  10.596
57309W        W24092   3.059  23.807   2.732
57310W        W24093  12.173  26.731  14.419
57311W        W24094  26.254  33.854  14.936
57312W        W24095  30.665   6.729  13.082
57313W        W24096   0.543  39.566  11.006
57314W        W24097  17.027   2.261  14.933
57315W        W24098   0.504  37.636  11.864
57316W        W24099  27.394  19.484   1.309
57317W        W24100  35.111  40.987  13.329
57318W        W24101  20.486  27.588   0.434
57319W        W24102  28.137   2.503  14.827
57320W        W24103  34.676  23.973  14.854
57321W        W24104  18.667  25.977  11.271
57322W        W24105   3.205   2.922   3.195
57323W        W24106  13.934  16.749   0.304
57324W        W24107   8.250  20.155   3.346
57325W        W24108  23.284  21.550   2.737
57326W        W24109  26.123  43.009  13.972
57327W        W24110  33.052  31.970   2.265
57328W        W24111  15.828  21.012  13.462
57329W        W24112   3.231   1.933   3.708
57330W        W24113  32.472  18.698  10.470
57331W        W24114  38.549   8.386  14.950
57332W        W24115  34.848  42.840   1.733
57333W        W24116  26.898   4.962   0.773
57334W        W24117  42.483   1.750  10.445
57335W        W24118  12.697  23.609  13.516
57336W        W24119  34.075  16.604  14.469
57337W        W24120  33.138   8.797  11.886
57338W        W24121  23.052  15.261  14.077
57339W        W24122  11.761  29.488  14.131
57340W        W24123  24.469  22.329   3.713
57341W        W24124  15.368   6.344  11.332
57342W        W24125   6.733  41.439   2.739
57343W        W24126   1.181   4.875   2.318
57344W        W24127  21.754  10.080   3.767
57345W        W24128  17.899  12.232   4.969
57346W        W24129  37.493  16.051  14.421
57347W        W24130  44.760  43.435   1.932
57348W        W24131  18.223  35.095   0.004
57349W        W24132  14.174  21.757   4.467
57350W        W24133  22.799  29.111  12.424
57351W        W24134  26.598   9.832  11.678
57352W        W24135  38.858  21.993  14.403
57353W        W24136  25.751  26.049   0.427
57354W        W24137  31.317  21.014  14.016
57355W        W24138  43.904  26.542   1.503
57356W        W24139  42.360   9.870  14.089
57357W        W24140   5.921  14.283  11.094
57358W        W24141  27.366  25.974  12.481
57359W        W24142  14.706  24.993   3.670
57360W        W24143  30.966  42.867   4.197
57361W        W24144   6.287   0.012  10.981
57362W        W24145  35.919  33.839   2.435
57363W        W24146  26.951   6.932  14.050
57364W        W24147  16.673  20.240  10.530
57365W        W24148  25.019  34.875   0.823
57366W        W24149  13.904  35.997   2.359
57367W        W24150  29.020  15.981  13.019
57368W        W24151  21.426  32.508   4.719
57369W        W24152  34.870  36.254   1.741
57370W        W24153  23.504  35.589   1.812
57371W        W24154  39.990   4.874  12.813
57372W        W24155  34.096  30.000   3.975
57373W        W24156  14.132  32.074  14.988
57374W        W24157  22.494   0.121  14.965
57375W        W24158  27.461  20.174  11.955
57376W        W24159  35.528   5.425  10.781
57377W        W24160  44.263  24.040   0.387
57378W        W24161  42.379  11.458   4.618
57379W        W24162  33.369   7.535  13.036
57380W        W24163  25.520  17.182   0.459
57381W        W24164  22.322   7.834   4.646
57382W        W24165  24.741   5.819   1.699
57383W        W24166  32.144   7.268  11.658
57384W        W24167  17.773  18.756  12.415
57385W        W24168  12.177  36.668  12.492
57386W        W24169  15.744  41.040   5.040
57387W        W24170  20.863  10.814  14.752
57388W        W24171  22.272  43.529   4.067
57389W        W24172  43.855  33.435  10.582
57390W        W24173  10.763   9.679   1.300
57391W        W24174   9.689  40.503   1.228
57392W        W24175  10.697  22.007   1.945
57393W        W24176   1.166  33.186   3.849
57394W        W24177   0.853  34.145   1.905
57395W        W24178  39.414  17.205  11.604
57396W        W24179  40.280  39.923  13.475
57397W        W24180  41.931  26.594   4.132
57398W        W24181  10.068   2.583   0.915
57399W        W24182  27.095   1.262  10.747
57400W        W24183  30.820  32.556  13.000
57401W        W24184  42.383  25.709   1.660
57402W        W24185  37.395  24.833   9.953
57403W        W24186  38.769   1.969  11.160
57404W        W24187  10.226   2.160   0.345
57405W        W24188  41.239   1.602  13.818
57406W        W24189  31.861  39.132   1.686
57407W        W24190   8.517  20.056  13.467
57408W        W24191   1.401   9.604   2.471
57409W        W24192  40.246  25.256  13.902
57410W        W24193  19.952   0.189   2.749
57411W        W24194  36.995   4.791   1.141
57412W        W24195   8.658  42.945  14.235
57413W        W24196   8.025  28.990  13.464
57414W        W24197   8.172  15.257  10.644
57415W        W24198  30.967  41.980   4.183
57416W        W24199  41.110   0.608  11.169
57417W        W24200  39.227  44.444   2.295
57418W        W24201  39.662  19.561   3.538
57419W        W24202  34.975   1.913   2.820
57420W        W24203   0.309   0.398  12.570
57421W        W24204  13.118  12.744  11.578
57422W        W24205  29.256  11.594   1.211
57423W        W24206  35.445  19.314   1.887
57424W        W24207   5.440   7.367   0.030
57425W        W24208  33.496  23.101   0.354
57426W        W24209  25.170   6.647   2.185
57427W        W24210  40.457  27.132  10.816
57428W        W24211  18.217  44.222   1.235
57429W        W24212  28.013  29.401   4.479
57430W        W24213   6.884  33.955  13.470
57431W        W24214   7.203  14.184   2.576
57432W        W24215   9.297  19.996  12.430
57433W        W24216  17.974   9.210  11.669
57434W        W24217  39.794  27.622  13.576
57435W        W24218  40.232  43.855   4.647
57436W        W24219  15.083  40.307   2.285
57437W        W24220   0.602  34.847   0.365
57438W        W24221  14.588  41.254   3.288
57439W        W24222  10.121  26.030  14.975
57440W        W24223   5.745  25.172   4.792
57441W        W24224  21.020  11.719   1.677
57442W        W24225  26.128  23.090  10.398
57443W        W24226  30.628  22.221  12.489
57444W        W24227  26.507   9.954  14.548
57445W        W24228  29.435  20.588   4.101
57446W        W24229  17.213  25.141  14.845
57447W        W24230   9.089  41.866   1.726
57448W        W24231  40.832  24.731  13.059
57449W        W24232  21.357  17.515  12.210
57450W        W24233   9.632  20.277   4.628
57451W        W24234  26.489  13.962   4.573
57452W        W24235  31.862   9.338   1.487
57453W        W24236  27.109  36.545   2.134
57454W        W24237  14.086  18.251  11.410
57455W        W24238  15.207  21.195  11.912
57456W        W24239  11.127  44.137  13.918
57457W        W24240  12.100  43.405  12.549
57458W        W24241  19.793  11.038  12.678
57459W        W24242  24.496   7.763   1.960
57460W        W24243   6.907  36.934   4.450
57461W        W24244   4.368   5.423  12.904
57462W        W24245  36.950  23.219   2.041
57463W        W24246  34.184  42.705  12.918
57464W        W24247  12.850  16.806  10.864
57465W        W24248  15.844  40.840  13.565
57466W        W24249  35.346  27.856   4.184
57467W        W24250  35.072  26.613  10.718
57468W        W24251   4.917  17.195   2.832
57469W        W24252  33.060   3.515   3.309
57470W        W24253  20.305  38.781  10.914
57471W        W24254  13.119   2.244  10.671
57472W        W24255  26.735  16.879  13.326
57473W        W24256  36.479  23.182   0.483
57474W        W24257  16.356  26.598  10.152
57475W        W24258  43.268  36.771   3.144
57476W        W24259  20.078  10.227   3.867
57477W        W24260  24.646  32.534   2.706
57478W        W24261  38.896  43.989  12.367
57479W        W24262  24.717  12.797  13.909
57480W        W24263  23.082   7.325   3.606
57481W        W24264   5.298   7.949  11.439
57482W        W24265  27.034  26.708   3.671
57483W        W24266  28.017  34.002  11.058
57484W        W24267   2.814  19.541  12.059
57485W        W24268  43.312  24.047  10.771
57486W        W24269  17.724   6.671  11.147
57487W        W24270  21.218  20.413   4.124
57488W        W24271   7.711  17.200  14.771
57489W        W24272  38.572  42.884  14.321
57490W        W24273  35.633   6.676   1.336
57491W        W24274  35.968  18.206  11.273
57492W        W24275  41.596  16.673   3.367
57493W        W24276   1.180  28.643  14.363
57494W        W24277  31.983  32.756   3.430
57495W        W24278  40.584  36.800   2.603
57496W        W24279  27.484   6.128   1.836
57497W        W24280  24.754  14.696  10.917
57498W        W24281  16.037  22.597  11.690
57499W        W24282  31.126   7.348  11.614
57500W        W24283  27.887   6.254  10.728
57501W        W24284  21.684  12.353   3.587
57502W        W24285  26.239  19.172   1.234
57503W        W24286  41.051  24.464  14.936
57504W        W24287  25.615  33.445   0.413
57505W        W24288  10.792  24.691   4.729
57506W        W24289  17.139   6.316  13.465
57507W        W24290  14.536   1.744  10.705
57508W        W24291   7.019   4.429   0.457
57509W        W24292  44.781  12.331  12.959
57510W        W24293  35.927  37.403  12.934
57511W        W24294  14.583   4.237   0.836
57512W        W24295  17.045  25.627  14.959
57513W        W24296   1.071  25.325   4.858
57514W        W24297   5.521  39.141  13.227
57515W        W24298   7.685  27.215  14.065
57516W        W24299   8.701  24.081   1.629
57517W        W24300  18.645  43.177   1.327
57518W        W24301  18.352  30.988  13.310
57519W        W24302  19.161  37.084  11.264
57520W        W24303  36.093   4.985  12.127
57521W        W24304   3.227  26.467   3.854
57522W        W24305   2.462  12.305   2.117
57523W        W24306   7.876  32.161  13.085
57524W        W24307  11.995  38.962  10.904
57525W        W24308  16.991  18.280  10.240
57526W        W24309  18.286  11.004   3.689
57527W        W24310  40.558  23.995  10.589
57528W        W24311   7.440   1.269   1.451
57529W        W24312  38.875  11.619  14.985
57530W        W24313  41.050  32.906   2.686
57531W        W24314  26.814   3.803   3.034
57532W        W24315  44.658   4.458  10.759
57533W        W24316  38.480  26.492  14.322
57534W        W24317   2.193  29.872  12.968
57535W        W24318  33.940  12.066   0.363
57536W        W24319  15.551  16.656   0.787
57537W        W24320  22.302  30.044   2.668
57538W        W24321   2.770   6.205   4.604
57539W        W24322  13.344  10.549  14.070
57540W        W24323   6.590  23.751   3.180
57541W        W24324  39.428  39.030   4.689
57542W        W24325  24.153  11.331   3.373
57543W        W24326   2.747  41.406   4.202
57544W        W24327  38.804  20.570   2.170
57545W        W24328  21.789  18.490  13.798
57546W        W24329  25.114  13.315  11.552
57547W        W24330  21.740  31.086   2.214
57548W        W24331   2.455  29.875  14.340
57549W        W24332  38.643  25.868  11.110
57550W        W24333  40.264  27.020  11.703
57551W        W24334  25.115  27.894   5.216
57552W        W24335   3.262  20.599   2.791
57553W        W24336  36.529  20.118   5.170
57554W        W24337  37.286  44.294   3.668
57555W        W24338   7.750   4.443  10.793
57556W        W24339  28.946  44.160  11.907
57557W        W24340   7.728   5.019   4.444
57558W        W24341  32.235  44.334  11.308
57559W        W24342  42.299  35.543   3.281
57560W        W24343  32.997   6.532  10.993
57561W        W24344  40.531  17.523   4.256
57562W        W24345  34.655  28.028  12.490
57563W        W24346   6.615  31.423   2.284
57564W        W24347  35.195   8.323   2.550
57565W        W24348  36.979   7.086   0.930
57566W        W24349  12.473   9.608   3.494
57567W        W24350  15.390   5.576  12.400
57568W        W24351  10.748  15.678  14.409
57569W        W24352  16.345  29.939   3.074
57570W        W24353  24.354  21.105   9.969
57571W        W24354  20.829  12.732   3.165
57572W        W24355   0.792  38.808  11.208
57573W        W24356  43.245  43.466   1.708
57574W        W24357  20.465  16.331   3.489
57575W        W24358   5.595  14.145  12.880
57576W        W24359   3.217   4.359  13.070
57577W        W24360  28.632  21.627  11.657
57578W        W24361  27.867   3.042   1.069
57579W        W24362   1.414  23.101   4.139
57580W        W24363  12.467  34.025  12.504
57581W        W24364  14.712   5.379   0.012
57582W        W24365  34.393  13.829   4.048
57583W        W24366  24.928  36.073   0.337
57584W        W24367  35.479  41.102  12.583
57585W        W24368  12.320  11.688   4.996
57586W        W24369   2.600  16.201   1.927
57587W        W24370  30.125  13.270   0.459
57588W        W24371  17.237  41.922  11.971
57589W        W24372  29.085   2.316  11.101
57590W        W24373  43.696  38.624   4.434
57591W        W24374  39.906   8.793   1.945
57592W        W24375  44.269  20.158   1.337
57593W        W24376  37.127  26.512  10.672
57594W        W24377  24.066  30.548   3.202
57595W        W24378  31.795   0.699  14.351
57596W        W24379  14.574  14.457  10.994
57597W        W24380   0.787   5.660   2.461
57598W        W24381   0.177  13.658   3.137
57599W        W24382  34.791  31.086  11.486
57600W        W24383   1.228  17.081   3.673
57601W        W24384  40.500   7.139  13.469
57602W        W24385  16.588  25.799   3.292
57603W        W24386  36.482  12.076  12.419
57604W        W24387   6.669  35.899  14.375
57605W        W24388   5.415  27.582  14.979
57606W        W24389  29.656  16.077   2.265
57607W        W24390  29.977  34.871   4.579
57608W        W24391   3.156   3.978  11.990
57609W        W24392  27.143   7.273   2.403
57610W        W24393  23.415  34.681  11.139
57611W        W24394   7.002  20.580  12.785
57612W        W24395  10.695  43.208   4.553
57613W        W24396   8.355  41.255  14.333
57614W        W24397   7.649   1.656  10.833
57615W        W24398  28.869   7.833  14.640
57616W        W24399  29.100   8.632  10.527
57617W        W24400   0.804  38.907  12.115
57618W        W24401   6.838  15.707  11.005
57619W        W24402  36.002  32.634   0.937
57620W        W24403  30.669  19.092   3.794
57621W        W24404  11.857  14.880  11.043
57622W        W24405  32.543  39.765   1.395
57623W        W24406  15.637  28.853   1.280
57624W        W24407  35.404  14.207   4.597
57625W        W24408  11.644   9.255  13.905
57626W        W24409   9.728  31.473  13.571
57627W        W24410  13.734  27.590   1.193
57628W        W24411   7.381  17.219  12.459
57629W        W24412  42.432  28.643  13.060
57630W        W24413  33.527  44.543  13.795
57631W        W24414  22.159   7.499  10.686
57632W        W24415  23.252  40.355   5.128
57633W        W24416  27.454  15.894   0.833
57634W        W24417  34.061  17.425  10.623
57635W        W24418   6.335  10.228   0.756
57636W        W24419  22.474   8.161  14.292
57637W        W24420  20.250  37.309   2.793
57638W        W24421  31.620  38.587  12.757
57639W        W24422  29.431  41.025  10.626
57640W        W24423  40.797  10.271  14.916
57641W        W24424  16.152  37.845   2.783
57642W        W24425   2.838  34.671  11.539
57643W        W24426  43.402  31.599  14.286
57644W        W24427   2.228   6.110   0.901
57645W        W24428  34.567  13.619  13.482
57646W        W24429  29.393   2.988  12.080
57647W        W24430  38.336  33.812  10.535
57648W        W24431  19.497  29.034  12.939
57649W        W24432  35.567  18.037  10.975
57650W        W24433  15.807  19.609  13.487
57651W        W24434  35.506  21.617   0.826
57652W        W24435  39.251  12.838   2.778
57653W        W24436  43.581  16.811   3.279
57654W        W24437   8.411   4.372   2.813
57655W        W24438  32.016   6.281   3.370
57656W        W24439   0.938  42.006  10.538
57657W        W24440  31.413   1.064  14.522
57658W        W24441  43.783  39.435  11.513
57659W        W24442  33.389  16.973   2.382
57660W        W24443  19.138   9.217  12.220
57661W        W24444   8.858  44.090  12.843
57662W        W24445  15.394  24.492   2.467
57663W        W24446   5.388  44.820   1.225
57664W        W24447  44.257  15.061  14.972
57665W        W24448   5.244  33.472  12.289
57666W        W24449  24.754  20.247  13.485
57667W        W24450  35.149  21.763  11.153
57668W        W24451  34.553   8.552  13.080
57669W        W24452  31.487  27.693   3.318
57670W        W24453  22.978  17.344  13.968
57671W        W24454   9.978  31.920   4.426
57672W        W24455  32.584  26.609   2.873
57673W        W24456  44.345  21.029  11.627
57674W        W24457  33.191   8.894  14.814
57675W        W24458  40.018  42.452  10.614
57676W        W24459  39.319  40.948  14.468
57677W        W24460  27.984  36.283  11.512
57678W        W24461  17.297  28.667  14.364
57679W        W24462  40.942  31.352   1.716
57680W        W24463  35.585  16.555  10.773
57681W        W24464  25.222  12.606   1.089
57682W        W24465   1.649   0.977   3.240
57683W        W24466  35.234   4.026   5.079
57684W        W24467  39.386  43.248  10.271
57685W        W24468   6.882  26.649   0.735
57686W        W24469  30.408  39.511   4.566
57687W        W24470   7.676  14.599   1.744
57688W        W24471  44.079  36.584   2.618
57689W        W24472  39.868  10.668  14.879
57690W        W24473   5.647  26.659   4.684
57691W        W24474  18.258  13.888   1.497
57692W        W24475   7.162  38.312   4.427
57693W        W24476   9.740  25.112  12.649
57694W        W24477  11.112  12.741   4.569
57695W        W24478  38.333  15.784   0.950
57696W        W24479  25.881  32.476   1.298
57697W        W24480  13.687  30.047   2.657
57698W        W24481  43.253  18.287   4.412
57699W        W24482  26.486   7.881  13.435
57700W        W24483  17.171  32.630   1.315
57701W        W24484  41.451   9.747   2.930
57702W        W24485   5.899  29.464   0.255
57703W        W24486  42.758   2.186  10.661
57704W        W24487  19.357  34.549   2.635
57705W        W24488   8.237  42.934  13.400
57706W        W24489   3.541  13.279   1.182
57707W        W24490  31.059   0.070   1.829
57708W        W24491  10.277   2.801   2.926
57709W        W24492   3.394  15.535   3.232
57710W        W24493  26.406  30.578   1.443
57711W        W24494   4.275  27.067  10.641
57712W        W24495  28.405  21.500   3.377
57713W        W24496  26.055  19.316   3.181
57714W        W24497   7.798  19.142  12.497
57715W        W24498  21.794  17.660  11.518
57716W        W24499  36.107   5.413  13.077
57717W        W24500  43.919  35.428   0.404
57718W        W24501  10.708  36.570  11.765
57719W        W24502  13.744   9.478   0.458
57720W        W24503  30.346   7.940   0.870
57721W        W24504  27.090  37.333   1.860
57722W        W24505  19.608  20.802  13.042
57723W        W24506   0.411  19.613  12.811
57724W        W24507  20.275  15.674   2.234
57725W        W24508   1.878   9.986  14.855
57726W        W24509  26.156  11.966  12.439
57727W        W24510  18.715  35.364   2.642
57728W        W24511  10.175  39.861   0.510
57729W        W24512   7.312  16.580  14.888
57730W        W24513  14.803   6.205   3.892
57731W        W24514   3.871   1.241   1.769
57732W        W24515  12.766   1.657  12.518
57733W        W24516  40.603  18.587  12.875
57734W        W24517  16.987  10.766  13.062
57735W        W24518   3.000  18.250  11.242
57736W        W24519  37.304  40.256  11.062
57737W        W24520   7.872   1.816  14.476
57738W        W24521  37.945  10.776   3.599
57739W        W24522   0.353  28.311  13.071
57740W        W24523  41.396   4.215   1.207
57741W        W24524  35.937  35.571   2.686
57742W        W24525  38.953   5.836   2.399
57743W        W24526  13.705  11.251   0.054
57744W        W24527   5.858  25.121   3.609
57745W        W24528  10.093  31.660   1.232
57746W        W24529  13.642  42.611  14.967
57747W        W24530  20.986  17.610   3.668
57748W        W24531  13.831  23.969   4.095
57749W        W24532  40.831  21.929  12.114
57750W        W24533  21.107   8.629  14.748
57751W        W24534   5.655  39.427   0.322
57752W        W24535  44.830  26.934   4.190
57753W        W24536  15.856  12.889   3.720
57754W        W24537   1.362  20.985  14.469
57755W        W24538   2.746  26.047   1.137
57756W        W24539  19.751  37.835  10.578
57757W        W24540   3.391  15.880   3.660
57758W        W24541   2.649  17.949   1.240
57759W        W24542   7.630  43.669   2.266
57760W        W24543  16.300  43.922   0.353
57761W        W24544  12.770  42.822   4.648
57762W        W24545  34.249  35.096   2.439
57763W        W24546  16.205   1.779  13.725
57764W        W24547  43.476   5.413  10.653
57765W        W24548   7.479   9.820   2.883
57766W        W24549  29.456   8.039   2.826
57767W        W24550  37.226  13.312  14.404
57768W        W24551  33.942   8.821  12.348
57769W        W24552   2.461  36.256   0.788
57770W        W24553  23.006  26.883  12.060
57771W        W24554  29.596  12.872  13.384
57772W        W24555  35.523  29.483   3.323
57773W        W24556   5.323  40.278  11.127
57774W        W24557  20.459   0.925   5.653
57775W        W24558   9.980  26.743  13.324
57776W        W24559  22.660  34.907   1.409
57777W        W24560   5.367   5.742  10.622
57778W        W24561   6.765  43.382  13.282
57779W        W24562  20.169  30.856  12.439
57780W        W24563  35.624  22.601  11.646
57781W        W24564  14.470  22.604   4.477
57782W        W24565   5.430  43.020  13.683
57783W        W24566  43.487  39.012  11.607
57784W        W24567  43.930   8.554  10.556
57785W        W24568  20.603  40.467   3.607
57786W        W24569  20.614   2.388  14.332
57787W        W24570  41.223   8.740   2.366
57788W        W24571   7.772  11.312  11.696
57789W        W24572  26.891  22.721   2.812
57790W        W24573  39.347  18.985   0.166
57791W        W24574   9.859  20.612  12.784
57792W        W24575  12.287  40.425   0.951
57793W        W24576   8.877  12.585   3.294
57794W        W24577  36.544   5.954  10.802
57795W        W24578  19.318   8.122   4.088
57796W        W24579   5.660  39.964  14.060
57797W        W24580   0.338  43.346  12.833
57798W        W24581  44.992   8.332  13.911
57799W        W24582   0.046  24.622  13.979
57800W        W24583  16.658  27.650   0.029
57801W        W24584  25.905  15.688  10.550
57802W        W24585  22.062  27.026   1.787
57803W        W24586  42.670  30.916  13.396
57804W        W24587  23.085  28.478  13.405
57805W        W24588  32.058  29.267   0.801
57806W        W24589  12.265   9.980   1.441
57807W        W24590  27.875  17.103  10.663
57808W        W24591   9.869  31.446  12.540
57809W        W24592   9.497  34.126   0.362
57810W        W24593   5.151  31.588  11.757
57811W        W24594  37.967  40.540   3.402
57812W        W24595   4.456   6.295   0.900
57813W        W24596  36.323   4.401  11.326
57814W        W24597   1.743  37.769   0.494
57815W        W24598  31.912  27.295   0.935
57816W        W24599  36.966  20.626  13.357
57817W        W24600  26.114  42.701   0.380
57818W        W24601  42.530   4.830  14.870
57819W        W24602  14.155  21.334  11.103
57820W        W24603  42.524  31.130  11.647
57821W        W24604  39.327   9.207  11.171
57822W        W24605  15.643  30.201  11.134
57823W        W24606  13.308  31.473  12.523
57824W        W24607  27.322  13.145  12.021
57825W        W24608   4.362  13.929   2.881
57826W        W24609  42.900  16.583   1.378
57827W        W24610   7.834  40.641   1.753
57828W        W24611  14.073  16.596   0.811
57829W        W24612  13.644  32.268  11.530
57830W        W24613  34.155  23.235  10.678
57831W        W24614  17.729  42.402   4.759
57832W        W24615   8.726   3.812   1.170
57833W        W24616  34.688  28.569  12.442
57834W        W24617  30.503  29.680   0.858
57835W        W24618  17.150  14.310   0.972
57836W        W24619  21.975   7.132  11.036
57837W        W24620  36.360   0.419  10.674
57838W        W24621   7.446  13.971   2.997
57839W        W24622  31.534  38.251   2.799
57840W        W24623   2.303  38.438  10.700
57841W        W24624  30.735  35.338   2.794
57842W        W24625  40.049  16.199  11.170
57843W        W24626  44.438  13.670  14.814
57844W        W24627  32.397   9.730  11.728
57845W        W24628  39.818  40.411   2.253
57846W        W24629  13.190  15.177   2.378
57847W        W24630  21.223  35.445  14.871
57848W        W24631   6.708   2.913   3.689
57849W        W24632  11.769  36.050   4.788
57850W        W24633  15.920   1.063   5.166
57851W        W24634  27.912  18.693   3.678
57852W        W24635  14.771  18.906   4.352
57853W        W24636   6.341  14.301   5.152
57854W        W24637  43.957   9.963   1.483
57855W        W24638  23.952  14.101  12.942
57856W        W24639  18.473  30.959  10.701
57857W        W24640   8.427  29.505  13.360
57858W        W24641  43.560  15.554  11.685
57859W        W24642   1.524  28.200   0.698
57860W        W24643  29.599  41.484   5.461
57861W        W24644   1.833  20.285  10.803
57862W        W24645  28.893  24.738  11.112
57863W        W24646  32.001   2.551  12.276
57864W        W24647   5.149  21.736   4.603
57865W        W24648  33.672  38.839  11.669
57866W        W24649  34.831  26.741  11.164
57867W        W24650   8.751  12.861   0.291
57868W        W24651   5.738  28.589   3.796
57869W        W24652  39.293  30.137   4.681
57870W        W24653  25.249  33.486   3.079
57871W        W24654  19.502   1.422  11.603
57872W        W24655  27.608  20.010   3.900
57873W        W24656  42.996  27.875  13.443
57874W        W24657  20.261  25.901  12.017
57875W        W24658  39.929  19.553  12.367
57876W        W24659  20.127  37.570   0.791
57877W        W24660  18.764  15.112   2.781
57878W        W24661  36.107   0.332   1.020
57879W        W24662   6.729  21.456  10.401
57880W        W24663  44.321  36.922  14.905
57881W        W24664  42.905  28.169   4.681
57882W        W24665  44.502  22.785  10.928
57883W        W24666   5.800  27.005  12.992
57884W        W24667  22.134  31.668  12.628
57885W        W24668  32.262  37.080   2.768
57886W        W24669  32.195  12.368  12.526
57887W        W24670  12.436  40.486   4.606
57888W        W24671  31.032   6.147   3.261
57889W        W24672   1.191  26.474  11.684
57890W        W24673  43.830   7.248   2.844
57891W        W24674   6.702  35.088  13.016
57892W        W24675  38.485  29.263   3.212
57893W        W24676  39.100  42.888   4.576
57894W        W24677  33.449  22.964  14.838
57895W        W24678  34.501  40.931   2.279
57896W        W24679  38.380  12.642  14.271
57897W        W24680  36.110  26.853   1.431
57898W        W24681  34.951  34.082   4.628
57899W        W24682  23.167  13.505   2.907
57900W        W24683   8.774  18.382   1.891
57901W        W24684  29.185  35.469  11.853
57902W        W24685  34.551  19.332   4.975
57903W        W24686  43.939  19.555  12.929
57904W        W24687  28.082  11.252   0.001
57905W        W24688  15.858   0.790   3.678
57906W        W24689  38.160   9.182  13.138
57907W        W24690  43.059  20.786   1.486
57908W        W24691  33.056  12.758  14.266
57909W        W24692  17.356  13.245  14.223
57910W        W24693   9.040  40.892  11.989
57911W        W24694  27.275  10.621  12.223
57912W        W24695  35.145  15.066  12.427
57913W        W24696  39.253  36.523  14.082
57914W        W24697  37.292  24.564   2.211
57915W        W24698  12.259  44.933  11.464
57916W        W24699  25.291   1.031  12.569
57917W        W24700   6.559  14.800  13.273
57918W        W24701  20.270  14.716  12.489
57919W        W24702   8.533   1.914  10.790
57920W        W24703  10.297  38.459  12.723
57921W        W24704  35.151  20.582   3.877
57922W        W24705  29.520  10.219  11.092
57923W        W24706   7.801  33.300  14.194
57924W        W24707  20.243  25.949  11.081
57925W        W24708  25.733  18.665  14.097
57926W        W24709  22.136  16.955  13.007
57927W        W24710  31.043  36.290   4.739
57928W        W24711  12.966  19.602  13.077
57929W        W24712  19.306  18.128  11.753
57930W        W24713  36.104  31.885  10.765
57931W        W24714  20.659  11.754   0.358
57932W        W24715  13.009  20.507  13.364
57933W        W24716  25.163  41.697  10.213
57934W        W24717   3.022  30.336   0.615
57935W        W24718  26.458  36.482  10.550
57936W        W24719  13.905  37.119   0.171
57937W        W24720  23.508  15.121  14.506
57938W        W24721   6.941  11.883  10.725
57939W        W24722  35.087   2.273   0.017
57940W        W24723  31.604   3.439   2.686
57941W        W24724   2.469  43.435  12.074
57942W        W24725   3.826  31.975  11.518
57943W        W24726  25.858  24.227  11.557
57944W        W24727   7.665  27.721  13.223
57945W        W24728   0.558  20.740  14.451
57946W        W24729  33.098  33.362   1.229
57947W        W24730  14.616   4.446  12.468
57948W        W24731  42.758   6.001   4.579
57949W        W24732  23.190  30.710  11.246
57950W        W24733  42.388  43.878  10.719
57951W        W24734  38.817  34.576  11.586
57952W        W24735  22.675  14.557  10.563
57953W        W24736  43.663  10.740  13.602
57954W        W24737  28.535   3.520   0.996
57955W        W24738  12.070   6.364  12.786
57956W        W24739  19.260  20.705  13.510
57957W        W24740   4.194   9.370   4.008
57958W        W24741  22.834   5.170  12.139
57959W        W24742  15.139  36.361  11.869
57960W        W24743  32.556   1.812   0.788
57961W        W24744  10.093   3.313   0.289
57962W        W24745  10.073  22.834   0.391
57963W        W24746  21.808  16.586   2.784
57964W        W24747   7.320  27.490   3.260
57965W        W24748   5.297  23.578   3.687
57966W        W24749  29.899  11.167  10.783
57967W        W24750   1.433  18.052  14.902
57968W        W24751  14.891  43.368   2.261
57969W        W24752  44.232  37.558  12.091
57970W        W24753   7.174  22.800   1.724
57971W        W24754  34.963  43.808  12.779
57972W        W24755  23.660  12.754  10.578
57973W        W24756  39.766   3.242   3.626
57974W        W24757  38.596  20.324  13.302
57975W        W24758  20.517  20.024  13.983
57976W        W24759   1.786  24.964  12.062
57977W        W24760  20.267  34.971  11.934
57978W        W24761  10.730  24.422   1.302
57979W        W24762  32.629  12.587  12.755
57980W        W24763  44.140  35.484  14.896
57981W        W24764  38.902  15.856  14.214
57982W        W24765  25.263  29.655   9.883
57983W        W24766  44.627  15.587   3.715
57984W        W24767  16.131  13.859   3.870
57985W        W24768   6.610  42.931   1.941
57986W        W24769  35.333  16.687   1.419
57987W        W24770   0.163  28.114  14.910
57988W        W24771  27.147  25.157  13.556
57989W        W24772  14.502  11.938  13.864
57990W        W24773  25.513  16.054   2.304
57991W        W24774  34.529  30.890  11.087
57992W        W24775  29.197  16.672  12.179
57993W        W24776   2.406  36.523  12.744
57994W        W24777  17.549   1.952  14.859
57995W        W24778  23.910  34.494  14.869
57996W        W24779  33.643  27.558  13.047
57997W        W24780  40.949  27.596  12.029
57998W        W24781   9.614  14.364  12.068
57999W        W24782  38.605  39.199  11.990
58000W        W24783  22.590   6.118  14.872
58001W        W24784  12.406  33.898   2.830
58002W        W24785  39.964  18.770  14.588
58003W        W24786  31.431  35.499   2.219
58004W        W24787  17.342  19.197   4.129
58005W        W24788   0.053  24.110  11.215
58006W        W24789  20.674  42.827  14.962
58007W        W24790   1.167  40.933   4.540
58008W        W24791  18.262  32.573  12.601
58009W        W24792  30.104  36.625  14.497
58010W        W24793  11.684   2.248  10.614
58011W        W24794  43.894   1.842  12.630
58012W        W24795   1.310  20.283   4.138
58013W        W24796  25.907   3.743   4.126
58014W        W24797  18.875  43.415   0.236
58015W        W24798  28.537   5.768  13.883
58016W        W24799  12.218  24.209  12.405
58017W        W24800  33.133   2.246  12.782
58018W        W24801  33.117   6.312   5.294
58019W        W24802   6.938  23.649   4.041
58020W        W24803  33.108   4.438   3.687
58021W        W24804   5.297  31.593  13.310
58022W        W24805  30.965   0.444  11.574
58023W        W24806  41.310   7.885  12.143
58024W        W24807  22.785  15.696  10.563
58025W        W24808  23.656   1.825  14.531
58026W        W24809  34.722   7.843   0.495
58027W        W24810  24.093  44.804  13.573
58028W        W24811   1.996  35.822  11.695
58029W        W24812  28.726  18.754   1.203
58030W        W24813   9.206   1.353   3.702
58031W        W24814  18.319  19.667  12.427
58032W        W24815  40.505  34.521  12.412
58033W        W24816  32.887   8.293   4.538
58034W        W24817   1.874   9.195   4.487
58035W        W24818  44.936  28.491  12.537
58036W        W24819  35.745  13.281   4.924
58037W        W24820   8.481  22.518   4.552
58038W        W24821  18.518  22.584  10.257
58039W        W24822   2.405  16.211  13.057
58040W        W24823   2.461  13.571  10.597
58041W        W24824  44.012  26.641   3.232
58042W        W24825  30.014  38.811   1.951
58043W        W24826  20.014  35.140  10.687
58044W        W24827   8.453  37.816   0.881
58045W        W24828  41.173  19.432  13.056
58046W        W24829  43.855  42.874   3.187
58047W        W24830  20.352  38.960   0.909
58048W        W24831  15.024  10.636   0.854
58049W        W24832  20.785  36.568   1.908
58050W        W24833  43.328   6.627   2.758
58051W        W24834  16.605  26.966   4.815
58052W        W24835  21.632   1.025   0.481
58053W        W24836  22.550  35.264  13.880
58054W        W24837  36.900  14.634   4.305
58055W        W24838  15.376   0.760   3.348
58056W        W24839  37.493   9.270  12.474
58057W        W24840  11.808  28.718   1.880
58058W        W24841  30.024  42.929  13.821
58059W        W24842  24.199  14.348  14.342
58060W        W24843  38.707   6.025   0.370
58061W        W24844   4.807  17.777   2.779
58062W        W24845  15.309   2.929  11.442
58063W        W24846  21.953  18.806  13.357
58064W        W24847  14.769  11.166   3.845
58065W        W24848   6.565  11.186   2.478
58066W        W24849   7.310  24.188   0.919
58067W        W24850  16.117  35.068  13.383
58068W        W24851  13.084  14.620  13.850
58069W        W24852   6.330  21.771   1.617
58070W        W24853   1.078   6.253   2.213
58071W        W24854  25.935  31.892   2.337
58072W        W24855  32.428  12.718   3.683
58073W        W24856  14.035  41.816   1.374
58074W        W24857  18.340  26.203  14.171
58075W        W24858  12.304  25.511   2.938
58076W        W24859  33.162  27.086  12.516
58077W        W24860  34.844   0.612  12.536
58078W        W24861   6.189  23.388   4.695
58079W        W24862  19.804  22.295   3.310
58080W        W24863   6.199   0.790   1.858
58081W        W24864  24.184  43.234  10.911
58082W        W24865  31.362  22.510   1.670
58083W        W24866  25.029   9.780   3.266
58084W        W24867  10.937  38.798   3.689
58085W        W24868  33.579  12.551  14.246
58086W        W24869  13.638  17.075   3.697
58087W        W24870   1.051  10.367  13.579
58088W        W24871   9.350  23.505  12.032
58089W        W24872  36.602  30.485  14.987
58090W        W24873  28.633  25.698  12.871
58091W        W24874  10.108  38.913   1.472
58092W        W24875  34.972  38.130  14.768
58093W        W24876  10.655  17.070   3.560
58094W        W24877  44.965  34.934  12.007
58095W        W24878  28.170  33.817   4.574
58096W        W24879  23.195   7.354  11.581
58097W        W24880  35.237  15.008   0.372
58098W        W24881  10.187  19.733   1.307
58099W        W24882  31.460  28.731   3.439
58100W        W24883  33.109  22.146  10.392
58101W        W24884  10.427  27.029   2.809
58102W        W24885  29.712  13.210  14.084
58103W        W24886  32.318  41.807  14.815
58104W        W24887  28.054   3.524   1.216
58105W        W24888  30.364   8.107  12.791
58106W        W24889  44.211  18.130   2.316
58107W        W24890  22.060   9.115  12.872
58108W        W24891  25.638  20.102   1.245
58109W        W24892  29.111  12.643  14.264
58110W        W24893  14.563  18.266   3.248
58111W        W24894   9.140  32.127   1.377
58112W        W24895  22.674  36.274  13.991
58113W        W24896  11.267  27.414   4.235
58114W        W24897  12.115  12.692  13.112
58115W        W24898   0.137  10.853  11.166
58116W        W24899  27.759  14.118   5.144
58117W        W24900  39.526   5.242  13.763
58118W        W24901  38.095  20.108   2.933
58119W        W24902  13.597   6.900  14.447
58120W        W24903  35.401  23.956   0.303
58121W        W24904  10.773   1.799  14.531
58122W        W24905  33.503  15.332   3.646
58123W        W24906  26.181  38.076  11.810
58124W        W24907  11.095  15.214   2.078
58125W        W24908   7.360  44.860  12.576
58126W        W24909   9.063  28.843   2.858
58127W        W24910  23.240  37.841   1.080
58128W        W24911  25.860  12.232   0.478
58129W        W24912  25.461   6.580  13.873
58130W        W24913  27.144  11.061   3.128
58131W        W24914   7.312   1.742  13.036
58132W        W24915  31.435   9.238  14.846
58133W        W24916  41.022  37.981   2.077
58134W        W24917  41.326  37.901  11.050
58135W        W24918  39.769  39.872  12.515
58136W        W24919   6.177   2.837  13.848
58137W        W24920  38.487   4.825   1.390
58138W        W24921   7.677   0.915  12.569
58139W        W24922   7.428  18.649   0.864
58140W        W24923   9.163  39.906  13.864
58141W        W24924   8.461  24.480  14.788
58142W        W24925  10.242  40.409  14.272
58143W        W24926  42.495  31.232   1.393
58144W        W24927   5.754  39.400  11.312
58145W        W24928   9.844  16.781  10.419
58146W        W24929  39.513  13.258  11.560
58147W        W24930  18.088  30.001  10.823
58148W        W24931  10.295  16.095   0.879
58149W        W24932  28.225  28.926   2.778
58150W        W24933  41.538  11.547  12.359
58151W        W24934  37.508   6.743  12.905
58152W        W24935  38.920   9.411  11.993
58153W        W24936  44.065   7.093  12.579
58154W        W24937  21.721  29.842   1.626
58155W        W24938  30.776  33.185   3.113
58156W        W24939  19.212  24.993   1.965
58157W        W24940  22.060   6.921   4.093
58158W        W24941  10.156   8.336   2.686
58159W        W24942   3.379  12.251  11.873
58160W        W24943  19.826   9.390  12.042
58161W        W24944  25.081  24.687  12.908
58162W        W24945  14.142  34.021  11.885
58163W        W24946  37.080  14.266   2.997
58164W        W24947   0.800  18.789   0.863
58165W        W24948  40.351   0.752   0.767
58166W        W24949  12.807  29.468  14.478
58167W        W24950   9.355  15.316   1.178
58168W        W24951  22.671  26.424   1.168
58169W        W24952   9.565  11.317   2.585
58170W        W24953  21.624  29.614  13.125
58171W        W24954   3.139  44.017   3.643
58172W        W24955  11.827  21.114   1.824
58173W        W24956   1.789  21.038   3.994
58174W        W24957  12.894   2.808   2.722
58175W        W24958  28.980  33.292  11.140
58176W        W24959  13.149  30.616  11.553
58177W        W24960  31.150   6.920   0.280
58178W        W24961  44.391  41.429  14.559
58179W        W24962   1.408   4.995  14.357
58180W        W24963  29.546  43.017  12.172
58181W        W24964   8.731   8.406   0.154
58182W        W24965   2.204  14.555  11.036
58183W        W24966  17.616  25.769   3.232
58184W        W24967  36.142   5.268   2.023
58185W        W24968  19.817  42.594  11.553
58186W        W24969   6.937  44.042   4.548
58187W        W24970  21.476  36.456   0.380
58188W        W24971   2.787   3.382  14.474
58189W        W24972  32.078  32.601  11.521
58190W        W24973  34.453  34.450   0.543
58191W        W24974  23.127   4.964   3.153
58192W        W24975  39.618  35.715   3.718
58193W        W24976  12.244   7.247   5.373
58194W        W24977   1.876  43.043   0.338
58195W        W24978  39.905  40.092   3.793
58196W        W24979  11.337  35.071   2.779
58197W        W24980  26.139   0.810  12.095
58198W        W24981  31.465  28.384   3.831
58199W        W24982  44.552  30.182  12.444
58200W        W24983   0.026  38.484  12.643
58201W        W24984  37.945  37.591  12.611
58202W        W24985  36.406  25.112  12.933
58203W        W24986   0.683  32.902   4.277
58204W        W24987  33.472   3.433  10.641
58205W        W24988  32.698   7.809  12.992
58206W        W24989   2.917  33.570   3.617
58207W        W24990  30.201   2.248   2.272
58208W        W24991  20.711  37.698   4.108
58209W        W24992   1.950  24.778   0.232
58210W        W24993  24.585  11.773  14.750
58211W        W24994  13.024  38.655   2.400
58212W        W24995  38.069  14.643   0.836
58213W        W24996  20.500  41.003   3.641
58214W        W24997  34.334   8.810   4.558
58215W        W24998  31.942  26.051   4.117
58216W        W24999  34.668  12.298   1.469
58217W        W25000  20.498  42.998  13.948
58218W        W25001   1.004  15.632   2.186
58219W        W25002   5.648  39.643  11.765
58220W        W25003  32.481  18.493   1.144
58221W        W25004   9.852  21.396   0.976
58222W        W25005  34.375  44.062  11.631
58223W        W25006  29.510  32.338   3.675
58224W        W25007  16.676   5.220  12.589
58225W        W25008  43.504   6.317   4.152
58226W        W25009  32.969  11.112   2.668
58227W        W25010  40.778  32.593   2.209
58228W        W25011  29.746  29.081  14.420
58229W        W25012  37.100  17.300  13.293
58230W        W25013  11.317   4.170   1.752
58231W        W25014  33.313  18.881  14.777
58232W        W25015  21.627   7.463   1.416
58233W        W25016  35.914  12.663   0.366
58234W        W25017  13.930  13.761  14.907
58235W        W25018   4.262   8.830   1.274
58236W        W25019  27.195  33.740  10.132
58237W        W25020   3.173   8.782  14.861
58238W        W25021  35.177  22.809   3.715
58239W        W25022   1.172   2.293   0.333
58240W        W25023  22.628  44.351   3.114
58241W        W25024   3.250   5.001  14.299
58242W        W25025  41.729  15.593   2.335
58243W        W25026  41.964  10.832   3.618
58244W        W25027  26.732   3.018  14.767
58245W        W25028  19.093   8.911   1.462
58246W        W25029  30.851  26.438  12.643
58247W        W25030  12.845  32.571  12.710
58248W        W25031  37.480  16.606  12.988
58249W        W25032  30.541  24.039   0.778
58250W        W25033  15.975  42.485   5.002
58251W        W25034  40.430   3.275  14.542
58252W        W25035  15.072   4.485   4.283
58253W        W25036  13.124   7.298   1.651
58254W        W25037   2.757  11.842  14.169
58255W        W25038  40.743  22.049   0.426
58256W        W25039   1.250  25.233   1.452
58257W        W25040  44.905  40.099   3.306
58258W        W25041  33.276  43.387   4.124
58259W        W25042  10.381  39.604   4.207
58260W        W25043  15.846  10.621   1.837
58261W        W25044   2.158   2.767  11.282
58262W        W25045   0.111  12.667  11.167
58263W        W25046  43.946  28.570   3.404
58264W        W25047  12.881  31.795   1.579
58265W        W25048  21.551  17.597   0.014
58266W        W25049  31.408  28.051   1.020
58267W        W25050  42.356   0.002  14.882
58268W        W25051   0.612  35.993  11.981
58269W        W25052   2.811  36.803  12.527
58270W        W25053  43.252  25.766   3.083
58271W        W25054  35.101  17.758   3.252
58272W        W25055  35.973  37.879  14.476
58273W        W25056  28.364  20.147  13.798
58274W        W25057  17.989  39.327   4.253
58275W        W25058  26.551   7.315  12.065
58276W        W25059  25.284  43.575  13.978
58277W        W25060  31.515  36.417   1.720
58278W        W25061  14.816  44.798  11.889
58279W        W25062  43.807  13.036   2.629
58280W        W25063  24.279  15.760   0.252
58281W        W25064  31.737  29.409   2.174
58282W        W25065  43.180  24.256  14.838
58283W        W25066  35.910  44.436  11.867
58284W        W25067  34.387  41.421  13.649
58285W        W25068  44.972  20.170   0.991
58286W        W25069   5.204  38.578   4.656
58287W        W25070   8.347  34.473  14.416
58288W        W25071   0.020  36.112   0.892
58289W        W25072  19.927  12.093  14.288
58290W        W25073   6.817  27.972  14.329
58291W        W25074  14.363  42.416   2.248
58292W        W25075   2.298  30.493  10.733
58293W        W25076   5.714   8.639   4.973
58294W        W25077   8.687  21.483   3.124
58295W        W25078  30.427  34.634   4.409
58296W        W25079  14.778  23.146  14.460
58297W        W25080  43.389  18.503  11.489
58298W        W25081   2.165  13.524  13.029
58299W        W25082  33.177  39.862  13.788
58300W        W25083   8.883  42.988   3.625
58301W        W25084   7.954  39.548  14.968
58302W        W25085  15.369  31.510  13.429
58303W        W25086  26.586  42.597   4.116
58304W        W25087  30.035  39.413   0.399
58305W        W25088  37.875  41.509   1.682
58306W        W25089  42.049  35.609  12.349
58307W        W25090   8.369   4.344   4.576
58308W        W25091  36.514  20.371  12.062
58309W        W25092  17.159  29.410  12.619
58310W        W25093  35.418  19.287   2.792
58311W        W25094  39.078   8.524   1.666
58312W        W25095  12.163  36.343   4.890
58313W        W25096  39.467   6.855  11.560
58314W        W25097  38.981  32.170  10.090
58315W        W25098  21.642  15.597   4.545
58316W        W25099  14.402   2.985   1.821
58317W        W25100  14.545   8.413   3.327
58318W        W25101   0.891  23.476  14.382
58319W        W25102  40.992   5.076  12.019
58320W        W25103  13.841  34.524  14.161
58321W        W25104  15.716  39.036  11.650
58322W        W25105   2.398  35.830   4.014
58323W        W25106  15.837  28.399   1.370
58324W        W25107  18.836  42.297  12.398
58325W        W25108  28.214   1.707  13.787
58326W        W25109  44.242  18.760   2.879
58327W        W25110  38.824  33.126   0.883
58328W        W25111  40.776  16.409   2.249
58329W        W25112  31.006  40.625  11.039
58330W        W25113   5.967  43.813  11.144
58331W        W25114  17.718  23.393   0.253
58332W        W25115   8.353  34.653  10.707
58333W        W25116   4.622  21.128  13.417
58334W        W25117  34.379  40.226  13.913
58335W        W25118  33.396   4.404   4.147
58336W        W25119  27.190  40.998   1.290
58337W        W25120   6.690  17.674   0.522
58338W        W25121  44.560  34.477   1.663
58339W        W25122  21.568  19.580   3.608
58340W        W25123   8.316  26.270   1.022
58341W        W25124  21.162  33.556   1.654
58342W        W25125  37.027  37.927   2.721
58343W        W25126  39.220   3.181   2.913
58344W        W25127   6.346  21.797  13.061
58345W        W25128  13.822  23.274  11.151
58346W        W25129  42.869  40.029  12.911
58347W        W25130  39.813  28.894   1.719
58348W        W25131  15.548  25.585   0.918
58349W        W25132  30.182  24.018  12.519
58350W        W25133  25.656  41.987   0.886
58351W        W25134  14.542  35.352   3.780
58352W        W25135  26.479   8.066   4.121
58353W        W25136  22.732  30.250   2.874
58354W        W25137  13.337  39.414   3.896
58355W        W25138  14.353  44.274   3.636
58356W        W25139  43.799  35.670   4.111
58357W        W25140   3.447   7.456   3.303
58358W        W25141  31.000  30.333   1.290
58359W        W25142  31.053  19.391  10.180
58360W        W25143  24.394  36.399   1.199
58361W        W25144  10.606   5.475  14.359
58362W        W25145  35.489  19.660   3.739
58363W        W25146   8.622  10.316  10.711
58364W        W25147  27.671  13.118  12.428
58365W        W25148   9.656  31.921   2.134
58366W        W25149  35.546  29.328  13.487
58367W        W25150  28.670  20.559   1.740
58368W        W25151  15.612  20.340   4.087
58369W        W25152  35.440   6.348   1.687
58370W        W25153  41.582  32.256  14.521
58371W        W25154   7.364   5.696  11.037
58372W        W25155   9.669   4.900  10.282
58373W        W25156  32.356   3.322   4.583
58374W        W25157   2.147  28.083  14.814
58375W        W25158  13.674  37.983  13.929
58376W        W25159  16.098   6.183  13.112
58377W        W25160  17.350  34.975  14.609
58378W        W25161  24.361  29.638  10.195
58379W        W25162  16.060   0.583  10.164
58380W        W25163  20.077  33.850  13.819
58381W        W25164   6.609  31.871   4.076
58382W        W25165  20.532  24.397   2.330
58383W        W25166  43.700  30.250   4.893
58384W        W25167  36.367  18.815   1.914
58385W        W25168  30.472  34.941   1.257
58386W        W25169  44.221  13.837  12.476
58387W        W25170  25.099  20.914   5.056
58388W        W25171  42.964  13.608  14.074
58389W        W25172  36.912  26.183   4.242
58390W        W25173  29.701  44.703   0.572
58391W        W25174  28.924  28.210  11.667
58392W        W25175   2.770  23.999   1.238
58393W        W25176  15.265   6.618   3.238
58394W        W25177  44.395  22.756  11.462
58395W        W25178   8.843  34.847  12.018
58396W        W25179  31.930  31.228  11.174
58397W        W25180  18.352  11.404   0.229
58398W        W25181  25.120  26.618  12.308
58399W        W25182  10.720  38.927  10.379
58400W        W25183  35.285  29.027  13.930
58401W        W25184  12.856  39.360  13.917
58402W        W25185  16.320  38.298  10.256
58403W        W25186  35.821   3.220   0.680
58404W        W25187  44.585   2.961  12.910
58405W        W25188  13.234  32.743   1.981
58406W        W25189  35.288  36.592   4.040
58407W        W25190  31.628   3.964   1.615
58408W        W25191  20.769  39.396   2.089
58409W        W25192  22.201  16.025   0.257
58410W        W25193  27.752   4.505   4.743
58411W        W25194  24.015   7.365   4.376
58412W        W25195  38.563   0.497  11.955
58413W        W25196  27.609  23.064  11.913
58414W        W25197   6.278   0.857  12.467
58415W        W25198  14.055  40.774  11.613
58416W        W25199   1.887  11.533   2.172
58417W        W25200  11.082  26.662   1.576
58418W        W25201  44.909   7.207  10.771
58419W        W25202  17.056  34.902   0.463
58420W        W25203   1.969  42.882  12.401
58421W        W25204  20.805  30.294   3.810
58422W        W25205  17.556  19.347   2.204
58423W        W25206  16.149   2.809   3.739
58424W        W25207  37.506   7.122  11.683
58425W        W25208  14.669  20.151   2.428
58426W        W25209   9.196   1.813   1.510
58427W        W25210  29.489  44.021  11.937
58428W        W25211  25.419  15.956   5.121
58429W        W25212   9.032   5.257   2.754
58430W        W25213  12.569   8.647   1.708
58431W        W25214  37.241   6.423   3.183
58432W        W25215  26.485  38.866   5.384
58433W        W25216  29.728   9.778   0.926
58434W        W25217  16.371  10.879   3.783
58435W        W25218  34.448   0.875  11.587
58436W        W25219  10.362   5.261  11.458
58437W        W25220  16.091   8.982  11.386
58438W        W25221  38.341  22.302   0.334
58439W        W25222  14.215   1.342  13.557
58440W        W25223  25.744  34.838   0.510
58441W        W25224  43.927   2.443   1.858
58442W        W25225  32.777  39.580  11.135
58443W        W25226  31.306  16.101  13.117
58444W        W25227   1.152   5.281   2.660
58445W        W25228  44.005   8.139  12.790
58446W        W25229   7.983  21.930  14.962
58447W        W25230  28.612  38.764   2.003
58448W        W25231  21.481  37.637  13.914
58449W        W25232   3.555  24.039  11.200
58450W        W25233  18.340   4.712  11.598
58451W        W25234   8.250   6.659   1.824
58452W        W25235  27.538   8.342  10.566
58453W        W25236  14.380   2.955  14.766
58454W        W25237  16.170  21.095  14.244
58455W        W25238   3.241  33.170   0.717
58456W        W25239  23.768  22.847  11.485
58457W        W25240  44.564  43.389  10.207
58458W        W25241  40.088  13.635   2.798
58459W        W25242   9.848  28.453   0.953
58460W        W25243   7.550  35.977  10.892
58461W        W25244  22.680   5.701  11.859
58462W        W25245  27.149  43.077  10.180
58463W        W25246  37.162  28.669  11.605
58464W        W25247  20.091  21.403  12.000
58465W        W25248  20.751  18.709   3.175
58466W        W25249  42.381  31.541  13.467
58467W        W25250  39.436  22.482  11.715
58468W        W25251   5.945  25.515  12.621
58469W        W25252  28.202  26.264   5.045
58470W        W25253  18.816  13.640   4.560
58471W        W25254  30.987  22.323   1.320
58472W        W25255  15.917  19.664  10.563
58473W        W25256  20.731  15.000  14.905
58474W        W25257   0.370  43.919   0.244
58475W        W25258  14.079  22.759   2.654
58476W        W25259  32.179  14.165   2.776
58477W        W25260  39.791   7.846  10.120
58478W        W25261  17.382   5.147   3.651
58479W        W25262   4.722  20.100  14.864
58480W        W25263  43.952   5.292  14.732
58481W        W25264   5.459  20.372   2.281
58482W        W25265  44.036  16.965  13.337
58483W        W25266  26.448   1.867  10.538
58484W        W25267  22.686  23.124   0.013
58485W        W25268  11.654   2.391  11.548
58486W        W25269   2.015  30.349  11.678
58487W        W25270  15.671  14.338  11.510
58488W        W25271  17.533  37.468   2.767
58489W        W25272  37.082  44.044  13.376
58490W        W25273   5.639  15.160  12.557
58491W        W25274  31.467  14.298  14.964
58492W        W25275  34.485   9.738  14.754
58493W        W25276   3.916  32.615  12.565
58494W        W25277  37.901  28.389   0.944
58495W        W25278  11.317  17.746   3.610
58496W        W25279  44.707  41.503   0.535
58497W        W25280   6.812  14.817   1.272
58498W        W25281  11.805  22.055  11.350
58499W        W25282  28.063  41.840  13.614
58500W        W25283   8.990  22.286  14.816
58501W        W25284   9.567  34.957   3.813
58502W        W25285  30.644  13.591   0.074
58503W        W25286  29.542  36.833  13.872
58504W        W25287  17.523  44.709   3.186
58505W        W25288  31.546  44.670   1.279
58506W        W25289  10.261  41.293   4.769
58507W        W25290  42.470  35.495  12.064
58508W        W25291  41.805  23.817   2.750
58509W        W25292  41.452   7.712  13.984
58510W        W25293   3.239  29.906  10.621
58511W        W25294  44.300  30.504  12.131
58512W        W25295   3.466  27.158   0.933
58513W        W25296  41.317  39.914  14.565
58514W        W25297  17.387   1.680   4.253
58515W        W25298  39.301   1.262   0.730
58516W        W25299  40.345  21.175   0.407
58517W        W25300  44.969  13.648  10.805
58518W        W25301  26.993   3.659  12.357
58519W        W25302  18.690  25.760  13.369
58520W        W25303   3.232  16.770   2.722
58521W        W25304  44.680  25.437  11.180
58522W        W25305  15.698  18.538  13.508
58523W        W25306  22.239  22.512   4.076
58524W        W25307  30.479  23.631  10.977
58525W        W25308  30.467   2.355   1.813
58526W        W25309  10.212   0.467   4.512
58527W        W25310  37.534  13.560   2.805
58528W        W25311  11.631   0.506  11.045
58529W        W25312  33.973   2.533  12.145
58530W        W25313  34.042  17.072   1.777
58531W        W25314   9.218  42.730   2.080
58532W        W25315   4.809   8.015  14.591
58533W        W25316  20.644   9.458  13.047
58534W        W25317  44.803  32.341   0.930
58535W        W25318   5.315  30.970  14.681
58536W        W25319  33.692  31.582  14.305
58537W        W25320  35.037  14.065   0.055
58538W        W25321  27.839  36.027   0.752
58539W        W25322  27.346  38.656   4.174
58540W        W25323  34.207  27.188  12.477
58541W        W25324  23.610   1.208   3.731
58542W        W25325  38.114  38.543   0.107
58543W        W25326   7.830   9.654  13.788
58544W        W25327   5.910  32.287   1.069
58545W        W25328  44.466  28.611  12.406
58546W        W25329  15.399   2.286  11.203
58547W        W25330   3.754  24.688   1.761
58548W        W25331  29.981   5.880   0.350
58549W        W25332  28.549   6.216   2.035
58550W        W25333  42.847   4.630   3.323
58551W        W25334  33.564  10.242   4.805
58552W        W25335  15.036   6.113  10.984
58553W        W25336  39.274  19.062  13.055
58554W        W25337  44.760  29.718   0.343
58555W        W25338  31.093  34.101  10.553
58556W        W25339  28.379  21.221   1.840
58557W        W25340  25.367  22.458   4.188
58558W        W25341  23.484  44.207  13.469
58559W        W25342  30.036  17.223  12.237
58560W        W25343  10.211  16.321   2.918
58561W        W25344   7.578  44.287   2.743
58562W        W25345   5.617  21.072   1.399
58563W        W25346   8.678  20.392   2.214
58564W        W25347  23.526  23.425  13.984
58565W        W25348  33.562  44.357   1.844
58566W        W25349  21.662   6.723   0.824
58567W        W25350   5.724   1.934   3.373
58568W        W25351   0.374  14.932  10.710
58569W        W25352  22.089   5.251  13.610
58570W        W25353  30.437   6.930   0.900
58571W        W25354   5.363  20.852   4.439
58572W        W25355  15.137  29.499  14.800
58573W        W25356  40.386  19.751   2.695
58574W        W25357   2.826  41.910  10.473
58575W        W25358  40.822  43.789  10.682
58576W        W25359  41.972  44.458   3.215
58577W        W25360   0.378  40.344   0.841
58578W        W25361   8.607   1.901  11.458
58579W        W25362  16.861  34.429   0.435
58580W        W25363  16.928  28.134  10.517
58581W        W25364  38.438  39.844  12.580
58582W        W25365  17.500  10.375  13.995
58583W        W25366   1.395   8.617  14.993
58584W        W25367  20.967  26.141  12.471
58585W        W25368  33.004  41.317  11.511
58586W        W25369  16.812  17.551  14.812
58587W        W25370  31.589  18.694   1.858
58588W        W25371  16.634   1.468  11.483
58589W        W25372  34.824  25.732  12.921
58590W        W25373   7.338  11.577  14.436
58591W        W25374  24.234  17.983   3.713
58592W        W25375  15.652  13.729  10.695
58593W        W25376  25.899  42.223   0.273
58594W        W25377  31.441   0.597  14.741
58595W        W25378  26.085  13.588   1.468
58596W        W25379   9.848  43.409  12.105
58597W        W25380  32.109  14.372   0.346
58598W        W25381  25.205  14.828   5.072
58599W        W25382  25.042  11.808  11.028
58600W        W25383  33.760  32.118  14.422
58601W        W25384  25.132  40.009  14.437
58602W        W25385  30.007   0.217  13.128
58603W        W25386  23.097   3.236   1.822
58604W        W25387  29.351  13.196   4.948
58605W        W25388  42.718  32.223   1.495
58606W        W25389   0.492  32.742  14.197
58607W        W25390  28.194  18.096   1.822
58608W        W25391  39.865   1.136  10.754
58609W        W25392  16.090  21.132  14.737
58610W        W25393   0.364   1.673  11.945
58611W        W25394  30.373  23.939  12.055
58612W        W25395  25.428  19.220  11.181
58613W        W25396  38.408  18.698   2.540
58614W        W25397   4.800  27.285   1.336
58615W        W25398   5.856  14.297  12.429
58616W        W25399   5.826   7.665  13.843
58617W        W25400  37.982  16.034  13.766
58618W        W25401   2.917   6.714  14.016
58619W        W25402   4.893  15.589   0.360
58620W        W25403  29.159  34.005  13.058
58621W        W25404  23.044   9.749   2.424
58622W        W25405   2.335  41.980  10.656
58623W        W25406  19.220  16.227  12.292
58624W        W25407  36.920  11.231   2.947
58625W        W25408   8.349  43.836   2.789
58626W        W25409   6.915  10.920  14.875
58627W        W25410  17.135  37.961   3.699
58628W        W25411  26.588  21.227   4.100
58629W        W25412  20.291   9.463  14.831
58630W        W25413  31.069   9.380   0.395
58631W        W25414  43.281  13.753  14.769
58632W        W25415   3.406  14.423   0.291
58633W        W25416  42.315  42.557  13.746
58634W        W25417  10.720   0.975   1.616
58635W        W25418  34.169  12.469   3.187
58636W        W25419   2.253  19.161   3.155
58637W        W25420  44.427   9.889  12.578
58638W        W25421  27.643  41.221  13.991
58639W        W25422  36.690  33.927  10.528
58640W        W25423   3.755  15.806   0.249
58641W        W25424  26.926  22.989   9.851
58642W        W25425  10.406  41.775   4.682
58643W        W25426  24.124  25.607  12.927
58644W        W25427  43.450  34.878  11.376
58645W        W25428  41.768   3.001  12.186
58646W        W25429  22.464  43.890   2.935
58647W        W25430  31.638  10.710  14.258
58648W        W25431  27.042  25.820  11.251
58649W        W25432  37.772  34.874  10.234
58650W        W25433  21.595   9.387  13.006
58651W        W25434  33.683  25.055  12.136
58652W        W25435  26.796  34.048  12.611
58653W        W25436  18.868  23.238   4.135
58654W        W25437  36.030  23.776   3.318
58655W        W25438  13.815  22.634   4.525
58656W        W25439  24.194  19.547  13.621
58657W        W25440  16.576  41.922   0.510
58658W        W25441  17.981   2.338  12.402
58659W        W25442  18.189  37.053   0.419
58660W        W25443  26.468  24.839  14.306
58661W        W25444   1.847  39.992   3.403
58662W        W25445  32.876   4.466   4.137
58663W        W25446  32.577  15.355  13.044
58664W        W25447  41.265  25.222   4.071
58665W        W25448   3.514  16.618  12.568
58666W        W25449  37.461   0.586  14.523
58667W        W25450  14.077  31.038   3.721
58668W        W25451  26.148  27.237  12.461
58669W        W25452  34.856  21.791  11.560
58670W        W25453  42.026  10.140  11.566
58671W        W25454  34.188  16.212  14.086
58672W        W25455  39.526   7.910   4.551
58673W        W25456  28.013  10.090  13.119
58674W        W25457   1.739  13.129  11.281
58675W        W25458  37.055  17.710   2.773
58676W        W25459   1.202  10.670   1.697
58677W        W25460  41.693  33.323   1.833
58678W        W25461  43.981  44.879  13.379
58679W        W25462  11.679  11.907  10.589
58680W        W25463   6.519   0.071   2.376
58681W        W25464   0.976   9.255  11.714
58682W        W25465  11.202  24.509   3.269
58683W        W25466  32.310  40.041  11.914
58684W        W25467  31.253  35.458  11.554
58685W        W25468  28.209  26.978   2.301
58686W        W25469  44.952  32.114  10.872
58687W        W25470  26.016  24.287  13.768
58688W        W25471   6.609   0.704  11.137
58689W        W25472  18.429  12.153   4.072
58690W        W25473  42.308  30.739  13.064
58691W        W25474  14.700   5.974  13.125
58692W        W25475   7.400  17.100   3.591
58693W        W25476  11.435  15.096   2.915
58694W        W25477  35.845  21.716   3.355
58695W        W25478  31.032  24.208  14.446
58696W        W25479  42.688  14.836  12.977
58697W        W25480  12.316  15.767  13.568
58698W        W25481  42.781  40.070  14.002
58699W        W25482  32.376   5.918   2.185
58700W        W25483  34.873   0.013   9.897
58701W        W25484   8.785  25.120  10.449
58702W        W25485  44.970  11.121   4.555
58703W        W25486  28.533  32.273   2.759
58704W        W25487  15.531   3.329  10.735
58705W        W25488  29.479  25.910   4.572
58706W        W25489   8.077  33.045  14.544
58707W        W25490  10.986  32.881  11.615
58708W        W25491  40.737  27.885  13.941
58709W        W25492  37.955   4.905   1.463
58710W        W25493  35.483  13.189  13.958
58711W        W25494  37.953  14.838   3.663
58712W        W25495  44.419  17.340  13.352
58713W        W25496  15.900  15.076   4.372
58714W        W25497  19.899  39.484  10.758
58715W        W25498  16.512  39.794   2.835
58716W        W25499  28.681   1.817  10.370
58717W        W25500  36.033  32.397   0.447
58718W        W25501  42.012  43.262   4.383
58719W        W25502   1.671  39.500   3.547
58720W        W25503   1.803  33.605   0.994
58721W        W25504  12.340  27.604   3.694
58722W        W25505  25.206   5.809   1.483
58723W        W25506  20.970  27.453  11.398
58724W        W25507  10.909  20.973   4.637
58725W        W25508  28.035  26.061  13.657
58726W        W25509  35.847  26.106   4.300
58727W        W25510  14.570  13.393   3.614
58728W        W25511  34.356   9.326   0.769
58729W        W25512  41.497  28.922  12.560
58730W        W25513  32.721  24.688   1.476
58731W        W25514  36.628  17.566  13.797
58732W        W25515  42.119  14.822  12.448
58733W        W25516   5.653  29.077   2.636
58734W        W25517   6.005   8.733   4.515
58735W        W25518  41.548  42.640  11.535
58736W        W25519  10.586  14.188  14.335
58737W        W25520  27.688  13.235   3.878
58738W        W25521  26.714   7.620  14.462
58739W        W25522  14.347  33.094   4.597
58740W        W25523  29.316  21.341   5.344
58741W        W25524   3.365  34.073  13.363
58742W        W25525  30.056  12.353  11.379
58743W        W25526   3.398  43.899  11.375
58744W        W25527  43.093   4.778  13.876
58745W        W25528  18.588  36.311  13.460
58746W        W25529  16.379   2.398  11.111
58747W        W25530  34.563   1.273   3.681
58748W        W25531  43.611  31.740   0.651
58749W        W25532  32.532  10.279  13.890
58750W        W25533  26.581  32.908  13.877
58751W        W25534  18.504  23.504  13.148
58752W        W25535  30.189  25.629  12.900
58753W        W25536  28.709   8.736   2.680
58754W        W25537  39.820  31.645  11.316
58755W        W25538  31.464  23.570  11.998
58756W        W25539  20.019   9.275   3.044
58757W        W25540   4.847  36.748   3.400
58758W        W25541  28.506  44.744   4.355
58759W        W25542  26.733  43.370  10.129
58760W        W25543  22.719  33.451   2.301
58761W        W25544  17.749  13.606   3.780
58762W        W25545   9.706  37.904  12.628
58763W        W25546  11.969  24.623  13.282
58764W        W25547  18.546  34.380  12.525
58765W        W25548  18.270  18.582   3.223
58766W        W25549  37.807  13.872  12.394
58767W        W25550  35.170  10.928  11.107
58768W        W25551  36.847   2.910  11.634
58769W        W25552  19.614  42.764  14.083
58770W        W25553  26.547  31.989  14.101
58771W        W25554   2.701  40.788   1.789
58772W        W25555  24.463  10.098  11.090
58773W        W25556  13.382  39.516  11.923
58774W        W25557  25.734   9.713  10.706
58775W        W25558  23.280   3.310   2.682
58776W        W25559  12.879  39.445  11.007
58777W        W25560  35.365  24.447  11.907
58778W        W25561   6.164   0.900   2.725
58779W        W25562  19.587  19.280  14.842
58780W        W25563   0.805  41.848   0.175
58781W        W25564  33.068   8.838   3.121
58782W        W25565  12.209  34.425  11.649
58783W        W25566  20.662  23.756  14.436
58784W        W25567  10.177  42.148  12.917
58785W        W25568  19.321  38.937   0.845
58786W        W25569  14.638   2.294   3.919
58787W        W25570   5.927  25.688  11.551
58788W        W25571  24.608  33.871   2.337
58789W        W25572  40.406  39.341  10.508
58790W        W25573  27.509  43.833   3.595
58791W        W25574  17.869  15.684  13.806
58792W        W25575  29.728  18.551   3.309
58793W        W25576  22.654   8.379  13.814
58794W        W25577  37.735  44.443   3.439
58795W        W25578  31.083  36.449  10.675
58796W        W25579   6.171  27.106  13.916
58797W        W25580  41.845  41.813  11.048
58798W        W25581  38.100  35.090   3.286
58799W        W25582   4.364  16.515   1.231
58800W        W25583  23.556  30.587   2.416
58801W        W25584  42.485  44.488   4.170
58802W        W25585  43.860   4.781  14.855
58803W        W25586  34.042  44.605  14.036
58804W        W25587  20.062  21.399  12.522
58805W        W25588  37.953  27.921  11.595
58806W        W25589  26.514   1.375   3.369
58807W        W25590  26.749  20.585   2.379
58808W        W25591  27.143  39.521   1.495
58809W        W25592  20.282  29.559  11.560
58810W        W25593   7.754  42.985  13.026
58811W        W25594   0.881  44.437  12.362
58812W        W25595  40.093  43.346  12.177
58813W        W25596   0.371  36.600  13.099
58814W        W25597  42.467  30.176  13.453
58815W        W25598  10.104  35.586  11.087
58816W        W25599  31.161  24.545   1.148
58817W        W25600  32.782   0.120  13.989
58818W        W25601  43.475  20.559  12.522
58819W        W25602   7.464  37.354   1.703
58820W        W25603  22.140  18.701  10.563
58821W        W25604  42.147  38.610   3.030
58822W        W25605  20.191  17.725  12.052
58823W        W25606   3.111  15.222   2.911
58824W        W25607  36.071  27.366   1.379
58825W        W25608  19.734  29.159  12.468
58826W        W25609  37.464  27.597   3.339
58827W        W25610  32.599  29.882  12.904
58828W        W25611  33.055  36.007  13.718
58829W        W25612   2.093  41.391  12.317
58830W        W25613  38.049  19.968   1.317
58831W        W25614  12.502  19.199  10.647
58832W        W25615  24.263  40.328   0.043
58833W        W25616  35.601  24.945   1.809
58834W        W25617  28.238  36.117  14.441
58835W        W25618  26.900   7.371  10.580
58836W        W25619  35.342  32.423   1.723
58837W        W25620  16.042  28.449  13.242
58838W        W25621  44.754  42.803   3.621
58839W        W25622  30.685  16.561   1.712
58840W        W25623   5.765  37.282   2.829
58841W        W25624  43.396  32.755  13.478
58842W        W25625  44.771  37.874   4.798
58843W        W25626  33.905   5.451  13.343
58844W        W25627  24.824  19.154   5.035
58845W        W25628  27.197   2.460  12.968
58846W        W25629  13.273   2.968  14.407
58847W        W25630  36.624  43.819  13.277
58848W        W25631  17.664   8.321   0.546
58849W        W25632  15.036  16.357  11.961
58850W        W25633  17.082  14.810   1.262
58851W        W25634   7.235  39.260   3.769
58852W        W25635   7.397  41.580  13.770
58853W        W25636  18.746  41.439   3.627
58854W        W25637  11.202  34.543  11.717
58855W        W25638  19.611   2.587  11.089
58856W        W25639  43.377  37.905  14.035
58857W        W25640  25.212   3.859   0.275
58858W        W25641  32.402  13.636   4.643
58859W        W25642  28.152  39.859   2.836
58860W        W25643   4.143  23.766  11.564
58861W        W25644  27.669  39.103  14.909
58862W        W25645  28.730  24.935  12.102
58863W        W25646  16.587  16.630  13.491
58864W        W25647  42.384  40.038   1.411
58865W        W25648  25.390  31.874   1.459
58866W        W25649  16.620  19.868   4.159
58867W        W25650  37.013  24.672  13.165
58868W        W25651   7.181  15.621  14.725
58869W        W25652  34.032  11.858   2.281
58870W        W25653  39.383  38.301   3.611
58871W        W25654  18.208  18.591   0.197
58872W        W25655  18.183  42.711  10.788
58873W        W25656  18.028   0.383   2.739
58874W        W25657  28.426   2.358  14.391
58875W        W25658   9.415  44.433  10.016
58876W        W25659  28.142   1.335  12.396
58877W        W25660  36.893  19.750  11.555
58878W        W25661  34.852   9.389   5.121
58879W        W25662  27.783  16.792   1.491
58880W        W25663  33.858  16.709  13.539
58881W        W25664  28.002  38.357  13.979
58882W        W25665  21.821  43.366   1.898
58883W        W25666  12.161  38.603   0.919
58884W        W25667   6.863  20.035   2.750
58885W        W25668  11.580   5.731  12.476
58886W        W25669  35.999  19.741   1.361
58887W        W25670  33.908  29.230   1.257
58888W        W25671  25.535   1.226  12.987
58889W        W25672  27.221   0.194   2.815
58890W        W25673  19.129  28.122  13.337
58891W        W25674   5.729   5.021   0.883
58892W        W25675  13.317  20.145   1.185
58893W        W25676   8.864  29.565   0.228
58894W        W25677  13.762  23.645  12.937
58895W        W25678  19.761  14.283  13.911
58896W        W25679  33.665  42.403  11.131
58897W        W25680   6.018  13.744   4.247
58898W        W25681  40.957  10.423  14.404
58899W        W25682  37.769  13.597   4.082
58900W        W25683   5.847   8.140  14.055
58901W        W25684   6.000  15.085   3.293
58902W        W25685  23.516  36.569  14.455
58903W        W25686  38.032  43.979  10.957
58904W        W25687  31.734   9.858  10.044
58905W        W25688  17.520  27.029   2.181
58906W        W25689  32.143  19.115   0.535
58907W        W25690   7.271  27.142   4.566
58908W        W25691  27.949  41.409   1.761
58909W        W25692  27.242  34.049   4.164
58910W        W25693  18.411  35.500  11.614
58911W        W25694  20.257  29.012  14.746
58912W        W25695  38.066  14.484   5.088
58913W        W25696  32.932  43.010  13.454
58914W        W25697  29.556   0.782  13.635
58915W        W25698  22.679  21.939   3.838
58916W        W25699  10.486  34.984   4.773
58917W        W25700  10.409  27.142   0.900
58918W        W25701  11.737  16.710  12.894
58919W        W25702  20.763   5.972  13.433
58920W        W25703  19.991  43.947   2.662
58921W        W25704  31.398   5.744   4.106
58922W        W25705  24.513  29.729   0.420
58923W        W25706  38.967  20.550   1.273
58924W        W25707  30.016  25.136  10.510
58925W        W25708  41.339  11.958  10.621
58926W        W25709  36.111   0.440  11.144
58927W        W25710  36.982  43.259   0.556
58928W        W25711  12.353  16.005   2.745
58929W        W25712  39.841  22.551   1.631
58930W        W25713  42.027  38.181   3.365
58931W        W25714  39.632  12.285  13.014
58932W        W25715  36.302  32.008   4.486
58933W        W25716  42.822  43.608  12.650
58934W        W25717  41.535   3.675  12.535
58935W        W25718  32.126  37.932  10.575
58936W        W25719  39.939  19.178   2.098
58937W        W25720   3.088  29.171   4.806
58938W        W25721   5.078  39.074  11.842
58939W        W25722  38.317  38.752  11.926
58940W        W25723  34.584   2.118   0.202
58941W        W25724   1.282  41.752   0.359
58942W        W25725  39.872  36.566   0.502
58943W        W25726  41.559  33.068   2.807
58944W        W25727   1.714  15.593  14.716
58945W        W25728  33.542   5.641   2.854
58946W        W25729  31.398   7.388  12.071
58947W        W25730   9.381  20.074  13.941
58948W        W25731  34.034  11.081   4.815
58949W        W25732  19.280  34.535   0.351
58950W        W25733  28.253  37.651  11.602
58951W        W25734  38.293  24.135   4.582
58952W        W25735  32.336  42.490  12.741
58953W        W25736  29.218   0.973   0.817
58954W        W25737  25.101  25.003   3.261
58955W        W25738  25.609  20.335   0.764
58956W        W25739  19.065   4.311   4.344
58957W        W25740  21.771  41.570  11.113
58958W        W25741  28.625  17.107   4.356
58959W        W25742  21.117  28.092  11.218
58960W        W25743  14.230   4.001   0.358
58961W        W25744  24.425  26.103   2.689
58962W        W25745  32.835  16.288   1.866
58963W        W25746  44.046  33.808  11.077
58964W        W25747  28.028  37.578  13.502
58965W        W25748   9.251  44.478  13.952
58966W        W25749  19.108  22.376   1.175
58967W        W25750  37.771  28.622  13.506
58968W        W25751  14.724  21.419  12.093
58969W        W25752  43.623   5.923  10.137
58970W        W25753  19.356  25.707  12.196
58971W        W25754   1.081  43.026  14.891
58972W        W25755   7.962  28.635  10.936
58973W        W25756  26.555   4.776   1.340
58974W        W25757  19.355   0.879  13.900
58975W        W25758  13.313  42.532   3.579
58976W        W25759  39.819  25.682   3.708
58977W        W25760  24.396  29.006   4.565
58978W        W25761  32.908   4.856  11.646
58979W        W25762   6.817   0.030  11.703
58980W        W25763  23.220  43.110   3.704
58981W        W25764   3.915  11.438   0.456
58982W        W25765   8.633   9.365  13.723
58983W        W25766  23.157  25.943   5.758
58984W        W25767  32.573  43.487   0.925
58985W        W25768   5.881  19.140   3.680
58986W        W25769  19.030  16.142  12.786
58987W        W25770  24.937  37.437  10.722
58988W        W25771   3.248   0.525   0.824
58989W        W25772  34.505  37.549   4.887
58990W        W25773  37.406   6.334   5.011
58991W        W25774  32.270  43.573   4.238
58992W        W25775  25.556  39.537   1.342
58993W        W25776  17.825  35.072   4.104
58994W        W25777  42.539   6.005   2.233
58995W        W25778  10.771  26.749  11.095
58996W        W25779   7.918  17.622   3.170
58997W        W25780  17.121  22.520   0.860
58998W        W25781  25.707  38.923  14.882
58999W        W25782  23.116  11.883  12.077
59000W        W25783  27.441  10.061  13.849
59001W        W25784   9.957   2.925  12.417
59002W        W25785  18.731  30.772   5.007
59003W        W25786   8.468  32.780  10.899
59004W        W25787  18.340  26.576  13.831
59005W        W25788   2.946  31.447   3.593
59006W        W25789   1.178  41.454  12.551
59007W        W25790  42.480  19.280  10.990
59008W        W25791  38.727  24.349  13.336
59009W        W25792   9.235  38.059   0.374
59010W        W25793  22.778  14.287   2.067
59011W        W25794  19.595  17.874  13.302
59012W        W25795  29.010  37.521  14.465
59013W        W25796  33.422  14.435   4.182
59014W        W25797  17.578   0.885   4.694
59015W        W25798  43.544  19.081  13.905
59016W        W25799  29.821  43.508   4.312
59017W        W25800  22.311  31.328  13.529
59018W        W25801  44.400   1.797   2.167
59019W        W25802  36.543   5.914   4.059
59020W        W25803  40.092  23.235   3.342
59021W        W25804  31.083  17.556  11.551
59022W        W25805   7.367  18.480  14.011
59023W        W25806  27.487  38.907  14.464
59024W        W25807   2.434  22.790   5.096
59025W        W25808  26.109  42.752  10.488
59026W        W25809  35.364  11.403  11.133
59027W        W25810  37.779  10.538  11.721
59028W        W25811  32.761  44.284  13.026
59029W        W25812   3.415  32.027   0.794
59030W        W25813   6.008  20.408   0.370
59031W        W25814   9.452  28.133  11.158
59032W        W25815  38.924  38.456  13.007
59033W        W25816  37.657   7.969   4.099
59034W        W25817  12.343  34.612   0.394
59035W        W25818  29.088  41.824  10.493
59036W        W25819  21.673  39.030  13.741
59037W        W25820  43.287  18.749  12.972
59038W        W25821  29.447  25.468  12.338
59039W        W25822  36.397   2.857  11.433
59040W        W25823  42.505  11.875   0.459
59041W        W25824  13.980  14.343  13.052
59042W        W25825  28.964  35.825  14.867
59043W        W25826  14.692   5.393   0.970
59044W        W25827  15.082  12.803   2.337
59045W        W25828  40.576  13.341   0.747
59046W        W25829  22.015  43.767   0.241
59047W        W25830  27.529  44.220  14.228
59048W        W25831  38.147  23.355   4.527
59049W        W25832  27.670  25.544  11.590
59050W        W25833  14.735   3.848  13.349
59051W        W25834  43.720  39.071  11.140
59052W        W25835  23.250  34.530  13.939
59053W        W25836  23.396   9.437   4.676
59054W        W25837   2.411  35.049  13.807
59055W        W25838   2.695  26.971   1.625
59056W        W25839  21.534  40.398   4.651
59057W        W25840  38.174   1.994  11.528
59058W        W25841   7.376  32.413  11.098
59059W        W25842  13.786   7.660   5.073
59060W        W25843  22.670  28.134  11.068
59061W        W25844  36.789  34.572  14.887
59062W        W25845   7.996   0.334  12.190
59063W        W25846  27.197  22.182  10.462
59064W        W25847  20.915  36.596   3.230
59065W        W25848  38.755  44.985   1.521
59066W        W25849  41.743  35.000  14.810
59067W        W25850  21.607  21.137   1.208
59068W        W25851  44.492   7.264  11.207
59069W        W25852   5.917  41.785  13.544
59070W        W25853   4.178  22.572  12.529
59071W        W25854   0.313  11.892  14.689
59072W        W25855  20.998   7.482   2.263
59073W        W25856  19.859  24.171   4.628
59074W        W25857  13.926  19.998  13.438
59075W        W25858  34.562  32.613  12.494
59076W        W25859  12.480  35.640   2.236
59077W        W25860   5.286  11.085   3.284
59078W        W25861  11.322   6.268  14.775
59079W        W25862  14.431  21.761  12.911
59080W        W25863  30.572  16.226  14.832
59081W        W25864  22.161  15.768  10.104
59082W        W25865  33.851  43.656   0.202
59083W        W25866  29.246  28.203  13.567
59084W        W25867  11.097   8.437  13.901
59085W        W25868  12.840  38.106   1.546
59086W        W25869  42.385  30.602  10.632
59087W        W25870  27.955  37.448  13.002
59088W        W25871  26.276  35.982   4.116
59089W        W25872   5.316  15.159   0.236
59090W        W25873  32.594  38.927   4.682
59091W        W25874   8.928  23.982  11.610
59092W        W25875   2.567  41.230  12.436
59093W        W25876  44.787  10.136   2.598
59094W        W25877  43.857  44.773   4.396
59095W        W25878  19.782  36.072   5.054
59096W        W25879  11.158  18.100   2.013
59097W        W25880  22.709   5.977   3.780
59098W        W25881  11.399  16.264  10.913
59099W        W25882  28.220  22.030  11.984
59100W        W25883  13.840   8.684   4.955
59101W        W25884   2.528  23.843   5.033
59102W        W25885  27.175  15.226   1.957
59103W        W25886  40.760   1.592  12.066
59104W        W25887  31.092  12.526  11.131
59105W        W25888  37.514  28.414   2.181
59106W        W25889  37.831  39.577   0.412
59107W        W25890  27.655  19.297   2.245
59108W        W25891  36.095   6.725   2.183
59109W        W25892  16.032  24.777  11.119
59110W        W25893   6.366  20.225   1.833
59111W        W25894  22.746  43.336  13.918
59112W        W25895  39.527  29.957   0.467
59113W        W25896   3.510   8.816  13.567
59114W        W25897  43.551  14.346   2.700
59115W        W25898  42.249  10.255  12.029
59116W        W25899  23.010   3.870  12.761
59117W        W25900   3.367  28.524   2.223
59118W        W25901  19.706  29.989  14.673
59119W        W25902   7.814   0.114  11.711
59120W        W25903  27.707  24.128   0.529
59121W        W25904  37.849  27.972  10.714
59122W        W25905  31.637   6.610   0.304
59123W        W25906  39.593   6.616  13.534
59124W        W25907  20.545  25.464  13.792
59125W        W25908  31.452  39.466  12.427
59126W        W25909   1.173  31.134  14.708
59127W        W25910  23.425  19.043  14.403
59128W        W25911   9.864  21.100  13.517
59129W        W25912   1.009   4.466  10.076
59130W        W25913  32.942   8.839   4.072
59131W        W25914   6.984  40.401  10.984
59132W        W25915  43.042  11.580  13.837
59133W        W25916  15.715   2.436   3.286
59134W        W25917  37.590   1.420  13.038
59135W        W25918  42.472  27.590   2.402
59136W        W25919  43.839  44.750   2.919
59137W        W25920  39.827  20.131  14.889
59138W        W25921  17.647  21.129   2.254
59139W        W25922   9.455  26.721   4.786
59140W        W25923  13.587   9.734  11.294
59141W        W25924   1.784  28.191   3.712
59142W        W25925   4.836  39.969  13.336
59143W        W25926  10.169  11.430  14.731
59144W        W25927  41.886  26.451  10.710
59145W        W25928  18.060  34.601   2.636
59146W        W25929  43.473  24.807  12.048
59147W        W25930  35.906   0.453  11.698
59148W        W25931   4.462  25.216   1.875
59149W        W25932  14.503  19.630   1.190
59150W        W25933  19.339  40.601   1.791
59151W        W25934  10.197  39.234  11.560
59152W        W25935  32.969  19.258  11.498
59153W        W25936  37.574  32.400  12.493
59154W        W25937  40.100  40.054  12.973
59155W        W25938  40.714  25.260  11.048
59156W        W25939  33.766   5.683  12.896
59157W        W25940   5.910  39.543  13.872
59158W        W25941  23.025  31.096  11.644
59159W        W25942   0.774  39.361  12.937
59160W        W25943  19.889  14.731  14.754
59161W        W25944  13.626  35.292  14.656
59162W        W25945  26.054  10.872   4.091
59163W        W25946  43.274  26.604  11.914
59164W        W25947  21.705  11.655   4.181
59165W        W25948  25.079  17.255  13.322
59166W        W25949  21.377   6.471  14.894
59167W        W25950   1.461   3.895   2.203
59168W        W25951  20.843  10.105  12.455
59169W        W25952   4.074  30.439  12.362
59170W        W25953  41.823  18.196   1.514
59171W        W25954  19.369  35.381  12.577
59172W        W25955   5.397  22.723   4.571
59173W        W25956  10.093   5.813  12.410
59174W        W25957   2.542  18.003   9.853
59175W        W25958  39.048  25.424   3.270
59176W        W25959  33.379  37.028   4.299
59177W        W25960   7.713  28.600  12.775
59178W        W25961   0.993   4.383   0.233
59179W        W25962  36.538   9.676  14.818
59180W        W25963  17.550  18.300   2.269
59181W        W25964  16.793  12.224  11.576
59182W        W25965  27.420  37.815  12.516
59183W        W25966  10.166  30.919   2.704
59184W        W25967   9.805  24.066   0.908
59185W        W25968   9.346  40.405   0.849
59186W        W25969  10.097  29.338  14.932
59187W        W25970  20.049  17.834   0.568
59188W        W25971   2.909  35.713  14.318
59189W        W25972  34.276  14.074  13.410
59190W        W25973  36.559  27.121  11.714
59191W        W25974  38.530   3.871  14.127
59192W        W25975  33.640  31.085  12.167
59193W        W25976  21.729  32.860  12.319
59194W        W25977  16.404  25.966   0.898
59195W        W25978  40.113  39.420  13.369
59196W        W25979  40.822  18.982  13.679
59197W        W25980  26.705   2.292   4.532
59198W        W25981  11.195  40.500   3.989
59199W        W25982   4.466   8.719   3.440
59200W        W25983  44.475  40.262  12.526
59201W        W25984  26.891  39.013   1.616
59202W        W25985   8.068  31.228  11.615
59203W        W25986  25.450  26.656   1.360
59204W        W25987  43.371  40.922  14.761
59205W        W25988  10.332  29.903  11.073
59206W        W25989  20.718   0.960  14.480
59207W        W25990  21.598  40.328  14.040
59208W        W25991   5.307   5.849   4.611
59209W        W25992  42.353   7.743  11.850
59210W        W25993  26.503  36.155   2.221
59211W        W25994  40.153  40.251  12.510
59212W        W25995  44.903  23.787   1.879
59213W        W25996   6.870  35.637  12.534
59214W        W25997  25.937   4.023  11.921
59215W        W25998  36.579  36.513   3.976
59216W        W25999   4.643   8.253   1.697
59217W        W26000  42.824  17.969   4.132
59218W        W26001  12.503  29.890  14.550
59219W        W26002   3.428  11.535   4.410
59220W        W26003   2.235  19.769   3.748
59221W        W26004  14.532   6.216  11.112
59222W        W26005  14.606  37.119  12.890
59223W        W26006  40.903  39.506  13.872
59224W        W26007   1.931  44.992  11.169
59225W        W26008  37.883  34.950   1.397
59226W        W26009   2.424   4.387   1.271
59227W        W26010  41.454  24.190   2.738
59228W        W26011  15.206  39.956  13.861
59229W        W26012   9.711  34.896  13.075
59230W        W26013  23.386  42.612   4.484
59231W        W26014  40.576   7.278   0.425
59232W        W26015  16.296  38.298  13.841
59233W        W26016  32.463   8.844   1.801
59234W        W26017  31.811  37.014  11.609
59235W        W26018  44.946  42.248   1.528
59236W        W26019  17.121  33.118  10.503
59237W        W26020   1.312   1.763   2.279
59238W        W26021  13.746  29.139   2.415
59239W        W26022  11.459  41.937   3.173
59240W        W26023  39.330  22.195  14.358
59241W        W26024  29.178  41.823   3.845
59242W        W26025  44.785   3.889   0.060
59243W        W26026   4.391   1.911   4.592
59244W        W26027  19.913   4.786  12.538
59245W        W26028  19.500  39.417   3.363
59246W        W26029   2.948  33.513  12.554
59247W        W26030  40.676   8.819  13.977
59248W        W26031  17.344   7.640   2.614
59249W        W26032  12.638  38.932   3.213
59250W        W26033  10.293  42.816   1.172
59251W        W26034  21.284  30.516   2.048
59252W        W26035  38.048   0.732   4.252
59253W        W26036  16.109   0.622  14.139
59254W        W26037  23.582  19.809  12.349
59255W        W26038  35.118  27.114  10.912
59256W        W26039  22.006   4.942  13.166
59257W        W26040   2.993  14.109   0.386
59258W        W26041  11.921  10.651  13.965
59259W        W26042  30.134   9.720   2.131
59260W        W26043   4.824   5.819   4.381
59261W        W26044   2.288  40.898  14.859
59262W        W26045  10.099  16.252  14.083
59263W        W26046   2.487  33.279  12.458
59264W        W26047  10.157  33.040  13.403
59265W        W26048   2.606   2.138   0.214
59266W        W26049  18.032  17.098   1.924
59267W        W26050  22.996  27.790  13.837
59268W        W26051  34.574  13.337   0.457
59269W        W26052  35.920  18.745   1.664
59270W        W26053  38.510  40.473   4.197
59271W        W26054   3.431   2.370  14.959
59272W        W26055  28.384  42.966  14.450
59273W        W26056  42.856  28.975   0.783
59274W        W26057  42.344   9.709   2.600
59275W        W26058  15.662  21.238   0.912
59276W        W26059  35.844  42.482   3.189
59277W        W26060   2.661  31.452  12.232
59278W        W26061  13.262  35.445  12.983
59279W        W26062   0.251   1.917  12.409
59280W        W26063   2.803  40.956  11.160
59281W        W26064   2.762  22.511   0.302
59282W        W26065   4.536  21.460   3.841
59283W        W26066  22.519   2.885   1.740
59284W        W26067  14.337  41.048   0.382
59285W        W26068  33.970  17.252   5.099
59286W        W26069   8.541  16.329   3.734
59287W        W26070  18.170  23.122   0.407
59288W        W26071  43.667  13.259  13.463
59289W        W26072  11.714  27.132  13.567
59290W        W26073   3.433  38.787   1.344
59291W        W26074  21.953   1.646  13.357
59292W        W26075  15.378  17.674  10.646
59293W        W26076  39.450  31.115  11.273
59294W        W26077  24.163  41.408   3.622
59295W        W26078  13.371  43.424   0.872
59296W        W26079   7.222  19.247   3.864
59297W        W26080  38.708  26.525   5.078
59298W        W26081   8.877  38.516   1.364
59299W        W26082  21.031   6.708   2.678
59300W        W26083  15.759   7.820  13.855
59301W        W26084  24.756  10.058   1.438
59302W        W26085   4.303   6.313  12.608
59303W        W26086  16.808  18.798   4.516
59304W        W26087  26.403  10.458  14.424
59305W        W26088  33.806  37.534  14.773
59306W        W26089  26.027  32.684  11.638
59307W        W26090  19.180  26.999  14.813
59308W        W26091  17.045  23.913  12.631
59309W        W26092  13.369  13.722  11.228
59310W        W26093   6.434  12.045   3.785
59311W        W26094  41.275  18.426   2.726
59312W        W26095  39.537  17.730   0.988
59313W        W26096  11.432  41.973   1.764
59314W        W26097  24.192  38.348   1.209
59315W        W26098  15.341   8.858  12.803
59316W        W26099   5.317  44.526   0.304
59317W        W26100  12.678  29.137  12.028
59318W        W26101  15.138   6.804   3.731
59319W        W26102  24.281  24.753   0.315
59320W        W26103  20.701  44.849   2.504
59321W        W26104  22.450  28.560  13.895
59322W        W26105   8.201  11.316   3.308
59323W        W26106   1.127  14.615   4.698
59324W        W26107  26.648  31.021   0.556
59325W        W26108   0.776  43.852   1.528
59326W        W26109  39.330   0.706   2.105
59327W        W26110  37.948  43.924  12.385
59328W        W26111  31.559  37.864  14.350
59329W        W26112  37.280  37.540  11.790
59330W        W26113   2.240  20.634   4.635
59331W        W26114  39.863  15.824  14.466
59332W        W26115  30.643  36.833   1.194
59333W        W26116   2.447  31.203   3.534
59334W        W26117  18.104   1.868   2.294
59335W        W26118   8.719  36.592   1.457
59336W        W26119   3.613  16.094   1.900
59337W        W26120   7.285  17.320   4.833
59338W        W26121  29.124  14.413   1.705
59339W        W26122  14.340  13.925   1.749
59340W        W26123  19.596  21.292  13.857
59341W        W26124   0.238  42.094   3.303
59342W        W26125   0.002  39.437  13.234
59343W        W26126  40.072  29.072  14.680
59344W        W26127  36.604  11.611   1.241
59345W        W26128  17.321  39.704  10.253
59346W        W26129   7.298   9.377   2.617
59347W        W26130  16.880  12.484   3.919
59348W        W26131  18.726  41.498  10.743
59349W        W26132  19.017  17.254  10.758
59350W        W26133   7.755   2.762   3.750
59351W        W26134  22.530  11.535  14.381
59352W        W26135  17.414  20.024  12.049
59353W        W26136  13.294   1.444   2.957
59354W        W26137  41.841  36.857  12.806
59355W        W26138   7.694  32.604   4.625
59356W        W26139  11.939  10.155   2.282
59357W        W26140  37.046  14.691  14.739
59358W        W26141  41.385  12.941   1.898
59359W        W26142  29.961  35.624   2.732
59360W        W26143  27.490   3.332  14.325
59361W        W26144  44.032   3.734   4.780
59362W        W26145  39.564  38.266  14.895
59363W        W26146  15.557  13.329  11.727
59364W        W26147  44.787  18.294   3.246
59365W        W26148   6.896  30.472  13.405
59366W        W26149   9.402  29.584   2.584
59367W        W26150  32.872  38.090  14.110
59368W        W26151  16.578  40.386   4.926
59369W        W26152  18.183  15.511  11.215
59370W        W26153  23.947  34.151   2.226
59371W        W26154  24.008  32.150  13.321
59372W        W26155  20.636  12.641  12.319
59373W        W26156   9.647   6.836   0.785
59374W        W26157  37.857  37.909  14.492
59375W        W26158  26.495  34.065   0.343
59376W        W26159  22.740  42.793  10.752
59377W        W26160  26.202  21.316   1.857
59378W        W26161  20.236  21.257  11.173
59379W        W26162  29.030  23.259   0.430
59380W        W26163   0.431   6.416   1.167
59381W        W26164  13.189   2.294   1.320
59382W        W26165   1.984  35.568   0.848
59383W        W26166  20.615  34.802   4.624
59384W        W26167   5.925  43.115   4.587
59385W        W26168   4.865   3.189   3.807
59386W        W26169  27.614  23.223  14.130
59387W        W26170   9.299  20.361  11.128
59388W        W26171  43.371  13.251   0.524
59389W        W26172   8.191  11.236   4.156
59390W        W26173  12.195   1.909   0.016
59391W        W26174   9.317  44.792   1.274
59392W        W26175  20.109   8.785   4.885
59393W        W26176  33.476  44.102   0.266
59394W        W26177  16.590  27.682   2.251
59395W        W26178  41.864  40.332   4.157
59396W        W26179   1.185  14.924   5.111
59397W        W26180  36.834   2.665  10.675
59398W        W26181   4.500  24.478   4.613
59399W        W26182  44.912   4.512   2.131
59400W        W26183  41.689  42.857   4.571
59401W        W26184  35.179  43.809  13.434
59402W        W26185   0.281   7.763  13.415
59403W        W26186   2.527  23.319   2.584
59404W        W26187  20.029  25.985   1.272
59405W        W26188  16.574   7.250   1.311
59406W        W26189  15.996   3.209   5.124
59407W        W26190  36.777   8.020   1.110
59408W        W26191  41.921  27.905  12.946
59409W        W26192  22.948  17.545  13.481
59410W        W26193  19.063  41.474   5.016
59411W        W26194  34.612  18.125   3.277
59412W        W26195  10.876   2.226   1.684
59413W        W26196  14.088  25.642  14.718
59414W        W26197  16.823  29.167   1.271
59415W        W26198  13.803   8.358   3.713
59416W        W26199  10.734  37.482  14.096
59417W        W26200  39.121  20.655   0.732
59418W        W26201  15.891  24.656  13.495
59419W        W26202  44.367  34.736  11.436
59420W        W26203   4.804  28.162   4.978
59421W        W26204  16.062  43.497   4.145
59422W        W26205  18.056  40.285   0.466
59423W        W26206  42.819  34.944  13.940
59424W        W26207  18.548  10.630   3.949
59425W        W26208  30.448  35.368  14.416
59426W        W26209  10.738  37.408   2.338
59427W        W26210  42.310  29.048  11.276
59428W        W26211  16.550  35.453   0.819
59429W        W26212  40.572  43.803  12.818
59430W        W26213   1.947  38.545  14.822
59431W        W26214  42.056  26.210   0.333
59432W        W26215  41.117   5.230   3.673
59433W        W26216  30.247  16.113  12.925
59434W        W26217   6.646  29.960  13.048
59435W        W26218   3.686  13.165   3.497
59436W        W26219   5.173  22.042   0.312
59437W        W26220  11.564  10.757  11.893
59438W        W26221  41.593  43.517   3.207
59439W        W26222  37.652  31.266  13.668
59440W        W26223  40.347   7.888  11.539
59441W        W26224   3.987  28.190  13.419
59442W        W26225  38.168  28.054  11.138
59443W        W26226  30.163  14.427   0.354
59444W        W26227  24.288  34.687  14.335
59445W        W26228   2.029  23.974  12.914
59446W        W26229  12.770  20.331  11.711
59447W        W26230  30.130  44.259  13.547
59448W        W26231  21.953  30.181  12.426
59449W        W26232  20.114  40.068   4.579
59450W        W26233  19.819  22.172   4.667
59451W        W26234  38.392  42.821   3.774
59452W        W26235  23.076  26.579  13.044
59453W        W26236  20.480  20.810  14.173
59454W        W26237  25.950  38.220   4.109
59455W        W26238  26.068  27.456   2.661
59456W        W26239  33.294  24.775   9.801
59457W        W26240  30.997  39.218  13.918
59458W        W26241  14.420  18.567   3.637
59459W        W26242  30.219  20.558  12.686
59460W        W26243  28.792  31.928  14.170
59461W        W26244  44.855  17.549   0.441
59462W        W26245  38.328   1.918   4.105
59463W        W26246  14.406  31.425  11.563
59464W        W26247  23.862   7.746   3.572
59465W        W26248  20.575  32.707   0.753
59466W        W26249  18.090   1.319   4.044
59467W        W26250  26.392   5.300  12.478
59468W        W26251  24.213  40.810  14.831
59469W        W26252  29.925  15.410  14.100
59470W        W26253  30.587  33.529  11.545
59471W        W26254  35.619  41.900   4.282
59472W        W26255  24.199  31.393  12.581
59473W        W26256   8.274   2.625  12.455
59474W        W26257  37.308  26.403   0.024
59475W        W26258  20.890  20.766   3.882
59476W        W26259  19.059  18.227  14.456
59477W        W26260  15.093   0.044   0.566
59478W        W26261  20.125  38.112   3.264
59479W        W26262  24.442  28.509   4.779
59480W        W26263  41.570  31.215   2.892
59481W        W26264  15.000   4.198  14.878
59482W        W26265  11.965   2.855  14.843
59483W        W26266  25.931  28.606  10.896
59484W        W26267   8.592  31.137  11.591
59485W        W26268  13.858   2.805   0.920
59486W        W26269  19.310  20.240   0.348
59487W        W26270   3.502  21.472  13.075
59488W        W26271  33.261  22.708   2.347
59489W        W26272   3.214  36.130  13.396
59490W        W26273  19.163  37.179   3.251
59491W        W26274  22.565  13.810   2.230
59492W        W26275  29.181   8.680  12.053
59493W        W26276  17.771  20.059   1.765
59494W        W26277  36.570  30.687  10.298
59495W        W26278   0.853  10.965   4.619
59496W        W26279   5.412   4.760   2.357
59497W        W26280  39.500   9.394  12.535
59498W        W26281  36.094  42.305   2.766
59499W        W26282   4.667   1.870   0.726
59500W        W26283  41.565  29.690  11.208
59501W        W26284   8.318   1.412  10.717
59502W        W26285   8.247  18.277  14.202
59503W        W26286  27.490   7.888   3.095
59504W        W26287  25.197  39.103   0.778
59505W        W26288   2.806  23.776   1.694
59506W        W26289  15.582  11.172  11.118
59507W        W26290  14.951  44.300  11.812
59508W        W26291  11.783  31.369   4.441
59509W        W26292   5.388  36.557  12.875
59510W        W26293  14.563  34.680  10.729
59511W        W26294  37.317  17.940   0.640
59512W        W26295  29.177  30.400  13.102
59513W        W26296   7.346  42.658   0.585
59514W        W26297   2.144  33.404  10.597
59515W        W26298   6.014   0.427  11.580
59516W        W26299  40.507   2.494  10.675
59517W        W26300   9.161  26.480  13.351
59518W        W26301  31.023  16.782   1.389
59519W        W26302  17.487   0.946   2.350
59520W        W26303  29.881   5.371  14.075
59521W        W26304  38.603  16.293   3.319
59522W        W26305   5.203   8.570   0.321
59523W        W26306  32.143  25.711   3.589
59524W        W26307  38.773  37.243   3.079
59525W        W26308   6.661  11.207   1.976
59526W        W26309  14.943   5.732   1.310
59527W        W26310  41.816  19.198   4.162
59528W        W26311   0.053  27.949  14.408
59529W        W26312  28.848  24.833   3.186
59530W        W26313  27.929   2.090  13.527
59531W        W26314  39.331  11.733   1.720
59532W        W26315  41.336   9.574  14.093
59533W        W26316  34.597  18.321  11.886
59534W        W26317  13.183  41.010   4.839
59535W        W26318  30.534  13.476   3.642
59536W        W26319   7.179   0.786  12.569
59537W        W26320   9.914  27.205   1.049
59538W        W26321   8.933   6.799  11.016
59539W        W26322  33.998  32.618   3.729
59540W        W26323  20.714  43.023   0.454
59541W        W26324  27.522  32.086  12.584
59542W        W26325  18.433  17.122  12.261
59543W        W26326  13.736  42.402  14.197
59544W        W26327  29.044  23.152  14.437
59545W        W26328  38.072  20.733  10.743
59546W        W26329  16.335  38.778   0.294
59547W        W26330  10.387  28.973   1.877
59548W        W26331  18.545  38.614  14.799
59549W        W26332  19.246  32.459  13.109
59550W        W26333  28.525  41.017   3.926
59551W        W26334  40.616   3.042   3.304
59552W        W26335   5.666  14.694   3.344
59553W        W26336  23.565  11.809   2.752
59554W        W26337  27.347  17.739  13.855
59555W        W26338   4.571  27.861   0.492
59556W        W26339  31.557  38.962  12.400
59557W        W26340  16.099   0.206   1.350
59558W        W26341  39.300  25.571  11.476
59559W        W26342  20.693   8.324  11.709
59560W        W26343  29.230  14.602  11.388
59561W        W26344  21.574  42.811   4.263
59562W        W26345  25.634  38.416  14.892
59563W        W26346   3.381  38.322   4.650
59564W        W26347  22.835  38.101  14.551
59565W        W26348  18.133  39.927   1.652
59566W        W26349   9.444   4.994  11.495
59567W        W26350  44.035  26.709   0.713
59568W        W26351  43.019   9.239  13.889
59569W        W26352   2.246   5.997   4.750
59570W        W26353   3.768  34.821  11.546
59571W        W26354  40.880  34.323   0.663
59572W        W26355  36.065  26.967  10.872
59573W        W26356  11.405  44.467  12.322
59574W        W26357  34.390   7.146  12.469
59575W        W26358  43.423   0.194  14.070
59576W        W26359  12.724  35.858   3.867
59577W        W26360  43.966  34.089  14.004
59578W        W26361   8.300   4.927   3.209
59579W        W26362   6.685  34.320  14.100
59580W        W26363  40.757   6.855   4.544
59581W        W26364  18.154  36.850  13.970
59582W        W26365  22.253  14.318  13.139
59583W        W26366  21.654   4.011  13.975
59584W        W26367  25.237  16.040   1.856
59585W        W26368  12.334  42.416   4.273
59586W        W26369  27.222  42.316  12.230
59587W        W26370  39.784  25.199  10.745
59588W        W26371  25.090  28.389   4.127
59589W        W26372  40.853  15.755  10.660
59590W        W26373  16.814   0.761   3.549
59591W        W26374  26.003  37.595   4.744
59592W        W26375   8.151  25.193  11.149
59593W        W26376  29.041   0.434   0.022
59594W        W26377  35.195   7.231   4.190
59595W        W26378  37.485   4.463  10.742
59596W        W26379  16.615  16.138  11.884
59597W        W26380  12.840   8.694  12.922
59598W        W26381  35.824  32.958   3.428
59599W        W26382  37.998   5.825   4.426
59600W        W26383  16.770  12.271  10.559
59601W        W26384   0.759  13.352   5.178
59602W        W26385  30.708   5.026  13.978
59603W        W26386   8.202   5.130   3.687
59604W        W26387  26.695  20.604  12.112
59605W        W26388  34.526  30.384  11.207
59606W        W26389  11.290  33.119   2.663
59607W        W26390   0.273  24.206   3.372
59608W        W26391  30.332  44.277  14.036
59609W        W26392  32.482  39.440   4.675
59610W        W26393   9.396  15.154   1.717
59611W        W26394  23.985  14.745  11.539
59612W        W26395  35.194  26.830   3.381
59613W        W26396   1.949  14.657  14.735
59614W        W26397  35.902  26.008  11.548
59615W        W26398   0.312  10.719   2.034
59616W        W26399  30.717  40.912  13.127
59617W        W26400  38.887  44.433  10.735
59618W        W26401  40.768  11.857   3.097
59619W        W26402  36.220   5.720   1.225
59620W        W26403  28.480  24.991  14.302
59621W        W26404  32.910   1.655  12.110
59622W        W26405  14.660  34.199   1.275
59623W        W26406  21.463  29.910  12.374
59624W        W26407  33.459  22.610   5.356
59625W        W26408  41.408   1.200  13.519
59626W        W26409  19.238  25.118   0.219
59627W        W26410   0.833  35.452   4.699
59628W        W26411  10.357  20.129  13.102
59629W        W26412  40.399  39.027   2.305
59630W        W26413   3.369   1.330   4.847
59631W        W26414  34.345   2.441   2.579
59632W        W26415  42.288  14.672   3.637
59633W        W26416  23.932  35.470  14.483
59634W        W26417  37.416  35.605   3.469
59635W        W26418   6.934  35.919  12.001
59636W        W26419   2.488  24.159   0.651
59637W        W26420  15.494  38.888  12.544
59638W        W26421  23.233  35.353  11.670
59639W        W26422  17.007  18.933  10.200
59640W        W26423   0.195  32.639   1.901
59641W        W26424  28.893  10.273   1.877
59642W        W26425  39.064  23.170   0.793
59643W        W26426   5.544  18.396  12.760
59644W        W26427  42.430  14.009   3.256
59645W        W26428  23.467  26.683   0.227
59646W        W26429  42.528  19.003  10.570
59647W        W26430  24.066   3.873   0.978
59648W        W26431  31.885  34.360  13.034
59649W        W26432   8.887   6.109   4.919
59650W        W26433  21.571  17.327  11.218
59651W        W26434   1.923  16.704  12.402
59652W        W26435  41.847  17.194   0.858
59653W        W26436  34.462   4.900   4.033
59654W        W26437  19.710  40.325  10.487
59655W        W26438   9.817  20.685   3.402
59656W        W26439   9.370   0.965  13.135
59657W        W26440  24.055   6.729  11.411
59658W        W26441   5.147  30.706   3.226
59659W        W26442  29.911  43.395   0.316
59660W        W26443  10.230   3.697  12.720
59661W        W26444  13.969  35.349  12.087
59662W        W26445  34.604  40.066   4.933
59663W        W26446  35.563   8.832   0.805
59664W        W26447  28.477  26.048  11.151
59665W        W26448  40.441  23.024   1.337
59666W        W26449  32.698  34.624  14.213
59667W        W26450  29.884   2.307   0.924
59668W        W26451  20.461   3.035   0.594
59669W        W26452   8.008   5.314   4.137
59670W        W26453   6.463   9.267   0.456
59671W        W26454   1.367   3.003  14.262
59672W        W26455  13.676  20.799   3.759
59673W        W26456  25.471   7.856  13.913
59674W        W26457   6.338  14.671   3.352
59675W        W26458  44.018  32.074  10.154
59676W        W26459   8.724   8.281   1.629
59677W        W26460  23.970  11.180  14.509
59678W        W26461  15.097  13.927  13.325
59679W        W26462  35.047  17.305   0.277
59680W        W26463   6.454   7.437   1.018
59681W        W26464   0.924  22.192   3.243
59682W        W26465  31.456  13.911   4.140
59683W        W26466  14.710  28.604   0.558
59684W        W26467  10.842  28.247  12.039
59685W        W26468   4.329  25.580   4.067
59686W        W26469  12.369   2.113  11.932
59687W        W26470  26.592   7.510  12.552
59688W        W26471   9.333  12.349   2.268
59689W        W26472  16.071  44.806  10.493
59690W        W26473  22.705  38.955   2.848
59691W        W26474  43.343  11.572   2.751
59692W        W26475   8.906   4.914   4.098
59693W        W26476   8.177  13.727   3.193
59694W        W26477  20.522  29.085   2.477
59695W        W26478  12.493  15.323   1.689
59696W        W26479  11.008  24.932  12.343
59697W        W26480  42.368  12.589   0.868
59698W        W26481  38.838   8.350  12.969
59699W        W26482  17.034  21.614  11.560
59700W        W26483  10.373  15.763  10.084
59701W        W26484  26.949  25.229   4.687
59702W        W26485  32.528  18.503   2.579
59703W        W26486  35.110   1.766   1.873
59704W        W26487  21.872   6.888   3.598
59705W        W26488   1.497  36.267  14.913
59706W        W26489   9.154  43.002  13.471
59707W        W26490  17.633  44.335  12.398
59708W        W26491  42.460  24.054   4.368
59709W        W26492  40.484   8.694   3.306
59710W        W26493  32.436  24.547   2.780
59711W        W26494  41.515   9.747   2.357
59712W        W26495  27.263  39.567   0.282
59713W        W26496  31.481   5.913   3.181
59714W        W26497  39.622  36.434   2.443
59715W        W26498  35.583  18.755  13.183
59716W        W26499  16.746  22.487   4.943
59717W        W26500  26.669   8.619  14.621
59718W        W26501  12.168  38.506  11.077
59719W        W26502  16.673  15.472   1.687
59720W        W26503  40.906  39.152  13.018
59721W        W26504  26.835   8.135  13.084
59722W        W26505  35.541  22.309   1.799
59723W        W26506  44.180  17.562  12.928
59724W        W26507  24.521  21.778   0.378
59725W        W26508   3.899   0.038   0.487
59726W        W26509  24.348   7.447  12.354
59727W        W26510  26.179  29.937  11.139
59728W        W26511  37.441   2.804  13.341
59729W        W26512  39.889  26.097  12.945
59730W        W26513  37.942  16.781  12.429
59731W        W26514   2.017  30.360   5.009
59732W        W26515   9.933   3.796  13.547
59733W        W26516  38.536  24.767   3.594
59734W        W26517  27.157  17.897  12.028
59735W        W26518  11.193  40.506  14.932
59736W        W26519   5.804  36.751   1.993
59737W        W26520  31.943   7.909  10.525
59738W        W26521  41.553   8.672   0.500
59739W        W26522  39.800   2.779   0.337
59740W        W26523  23.269  12.170   1.757
59741W        W26524  36.051  33.654   1.707
59742W        W26525  38.862  11.298  14.573
59743W        W26526   3.259  13.379   2.148
59744W        W26527  31.038  29.502  11.619
59745W        W26528  27.648  26.384   1.842
59746W        W26529   7.155   5.871  12.365
59747W        W26530  22.514  23.709   4.071
59748W        W26531  43.858   8.201  13.281
59749W        W26532  13.855  25.513   3.345
59750W        W26533  39.819  21.021   3.694
59751W        W26534  38.216  23.256   0.555
59752W        W26535  20.066  13.382   0.900
59753W        W26536   6.183  19.790   5.088
59754W        W26537  44.895  26.604   0.322
59755W        W26538   4.523   3.288   3.317
59756W        W26539  24.828  16.413  11.101
59757W        W26540  41.326  30.060   3.127
59758W        W26541  30.053  14.089   1.944
59759W        W26542  31.160  26.817   1.586
59760W        W26543  29.616  44.473  12.566
59761W        W26544  24.150   8.827  10.153
59762W        W26545  35.615   9.659  13.379
59763W        W26546  12.179  43.914  12.774
59764W        W26547  43.241  15.638   2.837
59765W        W26548  33.938  18.696   2.717
59766W        W26549  34.862  21.770   2.000
59767W        W26550  14.325  44.185   2.773
59768W        W26551  29.046  35.668  12.733
59769W        W26552  13.857  22.823  12.622
59770W        W26553  30.699   6.846  11.071
59771W        W26554  42.513  29.199  14.876
59772W        W26555  11.413  28.858   0.509
59773W        W26556  20.188  23.163  12.119
59774W        W26557   1.557   9.336   1.669
59775W        W26558   8.482  35.599   0.403
59776W        W26559   7.388  31.579   0.934
59777W        W26560  21.428  17.073  13.272
59778W        W26561  10.209  38.079  10.985
59779W        W26562  32.127  33.360  10.564
59780W        W26563  28.503   2.745   0.811
59781W        W26564  12.571  37.750   0.142
59782W        W26565  11.629  43.168   1.027
59783W        W26566  11.816  23.445  10.838
59784W        W26567  11.200  13.184   0.255
59785W        W26568  11.147  39.799   3.837
59786W        W26569  16.524  36.780   4.033
59787W        W26570   5.403  13.346  14.760
59788W        W26571   8.305  37.054   0.211
59789W        W26572   2.913  40.471  13.331
59790W        W26573  11.405  32.367   2.190
59791W        W26574  43.121  33.855  14.889
59792W        W26575   2.940  11.407   2.312
59793W        W26576  20.572  31.099   4.596
59794W        W26577  39.801  14.605  11.174
59795W        W26578  24.650   0.263  14.418
59796W        W26579   0.772   4.879  12.619
59797W        W26580  43.887   5.602   3.212
59798W        W26581  25.013  29.479  11.395
59799W        W26582   8.182  20.052  12.515
59800W        W26583  33.944  20.474  13.340
59801W        W26584  21.177   4.077  11.172
59802W        W26585  33.977  25.191  14.759
59803W        W26586  33.191  25.961   1.418
59804W        W26587  22.653  42.311  12.550
59805W        W26588  43.844  10.773   2.857
59806W        W26589   1.231  32.181   1.295
59807W        W26590   7.987  22.850  10.258
59808W        W26591  17.621   6.758   4.193
59809W        W26592  37.296  38.510  12.577
59810W        W26593  30.863  33.942  14.769
59811W        W26594  10.357   6.945   3.688
59812W        W26595  31.727  35.558  14.090
59813W        W26596  37.783  17.770  11.925
59814W        W26597  41.231  41.753   2.875
59815W        W26598  23.099  28.042  14.916
59816W        W26599  25.556  12.403  10.725
59817W        W26600  27.625  22.056  11.246
59818W        W26601   0.633  17.733  13.793
59819W        W26602  13.834  40.943   3.713
59820W        W26603  29.794   1.424  11.529
59821W        W26604   1.188  33.386   2.578
59822W        W26605  32.953  38.483   4.342
59823W        W26606  10.805  42.139  12.328
59824W        W26607  41.100   7.557  11.123
59825W        W26608  36.992   9.388  12.455
59826W        W26609  11.065  38.154   2.958
59827W        W26610  42.418  36.284  14.604
59828W        W26611  42.319  23.121  11.414
59829W        W26612  37.573   9.028   4.980
59830W        W26613  36.030  26.505   3.336
59831W        W26614  16.452  25.770  13.869
59832W        W26615  17.746   0.389  14.940
59833W        W26616   4.860  24.107  11.574
59834W        W26617  26.716  27.938   4.129
59835W        W26618  19.687  15.259  12.135
59836W        W26619   3.872   2.008  10.661
59837W        W26620  21.769  25.036  10.206
59838W        W26621  32.079  11.460   2.252
59839W        W26622  14.740   7.128   3.878
59840W        W26623  27.663  36.134  11.894
59841W        W26624  40.475  26.103  10.699
59842W        W26625   5.898  24.722  10.564
59843W        W26626  28.174  25.114  13.440
59844W        W26627   6.929  40.317   4.610
59845W        W26628  19.466  41.817   1.366
59846W        W26629  13.093  17.261   2.831
59847W        W26630  15.623  24.325   1.686
59848W        W26631  12.361   5.431  13.373
59849W        W26632   4.151  14.745  13.979
59850W        W26633   6.396  37.024   4.642
59851W        W26634  19.985  15.523   2.741
59852W        W26635   6.175  35.554   4.755
59853W        W26636  19.648  21.241  13.337
59854W        W26637  25.279   8.344   3.216
59855W        W26638  32.685   2.752   0.957
59856W        W26639  42.901  18.118   0.279
59857W        W26640  22.074  43.100  12.309
59858W        W26641   5.541  28.141   2.631
59859W        W26642   3.359  39.789  11.955
59860W        W26643  41.823  42.896  11.950
59861W        W26644  22.565  31.039  10.720
59862W        W26645  26.562   6.012  12.461
59863W        W26646   8.424  18.721  12.939
59864W        W26647   0.964  26.960   0.320
59865W        W26648  31.583  22.768  12.506
59866W        W26649   6.760  19.195  12.672
59867W        W26650   8.304   6.121   4.612
59868W        W26651  20.495  17.841   1.343
59869W        W26652  39.864  27.540  14.087
59870W        W26653  17.018  36.440  10.172
59871W        W26654  38.147  31.412  13.872
59872W        W26655  20.641  26.722  14.478
59873W        W26656  16.317  24.502   3.778
59874W        W26657  14.601  28.216   4.550
59875W        W26658   5.524  15.574  12.895
59876W        W26659  18.157  42.867   0.792
59877W        W26660   7.143   8.701   0.420
59878W        W26661  10.872  40.336  12.080
59879W        W26662   1.751  13.963  11.576
59880W        W26663  17.343  15.693   3.432
59881W        W26664  12.606   2.817   0.415
59882W        W26665  17.359  20.586   4.130
59883W        W26666  35.117   7.161  12.134
59884W        W26667  36.090  18.712  10.556
59885W        W26668  15.662  22.072  14.548
59886W        W26669  37.380   0.288  13.027
59887W        W26670  15.565   0.242   0.750
59888W        W26671  31.756  37.783   4.103
59889W        W26672   5.058  12.944   2.174
59890W        W26673  24.162  26.055  11.987
59891W        W26674  33.964  33.684   4.630
59892W        W26675   0.546   7.083   3.744
59893W        W26676  12.263   1.325  14.263
59894W        W26677  23.528  37.375   3.220
59895W        W26678  23.430  33.304   2.754
59896W        W26679  18.666  19.043   0.752
59897W        W26680   3.332  16.208  13.769
59898W        W26681  22.062  17.042   3.390
59899W        W26682  28.502   3.894   4.619
59900W        W26683  16.964   1.461  11.056
59901W        W26684  13.211  26.663   4.813
59902W        W26685   1.023  31.117   3.685
59903W        W26686  36.498  32.963  14.546
59904W        W26687   1.072  32.663   0.459
59905W        W26688  14.383  27.491  12.347
59906W        W26689  42.763   9.198  14.349
59907W        W26690  38.380  19.649  12.198
59908W        W26691  32.936  30.683   2.866
59909W        W26692  24.224   9.244  14.864
59910W        W26693  20.732  43.334   3.264
59911W        W26694  43.573   6.111  13.892
59912W        W26695  23.726  37.494  12.178
59913W        W26696  22.533  19.409  13.450
59914W        W26697  19.071  42.882   4.087
59915W        W26698  27.527   5.226  10.952
59916W        W26699  23.596   4.332  12.193
59917W        W26700  16.430  23.612   0.255
59918W        W26701  44.428  35.587   4.843
59919W        W26702   6.676  28.583   0.231
59920W        W26703  23.919  42.493  12.461
59921W        W26704  44.779  31.236   4.194
59922W        W26705   4.221  37.153   0.614
59923W        W26706  21.559   6.105   1.774
59924W        W26707  24.518  30.183  13.024
59925W        W26708  19.395  30.109  13.454
59926W        W26709  14.125  25.835   2.732
59927W        W26710  11.499   5.690  14.443
59928W        W26711  14.142  39.277  13.053
59929W        W26712   9.249  20.872  12.903
59930W        W26713   7.954  26.977   1.340
59931W        W26714  12.288  36.451  10.288
59932W        W26715  10.761  25.931  11.527
59933W        W26716  30.104  16.346  11.360
59934W        W26717   1.438  35.820   4.087
59935W        W26718  21.332  33.316   2.591
59936W        W26719  17.827  36.724   5.007
59937W        W26720  15.762  12.691  10.070
59938W        W26721  28.434  34.545  12.921
59939W        W26722   2.652  12.673  10.725
59940W        W26723  21.675  13.432  13.309
59941W        W26724  24.650  21.471   0.808
59942W        W26725  11.248  26.512  13.288
59943W        W26726  13.756  28.903   4.341
59944W        W26727   6.497  32.665   4.494
59945W        W26728   0.538   1.482   3.290
59946W        W26729  12.817  21.887  14.971
59947W        W26730  40.474  27.530  14.284
59948W        W26731  42.239   5.132   3.682
59949W        W26732   2.783   0.191   4.030
59950W        W26733  37.627  26.998  12.794
59951W        W26734  15.857  35.429   1.253
59952W        W26735   9.606  36.311   1.425
59953W        W26736  33.888  37.614  11.121
59954W        W26737  17.337   3.450   2.509
59955W        W26738  40.003  28.108   4.312
59956W        W26739  41.803   3.515   3.767
59957W        W26740  36.311  12.534  12.208
59958W        W26741   7.343  34.854  11.557
59959W        W26742  25.462  23.493   3.750
59960W        W26743  13.278  38.452  11.058
59961W        W26744  12.716  38.128  10.706
59962W        W26745  24.214  11.428  11.071
59963W        W26746  13.304   7.463  13.306
59964W        W26747  21.685  22.155   0.238
59965W        W26748  22.207  22.653   3.187
59966W        W26749  39.083  28.942  14.818
59967W        W26750  11.061   6.312  11.098
59968W        W26751  44.927  36.976   1.349
59969W        W26752  27.439  28.620   1.194
59970W        W26753  36.509  35.384   1.475
59971W        W26754  35.904  31.093   1.937
59972W        W26755  10.235   4.953   1.972
59973W        W26756  37.836  36.832  10.407
59974W        W26757  13.046  13.209  14.389
59975W        W26758  44.183  26.087   4.116
59976W        W26759  41.272  18.780  10.785
59977W        W26760   8.202  17.127   3.181
59978W        W26761  28.832  25.647  11.117
59979W        W26762  14.115  18.678  12.513
59980W        W26763  18.235  22.570   2.835
59981W        W26764  31.572  44.193   4.695
59982W        W26765   1.802  13.082   4.464
59983W        W26766   1.759   6.035  12.867
59984W        W26767   7.670  39.757  13.602
59985W        W26768  40.839  24.088  11.399
59986W        W26769  19.818  21.230  11.472
59987W        W26770  26.226  10.916   0.362
59988W        W26771   9.429   3.937  13.484
59989W        W26772   4.201  15.100  14.354
59990W        W26773  25.665  41.638  14.858
59991W        W26774  20.094  42.300   2.209
59992W        W26775   9.617  36.321  11.023
59993W        W26776   4.364   0.535  12.051
59994W        W26777  29.951  36.589   2.677
59995W        W26778  15.734  23.731  10.735
59996W        W26779   9.576  34.859  14.006
59997W        W26780   1.155   5.411  11.098
59998W        W26781  43.682  11.678  11.881
59999W        W26782  27.086   2.391  13.456
60000W        W26783   4.232  39.002  13.907
60001W        W26784   3.805  27.029  10.872
60002W        W26785  40.810  40.450   2.329
60003W        W26786   2.767  22.174  11.642
60004W        W26787   4.374   8.749  14.256
60005W        W26788  17.048  32.404   2.077
60006W        W26789   9.179  21.881   1.304
60007W        W26790  39.400   0.733   0.778
60008W        W26791  19.626  44.543  13.032
60009W        W26792   8.239   2.026   3.812
60010W        W26793  11.766   3.127  10.585
60011W        W26794  21.730  31.494  10.628
60012W        W26795  20.591  13.836  14.696
60013W        W26796  12.629  18.598  12.007
60014W        W26797  19.796  42.781   0.919
60015W        W26798  28.038  36.843   4.075
60016W        W26799  41.347  36.429  14.427
60017W        W26800   3.339  20.945  12.983
60018W        W26801  15.780  14.129   4.731
60019W        W26802  26.076  16.847   3.102
60020W        W26803  17.402  44.313   0.684
60021W        W26804  37.624  31.988  13.166
60022W        W26805   6.750   0.531  11.814
60023W        W26806  23.031   8.150  11.192
60024W        W26807  26.975  14.387  11.447
60025W        W26808  18.841   0.140  11.600
60026W        W26809  19.754  17.498   2.461
60027W        W26810   2.781  18.756  12.942
60028W        W26811  40.572  26.214  14.004
60029W        W26812   6.892   4.985  11.405
60030W        W26813  20.536   5.694   4.096
60031W        W26814  18.518   9.896  14.807
60032W        W26815  34.622  27.200   2.744
60033W        W26816  12.103   1.746  11.663
60034W        W26817  29.875  37.348  12.525
60035W        W26818   9.196  24.142   3.148
60036W        W26819  32.056   8.896   3.782
60037W        W26820  32.383  15.758  14.385
60038W        W26821  41.915  31.084  10.462
60039W        W26822  33.120  42.400  12.012
60040W        W26823  27.023  27.127  10.668
60041W        W26824  32.997   2.431   2.434
60042W        W26825  32.518  28.878  12.940
60043W        W26826  37.449  15.540  14.426
60044W        W26827  26.441   1.844  11.499
60045W        W26828  42.480  15.859  12.915
60046W        W26829  17.014   5.538   3.677
60047W        W26830  25.076  33.016  10.618
60048W        W26831  38.333  28.683   0.855
60049W        W26832  25.001  17.021  14.579
60050W        W26833  44.296  37.205   2.226
60051W        W26834  44.269  37.907   0.480
60052W        W26835  10.115   3.257   1.175
60053W        W26836  27.461  26.733   4.988
60054W        W26837  33.648   4.094  11.102
60055W        W26838  35.213  17.721  12.441
60056W        W26839  12.804  14.111  11.467
60057W        W26840   9.644  20.731  10.381
60058W        W26841   3.994  17.128  14.791
60059W        W26842  33.948  27.875  14.848
60060W        W26843   4.760  42.555   0.817
60061W        W26844   2.326  39.545   0.379
60062W        W26845  33.908  40.351   0.218
60063W        W26846  13.737  22.160   1.558
60064W        W26847  34.724  33.953  12.945
60065W        W26848  25.209  12.311  12.506
60066W        W26849  12.745  10.169   0.526
60067W        W26850   1.439   0.383   4.305
60068W        W26851  33.369   0.533   4.775
60069W        W26852  12.005  35.439   2.168
60070W        W26853  23.939  38.497   0.225
60071W        W26854  25.465  15.111   0.808
60072W        W26855  37.944   6.436  12.006
60073W        W26856  41.817  22.703  10.641
60074W        W26857  30.520  17.345   3.345
60075W        W26858  41.317  18.278   2.218
60076W        W26859  36.033  29.385   0.290
60077W        W26860  24.537  36.310   3.101
60078W        W26861   0.284   9.382   3.731
60079W        W26862  36.928  27.490   1.318
60080W        W26863  33.114  12.869  10.647
60081W        W26864   8.354  29.379   0.167
60082W        W26865   7.381  41.079  13.640
60083W        W26866  13.858  40.787   2.247
60084W        W26867   5.688  27.597  12.702
60085W        W26868   8.853  11.935  10.583
60086W        W26869  14.792  10.771  12.451
60087W        W26870   4.789  15.496   1.813
60088W        W26871  29.141   0.246  12.972
60089W        W26872  12.196  33.149   0.191
60090W        W26873  31.005  41.457  13.403
60091W        W26874  23.008  23.346  12.055
60092W        W26875  33.618  25.659   4.543
60093W        W26876  18.748  34.631   4.970
60094W        W26877  31.383  23.738   4.602
60095W        W26878  16.564   5.161  10.640
60096W        W26879  25.782  28.138   2.202
60097W        W26880  41.713  10.802  11.033
60098W        W26881  43.166   0.196   2.037
60099W        W26882  26.241  42.366  10.790
60100W        W26883  39.314  36.522  11.152
60101W        W26884  18.862  36.971  14.729
60102W        W26885  41.332  11.280   1.244
60103W        W26886  16.315  40.326  11.617
60104W        W26887  38.715  29.864   0.042
60105W        W26888  33.602  26.619  13.065
60106W        W26889   6.357  18.473   1.172
60107W        W26890  29.987  16.161   4.146
60108W        W26891  24.600  36.942  11.409
60109W        W26892   5.232  43.461  12.377
60110W        W26893  44.507  33.839   0.900
60111W        W26894  26.834   6.332  12.046
60112W        W26895   7.901  30.466  12.038
60113W        W26896  25.049   0.204  11.417
60114W        W26897   4.360  27.018  12.116
60115W        W26898  40.783   6.432  12.159
60116W        W26899  15.212  43.519  12.157
60117W        W26900  21.002  22.655   1.224
60118W        W26901  39.899   8.306  10.957
60119W        W26902  35.840  42.074  11.098
60120W        W26903  15.572  20.184  12.840
60121W        W26904   1.213  42.643  14.002
60122W        W26905  14.689  33.662   0.258
60123W        W26906  44.433  11.854  14.767
60124W        W26907   5.680  38.799   3.646
60125W        W26908  27.638   3.993   2.352
60126W        W26909  23.485   3.022  12.501
60127W        W26910  22.144  35.828  13.279
60128W        W26911  38.080  33.573  11.138
60129W        W26912  15.219  11.842   1.448
60130W        W26913  38.453   4.714   4.327
60131W        W26914   5.785  18.922  11.932
60132W        W26915  30.561  26.748   3.114
60133W        W26916  37.050  33.125   3.021
60134W        W26917  27.153   3.341  13.873
60135W        W26918  21.176  10.819   2.234
60136W        W26919  29.998   4.105  11.544
60137W        W26920  43.278  41.090   1.341
60138W        W26921  44.413  10.471  13.177
60139W        W26922  31.006  30.130  14.282
60140W        W26923  40.267  23.314  11.729
60141W        W26924  11.748  29.268   0.591
60142W        W26925   3.912   7.653  11.421
60143W        W26926  21.915   5.323  12.060
60144W        W26927  21.220  29.172   4.624
60145W        W26928  32.114   4.365   3.673
60146W        W26929   8.663  12.132   2.733
60147W        W26930  20.727  37.812   0.415
60148W        W26931   8.717  37.805   3.273
60149W        W26932  35.141   9.733  10.582
60150W        W26933  13.005  36.533  11.464
60151W        W26934  13.666  26.055   1.200
60152W        W26935  38.146   8.122   5.076
60153W        W26936  14.753  34.137  14.377
60154W        W26937  25.218  35.092  12.960
60155W        W26938  41.618  32.177   4.109
60156W        W26939  22.180  29.875   2.176
60157W        W26940  24.146  10.154   4.637
60158W        W26941  32.564   8.435  11.122
60159W        W26942  18.737   3.515  10.639
60160W        W26943  20.165  30.604  11.988
60161W        W26944  18.267  29.581   0.394
60162W        W26945   7.853   5.981   1.154
60163W        W26946  11.111  35.325   3.194
60164W        W26947   4.982   5.332   4.259
60165W        W26948   8.563  38.149  11.689
60166W        W26949  27.464  31.612   0.878
60167W        W26950  41.824  24.721   2.413
60168W        W26951  32.450   9.168   4.497
60169W        W26952  32.381  36.410  11.705
60170W        W26953  18.286  42.769  12.979
60171W        W26954   0.889  29.052  10.695
60172W        W26955  41.367  17.284  11.636
60173W        W26956   2.401  28.907  13.619
60174W        W26957  38.806  22.630   1.994
60175W        W26958   6.166   9.898   2.225
60176W        W26959  36.779   7.505   1.202
60177W        W26960   9.706  10.571   0.784
60178W        W26961  37.539  40.988   1.905
60179W        W26962  24.241  10.911  11.064
60180W        W26963  40.585  10.168   4.919
60181W        W26964  42.533  44.889  12.480
60182W        W26965   5.811  16.762   2.397
60183W        W26966  26.764   3.335   3.211
60184W        W26967  31.050  15.893  14.267
60185W        W26968  16.160  13.645  12.380
60186W        W26969  44.359   2.303  12.556
60187W        W26970   0.013   0.969  13.554
60188W        W26971   6.249   6.690   3.309
60189W        W26972  14.672  15.836   4.179
60190W        W26973  13.833   5.022   0.046
60191W        W26974   4.720  34.048  10.386
60192W        W26975  26.059  17.932   0.911
60193W        W26976  32.563   8.984   3.200
60194W        W26977  16.808  44.093   1.268
60195W        W26978  13.552  13.058  12.595
60196W        W26979  17.564  10.773  11.395
60197W        W26980   5.893  12.194   2.254
60198W        W26981   3.893  38.923   2.047
60199W        W26982  27.958   5.492  14.596
60200W        W26983  11.706  43.527  10.646
60201W        W26984  30.164  44.764   3.502
60202W        W26985  30.990  25.580  13.384
60203W        W26986  25.252  22.140   3.791
60204W        W26987   5.278  17.617  11.374
60205W        W26988  35.070  10.796   0.377
60206W        W26989  30.592  11.246  12.069
60207W        W26990  13.668  26.519  14.508
60208W        W26991  41.168  17.294   2.348
60209W        W26992  36.417  36.560  10.711
60210W        W26993  39.017  13.417   5.097
60211W        W26994   6.562   2.958   2.127
60212W        W26995  36.023  30.722   1.597
60213W        W26996   5.405  25.428   2.842
60214W        W26997  24.597   4.878  11.773
60215W        W26998  44.847   0.497  12.024
60216W        W26999  24.752  44.747  10.753
60217W        W27000  25.712  16.988  11.033
60218W        W27001  42.978  27.000   3.174
60219W        W27002  44.950  15.603  12.147
60220W        W27003  21.559  23.095   4.552
60221W        W27004  39.772  39.319  11.411
60222W        W27005  22.083   7.403   4.317
60223W        W27006  11.268  15.323   1.158
60224W        W27007  33.972  29.212   4.646
60225W        W27008  16.765  20.483  13.232
60226W        W27009  19.797  26.005   0.587
60227W        W27010   4.213  36.348  10.678
60228W        W27011  14.714  28.664  11.267
60229W        W27012  22.028   8.800  14.857
60230W        W27013  35.880  14.066  13.057
60231W        W27014   9.877  44.762  13.528
60232W        W27015   4.662  10.188  11.927
60233W        W27016  11.199  25.011   1.211
60234W        W27017   4.921  21.157   3.706
60235W        W27018   9.570  37.265   4.072
60236W        W27019  11.669  20.940   2.713
60237W        W27020  33.629   2.346  13.021
60238W        W27021  35.440   1.706   0.231
60239W        W27022  10.639  29.026  12.487
60240W        W27023  14.937   5.371  14.515
60241W        W27024  21.317   7.761   3.697
60242W        W27025  24.925  38.363  14.781
60243W        W27026  35.261  23.451  14.521
60244W        W27027  34.093   6.264  13.852
60245W        W27028  24.934  31.378   0.854
60246W        W27029  11.887  34.518  11.245
60247W        W27030  33.294  17.336   0.185
60248W        W27031  42.545  35.033  14.381
60249W        W27032   2.492  18.278  11.280
60250W        W27033  13.934  14.708   4.921
60251W        W27034   7.857   9.727   4.356
60252W        W27035  19.021  32.654   4.158
60253W        W27036  27.075  13.855   2.348
60254W        W27037  32.443  18.704  11.363
60255W        W27038  40.369  13.034  13.025
60256W        W27039  15.776  33.520  11.524
60257W        W27040  34.589  23.650  13.601
60258W        W27041   5.482  20.144   3.145
60259W        W27042  40.671  36.877   3.709
60260W        W27043   8.772  11.202   2.776
60261W        W27044  15.722  20.946   1.863
60262W        W27045   2.377  41.197  11.933
60263W        W27046  28.056   5.896   4.774
60264W        W27047  29.529  34.218   4.754
60265W        W27048  41.381   2.209   3.499
60266W        W27049  26.245   1.753  11.019
60267W        W27050  39.263  33.887   3.656
60268W        W27051   9.503  14.797  13.989
60269W        W27052  13.578  39.433   2.745
60270W        W27053  43.351  27.099   0.847
60271W        W27054   6.893  40.475  13.429
60272W        W27055  27.096  42.248  10.529
60273W        W27056  15.614   2.808   0.430
60274W        W27057  29.659  25.893   2.892
60275W        W27058  43.972  10.166  13.930
60276W        W27059  17.130  35.801  12.061
60277W        W27060  31.466  37.982  13.838
60278W        W27061  39.326   5.694  13.322
60279W        W27062  15.104  41.902   1.221
60280W        W27063  35.539  11.781  13.109
60281W        W27064   1.984   7.903   1.886
60282W        W27065  13.695  12.878  12.018
60283W        W27066  24.212  34.571  12.975
60284W        W27067  35.126   3.606  13.545
60285W        W27068  34.900  40.917  10.608
60286W        W27069  25.883  18.439   1.829
60287W        W27070   4.883  38.420  14.741
60288W        W27071  16.160  29.365  13.961
60289W        W27072   3.627  41.373  14.862
60290W        W27073  13.610   5.246   1.701
60291W        W27074  44.703  18.077   1.281
60292W        W27075  10.584  42.827  13.738
60293W        W27076  14.610  15.341   0.494
60294W        W27077  19.262  20.779   0.341
60295W        W27078  11.322  42.013  11.617
60296W        W27079  15.308  44.867  12.090
60297W        W27080  14.871  41.933   1.695
60298W        W27081  16.180   9.901   0.322
60299W        W27082   3.430  12.706   3.305
60300W        W27083  43.510   2.018   3.158
60301W        W27084   7.793   7.195  13.007
60302W        W27085  31.176  17.609  10.711
60303W        W27086  43.299  24.680   2.719
60304W        W27087   7.890  40.699  13.438
60305W        W27088  28.068  39.933  11.996
60306W        W27089  41.859  42.796   3.001
60307W        W27090  32.743  20.207  11.916
60308W        W27091   6.515  18.407   5.155
60309W        W27092  34.020  42.424   2.843
60310W        W27093  21.323  12.412   1.412
60311W        W27094  25.174  14.775   2.469
60312W        W27095  17.360  26.695  10.286
60313W        W27096   7.731   0.308  10.811
60314W        W27097  15.330  14.796  12.023
60315W        W27098  25.391   5.622   0.791
60316W        W27099  14.735  24.239   0.484
60317W        W27100  42.283  37.866   2.803
60318W        W27101   6.630   4.723  12.281
60319W        W27102  39.510  33.948   3.201
60320W        W27103  28.025   5.251   3.127
60321W        W27104  29.763  24.027   4.412
60322W        W27105  11.261  38.644   2.221
60323W        W27106  44.761  39.603   0.645
60324W        W27107  22.915  15.432   4.554
60325W        W27108   5.288  17.485  11.881
60326W        W27109  25.636   2.760  11.754
60327W        W27110   7.149  15.208   2.363
60328W        W27111   1.819  38.154  11.638
60329W        W27112  37.648  10.779   1.936
60330W        W27113  28.787  16.234  14.944
60331W        W27114  39.606  37.875  10.786
60332W        W27115  31.570   7.309   2.582
60333W        W27116  41.808   2.029  10.004
60334W        W27117  41.419  12.688   4.076
60335W        W27118  15.281   8.977   3.421
60336W        W27119  20.233  17.893   4.269
60337W        W27120  20.598  12.800  13.268
60338W        W27121  33.409  37.234  13.369
60339W        W27122   0.370  36.907  11.129
60340W        W27123  16.510  43.819   2.200
60341W        W27124  32.123  11.870  12.524
60342W        W27125  25.002  36.002   2.156
60343W        W27126  27.637  21.474  14.957
60344W        W27127  39.867  12.832   3.305
60345W        W27128  17.190  24.985  10.649
60346W        W27129  25.421  32.060  11.324
60347W        W27130  17.033   9.355  12.021
60348W        W27131  38.880   3.912  10.540
60349W        W27132  38.407  12.085  10.678
60350W        W27133  41.115  25.220  12.243
60351W        W27134  18.636   5.019   4.595
60352W        W27135  31.860  22.962   3.265
60353W        W27136   2.413  35.506   1.782
60354W        W27137  34.331  14.425  12.996
60355W        W27138  30.149   7.184  10.702
60356W        W27139   1.304  42.211  11.563
60357W        W27140  44.315  18.706   0.470
60358W        W27141  23.581  28.914  12.826
60359W        W27142   2.695  44.489  11.067
60360W        W27143  12.511  25.992  12.042
60361W        W27144  11.691   8.896  12.896
60362W        W27145   8.880   2.295  10.666
60363W        W27146  34.893   4.205   1.238
60364W        W27147  11.243   6.883   2.173
60365W        W27148  32.124  17.087  11.070
60366W        W27149  38.290  38.680   3.939
60367W        W27150  14.300   1.886   1.026
60368W        W27151  42.439  33.388   2.753
60369W        W27152  23.986   9.220   0.314
60370W        W27153   3.313  20.064  12.622
60371W        W27154  24.359  43.838  13.490
60372W        W27155   8.000   4.328  12.503
60373W        W27156  32.023   9.872   3.869
60374W        W27157  39.871  36.091  11.565
60375W        W27158  35.606  17.423   3.067
60376W        W27159   2.424  37.928  14.417
60377W        W27160  33.117  40.369  12.075
60378W        W27161  18.823  44.733   0.393
60379W        W27162   2.796  36.908   0.271
60380W        W27163  17.252  37.923  11.478
60381W        W27164  19.524  11.941   2.117
60382W        W27165  32.527  34.884  11.919
60383W        W27166  35.552  43.472  14.363
60384W        W27167  10.278   2.968   4.318
60385W        W27168   2.957   9.266  11.872
60386W        W27169  21.084   7.891   1.947
60387W        W27170   7.000  15.271   3.263
60388W        W27171  35.686  27.044   4.683
60389W        W27172  35.064  36.200   1.255
60390W        W27173  23.237  29.129  13.841
60391W        W27174  23.070  25.694   2.428
60392W        W27175  22.740  30.318  14.272
60393W        W27176   8.231  41.445   1.791
60394W        W27177  38.770  30.060   4.688
60395W        W27178  31.974  18.094  13.123
60396W        W27179  43.571  10.286   9.746
60397W        W27180  25.022  20.801  12.593
60398W        W27181  28.198  37.050  14.347
60399W        W27182  36.598  41.276   0.377
60400W        W27183   9.684  35.906  14.309
60401W        W27184  33.800   5.876   3.911
60402W        W27185   2.475  35.643  12.984
60403W        W27186  33.386  17.623   0.934
60404W        W27187  37.917  17.837  13.317
60405W        W27188  31.729   2.155   1.377
60406W        W27189  22.138   4.377   1.051
60407W        W27190  23.205  22.970   2.626
60408W        W27191   7.408  41.356   2.435
60409W        W27192  29.969  34.039   2.964
60410W        W27193  41.871  19.943  11.935
60411W        W27194  31.515  31.120  11.991
60412W        W27195  40.821  43.515  12.454
60413W        W27196  29.372   7.253  11.972
60414W        W27197  19.025  33.055  14.923
60415W        W27198  27.666  34.097  11.417
60416W        W27199   4.214  26.818  11.656
60417W        W27200  44.269  41.121   2.246
60418W        W27201  28.196  24.131  12.418
60419W        W27202  10.346  36.024  12.482
60420W        W27203  22.016   8.695  12.601
60421W        W27204  13.484  16.775  13.446
60422W        W27205   4.964   9.399  10.956
60423W        W27206  16.550  11.913   0.769
60424W        W27207  25.058  34.491  13.820
60425W        W27208  26.810  40.531  12.512
60426W        W27209   9.295  23.177   4.884
60427W        W27210  31.239  40.468  13.475
60428W        W27211  24.994  30.512   0.402
60429W        W27212  26.003  43.066  14.488
60430W        W27213  30.798  27.484   3.762
60431W        W27214   1.746  31.912   3.640
60432W        W27215  42.695  11.623  13.325
60433W        W27216  16.005  21.486   3.734
60434W        W27217  23.135  23.496  14.914
60435W        W27218  23.785  27.941   2.650
60436W        W27219  39.308  16.126   3.023
60437W        W27220  21.450   9.317  13.568
60438W        W27221   0.377  41.505   0.965
60439W        W27222  20.788   7.205   2.639
60440W        W27223  12.681  13.096  10.735
60441W        W27224  22.117   3.564  13.299
60442W        W27225  16.379  37.571  13.057
60443W        W27226  11.210   5.639   4.569
60444W        W27227  13.417  41.607  12.531
60445W        W27228   3.372   7.868   4.109
60446W        W27229  24.843  27.796  12.126
60447W        W27230  41.921  22.830   2.759
60448W        W27231  20.434  31.199  13.415
60449W        W27232   8.315  26.541   2.302
60450W        W27233  34.616  24.128   4.640
60451W        W27234  35.031  32.870  11.568
60452W        W27235   4.342  12.887   4.586
60453W        W27236  39.986   5.683  13.355
60454W        W27237   7.743  38.861  10.657
60455W        W27238  40.067  31.444  10.922
60456W        W27239  29.037  18.863  13.440
60457W        W27240   1.951  24.204   3.713
60458W        W27241  44.280  17.597   2.826
60459W        W27242  11.058  31.602   3.872
60460W        W27243  24.030   2.785  13.476
60461W        W27244  22.702  15.790   3.266
60462W        W27245  42.600   1.882   2.912
60463W        W27246  33.389  35.443   2.757
60464W        W27247  20.990  19.025  13.404
60465W        W27248  39.412  40.984  13.454
60466W        W27249  33.285   0.385  11.085
60467W        W27250  37.840  15.671  13.436
60468W        W27251  13.398  34.099   2.752
60469W        W27252  20.839   0.762   1.950
60470W        W27253  16.919  25.459  10.713
60471W        W27254   8.731  30.029  12.071
60472W        W27255  20.908  23.765  10.392
60473W        W27256  12.931  33.588  14.100
60474W        W27257  32.007   6.939   0.987
60475W        W27258  17.541  21.065  11.060
60476W        W27259   9.390  37.688   1.583
60477W        W27260  16.807  32.152   0.849
60478W        W27261  40.827  18.279  14.888
60479W        W27262  44.557   4.731   4.082
60480W        W27263  18.837   2.935  14.817
60481W        W27264  39.614  30.553   1.310
60482W        W27265  24.952  27.768  10.895
60483W        W27266  31.937  23.013   2.380
60484W        W27267   6.749  18.224   3.591
60485W        W27268  10.107  42.933   4.100
60486W        W27269  29.019  18.581  10.725
60487W        W27270  26.842  22.879   5.033
60488W        W27271  21.019   8.255   4.804
60489W        W27272  33.596   4.627   4.572
60490W        W27273  31.001   6.110   4.057
60491W        W27274   8.153   5.242  10.936
60492W        W27275   5.736  10.441   1.677
60493W        W27276   5.334   7.241  12.050
60494W        W27277  42.941  21.089  13.468
60495W        W27278  37.951   7.791  11.036
60496W        W27279  14.549  36.327   4.132
60497W        W27280  16.110   8.719  14.453
60498W        W27281  32.853  26.062  11.162
60499W        W27282   4.326  21.836   4.123
60500W        W27283  38.845  32.433   1.157
60501W        W27284   7.129  13.674  10.674
60502W        W27285  31.574  40.540  12.159
60503W        W27286  18.348  27.085   4.652
60504W        W27287  19.580  44.515   4.642
60505W        W27288  41.535  12.482   5.557
60506W        W27289  25.835   6.266   3.761
60507W        W27290  16.289  18.061   2.806
60508W        W27291   1.755  12.102   3.276
60509W        W27292  11.148  40.794   2.738
60510W        W27293  18.611  44.695  14.495
60511W        W27294  20.517  34.972   2.849
60512W        W27295  43.285   6.761  10.269
60513W        W27296   4.412   6.643   3.692
60514W        W27297  32.601  21.483   2.619
60515W        W27298  36.624  21.204  11.645
60516W        W27299   0.812  28.403   3.115
60517W        W27300  15.676   6.696   0.655
60518W        W27301  24.465   4.077   4.243
60519W        W27302  18.715  22.614   3.639
60520W        W27303  25.999  16.228   2.253
60521W        W27304   0.913  44.389  10.905
60522W        W27305  21.023  29.391  12.857
60523W        W27306  11.893  41.004   0.386
60524W        W27307  30.537  13.592   4.501
60525W        W27308  14.121  25.640  12.423
60526W        W27309  21.919  18.731   1.672
60527W        W27310  38.386  35.494  12.029
60528W        W27311  29.459   3.108   4.125
60529W        W27312   7.425  19.164  12.920
60530W        W27313  20.801  16.845  10.998
60531W        W27314  26.066  21.465   3.143
60532W        W27315  13.128  39.849  13.865
60533W        W27316   1.201  38.519   1.183
60534W        W27317  37.376  11.600  10.317
60535W        W27318  18.516  27.123   2.404
60536W        W27319   9.912  38.456  11.408
60537W        W27320  25.570  27.891   3.840
60538W        W27321   1.536  26.453  13.026
60539W        W27322  22.114  27.421  14.522
60540W        W27323  26.345  26.657  10.026
60541W        W27324  24.153  19.546   3.793
60542W        W27325  30.387   3.719  12.896
60543W        W27326  23.550   1.026  11.191
60544W        W27327  24.866  11.664   4.151
60545W        W27328  18.851  25.213  10.707
60546W        W27329  14.162  15.728  14.740
60547W        W27330  40.464  15.316   2.713
60548W        W27331   6.826  17.542   4.716
60549W        W27332  29.109  28.522  13.087
60550W        W27333  19.719   1.939   1.399
60551W        W27334   4.623   3.808  14.822
60552W        W27335  44.830  18.826  11.703
60553W        W27336  42.295  10.413  14.080
60554W        W27337  32.188  26.072  12.561
60555W        W27338   1.979  13.368   4.861
60556W        W27339  28.944   6.097   4.583
60557W        W27340   3.980  19.057   3.725
60558W        W27341  39.261  20.111  11.174
60559W        W27342   1.119  26.010   0.491
60560W        W27343  42.350  13.203  12.272
60561W        W27344   8.209  21.070   3.171
60562W        W27345  41.352  19.715  13.481
60563W        W27346  35.563  44.301  11.518
60564W        W27347  15.200  29.905   4.819
60565W        W27348   3.292  43.429  11.510
60566W        W27349  19.150  36.517   3.844
60567W        W27350  38.618  41.087   2.271
60568W        W27351  32.616  27.486  12.887
60569W        W27352   6.372  16.134  14.487
60570W        W27353  41.315  12.425  10.431
60571W        W27354   2.496  12.207  13.778
60572W        W27355   9.269   8.367  13.656
60573W        W27356   0.113   2.862  12.379
60574W        W27357   6.230  24.858  14.053
60575W        W27358  44.368  29.656   1.276
60576W        W27359   5.166  29.859  12.128
60577W        W27360  17.148   1.471   3.281
60578W        W27361  23.803  19.596  10.661
60579W        W27362   9.883  43.910   1.829
60580W        W27363  26.415  36.144  10.949
60581W        W27364  24.937  12.123  13.413
60582W        W27365  39.364   0.936   4.533
60583W        W27366  13.294  21.651  14.872
60584W        W27367  17.158  21.568   4.735
60585W        W27368  27.036  20.145   2.215
60586W        W27369  38.453  29.681   3.636
60587W        W27370   4.228  42.560  13.487
60588W        W27371  17.751  12.704   1.353
60589W        W27372  22.592  12.307   3.398
60590W        W27373  15.533  13.320   3.667
60591W        W27374  41.400  29.956  12.492
60592W        W27375   5.575  18.154   0.932
60593W        W27376   7.189  21.477  11.204
60594W        W27377  28.591  30.525   3.435
60595W        W27378   8.598  36.795   1.003
60596W        W27379  31.065  10.371   1.183
60597W        W27380  14.375  44.245   1.870
60598W        W27381  37.793  21.062   2.866
60599W        W27382  20.109  14.470  12.010
60600W        W27383  34.951  24.730  11.149
60601W        W27384  17.881  42.514  12.772
60602W        W27385  15.675  19.541   1.296
60603W        W27386  36.491   6.281  14.245
60604W        W27387  40.683  43.976  13.785
60605W        W27388  43.432  16.257   1.518
60606W        W27389  26.021   5.883   1.820
60607W        W27390  41.042   3.451   3.280
60608W        W27391   3.455  12.840   1.438
60609W        W27392  33.378  22.308   2.706
60610W        W27393   0.877  21.516   1.016
60611W        W27394  37.280   8.243   1.092
60612W        W27395  31.633  21.468   1.643
60613W        W27396   9.102  40.596   0.320
60614W        W27397  16.600  28.570  13.992
60615W        W27398   9.233  41.310  12.183
60616W        W27399   4.439  35.921   2.870
60617W        W27400  15.709  44.871  11.770
60618W        W27401   2.331   7.704  10.449
60619W        W27402   0.994   1.211   0.876
60620W        W27403  30.342   9.294   2.862
60621W        W27404  20.079  31.456   4.570
60622W        W27405  35.422  33.935   2.641
60623W        W27406   8.944  42.385   1.799
60624W        W27407  10.777  33.807  13.436
60625W        W27408  25.699  18.910   1.981
60626W        W27409  34.476   5.256   3.641
60627W        W27410   6.582  30.977   4.028
60628W        W27411  40.076  28.513  11.953
60629W        W27412  26.129  22.052   4.418
60630W        W27413   1.515  40.443   3.335
60631W        W27414  29.595  24.543  12.375
60632W        W27415  34.574  11.759   1.398
60633W        W27416  31.232   9.740  12.428
60634W        W27417  23.527  28.025   1.719
60635W        W27418  31.337  29.635  12.094
60636W        W27419  27.048  42.473   4.374
60637W        W27420  23.676  26.212  13.483
60638W        W27421  21.905  23.246  12.648
60639W        W27422  25.044  31.646   1.797
60640W        W27423   6.644  16.489  13.782
60641W        W27424  12.680   3.269  14.409
60642W        W27425   1.230  36.898  13.522
60643W        W27426  30.040  26.095  14.764
60644W        W27427  24.850   1.550   4.025
60645W        W27428   2.202   9.749   2.132
60646W        W27429   5.974   6.993  14.705
60647W        W27430  17.902  31.900  10.728
60648W        W27431   4.780  44.848   4.685
60649W        W27432  32.207  25.191  14.722
60650W        W27433   4.731  35.415   3.557
60651W        W27434   2.512   6.729   0.412
60652W        W27435  15.714  14.590   4.443
60653W        W27436  14.664   9.740   1.234
60654W        W27437  44.892  12.152   3.589
60655W        W27438  20.138   0.725  13.387
60656W        W27439  19.714  21.065  11.936
60657W        W27440   7.806  24.952   4.640
60658W        W27441  11.256  23.582   0.744
60659W        W27442  40.707   3.759   0.209
60660W        W27443  13.303  37.655  14.143
60661W        W27444  40.476  31.864  10.101
60662W        W27445  36.033  20.781  10.763
60663W        W27446   0.200   7.892  14.282
60664W        W27447  14.862   3.719  14.711
60665W        W27448  37.004  38.898   3.785
60666W        W27449  18.720  38.630  12.995
60667W        W27450   4.793  29.204  13.360
60668W        W27451  14.807  44.474   2.778
60669W        W27452  27.649  33.915  14.793
60670W        W27453  32.863  15.288   3.034
60671W        W27454  15.517  14.800   2.176
60672W        W27455  23.147  21.154   3.953
60673W        W27456  28.948  17.991   0.323
60674W        W27457  21.481  37.949   0.893
60675W        W27458   9.559   5.252  11.072
60676W        W27459   7.722   8.952   1.189
60677W        W27460  17.208   3.177  13.904
60678W        W27461  17.022  38.119  11.019
60679W        W27462  41.460  44.420   3.106
60680W        W27463  20.214  31.593   1.619
60681W        W27464  26.050  25.017  14.577
60682W        W27465  24.087  30.647  14.501
60683W        W27466  30.504  43.256  13.498
60684W        W27467  37.474  16.539   4.262
60685W        W27468  42.430  21.103   2.798
60686W        W27469  34.974  42.419  10.711
60687W        W27470  12.360   7.798  13.776
60688W        W27471  31.224  30.383   4.175
60689W        W27472  17.880  39.591  14.438
60690W        W27473  29.393  30.558   2.363
60691W        W27474  41.435   9.834   1.442
60692W        W27475   1.875   5.650   3.265
60693W        W27476   3.195   8.243  12.898
60694W        W27477  25.616  24.038   1.883
60695W        W27478  11.497  24.146  13.897
60696W        W27479   5.896  20.173   0.868
60697W        W27480  30.156  39.338  10.388
60698W        W27481   9.744  38.026  13.679
60699W        W27482  29.642  20.068  14.754
60700W        W27483  26.498   2.334   2.439
60701W        W27484  39.497   1.753   4.819
60702W        W27485  44.229  41.806   4.445
60703W        W27486  34.453  35.542   2.258
60704W        W27487  38.096   2.292  13.040
60705W        W27488  36.744  39.710   2.182
60706W        W27489  33.029  17.592   3.639
60707W        W27490   7.694   0.632  11.701
60708W        W27491  19.502  30.055  10.606
60709W        W27492  17.848  38.897   4.490
60710W        W27493  30.136  19.027   3.322
60711W        W27494  38.527   0.304   3.797
60712W        W27495  22.226   7.169   3.314
60713W        W27496  33.046  37.126  14.884
60714W        W27497  10.539  21.595  14.155
60715W        W27498  11.095  33.615   2.692
60716W        W27499  42.902  39.222   1.230
60717W        W27500  44.255  18.540   4.615
60718W        W27501  10.416   4.519  12.943
60719W        W27502   5.909  34.863   4.566
60720W        W27503  33.161  11.116  12.792
60721W        W27504  33.331  35.545   4.604
60722W        W27505  26.346  38.880   1.656
60723W        W27506  14.884  17.148  12.647
60724W        W27507   4.105  14.190  10.849
60725W        W27508  29.896  41.526  14.367
60726W        W27509   1.482  22.045   1.600
60727W        W27510   3.144   3.232   1.945
60728W        W27511  24.058  29.963  13.054
60729W        W27512  21.040  38.377   0.389
60730W        W27513  14.981  42.005  10.965
60731W        W27514   8.317  17.478   0.408
60732W        W27515  26.999  35.527   1.904
60733W        W27516   4.438  34.377   3.884
60734W        W27517  17.189  36.510   2.812
60735W        W27518  33.833  25.790   3.184
60736W        W27519   1.258  42.400   1.718
60737W        W27520  31.545  27.543  13.877
60738W        W27521  24.410  42.804  13.553
60739W        W27522  19.125  10.528  12.257
60740W        W27523  40.561   4.424  11.714
60741W        W27524  40.759  28.431  10.622
60742W        W27525   2.452  28.957  10.702
60743W        W27526  29.483  26.210  10.986
60744W        W27527  20.421   0.409   5.538
60745W        W27528  34.970  25.274  10.232
60746W        W27529   9.960  24.057  11.640
60747W        W27530  43.030  41.309  12.072
60748W        W27531   5.674   3.030  11.179
60749W        W27532  39.417  18.955  13.534
60750W        W27533  19.804  33.380  12.833
60751W        W27534   3.845   5.345   2.271
60752W        W27535  12.762  13.140  12.242
60753W        W27536  42.852   1.252  10.540
60754W        W27537   4.383   7.451  11.524
60755W        W27538  38.796  21.155   3.627
60756W        W27539  42.952   5.117   2.421
60757W        W27540  26.972  17.815   4.804
60758W        W27541  36.135  33.716   4.202
60759W        W27542  12.674  35.450   1.276
60760W        W27543  36.031  28.351   5.086
60761W        W27544  29.370  27.471   3.870
60762W        W27545   7.917  32.994  11.554
60763W        W27546  40.257  43.308  14.003
60764W        W27547  14.264  36.138  14.754
60765W        W27548  16.091  28.018  10.721
60766W        W27549  22.544   7.334   0.952
60767W        W27550  10.351  28.336  14.018
60768W        W27551  38.547  39.288  13.397
60769W        W27552  19.684  39.878   1.549
60770W        W27553  44.760  14.618   0.308
60771W        W27554  11.296  42.085  12.524
60772W        W27555  16.376  35.931  10.732
60773W        W27556  21.699  19.665   5.078
60774W        W27557  39.850  10.161  14.791
60775W        W27558  42.667   4.182  13.019
60776W        W27559  31.706  35.684  11.430
60777W        W27560  22.486  27.100   2.700
60778W        W27561  36.823  37.654   3.262
60779W        W27562   7.609   4.292   3.233
60780W        W27563  25.983  23.630   3.716
60781W        W27564  38.216  35.539   2.213
60782W        W27565   7.687  23.019   0.667
60783W        W27566   1.596   7.748   4.461
60784W        W27567  31.147  28.714   4.571
60785W        W27568  23.026  11.240   3.390
60786W        W27569  12.947   0.050  14.093
60787W        W27570  34.423  25.724  14.508
60788W        W27571  20.721  24.410  11.172
60789W        W27572  26.126  36.490   1.351
60790W        W27573  44.520  38.776  13.782
60791W        W27574  25.439  15.574   2.178
60792W        W27575  26.970  42.766  14.917
60793W        W27576  11.462  28.660   2.303
60794W        W27577  16.682  34.906   2.716
60795W        W27578   2.305  13.708   4.579
60796W        W27579  37.883   2.357  11.782
60797W        W27580  43.721  30.119  10.642
60798W        W27581  35.552  30.507   1.791
60799W        W27582  29.366  37.942  12.256
60800W        W27583  24.911  20.808  13.916
60801W        W27584  36.543  42.919   4.494
60802W        W27585  33.897  31.434  13.829
60803W        W27586  39.057  18.087   3.601
60804W        W27587  31.953  14.599   1.665
60805W        W27588  32.163  24.534   2.343
60806W        W27589  38.478  33.412   3.002
60807W        W27590   8.897   8.108  11.508
60808W        W27591   5.233  33.883  12.640
60809W        W27592  20.340  19.524   1.836
60810W        W27593  25.197  18.211   3.329
60811W        W27594  29.657  28.647   3.216
60812W        W27595   6.378  22.164  14.929
60813W        W27596  43.612  24.169  10.376
60814W        W27597   3.188  20.699  13.432
60815W        W27598  12.043  27.169   3.678
60816W        W27599  24.065   9.441   3.164
60817W        W27600  33.081  21.476   3.992
60818W        W27601   4.962   0.812  12.954
60819W        W27602   9.640  30.875   2.190
60820W        W27603  34.500   5.240  13.853
60821W        W27604  36.037  36.159  11.497
60822W        W27605   7.222  29.121  12.891
60823W        W27606  30.027  16.124   3.108
60824W        W27607  29.389   5.650  13.484
60825W        W27608  19.648  11.169  10.565
60826W        W27609  11.671   0.926  10.724
60827W        W27610  35.543  39.451   1.414
60828W        W27611  16.254  10.037  13.896
60829W        W27612   0.869  11.740   2.342
60830W        W27613  38.431  25.401  14.304
60831W        W27614  44.471   2.443  13.053
60832W        W27615   1.831  15.331   4.573
60833W        W27616  21.147  17.985  12.103
60834W        W27617  43.005  11.882   0.185
60835W        W27618  25.656  16.602  12.320
60836W        W27619  41.572  29.098  13.312
60837W        W27620   5.641  10.944   4.034
60838W        W27621  42.495  14.278   4.409
60839W        W27622   9.380  15.763   2.235
60840W        W27623  11.418  28.601  12.969
60841W        W27624  29.880  27.833   1.287
60842W        W27625  44.317  26.967   4.375
60843W        W27626  44.750   1.206   1.007
60844W        W27627  24.635  23.766  11.539
60845W        W27628  30.509  11.211  13.846
60846W        W27629  12.144  24.009   0.279
60847W        W27630  23.981  38.003   0.414
60848W        W27631  27.109   0.939   3.703
60849W        W27632   4.594  14.004  10.796
60850W        W27633  15.819  21.112   2.672
60851W        W27634  37.998   9.184  11.642
60852W        W27635   2.727   8.107  13.814
60853W        W27636  14.599  27.910   1.723
60854W        W27637   1.939   5.492  11.657
60855W        W27638  27.403  26.173  12.969
60856W        W27639  22.727   3.972   0.454
60857W        W27640  38.441  41.249   4.664
60858W        W27641  39.931  15.640  13.987
60859W        W27642  42.798  40.300   2.155
60860W        W27643  21.967  33.669  12.390
60861W        W27644  37.969   5.252  13.801
60862W        W27645  20.822  15.543   3.279
60863W        W27646  17.356   4.358   2.928
60864W        W27647   7.894  39.184  13.060
60865W        W27648  15.553   7.930   2.728
60866W        W27649  34.100  24.432  14.260
60867W        W27650   7.106  18.696   1.286
60868W        W27651  44.342  44.870   2.684
60869W        W27652  25.551   5.685  11.620
60870W        W27653   6.173  43.441  13.812
60871W        W27654  22.463   2.235  12.928
60872W        W27655  41.368  33.550   2.588
60873W        W27656  20.485  11.256  13.554
60874W        W27657  13.734   7.161  14.022
60875W        W27658  21.574  31.388  11.561
60876W        W27659  35.395  26.554   2.802
60877W        W27660  33.852  14.543  12.817
60878W        W27661  44.449  37.530   4.555
60879W        W27662  29.704  20.626   1.778
60880W        W27663  24.732   5.694  10.338
60881W        W27664  15.822  30.061  10.251
60882W        W27665   1.900   3.416  14.709
60883W        W27666   9.106  33.682  10.800
60884W        W27667   7.832  35.906  14.790
60885W        W27668   6.420   5.313   4.268
60886W        W27669  19.407  14.187  12.460
60887W        W27670  14.436  20.647   0.161
60888W        W27671  34.828   5.557  11.992
60889W        W27672  34.117  22.050  14.534
60890W        W27673  40.829   5.831   2.008
60891W        W27674  14.757  12.010  10.215
60892W        W27675  10.223  28.550  13.309
60893W        W27676  32.240  41.339  12.250
60894W        W27677  17.698  38.756  14.785
60895W        W27678   0.118  13.395   0.827
60896W        W27679  28.686   1.377  12.349
60897W        W27680  24.451  30.787   1.355
60898W        W27681   5.957  29.143  11.174
60899W        W27682  42.845   5.708  10.557
60900W        W27683   4.828  15.454   3.635
60901W        W27684  17.702   4.249   3.634
60902W        W27685  20.522  27.936   4.794
60903W        W27686   2.737  17.604  12.430
60904W        W27687  18.275  11.441  14.261
60905W        W27688  13.161  14.055   4.934
60906W        W27689  38.954   8.853  12.861
60907W        W27690  36.598  27.901   4.636
60908W        W27691  17.609  13.773  12.404
60909W        W27692  40.090   6.422  14.494
60910W        W27693  22.655  39.020  14.798
60911W        W27694  38.007  17.624   0.786
60912W        W27695   8.256  23.495  12.901
60913W        W27696  34.022  15.331  14.059
60914W        W27697  18.279  14.598   4.019
60915W        W27698  35.478  15.830   4.098
60916W        W27699  23.194   9.888   0.425
60917W        W27700  37.389  23.575   4.246
60918W        W27701  10.359   4.844  13.543
60919W        W27702  14.629  43.855  12.956
60920W        W27703   0.858  33.795   3.376
60921W        W27704  14.503   8.324   2.206
60922W        W27705   2.974  16.860  13.388
60923W        W27706  40.363  34.813  12.962
60924W        W27707  40.311  39.747   2.781
60925W        W27708   6.377  21.970   3.905
60926W        W27709  43.633  33.955  13.010
60927W        W27710   9.665   3.863  11.327
60928W        W27711  23.168  22.074   4.579
60929W        W27712  36.028   3.940  13.091
60930W        W27713  23.544   6.924  10.243
60931W        W27714  31.119  26.922   1.057
60932W        W27715  32.411  16.047   1.524
60933W        W27716  32.749  39.996  12.867
60934W        W27717   0.830   0.430  11.872
60935W        W27718  28.705  17.778   2.633
60936W        W27719  24.911  10.318   9.821
60937W        W27720  13.637   3.828  14.224
60938W        W27721  34.293  17.925   4.574
60939W        W27722  24.675  41.600   3.770
60940W        W27723  13.313  21.932   1.752
60941W        W27724  12.990  34.908   0.724
60942W        W27725  20.756  42.471   4.552
60943W        W27726   9.412   8.743  14.830
60944W        W27727   5.743  36.394  12.178
60945W        W27728   0.963   2.744  13.264
60946W        W27729  15.797  17.148  11.071
60947W        W27730  25.946  20.766   0.475
60948W        W27731  44.184   5.692   3.809
60949W        W27732   6.621  28.000   1.875
60950W        W27733  38.562  43.811   1.705
60951W        W27734  14.309  30.455  10.170
60952W        W27735  28.977   3.833  13.497
60953W        W27736  35.053  30.162  12.884
60954W        W27737  38.402   8.287  11.649
60955W        W27738  21.316  37.857  13.479
60956W        W27739  40.720  34.225   4.068
60957W        W27740   2.434   7.785  13.506
60958W        W27741  39.957  11.136  14.453
60959W        W27742   3.902   2.269  13.028
60960W        W27743  44.859  24.581   2.621
60961W        W27744   7.355   9.427  10.192
60962W        W27745  22.050  14.787  13.288
60963W        W27746   1.575  29.523  14.567
60964W        W27747  22.562  24.234   0.224
60965W        W27748  28.616  23.253  10.558
60966W        W27749   2.433  34.282  12.382
60967W        W27750   1.830   6.869  11.675
60968W        W27751  18.017  14.865   3.656
60969W        W27752  36.794  39.070   2.855
60970W        W27753   2.232   1.221   2.705
60971W        W27754  19.627  24.121  12.274
60972W        W27755   8.746  40.211   1.955
60973W        W27756  44.893  25.873   4.722
60974W        W27757  42.053   4.806   0.813
60975W        W27758  21.988  33.616  11.499
60976W        W27759  34.506   5.602   4.678
60977W        W27760  25.302  44.437  14.737
60978W        W27761  41.036  26.580   0.824
60979W        W27762   3.675  39.344   0.289
60980W        W27763  22.974  20.289   1.982
60981W        W27764  32.608  44.917   4.139
60982W        W27765  21.177   9.926   2.340
60983W        W27766  31.905  43.304   0.223
60984W        W27767  32.967  30.460   1.878
60985W        W27768   1.666   3.756   3.250
60986W        W27769  28.138  22.572   4.009
60987W        W27770  31.001  27.199   0.000
60988W        W27771   8.861  31.457  13.599
60989W        W27772  32.012   0.775   3.206
60990W        W27773  42.978  15.089   0.973
60991W        W27774   0.043  25.171   3.720
60992W        W27775  26.581  42.360   4.608
60993W        W27776  28.654  37.321  11.560
60994W        W27777  26.894  22.489   4.135
60995W        W27778  11.092  17.955  14.367
60996W        W27779  38.075   9.331  12.135
60997W        W27780   3.359  21.445   1.580
60998W        W27781  35.569   0.752  11.951
60999W        W27782  41.985  43.832  11.994
61000W        W27783  28.237  35.261   4.082
61001W        W27784  10.291  33.384  10.673
61002W        W27785  20.883  18.234  12.747
61003W        W27786  26.259   3.358   4.128
61004W        W27787  25.603  18.378   1.192
61005W        W27788   3.410  10.993   1.232
61006W        W27789  16.240  25.295   3.364
61007W        W27790  24.954  32.453   3.126
61008W        W27791  36.988  34.484   1.397
61009W        W27792  20.220   5.704   4.499
61010W        W27793   7.148  41.387   1.458
61011W        W27794  31.450   5.817  10.821
61012W        W27795  14.200  44.330  12.586
61013W        W27796  34.679  44.331  11.236
61014W        W27797  21.233  41.358   1.331
61015W        W27798   5.470  34.856  11.573
61016W        W27799  12.688  38.851  13.004
61017W        W27800  10.723  43.826  13.875
61018W        W27801  42.716  18.232   1.778
61019W        W27802   9.429  16.630  11.650
61020W        W27803  29.896  10.675  11.605
61021W        W27804   9.752  35.439  13.936
61022W        W27805  44.793  22.045  14.285
61023W        W27806  19.602   8.656   2.655
61024W        W27807   2.431  12.590   2.875
61025W        W27808  42.291  16.816  13.194
61026W        W27809   4.391  42.028   4.665
61027W        W27810  13.771  31.719   0.417
61028W        W27811   8.756   6.015  14.680
61029W        W27812  14.525  26.521   0.890
61030W        W27813  18.657   4.890  13.670
61031W        W27814   3.883   6.809  11.936
61032W        W27815  26.792  42.828   4.606
61033W        W27816  20.050  37.981  14.292
61034W        W27817  10.834  24.205  10.669
61035W        W27818  18.210  42.240   1.259
61036W        W27819   1.000  32.407   3.703
61037W        W27820   6.387  34.094  13.335
61038W        W27821  33.808  21.926   2.293
61039W        W27822  30.697  20.147  10.775
61040W        W27823  33.099  16.655   2.115
61041W        W27824  35.429  16.280  12.080
61042W        W27825  34.330  23.967  11.046
61043W        W27826  30.767  18.753  11.916
61044W        W27827  27.014   9.716   3.173
61045W        W27828  11.660   8.711  14.751
61046W        W27829  40.886  27.017   2.354
61047W        W27830  30.145  37.934  14.444
61048W        W27831  29.429  19.970   1.325
61049W        W27832  30.109   7.740  10.885
61050W        W27833  21.248   2.448   1.805
61051W        W27834  43.469  24.548  11.624
61052W        W27835  18.218  42.698  14.412
61053W        W27836  32.344  21.254  12.664
61054W        W27837   8.695  41.444   3.640
61055W        W27838  18.981  21.511   3.742
61056W        W27839   5.645   2.551  12.032
61057W        W27840  24.748   1.903  13.816
61058W        W27841  29.308  15.992  11.165
61059W        W27842  43.201  40.598  10.348
61060W        W27843  14.283  22.585  13.357
61061W        W27844  23.061  19.757  12.306
61062W        W27845  23.545  40.605  10.973
61063W        W27846   1.550  32.626   2.984
61064W        W27847  41.328   1.275  14.213
61065W        W27848  42.987  37.935  13.686
61066W        W27849  38.962  17.835  11.517
61067W        W27850  27.619   2.325   2.328
61068W        W27851  19.654  43.455  12.833
61069W        W27852   2.524  31.669   3.778
61070W        W27853  10.627  39.640   2.214
61071W        W27854   4.361  35.783   2.380
61072W        W27855  19.078  28.980  11.874
61073W        W27856  12.477  29.972  14.024
61074W        W27857  16.263  34.288  14.238
61075W        W27858   7.134   3.536   3.661
61076W        W27859   8.401  41.108  11.655
61077W        W27860  43.529  21.931   2.781
61078W        W27861  35.061   9.849   5.160
61079W        W27862  33.616  42.537   4.184
61080W        W27863   8.105  16.093   2.234
61081W        W27864  20.637  16.690   0.278
61082W        W27865  24.881   3.207  11.185
61083W        W27866  16.629  32.966  12.089
61084W        W27867  30.110  21.395   3.264
61085W        W27868  11.872  11.211  11.532
61086W        W27869  41.455   6.407  13.175
61087W        W27870   8.031   9.780  14.236
61088W        W27871  25.030   1.300  10.739
61089W        W27872  43.552  36.412   4.435
61090W        W27873   6.949  26.555   4.096
61091W        W27874   7.368  44.039  10.953
61092W        W27875  37.339  22.015   1.831
61093W        W27876  13.868  44.376  10.613
61094W        W27877   9.052   6.333  13.074
61095W        W27878  39.624  23.545   2.829
61096W        W27879   0.145  33.451  10.563
61097W        W27880  35.806  20.472  11.668
61098W        W27881  23.962  10.698   2.619
61099W        W27882   4.755   8.325  11.561
61100W        W27883  39.737   5.201  13.302
61101W        W27884  17.835  10.328   3.324
61102W        W27885   6.950   0.756  13.018
61103W        W27886  34.034  11.816   1.386
61104W        W27887  10.100  21.843  14.296
61105W        W27888  19.043  35.119   3.342
61106W        W27889   8.465  44.725   1.335
61107W        W27890  24.069  36.507   3.233
61108W        W27891  39.027  20.203   3.385
61109W        W27892  29.488   2.422   4.589
61110W        W27893  25.936  39.438   3.073
61111W        W27894  11.699  36.106  11.954
61112W        W27895  23.103   7.273   3.100
61113W        W27896  34.194   8.052  14.408
61114W        W27897  25.161  40.845  14.824
61115W        W27898   3.659  14.077   4.265
61116W        W27899   3.715  25.226  13.091
61117W        W27900  34.707  43.990   4.159
61118W        W27901  18.719  35.821  13.483
61119W        W27902  14.077  20.942  13.744
61120W        W27903  36.422  36.540  11.593
61121W        W27904  11.819   4.554  12.981
61122W        W27905  25.739   8.701  11.159
61123W        W27906  32.264  18.124   4.820
61124W        W27907  43.053  38.305  13.316
61125W        W27908  24.525  31.210  11.492
61126W        W27909  28.900   5.827   0.484
61127W        W27910  26.086  39.266   2.607
61128W        W27911  34.320   4.443  12.399
61129W        W27912   2.082  11.059   2.275
61130W        W27913   3.970  36.097  14.886
61131W        W27914  36.080  29.223  12.544
61132W        W27915  19.851  22.740   4.147
61133W        W27916   6.821  41.473  11.753
61134W        W27917  31.910  21.237   2.818
61135W        W27918  39.371   6.256  13.848
61136W        W27919  28.488  20.041  14.775
61137W        W27920  34.980  13.803   3.308
61138W        W27921   2.752  38.951   3.244
61139W        W27922  41.661  19.439  10.019
61140W        W27923   7.679   4.757  12.504
61141W        W27924  17.633   5.680   3.189
61142W        W27925  13.821  28.157   4.052
61143W        W27926  15.576  21.795   3.688
61144W        W27927   9.354  38.478  14.331
61145W        W27928  36.005  34.289  12.585
61146W        W27929  18.737  39.906   2.305
61147W        W27930   9.816   7.900   1.268
61148W        W27931   9.763  40.555  14.935
61149W        W27932  31.487  29.598  10.675
61150W        W27933   9.550  38.587   4.512
61151W        W27934  34.917  16.390   1.776
61152W        W27935  22.674  23.764   1.780
61153W        W27936  38.821  30.498  10.524
61154W        W27937  19.341   8.681  11.140
61155W        W27938  43.098  17.225   4.544
61156W        W27939  16.009  44.564   4.176
61157W        W27940  25.947  31.660   4.645
61158W        W27941  18.984  21.716  10.634
61159W        W27942  44.950  20.998   2.869
61160W        W27943  40.026  16.757  13.817
61161W        W27944  44.834   3.666  11.272
61162W        W27945  24.384  24.198  10.682
61163W        W27946  36.614   9.806  13.369
61164W        W27947  35.353  31.141   1.372
61165W        W27948  37.969  34.529  11.419
61166W        W27949  17.660  25.751   2.182
61167W        W27950  25.681   7.854   4.511
61168W        W27951  21.934   7.384   1.846
61169W        W27952   6.265  18.718  12.062
61170W        W27953  20.705   4.909  14.450
61171W        W27954   6.210  26.683  14.921
61172W        W27955  19.100  19.322  11.446
61173W        W27956   1.643  28.922   0.767
61174W        W27957  17.094  15.735  13.566
61175W        W27958   1.029  40.342   3.531
61176W        W27959  21.703  23.679   3.713
61177W        W27960  17.291  39.032  14.280
61178W        W27961  17.341  35.527   2.867
61179W        W27962  25.717  29.871  14.314
61180W        W27963   2.930  43.026   2.690
61181W        W27964   7.689   1.882  11.297
61182W        W27965  15.810  37.621   3.123
61183W        W27966  40.250   9.789   3.524
61184W        W27967  21.151  11.708  11.993
61185W        W27968  37.553  14.069   2.801
61186W        W27969  17.425  27.537   1.050
61187W        W27970   9.266  26.020  13.109
61188W        W27971  10.233  23.134  10.659
61189W        W27972  16.839  44.391  10.534
61190W        W27973  26.601  35.847  11.793
61191W        W27974   8.679  41.165   4.756
61192W        W27975  18.121  33.379   4.528
61193W        W27976  41.813  20.814   4.268
61194W        W27977  39.957  40.300  13.602
61195W        W27978  43.914   8.133   0.050
61196W        W27979  34.461   6.151  14.365
61197W        W27980  27.156  29.071  12.024
61198W        W27981  26.378  42.833   3.263
61199W        W27982  36.009   1.857  11.886
61200W        W27983  19.795  44.333  11.179
61201W        W27984   8.905   0.496  14.013
61202W        W27985  44.863   5.626  13.655
61203W        W27986   0.953  24.089  10.666
61204W        W27987  23.885  31.595  13.447
61205W        W27988   8.903  38.476  10.977
61206W        W27989  35.784  14.531  11.996
61207W        W27990  36.884  41.968   3.841
61208W        W27991  29.687  28.978   1.466
61209W        W27992   3.166  35.302  12.015
61210W        W27993   4.495  36.961  13.456
61211W        W27994  24.923  30.931  11.722
61212W        W27995  26.782  33.914  10.466
61213W        W27996  44.087   7.746   2.625
61214W        W27997  23.033  12.114   2.289
61215W        W27998  27.842   1.898   4.089
61216W        W27999  22.157  27.569   0.025
61217W        W28000  14.678  21.613  14.924
61218W        W28001  28.077  31.551   3.647
61219W        W28002  34.773  19.161   0.510
61220W        W28003  33.020  19.014  12.388
61221W        W28004  11.743  12.334  13.148
61222W        W28005  10.106   9.870  12.196
61223W        W28006   9.350  21.863   0.421
61224W        W28007  32.871  44.435   3.298
61225W        W28008  42.427   6.750  11.965
61226W        W28009   1.196  19.625  11.463
61227W        W28010   9.158  24.336  11.304
61228W        W28011   6.393   8.969  13.942
61229W        W28012  34.621  14.696  13.417
61230W        W28013  10.176  28.113   5.012
61231W        W28014   2.321  20.442   1.288
61232W        W28015  11.239   7.346  14.778
61233W        W28016  17.881  28.982  12.629
61234W        W28017  27.050  29.017   0.741
61235W        W28018  20.857  14.120   3.337
61236W        W28019   2.979  19.484  11.063
61237W        W28020  20.178   7.333   3.759
61238W        W28021  19.818  44.877   1.928
61239W        W28022   3.988  12.084   3.717
61240W        W28023   5.847  37.122   3.331
61241W        W28024   5.265  24.395  10.812
61242W        W28025  33.587  29.113   1.662
61243W        W28026  24.749  14.562   2.782
61244W        W28027  34.005  42.001  10.683
61245W        W28028  23.611  34.233  10.877
61246W        W28029  13.866  31.601   4.695
61247W        W28030   4.478  21.191   2.886
61248W        W28031  31.524  24.290  11.068
61249W        W28032  29.952  19.472   3.165
61250W        W28033  29.777   6.595  13.469
61251W        W28034  42.984  28.662   0.379
61252W        W28035  11.568  25.062  13.244
61253W        W28036   4.000  19.464  11.014
61254W        W28037  41.785   8.809   5.622
61255W        W28038  27.916  16.642  10.431
61256W        W28039  20.573  14.588   3.381
61257W        W28040  33.917  37.187  11.396
61258W        W28041  19.092  38.313   1.522
61259W        W28042   4.019  19.289  13.362
61260W        W28043  11.692  32.679   0.053
61261W        W28044   2.590  24.685   0.843
61262W        W28045  27.858  29.678  14.525
61263W        W28046   2.227   4.855   0.283
61264W        W28047  22.987  18.142   2.158
61265W        W28048   6.356   4.348  14.808
61266W        W28049  31.418  36.912   1.751
61267W        W28050  44.710  11.477  12.642
61268W        W28051   1.820  30.074   3.218
61269W        W28052  12.412  22.545  14.015
61270W        W28053  37.903   8.898   2.795
61271W        W28054  16.218  44.544  13.907
61272W        W28055  38.303  12.134  14.360
61273W        W28056  22.302  35.033   1.782
61274W        W28057   0.473  21.770  11.200
61275W        W28058  23.436  17.719  10.741
61276W        W28059  31.199  42.429   4.060
61277W        W28060  44.939  27.633   2.797
61278W        W28061  38.934  36.440  13.104
61279W        W28062  39.512  24.528  14.332
61280W        W28063  29.953   5.415   3.735
61281W        W28064  43.836  21.545  14.716
61282W        W28065  35.912   0.959   3.157
61283W        W28066  16.630  39.325   1.964
61284W        W28067  23.592  37.523  13.423
61285W        W28068   1.949  23.773   3.333
61286W        W28069  39.759  31.958  12.824
61287W        W28070  36.160   0.034  14.860
61288W        W28071  16.398   2.786   1.827
61289W        W28072  16.077  34.726  12.007
61290W        W28073  26.566  43.949  10.389
61291W        W28074  20.609   0.768   2.927
61292W        W28075  40.417   2.231  14.072
61293W        W28076  21.956  44.851  13.819
61294W        W28077   8.807  43.567   2.234
61295W        W28078  23.102  35.990  14.157
61296W        W28079  33.368   4.852  14.321
61297W        W28080  12.124  17.669  14.932
61298W        W28081  17.793  44.468  12.933
61299W        W28082   3.214  14.388   2.146
61300W        W28083   5.831  36.199  13.572
61301W        W28084  22.738  23.718   0.242
61302W        W28085  19.514  31.662  13.409
61303W        W28086  33.061  18.358   3.353
61304W        W28087  13.776  30.684  13.426
61305W        W28088   7.261  31.136   1.146
61306W        W28089  22.547  40.965   0.894
61307W        W28090  37.618   2.972   0.898
61308W        W28091  21.564   1.237   3.429
61309W        W28092  37.487  36.270  14.978
61310W        W28093  41.311  37.896  14.769
61311W        W28094  28.209  24.623   2.133
61312W        W28095  12.319  33.704  11.019
61313W        W28096  33.041  25.780  12.890
61314W        W28097   2.765  39.809   0.398
61315W        W28098   0.100   1.144   2.806
61316W        W28099  22.238  18.513   0.209
61317W        W28100  21.394   7.990  14.278
61318W        W28101  39.682  40.337  12.288
61319W        W28102   7.849  34.889  13.495
61320W        W28103  38.979  34.109   3.267
61321W        W28104  22.446  42.300   0.257
61322W        W28105  37.908  37.062  12.346
61323W        W28106  43.231  19.280   2.205
61324W        W28107   2.303  18.071   1.739
61325W        W28108  16.351  19.601   3.392
61326W        W28109   8.363   7.123  14.027
61327W        W28110  34.969  43.984   0.834
61328W        W28111  20.304  35.115   2.197
61329W        W28112   5.071  11.777   2.882
61330W        W28113  14.215  16.986  13.336
61331W        W28114  43.320   4.871  12.670
61332W        W28115  26.425  32.884  11.232
61333W        W28116  41.317  41.306   3.125
61334W        W28117   0.860  33.033  13.454
61335W        W28118   6.649  34.926  14.788
61336W        W28119  14.226  24.928  14.363
61337W        W28120  18.117   8.826  12.820
61338W        W28121  24.024  14.134  10.758
61339W        W28122  11.365   1.818  10.608
61340W        W28123   1.129   6.075   0.776
61341W        W28124  12.323   8.269   3.439
61342W        W28125  25.873  16.668  13.396
61343W        W28126  33.006   5.785  12.096
61344W        W28127  22.823  33.566  12.734
61345W        W28128  26.186  36.832   2.666
61346W        W28129  19.433  40.740  10.727
61347W        W28130  23.825  31.892   2.548
61348W        W28131  17.842  13.451   4.836
61349W        W28132  13.042  15.612  12.911
61350W        W28133  18.150  16.595  13.467
61351W        W28134   3.970  36.853  13.486
61352W        W28135  29.440  39.883   3.748
61353W        W28136  33.577  38.490  14.395
61354W        W28137  40.062  22.524   2.632
61355W        W28138  35.858  29.120   0.906
61356W        W28139   5.813   7.228   2.722
61357W        W28140  20.523  15.793   1.791
61358W        W28141  25.169  44.029   4.481
61359W        W28142  18.677  13.457   1.730
61360W        W28143  25.740  20.823   3.693
61361W        W28144  29.413  14.804   2.105
61362W        W28145  24.635  23.524   3.260
61363W        W28146  43.467  39.346  10.756
61364W        W28147  13.066  12.695  14.071
61365W        W28148   9.253  42.883  11.125
61366W        W28149  26.096  21.628  13.179
61367W        W28150  33.536  33.956  14.194
61368W        W28151  23.221  28.927  11.171
61369W        W28152  27.103  23.481  13.792
61370W        W28153  20.331   7.269   0.876
61371W        W28154   5.788   2.848   3.701
61372W        W28155  11.297  29.710  14.727
61373W        W28156  10.794  32.937   4.484
61374W        W28157   1.490  42.502  12.724
61375W        W28158  32.838  23.138   2.701
61376W        W28159  34.977   1.431   0.380
61377W        W28160  44.142   5.848   2.804
61378W        W28161   9.212   5.951   2.275
61379W        W28162   9.588  20.288   4.106
61380W        W28163  39.097  14.872  11.565
61381W        W28164  15.507  34.650   2.871
61382W        W28165  31.992  37.316   2.371
61383W        W28166  16.187  41.634   1.926
61384W        W28167  19.720  40.790  11.152
61385W        W28168  24.344  41.871  11.153
61386W        W28169  21.567  35.165  10.413
61387W        W28170  22.552  23.588   2.251
61388W        W28171  21.116  41.512  13.863
61389W        W28172  16.149  35.749   0.934
61390W        W28173  12.252  31.579  14.290
61391W        W28174   2.803   0.860  14.879
61392W        W28175   1.491  11.099  13.500
61393W        W28176   3.862  19.173  12.870
61394W        W28177  34.313  27.484   3.734
61395W        W28178  25.041  21.962   4.923
61396W        W28179  36.129  24.275   4.198
61397W        W28180   7.220   3.019   3.717
61398W        W28181   7.693  14.353   4.131
61399W        W28182  32.056   3.457   2.430
61400W        W28183   3.336  24.451   4.031
61401W        W28184   7.795  32.942   1.897
61402W        W28185  28.326  44.211  13.106
61403W        W28186  30.469  30.919   0.243
61404W        W28187  38.973  43.082  12.847
61405W        W28188   6.580  20.560  13.333
61406W        W28189  39.962   1.383   3.263
61407W        W28190  36.542   0.810  14.747
61408W        W28191  24.537  44.564  11.957
61409W        W28192  12.674  20.019   2.869
61410W        W28193  41.910   9.717   1.203
61411W        W28194   3.871  39.593   4.756
61412W        W28195  27.741   1.494  13.973
61413W        W28196  32.868   5.732   2.195
61414W        W28197   1.414   9.588  12.915
61415W        W28198  12.075  41.192  12.485
61416W        W28199  22.670  23.226  10.624
61417W        W28200  33.743  36.199   4.074
61418W        W28201  35.338  32.357  13.193
61419W        W28202  29.512  32.657   2.741
61420W        W28203  20.815  22.277  11.464
61421W        W28204  22.785  36.591  11.654
61422W        W28205  15.606  36.485  11.662
61423W        W28206  13.400  19.601  12.842
61424W        W28207  36.534  22.882   0.883
61425W        W28208   9.614  25.015  11.540
61426W        W28209  42.544   6.979   2.544
61427W        W28210  44.972  43.022  12.645
61428W        W28211  16.665  22.447   4.421
61429W        W28212  42.963   1.254  11.603
61430W        W28213  18.648  31.169   0.456
61431W        W28214  18.125   4.485   3.432
61432W        W28215  10.645  26.114  13.407
61433W        W28216  35.069  14.274   5.005
61434W        W28217   5.691  19.362  14.753
61435W        W28218  39.216  18.674  10.726
61436W        W28219   3.990  39.500  13.027
61437W        W28220  36.965  14.702   0.251
61438W        W28221   6.944  23.727  12.563
61439W        W28222  16.158  31.225   3.660
61440W        W28223  27.911  40.936  14.342
61441W        W28224  16.013  25.997   4.655
61442W        W28225  11.834  39.977  13.419
61443W        W28226  38.925  10.797   0.518
61444W        W28227   5.226   5.439  12.842
61445W        W28228   5.266  15.772   4.872
61446W        W28229  15.169   7.370   3.783
61447W        W28230  23.467  12.223  12.419
61448W        W28231  12.833  39.527   3.905
61449W        W28232  22.200  40.723   2.958
61450W        W28233  12.700  44.917   3.324
61451W        W28234  33.710  43.524   4.473
61452W        W28235  42.874   5.225  14.001
61453W        W28236   1.331   3.264  12.941
61454W        W28237  35.333  23.141  14.936
61455W        W28238  23.616  25.179  13.553
61456W        W28239  24.726  39.988  12.894
61457W        W28240  27.287   8.891   3.215
61458W        W28241  32.718  26.605  10.103
61459W        W28242  23.269  43.840  11.537
61460W        W28243  40.034   8.100  12.568
61461W        W28244   8.130   6.250  11.187
61462W        W28245  39.790  36.929  14.940
61463W        W28246  34.494  14.478   1.306
61464W        W28247  29.510  23.321  13.879
61465W        W28248  16.659  42.939  13.202
61466W        W28249  41.629   3.748  11.615
61467W        W28250  34.378   9.690   3.589
61468W        W28251   4.011   9.387   1.777
61469W        W28252  37.094   3.929  11.033
61470W        W28253  38.100  39.330  14.413
61471W        W28254  41.399  40.858   0.683
61472W        W28255  40.773   4.326  13.495
61473W        W28256  40.346  33.165  11.962
61474W        W28257  23.295  26.788   4.553
61475W        W28258   5.008  22.507   2.818
61476W        W28259  43.676  19.508   1.380
61477W        W28260  14.652  37.965  12.372
61478W        W28261  23.054   3.972   4.645
61479W        W28262   9.292   2.401  10.942
61480W        W28263   7.390   4.110  13.739
61481W        W28264  37.409  12.627   0.626
61482W        W28265   7.898  10.759   0.963
61483W        W28266  17.981  38.003  12.136
61484W        W28267  40.364   3.270   1.444
61485W        W28268  32.552  38.803  12.356
61486W        W28269   5.785  19.054  10.654
61487W        W28270  42.326  26.404  11.970
61488W        W28271  43.353  43.965  10.683
61489W        W28272  38.656   4.285  11.478
61490W        W28273  35.058  41.657   2.428
61491W        W28274  30.199  20.860  11.341
61492W        W28275  42.654   6.461  13.581
61493W        W28276  25.740  35.084  12.896
61494W        W28277  42.944  35.634  12.818
61495W        W28278   0.918   1.951   0.015
61496W        W28279  18.952  39.901  13.282
61497W        W28280   2.100   5.408  11.168
61498W        W28281  30.650  17.220  13.442
61499W        W28282   0.755   6.906  12.707
61500W        W28283  13.598  40.737  12.392
61501W        W28284  11.921  22.132   3.217
61502W        W28285  32.549  44.704  13.774
61503W        W28286  11.764  21.248  14.822
61504W        W28287  33.458   6.799  13.410
61505W        W28288  42.817  44.383  12.010
61506W        W28289  31.178  22.015   0.827
61507W        W28290  33.551  41.721  10.800
61508W        W28291  33.403  34.445   4.593
61509W        W28292  41.293  14.168  13.407
61510W        W28293  18.666  38.406  10.854
61511W        W28294  25.006  31.998  11.618
61512W        W28295  43.839  43.269   1.792
61513W        W28296  22.165   9.001   2.864
61514W        W28297   3.937  36.970  11.637
61515W        W28298  24.986  15.220  12.394
61516W        W28299  22.478  36.442   0.332
61517W        W28300  19.468  18.809   1.165
61518W        W28301   2.745  38.148  13.624
61519W        W28302  24.368  12.128  10.552
61520W        W28303  22.847  14.705   2.366
61521W        W28304  15.596  24.496  11.147
61522W        W28305  24.022  33.155   0.334
61523W        W28306  30.099   3.425   3.218
61524W        W28307   5.656   3.974  12.454
61525W        W28308  41.044  26.202  11.268
61526W        W28309  25.497   6.624   1.037
61527W        W28310  19.592  44.388   1.995
61528W        W28311  35.896  41.767   4.724
61529W        W28312   4.787  23.503   4.453
61530W        W28313  33.131  33.916   0.417
61531W        W28314   8.323  20.135   4.336
61532W        W28315  35.008  31.607   1.773
61533W        W28316  15.518  26.627  10.577
61534W        W28317  31.126   8.345  13.964
61535W        W28318  24.940  27.867   3.244
61536W        W28319  19.586  13.758  11.885
61537W        W28320  22.753  31.558  14.463
61538W        W28321   8.322   9.794   2.704
61539W        W28322  19.112   3.495  14.537
61540W        W28323  43.286  17.215  11.030
61541W        W28324  19.266  10.169  12.619
61542W        W28325  21.592  44.356   0.073
61543W        W28326  36.475  38.081   4.558
61544W        W28327  35.464  22.497   1.294
61545W        W28328  27.922  10.786  10.702
61546W        W28329  37.405  21.492  13.929
61547W        W28330  32.085  40.951  14.411
61548W        W28331   0.048   9.760  10.619
61549W        W28332  28.098   2.638   4.068
61550W        W28333  28.193   3.666  11.640
61551W        W28334  11.862  35.060   4.109
61552W        W28335  12.682  33.137   3.824
61553W        W28336  19.717   1.898   0.848
61554W        W28337  35.287  34.851   2.202
61555W        W28338  33.828  28.591  13.552
61556W        W28339  23.684  32.566   4.218
61557W        W28340   4.510  17.494   1.078
61558W        W28341  36.051  15.743  10.154
61559W        W28342   9.884  23.467   0.247
61560W        W28343   1.776  11.656   4.000
61561W        W28344  11.944  41.771   3.263
61562W        W28345  40.724   5.810  11.093
61563W        W28346  11.699  27.948   2.288
61564W        W28347  37.315  25.164  10.522
61565W        W28348  33.367  10.198   0.372
61566W        W28349  31.133  19.543   3.168
61567W        W28350  26.854  36.391  11.167
61568W        W28351  31.383  23.540   2.831
61569W        W28352  22.252  32.634   3.651
61570W        W28353  29.887  35.106  12.166
61571W        W28354  25.196   3.031  13.963
61572W        W28355   2.835  19.688  14.984
61573W        W28356  30.600  14.994  11.988
61574W        W28357   3.802  41.527  13.444
61575W        W28358  12.753  41.452  11.128
61576W        W28359  15.009  34.617  11.585
61577W        W28360  13.654  38.723   0.296
61578W        W28361   3.340  23.425   4.122
61579W        W28362  16.494   7.761  13.067
61580W        W28363  26.906  18.548   1.749
61581W        W28364   9.840  20.427  12.286
61582W        W28365  35.541  15.019  14.509
61583W        W28366  14.863  17.195   1.711
61584W        W28367  32.880  12.242  13.518
61585W        W28368  21.529  23.056  12.344
61586W        W28369  17.059  13.989   9.624
61587W        W28370  20.423   4.352   1.820
61588W        W28371  39.938  11.672   3.100
61589W        W28372   0.283  40.655   0.395
61590W        W28373   1.286  41.692  11.574
61591W        W28374   4.934  15.614   4.510
61592W        W28375  10.251  24.712   3.423
61593W        W28376  19.212  34.453  11.851
61594W        W28377  16.907  28.646   1.269
61595W        W28378   8.293   8.472   1.882
61596W        W28379   9.072  31.933   0.416
61597W        W28380  23.517  42.576  11.845
61598W        W28381  29.211  36.012   0.854
61599W        W28382   0.939  16.239   3.865
61600W        W28383  25.562  23.247   0.455
61601W        W28384   7.069  21.238  14.297
61602W        W28385  27.112  13.765  13.230
61603W        W28386  42.600   1.950   4.300
61604W        W28387   0.709   8.248  11.039
61605W        W28388   7.457   3.722   4.013
61606W        W28389  28.571  30.042   4.169
61607W        W28390   9.344  29.478  11.576
61608W        W28391  34.610  14.048   3.608
61609W        W28392   3.694  21.215   1.161
61610W        W28393   2.202  38.049   0.306
61611W        W28394  27.665  23.715   0.816
61612W        W28395  35.696  30.748  14.800
61613W        W28396   7.404  24.622  13.341
61614W        W28397  18.201  39.414  13.419
61615W        W28398  34.441  18.888   2.693
61616W        W28399   1.317   1.000   1.793
61617W        W28400  41.806  31.575  13.050
61618W        W28401  19.350  12.927  14.829
61619W        W28402  24.471  16.263   4.934
61620W        W28403  29.546   4.310  11.479
61621W        W28404  13.120   4.410   4.669
61622W        W28405   9.733  37.570   0.883
61623W        W28406  32.569  30.483   0.825
61624W        W28407  42.577  40.051  12.477
61625W        W28408  33.095  15.255  13.029
61626W        W28409  16.547  33.053  14.395
61627W        W28410  16.820  39.743  12.423
61628W        W28411  38.555  30.102   3.920
61629W        W28412  19.371   8.173  11.174
61630W        W28413   9.774   1.869   0.703
61631W        W28414  32.551  21.242   0.727
61632W        W28415  24.991  19.053  11.386
61633W        W28416  11.772  33.612  10.757
61634W        W28417  19.858   2.271   4.282
61635W        W28418   1.884   6.881  12.184
61636W        W28419  23.292  12.838  11.592
61637W        W28420  27.581   9.421   0.315
61638W        W28421  32.406   6.661  11.701
61639W        W28422  32.065  40.480  12.021
61640W        W28423   6.179   0.303   4.162
61641W        W28424  31.103  10.648  10.893
61642W        W28425  33.576  39.055   4.494
61643W        W28426   4.379  32.804  12.475
61644W        W28427  40.993  15.677   3.040
61645W        W28428  22.931  31.057   4.333
61646W        W28429  37.911  32.906  12.890
61647W        W28430  41.005  28.891  12.476
61648W        W28431  11.137  15.350   3.299
61649W        W28432  28.483  14.198   4.690
61650W        W28433   6.210   1.310  14.284
61651W        W28434  36.279  33.161   0.931
61652W        W28435  15.446   3.666   4.303
61653W        W28436  32.695  17.768   5.131
61654W        W28437  27.507   2.455  11.762
61655W        W28438  33.917  42.152   0.240
61656W        W28439  31.376   2.717  10.711
61657W        W28440  15.827  40.796   1.771
61658W        W28441  25.179  27.606   3.630
61659W        W28442  43.025   7.666   1.920
61660W        W28443  38.556   8.716  12.037
61661W        W28444  14.616  22.551   3.978
61662W        W28445  28.498  12.153   0.494
61663W        W28446  22.451   8.949   1.784
61664W        W28447  26.973  44.299   0.751
61665W        W28448  43.877   7.280  14.642
61666W        W28449  13.571   8.812   3.279
61667W        W28450   3.460  39.096  12.529
61668W        W28451  17.840  29.574   1.397
61669W        W28452  29.090  12.800   1.789
61670W        W28453  27.035  36.977   3.845
61671W        W28454  28.114  27.862  12.634
61672W        W28455  14.071   9.906  11.193
61673W        W28456  40.496  38.245   4.659
61674W        W28457  15.060   4.302  10.798
61675W        W28458  22.649  37.539  13.387
61676W        W28459  15.622  19.745   2.421
61677W        W28460  16.544  32.066   3.198
61678W        W28461  31.941  36.564  11.408
61679W        W28462  16.810  15.930  12.306
61680W        W28463   3.387  26.556  13.884
61681W        W28464  20.113   2.668   4.052
61682W        W28465   6.790  44.889   4.949
61683W        W28466  35.823  19.086  10.794
61684W        W28467  13.655  24.997  11.552
61685W        W28468   2.547   4.872   1.466
61686W        W28469  38.033  36.489  11.541
61687W        W28470  10.322  21.404  13.720
61688W        W28471  28.569  24.284   4.538
61689W        W28472  15.375  33.907  13.385
61690W        W28473  11.141  31.446  13.382
61691W        W28474   7.675  14.858  12.024
61692W        W28475  17.682  39.323  12.605
61693W        W28476  27.250  23.465  10.978
61694W        W28477   6.850  14.895  12.107
61695W        W28478   7.574  12.479  10.324
61696W        W28479  41.368  20.705   3.982
61697W        W28480   3.639  24.424   2.289
61698W        W28481  38.284   4.905   1.880
61699W        W28482  11.391  41.450   4.469
61700W        W28483  37.316  39.103  13.391
61701W        W28484  34.040   1.955  13.679
61702W        W28485  11.678  24.774  14.520
61703W        W28486  27.226  30.599   2.705
61704W        W28487   8.885  43.600  13.017
61705W        W28488   6.881  22.714  13.045
61706W        W28489   6.242  39.011  11.091
61707W        W28490  18.612   9.832   1.884
61708W        W28491  12.642  44.737   3.897
61709W        W28492   4.521   4.445   0.401
61710W        W28493   0.021   9.177  14.041
61711W        W28494  27.583   3.407  12.805
61712W        W28495  16.636  17.539  11.854
61713W        W28496  34.269  31.432  11.935
61714W        W28497  25.078  16.695  13.537
61715W        W28498  42.574   5.117   4.575
61716W        W28499  43.977  25.389   2.139
61717W        W28500   2.072  34.358  12.007
61718W        W28501  15.842  18.029  13.586
61719W        W28502  43.120  17.986  14.816
61720W        W28503   3.262  21.137  10.715
61721W        W28504  40.753  43.747   0.757
61722W        W28505  13.693  27.932  14.767
61723W        W28506  12.703  35.087   1.681
61724W        W28507   4.434  14.663   4.064
61725W        W28508   1.302   4.728  11.969
61726W        W28509  29.943  33.048   1.460
61727W        W28510  21.474  15.657  11.966
61728W        W28511   7.961  42.811  11.222
61729W        W28512  31.119   4.724   3.677
61730W        W28513  12.682  16.592  14.766
61731W        W28514  14.737  12.311   1.729
61732W        W28515  34.472  43.847  11.188
61733W        W28516  23.185  17.273  12.176
61734W        W28517   8.913  33.636  13.314
61735W        W28518  36.619  15.976   0.728
61736W        W28519  10.233  22.346  13.440
61737W        W28520  29.581   6.275   3.349
61738W        W28521   4.401  40.036  12.185
61739W        W28522  18.871   3.080  10.857
61740W        W28523  32.531  22.542  12.589
61741W        W28524   6.836  23.609  11.063
61742W        W28525  39.425   6.892  10.622
61743W        W28526  31.391  20.179   9.933
61744W        W28527   0.654  39.037   1.706
61745W        W28528  10.609   5.875  12.420
61746W        W28529   2.661  11.713  14.676
61747W        W28530  25.582  24.507  13.015
61748W        W28531  38.431   9.351   0.725
61749W        W28532  30.944  28.475  13.775
61750W        W28533   0.363  20.005   2.277
61751W        W28534  33.889  32.715  13.113
61752W        W28535  33.916  13.061   4.102
61753W        W28536   7.680  27.128  10.738
61754W        W28537  14.397  44.285  13.095
61755W        W28538  14.653  12.789  11.550
61756W        W28539  31.047  22.241   2.833
61757W        W28540  27.054  34.404  14.441
61758W        W28541   1.462  41.907   2.390
61759W        W28542  18.560   4.059  14.836
61760W        W28543   8.588  16.773   3.088
61761W        W28544  10.803   6.311   5.400
61762W        W28545  23.362  10.579  12.051
61763W        W28546  29.395   3.864  14.499
61764W        W28547   0.029  35.616   4.195
61765W        W28548   3.450   3.952  11.516
61766W        W28549  44.044  10.133  13.014
61767W        W28550  35.846   2.941   0.117
61768W        W28551   5.979  29.916   3.562
61769W        W28552  42.834  21.584  13.620
61770W        W28553  20.186  11.651  13.374
61771W        W28554  15.251  24.977  11.948
61772W        W28555  26.547   5.898   0.242
61773W        W28556  12.075   4.449   4.559
61774W        W28557  25.403  19.660  14.945
61775W        W28558  39.471  13.578  12.624
61776W        W28559  30.916  33.355   2.236
61777W        W28560   5.344  18.010   4.769
61778W        W28561  22.529  25.072  11.006
61779W        W28562  40.361   8.392  11.697
61780W        W28563  10.143  34.261  13.912
61781W        W28564  44.072  17.209   1.366
61782W        W28565  35.942   1.447   2.839
61783W        W28566   1.774  21.184  11.515
61784W        W28567  18.342  16.875   1.248
61785W        W28568   9.922  41.231   0.949
61786W        W28569  43.889   0.357  13.891
61787W        W28570  28.175  31.898   4.458
61788W        W28571   5.925  31.420  12.829
61789W        W28572  42.672  21.551   2.739
61790W        W28573  32.754   6.146   4.952
61791W        W28574  21.418   7.218  11.109
61792W        W28575  26.580  40.574   1.478
61793W        W28576  36.894   8.445   4.715
61794W        W28577  44.260  32.634  14.323
61795W        W28578   1.321  33.804  10.971
61796W        W28579   7.945   8.166   0.698
61797W        W28580   0.111  16.795  12.347
61798W        W28581  40.317  19.585  13.403
61799W        W28582   8.680   1.975   2.679
61800W        W28583  40.498  41.551  10.823
61801W        W28584  34.642  39.573  10.731
61802W        W28585   4.792   1.792  12.887
61803W        W28586  13.054  34.262   4.232
61804W        W28587  42.355  19.162   3.030
61805W        W28588  11.389  14.200   4.577
61806W        W28589  26.391   2.384  12.673
61807W        W28590  41.968  19.012  12.153
61808W        W28591  37.154  30.555  13.777
61809W        W28592   4.675   8.660  12.893
61810W        W28593  33.586   4.931   4.147
61811W        W28594   7.825  12.313  10.738
61812W        W28595   5.928  22.772   4.556
61813W        W28596  20.016  11.291   2.948
61814W        W28597   7.657  34.409  13.410
61815W        W28598  40.266   8.323   4.060
61816W        W28599   0.184  36.243  11.884
61817W        W28600  16.537  42.485   0.837
61818W        W28601   8.705  39.706   2.051
61819W        W28602  22.090  28.330   2.348
61820W        W28603  32.648   1.755   1.318
61821W        W28604  33.004  14.087   4.103
61822W        W28605  23.514  23.804  10.523
61823W        W28606  39.256   7.805   3.335
61824W        W28607  24.610  28.102  10.703
61825W        W28608   1.896  42.765   4.090
61826W        W28609  20.068   5.687   2.892
61827W        W28610  13.390  23.103  12.455
61828W        W28611  31.090  19.931  11.068
61829W        W28612  16.858  33.536   0.854
61830W        W28613   4.257  25.003   4.666
61831W        W28614   9.821   6.684   3.990
61832W        W28615   7.825  39.048   0.032
61833W        W28616  42.901  19.543   1.441
61834W        W28617  33.913  19.599   0.297
61835W        W28618  38.354  28.146   0.935
61836W        W28619  26.158  30.502   3.831
61837W        W28620  40.103  24.212  10.724
61838W        W28621  42.724  33.529   4.603
61839W        W28622  33.478  13.355   4.192
61840W        W28623   1.744  26.018   0.968
61841W        W28624   7.239  21.253   1.703
61842W        W28625  20.993  33.688   2.362
61843W        W28626   7.884  34.929   2.511
61844W        W28627  23.013   5.323   2.431
61845W        W28628   0.711  17.773   2.681
61846W        W28629   7.052  22.772  12.555
61847W        W28630  21.710  20.244   4.203
61848W        W28631  12.789  15.700  14.299
61849W        W28632  24.746  13.824   3.798
61850W        W28633  18.867  34.127  12.032
61851W        W28634  11.247  36.791   2.755
61852W        W28635  22.584   0.387  12.407
61853W        W28636  18.070  31.222   3.686
61854W        W28637   9.801  14.597  13.505
61855W        W28638   7.734  36.861   1.415
61856W        W28639  14.592  14.278   3.648
61857W        W28640  35.791  14.275  13.531
61858W        W28641  15.158  44.175  10.423
61859W        W28642  42.996  19.834   2.337
61860W        W28643  43.872  15.299  10.693
61861W        W28644  36.597  27.005  11.202
61862W        W28645   2.998  33.113  13.391
61863W        W28646  35.921   3.883   3.038
61864W        W28647  24.691  37.480   1.477
61865W        W28648  28.917  35.484  12.283
61866W        W28649   9.346  30.962   2.953
61867W        W28650   5.082  42.056  10.583
61868W        W28651  42.408  19.612  12.759
61869W        W28652  44.524   5.290   0.361
61870W        W28653  31.179  26.104   0.461
61871W        W28654  13.716   0.608  14.464
61872W        W28655  35.704   7.797  13.294
61873W        W28656  35.388   5.945  11.997
61874W        W28657  42.869  43.779   2.558
61875W        W28658  11.861  31.682   0.429
61876W        W28659   5.468   5.977   1.733
61877W        W28660  12.797   3.923  13.543
61878W        W28661  22.718   0.723   1.223
61879W        W28662  43.424  39.347   3.336
61880W        W28663  39.940  31.740   9.930
61881W        W28664  22.133   6.472  14.956
61882W        W28665   4.393  32.471   4.642
61883W        W28666  22.197  35.395  10.973
61884W        W28667  36.022  16.586   4.144
61885W        W28668  35.722  18.474   0.742
61886W        W28669   9.597  34.105  11.557
61887W        W28670   6.450   6.297  12.084
61888W        W28671  15.103  20.250   4.225
61889W        W28672  40.867   2.661  11.986
61890W        W28673  10.341  43.223  13.988
61891W        W28674  44.544  26.586   1.590
61892W        W28675  40.734   4.213  12.592
61893W        W28676  29.588   3.273   4.967
61894W        W28677  37.067  43.892  14.865
61895W        W28678  40.474   1.355   1.912
61896W        W28679  18.364  32.025  10.951
61897W        W28680  35.583  10.652  10.092
61898W        W28681  15.736   7.325  10.696
61899W        W28682   9.777  10.618  12.529
61900W        W28683  22.529  37.465   1.291
61901W        W28684  14.045  14.364   1.809
61902W        W28685  25.644  26.203   2.335
61903W        W28686   3.083  35.890   1.659
61904W        W28687  15.819  23.683   2.879
61905W        W28688   0.781  23.253   0.494
61906W        W28689  29.388  20.688  12.334
61907W        W28690  29.394  24.746   0.530
61908W        W28691  28.119  41.357  13.854
61909W        W28692   1.584   6.451   1.821
61910W        W28693  34.515   5.120   2.211
61911W        W28694  18.595  33.653  13.848
61912W        W28695   4.765   1.485  14.081
61913W        W28696  35.434  44.564  13.548
61914W        W28697   6.367   9.786   3.907
61915W        W28698   6.721  17.636  11.619
61916W        W28699  30.041  13.598   1.757
61917W        W28700  43.767  15.043   3.111
61918W        W28701  38.485  13.073  14.520
61919W        W28702  25.510  40.376  13.056
61920W        W28703  16.702  20.067   2.351
61921W        W28704   8.654   3.976   4.835
61922W        W28705  22.126   1.020   2.299
61923W        W28706  14.997  23.778   0.553
61924W        W28707  28.191  22.842  14.752
61925W        W28708  19.753  30.846  14.862
61926W        W28709  43.425   7.135   1.213
61927W        W28710   9.208  31.538   2.222
61928W        W28711  33.114  13.930  10.712
61929W        W28712  20.478  37.549  13.047
61930W        W28713  43.978   4.715   2.559
61931W        W28714  43.262  27.728   1.336
61932W        W28715  10.745   3.947  14.612
61933W        W28716   7.167  43.162  13.965
61934W        W28717  39.644   9.901  12.483
61935W        W28718   9.077   6.702  13.453
61936W        W28719  14.118   9.318   0.799
61937W        W28720   4.776  38.397   4.907
61938W        W28721  35.566  26.330   0.381
61939W        W28722  34.582   2.903   1.761
61940W        W28723  22.268  30.714   1.821
61941W        W28724  35.901  24.964   3.597
61942W        W28725  35.132  23.432   1.043
61943W        W28726  21.458  16.222  11.489
61944W        W28727   2.689  11.361   2.769
61945W        W28728  30.553  22.242   4.204
61946W        W28729  27.943  39.978   0.992
61947W        W28730  28.626  38.922   0.962
61948W        W28731   8.171  23.691   1.889
61949W        W28732  31.542  10.944  13.341
61950W        W28733  24.579  19.280   3.629
61951W        W28734   3.707  29.544   1.901
61952W        W28735  35.392   6.996   3.189
61953W        W28736  41.792   5.257   0.956
61954W        W28737  31.649   6.834   1.351
61955W        W28738  15.329  40.672   4.296
61956W        W28739   9.196   0.837   1.959
61957W        W28740  22.542  44.422   1.183
61958W        W28741  12.256  44.906   3.595
61959W        W28742  23.720  19.256   3.643
61960W        W28743  34.896  44.629   1.825
61961W        W28744   3.462  32.967   3.099
61962W        W28745  19.350  33.911   1.325
61963W        W28746  41.459  26.399  11.561
61964W        W28747  34.478  19.988   1.042
61965W        W28748  44.690  11.895  11.047
61966W        W28749  38.704  38.181   1.467
61967W        W28750   1.137  38.000   4.293
61968W        W28751  44.021  10.186   1.959
61969W        W28752  13.726   1.876  11.166
61970W        W28753  12.137   7.102   1.242
61971W        W28754  15.036  44.536   1.269
61972W        W28755   2.772  31.668  11.761
61973W        W28756  17.193  16.943  10.890
61974W        W28757   2.851   2.835   3.611
61975W        W28758  17.379  32.608  13.442
61976W        W28759  36.086   7.238  13.457
61977W        W28760  43.348  11.601   2.150
61978W        W28761   2.101   6.650   2.910
61979W        W28762   6.337   4.948  14.954
61980W        W28763  21.248  15.521   0.625
61981W        W28764  19.425   6.983  11.763
61982W        W28765  32.382  14.645  14.776
61983W        W28766   6.232  14.774   0.407
61984W        W28767  11.582  23.574   3.325
61985W        W28768  33.583  19.595  10.981
61986W        W28769   4.194  14.128   2.231
61987W        W28770  32.051  14.330   1.221
61988W        W28771  18.354  34.928   0.498
61989W        W28772   2.474   0.027  11.469
61990W        W28773  33.010  12.323  14.550
61991W        W28774  17.510  30.734  10.474
61992W        W28775  15.093  17.222   0.002
61993W        W28776   9.819  28.675   2.316
61994W        W28777  20.871  26.688  14.009
61995W        W28778   8.126  10.701  14.352
61996W        W28779  25.704  22.473  14.931
61997W        W28780   9.892  18.094   1.245
61998W        W28781   9.307  29.864   0.261
61999W        W28782  44.982  44.198  14.000
62000W        W28783   2.324  35.322  13.349
62001W        W28784   3.470  30.106   3.772
62002W        W28785  37.295   4.811   2.123
62003W        W28786  29.027  28.173  14.546
62004W        W28787  35.577  44.437   4.131
62005W        W28788  12.859  12.984  13.702
62006W        W28789  39.879  20.434   2.271
62007W        W28790  14.628  41.071   1.477
62008W        W28791  37.531  14.704  12.546
62009W        W28792  41.527  10.885   2.718
62010W        W28793  16.805   1.885   0.499
62011W        W28794  13.478  38.748   1.192
62012W        W28795  24.734  21.107   4.435
62013W        W28796  44.875   9.389  13.596
62014W        W28797  26.633  41.888   0.357
62015W        W28798  42.120   0.022  12.731
62016W        W28799  35.036   7.890  11.269
62017W        W28800   3.791  28.570  14.009
62018W        W28801   7.470   2.292  14.016
62019W        W28802  16.702  11.270  12.871
62020W        W28803  40.870  44.130  13.115
62021W        W28804  36.011  35.732  14.997
62022W        W28805  44.860  32.088   3.104
62023W        W28806   7.648  25.165  11.169
62024W        W28807   9.503  42.474  11.287
62025W        W28808  42.310   1.254  12.083
62026W        W28809   3.840  41.458   4.148
62027W        W28810   1.859  14.361   4.585
62028W        W28811   6.670   8.611   3.316
62029W        W28812  26.578  23.665  11.531
62030W        W28813  17.254   8.568   1.733
62031W        W28814  34.333  43.231  11.953
62032W        W28815  41.518  11.293   1.770
62033W        W28816  19.586  32.081  13.121
62034W        W28817  12.066  15.691   0.984
62035W        W28818  17.575  35.433   0.501
62036W        W28819   4.853  44.073  14.044
62037W        W28820   2.897  31.015  12.353
62038W        W28821  35.979  11.312  13.534
62039W        W28822   8.388   6.719   2.695
62040W        W28823  35.511  39.118   0.956
62041W        W28824  44.733  32.227  11.844
62042W        W28825  12.438  32.661   3.168
62043W        W28826   5.158  14.236   2.171
62044W        W28827  18.491  28.906   2.744
62045W        W28828  29.124  26.248  10.590
62046W        W28829  27.813  23.683  14.333
62047W        W28830  10.306   7.264   2.825
62048W        W28831  27.529  23.342  11.462
62049W        W28832  24.364  11.207  13.568
62050W        W28833   0.561  34.387  11.474
62051W        W28834  38.344   3.011  10.676
62052W        W28835  33.448   0.154  10.661
62053W        W28836  12.130  34.373  10.826
62054W        W28837  21.570  18.364  11.151
62055W        W28838  39.835  14.876   4.189
62056W        W28839   1.498  39.454  10.811
62057W        W28840   3.131  34.366   2.732
62058W        W28841  10.831  20.440   3.748
62059W        W28842  17.161  37.640  11.905
62060W        W28843  10.033  24.534   0.741
62061W        W28844  44.663  17.393  14.481
62062W        W28845   3.740  25.748   1.300
62063W        W28846   1.552  32.553   1.488
62064W        W28847   0.543   8.690  12.857
62065W        W28848  24.247   3.499  13.981
62066W        W28849  25.692   4.969  14.539
62067W        W28850  23.041   3.930   3.218
62068W        W28851  44.472  19.094  13.333
62069W        W28852  28.213  24.214  10.578
62070W        W28853  22.217   1.774   4.473
62071W        W28854  23.496  10.890   0.868
62072W        W28855  44.014   2.835  14.560
62073W        W28856   7.520  26.979   3.430
62074W        W28857   6.775  43.272   3.537
62075W        W28858  11.523  19.281   3.205
62076W        W28859   3.407  30.458  11.367
62077W        W28860  16.532  31.124   2.161
62078W        W28861  40.483  12.107  14.254
62079W        W28862  35.714  16.162   1.192
62080W        W28863   2.771  23.930  14.283
62081W        W28864  16.612  28.388   0.873
62082W        W28865  20.027  18.774   1.254
62083W        W28866  18.850  26.582  14.845
62084W        W28867  13.352  32.787  12.032
62085W        W28868   8.974  37.112  13.313
62086W        W28869  21.245  34.635  13.047
62087W        W28870  34.603  25.702  14.032
62088W        W28871  14.653  44.872   0.806
62089W        W28872  34.380   2.981   2.682
62090W        W28873  30.394  18.537   4.545
62091W        W28874  42.526  39.004  13.044
62092W        W28875   0.423  38.485   3.162
62093W        W28876  15.126  36.282  11.373
62094W        W28877  12.080  15.783  13.114
62095W        W28878  39.958  23.662  13.460
62096W        W28879  35.342  21.596  14.298
62097W        W28880  10.913  40.401   0.929
62098W        W28881  15.057  20.147  11.576
62099W        W28882  37.117   3.556  13.420
62100W        W28883  39.964   6.938   3.798
62101W        W28884   5.739  35.673  13.542
62102W        W28885  32.642  34.716   2.085
62103W        W28886  14.997  17.722   1.876
62104W        W28887  33.103  24.748  13.862
62105W        W28888  24.936  35.004   4.269
62106W        W28889  16.827   5.382  13.040
62107W        W28890  26.972  41.666  14.528
62108W        W28891   5.787  19.322   4.693
62109W        W28892  10.688  20.989   1.239
62110W        W28893   6.848  23.186   1.707
62111W        W28894  18.503   4.914   0.404
62112W        W28895   7.650  14.049   4.555
62113W        W28896  42.933  35.387   4.124
62114W        W28897  13.999  40.486   4.852
62115W        W28898  17.264  15.222  12.767
62116W        W28899  10.806  36.000  13.397
62117W        W28900  14.535  35.611   1.424
62118W        W28901  33.378   8.789   0.266
62119W        W28902   3.771  28.177   3.022
62120W        W28903  23.278  37.600  11.224
62121W        W28904  31.446   8.376   1.341
62122W        W28905  20.063  34.465  11.185
62123W        W28906  21.861  44.391   1.862
62124W        W28907  34.363  41.818  12.075
62125W        W28908  16.087   6.211   1.174
62126W        W28909   0.509  39.950   4.667
62127W        W28910   8.360  25.011   2.005
62128W        W28911   0.403  27.226  14.313
62129W        W28912   0.248  18.054   2.344
62130W        W28913  41.100   8.293   0.760
62131W        W28914   2.156  30.856   1.738
62132W        W28915  43.384  38.741  12.075
62133W        W28916  28.562  29.463  11.698
62134W        W28917  23.519   5.124  11.623
62135W        W28918   2.903  18.159  12.737
62136W        W28919  13.203  37.853   1.839
62137W        W28920  37.953  31.035  12.387
62138W        W28921  41.286   1.438  12.084
62139W        W28922  43.262  14.152   1.567
62140W        W28923  28.899  20.788   4.104
62141W        W28924  41.291  11.450  11.391
62142W        W28925  11.149   3.378   1.353
62143W        W28926  25.794   9.436  13.878
62144W        W28927   7.829  41.869   3.684
62145W        W28928   0.200  15.060  13.492
62146W        W28929   8.316  10.258  14.884
62147W        W28930  35.801  35.593  10.768
62148W        W28931   0.618  42.400  12.448
62149W        W28932   8.825  19.550   3.870
62150W        W28933  31.950   2.735   0.220
62151W        W28934  19.135  44.217   4.563
62152W        W28935  29.876  27.192   2.695
62153W        W28936  38.512  28.443  11.083
62154W        W28937  18.049  13.106   4.507
62155W        W28938  25.964  30.463  12.927
62156W        W28939  18.093  39.486  13.956
62157W        W28940  34.622  38.534  10.667
62158W        W28941  30.639  32.465  14.313
62159W        W28942  28.616   3.096  11.123
62160W        W28943  34.131  36.089   1.188
62161W        W28944  24.037  35.925  14.798
62162W        W28945  41.029  27.120   0.206
62163W        W28946  13.071  17.579   2.418
62164W        W28947  42.509  34.151  14.342
62165W        W28948  30.985  23.789  12.832
62166W        W28949   0.022  35.345  14.913
62167W        W28950  23.057  11.804   0.455
62168W        W28951   3.367   0.726  13.291
62169W        W28952  38.505  31.769  12.417
62170W        W28953  19.158  23.014  13.613
62171W        W28954  31.006  20.204   4.561
62172W        W28955  42.058   4.935   2.312
62173W        W28956  39.588  20.144  11.605
62174W        W28957  38.906  41.041   3.615
62175W        W28958   4.755  23.518  11.009
62176W        W28959  24.647  15.205   1.357
62177W        W28960  14.185  31.256   3.259
62178W        W28961  38.609   7.655   2.594
62179W        W28962  21.483  12.768  10.337
62180W        W28963  15.134   4.513   4.813
62181W        W28964  19.832  12.331   0.277
62182W        W28965  22.313  37.937   1.324
62183W        W28966  18.582  10.537  13.397
62184W        W28967  44.283  39.068  11.990
62185W        W28968  27.163  41.493  12.368
62186W        W28969  42.960  32.189   0.472
62187W        W28970  26.586  39.033   1.203
62188W        W28971  18.066  33.037   2.135
62189W        W28972   7.315  35.445  11.557
62190W        W28973  38.427  19.695   2.754
62191W        W28974  44.428  16.937  10.586
62192W        W28975  18.715  26.194  14.529
62193W        W28976   4.826  22.208  14.236
62194W        W28977  34.522  17.099   1.346
62195W        W28978  37.999  21.545   2.372
62196W        W28979   9.253  11.782  13.361
62197W        W28980  30.958   4.413  11.499
62198W        W28981  17.596   7.618   0.861
62199W        W28982  26.738  29.535  12.494
62200W        W28983  33.035  32.134  10.753
62201W        W28984  38.465  39.423  11.191
62202W        W28985  36.182  35.419  14.601
62203W        W28986   8.825  30.439  14.938
62204W        W28987  37.587  20.445  12.581
62205W        W28988  33.992  37.594  12.296
62206W        W28989  36.871  13.148   4.674
62207W        W28990  38.840  27.318  11.671
62208W        W28991  13.617  34.250   0.894
62209W        W28992  43.469  32.108   0.290
62210W        W28993  36.856  16.307   4.661
62211W        W28994  39.054   3.652  10.940
62212W        W28995  35.636  22.670   4.020
62213W        W28996  44.792  39.035  12.031
62214W        W28997  35.601  38.988   3.695
62215W        W28998  41.569  22.580   3.684
62216W        W28999  36.362  42.498   0.804
62217W        W29000  39.115   3.472  12.442
62218W        W29001  37.357   4.791   2.638
62219W        W29002  33.129  39.006   1.243
62220W        W29003  28.511  18.139  13.518
62221W        W29004  39.834   3.948   4.085
62222W        W29005  27.513  16.548   1.854
62223W        W29006  30.026  15.757  10.689
62224W        W29007   3.161  34.037  14.306
62225W        W29008  11.308   6.288   5.346
62226W        W29009  28.414  12.722   4.548
62227W        W29010   2.264  17.683   2.639
62228W        W29011   5.023   4.765  14.562
62229W        W29012   2.842  16.876   2.420
62230W        W29013  39.323  36.289   4.550
62231W        W29014  40.005  35.714   1.268
62232W        W29015  44.671   3.928   3.728
62233W        W29016  18.268  22.956   0.896
62234W        W29017  17.794   2.914  14.987
62235W        W29018  36.826  22.176   2.155
62236W        W29019  12.162  44.287  11.601
62237W        W29020  11.679   5.871   1.334
62238W        W29021   0.938   7.768  11.096
62239W        W29022  14.606  10.671   1.746
62240W        W29023  38.692  10.811   1.004
62241W        W29024   0.551  17.081  12.428
62242W        W29025   8.536  39.223  13.846
62243W        W29026  22.633  17.330  11.036
62244W        W29027  41.561   0.261   2.617
62245W        W29028  18.690  43.322  12.403
62246W        W29029  27.570   4.850   1.834
62247W        W29030  20.687  17.349   1.404
62248W        W29031   6.838  31.409   4.123
62249W        W29032   0.372  36.828   4.773
62250W        W29033  14.495   6.418  12.973
62251W        W29034  10.549   6.799   2.807
62252W        W29035  25.003   0.493   1.821
62253W        W29036  11.428  41.493  11.897
62254W        W29037  43.378  27.600   2.657
62255W        W29038  20.419  36.680   3.380
62256W        W29039  39.425  20.590  11.123
62257W        W29040  22.718  29.796  11.127
62258W        W29041  12.197  25.422   4.985
62259W        W29042  33.888  12.762   3.648
62260W        W29043  16.559  30.698  13.558
62261W        W29044  29.689  29.088   4.581
62262W        W29045   3.438  30.877  14.972
62263W        W29046  30.324  15.900  11.088
62264W        W29047  16.612  35.900   2.681
62265W        W29048  16.174  27.963   1.140
62266W        W29049  25.030   0.532  12.881
62267W        W29050  18.547  42.431   2.983
62268W        W29051  17.694   5.181   1.379
62269W        W29052  34.171  34.882  13.936
62270W        W29053  37.569   4.852  11.054
62271W        W29054  27.658  20.656   1.960
62272W        W29055   8.131   9.303  13.588
62273W        W29056   9.867  14.906   2.440
62274W        W29057  40.101   9.320   3.178
62275W        W29058  31.142  36.549   4.310
62276W        W29059  17.622  24.637   4.518
62277W        W29060   1.772  20.449   2.626
62278W        W29061   2.386   9.768  14.937
62279W        W29062  22.755   5.771   1.816
62280W        W29063   5.430  11.737  10.685
62281W        W29064  33.922   1.721   0.909
62282W        W29065  17.266  17.219   2.673
62283W        W29066  38.347   0.876  12.295
62284W        W29067  12.104  16.348   0.266
62285W        W29068   9.806  13.552  13.562
62286W        W29069   1.110   3.896   4.118
62287W        W29070  39.618  44.060   1.319
62288W        W29071   3.422  30.421  13.857
62289W        W29072  16.652  25.433   3.669
62290W        W29073  44.783  44.694  11.015
62291W        W29074   0.102  42.630  14.598
62292W        W29075  10.035  37.064   4.102
62293W        W29076  21.520  17.127  12.519
62294W        W29077  23.591  27.356  10.710
62295W        W29078  38.057  11.594  12.917
62296W        W29079  37.805   5.186  10.777
62297W        W29080  33.903  31.185   1.359
62298W        W29081  21.147   4.753  12.440
62299W        W29082   1.065  38.070  13.994
62300W        W29083   0.692  15.322   3.510
62301W        W29084  17.225  21.603   0.507
62302W        W29085  30.900  23.476   2.196
62303W        W29086  22.186   3.495  14.262
62304W        W29087   1.838  29.560   3.186
62305W        W29088  31.425  37.831   1.760
62306W        W29089  29.241  12.488  13.362
62307W        W29090  38.097  22.338   4.737
62308W        W29091  15.293   5.581   3.239
62309W        W29092   6.070  38.481   3.521
62310W        W29093  21.595  32.836  10.857
62311W        W29094  32.234   5.750   3.650
62312W        W29095  22.725  31.308   1.282
62313W        W29096  14.183  38.990   3.371
62314W        W29097  30.596   5.276  14.429
62315W        W29098  13.279  16.638   4.176
62316W        W29099  39.092   9.794  13.502
62317W        W29100  33.228  26.501  12.018
62318W        W29101  24.073  40.788  13.631
62319W        W29102  10.421  26.630   4.628
62320W        W29103   6.602  14.064  11.699
62321W        W29104  21.215   7.622  12.922
62322W        W29105  12.896  20.131   0.881
62323W        W29106  27.678   0.443   0.027
62324W        W29107  28.399  14.403   2.195
62325W        W29108   8.746  29.814   2.725
62326W        W29109  25.916  38.018   0.441
62327W        W29110  22.793  11.702   5.071
62328W        W29111  16.768  30.710  12.341
62329W        W29112   7.921  31.176   2.327
62330W        W29113   4.653  40.568  14.730
62331W        W29114  29.129  35.176  10.815
62332W        W29115  37.519  34.317   4.422
62333W        W29116  33.639  26.222  11.643
62334W        W29117  19.837  21.149   2.620
62335W        W29118   4.243   6.867  14.835
62336W        W29119  20.998  42.375   1.748
62337W        W29120  28.663  15.708  14.485
62338W        W29121  35.436  32.063  12.357
62339W        W29122  15.816  26.202  14.338
62340W        W29123  29.468   4.346  10.681
62341W        W29124  44.980  15.857  11.600
62342W        W29125  30.695   3.743   1.827
62343W        W29126  34.648   8.705  12.591
62344W        W29127   8.340  16.531  12.146
62345W        W29128  33.095  29.081  13.432
62346W        W29129  18.527  35.986   3.207
62347W        W29130  33.120  24.137   4.506
62348W        W29131  26.973  27.935  14.400
62349W        W29132  35.358  33.676  11.614
62350W        W29133  28.963  40.083   5.369
62351W        W29134   0.310  13.265  14.900
62352W        W29135  24.432  16.821  11.035
62353W        W29136  36.660   0.087  11.560
62354W        W29137  11.816  27.641   3.633
62355W        W29138   0.762   9.837   0.387
62356W        W29139  21.014   0.354   3.722
62357W        W29140  16.254  44.875   0.957
62358W        W29141  39.378  16.619   1.414
62359W        W29142   5.484   5.322  12.392
62360W        W29143   2.405  21.684  13.890
62361W        W29144   8.665  29.060  11.954
62362W        W29145  36.844  21.824   1.714
62363W        W29146  42.642  18.641   3.660
62364W        W29147  17.388  27.033   4.285
62365W        W29148   9.391  31.456   1.704
62366W        W29149  11.600  32.094  11.265
62367W        W29150  27.173  16.372   4.136
62368W        W29151  12.416  43.031   2.780
62369W        W29152  15.831  19.757  11.460
62370W        W29153  30.573  23.062   3.848
62371W        W29154   9.222  43.689  14.589
62372W        W29155  29.164  13.861  11.860
62373W        W29156  42.283  16.083  12.486
62374W        W29157  19.093  12.574   1.662
62375W        W29158  44.454  23.268   1.169
62376W        W29159  18.842  39.119  12.907
62377W        W29160  18.836   8.607   3.270
62378W        W29161   8.373  24.177  12.431
62379W        W29162  31.580  32.135  12.116
62380W        W29163   6.482  24.022   0.832
62381W        W29164  43.655  21.796  13.270
62382W        W29165  41.706  20.251   1.136
62383W        W29166   3.999  32.499  13.841
62384W        W29167  35.892  42.961   4.827
62385W        W29168  32.673   3.547  13.080
62386W        W29169  20.968   2.228  10.479
62387W        W29170   3.300  28.746  12.854
62388W        W29171  25.086  11.320  12.506
62389W        W29172  28.412  15.735  13.304
62390W        W29173   2.345  20.348   2.367
62391W        W29174  10.846   0.264  12.007
62392W        W29175  23.056   3.531   2.248
62393W        W29176   8.876  35.889  10.373
62394W        W29177  25.717  13.625   0.535
62395W        W29178  35.824  17.819   4.308
62396W        W29179  20.601  39.861   2.220
62397W        W29180  31.767  34.513   2.050
62398W        W29181  43.584  30.588   1.893
62399W        W29182  21.628  20.248  11.157
62400W        W29183   4.717  24.004   4.534
62401W        W29184  19.759  23.127  14.500
62402W        W29185  40.763   7.662   1.491
62403W        W29186  20.479  44.013   3.811
62404W        W29187  41.453  17.558   4.279
62405W        W29188  35.084  31.049  12.077
62406W        W29189  29.959  24.886   3.975
62407W        W29190  22.073  28.172   2.844
62408W        W29191   5.831  30.402  10.688
62409W        W29192  22.599  25.504  12.953
62410W        W29193   0.579  30.356  12.029
62411W        W29194  42.047   4.684   3.308
62412W        W29195   8.995  10.978   5.110
62413W        W29196  10.399  44.333  12.084
62414W        W29197   7.315   4.213   4.583
62415W        W29198   8.684  43.369   4.085
62416W        W29199  18.665  17.790   4.508
62417W        W29200  31.529   1.940   2.457
62418W        W29201  30.856   6.387  12.743
62419W        W29202   5.847  27.154  10.391
62420W        W29203  16.337  19.747  12.555
62421W        W29204   6.316  10.270  12.423
62422W        W29205   5.260  21.537   3.015
62423W        W29206  24.054  17.285  11.005
62424W        W29207  21.349  31.927   1.202
62425W        W29208   2.711  20.839   4.558
62426W        W29209  41.357   9.195   4.951
62427W        W29210  40.320  15.597   2.311
62428W        W29211  18.067  24.534   4.880
62429W        W29212  12.538  12.258  12.193
62430W        W29213  18.178  12.899   2.703
62431W        W29214  28.548  10.118   3.933
62432W        W29215   2.946  29.110  14.492
62433W        W29216  18.987  21.631   2.827
62434W        W29217  38.727  39.441   4.132
62435W        W29218  24.017  20.828  14.915
62436W        W29219  24.123   0.357   1.388
62437W        W29220   9.582  38.668   3.237
62438W        W29221  40.384  35.466  12.024
62439W        W29222  14.949   0.196  13.864
62440W        W29223   5.495  41.859   2.479
62441W        W29224  33.955  25.067   0.682
62442W        W29225  26.940  35.402  11.145
62443W        W29226  22.793  20.906  13.714
62444W        W29227   5.287   2.016  14.845
62445W        W29228  20.482  19.243  10.403
62446W        W29229  38.209  30.943  10.671
62447W        W29230   6.727  22.009   1.856
62448W        W29231  12.961  39.465   0.219
62449W        W29232  43.046  32.379   2.484
62450W        W29233  41.428  35.802   3.379
62451W        W29234  13.194  26.053  10.655
62452W        W29235  24.655  14.262   2.344
62453W        W29236  31.237   1.511  11.562
62454W        W29237  24.959   7.284   4.255
62455W        W29238  11.430   2.759  10.656
62456W        W29239   5.018  12.384  13.011
62457W        W29240  38.927  17.115   4.515
62458W        W29241  33.274  31.216  11.359
62459W        W29242  39.023  25.195  12.547
62460W        W29243  30.964  37.127  14.481
62461W        W29244   7.436  29.956  11.673
62462W        W29245  31.509  43.552   2.908
62463W        W29246  38.865  27.496   1.195
62464W        W29247  43.542  33.020  13.028
62465W        W29248  23.944  22.303   3.460
62466W        W29249  12.581   8.144   2.649
62467W        W29250  18.172  33.334   0.036
62468W        W29251  43.892   8.853   3.226
62469W        W29252  35.442  11.201  12.317
62470W        W29253  17.031  12.753   0.416
62471W        W29254  44.345  27.724  13.503
62472W        W29255  15.321  11.723   3.954
62473W        W29256   8.438  35.571   1.394
62474W        W29257  44.515  26.497   4.078
62475W        W29258  27.176   3.155  12.460
62476W        W29259  27.634  33.131   0.462
62477W        W29260   6.169  19.079   2.261
62478W        W29261  33.876  22.127   2.775
62479W        W29262  34.552  20.071   1.824
62480W        W29263  30.907  12.152  10.798
62481W        W29264  27.060   9.714   0.746
62482W        W29265  25.752  39.731  12.309
62483W        W29266  42.343  41.505   3.209
62484W        W29267   3.056  22.170   0.006
62485W        W29268  10.550   6.706   5.633
62486W        W29269  24.429   2.222   1.403
62487W        W29270  41.845  31.080  13.816
62488W        W29271  15.232  24.068  13.528
62489W        W29272   6.706   4.349  11.525
62490W        W29273   0.980   3.753   0.914
62491W        W29274  29.216  23.191   0.920
62492W        W29275  41.316  36.875  10.691
62493W        W29276  29.659   1.608   4.159
62494W        W29277  14.870  44.072   1.851
62495W        W29278  25.683  11.472   4.544
62496W        W29279  22.707  40.463   2.237
62497W        W29280   2.359   8.937  13.866
62498W        W29281  36.062   7.778  14.114
62499W        W29282  21.222  39.343   4.684
62500W        W29283  34.457  10.441  14.524
62501W        W29284  30.051  25.446  14.517
62502W        W29285  13.045  22.966  13.703
62503W        W29286   3.176  34.456   1.925
62504W        W29287  43.578  21.030   0.357
62505W        W29288  28.246  42.293  13.467
62506W        W29289  11.904  42.060  13.322
62507W        W29290  30.102  26.116   4.661
62508W        W29291   6.362  11.110   0.318
62509W        W29292  17.126  20.532  14.942
62510W        W29293  11.680  14.673   0.927
62511W        W29294   4.381  29.921  13.463
62512W        W29295  42.411  23.559  10.478
62513W        W29296  21.754  33.096  13.566
62514W        W29297  34.934  24.456  11.625
62515W        W29298   7.893  22.651   4.339
62516W        W29299  23.056  25.998   3.304
62517W        W29300  34.948  17.477   4.226
62518W        W29301  23.468  37.128   0.276
62519W        W29302   7.682  30.549  11.127
62520W        W29303   1.800  15.842   4.542
62521W        W29304  32.216   0.174  11.065
62522W        W29305  11.240  33.590  13.306
62523W        W29306  30.240  39.551   1.560
62524W        W29307   9.304   1.315  13.501
62525W        W29308  30.344   2.297  11.561
62526W        W29309  15.351  18.695  10.865
62527W        W29310  33.917  18.838   0.766
62528W        W29311  43.367  31.245   4.117
62529W        W29312  23.188  34.934  12.005
62530W        W29313  25.439  25.705   1.306
62531W        W29314  41.953  33.042   3.801
62532W        W29315  33.607   0.422   2.598
62533W        W29316  25.165  37.023   2.396
62534W        W29317  34.917   0.926  13.859
62535W        W29318  26.245   4.750  14.028
62536W        W29319  30.628   4.170  12.815
62537W        W29320  36.114  22.528   1.690
62538W        W29321  32.934   1.535   0.532
62539W        W29322  17.435   1.385   4.955
62540W        W29323  23.932  25.130   2.574
62541W        W29324  21.158  17.087   1.195
62542W        W29325   5.237  26.553   3.694
62543W        W29326  41.420  20.630   3.476
62544W        W29327   1.256  17.063  13.009
62545W        W29328  24.178   4.817   0.661
62546W        W29329  21.332  29.697   3.754
62547W        W29330  17.042  12.237   3.437
62548W        W29331   2.947  20.580   1.880
62549W        W29332  42.133   9.963   3.702
62550W        W29333  30.658  14.375   5.038
62551W        W29334  16.771  42.315  11.104
62552W        W29335  30.692  25.673  12.957
62553W        W29336  20.956  10.079   2.820
62554W        W29337  28.779  31.462  10.679
62555W        W29338  30.684  36.750  10.590
62556W        W29339  34.753  32.112  14.245
62557W        W29340  30.009  37.403  11.636
62558W        W29341  34.184  21.855   0.018
62559W        W29342  27.048  12.144  11.011
62560W        W29343  35.353  17.089  10.387
62561W        W29344  20.916  30.219  10.645
62562W        W29345  37.543  32.932  13.598
62563W        W29346  23.997  28.482  14.733
62564W        W29347  43.866  34.907   3.746
62565W        W29348  28.190  12.235   3.273
62566W        W29349  42.866   9.492  10.158
62567W        W29350  37.499  30.997  12.168
62568W        W29351  16.744  25.945  10.863
62569W        W29352   5.387  32.360  11.993
62570W        W29353  13.681   5.696  13.998
62571W        W29354  19.759  29.122  14.243
62572W        W29355  30.425  42.754  10.632
62573W        W29356  32.995  31.202  10.893
62574W        W29357   7.754  22.586  11.461
62575W        W29358  33.204  19.705   3.288
62576W        W29359   3.283  35.533   0.357
62577W        W29360   4.706  16.812   1.921
62578W        W29361  35.218   9.725   3.893
62579W        W29362  18.054   9.215  11.155
62580W        W29363   1.326  38.496  11.673
62581W        W29364  38.392  14.349  13.407
62582W        W29365  13.689  40.525  14.440
62583W        W29366  30.004  24.287   1.363
62584W        W29367  33.357   7.047   3.210
62585W        W29368   3.126  33.900  12.895
62586W        W29369  19.219  35.866  10.741
62587W        W29370  40.434  18.258   1.147
62588W        W29371  25.696  33.882   3.804
62589W        W29372  26.103  31.436  14.500
62590W        W29373  35.920  35.909   4.401
62591W        W29374   8.084  27.273   2.641
62592W        W29375  32.692  11.268   0.438
62593W        W29376  21.133  37.916   1.282
62594W        W29377  36.979  33.107  12.345
62595W        W29378  43.262  11.895  12.074
62596W        W29379  27.922  14.652   2.204
62597W        W29380   7.315  30.080   0.789
62598W        W29381  21.107   8.883  14.302
62599W        W29382  39.584  23.146   3.324
62600W        W29383  34.047  36.901  12.050
62601W        W29384  12.778  15.648  10.667
62602W        W29385  37.072  25.041  14.099
62603W        W29386   0.031  18.176  12.078
62604W        W29387  35.524  10.946  11.880
62605W        W29388  35.176  28.440  12.482
62606W        W29389  33.799  32.007   1.203
62607W        W29390  24.218  23.070  14.785
62608W        W29391  25.948  38.818   5.344
62609W        W29392  29.551  42.795  12.761
62610W        W29393  24.075   1.986   4.975
62611W        W29394  31.047  27.422   3.332
62612W        W29395  22.008  41.465  12.908
62613W        W29396  22.424  31.513   2.262
62614W        W29397  42.064  41.323  11.567
62615W        W29398  21.123  43.893   2.285
62616W        W29399  41.730   2.850   4.715
62617W        W29400   6.651  12.073  13.366
62618W        W29401  13.173   4.600  11.502
62619W        W29402   8.890   2.299   0.033
62620W        W29403  16.701  37.187  13.024
62621W        W29404  33.429  35.670  13.874
62622W        W29405  24.116  22.322   1.778
62623W        W29406  31.093  25.930  11.645
62624W        W29407  37.586  29.817   4.211
62625W        W29408  25.253  26.142   1.518
62626W        W29409  29.545   9.687   2.364
62627W        W29410  19.996  43.976  14.017
62628W        W29411  18.829  25.039  12.975
62629W        W29412  27.119  18.330   4.865
62630W        W29413   5.743  32.647  11.036
62631W        W29414   5.676  12.852   2.874
62632W        W29415  21.462   4.631  14.857
62633W        W29416  21.151  22.127   3.592
62634W        W29417   4.944  25.067  14.985
62635W        W29418  33.288  40.731  10.724
62636W        W29419   2.439  32.283  12.591
62637W        W29420   8.789  24.545   1.334
62638W        W29421   0.769  44.807  11.173
62639W        W29422  31.777   4.291  13.771
62640W        W29423  37.393  20.720  13.042
62641W        W29424  34.358  10.362   3.176
62642W        W29425  41.279  38.602   1.461
62643W        W29426  38.043   6.175  10.684
62644W        W29427  23.070  44.571  10.663
62645W        W29428  35.076  22.679  14.827
62646W        W29429  37.468  38.555   0.887
62647W        W29430  15.476  36.888  14.921
62648W        W29431   0.507  33.454  10.929
62649W        W29432  17.758  33.679   4.761
62650W        W29433  33.047  17.956   2.343
62651W        W29434  23.210   8.372  11.648
62652W        W29435  11.358  17.180   4.620
62653W        W29436  32.814  25.577   3.304
62654W        W29437  34.702  16.084  14.137
62655W        W29438  24.942  38.852   0.357
62656W        W29439  21.547  10.270   3.310
62657W        W29440  36.560  22.616  14.876
62658W        W29441  12.213  40.094  11.526
62659W        W29442  27.158  21.113  14.313
62660W        W29443  41.942  38.814   4.052
62661W        W29444   2.664  28.968  14.905
62662W        W29445  30.894  15.157  10.691
62663W        W29446  20.273  18.309   1.243
62664W        W29447  21.048  19.034   3.972
62665W        W29448  24.929  29.187  13.307
62666W        W29449  18.342  42.712   5.306
62667W        W29450  12.239  12.578   0.770
62668W        W29451  25.499  38.038  12.462
62669W        W29452  38.002  18.899  14.113
62670W        W29453   4.825  18.493   0.104
62671W        W29454  14.374  20.174   2.871
62672W        W29455  17.327  25.026   3.215
62673W        W29456  16.221  16.777  12.172
62674W        W29457   1.812  33.439  11.026
62675W        W29458  17.338  33.390   4.992
62676W        W29459   7.388   4.772   3.199
62677W        W29460  36.883   2.936  12.552
62678W        W29461  13.712  12.059   1.269
62679W        W29462  22.254  43.991   1.218
62680W        W29463  38.749  11.633   1.784
62681W        W29464  35.106  33.197  13.266
62682W        W29465  26.789  14.633   3.511
62683W        W29466  32.895  24.233   3.229
62684W        W29467  15.924  17.387   2.315
62685W        W29468   4.658  27.573   0.036
62686W        W29469  26.061   4.381  10.766
62687W        W29470   2.466  28.476  10.466
62688W        W29471  30.720  22.275   0.870
62689W        W29472  30.740  13.411  12.608
62690W        W29473  27.150  21.760  13.414
62691W        W29474  27.686   3.296  14.808
62692W        W29475   9.237   4.740   2.778
62693W        W29476   6.770  37.994   1.943
62694W        W29477  37.826  32.397  12.937
62695W        W29478  31.072  17.866   5.108
62696W        W29479   8.413  38.378  10.847
62697W        W29480   8.872   7.346   2.542
62698W        W29481  30.959   4.005  13.397
62699W        W29482   5.110  20.488   3.220
62700W        W29483  29.572  29.240   2.387
62701W        W29484  41.955   9.760  13.336
62702W        W29485   6.174  24.683   3.307
62703W        W29486  36.382  29.556  14.924
62704W        W29487  12.579  42.166  12.983
62705W        W29488  24.099  41.293   2.734
62706W        W29489  16.141  10.626  12.562
62707W        W29490  31.849   5.297   1.352
62708W        W29491  27.932  20.809  12.477
62709W        W29492   5.094   8.607   2.864
62710W        W29493   7.668   7.362   3.740
62711W        W29494  43.562  41.371  10.532
62712W        W29495  41.815  33.898  14.357
62713W        W29496  39.281  42.260   1.914
62714W        W29497  21.612  20.115   3.678
62715W        W29498   6.875  22.276  11.669
62716W        W29499   6.364  13.080  14.570
62717W        W29500  20.434   8.080  14.412
62718W        W29501  25.473  38.306  12.895
62719W        W29502  31.046  26.405  12.181
62720W        W29503  26.279  13.216   3.144
62721W        W29504  22.159  44.786   3.674
62722W        W29505  24.507  18.438   0.806
62723W        W29506  22.022   7.175  14.462
62724W        W29507  32.153  20.571   1.782
62725W        W29508  40.905  39.829  14.284
62726W        W29509  37.049  24.170  11.401
62727W        W29510   7.311   1.245  12.387
62728W        W29511  38.283  44.406  14.977
62729W        W29512   5.235  43.174   1.801
62730W        W29513   0.801  31.927  14.947
62731W        W29514  29.533  11.234  11.126
62732W        W29515  32.834  27.703   0.875
62733W        W29516  21.402  20.103  10.724
62734W        W29517  20.026  13.702  11.623
62735W        W29518  11.275  22.671   3.785
62736W        W29519   8.447   5.705  13.927
62737W        W29520  17.231  14.816  13.098
62738W        W29521  32.533   0.943   1.263
62739W        W29522  18.633  17.216  10.392
62740W        W29523   9.328  13.191   4.770
62741W        W29524   9.982  41.711  12.729
62742W        W29525  24.419   5.041   3.962
62743W        W29526   6.155  39.475  13.433
62744W        W29527  37.085   5.428  14.252
62745W        W29528  25.710  29.051  11.073
62746W        W29529  11.782  38.283  13.767
62747W        W29530  29.430  31.432  10.701
62748W        W29531  35.494  15.653   1.480
62749W        W29532  37.069  17.309  11.976
62750W        W29533   6.535  39.176   2.523
62751W        W29534  39.078  40.654   5.008
62752W        W29535  19.137  15.197   1.808
62753W        W29536  10.406  29.665  13.802
62754W        W29537  23.919  35.581   4.141
62755W        W29538   8.081  38.544   1.866
62756W        W29539  27.392  27.638  14.991
62757W        W29540  42.841  14.693   2.852
62758W        W29541  31.338  30.034  11.437
62759W        W29542  32.521  34.475   2.748
62760W        W29543  28.146  42.445  12.027
62761W        W29544  11.352  39.967  13.248
62762W        W29545  13.428  19.734   3.735
62763W        W29546  12.674  13.421   0.029
62764W        W29547  10.052  41.111   2.201
62765W        W29548  42.019  35.405  14.992
62766W        W29549  30.595  31.953  14.316
62767W        W29550  33.119  23.659   0.915
62768W        W29551  35.291  28.810  14.836
62769W        W29552  30.682  10.329   3.777
62770W        W29553  12.201  23.300  13.026
62771W        W29554  25.924  23.928   1.353
62772W        W29555  23.790  19.140   4.579
62773W        W29556  37.366  18.090   2.570
62774W        W29557   0.127  39.495   2.324
62775W        W29558   1.259   1.780  12.456
62776W        W29559  33.355  15.931   4.190
62777W        W29560  13.113   4.984  12.291
62778W        W29561   4.237  22.721   4.275
62779W        W29562   4.789  23.117   2.010
62780W        W29563  25.737  11.702   0.528
62781W        W29564   9.980  11.014   9.391
62782W        W29565  42.262  17.619  12.833
62783W        W29566  41.169   3.331  11.623
62784W        W29567  17.725  29.373   3.775
62785W        W29568  29.401  32.515   1.347
62786W        W29569  23.900  34.645  11.020
62787W        W29570  42.851   9.813   0.879
62788W        W29571  19.641   9.634   4.742
62789W        W29572  11.829   4.787  13.599
62790W        W29573   8.422  28.400   3.366
62791W        W29574   6.826  13.603   2.059
62792W        W29575   0.877   4.309   4.371
62793W        W29576  33.487   7.314  13.544
62794W        W29577  24.726  15.963  14.520
62795W        W29578  31.494  34.692   1.171
62796W        W29579  18.140  22.415  12.876
62797W        W29580  15.292  25.677   0.476
62798W        W29581  15.639  16.143  12.791
62799W        W29582   4.012  43.361  11.968
62800W        W29583  13.223  39.595  13.002
62801W        W29584   1.358  25.987  12.402
62802W        W29585  25.747  38.450  14.375
62803W        W29586  35.754  13.389  13.553
62804W        W29587   5.660  20.609   3.140
62805W        W29588  30.983  11.210  11.692
62806W        W29589   2.373   1.270   4.576
62807W        W29590  30.900   4.433   0.761
62808W        W29591  15.988  42.060   2.225
62809W        W29592  17.711  42.975   1.076
62810W        W29593  18.345  42.349  12.512
62811W        W29594  43.405  10.148  14.835
62812W        W29595   8.260  20.597  13.589
62813W        W29596  31.062   8.007   1.419
62814W        W29597  12.603  38.120  14.272
62815W        W29598  35.576  28.297  13.515
62816W        W29599  34.803  11.562   1.820
62817W        W29600  34.442  36.317   4.227
62818W        W29601  27.557  15.584  12.359
62819W        W29602  19.747  20.766   2.248
62820W        W29603  44.994  33.369   0.970
62821W        W29604  20.524  23.150   2.805
62822W        W29605   7.761   7.656   2.849
62823W        W29606  36.147  21.695   4.470
62824W        W29607  36.835  37.789  12.916
62825W        W29608  38.649  31.185   3.224
62826W        W29609  23.378  34.596   2.626
62827W        W29610  40.337  28.597  12.447
62828W        W29611   2.682  35.962   0.389
62829W        W29612   6.613  28.561  13.044
62830W        W29613  40.451  24.249  12.530
62831W        W29614  40.745  32.836  12.048
62832W        W29615  25.133  22.217  10.952
62833W        W29616  35.800   9.244  10.716
62834W        W29617  38.889  33.533  10.523
62835W        W29618  41.721  17.098   5.090
62836W        W29619   5.705  25.606   4.499
62837W        W29620   7.778  13.178  13.944
62838W        W29621  37.488  40.351   1.972
62839W        W29622  11.735  17.700   0.872
62840W        W29623  38.982  19.740  14.787
62841W        W29624   1.641  16.612  14.721
62842W        W29625  20.481  42.825   4.305
62843W        W29626  10.815  31.135  11.640
62844W        W29627  38.211  43.898  10.470
62845W        W29628  32.571  26.741  12.004
62846W        W29629  25.680  18.027  11.841
62847W        W29630  10.762   1.525  10.923
62848W        W29631  44.861  19.332  11.680
62849W        W29632   2.506  11.451  12.646
62850W        W29633  22.613  18.447  14.081
62851W        W29634  20.517  11.896  11.151
62852W        W29635  24.138  29.600  10.662
62853W        W29636  28.130  30.666   3.085
62854W        W29637   2.233  14.201  14.076
62855W        W29638  39.744  28.767   3.587
62856W        W29639   1.341   9.817  12.460
62857W        W29640   7.754  41.406   1.247
62858W        W29641  22.139  25.926  11.680
62859W        W29642  22.158  42.879  11.867
62860W        W29643  19.224  22.249  14.829
62861W        W29644   3.326  22.985   3.163
62862W        W29645   9.402  23.148  12.385
62863W        W29646   6.616  32.400  10.642
62864W        W29647  34.330  10.638  12.468
62865W        W29648  37.995  35.964   2.473
62866W        W29649  29.618  37.377  12.973
62867W        W29650  36.601  37.046   1.733
62868W        W29651   5.373  26.504  14.564
62869W        W29652  43.513   4.295   3.174
62870W        W29653   3.332  21.364   4.147
62871W        W29654   2.976  15.711  12.514
62872W        W29655  19.158   0.552  11.662
62873W        W29656   5.911  28.905   2.208
62874W        W29657  12.254  26.719  13.116
62875W        W29658   5.337  30.319  11.959
62876W        W29659  12.761   4.705   2.790
62877W        W29660   3.762  10.883  11.067
62878W        W29661  25.654  43.354  11.493
62879W        W29662  41.577   9.155  13.880
62880W        W29663  22.533  21.081   9.869
62881W        W29664  39.332  27.438  12.515
62882W        W29665  27.125  19.411  11.595
62883W        W29666  28.422  15.318   3.785
62884W        W29667  41.561  29.682   1.330
62885W        W29668  27.448  23.592  10.180
62886W        W29669  27.172  23.713  13.327
62887W        W29670   4.047  19.485   3.420
62888W        W29671  26.054   6.673   2.325
62889W        W29672   8.725  10.954   1.333
62890W        W29673  28.611  10.833  14.856
62891W        W29674   9.241   6.643  10.600
62892W        W29675  44.742  39.492  13.806
62893W        W29676   5.551  21.651  14.403
62894W        W29677  26.241  19.303  11.594
62895W        W29678   3.180  15.413   0.294
62896W        W29679  27.445  28.494   1.715
62897W        W29680   3.428  17.352   4.251
62898W        W29681   1.668   8.723   2.357
62899W        W29682  13.632  35.558   2.412
62900W        W29683  27.140  36.586  12.529
62901W        W29684  14.282  12.097   1.522
62902W        W29685  26.240  27.294  11.189
62903W        W29686  33.666  35.954  12.873
62904W        W29687  17.744  15.271   0.314
62905W        W29688  44.234  15.564  11.040
62906W        W29689  37.870  35.365   3.701
62907W        W29690  37.828  31.621  14.544
62908W        W29691  38.682  19.522  13.118
62909W        W29692   3.153  24.986  13.704
62910W        W29693  38.882  31.123   2.758
62911W        W29694  19.454  21.484   1.212
62912W        W29695  21.196  25.992   1.637
62913W        W29696  30.664  24.997   4.623
62914W        W29697  12.652  39.103   4.124
62915W        W29698   7.425  17.777   2.480
62916W        W29699   1.793  21.322  14.793
62917W        W29700   6.868  25.472   1.225
62918W        W29701   5.636   3.744   4.632
62919W        W29702  28.567  22.679   0.051
62920W        W29703  33.691  13.407   0.334
62921W        W29704  31.663   9.133  14.005
62922W        W29705   3.913   1.397  13.987
62923W        W29706  19.666  16.837   2.728
62924W        W29707  19.507   2.568   9.778
62925W        W29708  36.309  43.711  11.117
62926W        W29709  38.812  38.837  13.341
62927W        W29710  44.299  28.197   3.242
62928W        W29711  24.023  34.976  14.674
62929W        W29712  29.402  25.954   2.463
62930W        W29713  14.729  28.771   3.665
62931W        W29714   3.908  17.702   4.884
62932W        W29715  41.751  38.958  12.490
62933W        W29716   0.064  11.633   4.577
62934W        W29717  19.872  14.047   9.825
62935W        W29718  37.656  32.071  13.672
62936W        W29719  14.338  25.972  13.537
62937W        W29720  31.911  22.647  14.897
62938W        W29721   4.932  20.546  12.318
62939W        W29722  26.739  13.143   3.865
62940W        W29723  16.652  39.154   0.427
62941W        W29724  34.320  28.569  14.846
62942W        W29725  10.804  12.943   0.517
62943W        W29726  22.884  19.212   2.652
62944W        W29727  30.594  22.696  13.444
62945W        W29728  40.496  39.107   0.476
62946W        W29729  30.368   7.754  12.405
62947W        W29730  40.273  20.956  14.952
62948W        W29731  21.075  42.225   0.459
62949W        W29732  21.611  17.526  13.501
62950W        W29733  24.486  36.348  12.080
62951W        W29734  24.996  37.477   3.275
62952W        W29735  25.415  20.682   4.084
62953W        W29736   1.949  22.587   9.919
62954W        W29737   4.929  17.644   4.573
62955W        W29738   2.244   7.311   3.671
62956W        W29739   4.449  21.168   3.418
62957W        W29740  43.121  38.618   1.899
62958W        W29741  36.420  13.460  14.070
62959W        W29742  43.777  22.545   2.348
62960W        W29743   7.613  31.748  13.281
62961W        W29744  31.549  25.186   2.109
62962W        W29745   7.206  23.760  11.421
62963W        W29746  19.658  30.020   0.985
62964W        W29747  21.731   4.860  13.610
62965W        W29748  17.068   2.323  11.479
62966W        W29749  23.135  26.750  12.565
62967W        W29750  42.328  40.419   4.383
62968W        W29751  36.280   3.666   3.314
62969W        W29752  40.489  15.070  14.273
62970W        W29753  42.856   3.216  10.704
62971W        W29754  30.133  20.695   3.703
62972W        W29755  22.363   4.774  12.728
62973W        W29756  24.319  24.114  14.831
62974W        W29757  23.648  31.658   3.858
62975W        W29758  36.544   3.952  12.927
62976W        W29759   0.022   5.303   0.472
62977W        W29760   7.896  12.727  11.139
62978W        W29761  32.117  19.731  13.835
62979W        W29762  12.989   8.281   2.359
62980W        W29763  13.810  22.296  12.651
62981W        W29764  11.851  40.423  11.083
62982W        W29765  26.996  32.503   4.840
62983W        W29766  18.740  17.429   4.122
62984W        W29767  14.045  15.382  14.333
62985W        W29768  29.383  42.955   0.955
62986W        W29769  10.203  18.601  10.254
62987W        W29770  28.887  30.632   2.485
62988W        W29771  24.016  27.971  12.954
62989W        W29772  35.677  17.544  11.653
62990W        W29773  13.202  11.335   1.381
62991W        W29774  38.662   1.869  11.644
62992W        W29775  13.787   7.756   2.287
62993W        W29776  43.491  40.072   3.020
62994W        W29777  42.756   5.951   3.640
62995W        W29778  13.141  22.722   3.642
62996W        W29779  19.001  31.557  14.381
62997W        W29780  10.612   5.330   0.886
62998W        W29781  36.401  40.644  11.188
62999W        W29782  13.784  43.490   4.448
63000W        W29783  32.873  39.001   3.713
63001W        W29784  22.580   4.044  13.953
63002W        W29785   8.919  26.118  11.631
63003W        W29786  41.417  42.242   2.827
63004W        W29787   8.750  18.280  13.868
63005W        W29788  29.934   0.530  14.453
63006W        W29789  16.064  29.737  13.404
63007W        W29790  20.772   8.293   1.980
63008W        W29791  30.984  41.478   0.273
63009W        W29792   6.741   3.739  14.986
63010W        W29793   1.675  28.997  14.891
63011W        W29794  23.997  33.647   0.171
63012W        W29795  32.650  19.163   9.765
63013W        W29796  18.154  40.084  10.666
63014W        W29797   3.639  13.649  12.685
63015W        W29798   6.614  19.415   0.202
63016W        W29799   9.125  20.495   0.320
63017W        W29800  44.908  23.958   1.381
63018W        W29801  33.441  37.333   3.277
63019W        W29802  10.635  29.070   1.264
63020W        W29803  14.935  19.776  13.790
63021W        W29804  30.556   7.202  13.608
63022W        W29805  38.037  42.862   4.521
63023W        W29806   1.429   8.869  12.462
63024W        W29807  17.296  23.862   3.967
63025W        W29808  31.608  31.345  12.524
63026W        W29809  16.298  12.717   1.687
63027W        W29810  24.885  27.380  12.955
63028W        W29811  35.188  29.227   4.142
63029W        W29812  26.565   7.059   3.033
63030W        W29813  42.372  22.916   0.865
63031W        W29814  18.285   1.491  12.119
63032W        W29815  20.050  42.839   0.359
63033W        W29816  30.595  12.583   0.971
63034W        W29817  35.669  37.398   0.242
63035W        W29818  18.726   9.507   3.194
63036W        W29819  42.360   7.339  13.245
63037W        W29820  27.223   6.043   0.386
63038W        W29821  15.705  22.571   3.055
63039W        W29822   9.609  10.254   2.672
63040W        W29823  14.097   7.179   0.777
63041W        W29824  26.103  40.703   0.521
63042W        W29825  11.666  41.054   2.815
63043W        W29826  15.878  12.291  14.797
63044W        W29827  26.357  25.161  12.343
63045W        W29828  24.127  13.220   3.157
63046W        W29829  19.960  39.125   9.996
63047W        W29830  43.907  44.760   3.456
63048W        W29831  41.266  33.887   4.868
63049W        W29832   7.769   2.744   2.848
63050W        W29833  24.186  26.797  10.322
63051W        W29834   0.423  24.974  12.828
63052W        W29835   9.868  40.915   3.442
63053W        W29836   5.409  34.483  11.977
63054W        W29837  41.947  35.850   0.251
63055W        W29838  12.601  33.805  11.629
63056W        W29839  16.091   1.496  11.509
63057W        W29840  30.539  18.824  12.918
63058W        W29841   7.320   6.779   2.753
63059W        W29842  11.698  13.677  13.029
63060W        W29843  25.885   9.045  12.222
63061W        W29844  42.188  39.445   3.335
63062W        W29845   2.973  22.710   1.771
63063W        W29846  32.562  42.912   1.665
63064W        W29847   7.405  34.352  10.661
63065W        W29848   2.431  22.162   2.828
63066W        W29849  24.661  21.126  12.872
63067W        W29850  24.545   1.020  13.982
63068W        W29851   0.814   4.950   1.352
63069W        W29852   4.685  36.535   4.558
63070W        W29853  37.090   4.715  13.980
63071W        W29854   6.877  37.042   3.926
63072W        W29855   3.225  29.952  13.916
63073W        W29856  39.899  31.742   0.851
63074W        W29857  14.379  10.078  12.090
63075W        W29858  17.301  39.278   1.426
63076W        W29859  43.323  38.815   4.122
63077W        W29860  32.748  41.077  12.906
63078W        W29861  17.639   3.011   0.872
63079W        W29862  44.964  35.131   3.626
63080W        W29863  25.726   8.672  11.691
63081W        W29864  44.946   6.247  11.093
63082W        W29865  10.934  15.326   4.117
63083W        W29866  37.445  40.408   1.475
63084W        W29867  29.573  23.581   1.659
63085W        W29868   7.398   8.776  11.308
63086W        W29869  18.032  17.240   3.230
63087W        W29870  20.068  24.003   2.857
63088W        W29871  10.635  12.858  11.508
63089W        W29872  34.142   4.423  14.302
63090W        W29873  13.641  12.288  10.720
63091W        W29874  16.176  37.074  11.783
63092W        W29875  16.585  42.977   4.138
63093W        W29876  34.946  38.282   2.752
63094W        W29877  15.302   4.440  13.917
63095W        W29878  18.977  19.256   1.887
63096W        W29879   4.937  10.293   2.279
63097W        W29880  44.402  26.033   4.588
63098W        W29881  29.854  10.273  10.634
63099W        W29882  15.791  31.269   0.097
63100W        W29883  15.863  18.762   0.825
63101W        W29884  10.322   6.005   3.269
63102W        W29885  44.974  20.857  12.403
63103W        W29886  41.226  37.422  10.816
63104W        W29887  41.709  41.827  12.831
63105W        W29888  33.714  42.834  13.074
63106W        W29889   2.285  31.606  11.921
63107W        W29890  43.503  42.404   4.623
63108W        W29891  19.260  25.720  11.210
63109W        W29892  25.243  44.885   2.869
63110W        W29893  21.862  39.879  12.888
63111W        W29894  31.242  25.576   2.265
63112W        W29895  28.651  37.435   0.359
63113W        W29896   9.331  12.765  12.007
63114W        W29897   9.897  10.139  11.146
63115W        W29898   2.370  37.152   1.399
63116W        W29899   1.871  43.237   1.791
63117W        W29900  10.452  37.018  12.007
63118W        W29901  21.067  19.448   3.680
63119W        W29902  28.977  11.859   3.253
63120W        W29903  28.581   9.129  14.538
63121W        W29904   3.381  11.736   3.932
63122W        W29905  10.153  11.843   0.884
63123W        W29906  15.617  28.271  13.456
63124W        W29907  31.106  39.361   4.250
63125W        W29908  16.722  41.348  14.021
63126W        W29909  18.282  42.197  10.895
63127W        W29910  37.923  34.357   2.827
63128W        W29911  35.608  42.551   4.531
63129W        W29912  36.021  21.518  14.462
63130W        W29913  43.785  23.114   0.129
63131W        W29914  13.138   3.034  13.111
63132W        W29915  42.484  42.316  11.734
63133W        W29916  22.757  20.514   2.423
63134W        W29917  18.232  21.085  10.623
63135W        W29918  13.878  38.098   9.912
63136W        W29919  14.421  27.444  10.048
63137W        W29920  11.862  43.397   1.450
63138W        W29921   2.878  40.004  12.051
63139W        W29922  11.818  39.291   2.872
63140W        W29923   1.010  36.032  14.019
63141W        W29924   5.689  18.755  11.438
63142W        W29925  39.755  14.182  13.172
63143W        W29926  23.365  27.197  11.150
63144W        W29927  31.031  33.185   0.264
63145W        W29928  40.380  23.570  13.891
63146W        W29929  43.281  40.022   0.385
63147W        W29930  38.938  28.698   4.199
63148W        W29931  31.889   9.823   1.838
63149W        W29932   0.598  30.176   4.712
63150W        W29933  11.658   9.160   4.980
63151W        W29934  15.202  38.567   5.524
63152W        W29935  39.293  41.334   2.846
63153W        W29936  34.060  42.893  14.596
63154W        W29937  27.734   7.606  12.983
63155W        W29938   0.572   6.285   2.149
63156W        W29939  10.870  30.470  14.165
63157W        W29940  31.955   5.744   3.218
63158W        W29941  13.977  31.484   1.196
63159W        W29942   2.359  21.873   2.194
63160W        W29943  43.861   0.227   1.446
63161W        W29944  19.464  41.460  12.925
63162W        W29945   6.428  34.642  11.256
63163W        W29946  40.883  19.829   3.418
63164W        W29947   2.431  40.616   4.295
63165W        W29948   4.202  43.710  13.159
63166W        W29949  42.376   2.474  11.625
63167W        W29950  36.764  14.657  13.751
63168W        W29951   2.800  38.012  13.138
63169W        W29952  27.729  29.175   4.107
63170W        W29953  16.579   0.559   2.590
63171W        W29954  20.057   4.940   4.066
63172W        W29955  34.059  43.250  14.068
63173W        W29956  39.074   2.815  11.034
63174W        W29957  41.953  13.860   0.924
63175W        W29958   4.457  14.687   2.219
63176W        W29959  21.662  42.320  13.898
63177W        W29960  27.855  31.062   4.311
63178W        W29961   2.812  44.488  13.476
63179W        W29962   3.822  38.094   4.419
63180W        W29963  40.503  31.808  13.010
63181W        W29964  22.945  39.915   2.446
63182W        W29965  18.338  37.994   2.798
63183W        W29966  24.508  28.111   3.078
63184W        W29967  40.016  44.044   3.039
63185W        W29968   2.348  19.834   4.242
63186W        W29969  37.876   9.146  14.962
63187W        W29970  25.260  28.625   3.662
63188W        W29971   8.746  15.842  14.745
63189W        W29972  12.459   7.406   0.988
63190W        W29973   0.765  32.842   3.786
63191W        W29974  43.865  41.515   3.530
63192W        W29975  42.880  23.513   1.769
63193W        W29976  38.470  20.677   4.324
63194W        W29977  37.486  40.885  12.227
63195W        W29978  21.001  43.904  14.065
63196W        W29979   6.269  38.259  10.735
63197W        W29980  18.051  12.777   2.195
63198W        W29981  25.177  23.566   3.277
63199W        W29982  17.128  12.423   1.313
63200W        W29983  31.854  43.591  13.281
63201W        W29984   6.428  39.643  11.542
63202W        W29985  43.946  32.633  13.921
63203W        W29986  28.938   0.737  11.187
63204W        W29987  15.783   5.687   1.983
63205W        W29988  36.361  18.820  11.861
63206W        W29989   9.268  31.142  12.486
63207W        W29990  28.634  31.128  13.885
63208W        W29991  10.759   3.349   3.031
63209W        W29992  17.099  43.789   3.882
63210W        W29993  24.343  22.242   2.267
63211W        W29994  39.275  23.454   4.146
63212W        W29995  27.460   4.897   3.299
63213W        W29996  35.500  23.688  12.585
63214W        W29997  22.394  32.446   1.952
63215W        W29998  20.286  25.554   3.786
63216W        W29999  20.773   7.337  11.631
63217W        W30000   3.162  43.794   2.709
63218W        W30001  16.250  40.227  12.155
63219W        W30002  36.057  23.265   3.366
63220W        W30003  15.666  10.789   2.309
63221W        W30004  43.935  16.686  11.287
63222W        W30005  36.971  28.923   0.260
63223W        W30006  17.723  15.953   1.694
63224W        W30007  12.588   3.899   4.108
63225W        W30008  30.552  34.511   3.940
63226W        W30009  23.006  12.616   4.627
63227W        W30010  18.625  27.914  12.648
63228W        W30011  35.027   2.492  11.481
63229W        W30012  44.986  41.115   4.401
63230W        W30013  32.643  19.639  13.741
63231W        W30014   7.569  18.810  14.376
63232W        W30015  35.494  18.801   1.943
63233W        W30016  25.087  31.700   3.675
63234W        W30017  44.967  17.055   4.075
63235W        W30018  22.495  24.028  12.143
63236W        W30019  25.231  15.730   3.902
63237W        W30020  32.885  10.757  10.542
63238W        W30021  37.393  21.162   4.111
63239W        W30022  13.945   4.035  13.010
63240W        W30023  24.699  41.042   2.175
63241W        W30024  33.129  16.843   4.526
63242W        W30025   4.322   7.839  12.424
63243W        W30026   6.651  17.083  11.062
63244W        W30027   2.033  22.775   1.365
63245W        W30028  40.847  43.370  12.946
63246W        W30029  34.166  36.802  11.192
63247W        W30030   4.957   5.726  14.948
63248W        W30031  14.390  25.130   3.259
63249W        W30032  32.057  16.098  12.590
63250W        W30033   5.891  32.190  11.965
63251W        W30034  14.547  31.594  13.842
63252W        W30035  30.898  31.080   0.946
63253W        W30036  39.012  17.669   3.211
63254W        W30037  30.440   6.029  12.789
63255W        W30038  33.619  40.484  12.073
63256W        W30039   5.135  24.058  14.471
63257W        W30040  23.616   2.356   2.729
63258W        W30041  13.774  15.144   3.668
63259W        W30042  32.950  16.907  11.037
63260W        W30043   8.980  18.954  14.433
63261W        W30044   3.318  37.598  10.578
63262W        W30045  26.236  30.491  13.372
63263W        W30046  19.774   0.283   2.258
63264W        W30047   1.857  26.013  14.543
63265W        W30048  29.566  13.245  10.973
63266W        W30049  17.509  27.440  14.281
63267W        W30050   9.206  37.958  12.770
63268W        W30051  35.991  39.315  14.701
63269W        W30052  24.080  40.422  12.786
63270W        W30053  35.996  36.054   2.478
63271W        W30054  40.960   1.910   2.846
63272W        W30055  40.425  21.000  12.907
63273W        W30056  33.011  29.336  12.416
63274W        W30057  26.793  41.809   0.858
63275W        W30058  19.407  36.946  11.674
63276W        W30059  13.118  39.846   4.210
63277W        W30060   7.918  26.575   9.895
63278W        W30061  27.684  28.209   3.642
63279W        W30062   5.510  22.637  11.184
63280W        W30063  20.977   1.255  12.362
63281W        W30064  43.644   2.835  14.926
63282W        W30065   2.116  13.632  12.469
63283W        W30066  11.674  20.713  13.515
63284W        W30067   3.979   2.940  12.235
63285W        W30068   3.287   0.635   3.047
63286W        W30069  33.005  41.227   3.109
63287W        W30070  42.093  25.905  11.965
63288W        W30071  42.693   3.933  11.691
63289W        W30072   6.650  34.156  11.527
63290W        W30073  31.096  15.126  14.058
63291W        W30074   4.177  44.076   3.684
63292W        W30075  19.536  36.932   1.740
63293W        W30076  42.974   6.688   4.927
63294W        W30077   5.308  35.941  13.467
63295W        W30078   3.728  43.841   1.012
63296W        W30079   5.706   6.061  14.437
63297W        W30080  28.106  26.699  14.034
63298W        W30081  10.890  43.857   1.870
63299W        W30082   3.270   6.776   1.318
63300W        W30083  11.785  32.473  14.592
63301W        W30084  17.114   3.208  14.427
63302W        W30085  18.187   3.206  13.871
63303W        W30086   6.076  30.170  11.545
63304W        W30087  25.012   3.704  11.152
63305W        W30088  22.299  43.576  13.693
63306W        W30089  23.906   7.308  10.282
63307W        W30090   1.212  34.329  12.133
63308W        W30091   3.968  44.877   2.376
63309W        W30092  15.106  11.607  14.750
63310W        W30093  26.018  34.089  11.725
63311W        W30094  42.695  21.630   4.592
63312W        W30095  11.516  39.526  13.511
63313W        W30096   2.245  13.346  13.675
63314W        W30097   4.832  35.976  10.967
63315W        W30098  23.731  17.535  13.785
63316W        W30099  24.819  21.591  13.628
63317W        W30100  29.968   2.307   4.372
63318W        W30101  20.287   3.915   2.685
63319W        W30102  26.661  18.282  11.198
63320W        W30103   2.419   1.619  12.960
63321W        W30104  34.014  24.609  13.782
63322W        W30105   8.494  28.099   0.276
63323W        W30106  18.546  20.541   1.545
63324W        W30107  29.623   2.921   4.582
63325W        W30108   5.037   4.644   1.990
63326W        W30109  42.956  42.470   2.820
63327W        W30110  30.624  38.582   0.374
63328W        W30111  37.994  26.919  11.509
63329W        W30112  28.433   4.978   3.287
63330W        W30113  33.722  36.074   3.355
63331W        W30114  13.340   6.197   4.447
63332W        W30115  39.770  37.506   0.500
63333W        W30116  24.274  16.204   0.499
63334W        W30117  29.306   4.094  11.108
63335W        W30118  29.427  23.504  14.369
63336W        W30119  37.499  43.364   4.615
63337W        W30120   9.851  25.175   4.707
63338W        W30121   3.884  16.012  10.406
63339W        W30122  26.776  10.032   0.438
63340W        W30123  10.541  29.776  12.008
63341W        W30124  38.609  22.179  11.191
63342W        W30125   9.711  14.558   1.554
63343W        W30126  19.588   2.708   0.316
63344W        W30127   1.291  31.021   4.164
63345W        W30128   8.244   2.818   2.646
63346W        W30129  21.724  21.153   3.082
63347W        W30130  37.689   4.584   3.756
63348W        W30131  34.065   1.450   1.362
63349W        W30132  19.540  43.315   2.849
63350W        W30133  12.233  33.580   4.881
63351W        W30134  30.631  42.321  14.860
63352W        W30135  28.691  10.988   1.159
63353W        W30136   5.674  13.780  12.476
63354W        W30137  20.822  20.157   1.502
63355W        W30138   1.134  30.479   2.105
63356W        W30139  34.087   3.656  10.523
63357W        W30140  23.035  20.742   4.308
63358W        W30141  14.883  23.648   3.365
63359W        W30142  37.431   7.850  11.026
63360W        W30143  19.637   4.715  13.853
63361W        W30144   7.756  30.984   4.079
63362W        W30145  12.546  15.167  10.688
63363W        W30146  29.944  31.198  11.084
63364W        W30147   1.748  24.606  14.758
63365W        W30148  20.918  23.896  13.469
63366W        W30149  32.465  27.962  12.775
63367W        W30150  40.475  28.156  14.817
63368W        W30151  10.771  32.424   3.729
63369W        W30152  44.076  22.826  12.519
63370W        W30153  21.130   7.310   3.871
63371W        W30154   6.098  19.572   4.351
63372W        W30155  25.005  43.224   4.225
63373W        W30156  28.938  10.182  13.237
63374W        W30157   4.105  38.453   3.269
63375W        W30158  16.525  22.637   2.708
63376W        W30159  10.867  25.202   4.819
63377W        W30160   8.145  18.366  11.905
63378W        W30161  10.380  27.216  13.984
63379W        W30162   3.931  22.689  13.927
63380W        W30163  39.965  12.734   4.358
63381W        W30164  30.611  39.006  11.528
63382W        W30165  12.175  26.568   0.759
63383W        W30166  43.888  31.659  10.486
63384W        W30167  18.720  21.200  12.836
63385W        W30168  30.604  13.676  14.223
63386W        W30169  15.546  28.625   4.209
63387W        W30170  15.602  43.764   2.916
63388W        W30171  36.329  41.522   4.522
63389W        W30172  17.228  27.004   2.907
63390W        W30173  13.131  10.783   2.165
63391W        W30174  41.399  35.390   4.617
63392W        W30175   3.415  33.868  12.459
63393W        W30176   6.222  20.871  10.880
63394W        W30177  26.072   6.425  12.500
63395W        W30178  21.226  36.123   1.816
63396W        W30179  44.313  37.026  10.559
63397W        W30180  19.277  23.795   2.673
63398W        W30181  16.898  33.715   4.872
63399W        W30182  28.945  32.435  14.850
63400W        W30183  14.073  30.379  10.670
63401W        W30184  29.187   2.936   1.494
63402W        W30185  40.128  37.019  11.421
63403W        W30186  25.745   0.755  14.817
63404W        W30187  39.534  28.438  13.743
63405W        W30188  35.397  31.392  13.079
63406W        W30189   3.620  30.505   2.034
63407W        W30190   9.709  39.670   1.769
63408W        W30191  38.350   3.317  12.897
63409W        W30192  18.637  16.412   4.932
63410W        W30193  30.661  14.956  11.141
63411W        W30194  14.900  29.549   3.145
63412W        W30195  41.584  40.470   2.843
63413W        W30196  41.831  11.837   3.586
63414W        W30197  18.148  20.367   1.920
63415W        W30198   7.326  18.056  12.901
63416W        W30199  18.161   7.349   2.754
63417W        W30200   4.222   1.996   3.006
63418W        W30201  10.612   6.875  12.560
63419W        W30202  15.241  39.704   9.863
63420W        W30203   2.837  43.047   3.670
63421W        W30204  28.361   3.913   4.128
63422W        W30205   9.937  19.318   4.680
63423W        W30206  17.304   1.972  10.293
63424W        W30207  24.030   7.991   3.158
63425W        W30208  26.331  16.166  12.912
63426W        W30209  26.105  17.894   1.823
63427W        W30210  18.122  14.281  12.967
63428W        W30211   7.707  36.320   1.419
63429W        W30212   1.955  25.142  14.205
63430W        W30213  37.214  28.528   4.823
63431W        W30214  36.755  15.122  13.429
63432W        W30215  15.857  23.660   4.623
63433W        W30216   6.984  34.183  12.970
63434W        W30217   2.174  35.882   0.428
63435W        W30218  29.698   7.817  12.100
63436W        W30219  36.062  37.988  11.495
63437W        W30220  36.862  31.784   4.910
63438W        W30221  30.491  33.658   2.818
63439W        W30222   3.942  15.316   0.322
63440W        W30223  19.427   8.560   0.249
63441W        W30224  19.700  37.334  13.954
63442W        W30225   5.698  12.432   4.158
63443W        W30226  11.493   8.998   5.441
63444W        W30227  35.820  17.238  10.558
63445W        W30228  36.386  26.491   4.636
63446W        W30229   3.009  44.845   3.656
63447W        W30230  25.156  26.423   3.556
63448W        W30231   7.820  11.833  13.500
63449W        W30232  36.530  32.308  13.359
63450W        W30233  19.669  31.161  11.223
63451W        W30234   0.536  29.677   2.376
63452W        W30235  15.783   9.581   0.077
63453W        W30236  34.291   3.156   5.228
63454W        W30237  21.725  12.345   2.699
63455W        W30238  32.895  18.801   1.269
63456W        W30239   5.441  14.520  11.118
63457W        W30240  21.313  36.878  11.578
63458W        W30241  25.555  38.823  11.945
63459W        W30242  36.070  11.174  10.612
63460W        W30243   3.780  11.100  12.608
63461W        W30244  36.990  37.965   4.174
63462W        W30245   9.917  36.975  11.531
63463W        W30246  40.202  18.977   0.066
63464W        W30247   8.001  33.771   1.812
63465W        W30248  15.458  41.819   4.527
63466W        W30249  44.767  11.131   1.202
63467W        W30250  38.672  22.148   2.208
63468W        W30251  38.317   0.322  14.769
63469W        W30252   1.661  25.547  11.180
63470W        W30253  25.962  29.054  12.500
63471W        W30254  14.614  41.022  13.042
63472W        W30255  39.811   8.497   2.859
63473W        W30256  34.407  28.006   2.251
63474W        W30257   4.362   0.957   2.231
63475W        W30258  31.395   4.648  11.620
63476W        W30259  10.295  25.955  14.473
63477W        W30260  12.692   7.160   3.030
63478W        W30261  39.277  28.813  14.032
63479W        W30262  11.925  26.591   4.446
63480W        W30263  41.577  42.428  12.000
63481W        W30264   8.903  44.196  10.537
63482W        W30265  40.814  13.073  11.165
63483W        W30266  28.794  32.869   3.722
63484W        W30267  42.901  37.952  12.779
63485W        W30268   9.141  43.793   1.381
63486W        W30269  18.292   5.196   3.640
63487W        W30270  11.378  19.802   3.890
63488W        W30271  44.280  32.664   4.008
63489W        W30272  18.996  10.215   1.268
63490W        W30273  15.541  21.476   0.407
63491W        W30274  40.586  38.539   0.782
63492W        W30275  24.036  29.346  14.194
63493W        W30276  41.609  10.028   0.240
63494W        W30277  17.187   1.688   2.786
63495W        W30278  10.306  19.663   4.911
63496W        W30279  32.652  32.464  10.662
63497W        W30280   9.626  25.896   0.110
63498W        W30281  12.939  10.302  11.954
63499W        W30282  18.721  15.166  11.669
63500W        W30283  43.735   7.050   0.085
63501W        W30284  41.444   7.632   2.425
63502W        W30285   2.787  37.655  12.258
63503W        W30286  33.225   3.457  14.515
63504W        W30287  44.720  10.430   0.786
63505W        W30288   8.919  24.361  13.282
63506W        W30289  28.476  36.877  10.793
63507W        W30290  15.104   1.976  13.447
63508W        W30291  21.127  19.956   3.830
63509W        W30292  36.646  32.313  12.438
63510W        W30293  16.292  26.438   4.556
63511W        W30294  10.010  30.061   5.061
63512W        W30295  34.590  39.350  12.914
63513W        W30296  11.955   1.311  10.505
63514W        W30297  18.613  31.534  13.894
63515W        W30298   6.389  19.122   2.740
63516W        W30299   0.978   1.000   3.947
63517W        W30300  39.463  26.169  12.673
63518W        W30301   5.864   6.146   4.857
63519W        W30302  27.625  24.670  11.754
63520W        W30303  17.149  31.895  11.225
63521W        W30304  14.350  27.491  10.580
63522W        W30305   4.993  17.617  12.709
63523W        W30306  21.869  36.905  10.677
63524W        W30307  39.008   5.924   3.734
63525W        W30308  19.778   1.017  11.116
63526W        W30309  37.369  24.682   3.164
63527W        W30310   3.713  37.152  12.077
63528W        W30311  11.728  39.587  13.031
63529W        W30312   6.424   3.313   1.777
63530W        W30313  24.673   4.895  11.268
63531W        W30314  40.349  20.004  14.765
63532W        W30315  34.452  42.321   1.276
63533W        W30316   9.269  33.207  10.915
63534W        W30317  35.987  35.883   1.990
63535W        W30318  23.692   9.116   1.262
63536W        W30319  40.575  43.389   3.038
63537W        W30320  42.828  43.148  11.227
63538W        W30321   9.245   0.905  10.761
63539W        W30322  21.007  37.862  12.510
63540W        W30323  25.003   1.829  10.709
63541W        W30324  44.356  44.257  10.720
63542W        W30325  21.988  13.745  12.858
63543W        W30326  19.718   0.963  14.778
63544W        W30327  31.783  36.965  14.106
63545W        W30328  20.834  44.766   4.268
63546W        W30329  28.989  36.545   1.825
63547W        W30330  43.867  38.378   0.921
63548W        W30331  41.606   2.698  12.644
63549W        W30332  24.584  26.598   2.769
63550W        W30333   0.688  22.488   2.637
63551W        W30334  26.097  44.274   2.780
63552W        W30335  20.386   7.672  11.711
63553W        W30336   8.684  36.373   4.399
63554W        W30337  44.235  17.865  13.375
63555W        W30338  18.235  17.705   3.301
63556W        W30339  26.190  26.485  12.880
63557W        W30340  31.526  35.877   3.999
63558W        W30341  22.488  43.944  13.999
63559W        W30342  39.421  41.867   1.138
63560W        W30343  29.083  22.703  12.996
63561W        W30344  44.552  27.982  10.720
63562W        W30345   7.788  39.045   0.973
63563W        W30346   7.605  36.320   0.044
63564W        W30347   7.283   0.025  13.469
63565W        W30348  11.432  24.565   0.027
63566W        W30349  16.775  33.984   2.842
63567W        W30350  43.006  17.087  12.401
63568W        W30351  38.462  27.649  11.881
63569W        W30352  24.045  30.890  12.796
63570W        W30353  44.669   5.797  11.134
63571W        W30354  32.433  42.117  10.521
63572W        W30355  26.237  27.472  11.980
63573W        W30356  30.112  28.588   1.804
63574W        W30357  25.548  36.604  14.345
63575W        W30358   9.748  20.684   4.917
63576W        W30359  15.345  36.070  13.083
63577W        W30360  42.848  11.350   2.073
63578W        W30361  31.588  29.307  12.412
63579W        W30362  14.130   6.641   1.092
63580W        W30363  42.223  16.307  14.870
63581W        W30364  18.728  31.739  14.814
63582W        W30365  12.220  20.010   3.626
63583W        W30366  40.109  15.045  13.201
63584W        W30367  25.998  39.953  11.214
63585W        W30368  21.742  41.779  12.586
63586W        W30369   4.070  28.135   3.855
63587W        W30370  28.486  16.638   4.165
63588W        W30371  22.156   3.861   2.654
63589W        W30372  29.030  38.712  10.207
63590W        W30373  30.173  44.779  12.887
63591W        W30374  26.420  21.613   1.150
63592W        W30375  26.683  11.848  13.474
63593W        W30376  24.447  30.716   4.202
63594W        W30377  31.153  29.803   4.247
63595W        W30378  13.910  12.164   2.294
63596W        W30379  10.294  35.323   1.662
63597W        W30380   3.950  37.312  10.150
63598W        W30381   6.852   8.167  11.978
63599W        W30382  24.135  33.511   1.232
63600W        W30383  28.370   2.876  12.063
63601W        W30384  11.843  41.899   1.437
63602W        W30385  17.482  30.100   1.477
63603W        W30386  19.732  29.456  10.635
63604W        W30387  27.091   9.795  11.476
63605W        W30388  17.584  39.002  10.833
63606W        W30389  40.897   4.298   1.021
63607W        W30390  23.962  28.067   0.480
63608W        W30391   5.962  28.518  11.985
63609W        W30392   2.939  42.475   4.506
63610W        W30393  21.033  30.857   4.410
63611W        W30394   9.493  18.107   4.278
63612W        W30395  11.030   7.917   3.624
63613W        W30396  31.708  35.448   3.590
63614W        W30397   2.137   4.713   2.395
63615W        W30398  38.319  11.070  11.492
63616W        W30399  34.801  32.056  11.070
63617W        W30400   9.697   1.099   3.671
63618W        W30401  21.192  42.827  11.994
63619W        W30402  39.317  43.729   0.765
63620W        W30403  33.021  22.243   3.664
63621W        W30404  34.067   6.762   0.160
63622W        W30405  44.466  40.887   0.805
63623W        W30406   1.789  35.909  13.609
63624W        W30407  17.320  10.196   3.946
63625W        W30408   2.342  43.254  11.543
63626W        W30409  17.343  25.633   1.320
63627W        W30410   8.861  21.970   0.211
63628W        W30411   9.889  23.423   1.788
63629W        W30412  33.399  33.996  11.782
63630W        W30413  10.316  10.254   2.292
63631W        W30414   4.325  12.086  12.950
63632W        W30415  35.762   7.711   0.487
63633W        W30416   3.097  21.037  14.287
63634W        W30417   6.390   9.170   0.953
63635W        W30418  32.434  41.867  13.481
63636W        W30419  36.149  13.747  11.978
63637W        W30420  38.743  36.022  12.876
63638W        W30421   2.089  19.047   0.668
63639W        W30422  18.159  21.242   2.340
63640W        W30423  17.625  11.456   4.387
63641W        W30424  29.449   3.732   2.931
63642W        W30425  29.010  42.915   1.358
63643W        W30426  27.646   1.797   0.441
63644W        W30427   1.477  21.458  11.120
63645W        W30428  44.544  11.792   3.735
63646W        W30429  15.376   6.934  12.155
63647W        W30430  42.489  20.261   0.483
63648W        W30431  40.896  44.511   1.266
63649W        W30432   6.204  39.283   4.113
63650W        W30433  41.062  24.847   3.042
63651W        W30434  33.490  30.898   4.606
63652W        W30435  29.937  40.295   3.237
63653W        W30436  44.337   1.184  13.853
63654W        W30437  30.755  13.019  12.007
63655W        W30438  35.387  41.518  12.214
63656W        W30439  16.618  30.442   3.783
63657W        W30440  34.602  24.738  10.540
63658W        W30441  14.250  33.851  12.762
63659W        W30442  43.381  27.726  14.258
63660W        W30443  19.120  27.530   1.910
63661W        W30444  19.832  16.894   1.327
63662W        W30445  42.295  15.169   2.327
63663W        W30446  26.221  16.811  11.120
63664W        W30447   5.912  35.135  11.640
63665W        W30448   3.473  24.227   3.591
63666W        W30449  25.061   2.126   0.707
63667W        W30450  33.755  35.438   5.076
63668W        W30451  36.441  38.849  11.673
63669W        W30452  31.243  41.783   2.830
63670W        W30453  36.566  42.850   3.458
63671W        W30454  22.772   6.358  13.915
63672W        W30455  44.916  37.249   3.709
63673W        W30456  22.151  11.088  14.785
63674W        W30457  23.704  16.580  12.471
63675W        W30458  14.654  24.011   2.253
63676W        W30459  39.318  41.294   3.761
63677W        W30460  26.521  11.593  12.483
63678W        W30461  16.153  39.233  11.866
63679W        W30462  38.833  10.741  10.026
63680W        W30463  34.186  37.554  13.277
63681W        W30464  20.520  32.610  13.919
63682W        W30465   4.685   4.393   5.151
63683W        W30466  40.077  10.868  11.618
63684W        W30467  13.374  23.616   2.396
63685W        W30468  12.898  28.933  10.659
63686W        W30469  30.654  35.325   2.011
63687W        W30470   2.321  13.595   2.766
63688W        W30471  16.682  21.641   4.939
63689W        W30472  29.584  41.920   2.466
63690W        W30473   8.591  23.648   3.359
63691W        W30474  11.310  17.377   0.807
63692W        W30475  20.310  17.087   0.350
63693W        W30476  20.200   5.304   0.004
63694W        W30477  34.649  25.653   2.821
63695W        W30478  41.920   2.708   2.225
63696W        W30479  33.051  12.138  11.940
63697W        W30480   3.680   4.199  10.233
63698W        W30481   4.048  19.311   1.302
63699W        W30482   7.712   4.380   2.324
63700W        W30483  13.524   0.282  14.041
63701W        W30484  30.140   7.611   3.332
63702W        W30485  23.802  11.293  12.575
63703W        W30486  37.149   1.163   0.448
63704W        W30487  41.461  40.475  13.923
63705W        W30488   3.931  29.224   0.456
63706W        W30489  19.182  20.071   4.400
63707W        W30490  22.503   6.611   2.995
63708W        W30491  20.745   4.813   1.948
63709W        W30492  11.585   6.667   0.689
63710W        W30493  29.699  21.803  11.526
63711W        W30494  41.418  41.917   4.707
63712W        W30495  39.463  16.886   0.371
63713W        W30496  19.678  16.221   2.078
63714W        W30497  23.454  41.818   4.939
63715W        W30498  29.078  44.480  13.503
63716W        W30499   8.499   2.051   3.180
63717W        W30500   6.714   2.890   0.410
63718W        W30501   0.366  23.140  11.968
63719W        W30502  19.083  34.633   3.083
63720W        W30503  43.513   1.364  14.565
63721W        W30504   0.286  12.125  12.507
63722W        W30505   4.850   2.886   2.132
63723W        W30506  15.099   3.132  10.998
63724W        W30507   3.721  31.618  12.880
63725W        W30508   2.341   3.654  14.447
63726W        W30509  44.740  27.786  13.834
63727W        W30510  25.478  10.545  11.102
63728W        W30511   1.894   7.239   2.364
63729W        W30512  29.761  19.716  11.934
63730W        W30513  29.575   2.682  12.514
63731W        W30514  30.206  26.099   1.411
63732W        W30515  22.068  34.151  14.567
63733W        W30516  13.272  14.349   3.244
63734W        W30517  13.168   2.321  14.849
63735W        W30518  26.702  31.940  10.221
63736W        W30519  15.643  22.042   3.074
63737W        W30520  17.233  13.253  14.727
63738W        W30521  12.620  18.304  14.333
63739W        W30522  23.959  39.298   0.772
63740W        W30523   1.050   9.366   1.732
63741W        W30524  40.363  22.682  14.949
63742W        W30525  27.955   0.898   1.847
63743W        W30526  43.046  10.304  12.478
63744W        W30527  31.653  29.009  10.908
63745W        W30528  13.250   4.389   1.230
63746W        W30529  23.482  22.214  14.548
63747W        W30530   0.569  33.026   3.172
63748W        W30531  38.879  14.639  13.898
63749W        W30532  41.311  34.918   3.563
63750W        W30533  36.045  21.864  14.071
63751W        W30534  14.352  25.995  12.120
63752W        W30535  14.214  13.671  10.599
63753W        W30536   7.325   4.982   4.095
63754W        W30537  42.809  34.058   1.681
63755W        W30538  28.508  29.861  10.888
63756W        W30539  39.634   4.892   3.303
63757W        W30540  44.451   4.270   1.979
63758W        W30541  32.182   1.803  12.001
63759W        W30542  27.163  20.297   2.681
63760W        W30543  34.356   3.268  13.905
63761W        W30544  32.578  43.362   1.959
63762W        W30545  12.209  32.673  13.204
63763W        W30546  38.283  35.831  12.763
63764W        W30547   4.951  13.273   0.639
63765W        W30548   7.021   1.874   3.227
63766W        W30549  27.528  30.584   5.057
63767W        W30550  30.404  12.152  12.874
63768W        W30551  23.053   2.779  13.562
63769W        W30552   2.452   3.296  13.540
63770W        W30553  20.436   2.693   3.290
63771W        W30554  44.813  17.835   4.780
63772W        W30555  43.495  10.313   1.371
63773W        W30556  28.336   0.364   1.333
63774W        W30557   8.677  43.925   0.777
63775W        W30558  37.713  22.635   4.530
63776W        W30559  34.842  44.984  14.918
63777W        W30560   9.433  25.919  14.642
63778W        W30561  11.801  19.556   0.175
63779W        W30562  28.977  24.902   1.885
63780W        W30563  25.970  36.045  12.632
63781W        W30564  22.208  43.506   3.163
63782W        W30565  33.487  43.668  10.850
63783W        W30566  25.225  43.837  10.643
63784W        W30567   9.249  36.383  14.033
63785W        W30568  42.775   6.602   5.391
63786W        W30569  40.765  17.383   4.685
63787W        W30570  34.550   2.292  10.510
63788W        W30571  16.188  17.890   4.627
63789W        W30572  15.714  37.812   0.359
63790W        W30573  28.001  38.567  14.463
63791W        W30574  27.076  34.906  11.702
63792W        W30575  10.114  26.751  12.217
63793W        W30576  39.779  38.361  11.474
63794W        W30577  32.885   8.360  12.061
63795W        W30578   9.911  32.503  14.745
63796W        W30579  20.509   8.131  12.518
63797W        W30580  33.066  43.952  10.641
63798W        W30581  20.361   5.111   1.238
63799W        W30582  33.882  17.804   0.021
63800W        W30583  31.011  20.168  14.106
63801W        W30584  16.348  29.545  12.147
63802W        W30585  42.493  10.584   2.486
63803W        W30586  31.841  39.023  14.511
63804W        W30587  42.866  20.383  12.332
63805W        W30588  10.255  26.626   2.213
63806W        W30589  40.896  40.899  13.403
63807W        W30590  19.542  15.349   2.561
63808W        W30591  11.307  19.660  10.732
63809W        W30592  37.116  34.602   4.227
63810W        W30593  13.072   6.939  10.224
63811W        W30594  23.571   9.550   0.306
63812W        W30595  40.040  32.520  14.261
63813W        W30596   0.342  37.351   1.325
63814W        W30597   6.832  40.036  13.736
63815W        W30598   6.866  44.445   1.186
63816W        W30599   9.738   6.318   4.350
63817W        W30600  11.154  29.935   4.387
63818W        W30601  27.288  39.360   5.574
63819W        W30602  37.781  30.642  10.728
63820W        W30603  16.645  29.060   3.112
63821W        W30604   7.816  26.800  14.368
63822W        W30605  24.449  42.993  14.027
63823W        W30606  43.464   5.337  12.461
63824W        W30607  38.460  43.504   2.915
63825W        W30608  24.784  38.666  14.360
63826W        W30609  41.385  11.071  12.332
63827W        W30610  25.225  12.071   3.190
63828W        W30611  41.396  39.877   2.223
63829W        W30612  18.732   9.927  11.654
63830W        W30613   4.280  26.183   3.848
63831W        W30614   2.678  26.440  11.605
63832W        W30615  38.897  18.305  13.964
63833W        W30616  30.171  16.098   0.694
63834W        W30617  44.514  16.717   0.535
63835W        W30618  21.153  36.908   4.069
63836W        W30619  24.628  26.938   2.339
63837W        W30620  16.703  13.297  12.597
63838W        W30621   2.760  16.624  12.968
63839W        W30622  42.710  37.884  13.243
63840W        W30623  24.917  15.004   0.906
63841W        W30624   8.121  43.025   3.076
63842W        W30625  38.647  37.434   1.383
63843W        W30626  14.563  39.907  11.687
63844W        W30627  42.427  13.040  13.775
63845W        W30628  33.044  15.256  11.580
63846W        W30629   8.712  24.497   4.658
63847W        W30630  21.562  10.478  10.238
63848W        W30631   7.494   5.310  14.935
63849W        W30632  38.171   4.529  14.440
63850W        W30633  26.939  22.578   0.632
63851W        W30634  37.606   0.505   4.165
63852W        W30635  12.630  30.674  14.995
63853W        W30636   6.759  11.351  12.072
63854W        W30637  15.998  10.742   0.882
63855W        W30638  36.570   1.744   9.978
63856W        W30639  13.131   1.969  12.947
63857W        W30640  30.555  38.631  13.595
63858W        W30641  16.864   7.695   1.422
63859W        W30642   6.267  43.520  13.307
63860W        W30643  38.882  37.791  13.299
63861W        W30644  43.285   4.940  10.655
63862W        W30645  34.949  16.488   4.221
63863W        W30646   0.492  40.346   3.891
63864W        W30647  25.102  31.120   0.428
63865W        W30648  10.760   0.585  10.705
63866W        W30649  16.159  17.516  11.510
63867W        W30650  35.436   0.772  13.977
63868W        W30651  31.633  12.962   4.413
63869W        W30652  14.085  16.813  14.273
63870W        W30653  44.959   2.509  11.995
63871W        W30654  35.651  11.346   3.793
63872W        W30655  17.869  34.517   3.373
63873W        W30656  43.296  12.281   0.471
63874W        W30657  15.932  43.484  11.373
63875W        W30658  13.182  26.048   0.220
63876W        W30659  42.422  28.757  12.211
63877W        W30660  28.564   6.235   1.085
63878W        W30661  13.839  15.829   4.391
63879W        W30662  32.503  16.651  12.134
63880W        W30663   2.872  34.393   1.495
63881W        W30664   8.587  24.810   4.199
63882W        W30665   0.947  24.101   1.144
63883W        W30666  23.947  34.556  12.510
63884W        W30667  38.476  15.832   1.960
63885W        W30668   0.808  25.181  13.136
63886W        W30669  40.877   3.936   1.418
63887W        W30670  11.353   6.868   1.667
63888W        W30671   2.274   7.758   3.415
63889W        W30672  30.460   0.006  14.499
63890W        W30673  40.095  36.499   4.143
63891W        W30674  42.273  28.742  10.240
63892W        W30675  35.330   2.869  12.572
63893W        W30676  20.543  38.951  14.760
63894W        W30677   7.583   1.945   4.985
63895W        W30678  12.645   8.281   0.482
63896W        W30679  18.791  31.976  10.132
63897W        W30680   7.633  40.346  11.540
63898W        W30681   2.914  12.646   3.281
63899W        W30682  37.471  16.218  11.505
63900W        W30683  40.902  16.170   3.255
63901W        W30684  12.881  42.424  14.805
63902W        W30685  40.594  25.018   1.716
63903W        W30686  41.471  26.406   3.372
63904W        W30687   9.486   8.331  13.188
63905W        W30688   9.175  17.439  11.661
63906W        W30689  17.950  21.109  14.501
63907W        W30690  25.769  20.584  10.876
63908W        W30691  14.225   6.732  12.393
63909W        W30692  33.597  27.657  14.529
63910W        W30693  39.752  14.371   0.416
63911W        W30694  42.826   0.536   4.001
63912W        W30695  21.685  42.507  13.382
63913W        W30696  22.312  37.645  12.986
63914W        W30697   7.125  17.809  13.315
63915W        W30698  41.583  18.686  11.976
63916W        W30699  26.158  22.047  12.853
63917W        W30700  30.450  22.473  12.951
63918W        W30701  40.971   7.375  11.930
63919W        W30702  31.082  18.829   1.913
63920W        W30703  22.704  10.690   2.304
63921W        W30704   7.178  37.835  12.939
63922W        W30705   1.757  24.027  13.801
63923W        W30706  11.366  36.170   4.486
63924W        W30707  13.129  10.939   0.671
63925W        W30708  42.833  23.775  10.720
63926W        W30709   1.681  36.996   1.879
63927W        W30710  21.696  36.900   1.792
63928W        W30711  26.461  17.610   3.207
63929W        W30712   9.846  35.989   2.667
63930W        W30713  33.341  41.882   2.596
63931W        W30714  38.624   6.234   2.248
63932W        W30715  38.376  41.933  12.602
63933W        W30716  30.720  24.499   2.427
63934W        W30717  10.820  11.642  12.544
63935W        W30718   7.377  37.661   1.274
63936W        W30719  17.625  26.181  13.422
63937W        W30720  20.045  42.975  12.460
63938W        W30721  44.366  35.034  12.958
63939W        W30722  29.496   6.392   0.818
63940W        W30723  11.302  21.655  12.972
63941W        W30724  11.090  44.778  12.010
63942W        W30725   4.230  30.849  12.650
63943W        W30726  17.339   8.713   3.225
63944W        W30727   9.673  29.330  11.217
63945W        W30728  21.280  13.121   4.350
63946W        W30729  35.411  23.247  14.072
63947W        W30730  12.049  42.104  14.582
63948W        W30731  15.061  30.670  13.829
63949W        W30732  35.173  15.193  11.509
63950W        W30733  18.153   8.885   2.838
63951W        W30734  13.577  16.764  14.373
63952W        W30735   7.379  41.378   1.926
63953W        W30736   4.205   1.613   3.344
63954W        W30737  34.744  34.555   4.749
63955W        W30738  15.694  33.316   1.837
63956W        W30739  23.005  20.099  13.125
63957W        W30740  37.553  21.908  12.560
63958W        W30741  11.839  21.987  12.379
63959W        W30742  17.811  24.516  12.364
63960W        W30743  16.019  14.355   3.744
63961W        W30744  34.502  39.575   4.429
63962W        W30745  43.979   8.454  11.869
63963W        W30746  30.827  17.277   0.424
63964W        W30747  33.147   5.292   4.198
63965W        W30748  18.179   8.947   1.942
63966W        W30749  23.158  40.530   4.206
63967W        W30750   4.186  25.131  13.309
63968W        W30751  24.974  29.564   2.821
63969W        W30752  34.788  21.542   3.474
63970W        W30753  33.939  32.879   0.918
63971W        W30754  41.652  20.050   0.493
63972W        W30755   2.843  36.369   4.659
63973W        W30756  38.989  20.208  12.543
63974W        W30757  34.146  44.353   2.710
63975W        W30758  20.278   8.824   3.094
63976W        W30759  16.000  28.983   4.224
63977W        W30760  23.024  10.731   3.628
63978W        W30761   0.736  40.960  11.393
63979W        W30762  44.450  23.221  10.633
63980W        W30763  31.896   8.378   2.278
63981W        W30764   1.480  44.542   0.692
63982W        W30765  33.623  22.192  14.359
63983W        W30766   0.667  39.809  10.221
63984W        W30767  12.736  15.000  12.359
63985W        W30768  36.369  38.400  11.467
63986W        W30769  39.468   3.179   1.969
63987W        W30770  18.061  36.648  14.956
63988W        W30771  23.932  29.986   3.308
63989W        W30772  35.233  41.859   1.966
63990W        W30773  24.290  18.985  14.975
63991W        W30774   5.188   8.381  14.696
63992W        W30775  30.402  17.250   2.848
63993W        W30776   1.933   2.931  11.833
63994W        W30777  41.300   6.951   0.396
63995W        W30778  28.072  27.530  10.825
63996W        W30779  25.191   8.679  14.324
63997W        W30780  39.063  13.705   4.497
63998W        W30781  31.730  29.370   0.391
63999W        W30782  10.135  25.513   2.836
64000W        W30783  19.233  40.475   4.287
64001W        W30784   5.911  23.129  11.686
64002W        W30785  33.553   7.184   2.731
64003W        W30786  29.671   7.234  13.863
64004W        W30787  34.798  12.586   4.317
64005W        W30788   7.418   1.937   4.513
64006W        W30789   0.980   8.687  11.105
64007W        W30790  13.748  35.884   3.766
64008W        W30791  25.633  32.190  14.287
64009W        W30792  35.566  24.154  14.398
64010W        W30793  26.445  44.251  12.353
64011W        W30794  30.355  22.145  13.829
64012W        W30795  27.756  39.808   2.278
64013W        W30796  15.630  29.620   4.850
64014W        W30797  34.753  23.051  11.957
64015W        W30798   8.199  25.777   1.018
64016W        W30799  22.383  24.277  10.705
64017W        W30800  40.410  30.418  13.452
64018W        W30801  25.319  23.976  14.989
64019W        W30802  42.351  15.728   1.105
64020W        W30803  26.646   5.810  14.668
64021W        W30804  37.606  20.569   4.699
64022W        W30805   6.442  27.437  11.499
64023W        W30806  41.241  41.379  13.524
64024W        W30807  41.887  26.683  11.167
64025W        W30808  43.439  43.527   3.159
64026W        W30809  40.256  19.560  12.756
64027W        W30810  13.038   4.822   2.358
64028W        W30811  43.375  37.607   1.307
64029W        W30812  39.417  16.187   1.120
64030W        W30813  27.157  19.938  10.651
64031W        W30814  24.139  35.888  14.260
64032W        W30815   7.795  20.188  14.265
64033W        W30816  20.289   3.248  11.426
64034W        W30817  12.329  33.426  11.461
64035W        W30818  44.361  24.378  12.981
64036W        W30819  37.756  17.388  13.990
64037W        W30820  10.443  27.625  14.335
64038W        W30821  16.824   5.379   2.809
64039W        W30822  39.263  22.472   0.249
64040W        W30823  16.583  11.693  11.720
64041W        W30824  33.433  41.913   0.587
64042W        W30825  42.719  35.002   1.745
64043W        W30826   7.299   0.737  10.310
64044W        W30827  41.887  38.053  11.728
64045W        W30828   7.586   5.574   1.336
64046W        W30829  22.145  30.483   2.847
64047W        W30830  25.942  26.812   0.064
64048W        W30831  38.701  15.947   4.387
64049W        W30832  39.217  32.138  12.898
64050W        W30833  24.126  29.904   0.057
64051W        W30834  20.204  41.238  12.950
64052W        W30835  25.758  29.162   1.939
64053W        W30836   7.781  33.911   2.352
64054W        W30837  28.936  35.629   4.515
64055W        W30838  15.140  34.327   2.765
64056W        W30839  25.179  35.424  12.537
64057W        W30840  38.367  34.816   3.649
64058W        W30841  40.612  24.255  14.694
64059W        W30842   1.990   9.735   0.853
64060W        W30843  37.068  28.660   2.221
64061W        W30844  24.933   4.344   0.962
64062W        W30845   0.488  42.370  14.389
64063W        W30846   9.862  31.960  10.560
64064W        W30847   3.211  32.986  13.835
64065W        W30848  36.333  31.918   2.060
64066W        W30849  34.606  28.218  11.670
64067W        W30850  18.923  12.257   4.210
64068W        W30851  38.233  20.611  13.485
64069W        W30852  27.435  43.746   2.610
64070W        W30853  32.076  44.848   4.256
64071W        W30854  31.153  42.341   1.725
64072W        W30855   2.338  27.494   2.848
64073W        W30856  43.043   4.471  12.465
64074W        W30857   3.303  33.836   4.156
64075W        W30858  17.323  19.022  14.664
64076W        W30859  36.559   8.229   2.197
64077W        W30860  16.187  12.107   2.862
64078W        W30861   0.418  40.045  11.680
64079W        W30862   9.187   8.619   1.422
64080W        W30863  14.284  44.396  14.772
64081W        W30864  10.879  35.407   0.304
64082W        W30865   0.404   3.964   1.780
64083W        W30866  13.698  42.549   1.906
64084W        W30867  20.492  13.607  12.905
64085W        W30868   6.437  30.119   2.397
64086W        W30869  20.977  38.448   1.233
64087W        W30870  40.926  15.663  14.257
64088W        W30871  44.893  23.713  14.563
64089W        W30872  32.024   7.213   0.464
64090W        W30873  13.144  38.152   2.302
64091W        W30874  23.035  31.667  14.888
64092W        W30875  36.876  12.180  14.932
64093W        W30876   8.973  27.701   1.746
64094W        W30877  12.664   1.704  14.918
64095W        W30878  12.547   9.747  14.788
64096W        W30879  44.769  41.986   4.235
64097W        W30880  44.525  29.974   2.021
64098W        W30881  21.495  21.557  13.902
64099W        W30882  37.954  29.633  12.920
64100W        W30883  35.625  30.966  12.906
64101W        W30884   5.179  27.763   2.377
64102W        W30885  44.371  34.081  10.272
64103W        W30886  38.059  10.844   1.633
64104W        W30887  33.179  12.809   0.188
64105W        W30888   6.768  13.289   3.895
64106W        W30889  44.882  35.120  13.834
64107W        W30890   8.724   6.735  12.939
64108W        W30891   1.657  22.562  12.034
64109W        W30892   1.760  29.181  11.176
64110W        W30893  36.316  11.675   1.740
64111W        W30894  24.065  44.795  12.713
64112W        W30895  30.909  25.936  14.535
64113W        W30896   8.587  11.678   4.062
64114W        W30897  39.584  35.552  12.824
64115W        W30898  28.450  40.156   5.354
64116W        W30899  28.281  30.399   4.441
64117W        W30900  15.155  41.311  12.498
64118W        W30901  22.184  28.284  11.951
64119W        W30902   6.840  38.690  13.224
64120W        W30903  30.360   6.933  12.722
64121W        W30904   9.706  39.996   0.311
64122W        W30905  23.125  17.536   0.532
64123W        W30906   5.786  18.029  13.101
64124W        W30907  15.117  43.481   1.232
64125W        W30908   9.649  30.544   4.244
64126W        W30909  44.453  17.867  11.190
64127W        W30910  31.497  28.511  11.091
64128W        W30911  11.240  21.597   3.909
64129W        W30912   0.862  35.008   0.767
64130W        W30913   4.768  42.264   3.729
64131W        W30914   9.713  26.765  14.626
64132W        W30915  22.360  40.376  12.182
64133W        W30916  44.808   5.528  11.548
64134W        W30917  40.569  35.804  13.097
64135W        W30918  25.017  44.899   3.375
64136W        W30919  35.464  34.865   2.734
64137W        W30920   0.759   8.401   0.961
64138W        W30921  20.555  32.129  12.585
64139W        W30922  39.000  35.549  13.997
64140W        W30923  14.741  21.232   0.924
64141W        W30924   5.853  22.141  14.789
64142W        W30925  28.082   0.515  14.584
64143W        W30926  27.127  10.917   1.728
64144W        W30927  12.633  19.826   1.237
64145W        W30928  34.678   4.395   1.711
64146W        W30929  13.542  32.874  14.861
64147W        W30930  29.497  31.915  12.484
64148W        W30931  32.107  12.182  14.643
64149W        W30932  38.082  21.270  12.738
64150W        W30933  28.023  23.093   4.132
64151W        W30934  36.436  34.693   3.616
64152W        W30935  38.503   7.580  12.551
64153W        W30936  28.384  29.251  12.276
64154W        W30937  13.738  44.291   2.293
64155W        W30938   0.305  14.193  14.822
64156W        W30939  23.482  27.872  13.042
64157W        W30940  14.696  44.720   2.327
64158W        W30941  26.159   0.302   3.530
64159W        W30942   7.811  11.028  14.001
64160W        W30943  15.952  33.056   0.450
64161W        W30944   5.325  44.762  13.759
64162W        W30945  13.374   3.563   3.666
64163W        W30946  25.971  17.734   3.655
64164W        W30947  20.885  31.929   4.179
64165W        W30948  16.407  26.496  14.797
64166W        W30949  38.308  14.633   0.341
64167W        W30950   6.875  39.092  12.864
64168W        W30951  13.848  13.711   3.329
64169W        W30952  12.396  28.023   4.005
64170W        W30953  40.089   0.734  14.893
64171W        W30954  33.390  20.450   4.025
64172W        W30955  18.105  19.127  11.492
64173W        W30956  25.113  19.495   4.677
64174W        W30957   1.420  26.296   2.670
64175W        W30958  18.734  13.772  12.411
64176W        W30959  24.755  32.071   0.652
64177W        W30960   7.705  44.943  14.728
64178W        W30961   5.262  25.871  14.941
64179W        W30962  33.103  20.268  13.054
64180W        W30963  10.567   4.364   3.730
64181W        W30964  31.607  43.524  13.916
64182W        W30965   2.238  38.841   1.769
64183W        W30966  20.264  29.027  14.222
64184W        W30967   3.329  32.100   3.826
64185W        W30968  37.356  17.942  14.881
64186W        W30969   8.727   3.311  14.718
64187W        W30970  36.342  32.481  14.291
64188W        W30971  25.911  26.049  12.809
64189W        W30972  26.126  42.709   2.806
64190W        W30973   2.476  43.423   3.730
64191W        W30974  26.716  32.124   4.628
64192W        W30975  19.602  19.736  13.962
64193W        W30976  27.426   6.857  13.860
64194W        W30977   9.226  30.523   2.144
64195W        W30978   2.826  16.263  13.937
64196W        W30979  36.366  40.101  14.345
64197W        W30980  32.646   6.122  14.881
64198W        W30981   5.490  28.640   2.416
64199W        W30982  16.661  10.585   4.174
64200W        W30983  42.752  26.446  14.255
64201W        W30984  42.524  42.745  12.501
64202W        W30985  22.566  31.911   0.564
64203W        W30986  34.813  10.681   1.970
64204W        W30987  28.922   5.859   0.995
64205W        W30988   2.266  36.181  13.845
64206W        W30989  29.004  36.482   3.195
64207W        W30990   6.784   1.443  14.831
64208W        W30991  29.246  27.069   4.230
64209W        W30992  34.836  27.430   0.659
64210W        W30993  10.620   4.197   2.399
64211W        W30994  15.650  27.919   3.697
64212W        W30995  41.014  11.260   3.604
64213W        W30996  21.167  18.744   2.241
64214W        W30997  22.506   9.639   2.322
64215W        W30998  12.628   6.815  13.767
64216W        W30999  29.263   1.152  12.448
64217W        W31000   1.146  20.944  12.335
64218W        W31001  33.822   3.248  12.604
64219W        W31002  13.686  37.053  12.500
64220W        W31003  35.067   9.797   0.704
64221W        W31004  12.290   5.306   0.217
64222W        W31005  31.437   3.695  14.363
64223W        W31006  33.396  24.192   1.855
64224W        W31007  16.682  13.141  11.129
64225W        W31008  40.975   9.098  11.680
64226W        W31009   7.110  10.150   0.333
64227W        W31010  29.053   3.790   3.276
64228W        W31011   6.819  42.304   4.207
64229W        W31012  31.384  38.760  14.541
64230W        W31013  20.211  34.474   1.922
64231W        W31014  10.708  37.991  10.816
64232W        W31015  25.912  11.783  12.830
64233W        W31016  33.113  22.211   5.391
64234W        W31017  26.222  40.797  10.752
64235W        W31018  30.856  20.142   1.807
64236W        W31019  38.383  14.031  11.608
64237W        W31020   0.516  25.248  11.101
64238W        W31021  35.335  40.945  10.912
64239W        W31022  33.922  26.449  13.773
64240W        W31023   3.503   9.236  12.822
64241W        W31024   6.892  11.708   3.113
64242W        W31025   4.244   7.372  12.911
64243W        W31026  27.092  10.790   4.149
64244W        W31027  37.993  17.116  10.279
64245W        W31028  23.525  23.576   1.930
64246W        W31029  28.493  38.090  11.719
64247W        W31030  11.299  24.184   1.813
64248W        W31031   7.761  39.280  11.653
64249W        W31032  12.380  15.770   1.389
64250W        W31033  23.042   8.528   0.069
64251W        W31034   2.181   1.457  10.789
64252W        W31035  39.869  25.461   2.972
64253W        W31036  42.966  36.927  14.704
64254W        W31037   7.380  33.020  12.687
64255W        W31038  33.241  21.635  10.280
64256W        W31039  14.926  37.265  12.497
64257W        W31040  38.927  36.360   3.330
64258W        W31041  32.950  13.259   0.024
64259W        W31042  36.006  18.520  13.400
64260W        W31043  28.997   3.366  12.017
64261W        W31044  23.055   1.292  12.605
64262W        W31045   1.845  36.415   3.136
64263W        W31046  14.267  29.637   4.554
64264W        W31047  10.330  15.188   0.726
64265W        W31048  10.185  14.774   2.994
64266W        W31049  25.873   7.842   2.737
64267W        W31050  27.067  20.525   0.865
64268W        W31051  25.336  22.551  10.004
64269W        W31052   2.058   8.546   1.294
64270W        W31053  29.018  29.099  10.619
64271W        W31054  39.232  41.764   0.664
64272W        W31055   5.881  39.127   2.285
64273W        W31056  10.862  44.217   4.503
64274W        W31057   8.137   7.376   4.611
64275W        W31058  19.274   6.316   4.584
64276W        W31059  42.138  30.953  14.759
64277W        W31060  37.737  26.469  11.530
64278W        W31061  37.473  16.483   0.882
64279W        W31062  35.457  33.175   1.347
64280W        W31063  21.560  35.105  13.209
64281W        W31064  34.502   1.247  11.231
64282W        W31065  34.780  19.362  12.931
64283W        W31066   4.468  30.766  13.942
64284W        W31067   0.536  29.369  12.108
64285W        W31068   5.341  31.474   1.461
64286W        W31069  24.689  33.049   0.829
64287W        W31070  39.430  23.654  12.007
64288W        W31071  26.850  29.550  10.769
64289W        W31072  29.905   8.809   0.843
64290W        W31073  13.145  43.089   2.650
64291W        W31074   9.418  36.509   4.496
64292W        W31075   3.172  24.640  12.484
64293W        W31076   1.303  38.724  11.128
64294W        W31077  41.624  13.020   4.423
64295W        W31078  12.857  41.423   3.233
64296W        W31079  18.089  12.658  13.996
64297W        W31080   7.584  36.524  11.590
64298W        W31081  43.720  25.535  14.046
64299W        W31082  21.203  44.455   4.059
64300W        W31083   6.458   0.945  11.993
64301W        W31084  18.341  18.275  13.782
64302W        W31085  10.397  41.701  13.041
64303W        W31086  15.678  18.574   2.339
64304W        W31087  35.860   4.831  14.867
64305W        W31088  32.956  17.357   4.508
64306W        W31089  11.445  26.955   3.331
64307W        W31090  15.655  41.031   2.203
64308W        W31091  38.776   5.597  12.107
64309W        W31092  18.012  25.070  11.302
64310W        W31093  34.595  32.560  11.587
64311W        W31094  33.024  14.438   0.503
64312W        W31095   6.200   0.764   0.135
64313W        W31096  33.123  35.609   4.124
64314W        W31097  38.088  26.088   2.022
64315W        W31098  37.516  16.349  14.844
64316W        W31099   1.740  14.239   0.895
64317W        W31100   6.413   1.789   2.608
64318W        W31101  37.833  28.184  13.823
64319W        W31102  31.801  33.904   2.640
64320W        W31103  16.297   8.383  14.820
64321W        W31104   9.591  30.020   4.232
64322W        W31105  29.631  19.700  13.506
64323W        W31106   1.267  27.653   4.479
64324W        W31107  10.041  30.537  11.686
64325W        W31108  33.009  26.069   2.259
64326W        W31109  16.101  38.322   0.265
64327W        W31110  32.056  42.851   3.110
64328W        W31111  28.535  31.326  11.123
64329W        W31112  15.728  23.844  14.645
64330W        W31113   2.708  14.145  14.975
64331W        W31114  36.295  44.273  10.502
64332W        W31115  29.947  18.590  13.871
64333W        W31116  13.191  21.079  13.654
64334W        W31117  23.766  26.164  14.441
64335W        W31118  28.900   2.856  12.034
64336W        W31119  29.233  37.066  14.249
64337W        W31120  22.601  16.429   2.247
64338W        W31121  19.609  44.226   0.529
64339W        W31122  32.970   8.693  12.477
64340W        W31123   0.216  35.657  11.968
64341W        W31124  39.232  27.498   2.584
64342W        W31125  22.471   5.681   4.122
64343W        W31126  21.903   1.749   1.813
64344W        W31127   7.221  20.694   0.888
64345W        W31128   7.080  13.017   3.201
64346W        W31129   9.389  27.620  11.464
64347W        W31130  25.726  22.220   2.210
64348W        W31131  15.926  39.501  14.938
64349W        W31132   2.832  22.222   4.582
64350W        W31133  30.644  20.701   3.720
64351W        W31134   9.754   1.645  13.413
64352W        W31135   5.730  24.794  13.924
64353W        W31136  21.687  21.803   4.078
64354W        W31137  38.349  19.067   2.914
64355W        W31138  36.287   2.961  10.456
64356W        W31139  25.116  19.266  10.784
64357W        W31140  39.966  17.731  14.774
64358W        W31141  11.742   6.290  13.397
64359W        W31142  30.652  29.132  14.233
64360W        W31143  13.307  30.611   4.082
64361W        W31144  20.838   5.435  14.490
64362W        W31145  43.584  18.211  14.744
64363W        W31146  17.756   3.709   2.870
64364W        W31147  15.024  14.618   1.361
64365W        W31148  10.451  21.231   3.294
64366W        W31149  22.713  30.425   4.556
64367W        W31150  25.501   0.888   3.213
64368W        W31151   1.709  16.306  11.517
64369W        W31152   4.957  43.821   2.213
64370W        W31153   6.749   8.871   3.774
64371W        W31154  24.991   2.628  12.429
64372W        W31155  19.023  42.974   0.450
64373W        W31156  15.128  16.061  14.500
64374W        W31157  16.139  35.707  14.499
64375W        W31158  27.114  19.070   1.558
64376W        W31159  11.744  18.862   1.783
64377W        W31160  26.885   1.701   2.209
64378W        W31161  10.350  14.809  11.555
64379W        W31162  17.549   6.722   3.224
64380W        W31163  23.070  31.339  12.484
64381W        W31164  37.466  25.161   0.804
64382W        W31165  15.518  25.462   1.750
64383W        W31166  12.828  26.023  12.459
64384W        W31167  44.233  26.326  12.096
64385W        W31168  19.053  38.331   2.836
64386W        W31169   5.840  10.164  10.145
64387W        W31170  18.602   0.455  13.335
64388W        W31171  16.540  25.478  12.543
64389W        W31172  37.482   5.205  12.416
64390W        W31173   4.461  27.820  11.529
64391W        W31174  10.618  30.479  13.324
64392W        W31175   8.413  32.987   2.870
64393W        W31176   2.025  31.979  10.388
64394W        W31177  18.926  17.127  12.921
64395W        W31178  33.107  28.646   4.496
64396W        W31179  42.087  32.309   9.919
64397W        W31180   9.809  30.675   0.382
64398W        W31181  37.775  20.278  10.818
64399W        W31182   8.381  30.628   2.871
64400W        W31183  39.585   5.303  11.995
64401W        W31184  29.634  31.619  11.137
64402W        W31185  16.328  36.861   1.783
64403W        W31186  43.497  19.226  10.777
64404W        W31187  23.883  34.478   1.735
64405W        W31188   6.452  12.353   1.898
64406W        W31189   7.268   8.849   3.786
64407W        W31190  32.360  42.025  12.987
64408W        W31191  30.598  28.928  11.855
64409W        W31192  23.526  42.903   1.003
64410W        W31193   4.498  42.959  12.667
64411W        W31194   2.163   8.183  12.226
64412W        W31195  43.965  17.391  14.709
64413W        W31196  37.085  25.461   4.123
64414W        W31197  41.297  21.839  10.887
64415W        W31198  14.370   8.488  12.083
64416W        W31199  10.983   9.403  10.299
64417W        W31200   8.124  38.984   4.675
64418W        W31201   1.991   6.723  13.612
64419W        W31202  36.448  37.082  13.593
64420W        W31203  18.629  23.063  13.671
64421W        W31204  40.888  37.864  12.095
64422W        W31205  26.946  30.930   4.260
64423W        W31206   5.265   6.216  13.545
64424W        W31207  10.973  40.902   0.249
64425W        W31208  15.023  22.617   2.705
64426W        W31209  32.894  29.589  13.306
64427W        W31210   5.341  17.368  10.601
64428W        W31211  43.444   4.468  14.965
64429W        W31212   6.401   9.690   0.883
64430W        W31213  10.247  14.717   4.963
64431W        W31214  25.517  21.327  10.835
64432W        W31215  12.787  42.277   1.391
64433W        W31216   5.110  13.432   2.323
64434W        W31217  26.056  23.626   0.044
64435W        W31218  29.716   6.212   3.888
64436W        W31219  25.629   8.893   4.604
64437W        W31220  27.085  34.727   2.910
64438W        W31221  38.508  38.768  11.046
64439W        W31222   2.717  15.281  12.703
64440W        W31223  13.791   7.661  10.128
64441W        W31224   9.673  12.128  11.143
64442W        W31225  21.511   0.026   1.422
64443W        W31226   5.749  30.372   4.910
64444W        W31227  22.560  25.125   3.102
64445W        W31228   4.325  33.834   2.236
64446W        W31229  20.632   6.612  10.889
64447W        W31230  34.866   7.165   3.811
64448W        W31231   4.133  24.702  11.598
64449W        W31232  19.724   0.189   0.247
64450W        W31233  34.941  36.501   2.194
64451W        W31234   5.277   4.753   3.237
64452W        W31235  39.334  19.841   2.653
64453W        W31236  22.677  35.691   0.859
64454W        W31237  24.928   1.883   1.776
64455W        W31238   6.658   1.953   3.604
64456W        W31239   8.421  18.000  11.619
64457W        W31240  26.693  20.314   3.581
64458W        W31241  25.800  39.512  13.547
64459W        W31242  21.704  35.109  11.780
64460W        W31243  23.507  34.160   1.942
64461W        W31244  21.076  30.558  12.011
64462W        W31245  17.825  26.955  11.443
64463W        W31246  10.072  25.516  12.950
64464W        W31247  14.260  43.346   0.493
64465W        W31248  30.294  29.812  12.571
64466W        W31249   0.894  36.933  10.411
64467W        W31250  35.694  14.767  12.436
64468W        W31251  40.629  29.560  13.447
64469W        W31252  13.849  39.167  14.402
64470W        W31253  34.361   8.838  12.067
64471W        W31254  31.148  41.101   4.827
64472W        W31255  34.100  35.154   0.122
64473W        W31256  12.611  38.317   2.364
64474W        W31257   0.746  41.426   0.506
64475W        W31258  23.720   4.129  11.708
64476W        W31259  24.047  33.443  10.774
64477W        W31260  23.961  31.596  14.052
64478W        W31261  40.114  16.280   3.624
64479W        W31262   5.426  14.795  14.868
64480W        W31263  19.694   5.875   0.331
64481W        W31264  32.902  23.703   4.308
64482W        W31265  19.905  27.094   3.404
64483W        W31266  35.263  32.899   0.892
64484W        W31267  26.627   1.681  13.369
64485W        W31268  20.226   6.140  14.637
64486W        W31269  13.797   9.058  11.615
64487W        W31270   0.201  22.435  13.879
64488W        W31271  21.162   4.979   2.399
64489W        W31272   6.862  22.085   4.067
64490W        W31273  31.467  17.617   4.602
64491W        W31274   1.733   0.689   1.839
64492W        W31275   7.792   7.253  11.243
64493W        W31276  39.086  26.138   1.048
64494W        W31277  26.952  23.051  10.758
64495W        W31278   6.165   6.432   2.301
64496W        W31279   1.303  41.309   3.669
64497W        W31280  23.678  30.197  11.094
64498W        W31281  15.082  31.954  13.496
64499W        W31282  39.505   1.561  14.032
64500W        W31283  43.729  39.290   1.793
64501W        W31284  26.237  34.274   4.266
64502W        W31285  39.275  38.467   0.301
64503W        W31286  28.517  29.129   3.344
64504W        W31287  13.125  10.417  14.627
64505W        W31288  15.310  24.700   3.995
64506W        W31289  35.095  42.594   2.751
64507W        W31290  10.116  12.387  11.162
64508W        W31291   0.881  31.595   3.463
64509W        W31292  36.303  15.380  13.488
64510W        W31293  30.440   7.678   2.292
64511W        W31294  44.687  16.299  10.789
64512W        W31295  31.564  20.552   1.418
64513W        W31296   3.761  16.901  13.772
64514W        W31297  15.619  26.648   0.312
64515W        W31298  15.220  28.409  14.248
64516W        W31299  39.052  35.890   4.714
64517W        W31300   8.070  12.305  12.550
64518W        W31301   5.864  13.173  13.032
64519W        W31302  16.676  40.787  14.046
64520W        W31303  20.398  13.637  11.276
64521W        W31304  13.014  13.751   1.338
64522W        W31305   8.331  10.227   2.424
64523W        W31306  43.606  42.962  14.773
64524W        W31307  28.762   3.335  14.175
64525W        W31308  36.381  14.600   4.104
64526W        W31309  13.603  35.517  12.460
64527W        W31310   5.214   0.996   3.912
64528W        W31311  16.755  15.281  11.605
64529W        W31312  31.845  23.234  12.628
64530W        W31313  44.912  35.982  11.136
64531W        W31314  29.117  41.921   2.266
64532W        W31315   0.324  12.685   1.181
64533W        W31316   7.215  40.129   1.312
64534W        W31317  16.591  12.138   3.668
64535W        W31318  22.679  32.539   2.380
64536W        W31319  39.284  41.805   3.763
64537W        W31320  37.748  10.404   4.289
64538W        W31321   2.723  22.836   2.694
64539W        W31322  24.652  24.005  12.409
64540W        W31323  33.351  27.680   2.776
64541W        W31324  28.909   8.841  13.470
64542W        W31325  27.166  31.385  14.173
64543W        W31326   4.812  40.490   3.735
64544W        W31327  29.926  25.476   2.748
64545W        W31328  20.109  20.122  13.440
64546W        W31329  28.598   0.921   3.685
64547W        W31330  24.647  37.002   1.238
64548W        W31331  30.073  23.532   0.744
64549W        W31332   0.629  36.465  10.406
64550W        W31333  27.958  13.513  14.777
64551W        W31334   6.646  35.546  11.694
64552W        W31335   2.961  14.560  12.002
64553W        W31336  13.153  16.190   2.176
64554W        W31337  17.772  19.724  14.588
64555W        W31338   3.451  23.608   4.583
64556W        W31339   7.794  10.718   1.465
64557W        W31340  12.302  34.869  10.291
64558W        W31341  32.722   6.950  11.157
64559W        W31342   4.403  18.266  14.834
64560W        W31343  24.187  17.539  12.893
64561W        W31344  39.371  25.151   1.358
64562W        W31345  17.160  34.060  13.966
64563W        W31346  10.451   8.627  14.359
64564W        W31347   8.618   7.736   2.265
64565W        W31348  19.723  39.442  12.773
64566W        W31349  41.095  19.212  11.850
64567W        W31350   1.961  16.542   3.216
64568W        W31351  27.448  21.794   1.283
64569W        W31352  27.745  13.021  13.302
64570W        W31353  21.172  33.412  11.880
64571W        W31354  33.862  43.977   2.887
64572W        W31355  17.308  17.289   3.740
64573W        W31356  21.900  18.983   3.797
64574W        W31357  43.728  34.559   0.317
64575W        W31358  14.743  29.104   5.032
64576W        W31359  42.259  19.812  12.325
64577W        W31360  44.820  27.178  13.645
64578W        W31361  14.393   1.279  12.012
64579W        W31362  40.255  18.604  11.588
64580W        W31363  15.266  42.798  13.999
64581W        W31364   8.791  25.657  13.398
64582W        W31365  14.148   2.389   2.182
64583W        W31366  20.534  15.111   1.036
64584W        W31367  42.770  19.473   4.387
64585W        W31368  34.046   6.145  12.947
64586W        W31369   2.593  33.962  13.667
64587W        W31370  41.458  16.132   4.108
64588W        W31371  31.097  10.561   1.679
64589W        W31372  19.234   5.799   4.472
64590W        W31373  18.766  11.172  14.978
64591W        W31374  40.029  13.254  14.772
64592W        W31375  29.448  13.379   2.301
64593W        W31376   6.221  42.016  10.656
64594W        W31377   4.989  34.542   1.915
64595W        W31378  15.241  28.067  11.445
64596W        W31379  34.570   0.448  14.919
64597W        W31380  30.348  41.882  14.798
64598W        W31381  11.758  41.495   0.487
64599W        W31382  16.845  12.295  13.821
64600W        W31383  36.546  39.009   3.415
64601W        W31384  28.136  16.761  13.473
64602W        W31385  40.211  17.804   2.880
64603W        W31386  23.998  36.265   0.414
64604W        W31387  40.300  31.870  11.154
64605W        W31388  33.453   0.021   4.618
64606W        W31389  36.518  19.795   1.690
64607W        W31390  10.800  32.319  13.349
64608W        W31391  44.580  14.128   1.844
64609W        W31392   0.319  38.361   1.340
64610W        W31393  23.710  34.798   0.494
64611W        W31394  43.748  23.079  11.177
64612W        W31395  35.568  33.412   3.357
64613W        W31396  22.060  21.044   1.441
64614W        W31397  21.087  29.694   1.402
64615W        W31398  38.353   6.848   0.861
64616W        W31399  37.078   0.419  11.525
64617W        W31400  24.042  36.393   2.221
64618W        W31401  43.739   9.109   3.660
64619W        W31402  40.985  37.625  11.648
64620W        W31403  12.723  11.562   1.863
64621W        W31404   3.015   4.319  12.569
64622W        W31405   8.445   0.482   3.861
64623W        W31406  25.553  19.689  12.915
64624W        W31407   2.977  40.576   3.112
64625W        W31408   7.752   1.177   3.693
64626W        W31409  19.081   3.897  10.791
64627W        W31410  32.301  33.905   2.497
64628W        W31411  30.491   4.726   0.467
64629W        W31412  13.351  36.564   0.818
64630W        W31413  25.939  29.670   1.177
64631W        W31414  21.755  25.645  10.182
64632W        W31415  42.788  22.283   4.374
64633W        W31416  17.969  22.239  13.807
64634W        W31417  23.435   7.646   0.946
64635W        W31418  39.845  22.214  14.327
64636W        W31419  42.747   5.946   2.801
64637W        W31420  33.164  12.611  12.019
64638W        W31421  38.557  13.702   2.619
64639W        W31422   7.783  42.159   4.131
64640W        W31423   5.368  33.106   4.353
64641W        W31424  10.836  39.690  14.963
64642W        W31425  37.266  11.313  12.141
64643W        W31426  27.380   8.106  10.991
64644W        W31427   3.754  35.426  13.473
64645W        W31428   0.707  31.696   9.642
64646W        W31429  42.079  22.117   3.198
64647W        W31430  39.994  27.209   2.754
64648W        W31431  40.988  12.290  14.340
64649W        W31432  12.403  11.697   3.693
64650W        W31433  10.720  42.611  11.483
64651W        W31434  42.011   4.464  10.454
64652W        W31435   2.882   2.974   1.597
64653W        W31436  20.047  36.091   1.493
64654W        W31437  19.730  27.887  11.391
64655W        W31438  22.653  35.273  11.167
64656W        W31439  37.471  35.698   3.963
64657W        W31440  18.356   2.423  11.272
64658W        W31441  34.935  36.316   4.845
64659W        W31442  26.612  42.823  13.912
64660W        W31443  14.482   8.637  11.085
64661W        W31444   3.871  21.895   0.522
64662W        W31445  15.754  19.848   4.043
64663W        W31446  14.312  38.972   2.384
64664W        W31447  37.789  33.149  11.939
64665W        W31448  39.537  10.849  11.740
64666W        W31449  32.839  28.928  11.413
64667W        W31450  17.065  43.525   1.708
64668W        W31451  22.626  44.041  12.098
64669W        W31452  11.208  41.848  11.029
64670W        W31453  26.064  33.698  10.822
64671W        W31454  12.760  40.445  11.225
64672W        W31455   2.731  19.383  13.540
64673W        W31456  31.372  20.161   1.824
64674W        W31457  16.538  28.264  10.849
64675W        W31458  39.753   0.727  11.726
64676W        W31459  14.278  32.176   1.809
64677W        W31460  27.869  10.094   5.078
64678W        W31461   9.253  22.138   2.607
64679W        W31462   3.312  23.574  12.082
64680W        W31463   3.893  35.462  14.530
64681W        W31464  20.116   9.432  13.421
64682W        W31465  41.463  25.589  10.640
64683W        W31466  15.118  29.939   0.169
64684W        W31467   4.390   9.688  14.161
64685W        W31468  31.520  13.460   4.375
64686W        W31469  11.759  33.126   4.170
64687W        W31470  35.843  25.909   2.479
64688W        W31471   2.299  10.897   0.925
64689W        W31472  11.172   6.616   3.755
64690W        W31473  36.513  29.093   1.772
64691W        W31474  33.806   9.930   4.283
64692W        W31475  23.052  28.980   3.809
64693W        W31476   6.185  35.855   1.293
64694W        W31477  14.480  33.785   2.500
64695W        W31478   5.356  41.336   0.810
64696W        W31479  12.755  32.498   2.773
64697W        W31480  29.827   7.256   0.693
64698W        W31481   6.451  39.473  13.002
64699W        W31482  32.918  27.650  13.338
64700W        W31483   3.830  44.450   3.496
64701W        W31484  28.987  40.338   0.279
64702W        W31485  37.008   3.375   2.237
64703W        W31486  24.539  39.150  14.407
64704W        W31487  33.232  19.380   5.070
64705W        W31488  39.484   8.761   0.221
64706W        W31489  23.297   8.267  14.691
64707W        W31490   3.971   5.240   1.355
64708W        W31491  16.477  19.197   3.090
64709W        W31492   5.772  14.813  11.466
64710W        W31493  32.616   3.291   2.645
64711W        W31494  11.738  17.570   4.619
64712W        W31495  10.142  32.904   3.265
64713W        W31496  32.141  28.231   2.817
64714W        W31497   2.791   1.946  14.733
64715W        W31498   0.511  31.020   0.915
64716W        W31499   8.163  38.838  13.934
64717W        W31500   0.221   6.738   3.943
64718W        W31501   1.384  23.577  11.481
64719W        W31502  29.440  39.479   4.668
64720W        W31503  40.269   3.179   2.926
64721W        W31504  17.445  42.613  13.849
64722W        W31505   5.150  34.000  14.905
64723W        W31506   3.162  12.614  11.138
64724W        W31507  26.573  33.552  13.382
64725W        W31508  19.612  26.940   0.924
64726W        W31509  28.320  14.742  14.355
64727W        W31510   4.007  43.488   0.741
64728W        W31511   9.746   6.164   3.854
64729W        W31512  39.633  34.275   3.607
64730W        W31513  14.494  40.966  14.453
64731W        W31514  13.807  16.829   4.145
64732W        W31515  41.606   3.479   2.932
64733W        W31516  38.531   2.449   0.770
64734W        W31517  30.638  41.986  11.655
64735W        W31518  25.406   0.300  11.067
64736W        W31519  22.557  42.637   3.162
64737W        W31520  14.730   9.794  13.787
64738W        W31521  31.603  11.795  10.761
64739W        W31522  33.600   6.283  13.546
64740W        W31523   1.452  16.018   1.399
64741W        W31524  22.039   0.670  13.650
64742W        W31525  22.267  18.703  13.778
64743W        W31526   6.052  34.971  12.150
64744W        W31527  15.203  15.998  13.445
64745W        W31528  42.818  40.260  11.226
64746W        W31529  21.531   1.309  13.390
64747W        W31530  40.989  41.949   2.236
64748W        W31531  20.146   0.648   2.650
64749W        W31532  37.061  14.322   3.922
64750W        W31533   4.112   6.205   0.480
64751W        W31534  19.567  32.072   0.483
64752W        W31535  31.145  12.230  12.411
64753W        W31536  41.702  24.583   1.029
64754W        W31537  42.914   9.612  12.585
64755W        W31538  38.593  29.417   4.619
64756W        W31539  28.049  15.373  13.451
64757W        W31540  18.800  32.847  13.361
64758W        W31541   1.060   2.272  11.094
64759W        W31542  23.165  25.240  12.950
64760W        W31543  22.547  31.033  14.379
64761W        W31544  17.901  32.408  12.946
64762W        W31545  40.454  32.476   4.359
64763W        W31546  11.524  35.507  11.183
64764W        W31547   5.243  13.211   3.830
64765W        W31548   0.792   4.439   1.379
64766W        W31549  22.706  10.221   0.080
64767W        W31550  11.364  19.800   0.056
64768W        W31551  21.542  11.861  13.017
64769W        W31552  31.448   0.498   4.309
64770W        W31553   1.456  32.780   3.720
64771W        W31554  22.281  33.820   1.244
64772W        W31555  23.213  28.968   0.210
64773W        W31556  42.322  31.988  12.510
64774W        W31557   4.770  40.787  12.989
64775W        W31558  11.599  14.684   0.007
64776W        W31559   4.810  12.345   3.270
64777W        W31560  16.161   8.090   1.660
64778W        W31561  32.980   1.996  14.069
64779W        W31562  14.769   2.765  10.576
64780W        W31563  36.250  13.769   0.722
64781W        W31564  26.902  32.074   2.253
64782W        W31565  11.662  31.715   2.854
64783W        W31566   7.410  30.573  13.486
64784W        W31567  29.388  18.677   0.399
64785W        W31568  12.790  39.911   2.997
64786W        W31569  43.347  15.480   3.735
64787W        W31570  32.556   8.595  13.885
64788W        W31571  37.509  17.515  12.952
64789W        W31572  13.418  41.487  13.894
64790W        W31573  19.240  18.628   4.273
64791W        W31574   9.723  26.917   0.127
64792W        W31575  39.981  42.692   1.190
64793W        W31576   4.432   3.037  10.433
64794W        W31577  40.801   0.514   2.007
64795W        W31578  30.449  35.154  13.401
64796W        W31579  42.834   8.936   3.245
64797W        W31580   9.697  10.168  12.307
64798W        W31581  25.583  29.527   4.087
64799W        W31582  38.816   4.882  10.708
64800W        W31583  17.631   6.896  13.784
64801W        W31584  10.668  25.562   0.750
64802W        W31585  31.882  40.297  10.653
64803W        W31586  18.747   1.418   2.202
64804W        W31587  10.135  34.975  13.377
64805W        W31588  30.455  31.521  13.126
64806W        W31589  29.385  35.219  14.102
64807W        W31590  39.736  38.849   0.899
64808W        W31591  24.314   2.898  11.659
64809W        W31592  25.166  25.516  14.457
64810W        W31593  36.018   1.324  13.530
64811W        W31594  31.616   6.462   2.612
64812W        W31595  14.294  10.804  11.481
64813W        W31596  11.868  11.607  14.749
64814W        W31597  31.546  21.210  12.400
64815W        W31598  14.112  41.419  14.806
64816W        W31599  21.167  40.078  14.136
64817W        W31600  11.015  11.898  11.336
64818W        W31601  15.078   9.922   5.043
64819W        W31602  17.692   5.142   4.068
64820W        W31603  12.865  10.168   0.017
64821W        W31604  31.399  26.084   1.804
64822W        W31605   0.884  39.282  14.409
64823W        W31606   9.843  25.115  14.590
64824W        W31607   2.662  38.435   4.120
64825W        W31608   9.403   3.457   4.167
64826W        W31609   2.835  17.821   0.294
64827W        W31610   4.886  33.263   4.239
64828W        W31611   5.482  38.845   2.098
64829W        W31612  14.823  12.107   2.847
64830W        W31613  26.258   0.935   3.654
64831W        W31614  25.439  30.980   4.158
64832W        W31615  22.967  31.570  13.834
64833W        W31616   8.633   2.943  12.869
64834W        W31617  28.192   0.004  10.975
64835W        W31618  21.717  35.267  14.177
64836W        W31619  42.883  15.579   1.106
64837W        W31620   0.417  30.073   4.239
64838W        W31621  30.068   8.291  13.757
64839W        W31622  32.788   9.209  14.414
64840W        W31623  22.419  21.610   0.874
64841W        W31624  40.267   2.148   0.947
64842W        W31625  13.587  19.364  14.047
64843W        W31626   5.148  22.085   3.788
64844W        W31627   9.868  14.281  14.851
64845W        W31628   3.254  22.597   0.213
64846W        W31629  41.584   9.418   4.529
64847W        W31630  36.337  28.261  10.895
64848W        W31631  34.879  37.087   1.370
64849W        W31632  21.667  19.112  12.513
64850W        W31633  41.067  43.258   3.209
64851W        W31634  38.074   6.107  14.916
64852W        W31635  19.620  15.753  13.906
64853W        W31636  41.409  41.267  14.560
64854W        W31637  15.747  39.954   3.968
64855W        W31638  41.434   2.418   4.564
64856W        W31639   5.771   7.616   1.325
64857W        W31640  27.139   2.246  14.869
64858W        W31641   2.039  43.682   4.644
64859W        W31642  10.537  37.129   3.987
64860W        W31643  27.056  38.277  14.866
64861W        W31644  22.532   6.163   4.254
64862W        W31645  15.012   0.930   1.741
64863W        W31646  39.342  25.266   5.039
64864W        W31647   9.993  32.412   3.184
64865W        W31648   5.020  34.115   3.250
64866W        W31649  28.290   3.746   0.318
64867W        W31650  22.683  17.398   4.529
64868W        W31651  36.282  23.948  13.618
64869W        W31652  31.481  27.008  14.849
64870W        W31653  16.209   7.691  13.508
64871W        W31654   3.856  44.436   2.985
64872W        W31655  26.419  38.033   3.258
64873W        W31656  38.414  12.767  13.396
64874W        W31657  10.237  11.671  14.271
64875W        W31658   8.654  23.010   0.736
64876W        W31659  27.638   5.017   4.657
64877W        W31660   7.839  32.342   4.200
64878W        W31661  31.048   1.541  12.447
64879W        W31662  35.863  10.144   3.853
64880W        W31663  10.253   1.032   0.849
64881W        W31664  12.427  10.185  11.974
64882W        W31665  39.820   1.795  12.105
64883W        W31666   3.860   8.878  13.169
64884W        W31667  17.664  32.177  11.629
64885W        W31668   1.965  41.049   2.248
64886W        W31669  10.386  43.928  13.434
64887W        W31670  29.690  42.044   2.948
64888W        W31671  29.021   6.427  14.335
64889W        W31672  43.359  14.798   2.841
64890W        W31673  41.226  22.992   1.834
64891W        W31674  10.271  30.724  10.830
64892W        W31675  16.882  16.059   4.541
64893W        W31676  23.941  40.268   2.830
64894W        W31677   0.451  23.067   0.140
64895W        W31678  14.384  35.111   1.250
64896W        W31679  37.517  29.086   2.845
64897W        W31680   9.336  18.566  12.354
64898W        W31681  12.734   7.713  12.034
64899W        W31682  37.719  30.755   2.394
64900W        W31683  19.606  31.249  13.118
64901W        W31684  36.480   9.120  14.889
64902W        W31685  17.610  14.857  14.417
64903W        W31686  32.089  23.058   1.018
64904W        W31687  42.957  30.859  11.629
64905W        W31688  33.264   2.440   0.373
64906W        W31689  14.733  37.754   4.646
64907W        W31690   3.928  11.309   3.267
64908W        W31691  44.955  37.454   4.523
64909W        W31692  17.236  28.926   4.473
64910W        W31693  27.372  24.142   1.489
64911W        W31694  18.190  21.139  14.041
64912W        W31695  38.858  19.464   4.530
64913W        W31696  44.433  35.849  11.370
64914W        W31697  29.902  32.037  12.168
64915W        W31698  34.870  36.328  12.700
64916W        W31699  33.979  29.503   3.763
64917W        W31700  24.644   1.966   2.228
64918W        W31701  11.668  34.342   1.436
64919W        W31702  18.568  21.698  13.598
64920W        W31703  44.274  37.636  14.323
64921W        W31704   1.997  41.532   4.683
64922W        W31705  36.902  37.917  11.939
64923W        W31706  28.144  29.085  13.901
64924W        W31707   9.958   2.342  12.879
64925W        W31708  41.687  21.765   4.084
64926W        W31709  18.523  44.957   3.692
64927W        W31710   7.454   4.247  12.517
64928W        W31711  33.370  24.655   4.571
64929W        W31712  19.034  37.849   1.734
64930W        W31713  24.096  37.045   3.379
64931W        W31714  24.190  26.114  12.883
64932W        W31715  13.011  41.509   0.886
64933W        W31716   6.473  26.155  14.461
64934W        W31717   6.859   9.402  14.879
64935W        W31718  31.472  41.879  11.280
64936W        W31719   8.371   8.817  11.435
64937W        W31720  11.745  25.284   2.225
64938W        W31721  23.581  15.078  11.553
64939W        W31722  42.000  24.173  10.651
64940W        W31723  13.792  42.211  13.279
64941W        W31724  22.146  31.312  13.028
64942W        W31725  34.360   7.190   3.659
64943W        W31726  33.073  24.037   2.212
64944W        W31727   2.003  32.830   1.571
64945W        W31728  16.663  37.032  11.994
64946W        W31729   9.388  35.225   1.466
64947W        W31730  18.648  19.087  10.685
64948W        W31731  15.264  23.257  12.945
64949W        W31732  42.910  12.095   3.260
64950W        W31733  36.843   1.924   1.121
64951W        W31734   5.470  26.972  11.151
64952W        W31735  41.823  11.382   4.452
64953W        W31736  23.038  37.970   4.583
64954W        W31737  10.567  32.630   2.233
64955W        W31738  42.234  11.822  13.349
64956W        W31739   0.708  16.072  12.424
64957W        W31740  32.046  14.692   4.575
64958W        W31741  23.135  17.630   4.661
64959W        W31742   7.738  39.288   2.853
64960W        W31743  30.414  21.651  10.141
64961W        W31744  16.818  28.752   4.215
64962W        W31745  41.865  32.808  14.420
64963W        W31746   9.311   5.547  12.844
64964W        W31747  32.780  14.082  11.056
64965W        W31748  36.374  34.188   4.245
64966W        W31749  23.506   2.929   1.618
64967W        W31750  18.787   3.711  11.864
64968W        W31751  38.988   7.369   2.810
64969W        W31752  36.347  31.293  13.478
64970W        W31753   0.335  14.029  11.635
64971W        W31754  44.413  33.998   2.952
64972W        W31755   9.245  32.453   4.216
64973W        W31756  38.092   7.384   0.224
64974W        W31757  21.624   6.613   4.122
64975W        W31758  19.732  12.560  14.815
64976W        W31759  22.761  25.756  13.405
64977W        W31760  16.024  40.408   3.522
64978W        W31761  13.960  13.739  12.332
64979W        W31762  29.005  19.611   2.203
64980W        W31763   7.442   6.319  12.164
64981W        W31764  22.877   3.890  11.660
64982W        W31765   3.967  12.624   2.366
64983W        W31766  22.264  38.116   2.668
64984W        W31767  11.995   1.022   4.061
64985W        W31768  19.577  44.561   1.498
64986W        W31769  21.783  11.788  10.900
64987W        W31770  31.560  16.654   1.554
64988W        W31771   2.048  10.493  10.757
64989W        W31772  26.065   6.906   1.849
64990W        W31773  28.390  29.710  12.609
64991W        W31774  26.684  28.611   4.558
64992W        W31775   7.747  30.148   2.739
64993W        W31776   3.901  16.667   0.248
64994W        W31777  23.875  28.425  11.734
64995W        W31778  38.588  33.581  10.113
64996W        W31779   7.976   5.761   1.626
64997W        W31780  41.290  20.775   4.481
64998W        W31781  24.476   5.043   1.417
64999W        W31782  12.680  11.323   1.410
65000W        W31783  25.491  36.119  14.567
65001W        W31784  32.996  25.709  14.452
65002W        W31785  11.740   2.893  14.366
65003W        W31786  37.962  35.957  11.595
65004W        W31787  22.564  10.297   1.071
65005W        W31788   8.327   9.804  13.812
65006W        W31789  38.510  38.302  12.085
65007W        W31790  14.838  17.842   1.373
65008W        W31791  14.513  38.106   3.259
65009W        W31792  40.906   8.047   1.180
65010W        W31793  10.377  11.551   1.292
65011W        W31794  27.116  42.867  14.417
65012W        W31795  42.235   0.294   1.861
65013W        W31796  31.983  31.504  13.737
65014W        W31797  36.829  33.247  14.875
65015W        W31798  29.633  14.796   1.111
65016W        W31799  14.988  37.353   3.584
65017W        W31800  21.430  30.976   2.718
65018W        W31801  28.251  26.916   1.393
65019W        W31802  11.104  15.658  13.413
65020W        W31803  26.607  11.708   2.899
65021W        W31804  26.973  33.394   4.408
65022W        W31805  41.723   1.970  12.191
65023W        W31806  11.087  11.419  11.091
65024W        W31807  21.299  24.083  11.648
65025W        W31808  28.980  32.957  13.090
65026W        W31809  11.333  38.059   3.506
65027W        W31810  44.588   5.689  14.108
65028W        W31811  43.252  16.229   0.103
65029W        W31812  14.734  41.450  14.469
65030W        W31813  38.250   5.242   1.193
65031W        W31814  26.650  36.874   2.857
65032W        W31815  30.843  17.566  11.098
65033W        W31816  12.042   0.595  13.152
65034W        W31817  30.428  15.183  13.877
65035W        W31818  30.665  11.638  11.694
65036W        W31819   2.725  14.310  13.239
65037W        W31820  18.091  13.890   4.944
65038W        W31821  23.988  35.047   3.291
65039W        W31822  21.029  32.370  12.591
65040W        W31823  28.605  38.205  12.227
65041W        W31824  37.874  26.267  12.353
65042W        W31825  35.900  18.952  14.383
65043W        W31826  31.509  34.524  11.597
65044W        W31827   3.368   2.528  11.574
65045W        W31828  22.743  17.805   3.813
65046W        W31829  20.054  28.152  14.823
65047W        W31830  20.560  25.396   1.951
65048W        W31831  32.941  17.327  10.756
65049W        W31832  20.181   7.896   2.926
65050W        W31833  18.141  42.599   2.708
65051W        W31834   0.200  43.988   2.693
65052W        W31835  20.520  20.067   4.703
65053W        W31836  44.924  12.945   0.987
65054W        W31837  40.139  44.871   3.286
65055W        W31838  38.387  42.318   3.774
65056W        W31839  33.485  10.911  12.415
65057W        W31840  25.614   4.377  12.086
65058W        W31841  38.472  36.274  12.511
65059W        W31842  40.061  21.603  12.002
65060W        W31843   6.783   4.753  13.829
65061W        W31844  28.499   4.444  11.514
65062W        W31845  44.445  13.135   4.189
65063W        W31846  40.337  44.287  13.980
65064W        W31847  44.597   6.611  13.086
65065W        W31848   0.352  12.152  10.206
65066W        W31849   4.039  10.758  10.650
65067W        W31850   1.456  25.556   3.591
65068W        W31851  18.276  40.938  11.211
65069W        W31852  42.832   5.261  11.336
65070W        W31853  14.906   0.802   3.101
65071W        W31854  11.692  11.795   1.215
65072W        W31855  40.803  28.702   3.990
65073W        W31856  24.635  25.168   0.929
65074W        W31857  26.350  23.414   4.859
65075W        W31858  21.603   3.700   0.364
65076W        W31859  33.080  30.924   0.315
65077W        W31860   0.818  28.950   3.121
65078W        W31861   7.967  25.000   1.339
65079W        W31862   3.277  21.325  12.625
65080W        W31863  33.779  15.647   4.198
65081W        W31864  11.395   7.126  11.051
65082W        W31865   2.245  44.411   0.304
65083W        W31866  26.017  11.454  12.422
65084W        W31867  20.702  20.782  14.657
65085W        W31868  36.089   4.788   1.761
65086W        W31869  34.155  38.596   3.283
65087W        W31870   5.563  21.826   1.185
65088W        W31871   0.856  35.482   2.024
65089W        W31872  23.197  41.801   1.791
65090W        W31873  41.871   7.889  12.028
65091W        W31874  28.914  41.142  12.395
65092W        W31875  32.943  23.289   3.193
65093W        W31876  33.662   7.699   0.771
65094W        W31877  29.403  28.270  12.750
65095W        W31878  37.976  35.596  14.724
65096W        W31879  44.277  22.058  14.216
65097W        W31880   5.730  14.066  11.992
65098W        W31881  38.406  26.760   0.964
65099W        W31882  35.402  43.017   4.561
65100W        W31883  21.187  31.994   4.580
65101W        W31884  41.259  34.000  10.772
65102W        W31885  22.582   0.741  12.040
65103W        W31886  39.872  35.381  12.376
65104W        W31887  14.989  42.330  13.884
65105W        W31888  26.055  25.043  11.765
65106W        W31889  29.433  23.579  11.957
65107W        W31890  21.622  33.492   1.863
65108W        W31891  21.201  24.307  14.929
65109W        W31892  38.237   3.314   2.672
65110W        W31893   8.316  27.686  14.982
65111W        W31894  34.307  25.482  12.596
65112W        W31895  17.364  24.037   3.114
65113W        W31896  38.454  15.114  14.014
65114W        W31897  26.085   9.908  11.994
65115W        W31898  20.215  36.509   3.816
65116W        W31899  30.581  19.795   3.596
65117W        W31900  16.162  14.008  10.600
65118W        W31901   4.811  25.913   4.665
65119W        W31902  23.668   3.709  12.929
65120W        W31903  36.071   0.733   4.610
65121W        W31904  41.041   9.406   3.107
65122W        W31905   7.298  34.083   1.232
65123W        W31906   1.358  40.220  14.499
65124W        W31907  19.376  26.526  14.007
65125W        W31908  16.832  31.728  12.346
65126W        W31909  16.660  17.802  13.814
65127W        W31910  10.765  18.565   1.259
65128W        W31911  28.664  14.177   1.786
65129W        W31912  36.131  22.141   1.346
65130W        W31913  26.699  13.156  14.936
65131W        W31914  24.015  29.988   1.925
65132W        W31915  20.150  31.421   2.410
65133W        W31916  26.716  26.650  14.082
65134W        W31917  30.574  39.345  14.767
65135W        W31918  29.638  37.872  13.103
65136W        W31919   5.733   8.086  11.151
65137W        W31920  44.808  42.271  13.837
65138W        W31921   1.118   7.444   1.714
65139W        W31922  17.875  27.101   1.775
65140W        W31923  44.938  17.249   3.060
65141W        W31924  43.536   3.631  11.512
65142W        W31925   9.118  42.962  10.641
65143W        W31926   7.702  13.100   1.084
65144W        W31927  40.794   6.659  12.637
65145W        W31928  29.016  29.879   0.924
65146W        W31929  44.357  19.517  14.982
65147W        W31930  10.122  34.439  11.516
65148W        W31931  15.635   9.581   0.941
65149W        W31932   0.752  20.564   2.772
65150W        W31933  32.358  40.761  14.918
65151W        W31934  37.413  41.670  11.868
65152W        W31935  37.416  43.314   4.054
65153W        W31936  25.256  35.055  14.689
65154W        W31937  42.296  19.504  14.218
65155W        W31938  38.828  24.986  10.354
65156W        W31939  40.059  39.383   3.123
65157W        W31940  39.763  43.478  14.035
65158W        W31941  30.918  25.947   3.239
65159W        W31942   8.303  42.973   1.780
65160W        W31943  23.521  12.623   3.115
65161W        W31944  31.690  24.760   4.506
65162W        W31945  24.194  42.218  12.944
65163W        W31946   7.804   1.718   0.541
65164W        W31947  13.517  17.258  12.562
65165W        W31948  39.320   1.825   3.779
65166W        W31949  33.596   1.030   0.897
65167W        W31950  37.635   1.162  13.499
65168W        W31951   3.829  20.662  13.041
65169W        W31952  27.822   5.830  12.566
65170W        W31953  10.847   2.404  14.788
65171W        W31954  40.716  25.706   3.475
65172W        W31955  36.129   9.295  14.021
65173W        W31956   4.928  42.248   1.198
65174W        W31957  41.809   0.685   4.345
65175W        W31958   2.897  40.397   4.074
65176W        W31959   7.355  18.779   4.074
65177W        W31960  33.158  25.907   2.717
65178W        W31961   7.245  21.576  10.705
65179W        W31962  34.581  22.195  11.733
65180W        W31963   5.925   1.269   1.323
65181W        W31964   4.429   4.819   2.606
65182W        W31965  26.098  33.494  12.032
65183W        W31966  23.660  22.707   4.762
65184W        W31967  29.016  17.508  10.749
65185W        W31968  22.748  38.892   1.306
65186W        W31969  17.596  32.296  13.810
65187W        W31970  26.445  13.404   4.676
65188W        W31971  35.806  42.079   0.206
65189W        W31972  26.604   3.393   4.519
65190W        W31973  23.847  22.501  12.807
65191W        W31974   7.752   1.418   4.152
65192W        W31975  11.750  31.817  14.053
65193W        W31976  18.379  44.504   0.233
65194W        W31977  37.303  25.095   4.790
65195W        W31978   2.971  26.929   4.002
65196W        W31979  12.496   2.893  10.913
65197W        W31980  26.207  30.442  11.143
65198W        W31981  37.241   3.653   4.176
65199W        W31982  20.730   4.426  11.903
65200W        W31983   7.775  17.765   0.510
65201W        W31984  26.034  40.812  11.561
65202W        W31985  11.292   9.430  12.401
65203W        W31986  35.420  38.327  12.142
65204W        W31987  13.019  31.908  13.401
65205W        W31988  32.716  38.890  14.687
65206W        W31989  44.871   1.541   4.581
65207W        W31990   0.373  35.947  11.516
65208W        W31991   8.188   3.556  11.939
65209W        W31992  21.157  15.823   4.480
65210W        W31993  35.791  44.182   1.678
65211W        W31994  35.564  37.044  12.893
65212W        W31995   2.351  23.826   1.958
65213W        W31996  14.780  25.744  13.342
65214W        W31997  29.987  29.331  13.087
65215W        W31998  10.586   3.716  11.441
65216W        W31999  22.975  36.479  14.371
65217W        W32000  43.246   2.348   0.951
65218W        W32001  20.634  30.744  13.572
65219W        W32002  16.844  10.647   3.691
65220W        W32003  40.469  11.575  13.491
65221W        W32004  30.864  22.149  13.848
65222W        W32005  38.473   7.713   2.113
65223W        W32006  15.147   5.777  12.847
65224W        W32007   0.345   6.174  12.409
65225W        W32008  43.983  43.935  13.018
65226W        W32009  14.322  30.883   1.236
65227W        W32010  39.492  22.160   3.205
65228W        W32011  32.456  35.398  11.820
65229W        W32012  36.538  10.333  10.939
65230W        W32013  20.034  15.820  12.403
65231W        W32014  18.162  36.861  10.580
65232W        W32015   3.683  11.837   2.559
65233W        W32016   1.228  30.650  13.232
65234W        W32017  12.104  42.974   1.183
65235W        W32018   5.662  34.368   0.289
65236W        W32019   6.283  23.889   4.798
65237W        W32020  41.990   4.234   4.674
65238W        W32021   0.358  32.674  14.725
65239W        W32022  23.337  38.834  12.963
65240W        W32023   7.023  32.016   4.534
65241W        W32024  44.909  15.182  10.597
65242W        W32025   2.057  18.686   2.258
65243W        W32026  14.151  40.911  14.905
65244W        W32027  42.711  44.335   1.948
65245W        W32028  16.236  22.511  12.146
65246W        W32029  24.672  26.585   1.792
65247W        W32030  25.163  42.065  11.535
65248W        W32031   8.813  12.452   2.250
65249W        W32032  27.610  40.182  12.076
65250W        W32033  22.366  36.009  12.514
65251W        W32034  17.551  32.971   1.446
65252W        W32035  42.545  25.514   4.280
65253W        W32036  10.179   3.944  11.701
65254W        W32037   2.261  23.776   3.756
65255W        W32038  26.806  23.505   4.424
65256W        W32039  14.867  30.644   4.663
65257W        W32040  14.242  17.862   3.099
65258W        W32041  13.414  10.863   0.257
65259W        W32042  37.702  19.010  10.838
65260W        W32043  24.838  22.805   0.072
65261W        W32044  37.607  36.311   2.455
65262W        W32045  26.902   6.183  14.401
65263W        W32046  17.362   0.925  14.444
65264W        W32047  10.393  26.000   0.869
65265W        W32048  39.421   7.663   2.886
65266W        W32049  28.243   0.491   2.705
65267W        W32050  26.140  15.673  12.031
65268W        W32051  18.079  17.398  11.102
65269W        W32052   7.143  25.504   4.525
65270W        W32053  30.734  35.553  13.542
65271W        W32054  18.939  32.637   2.344
65272W        W32055  17.991   7.130   4.109
65273W        W32056  10.600  10.418  14.777
65274W        W32057   1.007   4.767   1.803
65275W        W32058   7.739  31.954   0.948
65276W        W32059   2.727   9.800  12.019
65277W        W32060   6.465  22.784   1.032
65278W        W32061  32.663   7.890  12.080
65279W        W32062  25.685  25.142  11.376
65280W        W32063  14.012   0.737   2.594
65281W        W32064  40.230  24.135  13.396
65282W        W32065  32.564  28.894  10.961
65283W        W32066  35.470   1.841  14.204
65284W        W32067  41.749  12.743  14.778
65285W        W32068  29.556  21.890  12.909
65286W        W32069  22.613  24.199  10.238
65287W        W32070  36.908   6.119   2.783
65288W        W32071  25.622  33.662  12.207
65289W        W32072   9.145  11.659  13.859
65290W        W32073  25.284  30.911  14.983
65291W        W32074  22.675  26.885  10.737
65292W        W32075   2.704  32.623   4.257
65293W        W32076  36.086  13.806   1.786
65294W        W32077   9.165  42.737  13.002
65295W        W32078   6.847  24.071  11.799
65296W        W32079  10.402  34.861   4.283
65297W        W32080  13.316  40.543  10.512
65298W        W32081  36.914  18.104  11.625
65299W        W32082  17.270  19.776  11.627
65300W        W32083  19.139   4.184   3.084
65301W        W32084   3.918   2.904  14.148
65302W        W32085   4.936  40.627   4.573
65303W        W32086  43.661  39.926   4.826
65304W        W32087  27.511   2.758  14.066
65305W        W32088  19.508   0.370   0.660
65306W        W32089  29.606  38.887  13.448
65307W        W32090   9.370  35.490  14.305
65308W        W32091  17.200   2.737   1.798
65309W        W32092   1.685  22.710  11.072
65310W        W32093  19.273   3.729  12.092
65311W        W32094  18.751  12.821  12.751
65312W        W32095  25.752  39.479   3.562
65313W        W32096   0.635  12.522  12.747
65314W        W32097  28.697  27.750  11.556
65315W        W32098  18.527  44.292  13.557
65316W        W32099   6.498   2.342   0.793
65317W        W32100  18.350  38.372   0.268
65318W        W32101  21.048   7.847  13.373
65319W        W32102   5.051  11.736   5.231
65320W        W32103   3.963  33.580   2.522
65321W        W32104  33.694  23.176   3.632
65322W        W32105  32.525  44.400   0.973
65323W        W32106   3.724   5.330  10.737
65324W        W32107  12.819  21.067   3.388
65325W        W32108   2.899  11.489  11.943
65326W        W32109   4.822  35.952   3.662
65327W        W32110  42.898  24.763  13.519
65328W        W32111   6.244  44.044  13.363
65329W        W32112  34.496  22.077  12.726
65330W        W32113  38.759  14.629   4.120
65331W        W32114  22.709  23.599   2.932
65332W        W32115  26.759   1.706  11.098
65333W        W32116   8.229   6.854  13.612
65334W        W32117   9.905  43.863   4.328
65335W        W32118  18.786  31.155   3.206
65336W        W32119   0.853   9.010   2.208
65337W        W32120  20.348  39.291   3.695
65338W        W32121   9.379  40.334  12.009
65339W        W32122  11.705   4.223  14.895
65340W        W32123  19.229  27.001   1.771
65341W        W32124  36.453  44.916  14.422
65342W        W32125  16.196   5.397  11.944
65343W        W32126   5.582  16.034  12.126
65344W        W32127  38.864  35.915   0.009
65345W        W32128  39.120  27.982   1.071
65346W        W32129  26.293  15.343  14.750
65347W        W32130  42.493   2.746  14.927
65348W        W32131  44.700  39.548   1.162
65349W        W32132  44.690   7.188  13.471
65350W        W32133  42.204  16.658   1.404
65351W        W32134  20.165  17.579  14.569
65352W        W32135  22.673  36.208   0.855
65353W        W32136   1.320  43.735  11.340
65354W        W32137   1.001   8.873   0.894
65355W        W32138   9.953  29.101   3.169
65356W        W32139  44.381  43.354  10.704
65357W        W32140  27.051  36.490   4.099
65358W        W32141  26.205  32.930   4.503
65359W        W32142   9.215  26.496   3.642
65360W        W32143   1.704  41.330  10.662
65361W        W32144   8.123  32.583   3.031
65362W        W32145   8.726   3.608   3.273
65363W        W32146   4.996   2.389   3.363
65364W        W32147  14.391   6.360  14.827
65365W        W32148   8.714  28.155   1.776
65366W        W32149   1.372  15.577   4.668
65367W        W32150  12.623  32.102  12.415
65368W        W32151  13.653   0.382  11.473
65369W        W32152  37.087  23.423   1.584
65370W        W32153   2.672  36.930   2.763
65371W        W32154   5.918  42.125   2.304
65372W        W32155  18.529  40.491   0.306
65373W        W32156  42.367   8.127  12.177
65374W        W32157  14.636  35.855   0.970
65375W        W32158  32.013   8.457  12.641
65376W        W32159   5.938  29.422  12.029
65377W        W32160  22.044  25.057   1.866
65378W        W32161  41.061  33.852  12.129
65379W        W32162  12.400  18.653   0.479
65380W        W32163  14.637  14.030   2.190
65381W        W32164  44.619  32.533   3.323
65382W        W32165  15.255  23.695  13.897
65383W        W32166  23.738  25.219   3.405
65384W        W32167  42.670  30.727   5.455
65385W        W32168  41.710  44.983   1.452
65386W        W32169   8.074   4.695   0.699
65387W        W32170  15.771  44.887   1.123
65388W        W32171  25.084  38.069  12.130
65389W        W32172  13.299  41.511  13.029
65390W        W32173  33.451   3.748  14.002
65391W        W32174  19.997  35.599  11.665
65392W        W32175  29.841  14.117   2.492
65393W        W32176  43.848  22.409   1.516
65394W        W32177  27.586   8.755  10.021
65395W        W32178  34.032  30.619  10.423
65396W        W32179  35.308  24.933   1.398
65397W        W32180  41.979  42.088   0.180
65398W        W32181  17.701  36.226   4.947
65399W        W32182  38.863  25.199  10.817
65400W        W32183   9.073  37.864  14.393
65401W        W32184  28.810   3.857   0.381
65402W        W32185  14.204  35.062  11.537
65403W        W32186  31.683  18.303   4.409
65404W        W32187  30.639  30.782  11.570
65405W        W32188   7.663  36.551   4.770
65406W        W32189  26.692  11.648   3.758
65407W        W32190  24.619   6.319   1.487
65408W        W32191  31.520   6.231   4.152
65409W        W32192  36.465  23.439  11.584
65410W        W32193  22.143  32.418  14.547
65411W        W32194  33.619  18.478   5.002
65412W        W32195  15.726  40.861  11.041
65413W        W32196   1.856  41.799  10.809
65414W        W32197  36.033  24.306  14.559
65415W        W32198  37.603  43.818  10.707
65416W        W32199  41.728   0.902   0.891
65417W        W32200  42.919  31.147   0.518
65418W        W32201  18.209  40.990  11.711
65419W        W32202  24.354  14.038  13.414
65420W        W32203  27.954  13.311   2.281
65421W        W32204   6.944  39.025   3.391
65422W        W32205  17.358  18.044  12.267
65423W        W32206   8.905   0.973  12.348
65424W        W32207  16.081  40.292  10.225
65425W        W32208   6.936  38.035   0.417
65426W        W32209  20.197   6.342  11.513
65427W        W32210  26.580  43.954   4.038
65428W        W32211  16.069   9.585  13.726
65429W        W32212  11.458  35.768  14.350
65430W        W32213  41.356  30.865  14.051
65431W        W32214  37.321  12.249  10.767
65432W        W32215  13.084  38.905  14.026
65433W        W32216  39.866  41.248  12.637
65434W        W32217  31.161  43.866  12.840
65435W        W32218  30.522  25.724   0.787
65436W        W32219  37.422  30.736  13.142
65437W        W32220  32.068  32.086   5.065
65438W        W32221   0.238   9.857  14.872
65439W        W32222   4.501  23.067  11.115
65440W        W32223  13.032  15.877   1.158
65441W        W32224   1.486  18.692   3.791
65442W        W32225  42.815  28.174   0.400
65443W        W32226  37.872  32.575   2.309
65444W        W32227  34.355  11.828   1.858
65445W        W32228  25.198  44.987   1.811
65446W        W32229  38.834  10.853   1.982
65447W        W32230  31.392  16.736  11.577
65448W        W32231  13.445   7.263   5.128
65449W        W32232   7.344  24.612  11.945
65450W        W32233  12.665   6.707  14.267
65451W        W32234  34.977  27.769  13.047
65452W        W32235   0.347  17.854   4.406
65453W        W32236  30.920  20.071   5.462
65454W        W32237  28.037  33.469  14.182
65455W        W32238  13.672   0.061  13.523
65456W        W32239  41.987  12.838   4.737
65457W        W32240  44.382  13.768  11.580
65458W        W32241  31.682  34.478   2.567
65459W        W32242   0.578  42.894   1.683
65460W        W32243   7.169  16.648   2.613
65461W        W32244  12.773   7.614   1.362
65462W        W32245   7.328  22.681   0.457
65463W        W32246  16.600  39.871   5.108
65464W        W32247  35.561  31.890  13.122
65465W        W32248   6.257  13.089  10.409
65466W        W32249  18.824   5.095   0.016
65467W        W32250   9.956  24.478   2.824
65468W        W32251  18.124   6.325  11.133
65469W        W32252  23.095  22.521  13.029
65470W        W32253  13.790   9.729   4.369
65471W        W32254  18.867  21.206   0.366
65472W        W32255  28.823  41.676   3.442
65473W        W32256   3.376  17.266   2.520
65474W        W32257  36.608  44.320  13.449
65475W        W32258  12.548   4.589   0.449
65476W        W32259  12.826  33.520   3.041
65477W        W32260  20.907  32.824   4.118
65478W        W32261  31.104  14.108   5.111
65479W        W32262  14.021  43.497  10.556
65480W        W32263  12.365  31.385  11.071
65481W        W32264  40.979  15.014  12.627
65482W        W32265  15.786  29.250  10.727
65483W        W32266  25.351  19.467  12.482
65484W        W32267  36.477  44.463   2.118
65485W        W32268  30.648  17.565  10.623
65486W        W32269  26.523  27.782   1.514
65487W        W32270  29.393  27.542   4.404
65488W        W32271  30.977  11.434  13.936
65489W        W32272   4.070  21.110   3.751
65490W        W32273  33.510  13.794   0.990
65491W        W32274   6.468   0.269  11.393
65492W        W32275   8.804   6.819   1.765
65493W        W32276   9.412   4.745   1.239
65494W        W32277  15.631  41.338   3.688
65495W        W32278  41.784  39.558   3.036
65496W        W32279  39.669  12.070   2.900
65497W        W32280   2.065  44.397   2.656
65498W        W32281   9.738  44.373  13.816
65499W        W32282  14.903  28.946  14.538
65500W        W32283  36.687   7.276  11.580
65501W        W32284   9.396  26.426  14.376
65502W        W32285   6.215  24.735   0.363
65503W        W32286   4.384  44.970  14.252
65504W        W32287  16.603  22.033   4.119
65505W        W32288  44.570  30.989   1.993
65506W        W32289  28.560  21.273  12.568
65507W        W32290  44.245  42.996   2.888
65508W        W32291  44.839  38.389  14.536
65509W        W32292  27.323  18.945   2.593
65510W        W32293  42.294  44.915  14.036
65511W        W32294  13.047   5.627   1.112
65512W        W32295  16.194  15.092  14.449
65513W        W32296   0.719  31.405  14.626
65514W        W32297  19.607  36.565   5.012
65515W        W32298  22.222   6.538  10.437
65516W        W32299  11.845   5.807  11.110
65517W        W32300  13.788  20.278   0.759
65518W        W32301  28.479  40.836  14.540
65519W        W32302  43.813   2.403   0.377
65520W        W32303   4.402  20.614   4.496
65521W        W32304  31.184  16.196  11.187
65522W        W32305  16.096  13.911   1.239
65523W        W32306  34.792  28.390   2.219
65524W        W32307   4.370  41.421  11.992
65525W        W32308  41.297   4.894  12.416
65526W        W32309   7.878  20.632  13.998
65527W        W32310  29.029  24.197  11.036
65528W        W32311  10.782  14.836   4.177
65529W        W32312  35.869  17.678   0.203
65530W        W32313   1.473   2.525   1.800
65531W        W32314  28.950  30.909   2.910
65532W        W32315  17.639  32.481   2.862
65533W        W32316  20.962  10.668   3.780
65534W        W32317  16.234  42.393  14.787
65535W        W32318  39.303   1.898   2.784
65536W        W32319  32.692  25.972  11.647
65537W        W32320   8.936  30.659  10.602
65538W        W32321  39.364  29.169  14.420
65539W        W32322  18.999  23.234  10.620
65540W        W32323  25.175  12.347  13.848
65541W        W32324  44.667  23.710  11.712
65542W        W32325  14.861   3.205   4.680
65543W        W32326  38.598  22.666   4.265
65544W        W32327  41.566  38.341  11.225
65545W        W32328  36.094  37.820  10.539
65546W        W32329  10.594  29.185  14.996
65547W        W32330   9.676  19.598   2.771
65548W        W32331   7.790  16.186   3.077
65549W        W32332  37.090   1.346  12.982
65550W        W32333  25.662  19.181  14.943
65551W        W32334   3.465   2.695   2.795
65552W        W32335   7.651  18.580  13.589
65553W        W32336  13.353  25.078  10.237
65554W        W32337  12.061  24.778   0.839
65555W        W32338  16.090  11.823  13.000
65556W        W32339  28.444  10.773   0.342
65557W        W32340   5.294  35.163   2.463
65558W        W32341  13.883  38.521  13.920
65559W        W32342   8.170  40.859   2.130
65560W        W32343   5.236   7.774   2.926
65561W        W32344  15.024  24.150  14.560
65562W        W32345  33.053  29.204  11.021
65563W        W32346  41.432  37.273  14.265
65564W        W32347  23.656  38.799  13.816
65565W        W32348   7.736   9.434   9.804
65566W        W32349  38.879  42.283  13.451
65567W        W32350  26.138   5.893  13.927
65568W        W32351  34.546  18.402   2.825
65569W        W32352  33.498  26.669   2.663
65570W        W32353   6.072  33.390   2.820
65571W        W32354  23.709  31.565   4.766
65572W        W32355  35.896  28.560   2.319
65573W        W32356  35.726  23.338   5.136
65574W        W32357  12.071  10.084  14.323
65575W        W32358   8.276  26.192  13.803
65576W        W32359   4.831  16.222  10.502
65577W        W32360   8.506  39.337   4.619
65578W        W32361  18.763   3.308  11.522
65579W        W32362  40.946  40.354   4.295
65580W        W32363   0.794  31.661   0.555
65581W        W32364  35.116   1.432  14.887
65582W        W32365   9.877  41.912   2.838
65583W        W32366  38.797  28.389   0.817
65584W        W32367  17.068  38.439  14.958
65585W        W32368  30.621   1.005  14.166
65586W        W32369  28.185  35.255  11.578
65587W        W32370  24.483  10.346   3.674
65588W        W32371  27.006   7.279  12.296
65589W        W32372   8.864   2.841  13.324
65590W        W32373  37.717  44.019   1.412
65591W        W32374  36.311   6.177   3.376
65592W        W32375  34.946  23.913  12.543
65593W        W32376  44.363  34.351  11.754
65594W        W32377  19.299  28.156   4.111
65595W        W32378  35.338  21.474   4.163
65596W        W32379  40.371  25.388   1.192
65597W        W32380  26.386  32.379  14.933
65598W        W32381  44.238   8.475   0.291
65599W        W32382  18.138  31.752   3.731
65600W        W32383   8.082   8.855   3.301
65601W        W32384  27.676  16.636   4.878
65602W        W32385  12.397  25.146   4.590
65603W        W32386   4.768  43.687   5.201
65604W        W32387  14.655  33.058   3.743
65605W        W32388  16.105  41.494   2.916
65606W        W32389  23.952  21.644   1.326
65607W        W32390  37.583  44.457  13.964
65608W        W32391   6.322   1.344  12.338
65609W        W32392   5.803  38.303   4.376
65610W        W32393  38.897  31.406   3.752
65611W        W32394  28.154  16.658  14.261
65612W        W32395  43.457  34.120  10.684
65613W        W32396  13.954  18.539  14.000
65614W        W32397  30.109   5.507  13.053
65615W        W32398  39.259   8.166  13.257
65616W        W32399   8.018  44.697   3.663
65617W        W32400  41.472  27.473  13.564
65618W        W32401  11.856   5.257  13.398
65619W        W32402  19.228  30.840  14.951
65620W        W32403   7.605  20.803   2.866
65621W        W32404  10.613  34.528   2.655
65622W        W32405  27.647  17.160  13.898
65623W        W32406  16.373  16.495   0.688
65624W        W32407  19.019  36.070   0.440
65625W        W32408  32.414   4.191   1.488
65626W        W32409   0.878   6.901  11.155
65627W        W32410  13.808  32.573  11.002
65628W        W32411  29.718  30.151   2.091
65629W        W32412  26.728   5.446   3.754
65630W        W32413  11.584   0.688  13.369
65631W        W32414  16.363  40.332  13.048
65632W        W32415  32.192   9.494  12.670
65633W        W32416  25.298   0.923   1.724
65634W        W32417  18.888  18.775  14.504
65635W        W32418  30.223  39.538  13.311
65636W        W32419  14.262   2.735  10.961
65637W        W32420  31.213  30.937  14.149
65638W        W32421  22.907  34.402   2.708
65639W        W32422  44.490  32.001   2.623
65640W        W32423   2.255  18.740  13.847
65641W        W32424  12.057  11.605  12.880
65642W        W32425  25.740  21.294   2.751
65643W        W32426   9.365   7.614   0.337
65644W        W32427  11.365  19.279   0.056
65645W        W32428   6.837   7.406  11.603
65646W        W32429  36.955  42.348  14.970
65647W        W32430   2.271  13.911  12.001
65648W        W32431  29.427  12.927  14.822
65649W        W32432  33.561   6.766   0.874
65650W        W32433  24.590  44.608   1.774
65651W        W32434  36.042   1.323  12.684
65652W        W32435  24.590   0.842  12.917
65653W        W32436  19.633  33.073  11.532
65654W        W32437  36.873  24.971   4.123
65655W        W32438  30.917  38.728   0.926
65656W        W32439   3.003  20.767  11.507
65657W        W32440   8.686  26.131  10.689
65658W        W32441  13.281  24.436   5.045
65659W        W32442  21.488  11.243   3.948
65660W        W32443  25.233  35.622  10.767
65661W        W32444   0.481  37.187  12.100
65662W        W32445  25.131   1.556  13.048
65663W        W32446  20.547  17.724  10.647
65664W        W32447   9.929  10.974  14.795
65665W        W32448  39.019  10.342  14.396
65666W        W32449  12.811   4.749   0.900
65667W        W32450  32.528   5.330  14.281
65668W        W32451  29.130  25.063   2.761
65669W        W32452   3.286  24.520   3.109
65670W        W32453   7.158  21.685   4.315
65671W        W32454  32.085  40.798  10.610
65672W        W32455  22.534  12.088   0.648
65673W        W32456  34.673  12.167   4.785
65674W        W32457  11.102  40.288   2.648
65675W        W32458  12.143  23.268   3.568
65676W        W32459  41.579  24.658  12.130
65677W        W32460  43.032  31.043   3.436
65678W        W32461  21.725  19.192  11.596
65679W        W32462  32.459  42.458   0.355
65680W        W32463  41.187   0.182   0.503
65681W        W32464  35.853  27.570  11.208
65682W        W32465  40.493  19.753  12.313
65683W        W32466  31.670  24.537   1.329
65684W        W32467  39.514  24.507  13.014
65685W        W32468   2.293  23.108  14.096
65686W        W32469   0.254  31.972  13.091
65687W        W32470  21.202  16.447  12.185
65688W        W32471  29.616  42.444  14.702
65689W        W32472  25.320  27.422   5.140
65690W        W32473  22.287   2.717   0.738
65691W        W32474   2.749   2.528  12.086
65692W        W32475  29.673  11.658  13.303
65693W        W32476  16.704  34.694   9.789
65694W        W32477  38.575  28.415   4.498
65695W        W32478  34.484  28.393   2.675
65696W        W32479   7.211  18.075   3.838
65697W        W32480  29.680  16.780   1.826
65698W        W32481  12.193  34.136   3.298
65699W        W32482  16.003   7.773   2.919
65700W        W32483   0.317  16.608   2.850
65701W        W32484  37.388   8.738  12.971
65702W        W32485  29.429  43.797   1.732
65703W        W32486  37.132   9.188  12.916
65704W        W32487  15.154  40.075  11.653
65705W        W32488   8.749   5.143   1.824
65706W        W32489  43.236  37.845  13.177
65707W        W32490  23.777   4.367   3.688
65708W        W32491  16.968  27.859   3.413
65709W        W32492  28.675   5.779  12.871
65710W        W32493   9.969  21.675   2.283
65711W        W32494  19.107  36.483   4.350
65712W        W32495  25.282  16.390   2.812
65713W        W32496  24.673  29.865  11.131
65714W        W32497  19.347  19.651   3.226
65715W        W32498   4.531  19.341  13.374
65716W        W32499  40.385  16.025   3.260
65717W        W32500   0.388  40.243  12.360
65718W        W32501  24.697  42.520  14.975
65719W        W32502  43.739   6.230   2.761
65720W        W32503  19.106  14.301   1.973
65721W        W32504  33.950  33.147   2.827
65722W        W32505   1.046  30.141  11.962
65723W        W32506  39.957   6.617  11.406
65724W        W32507  14.101  22.998   0.678
65725W        W32508  27.188  41.004  12.123
65726W        W32509   6.617  27.457   1.331
65727W        W32510  17.165  30.666   4.990
65728W        W32511   2.522  42.302  14.198
65729W        W32512  11.602  41.406  12.413
65730W        W32513  28.621  28.995   0.908
65731W        W32514  22.496  14.779  12.986
65732W        W32515  29.734  10.097  13.577
65733W        W32516  43.845   2.920  10.675
65734W        W32517  29.427   4.266   1.445
65735W        W32518  35.534  44.042  11.080
65736W        W32519  17.011  37.458   2.864
65737W        W32520  24.127  43.914   4.649
65738W        W32521  43.257  38.017  14.508
65739W        W32522   8.534  24.448   0.781
65740W        W32523  44.826   2.705   2.022
65741W        W32524   1.891   5.881   2.272
65742W        W32525   8.460  43.921  11.911
65743W        W32526  42.503  17.480   5.178
65744W        W32527   0.893  27.174   2.857
65745W        W32528  27.002   2.958   1.730
65746W        W32529   3.802   5.955  12.439
65747W        W32530  25.481  20.769   1.364
65748W        W32531  20.258   4.245  12.060
65749W        W32532  32.625  37.661   3.517
65750W        W32533   6.834  20.450   1.805
65751W        W32534  28.643  37.447   2.766
65752W        W32535  20.575  44.432  13.124
65753W        W32536  22.732  40.370  10.382
65754W        W32537  15.527   3.409  12.663
65755W        W32538   5.760  19.108   0.668
65756W        W32539  25.508  43.989   1.755
65757W        W32540  16.612  27.681   3.095
65758W        W32541  13.822  13.875   1.831
65759W        W32542  13.341  17.754   1.450
65760W        W32543  42.425   1.243   3.705
65761W        W32544  26.246  16.071   2.678
65762W        W32545  26.404  41.248   3.839
65763W        W32546  31.057  13.240   4.238
65764W        W32547   1.482   4.501  14.264
65765W        W32548  31.588  27.200   4.659
65766W        W32549   0.373  28.248   1.224
65767W        W32550  38.927  13.936  11.131
65768W        W32551  27.005  14.346   2.202
65769W        W32552  41.055   9.918  14.394
65770W        W32553  41.905  17.256   1.863
65771W        W32554  30.905  23.707   1.383
65772W        W32555  16.097   4.803  11.006
65773W        W32556   9.843  13.793   0.870
65774W        W32557  18.177   1.308  12.582
65775W        W32558  10.084   7.782   2.667
65776W        W32559  15.716  15.351  14.474
65777W        W32560  27.228  27.214   2.309
65778W        W32561  26.977  11.713   2.516
65779W        W32562  24.700  33.982  12.029
65780W        W32563  43.254  12.139   3.795
65781W        W32564  28.002  37.173  12.486
65782W        W32565  11.782  25.098  11.095
65783W        W32566   3.000   8.891   3.863
65784W        W32567   6.161  39.019   4.564
65785W        W32568   6.413  39.974   0.337
65786W        W32569  20.243  13.987   0.300
65787W        W32570  23.643  35.287   0.689
65788W        W32571  19.955  42.647   4.968
65789W        W32572  31.546   4.680  12.923
65790W        W32573  33.005   0.419  10.637
65791W        W32574   4.175  33.965  12.946
65792W        W32575  44.808  31.473  14.490
65793W        W32576   2.713  33.021  12.076
65794W        W32577  27.412  17.625   3.399
65795W        W32578  35.953  41.130   3.388
65796W        W32579   8.867  36.381  13.004
65797W        W32580  28.688  22.124  11.726
65798W        W32581  21.687  15.607   1.864
65799W        W32582   4.910   8.304   4.511
65800W        W32583  38.604  23.465   2.754
65801W        W32584  39.596  20.553   1.538
65802W        W32585  19.194  28.102   0.254
65803W        W32586  29.216  18.770  14.457
65804W        W32587  15.596  26.918   2.754
65805W        W32588  27.531  10.797  10.370
65806W        W32589  22.280   6.339  11.380
65807W        W32590  38.516  32.518   3.643
65808W        W32591  23.126  11.511  12.988
65809W        W32592   0.865  14.716  12.678
65810W        W32593  13.585  41.960  14.423
65811W        W32594  25.739   6.817  14.437
65812W        W32595  14.121  20.809   1.986
65813W        W32596   6.030  17.117  13.914
65814W        W32597  29.994  17.280  12.746
65815W        W32598  40.820  35.093   2.172
65816W        W32599  43.915  31.385   0.441
65817W        W32600  40.290  16.808   3.676
65818W        W32601  17.298  23.112   0.490
65819W        W32602  28.615   6.554  11.720
65820W        W32603  27.231  28.643   3.702
65821W        W32604  18.201   4.515   0.237
65822W        W32605  35.855  22.740  13.557
65823W        W32606  19.247   3.807   0.391
65824W        W32607   5.309  39.370  10.502
65825W        W32608  37.850  34.871   3.740
65826W        W32609  23.451  10.901  13.960
65827W        W32610  44.091  21.291  12.068
65828W        W32611   9.364  30.026   2.322
65829W        W32612  28.678  38.433   1.238
65830W        W32613  18.457   7.728  11.606
65831W        W32614  18.305   7.728  12.549
65832W        W32615  20.721  13.736   0.706
65833W        W32616  19.153  35.360   2.137
65834W        W32617   9.796   5.867  14.273
65835W        W32618  23.116  31.236   1.873
65836W        W32619   7.411  26.082  13.324
65837W        W32620   8.932   1.749   3.428
65838W        W32621  44.425   7.965   3.148
65839W        W32622  13.154  27.092   3.979
65840W        W32623  39.993  24.513  14.543
65841W        W32624  29.919  13.353  12.926
65842W        W32625   5.695  28.949  12.048
65843W        W32626  27.002  31.063   2.605
65844W        W32627  23.239  13.763  10.752
65845W        W32628  31.603  13.520  12.083
65846W        W32629  17.654  44.804  10.581
65847W        W32630   5.718  32.906  13.959
65848W        W32631  36.834  23.856   3.194
65849W        W32632  21.920   6.757  10.067
65850W        W32633  28.232  26.110  10.698
65851W        W32634   1.368  22.687   0.454
65852W        W32635  20.100  22.785   0.860
65853W        W32636  34.956  37.495   3.270
65854W        W32637  37.483  23.279  12.895
65855W        W32638  30.940  42.881  10.714
65856W        W32639  11.677  33.096  10.993
65857W        W32640   1.322  26.822   2.721
65858W        W32641   0.405   8.951  11.961
65859W        W32642  20.137  25.224  14.009
65860W        W32643  11.851   5.346  10.757
65861W        W32644  24.788  13.776  10.785
65862W        W32645  15.544  31.029   1.562
65863W        W32646   7.404  36.962   4.083
65864W        W32647  12.231  40.023   4.342
65865W        W32648  20.463   1.214  11.594
65866W        W32649  23.154  36.633  12.699
65867W        W32650   5.495  33.590  14.136
65868W        W32651  39.637  14.353  13.875
65869W        W32652   3.442   1.880   4.699
65870W        W32653  29.422   0.925  11.128
65871W        W32654  21.901  14.773   3.280
65872W        W32655  42.499  14.041  10.787
65873W        W32656   3.722  38.292  14.378
65874W        W32657  11.306  33.651  11.929
65875W        W32658  12.830  16.389  14.073
65876W        W32659  36.681   6.494  13.845
65877W        W32660   8.867  44.860   1.012
65878W        W32661  12.144  42.725  13.812
65879W        W32662  12.418  40.480   0.022
65880W        W32663  14.490  26.102  11.201
65881W        W32664  12.085   9.409   2.370
65882W        W32665  33.396  33.956   3.683
65883W        W32666  22.592  35.425  14.415
65884W        W32667   6.831   9.424   0.812
65885W        W32668  13.330  28.495   0.827
65886W        W32669  10.366  22.628  14.780
65887W        W32670  16.544  25.139   4.362
65888W        W32671  44.808  15.049   1.816
65889W        W32672   0.492  10.210  11.880
65890W        W32673  16.110  42.376  12.653
65891W        W32674   3.377  15.102  12.953
65892W        W32675  25.082  44.920  14.766
65893W        W32676  44.418   4.190  11.614
65894W        W32677  16.130  36.253   3.218
65895W        W32678   1.717  30.012  13.892
65896W        W32679  31.610   7.173  12.495
65897W        W32680  38.489   1.833   2.130
65898W        W32681  12.751  40.457   4.166
65899W        W32682  21.821  37.798  12.830
65900W        W32683  18.046  27.470  11.970
65901W        W32684  33.585   2.563   0.870
65902W        W32685   4.780  31.989   2.271
65903W        W32686   3.856  38.990  10.300
65904W        W32687  44.322  23.111  13.940
65905W        W32688  23.660  44.493  11.366
65906W        W32689   1.668   5.262   3.602
65907W        W32690   2.167  22.560  11.152
65908W        W32691  36.414   8.851  11.154
65909W        W32692   4.399  16.865   0.302
65910W        W32693  31.164  16.825   2.934
65911W        W32694  38.242  17.246  14.036
65912W        W32695  34.937   6.385  14.285
65913W        W32696  16.299  24.656  14.844
65914W        W32697  24.043  40.913  12.584
65915W        W32698  16.768  14.014   4.519
65916W        W32699  16.541  31.098   1.311
65917W        W32700  40.227   9.933  12.479
65918W        W32701  18.686  22.449  11.583
65919W        W32702  33.664  39.304  10.621
65920W        W32703  32.941  28.476  14.033
65921W        W32704  32.863   5.413   1.186
65922W        W32705  30.657   0.359   0.842
65923W        W32706  27.089   8.794  12.504
65924W        W32707  35.345  11.072  13.689
65925W        W32708   7.353  31.073   3.169
65926W        W32709  42.398  43.744  14.457
65927W        W32710  44.399  17.092   2.826
65928W        W32711  24.599   5.953   0.209
65929W        W32712  24.589  24.470  12.640
65930W        W32713  10.842  15.925  13.762
65931W        W32714   5.171  33.284  14.398
65932W        W32715  15.042   3.441  12.454
65933W        W32716   5.282  34.930  12.492
65934W        W32717   6.908  12.834   0.364
65935W        W32718  29.623   7.740   3.260
65936W        W32719  43.885  36.047   1.334
65937W        W32720  23.105   1.584   9.713
65938W        W32721  44.392  34.954   2.326
65939W        W32722  22.289  22.222   2.322
65940W        W32723  20.251  17.824  13.604
65941W        W32724   4.083  23.596   2.910
65942W        W32725  38.397  26.730   1.490
65943W        W32726  11.314  15.429  14.477
65944W        W32727  14.759  41.862  12.044
65945W        W32728  13.288  17.639  10.557
65946W        W32729   7.305   0.295  11.763
65947W        W32730  37.841  21.096   3.868
65948W        W32731   2.528   7.725   1.847
65949W        W32732  22.150   6.172  14.556
65950W        W32733  28.514  11.668   4.175
65951W        W32734   8.648  15.811   3.305
65952W        W32735   4.690  18.870  11.154
65953W        W32736  10.092  43.494  13.482
65954W        W32737  22.058  29.434   0.744
65955W        W32738  10.140   9.486   4.190
65956W        W32739  20.717   6.415  14.369
65957W        W32740  28.261  38.077  10.382
65958W        W32741  15.226  34.500  11.054
65959W        W32742  33.111  22.425  14.409
65960W        W32743  31.654  38.029  12.942
65961W        W32744  37.494   1.866   0.003
65962W        W32745  44.225  21.777   3.532
65963W        W32746  22.004  14.872  14.360
65964W        W32747  23.899  22.353   0.009
65965W        W32748  30.922   8.422  14.430
65966W        W32749  23.671   5.726  12.203
65967W        W32750  12.254  41.538   2.217
65968W        W32751  21.277  19.053   0.368
65969W        W32752  18.742  28.360   0.054
65970W        W32753  16.890   3.810   3.163
65971W        W32754  31.945  24.628  12.544
65972W        W32755  34.551  28.749  11.955
65973W        W32756  10.875  36.984  14.800
65974W        W32757  38.257  36.033   4.005
65975W        W32758  39.418  27.430   1.160
65976W        W32759  44.707  24.646  14.395
65977W        W32760  32.433  11.275  13.905
65978W        W32761  14.077  37.948   0.944
65979W        W32762  23.598  37.422  10.835
65980W        W32763  24.128   9.272  12.581
65981W        W32764   7.289  14.553   2.926
65982W        W32765  15.306   9.283   2.709
65983W        W32766   8.611  16.578   0.301
65984W        W32767   3.503  17.276  13.969
65985W        W32768  39.462  22.908  10.916
65986W        W32769   1.998  10.839   1.391
65987W        W32770  33.079  16.575  13.295
65988W        W32771  13.384   5.371  12.521
65989W        W32772  17.602   0.642   0.388
65990W        W32773   6.456  13.889  12.965
65991W        W32774  41.875   2.476   1.759
65992W        W32775   7.691  22.087  14.405
65993W        W32776  19.811  19.871   3.214
65994W        W32777  21.975  11.890  12.728
65995W        W32778   2.344   0.382   4.786
65996W        W32779  14.302  16.977   1.100
65997W        W32780  34.982   1.679  12.496
65998W        W32781   6.313  16.053   0.850
65999W        W32782   7.787   7.974   3.760
66000W        W32783  21.639  32.801  10.356
66001W        W32784   9.790  13.187  12.074
66002W        W32785  41.932  31.843   1.969
66003W        W32786   5.633  16.115   0.339
66004W        W32787   0.938  10.747  12.699
66005W        W32788   9.267  18.052  11.088
66006W        W32789  13.145  29.760   1.535
66007W        W32790  42.895  11.258   3.986
66008W        W32791  36.300  34.044   1.942
66009W        W32792  35.544  27.796  13.379
66010W        W32793  15.100   2.473   0.628
66011W        W32794  32.320  23.213  11.896
66012W        W32795  26.734  11.116   3.735
66013W        W32796  37.448   5.703   0.745
66014W        W32797  20.531  40.870  13.331
66015W        W32798  18.781  24.522   3.411
66016W        W32799  34.803  13.586   3.777
66017W        W32800  35.342  15.294  14.900
66018W        W32801  34.027   2.183  10.495
66019W        W32802  27.459  41.990   1.397
66020W        W32803   7.328   1.525   2.952
66021W        W32804  17.305  13.389   4.064
66022W        W32805   7.970  11.661   1.064
66023W        W32806  18.390   0.750   4.326
66024W        W32807  11.778   5.258  11.605
66025W        W32808  33.871  28.913  13.959
66026W        W32809   9.310   0.013   0.782
66027W        W32810  27.678   7.682   3.549
66028W        W32811  14.580  36.147   1.415
66029W        W32812  38.018  40.579  14.719
66030W        W32813  32.985  23.150  14.980
66031W        W32814  10.698   3.807   1.406
66032W        W32815  20.228  38.760   4.244
66033W        W32816  30.474  37.648  11.569
66034W        W32817   4.196  23.844  14.820
66035W        W32818  21.170   3.764   4.060
66036W        W32819   6.420  40.520   2.283
66037W        W32820  15.377  23.538   2.603
66038W        W32821  41.516  28.047  14.824
66039W        W32822  41.928  36.648  10.968
66040W        W32823  36.523  37.354   4.563
66041W        W32824   6.313   3.364   0.848
66042W        W32825  38.343  20.185  13.745
66043W        W32826  37.308  19.766  11.925
66044W        W32827  10.336  27.216   1.398
66045W        W32828   9.044   5.825  12.485
66046W        W32829   3.811   6.652   1.364
66047W        W32830  42.469  24.996   0.008
66048W        W32831  43.145  22.562  14.532
66049W        W32832  35.468  41.406   1.160
66050W        W32833  39.507  19.219   1.839
66051W        W32834  28.087  18.842  13.564
66052W        W32835  22.753   8.207   0.902
66053W        W32836  44.922  30.045   3.450
66054W        W32837  13.110   1.015   0.220
66055W        W32838  32.137  22.301   3.669
66056W        W32839  41.239  10.781   0.393
66057W        W32840  29.923  16.954  13.148
66058W        W32841  16.741  26.799  14.488
66059W        W32842   1.085  36.539  14.765
66060W        W32843  21.339  38.142   2.679
66061W        W32844  11.162  18.793  14.041
66062W        W32845  15.083  33.559   3.285
66063W        W32846   2.193  31.121   1.297
66064W        W32847  16.225  12.646  14.992
66065W        W32848  17.217   5.815  13.288
66066W        W32849   2.552   7.208   1.727
66067W        W32850   6.019  45.000   2.220
66068W        W32851  40.434  39.333  14.948
66069W        W32852  16.381  21.863   2.816
66070W        W32853   5.130  38.821   2.489
66071W        W32854  25.220  30.385  14.941
66072W        W32855   0.835  27.601   0.007
66073W        W32856  41.680  36.321  14.047
66074W        W32857  24.614  24.366   3.007
66075W        W32858  14.574  19.645  12.852
66076W        W32859  42.984  27.928   2.716
66077W        W32860   3.257  34.555  14.289
66078W        W32861  41.586  23.738   0.416
66079W        W32862  27.075  21.784   1.698
66080W        W32863  29.608  27.546   0.361
66081W        W32864  31.215  29.226   4.532
66082W        W32865  39.373   6.710   2.083
66083W        W32866  14.069  26.516   0.465
66084W        W32867  11.071  37.996   4.445
66085W        W32868  18.411   3.199   4.010
66086W        W32869  22.581   3.021   0.428
66087W        W32870  39.561  41.450  14.404
66088W        W32871  25.524  11.595  12.563
66089W        W32872  27.398  12.315   2.796
66090W        W32873   7.909  12.591   3.175
66091W        W32874  10.588  13.257   3.637
66092W        W32875  30.198  30.985   2.748
66093W        W32876   5.132  35.094  11.147
66094W        W32877   0.737  15.670  11.091
66095W        W32878  27.542  25.504  13.561
66096W        W32879  20.795  27.228  14.422
66097W        W32880  11.721  30.799  14.029
66098W        W32881  44.533  41.569  11.576
66099W        W32882  29.966  31.214   1.421
66100W        W32883  13.813   6.821   3.258
66101W        W32884  40.508  30.919   1.140
66102W        W32885  37.986  19.441  10.642
66103W        W32886   5.569   5.083  11.884
66104W        W32887  14.848  29.898  13.576
66105W        W32888  16.217  38.934  10.902
66106W        W32889  25.051  30.450   0.937
66107W        W32890   6.130  43.380  12.463
66108W        W32891   6.771  36.141  12.432
66109W        W32892   8.121  21.349   1.841
66110W        W32893  36.365  24.610  13.983
66111W        W32894   1.249  28.393  12.519
66112W        W32895  43.410  42.496   3.178
66113W        W32896  39.948   2.435  10.789
66114W        W32897  10.402  27.515   3.703
66115W        W32898  39.093  44.994   3.383
66116W        W32899   6.303  10.362  14.298
66117W        W32900  20.717  32.024  11.565
66118W        W32901  24.206  42.034   3.337
66119W        W32902   8.638  32.631   3.183
66120W        W32903  40.804  19.344   3.559
66121W        W32904  44.939  20.276   3.758
66122W        W32905  37.319   5.399   4.088
66123W        W32906  35.594  25.406  14.949
66124W        W32907   5.370  39.095  12.728
66125W        W32908  41.827  34.937   2.906
66126W        W32909   8.342  13.713  11.964
66127W        W32910  39.023  17.290  12.162
66128W        W32911   0.952  16.133   2.364
66129W        W32912  33.296  40.868   4.923
66130W        W32913  14.365   3.026   4.660
66131W        W32914  35.598  37.956   3.604
66132W        W32915   3.131   9.658  11.081
66133W        W32916  29.231   4.765  12.088
66134W        W32917   2.719   2.557  14.391
66135W        W32918  38.353   0.976   1.796
66136W        W32919  14.807  18.601   0.155
66137W        W32920  28.632  34.354  10.598
66138W        W32921  27.159   1.517   1.820
66139W        W32922  27.557  17.127   3.255
66140W        W32923  10.241  25.063  13.791
66141W        W32924  34.607  38.272  11.104
66142W        W32925  20.822  19.713   1.837
66143W        W32926  24.976  23.958  10.231
66144W        W32927   1.481   9.726   0.904
66145W        W32928  23.507  28.910   4.030
66146W        W32929  25.442  29.202   1.007
66147W        W32930   7.327  25.023  11.566
66148W        W32931  16.264  32.865   0.854
66149W        W32932   5.869  17.563  10.598
66150W        W32933   2.275  37.061   0.330
66151W        W32934   2.103  29.921   2.722
66152W        W32935  35.586  22.694   0.832
66153W        W32936   1.745   7.381  10.900
66154W        W32937  11.551  26.040  11.893
66155W        W32938   9.950  33.557  12.853
66156W        W32939  28.300  34.719  14.582
66157W        W32940   6.464  38.815   4.159
66158W        W32941  20.051   9.289  14.391
66159W        W32942   1.600  13.646  14.365
66160W        W32943  13.118  25.592  12.554
66161W        W32944  30.665  34.509  14.514
66162W        W32945  16.611  40.038   4.129
66163W        W32946  25.302   3.748   3.291
66164W        W32947  11.787  26.709  12.432
66165W        W32948  31.595  28.263   1.936
66166W        W32949   5.715  12.068  11.121
66167W        W32950  14.580  34.931   3.093
66168W        W32951  34.098  17.033  12.082
66169W        W32952   1.421  15.349   2.357
66170W        W32953   8.172  16.102   0.873
66171W        W32954  26.727  23.754  12.418
66172W        W32955  18.793  44.405  14.907
66173W        W32956   0.399  20.436  10.768
66174W        W32957  27.080  18.809   3.097
66175W        W32958  26.171  36.632  13.384
66176W        W32959  22.637  44.771   2.354
66177W        W32960  31.972  42.329   5.051
66178W        W32961   9.003  24.351   2.696
66179W        W32962  39.419   0.391   3.173
66180W        W32963  16.688  36.488   3.619
66181W        W32964  23.227  30.120   2.761
66182W        W32965  41.876  36.552  12.393
66183W        W32966   0.774   0.370   1.408
66184W        W32967  22.692  11.880   2.629
66185W        W32968  12.248  27.627   3.200
66186W        W32969  22.477  13.572   4.168
66187W        W32970  25.481  29.883  10.743
66188W        W32971  23.476  34.286  12.574
66189W        W32972  43.133  21.710   2.298
66190W        W32973  21.828   8.685  11.162
66191W        W32974  33.430  26.713  11.587
66192W        W32975  13.051  13.064  14.893
66193W        W32976  39.453  25.297  13.321
66194W        W32977  36.053  23.540   2.624
66195W        W32978  42.970   5.107  13.147
66196W        W32979  23.260  36.931   3.117
66197W        W32980  20.063  30.666   4.100
66198W        W32981   5.625  27.780  13.998
66199W        W32982  14.971  22.490   4.352
66200W        W32983  15.708   1.716   0.785
66201W        W32984   4.044  15.608   4.271
66202W        W32985  43.392  16.026   4.323
66203W        W32986  24.077  28.007  11.467
66204W        W32987  27.250  31.724  14.558
66205W        W32988  29.898  27.891  14.041
66206W        W32989  29.989  22.998  12.270
66207W        W32990  42.983  16.387  13.050
66208W        W32991  24.162  42.457  10.702
66209W        W32992   0.256  17.204  10.563
66210W        W32993  17.306  28.982  11.689
66211W        W32994  22.517  22.906   3.666
66212W        W32995  22.774  32.645  12.928
66213W        W32996  42.716   2.292   2.575
66214W        W32997  16.316  26.030   4.227
66215W        W32998  32.547  29.578  13.721
66216W        W32999  28.032  17.073  13.012
66217W        W33000  16.388  19.105  12.120
66218W        W33001  23.553  33.916  13.420
66219W        W33002   2.995   5.869  14.845
66220W        W33003   2.400  40.119   1.211
66221W        W33004  13.317  34.978   1.253
66222W        W33005  10.291   0.997  13.099
66223W        W33006  18.498  37.490  13.344
66224W        W33007  28.158   7.478   4.462
66225W        W33008   5.282  42.528  10.853
66226W        W33009  27.185  34.555   2.013
66227W        W33010  24.286  20.790  13.038
66228W        W33011   1.925  22.565   4.258
66229W        W33012  29.034   6.418  11.476
66230W        W33013  37.887  24.506  13.007
66231W        W33014  42.500   4.884  11.020
66232W        W33015  27.652  35.330  12.434
66233W        W33016  13.056   4.506   1.702
66234W        W33017  33.752  36.333   4.978
66235W        W33018  12.731  20.850  13.701
66236W        W33019  26.987  39.198   5.188
66237W        W33020  36.887   1.290   0.901
66238W        W33021  14.890  34.946  12.484
66239W        W33022  27.089  17.110  10.249
66240W        W33023  23.666  14.123   4.210
66241W        W33024   4.719   2.423   0.486
66242W        W33025   7.381  36.329  13.838
66243W        W33026  19.759  33.543   4.579
66244W        W33027  24.928  21.055  13.471
66245W        W33028  28.477  33.507   4.299
66246W        W33029  29.979  21.198   4.956
66247W        W33030  14.395  41.802   4.778
66248W        W33031  13.651  28.061   1.979
66249W        W33032   3.775  42.463  12.805
66250W        W33033  21.139  28.537  11.497
66251W        W33034  24.685   3.911   1.611
66252W        W33035  37.950  35.811  13.162
66253W        W33036  24.203  13.058   2.278
66254W        W33037   4.210  31.966  11.103
66255W        W33038  28.539  13.879  14.345
66256W        W33039  41.466  15.199   3.631
66257W        W33040  27.133  27.689   2.145
66258W        W33041   1.939  11.715   3.533
66259W        W33042  33.918  30.146   1.134
66260W        W33043   3.346  27.627   1.828
66261W        W33044  28.739  40.567   4.142
66262W        W33045  41.996   7.830   3.012
66263W        W33046   8.376  29.030   0.700
66264W        W33047  23.629  36.339   0.796
66265W        W33048  11.400  30.086  11.917
66266W        W33049   0.021  33.094  11.415
66267W        W33050  18.548  40.457   5.170
66268W        W33051  22.230  19.024   4.711
66269W        W33052  20.602  35.701   3.341
66270W        W33053  27.297  15.105   1.438
66271W        W33054  12.946  10.255  14.177
66272W        W33055   2.730   1.970  11.174
66273W        W33056   2.539  40.377   3.301
66274W        W33057  32.246  18.557  14.322
66275W        W33058  21.501  14.414  14.998
66276W        W33059  41.716  20.590  10.528
66277W        W33060  44.473   0.539  14.691
66278W        W33061   9.293  15.755  12.714
66279W        W33062   1.321  15.177  14.565
66280W        W33063  36.742  18.275   3.126
66281W        W33064  24.208  16.680  13.525
66282W        W33065  34.984  21.460  10.745
66283W        W33066  23.977   6.789  14.980
66284W        W33067   7.930  13.600   1.212
66285W        W33068  30.882  27.010  12.837
66286W        W33069  39.119  11.749   2.204
66287W        W33070   1.821   4.733   1.197
66288W        W33071   0.730  29.272   2.661
66289W        W33072   9.583  44.076   0.817
66290W        W33073  27.097  27.643   3.797
66291W        W33074  21.128  38.587   2.559
66292W        W33075  32.429  15.132  14.514
66293W        W33076   5.982  29.013   4.941
66294W        W33077  40.776  30.491  12.408
66295W        W33078  30.379  27.975   4.084
66296W        W33079  14.579   7.847  10.471
66297W        W33080  33.506   9.463   4.337
66298W        W33081  18.540   9.014   3.172
66299W        W33082  36.950   8.908   2.748
66300W        W33083  25.321  22.180  12.183
66301W        W33084  25.959   1.209   0.775
66302W        W33085  33.256   1.717   3.577
66303W        W33086  15.222  28.359   4.876
66304W        W33087   0.132  43.220   2.331
66305W        W33088  16.697  30.110   0.391
66306W        W33089  41.238   2.113  13.780
66307W        W33090  38.451  28.094  11.573
66308W        W33091  38.133   4.262  11.535
66309W        W33092   9.757  32.593   0.225
66310W        W33093  44.284  42.662   1.448
66311W        W33094  43.713   6.409   3.690
66312W        W33095  25.691  26.525   5.106
66313W        W33096   4.531  14.640   1.714
66314W        W33097  18.590  13.778  12.907
66315W        W33098  42.203   7.284   2.824
66316W        W33099  17.994  26.066  14.995
66317W        W33100  31.589  12.630   0.879
66318W        W33101  21.632  18.551   3.714
66319W        W33102  38.922  44.025   3.995
66320W        W33103  17.571  16.287   1.329
66321W        W33104  44.474  27.913   2.819
66322W        W33105   9.252   9.092  12.964
66323W        W33106  25.562  41.849  13.470
66324W        W33107  36.391  16.199   4.864
66325W        W33108  40.279  35.641  13.507
66326W        W33109  19.121   7.457   1.450
66327W        W33110   0.771  39.916  13.570
66328W        W33111  30.583  32.032  12.030
66329W        W33112   5.275  29.321   2.883
66330W        W33113   5.284  18.829  12.966
66331W        W33114   4.423  18.680   3.718
66332W        W33115  35.026   1.987  10.062
66333W        W33116  29.623  19.735   0.771
66334W        W33117  41.019  36.512  13.458
66335W        W33118   7.692   3.974   1.980
66336W        W33119   0.548  18.298  12.075
66337W        W33120   6.745  28.393   1.133
66338W        W33121  35.336   9.742  14.272
66339W        W33122  22.312   5.490  14.077
66340W        W33123  17.851   7.799   1.289
66341W        W33124  28.123  12.739  10.733
66342W        W33125  32.858  28.024  11.034
66343W        W33126  20.066  38.269   2.037
66344W        W33127   9.651  12.816  14.959
66345W        W33128   4.208  17.246   1.422
66346W        W33129  27.018  43.788  14.834
66347W        W33130  28.518  19.594   0.983
66348W        W33131   5.443   3.928   4.188
66349W        W33132  32.195   0.501  11.894
66350W        W33133  26.990  29.693   2.800
66351W        W33134  16.189  43.560  12.466
66352W        W33135  38.526  16.248  10.530
66353W        W33136  35.400  11.591   4.576
66354W        W33137  32.020  16.622  12.402
66355W        W33138   5.964  25.483  10.707
66356W        W33139  33.929   4.845  12.638
66357W        W33140  40.226  43.552   2.232
66358W        W33141  20.723  13.839  10.674
66359W        W33142  28.905  43.383   0.231
66360W        W33143  38.321  30.903   4.600
66361W        W33144  39.763  21.048  14.775
66362W        W33145   3.667  24.567  12.436
66363W        W33146  36.347  31.006  13.941
66364W        W33147   2.229   5.444  14.780
66365W        W33148   9.477  32.130   4.602
66366W        W33149  21.736  42.090  14.365
66367W        W33150   4.287   7.186  13.387
66368W        W33151  37.473  12.339  12.527
66369W        W33152  41.587  33.142  10.730
66370W        W33153  14.253  10.675   4.088
66371W        W33154  23.926  16.231  13.817
66372W        W33155   0.364  18.461  12.857
66373W        W33156  35.351  38.962  14.095
66374W        W33157  42.411  28.052   1.782
66375W        W33158  35.929  17.283   2.004
66376W        W33159   8.095  28.973  11.695
66377W        W33160  38.911  18.367   1.967
66378W        W33161   8.423  42.140   1.383
66379W        W33162  19.081  29.068   0.476
66380W        W33163  11.550  31.007  14.489
66381W        W33164  26.982   8.250   4.699
66382W        W33165  40.355  35.931   2.199
66383W        W33166  39.035   4.399  10.676
66384W        W33167   2.326  29.938  10.811
66385W        W33168  15.203  11.878  12.311
66386W        W33169  24.150  21.312   4.997
66387W        W33170   9.195   8.790  13.369
66388W        W33171  31.349  41.577   0.920
66389W        W33172  37.152  19.995   3.729
66390W        W33173   1.771  12.137   4.212
66391W        W33174  35.440   4.823   2.778
66392W        W33175  34.465  44.405  13.467
66393W        W33176  42.058   6.724  11.626
66394W        W33177   9.231  36.974   0.279
66395W        W33178  43.167   5.609   2.802
66396W        W33179  14.600   0.766  14.351
66397W        W33180   0.384  14.170   1.415
66398W        W33181   4.820  37.587   1.354
66399W        W33182  39.489  32.586   2.837
66400W        W33183  16.811  20.845   3.237
66401W        W33184  10.342  29.212  12.908
66402W        W33185   2.988   7.569  11.587
66403W        W33186  37.514  34.676   2.169
66404W        W33187  36.880  12.102   3.262
66405W        W33188  14.186  31.116  10.936
66406W        W33189  33.147  19.049   9.819
66407W        W33190  33.668   7.980  12.983
66408W        W33191   4.700  27.891  12.074
66409W        W33192  35.032  28.310   4.496
66410W        W33193  29.733  12.214  14.452
66411W        W33194  26.407  34.152   3.810
66412W        W33195   8.674   0.430   1.084
66413W        W33196  40.480  38.768   4.655
66414W        W33197  41.286  10.122  14.838
66415W        W33198  38.480   9.652  12.078
66416W        W33199  16.019  34.607   4.167
66417W        W33200   8.321  35.714   2.390
66418W        W33201  33.391  21.142   0.100
66419W        W33202  26.799  33.085  13.450
66420W        W33203  38.528  19.650   4.127
66421W        W33204  22.107  19.138   1.943
66422W        W33205  34.484  16.121   4.079
66423W        W33206  14.515  19.827   9.918
66424W        W33207  44.972  35.424   1.924
66425W        W33208  11.725   7.916  14.361
66426W        W33209  19.248  43.763  12.920
66427W        W33210  13.495  23.436   4.049
66428W        W33211  14.702  39.050  10.258
66429W        W33212  35.480  16.705  13.620
66430W        W33213  16.641   1.215   3.318
66431W        W33214  43.518   1.855   4.649
66432W        W33215  18.554   6.267   2.211
66433W        W33216  26.084  39.847   3.347
66434W        W33217  19.349  34.640   4.111
66435W        W33218  16.822   6.296  10.547
66436W        W33219  14.395   8.907   9.784
66437W        W33220  10.293  44.682   0.527
66438W        W33221  27.599  42.053  11.556
66439W        W33222  25.624  14.411  10.750
66440W        W33223  41.930  18.223   1.013
66441W        W33224  28.430  18.673   3.668
66442W        W33225  38.059  14.206  11.159
66443W        W33226   8.955  26.333   5.075
66444W        W33227  13.828  22.579   1.268
66445W        W33228  44.815  19.027   1.735
66446W        W33229   6.872  14.375   0.344
66447W        W33230  27.101  15.189   0.594
66448W        W33231  10.094  32.601  13.743
66449W        W33232  27.207   6.511  14.183
66450W        W33233   6.723  18.335  12.870
66451W        W33234  11.601  38.936  12.959
66452W        W33235  20.187  17.335  11.010
66453W        W33236  40.540  29.045  12.363
66454W        W33237  28.455  11.261  11.475
66455W        W33238   7.872  17.176   4.515
66456W        W33239  32.888  42.013   2.320
66457W        W33240  16.330  36.920   0.232
66458W        W33241  42.773  10.431  10.052
66459W        W33242  39.984  43.208   1.225
66460W        W33243  13.090  30.926   2.027
66461W        W33244  27.088  24.574   1.627
66462W        W33245  16.925  20.090   2.837
66463W        W33246  34.089  24.765  11.147
66464W        W33247  11.411  31.581   2.422
66465W        W33248  38.777  17.684  10.983
66466W        W33249  44.497  31.035  12.877
66467W        W33250  44.801   0.154   5.319
66468W        W33251   5.685  33.196  14.398
66469W        W33252  25.630  27.660   3.362
66470W        W33253  15.668  30.584  12.442
66471W        W33254  14.572  42.132  11.625
66472W        W33255  14.633  44.586  14.369
66473W        W33256  36.560  38.080   3.615
66474W        W33257  36.614  36.612   1.426
66475W        W33258  10.239  30.150  14.793
66476W        W33259   4.406  42.423  11.643
66477W        W33260  36.050  42.211   1.754
66478W        W33261   5.366  20.079  12.386
66479W        W33262   8.226   9.857  10.466
66480W        W33263  42.013  20.378   0.282
66481W        W33264  28.886  25.782  13.567
66482W        W33265  27.133  40.891  12.978
66483W        W33266  14.049  40.814  10.737
66484W        W33267  20.650  44.533  12.567
66485W        W33268  35.474  20.245   0.308
66486W        W33269  33.941  27.611  11.522
66487W        W33270  14.699  20.404  11.877
66488W        W33271  33.451  12.988   3.835
66489W        W33272  37.263   1.940  10.769
66490W        W33273   9.408  32.102  13.985
66491W        W33274   4.450   9.376  12.213
66492W        W33275  17.672  26.286   1.331
66493W        W33276  23.535  33.460  10.656
66494W        W33277   8.291  44.786   4.661
66495W        W33278   0.824   4.267   1.856
66496W        W33279  23.969   5.844  10.483
66497W        W33280  22.756  10.497  12.057
66498W        W33281  39.127  32.916  13.951
66499W        W33282  33.405  40.801  13.533
66500W        W33283  11.635   8.481   1.120
66501W        W33284  13.369   4.339  14.041
66502W        W33285  17.622  11.729   2.286
66503W        W33286   8.598   2.884  11.011
66504W        W33287  30.294  32.547  11.216
66505W        W33288   4.352  15.503   1.542
66506W        W33289  12.709  10.429   4.132
66507W        W33290   2.938  24.518  13.801
66508W        W33291   7.681  37.007  14.070
66509W        W33292  11.189  33.814   2.192
66510W        W33293  15.136  35.466  10.663
66511W        W33294  29.352  44.943   0.892
66512W        W33295   9.721  31.381   3.579
66513W        W33296  36.445  39.312   1.601
66514W        W33297  30.699  24.325   1.949
66515W        W33298  37.199  23.795  11.038
66516W        W33299   6.562  33.882   4.154
66517W        W33300  25.849  31.671   3.161
66518W        W33301  15.264  11.073  14.750
66519W        W33302  20.725  20.377  14.315
66520W        W33303  39.406  25.650   1.936
66521W        W33304   5.693  39.804   0.996
66522W        W33305  29.154  42.968  12.504
66523W        W33306   0.142  20.744   4.537
66524W        W33307  42.081  12.348  14.927
66525W        W33308  14.088  22.484  11.054
66526W        W33309  33.399  18.527  11.532
66527W        W33310  38.946  37.729   9.975
66528W        W33311  28.031   8.532   4.757
66529W        W33312   0.428   5.322  10.517
66530W        W33313  11.794  39.323   1.252
66531W        W33314  41.966  20.653  12.529
66532W        W33315   3.679  16.701  14.791
66533W        W33316   4.532  36.138   4.108
66534W        W33317   7.821  38.354  10.814
66535W        W33318  23.507  22.601   1.296
66536W        W33319  16.523  42.834   3.647
66537W        W33320  29.574  25.605  12.850
66538W        W33321   8.825  17.560  13.361
66539W        W33322  21.271  10.304  13.302
66540W        W33323  34.417  21.833  13.370
66541W        W33324  42.341   8.439   2.290
66542W        W33325  36.459   1.206  14.434
66543W        W33326  28.973  36.273   4.983
66544W        W33327  29.956  24.152   2.180
66545W        W33328  33.370  34.935  14.959
66546W        W33329  35.901   3.305  10.396
66547W        W33330  19.497  23.831   4.202
66548W        W33331  27.463  24.529   3.225
66549W        W33332  35.664  29.893   4.190
66550W        W33333  38.893   0.355   1.184
66551W        W33334  19.837  33.449  10.737
66552W        W33335  21.579  10.418   1.467
66553W        W33336   1.856  15.024  12.525
66554W        W33337  41.439  31.142   2.132
66555W        W33338  18.568  28.936  14.754
66556W        W33339  19.139   5.202  12.058
66557W        W33340  37.396  32.098   4.150
66558W        W33341  29.983  22.263  12.848
66559W        W33342   9.229  17.326   0.960
66560W        W33343   0.028  39.422  10.414
66561W        W33344   6.862  41.992   3.284
66562W        W33345   9.588   1.555  14.800
66563W        W33346  35.003   0.401  12.984
66564W        W33347  22.535  30.123  10.714
66565W        W33348  24.538  15.297   2.273
66566W        W33349  10.384  38.904   9.954
66567W        W33350  38.910  25.252  13.501
66568W        W33351  41.566  43.252   0.369
66569W        W33352  17.219  40.273  12.543
66570W        W33353  30.524  19.285  10.735
66571W        W33354   7.695  44.249   3.546
66572W        W33355  27.040  16.269  10.722
66573W        W33356  33.591   6.190  14.088
66574W        W33357  22.838  32.691   2.855
66575W        W33358  29.903  29.071  11.674
66576W        W33359  24.020  23.427   4.308
66577W        W33360  37.613  35.958  10.308
66578W        W33361   8.813  37.417  14.512
66579W        W33362  25.697  20.776  12.073
66580W        W33363  35.009  29.134   1.099
66581W        W33364  20.584  21.702  12.785
66582W        W33365  31.247  18.058   0.724
66583W        W33366  21.417  21.848  13.113
66584W        W33367  43.366  38.444  14.746
66585W        W33368  12.636  36.335   9.906
66586W        W33369  13.174  19.189   1.864
66587W        W33370  22.226  35.000   4.546
66588W        W33371  15.784  13.720  13.978
66589W        W33372  38.391  30.246  11.168
66590W        W33373  17.768  37.864   0.017
66591W        W33374   4.219  21.160   0.966
66592W        W33375  32.941  32.241  13.932
66593W        W33376  19.072  36.481  11.915
66594W        W33377   4.336   2.381   4.390
66595W        W33378  12.439  41.497  12.093
66596W        W33379  21.423  26.371  10.415
66597W        W33380   7.901  11.854   2.809
66598W        W33381  42.112  28.890   0.031
66599W        W33382  33.487  33.043  14.703
66600W        W33383  12.268  11.070   9.750
66601W        W33384  36.550  37.458   0.525
66602W        W33385  20.180  28.190   1.746
66603W        W33386  29.717  22.736   2.212
66604W        W33387  40.822  32.054  13.982
66605W        W33388  34.061  40.398   2.673
66606W        W33389   4.017  20.627   4.149
66607W        W33390   2.894  21.845  11.280
66608W        W33391  24.146  14.830  13.715
66609W        W33392   7.726  10.166   4.609
66610W        W33393  30.096  32.219  13.464
66611W        W33394  19.116   5.719  12.060
66612W        W33395  42.721  44.857   1.390
66613W        W33396  22.385   0.195   0.465
66614W        W33397  43.736   2.910   1.793
66615W        W33398  38.021  19.327  11.137
66616W        W33399  22.748  20.442  11.120
66617W        W33400   9.745  41.083  14.863
66618W        W33401   6.363  40.492   0.473
66619W        W33402  29.141  22.977  13.938
66620W        W33403   5.210  10.181  11.982
66621W        W33404  36.164   3.329   0.287
66622W        W33405  16.310  15.763   2.474
66623W        W33406  15.154  16.384   2.242
66624W        W33407  26.003   0.702   4.061
66625W        W33408  41.773  25.277   4.224
66626W        W33409  38.529   4.385   3.915
66627W        W33410  40.189  26.203  11.593
66628W        W33411  18.801  26.914  11.512
66629W        W33412  37.651   6.341  13.504
66630W        W33413  23.775  37.535  11.313
66631W        W33414   2.774  33.545   1.525
66632W        W33415  29.547  33.795   0.655
66633W        W33416   7.829  33.166  12.914
66634W        W33417   5.277  32.079   3.866
66635W        W33418  19.124  36.063  11.575
66636W        W33419  27.114   5.733  14.390
66637W        W33420   0.116  32.842   0.922
66638W        W33421  36.803   4.803  14.902
66639W        W33422  33.022   0.756   3.190
66640W        W33423  31.893   7.270  13.102
66641W        W33424   9.248  15.155  11.931
66642W        W33425  24.667  30.625  12.789
66643W        W33426   4.590  37.402  11.424
66644W        W33427  38.052  16.615   4.218
66645W        W33428  27.122  29.941   1.368
66646W        W33429  35.092   8.594   0.734
66647W        W33430  24.673  37.411  11.178
66648W        W33431   5.816  21.312   3.714
66649W        W33432  32.500  17.787  11.306
66650W        W33433  21.986   0.380   5.498
66651W        W33434  34.096  25.185   3.249
66652W        W33435  14.810  35.655  14.487
66653W        W33436  34.815   2.421   2.823
66654W        W33437  19.109   8.743   1.970
66655W        W33438   5.322  35.947   3.125
66656W        W33439  41.754   8.783   3.629
66657W        W33440  27.322   5.717  12.586
66658W        W33441  31.689  25.957  14.870
66659W        W33442  35.740  24.523  12.801
66660W        W33443  14.490  12.873  14.948
66661W        W33444  11.775  42.530  13.476
66662W        W33445  18.709  14.327  14.013
66663W        W33446  25.563  41.666   1.343
66664W        W33447  12.739  33.369  11.146
66665W        W33448  39.132  26.581  10.572
66666W        W33449  22.498  41.854   3.274
66667W        W33450  42.445  29.716  12.020
66668W        W33451  23.612   0.441  11.321
66669W        W33452  32.439  44.743   2.269
66670W        W33453  15.269  14.637   4.157
66671W        W33454   8.592  24.163  10.655
66672W        W33455   3.373  43.359   2.871
66673W        W33456   2.076  27.039  13.096
66674W        W33457  35.446  32.688   4.633
66675W        W33458  42.024   4.253  14.417
66676W        W33459  33.002  28.647  13.042
66677W        W33460  32.501  37.299   1.317
66678W        W33461  20.665   2.775  13.101
66679W        W33462  10.841  18.980   0.871
66680W        W33463  14.776  38.339  12.032
66681W        W33464  33.563   8.854  14.401
66682W        W33465  13.238  11.092  13.338
66683W        W33466  41.068  31.586   4.392
66684W        W33467  29.214  13.186  12.230
66685W        W33468  43.069  26.511   1.742
66686W        W33469   5.641   0.872   3.615
66687W        W33470   7.226   9.383   4.283
66688W        W33471  14.562  28.242   0.206
66689W        W33472  11.567  15.631   0.863
66690W        W33473  13.620  39.528   2.224
66691W        W33474  34.814  33.003   3.241
66692W        W33475  21.794   9.103   0.972
66693W        W33476  35.748   9.637   3.799
66694W        W33477   2.086   4.333   2.770
66695W        W33478  17.825  16.821  11.744
66696W        W33479  37.075  22.585   4.027
66697W        W33480  42.855  11.137  11.982
66698W        W33481  37.911  33.877   1.992
66699W        W33482  42.242  34.397   1.039
66700W        W33483  10.380  10.780  13.148
66701W        W33484  40.794  33.031  14.271
66702W        W33485  32.381  31.610   1.790
66703W        W33486   3.427  44.667  10.497
66704W        W33487  23.634  14.762  14.871
66705W        W33488  22.988  41.107   2.647
66706W        W33489  29.391  31.892   2.008
66707W        W33490  23.949  19.961  11.571
66708W        W33491  29.905  38.081   2.887
66709W        W33492  41.238  19.062   1.299
66710W        W33493  16.104  38.401  12.979
66711W        W33494  37.440   6.712  11.366
66712W        W33495  20.369  38.290  14.567
66713W        W33496  39.853   5.372   4.816
66714W        W33497  29.555  12.901  12.851
66715W        W33498  39.996  18.667   4.466
66716W        W33499  16.216   3.536  13.274
66717W        W33500  40.410  23.538   1.459
66718W        W33501  42.220  35.983   4.920
66719W        W33502   7.841  18.578  11.546
66720W        W33503  32.058  27.388   4.504
66721W        W33504  15.165  28.128  12.480
66722W        W33505  19.477   1.697   3.657
66723W        W33506  27.025   7.635  11.930
66724W        W33507   9.766  35.841   4.625
66725W        W33508   1.083  12.379   0.485
66726W        W33509  10.297  18.007  12.103
66727W        W33510   0.753  39.727   2.326
66728W        W33511   0.776   1.564   4.743
66729W        W33512  41.849  37.486   9.960
66730W        W33513  28.936  20.516   2.223
66731W        W33514  40.969  18.805   0.614
66732W        W33515   2.398   2.131  13.025
66733W        W33516   5.382   7.254   3.047
66734W        W33517  22.433   9.892   4.261
66735W        W33518  37.940   9.322  10.661
66736W        W33519  26.865  23.174  14.858
66737W        W33520   4.163  17.496   0.712
66738W        W33521  41.395  35.930  12.852
66739W        W33522  18.036  39.511   3.759
66740W        W33523  38.402   5.664   2.747
66741W        W33524  32.887  32.991  13.510
66742W        W33525  13.776   1.398  10.973
66743W        W33526  24.494   0.381   2.667
66744W        W33527  36.670  11.844   5.007
66745W        W33528  16.349  27.980   4.030
66746W        W33529  24.437  41.657  14.637
66747W        W33530  11.619  18.965  13.873
66748W        W33531  24.519  22.785  10.315
66749W        W33532  36.412   2.898   3.598
66750W        W33533  14.198  27.155   0.125
66751W        W33534  26.524  37.547   4.798
66752W        W33535  41.294  39.479  11.624
66753W        W33536   2.387  18.051   0.804
66754W        W33537  33.542  40.042   0.861
66755W        W33538  44.645  38.826   4.336
66756W        W33539  22.257  30.975   3.045
66757W        W33540   1.557  12.182  14.198
66758W        W33541   7.884  33.732  12.048
66759W        W33542  22.053  18.538   4.629
66760W        W33543   9.314  29.122  10.710
66761W        W33544   2.670   7.800   2.459
66762W        W33545   4.799  37.872   1.787
66763W        W33546  34.186  19.514   3.333
66764W        W33547  29.693  30.683  11.172
66765W        W33548  18.589   6.319   1.222
66766W        W33549  17.056  23.534  11.652
66767W        W33550  29.636   8.066   1.333
66768W        W33551  26.316  27.084   4.465
66769W        W33552  37.438   7.979  11.883
66770W        W33553   0.396  15.980  13.285
66771W        W33554  24.004  15.304  12.395
66772W        W33555  38.109  24.142   4.098
66773W        W33556   9.743  11.603  14.485
66774W        W33557  26.245  17.680  11.191
66775W        W33558  39.418  15.714   3.369
66776W        W33559  39.485  13.502  12.015
66777W        W33560  22.956  42.515  14.411
66778W        W33561  30.164  15.020  14.562
66779W        W33562  22.307  44.834  11.638
66780W        W33563  12.268   3.317   3.110
66781W        W33564   7.374  23.591   1.160
66782W        W33565  12.764  40.253   4.991
66783W        W33566  12.898  34.596   1.702
66784W        W33567  14.201   5.322   2.212
66785W        W33568  24.472  11.269   0.756
66786W        W33569  17.220  30.032   2.233
66787W        W33570  13.729  37.327  12.037
66788W        W33571  37.224  43.014  14.329
66789W        W33572  33.431  20.609   1.162
66790W        W33573  25.749  29.164   2.833
66791W        W33574   3.748   2.042  14.751
66792W        W33575  10.406   6.739   1.696
66793W        W33576  44.980  39.404  14.281
66794W        W33577   8.455  19.021   3.238
66795W        W33578  42.883   6.329   1.696
66796W        W33579  29.804   5.721   2.487
66797W        W33580  19.588   2.844   2.730
66798W        W33581  13.756  27.103   0.408
66799W        W33582  40.460   2.806   1.682
66800W        W33583  37.533  20.734  10.769
66801W        W33584  22.653  17.049  14.856
66802W        W33585  16.342   9.141  10.755
66803W        W33586  43.992  19.298  12.493
66804W        W33587  35.948  19.722  14.923
66805W        W33588  25.169   2.531   1.402
66806W        W33589  35.108  16.992   4.231
66807W        W33590  34.700  36.135  11.124
66808W        W33591  43.945   4.420  11.504
66809W        W33592  14.003  21.170  10.646
66810W        W33593  10.407  42.256   3.912
66811W        W33594   9.763  24.517  11.518
66812W        W33595  31.674  44.019   2.737
66813W        W33596  14.970  21.960  11.209
66814W        W33597  35.641  37.059  14.220
66815W        W33598  14.944  29.896  11.773
66816W        W33599   0.391  34.979  13.888
66817W        W33600  41.465  37.103   3.606
66818W        W33601  18.589  31.931  12.429
66819W        W33602   4.630  33.057  12.900
66820W        W33603   6.360   0.449  12.159
66821W        W33604  33.408  22.005   1.697
66822W        W33605  15.069  41.810   2.468
66823W        W33606  25.713  26.527   2.729
66824W        W33607  30.442   6.432  11.970
66825W        W33608  41.083  32.126  11.547
66826W        W33609   6.760   5.244  12.050
66827W        W33610   7.497   7.892   2.009
66828W        W33611  26.743  39.735   4.127
66829W        W33612  38.928  33.016  13.093
66830W        W33613   7.395  18.253  11.495
66831W        W33614  35.794  24.644  13.316
66832W        W33615  11.776  35.568   1.679
66833W        W33616  14.565  36.123   0.405
66834W        W33617   6.094  14.254  12.914
66835W        W33618  17.598   5.817   0.215
66836W        W33619  19.436  10.951  10.966
66837W        W33620  24.207  32.020  12.881
66838W        W33621  16.788  34.635   4.812
66839W        W33622  42.999  24.073   2.765
66840W        W33623  20.266  14.183  10.695
66841W        W33624  30.046  17.198   4.114
66842W        W33625  37.077   8.400  12.611
66843W        W33626  12.274  11.055   3.127
66844W        W33627   7.574   8.818  12.305
66845W        W33628   9.405  36.924  14.728
66846W        W33629   8.305   6.875  14.525
66847W        W33630  34.037  22.542  14.414
66848W        W33631  16.514  41.590   4.173
66849W        W33632   0.338  40.939  11.704
66850W        W33633  24.324  30.988   2.425
66851W        W33634  24.655  41.292   3.365
66852W        W33635  33.187  39.598  14.412
66853W        W33636  36.499  23.815   3.597
66854W        W33637  35.098  41.955  13.430
66855W        W33638  43.018  17.788   3.270
66856W        W33639  33.548  41.032   1.645
66857W        W33640   4.429   4.553  13.760
66858W        W33641  21.071  17.679   2.756
66859W        W33642   8.162  16.574  13.881
66860W        W33643   3.386   3.731   2.810
66861W        W33644   0.530  40.881  14.192
66862W        W33645  43.241   3.117   1.792
66863W        W33646  12.558  21.652  12.400
66864W        W33647  32.465   9.660   4.334
66865W        W33648   3.589  30.127  10.909
66866W        W33649  40.591  33.663   0.694
66867W        W33650  12.781  20.191   2.385
66868W        W33651  10.750  41.583   2.735
66869W        W33652  37.723  42.422   3.986
66870W        W33653  21.125  26.903   4.336
66871W        W33654  22.666  15.392  10.980
66872W        W33655   8.755  26.054  13.023
66873W        W33656  17.051  39.545   4.537
66874W        W33657  28.108  10.200   0.445
66875W        W33658  43.902  32.655  13.054
66876W        W33659   4.616  30.907  10.726
66877W        W33660  34.585  32.915   2.702
66878W        W33661  44.657  37.426   4.099
66879W        W33662  23.847  41.766  11.269
66880W        W33663  13.051  18.479   4.095
66881W        W33664  36.802  16.982   0.920
66882W        W33665  39.635  12.648   3.748
66883W        W33666  36.847  20.640   2.597
66884W        W33667  40.385  15.251   0.939
66885W        W33668  25.496  25.628   0.268
66886W        W33669   3.160  19.971   1.345
66887W        W33670  43.451  22.213   3.618
66888W        W33671  15.418  33.652  13.842
66889W        W33672  17.246   9.180  14.916
66890W        W33673  35.577  31.891   0.881
66891W        W33674  37.083   5.925   4.195
66892W        W33675  10.269  40.248  10.690
66893W        W33676  24.111  30.066  10.359
66894W        W33677  14.841  25.919   1.285
66895W        W33678  11.885  34.072  14.841
66896W        W33679  43.378  22.821   0.929
66897W        W33680  26.240  36.000  13.088
66898W        W33681   5.401  34.510  14.235
66899W        W33682  23.943  14.392  11.183
66900W        W33683  41.549   6.655  11.588
66901W        W33684  36.546   1.386  12.997
66902W        W33685  25.206  19.130  14.744
66903W        W33686  14.042  21.635   3.986
66904W        W33687  36.391  44.434  14.525
66905W        W33688   4.246  14.653   3.097
66906W        W33689   1.705   2.098  13.544
66907W        W33690  23.039  34.429   3.582
66908W        W33691   0.854  29.940  10.592
66909W        W33692   6.440  26.634   4.084
66910W        W33693   2.429  38.307  14.776
66911W        W33694   7.661  38.278   2.853
66912W        W33695   3.948   5.854   2.210
66913W        W33696  23.602   9.184  10.726
66914W        W33697  32.459  25.628  12.500
66915W        W33698  30.777  19.287  13.001
66916W        W33699  34.093   5.793  12.534
66917W        W33700   7.994  23.554  10.791
66918W        W33701  27.668  35.840   0.311
66919W        W33702  16.676  27.213  12.104
66920W        W33703  12.728  26.212   1.460
66921W        W33704   5.878  33.518  11.096
66922W        W33705  20.838  20.053   4.254
66923W        W33706   7.282  20.015   2.436
66924W        W33707   5.139  25.572  14.508
66925W        W33708  35.440  13.070   2.244
66926W        W33709  18.306   8.483   0.905
66927W        W33710  22.129   9.868  12.392
66928W        W33711  20.390  27.479   2.081
66929W        W33712  27.777  21.787   0.359
66930W        W33713  33.574  34.951   5.266
66931W        W33714  29.202  30.126   0.489
66932W        W33715   7.985  21.419   0.034
66933W        W33716  13.713  18.102  11.099
66934W        W33717   4.648   5.124  14.401
66935W        W33718   7.964   0.934   4.152
66936W        W33719  15.152  13.535  11.481
66937W        W33720  37.546  32.348   3.651
66938W        W33721  17.701   7.715   3.553
66939W        W33722  18.815  26.394  11.637
66940W        W33723  13.746   4.467  12.318
66941W        W33724  30.664  11.920  12.503
66942W        W33725  10.327  40.424  12.779
66943W        W33726  34.041  26.519   4.539
66944W        W33727  24.019  13.218  10.634
66945W        W33728  26.539   9.755  12.179
66946W        W33729  26.390  34.577  12.967
66947W        W33730  34.504  25.213   1.409
66948W        W33731  14.855  36.761  12.572
66949W        W33732  30.857  15.174  13.580
66950W        W33733  14.378  15.749  14.265
66951W        W33734  12.575  38.820   2.219
66952W        W33735  12.083  22.438   4.536
66953W        W33736  39.380  34.187  14.071
66954W        W33737  43.505  36.307   1.841
66955W        W33738  14.293  44.928   4.870
66956W        W33739  33.534  11.646   1.491
66957W        W33740  39.532  19.698   1.093
66958W        W33741  10.429  23.835  11.576
66959W        W33742   5.404  17.472   4.704
66960W        W33743  36.837  43.450   3.651
66961W        W33744  32.488  20.759  13.388
66962W        W33745  15.636  11.418   4.335
66963W        W33746  21.696   1.611   3.786
66964W        W33747  20.414   3.959  12.458
66965W        W33748   4.967   0.581   9.975
66966W        W33749  40.089  38.297   4.360
66967W        W33750  23.250  44.853  10.154
66968W        W33751   0.985   1.873   4.051
66969W        W33752  41.395  17.096   2.784
66970W        W33753  37.493  36.369  13.402
66971W        W33754  13.799  39.903   3.486
66972W        W33755   8.691   9.139  12.293
66973W        W33756   2.505  17.118   4.591
66974W        W33757  14.575   5.902   2.691
66975W        W33758  36.631  27.856   2.282
66976W        W33759  19.548  12.089   3.050
66977W        W33760  16.635   7.653   0.047
66978W        W33761  35.436   3.204   0.321
66979W        W33762  12.177  21.683   0.907
66980W        W33763  24.066   1.291  13.971
66981W        W33764   8.904  28.152  13.900
66982W        W33765   2.915  15.849   1.505
66983W        W33766  38.083  42.914   2.137
66984W        W33767  28.814  22.400  13.378
66985W        W33768   4.232   1.819  14.830
66986W        W33769  20.168  39.098   0.443
66987W        W33770  22.718  28.013   1.187
66988W        W33771  21.923   9.273   4.892
66989W        W33772   8.279  18.814  10.552
66990W        W33773  28.185  37.913   1.853
66991W        W33774  13.006   6.317  11.486
66992W        W33775  25.180  29.630  13.444
66993W        W33776  27.749  41.517  14.867
66994W        W33777  40.378  12.003   2.775
66995W        W33778  37.893  20.405   2.333
66996W        W33779  39.408   3.398  12.008
66997W        W33780  33.673  21.367  12.026
66998W        W33781  40.809  20.998  11.998
66999W        W33782  32.987  10.359   2.305
67000W        W33783  35.548  20.554  12.383
67001W        W33784  38.904  38.187   4.714
67002W        W33785   4.600   5.767   1.529
67003W        W33786  28.214  21.070  11.055
67004W        W33787   2.867  26.046  11.885
67005W        W33788   1.751  12.162  11.624
67006W        W33789  35.395  24.651  13.656
67007W        W33790   8.647  15.177  14.084
67008W        W33791   9.635  38.545  13.849
67009W        W33792  43.525  40.666  11.131
67010W        W33793  28.772  19.845  13.976
67011W        W33794  17.045  22.552   4.071
67012W        W33795  36.817  43.447  13.581
67013W        W33796   7.390   0.237   2.824
67014W        W33797  44.258  17.495   0.950
67015W        W33798  44.266   9.184   0.877
67016W        W33799   6.260  42.161  11.490
67017W        W33800  17.017   3.826   1.260
67018W        W33801  40.061  14.878   3.713
67019W        W33802  17.319  42.926   4.272
67020W        W33803  17.195  29.918  12.440
67021W        W33804  16.766   6.823   2.390
67022W        W33805  32.111  37.284  13.834
67023W        W33806  14.643  27.908  13.460
67024W        W33807  42.761  36.317   2.381
67025W        W33808  37.442  33.804   1.345
67026W        W33809  32.119  10.166   4.997
67027W        W33810  29.507  17.991   5.051
67028W        W33811  39.624  44.900   3.411
67029W        W33812  24.982  42.426  12.449
67030W        W33813  15.169   3.790   3.398
67031W        W33814  39.365  28.502  15.000
67032W        W33815  41.074  40.943   2.288
67033W        W33816  22.524   6.178   2.646
67034W        W33817  10.881  41.136   2.425
67035W        W33818  41.274  40.029   0.424
67036W        W33819  32.970  26.700   3.695
67037W        W33820  11.045  20.166  14.321
67038W        W33821   0.037  14.562  10.287
67039W        W33822   3.490  39.901  10.693
67040W        W33823  44.989  33.123   1.820
67041W        W33824  42.086  32.058   3.729
67042W        W33825  38.291  41.469  14.821
67043W        W33826  18.037  29.165   2.800
67044W        W33827  23.242  21.526  12.010
67045W        W33828  19.510  36.500  10.782
67046W        W33829  28.459  24.511  12.132
67047W        W33830  37.053  17.188   1.421
67048W        W33831   9.473   1.816  11.109
67049W        W33832  18.041  28.516   1.876
67050W        W33833   4.798  27.431  12.797
67051W        W33834  10.758  22.208  13.321
67052W        W33835  32.657  42.608   4.319
67053W        W33836   1.828   3.107  12.920
67054W        W33837  38.023   6.714   3.231
67055W        W33838  13.529  25.671  13.831
67056W        W33839   3.623  14.035  11.010
67057W        W33840   7.645   2.992  10.632
67058W        W33841   8.279  25.673  11.073
67059W        W33842  26.934  31.133   0.156
67060W        W33843  42.514  10.182  10.683
67061W        W33844  22.602  25.978   3.568
67062W        W33845  22.154  11.140   4.642
67063W        W33846  40.057   5.115   1.335
67064W        W33847  36.103   0.547  14.798
67065W        W33848   0.271   6.257   4.626
67066W        W33849  11.698  12.840  14.557
67067W        W33850  11.676   2.719   0.249
67068W        W33851  42.448  36.065   0.091
67069W        W33852   0.694  21.492  11.601
67070W        W33853  15.863  39.143  13.890
67071W        W33854  38.311  43.314   1.911
67072W        W33855   9.740   2.914  14.818
67073W        W33856  10.276  12.363   4.120
67074W        W33857  33.514  29.365   2.543
67075W        W33858  39.466  41.385   4.770
67076W        W33859  34.333   5.452  11.852
67077W        W33860  13.540  40.771  11.680
67078W        W33861  40.520  15.148  12.929
67079W        W33862  27.640  26.581  14.416
67080W        W33863  35.442   4.837  13.955
67081W        W33864   6.467   0.990   2.282
67082W        W33865   8.703  27.415  12.189
67083W        W33866   8.802  40.252   4.662
67084W        W33867  43.351  39.727  14.016
67085W        W33868  32.971  16.601  11.449
67086W        W33869  32.871  38.559   0.977
67087W        W33870  18.152  15.330  12.940
67088W        W33871  27.340   1.950   4.086
67089W        W33872   7.564  12.188  14.355
67090W        W33873  36.000  43.936   4.182
67091W        W33874  35.439  42.493  11.836
67092W        W33875  21.111  12.679   1.822
67093W        W33876   6.348  24.200   4.368
67094W        W33877  15.236  19.602  14.950
67095W        W33878  19.855  36.343  11.183
67096W        W33879  42.307  33.684  14.358
67097W        W33880   5.770  19.263  11.538
67098W        W33881   2.488  42.856   1.840
67099W        W33882  38.652   5.526   0.529
67100W        W33883  16.649  24.155  13.194
67101W        W33884   5.663  26.643  12.084
67102W        W33885  42.414  21.661   0.278
67103W        W33886  34.907  27.500  11.193
67104W        W33887  43.458   7.732   3.981
67105W        W33888  21.381  28.605   4.615
67106W        W33889   0.893  29.102  11.197
67107W        W33890  36.501  19.177   2.247
67108W        W33891  42.866  22.190  14.322
67109W        W33892  19.069  29.688  12.595
67110W        W33893   5.636  36.429   0.819
67111W        W33894   3.674  31.962  14.983
67112W        W33895  18.086  41.375  13.926
67113W        W33896   1.440  28.518  13.890
67114W        W33897  28.002  14.824  12.549
67115W        W33898  30.718  44.682   2.857
67116W        W33899  37.896   3.717  10.743
67117W        W33900  40.354  22.565  14.020
67118W        W33901   3.604  44.319  12.180
67119W        W33902  39.510  19.586   3.066
67120W        W33903  41.778  17.262   1.360
67121W        W33904  40.184  26.042   2.816
67122W        W33905  44.571  32.796  14.693
67123W        W33906  32.919   0.253   3.222
67124W        W33907   3.399   7.877   0.281
67125W        W33908  20.007   4.821   2.760
67126W        W33909  41.575  34.570   2.300
67127W        W33910   4.699   6.375  12.230
67128W        W33911  15.869  30.144  14.795
67129W        W33912  43.821  27.679   0.457
67130W        W33913  19.313  41.591   2.837
67131W        W33914  40.556  39.347   4.700
67132W        W33915  23.621  20.627  11.222
67133W        W33916  16.082  30.714  12.694
67134W        W33917  43.120   3.744   4.700
67135W        W33918   5.338  44.782   3.205
67136W        W33919  42.500   2.681   3.246
67137W        W33920   6.185   3.828   0.622
67138W        W33921  21.240  17.812   3.252
67139W        W33922  27.793  27.914  10.602
67140W        W33923  33.316  17.818  14.976
67141W        W33924  14.601  13.817   4.445
67142W        W33925  15.395   8.153   2.302
67143W        W33926  12.764  16.825  12.150
67144W        W33927  39.148   9.768  12.582
67145W        W33928  42.253  35.456   0.458
67146W        W33929  20.443  38.833   2.172
67147W        W33930  18.621  44.542  14.002
67148W        W33931  13.755  43.115   0.060
67149W        W33932  35.627  28.886   4.073
67150W        W33933  42.082  34.175  13.993
67151W        W33934   7.924   2.361  14.961
67152W        W33935   3.914  10.311  13.041
67153W        W33936  38.063  29.937  14.547
67154W        W33937  38.490  21.132   4.610
67155W        W33938  24.539   6.738  13.920
67156W        W33939  11.230  10.244  13.610
67157W        W33940   1.615  15.221   1.885
67158W        W33941  10.266  14.093   5.163
67159W        W33942  23.544  21.092  11.009
67160W        W33943  39.515  18.102  12.112
67161W        W33944  24.592   1.280  11.559
67162W        W33945  11.156  20.033   1.664
67163W        W33946  39.111  12.400  11.070
67164W        W33947  35.434  44.366  14.595
67165W        W33948   5.744  18.515   2.951
67166W        W33949  16.089  11.363   2.245
67167W        W33950   7.156  24.782  13.769
67168W        W33951  42.535  27.504  12.448
67169W        W33952   3.410  17.603  10.753
67170W        W33953  14.757  24.495  14.210
67171W        W33954   4.351  16.857   3.433
67172W        W33955   8.900   6.218   3.930
67173W        W33956  20.366  42.563  12.519
67174W        W33957  20.199  37.439  13.941
67175W        W33958  29.494  41.375  14.695
67176W        W33959  35.311  41.887   3.854
67177W        W33960  12.348   3.824   3.657
67178W        W33961  34.330  41.550  14.630
67179W        W33962  40.677  36.258  14.034
67180W        W33963   5.993  14.137   1.606
67181W        W33964  29.438   0.940  11.998
67182W        W33965  42.304  39.360   4.189
67183W        W33966  43.414   2.735   3.698
67184W        W33967  44.452   5.345  10.363
67185W        W33968  41.814  23.661  14.956
67186W        W33969  10.317  36.543   0.921
67187W        W33970  23.607   2.956   1.104
67188W        W33971  36.573  28.307  10.442
67189W        W33972   8.786   6.281  12.634
67190W        W33973  17.771  29.839  12.954
67191W        W33974  33.306   2.901   3.274
67192W        W33975  14.667  41.539   3.719
67193W        W33976  15.196  32.801  12.945
67194W        W33977  10.819   6.202   1.861
67195W        W33978  42.035  25.392   2.841
67196W        W33979  12.734  40.297  13.121
67197W        W33980  42.273  27.590  11.957
67198W        W33981  35.828  37.247   1.057
67199W        W33982  19.351  32.223   4.129
67200W        W33983  14.062   3.226   3.220
67201W        W33984  20.052  29.167   2.711
67202W        W33985   6.403  37.430  11.845
67203W        W33986  15.422  28.087   0.507
67204W        W33987  38.343  40.210   4.619
67205W        W33988  13.579  23.741   3.243
67206W        W33989  41.064  21.424  12.108
67207W        W33990  38.125  11.333   2.599
67208W        W33991   7.333  41.304   2.934
67209W        W33992   0.517  22.014   2.793
67210W        W33993   1.995  37.949   2.069
67211W        W33994  23.206  21.228  13.916
67212W        W33995  27.981  40.815  12.510
67213W        W33996   1.969  18.622   4.536
67214W        W33997  27.599  27.316  11.903
67215W        W33998   6.373  14.709  12.028
67216W        W33999  28.009  28.561  11.613
67217W        W34000  22.184   5.448  11.231
67218W        W34001  10.635   0.784   2.089
67219W        W34002  37.844  28.661  14.979
67220W        W34003  21.621  31.103   0.657
67221W        W34004  15.669  34.460   1.306
67222W        W34005   0.014   9.411   1.691
67223W        W34006  34.930   7.120   0.771
67224W        W34007  43.447  41.987   2.884
67225W        W34008  20.254  11.279  14.964
67226W        W34009  38.443  21.349  11.964
67227W        W34010  41.798  11.352  14.857
67228W        W34011  27.565  38.136  13.793
67229W        W34012  43.001  23.276  10.708
67230W        W34013   9.815  39.733  14.338
67231W        W34014  32.531  11.252   2.407
67232W        W34015  32.849  13.543   2.839
67233W        W34016  23.911  41.763  12.050
67234W        W34017  11.317   0.134  11.229
67235W        W34018   7.846   2.780  13.377
67236W        W34019  13.869   5.208   1.263
67237W        W34020  24.571   9.657   1.204
67238W        W34021  15.978  31.885  14.889
67239W        W34022  12.636  27.986   1.116
67240W        W34023   2.785  10.731   4.744
67241W        W34024   2.340  23.705  11.842
67242W        W34025  22.228  40.584   1.497
67243W        W34026   2.231  39.650   2.253
67244W        W34027  38.241  43.829  14.370
67245W        W34028  36.534  18.739   2.861
67246W        W34029  26.345   4.902   5.028
67247W        W34030  15.712  12.380   3.656
67248W        W34031  37.484  43.969  11.648
67249W        W34032  34.463  37.887  12.967
67250W        W34033  15.820  33.524   3.758
67251W        W34034  29.136  31.581   3.314
67252W        W34035  44.248  39.877   3.745
67253W        W34036  25.462  41.508   1.827
67254W        W34037   7.948   1.072  11.620
67255W        W34038   0.458  38.851  13.931
67256W        W34039   3.245  23.630  11.158
67257W        W34040  21.161  21.579   1.835
67258W        W34041   4.174  28.938  13.876
67259W        W34042   8.749  22.091  11.218
67260W        W34043   0.193   8.790  11.531
67261W        W34044  12.866   2.591  13.285
67262W        W34045  24.644  25.816  12.644
67263W        W34046  42.496  19.807   4.111
67264W        W34047   5.201  38.508  11.649
67265W        W34048  23.507  27.014   0.606
67266W        W34049  15.917  11.102  12.441
67267W        W34050  21.811  33.525   0.839
67268W        W34051   2.467  14.782   4.811
67269W        W34052  21.010   4.057  11.654
67270W        W34053  15.691   1.327   0.405
67271W        W34054  11.115  10.894  13.674
67272W        W34055   8.988  27.040  12.437
67273W        W34056  11.089   9.491   1.776
67274W        W34057  34.961   7.387  11.665
67275W        W34058  40.897   9.565   0.354
67276W        W34059  16.579  16.162  14.047
67277W        W34060  34.710  33.484   3.078
67278W        W34061  29.004  23.576  11.678
67279W        W34062   3.316   2.844  13.660
67280W        W34063  39.297   5.694   1.912
67281W        W34064  31.872  10.267   0.174
67282W        W34065   8.828  36.368   2.859
67283W        W34066   5.254  23.351  10.897
67284W        W34067  19.519  15.839   2.710
67285W        W34068   9.085  34.444   3.103
67286W        W34069  44.059  22.324  12.419
67287W        W34070  29.022  27.543  13.038
67288W        W34071  16.015  44.796   0.131
67289W        W34072  31.699   4.303   0.580
67290W        W34073  43.760  43.488  14.936
67291W        W34074   7.798   9.597   0.022
67292W        W34075  17.018   7.319   2.303
67293W        W34076   0.047  13.365  11.406
67294W        W34077   5.835  42.944  10.939
67295W        W34078  12.567  24.711  11.111
67296W        W34079  18.257  21.860  14.826
67297W        W34080  28.447  42.454   3.672
67298W        W34081  29.440  42.253   3.700
67299W        W34082  25.028  19.498  12.921
67300W        W34083   7.742  36.374   4.246
67301W        W34084  20.174  26.910   2.727
67302W        W34085  44.822  11.562  11.420
67303W        W34086   4.250  10.117   3.383
67304W        W34087  30.983   3.168  13.831
67305W        W34088  14.818  35.709   0.497
67306W        W34089  25.177   9.772   4.545
67307W        W34090  44.662  22.271  11.657
67308W        W34091  39.151  42.585  12.948
67309W        W34092  31.677  36.154  11.222
67310W        W34093  10.741  28.960  14.547
67311W        W34094   0.350   5.364   4.094
67312W        W34095   4.919  30.532   2.803
67313W        W34096  44.581  38.424  13.393
67314W        W34097  39.386   0.324   2.616
67315W        W34098   8.259  19.487   3.285
67316W        W34099   8.110   1.479  12.930
67317W        W34100  11.223  26.890  10.040
67318W        W34101  25.540  42.425   0.606
67319W        W34102  11.082  26.549   3.262
67320W        W34103  42.348  16.703   2.674
67321W        W34104  11.145  28.466  13.410
67322W        W34105  30.656  10.234   4.590
67323W        W34106  19.263  10.445   0.901
67324W        W34107  16.664  41.020  10.987
67325W        W34108  23.722  43.583   4.517
67326W        W34109  32.322  23.110   4.523
67327W        W34110  44.025  17.641   2.343
67328W        W34111  17.637  36.947   1.162
67329W        W34112   6.933   8.234   0.571
67330W        W34113  13.383  33.072  13.887
67331W        W34114  41.095  42.412  10.623
67332W        W34115   1.444   1.493   0.877
67333W        W34116  29.486  37.955   4.718
67334W        W34117   6.689   2.434  12.541
67335W        W34118  16.289  31.750  14.487
67336W        W34119   1.228  20.510   1.914
67337W        W34120  16.538  30.448   0.829
67338W        W34121   3.227   6.637  14.439
67339W        W34122   3.374  28.042  12.168
67340W        W34123  18.640   6.832  13.770
67341W        W34124  25.895   1.270  11.040
67342W        W34125  38.007   1.752   0.479
67343W        W34126  29.064   4.716  10.724
67344W        W34127  17.041   8.945   0.351
67345W        W34128   7.391  43.992   3.170
67346W        W34129  30.465  31.714   0.750
67347W        W34130   5.357  42.192  14.786
67348W        W34131  12.132  31.989   4.849
67349W        W34132   1.440   8.817   3.801
67350W        W34133  16.207  29.651   3.508
67351W        W34134   8.138  24.581  13.764
67352W        W34135  44.431   8.351  12.614
67353W        W34136   2.455  24.736  13.007
67354W        W34137  31.907  28.558   3.165
67355W        W34138   6.577  11.870  11.108
67356W        W34139  12.125  30.223  12.471
67357W        W34140  33.048   2.745   4.244
67358W        W34141  39.986   9.858   2.462
67359W        W34142  39.567  44.391   3.632
67360W        W34143  14.672  13.810   0.406
67361W        W34144   8.080  28.659   3.640
67362W        W34145  28.569  43.281  11.127
67363W        W34146  30.978  22.497  14.384
67364W        W34147  10.069  43.207  11.674
67365W        W34148  26.443  20.664   0.454
67366W        W34149  24.940  22.722   4.307
67367W        W34150  16.673  40.540  11.909
67368W        W34151  15.732   9.561  13.313
67369W        W34152  42.556  26.726   0.494
67370W        W34153  29.251  39.567  14.353
67371W        W34154  37.744  15.662   1.615
67372W        W34155  15.501   7.170   2.274
67373W        W34156   2.668  22.859  12.433
67374W        W34157  19.649   6.205  12.860
67375W        W34158  20.808  21.549   3.228
67376W        W34159  23.449  30.078  13.499
67377W        W34160  40.428  26.993   3.563
67378W        W34161  22.276  38.892   3.118
67379W        W34162  26.503  31.357  14.957
67380W        W34163  27.995  41.703   2.195
67381W        W34164  27.752  31.515  14.406
67382W        W34165  13.261  40.367   4.172
67383W        W34166  17.503  21.491   2.614
67384W        W34167  41.507  13.196  14.913
67385W        W34168  33.180  14.677   1.439
67386W        W34169  11.634  25.345  12.794
67387W        W34170  37.790  38.086   2.340
67388W        W34171  39.515   2.377   0.563
67389W        W34172  33.141  41.432  12.035
67390W        W34173  38.762  28.080  12.886
67391W        W34174  44.862  12.680   3.624
67392W        W34175  39.722  29.923   3.265
67393W        W34176  33.079  13.308  14.525
67394W        W34177  24.173  35.416   2.139
67395W        W34178  39.510  12.730  11.613
67396W        W34179  39.957  31.385   1.237
67397W        W34180  25.038  24.494   3.267
67398W        W34181  38.995   8.902  11.852
67399W        W34182  16.609  36.758   0.657
67400W        W34183  19.865  38.446   4.073
67401W        W34184  31.568  31.630   2.307
67402W        W34185  13.083   7.942  13.323
67403W        W34186   8.307  12.681   3.608
67404W        W34187  23.853  14.915  11.084
67405W        W34188  13.645  26.141   0.631
67406W        W34189  42.603  25.022   5.164
67407W        W34190   0.149   9.411   2.587
67408W        W34191  38.888  34.436  14.015
67409W        W34192  36.486  35.794   1.833
67410W        W34193  37.029  28.636   4.343
67411W        W34194  27.532   3.708  13.504
67412W        W34195   6.973   6.732  14.846
67413W        W34196  19.280  11.856   3.452
67414W        W34197  24.902  35.498  14.776
67415W        W34198  42.499   4.193   3.903
67416W        W34199   8.012   1.795  13.559
67417W        W34200  15.843  35.976  10.677
67418W        W34201  31.208  27.515   4.497
67419W        W34202  20.670  34.628  12.946
67420W        W34203  32.831  43.346  13.019
67421W        W34204  34.957  13.946  14.054
67422W        W34205  39.935  31.731  14.944
67423W        W34206  33.700  18.048   0.803
67424W        W34207  11.742   9.666   0.188
67425W        W34208   6.492  19.794   2.082
67426W        W34209  17.603   8.068   2.365
67427W        W34210  34.929  22.777   2.319
67428W        W34211  36.915   8.731  11.993
67429W        W34212   7.667   6.930   0.408
67430W        W34213  31.594  43.676   4.795
67431W        W34214  36.831  13.356  11.143
67432W        W34215  25.903  23.689   2.838
67433W        W34216  36.368  36.283   5.004
67434W        W34217  42.539  32.911   2.973
67435W        W34218   6.614  12.123   1.457
67436W        W34219  14.643  12.270  12.409
67437W        W34220  17.379   9.758  11.227
67438W        W34221  44.348  34.197   4.817
67439W        W34222   4.346  27.440  11.004
67440W        W34223   7.384  37.500   2.654
67441W        W34224  32.166   3.485   0.931
67442W        W34225  41.008  39.067   0.689
67443W        W34226   7.876  31.414   0.819
67444W        W34227  24.672   3.690   0.269
67445W        W34228  24.224   8.352  14.749
67446W        W34229  14.516   6.762   2.601
67447W        W34230  28.089  27.861  12.121
67448W        W34231  27.131   8.769   0.990
67449W        W34232  37.556  43.464  12.501
67450W        W34233   4.950  30.122  12.563
67451W        W34234  11.767  18.407  13.855
67452W        W34235  16.674  11.641  12.241
67453W        W34236  37.327  43.423   1.779
67454W        W34237  32.936   3.032  11.544
67455W        W34238  39.094  39.361  12.006
67456W        W34239  25.836  23.379   4.139
67457W        W34240  15.916  16.729   0.435
67458W        W34241  37.060  35.308   3.221
67459W        W34242  20.945  34.530  10.818
67460W        W34243  32.912   4.401   3.223
67461W        W34244  40.394   7.694   4.663
67462W        W34245  11.127  33.614  14.972
67463W        W34246   6.625  12.730   4.119
67464W        W34247  24.071   6.335  10.608
67465W        W34248  15.126   9.802   4.558
67466W        W34249   4.198  20.227   0.500
67467W        W34250  26.671  27.480  14.528
67468W        W34251  12.834  14.700  14.493
67469W        W34252   5.864  22.218   2.708
67470W        W34253  39.030  33.657   5.098
67471W        W34254  43.726   5.350  13.412
67472W        W34255   3.863  16.150   2.392
67473W        W34256  21.125  35.388   2.338
67474W        W34257   0.182  25.593  14.496
67475W        W34258  23.704  25.630  12.600
67476W        W34259  44.502  38.856   4.842
67477W        W34260  39.135   4.819   3.174
67478W        W34261  25.113   1.281  14.733
67479W        W34262  38.063  22.573  11.242
67480W        W34263  18.384  19.307   2.683
67481W        W34264  20.900  31.440   2.400
67482W        W34265  44.038  11.655   0.911
67483W        W34266  39.864   7.091   4.269
67484W        W34267  20.390  15.708   0.364
67485W        W34268  19.202  37.434   3.687
67486W        W34269  15.617   7.097  11.626
67487W        W34270   9.335  25.600   0.472
67488W        W34271   5.036  19.397  11.840
67489W        W34272  12.234   5.301   4.661
67490W        W34273  26.547  40.962   0.759
67491W        W34274  23.985   0.776  11.201
67492W        W34275   1.981  18.823  14.788
67493W        W34276   3.818  27.975  10.970
67494W        W34277  40.607  27.500   1.885
67495W        W34278  36.945  33.556   3.818
67496W        W34279  20.350  20.711   3.955
67497W        W34280  36.056  15.263  10.952
67498W        W34281   8.737  18.316  13.020
67499W        W34282  28.543  10.358  10.619
67500W        W34283  18.533  19.047  14.230
67501W        W34284  24.553  28.569   2.884
67502W        W34285   1.863  20.037   2.281
67503W        W34286  44.313  24.709  10.634
67504W        W34287  35.824  43.908   1.216
67505W        W34288  42.131  24.412  11.088
67506W        W34289  34.338  41.286   3.338
67507W        W34290  40.928  12.553   0.848
67508W        W34291  11.267   7.671   4.587
67509W        W34292  44.853  20.210  11.410
67510W        W34293  41.223   0.409   1.736
67511W        W34294  16.444  30.455   2.919
67512W        W34295  17.616  18.972  11.433
67513W        W34296   8.245  20.266   2.802
67514W        W34297  24.940  20.795   3.224
67515W        W34298   0.591  44.055  13.445
67516W        W34299  40.100  19.959  10.245
67517W        W34300  40.627   1.917  13.463
67518W        W34301  37.314  42.366   1.902
67519W        W34302  43.885  18.171   4.789
67520W        W34303  14.722   0.473  12.973
67521W        W34304   8.598  22.612  10.997
67522W        W34305   8.343  21.970   0.345
67523W        W34306  10.694  24.093  13.168
67524W        W34307  27.656  14.386   2.776
67525W        W34308   4.871  43.889  11.699
67526W        W34309  18.235  37.603  13.790
67527W        W34310   2.941  41.002  14.366
67528W        W34311  26.192  11.620   4.599
67529W        W34312   5.780  25.687  14.996
67530W        W34313  44.721   2.286  14.411
67531W        W34314  28.148   5.930  10.363
67532W        W34315  17.130  11.776   2.058
67533W        W34316  25.420   5.023   4.150
67534W        W34317  27.879  32.597   1.308
67535W        W34318  28.941  24.774  14.421
67536W        W34319  27.531  26.552  12.634
67537W        W34320  15.355   7.831   4.607
67538W        W34321  38.439  13.871   4.516
67539W        W34322  25.929  31.207  11.670
67540W        W34323   8.179  28.176   3.810
67541W        W34324   7.700   3.846  14.542
67542W        W34325  25.021  19.239   3.233
67543W        W34326  34.299  40.786  14.724
67544W        W34327  28.519  34.627  14.137
67545W        W34328  40.601  30.972   0.097
67546W        W34329   2.884  35.420   2.504
67547W        W34330  21.763  41.778  13.955
67548W        W34331  33.855  28.854  14.885
67549W        W34332  11.357  28.445   1.846
67550W        W34333  28.067  44.744   3.113
67551W        W34334  41.814   9.287   2.071
67552W        W34335  20.121  12.585  10.780
67553W        W34336  29.045  38.243  12.518
67554W        W34337   4.154  38.537  13.198
67555W        W34338  25.562  33.225   0.902
67556W        W34339  32.423  13.370  14.041
67557W        W34340  11.949   9.687   3.538
67558W        W34341  18.771  29.663   0.422
67559W        W34342   3.958  12.663   1.465
67560W        W34343   4.510  41.070   0.286
67561W        W34344  42.581  31.945   3.727
67562W        W34345  27.905  19.576   5.018
67563W        W34346   7.191  40.367  12.519
67564W        W34347   3.192  27.453   3.251
67565W        W34348  38.339   3.734  12.113
67566W        W34349  11.292  14.917   4.091
67567W        W34350   2.311  39.612   2.752
67568W        W34351   7.369  33.830   2.685
67569W        W34352  20.820   9.928  14.216
67570W        W34353  18.295   5.399  11.039
67571W        W34354  20.102   2.736  10.238
67572W        W34355  19.209  37.592   0.727
67573W        W34356  20.383  23.607  14.865
67574W        W34357  11.724   6.733  12.462
67575W        W34358  18.841   3.339  12.845
67576W        W34359  14.537  21.243  10.739
67577W        W34360  23.027  17.789  12.544
67578W        W34361  35.754  30.493   2.561
67579W        W34362  19.936  17.295  11.928
67580W        W34363  23.935  14.500   3.110
67581W        W34364  27.380   8.241   0.329
67582W        W34365  13.661  33.381  14.868
67583W        W34366  10.866  30.157  11.920
67584W        W34367  20.205  18.197   3.692
67585W        W34368   9.367  17.758   3.875
67586W        W34369  12.401  23.290  14.570
67587W        W34370  16.843  13.751   1.747
67588W        W34371  22.012  16.800  12.108
67589W        W34372   9.693  34.652  12.609
67590W        W34373  13.672  42.401   0.962
67591W        W34374  10.241  38.431  10.106
67592W        W34375  38.329  26.658  13.328
67593W        W34376   6.169  15.674   3.104
67594W        W34377   4.867  17.736   1.926
67595W        W34378  41.509  15.908   1.030
67596W        W34379  25.044  27.551   1.728
67597W        W34380  42.192  22.918  10.954
67598W        W34381  14.902  43.980  14.990
67599W        W34382  28.001  28.964  12.075
67600W        W34383  13.885  23.068  13.363
67601W        W34384  37.528  28.211   1.309
67602W        W34385  27.444   9.394  11.437
67603W        W34386  22.473  21.283  11.447
67604W        W34387  34.064  25.726  10.707
67605W        W34388  14.059  31.021  11.427
67606W        W34389   3.871  20.071  14.688
67607W        W34390  42.938  11.301  10.015
67608W        W34391  27.567  22.213   4.666
67609W        W34392  24.348  35.584   1.212
67610W        W34393  11.431  18.809   0.844
67611W        W34394  31.985   6.910   0.051
67612W        W34395  35.582  14.678  13.274
67613W        W34396  24.659  20.110   3.179
67614W        W34397  17.673   5.087  12.311
67615W        W34398  21.741   1.199  14.305
67616W        W34399  21.284  13.173   2.848
67617W        W34400  43.932  44.052  13.950
67618W        W34401  14.040  41.772  13.971
67619W        W34402  28.083   6.267  12.597
67620W        W34403  32.916  31.998  12.511
67621W        W34404  18.370  23.146  11.072
67622W        W34405   1.182  26.913  11.320
67623W        W34406  38.960   7.482  13.974
67624W        W34407  11.218  13.776  12.865
67625W        W34408  28.581  23.735   3.864
67626W        W34409   4.750  41.310   4.066
67627W        W34410  17.061  39.474   0.562
67628W        W34411  39.442   3.146   4.626
67629W        W34412   4.501  37.137   3.237
67630W        W34413   4.241  27.566  11.925
67631W        W34414  28.821  42.337   2.234
67632W        W34415  16.494  21.187  13.021
67633W        W34416  43.691  22.679   3.777
67634W        W34417  20.811  29.764   3.769
67635W        W34418   9.153  20.684  13.433
67636W        W34419  33.361  36.409   3.221
67637W        W34420  10.180  20.597  11.041
67638W        W34421  10.838   9.201  14.262
67639W        W34422  42.216   2.759  12.054
67640W        W34423  14.533  38.383   0.260
67641W        W34424  20.616   3.377   1.842
67642W        W34425  26.108  37.938  10.813
67643W        W34426  25.539   6.133  14.789
67644W        W34427  38.548  26.727   3.343
67645W        W34428  11.191  19.594   0.507
67646W        W34429  25.131  33.385   4.449
67647W        W34430   7.878  15.547   3.578
67648W        W34431  44.913  15.171   1.154
67649W        W34432  44.281  41.428  12.029
67650W        W34433  10.618  43.718  14.656
67651W        W34434  22.451  18.276   5.059
67652W        W34435   5.826   4.698  12.979
67653W        W34436  16.923  20.540   2.376
67654W        W34437  27.110   4.955   1.611
67655W        W34438  40.408  16.084   2.388
67656W        W34439  32.586   4.034   4.117
67657W        W34440  25.574  23.509  14.873
67658W        W34441  30.835  13.101  14.859
67659W        W34442  16.730  22.912   4.662
67660W        W34443   5.106  23.685  14.873
67661W        W34444  25.957   6.181   2.234
67662W        W34445   0.281  20.293  14.516
67663W        W34446   2.372  37.484   2.823
67664W        W34447  29.557  22.054  14.314
67665W        W34448  40.322  43.741   2.735
67666W        W34449  26.658  26.176   4.861
67667W        W34450  24.703   8.672  10.753
67668W        W34451  18.112  39.455   1.895
67669W        W34452  23.017  10.637   2.712
67670W        W34453   4.649  32.749   1.572
67671W        W34454  17.547  14.661   2.709
67672W        W34455   1.016  43.215   0.785
67673W        W34456  41.232   7.465   3.220
67674W        W34457  27.182   0.344  11.452
67675W        W34458  40.755  38.245   1.679
67676W        W34459   6.157  40.577  11.452
67677W        W34460   8.909  19.240   1.525
67678W        W34461  20.120  26.049  13.517
67679W        W34462  14.988  12.290  12.041
67680W        W34463   7.188  28.160  11.947
67681W        W34464   4.639  28.082   0.005
67682W        W34465  44.761  19.773  14.825
67683W        W34466  33.740  30.035   2.445
67684W        W34467  15.080  44.384  13.604
67685W        W34468  23.817  44.362   1.427
67686W        W34469  38.478  17.255   4.746
67687W        W34470  24.857  10.622  11.925
67688W        W34471  35.084  16.704   4.680
67689W        W34472  36.698  24.693   0.003
67690W        W34473  31.538   3.941  12.543
67691W        W34474  38.656  18.456   1.222
67692W        W34475  23.611  29.379   0.372
67693W        W34476  15.832  16.636  13.974
67694W        W34477  10.059  37.154   4.911
67695W        W34478  27.115  15.652   3.925
67696W        W34479  14.033   2.546  11.621
67697W        W34480  40.832  38.480  12.539
67698W        W34481  29.938  19.134   2.350
67699W        W34482  28.164   9.801  13.999
67700W        W34483  38.866  22.189   1.715
67701W        W34484  41.037  22.999  14.467
67702W        W34485   7.101  12.352  13.414
67703W        W34486  32.380   8.831  13.468
67704W        W34487  42.536   0.961   2.330
67705W        W34488  19.734   7.872  13.349
67706W        W34489  34.391  12.262  12.940
67707W        W34490   0.462   9.442  11.076
67708W        W34491  22.257  27.529  11.540
67709W        W34492  21.305  22.214   2.612
67710W        W34493  11.821   8.122   0.774
67711W        W34494  12.827  13.651   0.472
67712W        W34495  10.283  28.179  12.938
67713W        W34496  21.551   2.756  11.584
67714W        W34497   6.987  42.983   2.376
67715W        W34498  15.513  16.024   2.978
67716W        W34499  44.899   5.945  10.697
67717W        W34500  14.674  34.854   4.830
67718W        W34501  28.038  35.377   2.331
67719W        W34502  41.359  17.714  12.492
67720W        W34503   2.524  34.435   3.759
67721W        W34504  27.047  32.617  14.015
67722W        W34505  40.592  31.355   0.444
67723W        W34506  14.869   3.034  14.983
67724W        W34507  30.777   3.947   2.305
67725W        W34508  41.768  16.789   1.660
67726W        W34509  20.702  12.301   1.896
67727W        W34510  24.711  20.231   2.292
67728W        W34511  16.720   5.664  14.023
67729W        W34512  12.424  18.115  12.160
67730W        W34513  19.122  42.807  13.935
67731W        W34514  17.997   6.263   2.240
67732W        W34515   7.118  17.297  13.329
67733W        W34516  20.347  21.183   2.701
67734W        W34517  17.633  21.582  10.967
67735W        W34518   7.838  28.171  11.181
67736W        W34519  13.701  13.304  11.146
67737W        W34520  35.356  13.714   2.886
67738W        W34521   7.877  36.836  10.917
67739W        W34522  37.005  34.030  10.925
67740W        W34523   9.029  12.350  11.814
67741W        W34524   5.648  24.672   3.312
67742W        W34525   2.306  16.636   4.585
67743W        W34526  24.564  28.554   1.140
67744W        W34527  20.700  13.763   0.197
67745W        W34528   0.552  25.701   1.219
67746W        W34529  25.486  11.639  11.197
67747W        W34530  28.164  38.377  12.008
67748W        W34531  23.671  22.476  12.339
67749W        W34532  16.212  26.550  11.053
67750W        W34533  21.003  41.132   1.731
67751W        W34534   1.873   8.253  14.020
67752W        W34535  12.385  39.401  12.676
67753W        W34536  37.878  20.126  14.777
67754W        W34537  14.324  19.653  13.320
67755W        W34538  28.612  12.609  10.757
67756W        W34539  37.439  35.261   1.490
67757W        W34540  25.529  18.635  10.637
67758W        W34541   7.507  43.410   1.843
67759W        W34542  44.454   6.832   4.002
67760W        W34543   9.839   2.186  14.077
67761W        W34544   7.441  16.891  13.367
67762W        W34545   5.408  28.928  11.275
67763W        W34546  12.436  20.831   3.147
67764W        W34547  41.355  33.526   1.086
67765W        W34548  23.669  39.791  14.824
67766W        W34549  21.153  19.634  10.661
67767W        W34550  10.408  36.143   3.822
67768W        W34551  29.994  14.931  11.499
67769W        W34552  23.198   9.591  11.203
67770W        W34553  22.677   9.272   2.854
67771W        W34554  31.645  14.155  11.396
67772W        W34555  37.755  43.261  13.916
67773W        W34556   5.669   0.245  11.203
67774W        W34557  27.116  10.958  14.576
67775W        W34558   8.023  16.632  12.537
67776W        W34559   6.187   6.010  13.272
67777W        W34560  13.533  23.114  13.773
67778W        W34561  32.178  39.045   4.940
67779W        W34562  30.441  23.522   1.540
67780W        W34563  37.249  16.722  13.964
67781W        W34564  15.887  19.037  12.087
67782W        W34565   1.198   0.405  10.680
67783W        W34566  36.146  28.196  12.581
67784W        W34567  35.354  23.755  14.115
67785W        W34568  34.787  37.488  11.093
67786W        W34569  34.355  32.421   1.843
67787W        W34570  34.418  40.406   2.257
67788W        W34571  14.310  35.141   0.235
67789W        W34572   1.925  43.766   0.874
67790W        W34573  31.035   7.585   1.703
67791W        W34574   9.389  29.149   0.858
67792W        W34575  42.311  11.253  14.721
67793W        W34576  39.105  12.102  14.954
67794W        W34577  43.485  44.901  11.967
67795W        W34578  24.319  19.555   5.274
67796W        W34579  18.567  25.071  11.996
67797W        W34580   5.175   2.670   2.940
67798W        W34581  35.411   3.080  14.798
67799W        W34582  16.622   7.303  13.825
67800W        W34583  31.247  38.418  12.380
67801W        W34584   3.146  38.184   4.210
67802W        W34585  16.586  14.112  10.861
67803W        W34586   9.860  38.470  10.902
67804W        W34587   1.502  24.423  12.942
67805W        W34588   4.328   4.359   1.407
67806W        W34589  35.443   7.384  10.173
67807W        W34590  35.047  17.845   0.309
67808W        W34591  33.422   4.975  11.683
67809W        W34592   8.383   5.334  12.417
67810W        W34593  16.106  23.216   0.456
67811W        W34594   6.339   7.237   0.010
67812W        W34595  40.830  37.127  10.699
67813W        W34596  38.914  34.004  12.212
67814W        W34597  40.042  22.257  11.009
67815W        W34598   2.148  34.929   4.551
67816W        W34599  34.421  30.144  10.775
67817W        W34600  34.923  36.772   3.731
67818W        W34601  38.562  16.677   2.926
67819W        W34602   1.376  31.178  10.693
67820W        W34603   5.578  11.577  13.153
67821W        W34604  35.918  18.259   4.535
67822W        W34605  35.849  37.989   1.319
67823W        W34606  42.272  10.633   2.020
67824W        W34607  35.974  20.554  14.493
67825W        W34608  17.579  27.945  14.089
67826W        W34609   0.536  42.444   0.935
67827W        W34610  11.822  14.612  11.474
67828W        W34611   7.521   1.941  13.453
67829W        W34612  28.125   4.020   2.607
67830W        W34613  22.481  33.395  14.937
67831W        W34614   4.868  39.741  13.790
67832W        W34615   3.482  23.236   1.709
67833W        W34616  10.715  16.524  11.022
67834W        W34617  31.538  21.720  12.435
67835W        W34618  17.555  20.187  10.783
67836W        W34619   0.323  32.011   3.348
67837W        W34620  10.916  38.646  11.191
67838W        W34621  20.548  24.081   1.664
67839W        W34622  38.897   5.244   2.956
67840W        W34623  16.652  33.403   3.065
67841W        W34624  29.665  44.449   2.155
67842W        W34625  13.371  37.601  12.275
67843W        W34626   2.975  18.154   2.906
67844W        W34627  29.805  32.680  11.262
67845W        W34628   4.250   2.322   4.899
67846W        W34629   2.965  43.295   0.853
67847W        W34630  30.521  26.529   0.449
67848W        W34631  13.626  28.486   1.703
67849W        W34632  13.290  38.430  12.361
67850W        W34633   9.515  17.073  10.116
67851W        W34634  32.373  31.058   3.237
67852W        W34635  25.558  27.929   0.675
67853W        W34636   2.865   3.903  14.695
67854W        W34637  34.027  26.274   3.180
67855W        W34638  26.103   1.277   1.704
67856W        W34639   7.943   1.750  12.184
67857W        W34640   1.069  13.086   2.156
67858W        W34641   7.961  14.078   0.983
67859W        W34642  33.039  41.366   3.652
67860W        W34643   1.007  44.418  13.959
67861W        W34644   1.267  12.348   3.415
67862W        W34645  22.044  26.943   4.057
67863W        W34646  39.387  40.631   0.492
67864W        W34647  20.820  22.115   4.812
67865W        W34648  31.994  14.256   4.104
67866W        W34649  21.444   8.557   4.870
67867W        W34650  24.524  36.020  10.966
67868W        W34651  17.945  41.559  12.403
67869W        W34652   7.536  26.078   3.079
67870W        W34653  39.335  37.427   3.855
67871W        W34654  43.031   0.240  13.712
67872W        W34655  16.288   0.744  13.665
67873W        W34656  11.977   8.426   3.053
67874W        W34657  10.718  44.035   3.329
67875W        W34658  24.619   3.071  13.380
67876W        W34659  35.902   2.809  11.703
67877W        W34660  41.260   5.909   4.036
67878W        W34661   1.004  42.393  14.412
67879W        W34662  34.070  20.285  11.965
67880W        W34663   3.381  39.494  13.879
67881W        W34664  10.191  26.602   3.730
67882W        W34665   7.232  28.250   2.756
67883W        W34666  11.362  42.030  13.361
67884W        W34667  12.376  22.554  11.444
67885W        W34668  36.155  22.591  13.988
67886W        W34669  36.808  14.767   2.328
67887W        W34670  31.611  36.572   0.780
67888W        W34671  17.687   4.812  12.773
67889W        W34672  22.779  11.213  12.608
67890W        W34673  24.900  35.877   3.844
67891W        W34674  37.804   9.450  13.414
67892W        W34675  43.450   6.811  13.427
67893W        W34676  29.408  12.854  11.898
67894W        W34677  44.329  32.167   3.082
67895W        W34678  32.982  21.300  13.933
67896W        W34679   9.876   8.789   2.697
67897W        W34680  32.629  33.556   4.365
67898W        W34681  12.193  28.578  12.483
67899W        W34682   0.848  37.926  12.140
67900W        W34683  15.533  37.827  12.179
67901W        W34684  22.241  33.902   3.044
67902W        W34685  42.941   9.440   3.166
67903W        W34686   6.377  17.591   1.905
67904W        W34687   4.973  39.839   2.962
67905W        W34688  40.048  31.494   1.739
67906W        W34689  37.482   6.824  12.389
67907W        W34690  21.179  34.328  13.496
67908W        W34691  29.490  40.554   3.165
67909W        W34692  10.711  22.952   2.810
67910W        W34693  40.345   2.761   2.193
67911W        W34694  36.396  42.793  11.142
67912W        W34695  24.503   7.951   2.975
67913W        W34696  22.537   1.978   2.824
67914W        W34697  11.405   9.256  13.131
67915W        W34698  43.816   4.350   0.819
67916W        W34699  37.956  29.598   3.892
67917W        W34700  38.429  19.695  13.943
67918W        W34701   5.184  23.693   1.392
67919W        W34702  44.404  39.860   2.680
67920W        W34703  29.050   9.852  12.447
67921W        W34704  10.856   4.238   0.468
67922W        W34705   6.445  34.475  12.123
67923W        W34706  14.318  42.271   4.031
67924W        W34707  18.600   1.712   1.209
67925W        W34708   3.768  44.288   1.389
67926W        W34709  22.156  25.993   3.860
67927W        W34710  15.145  41.881  13.266
67928W        W34711  44.128   1.324  11.671
67929W        W34712  39.569  28.478  11.861
67930W        W34713  12.695  17.530   4.904
67931W        W34714   5.250  43.728  13.960
67932W        W34715  40.325  10.893  14.961
67933W        W34716   9.593  43.338  13.457
67934W        W34717  26.723  14.135  13.978
67935W        W34718  33.656  13.279  11.266
67936W        W34719  19.624  37.063  13.019
67937W        W34720  15.197  27.921   0.965
67938W        W34721  20.490  19.159  13.367
67939W        W34722  22.939  28.614  10.540
67940W        W34723  24.055  18.726  11.328
67941W        W34724  24.069  37.377  12.618
67942W        W34725  29.224  18.994   1.182
67943W        W34726  24.639  19.370  14.109
67944W        W34727  29.297  40.396   3.612
67945W        W34728  19.609  14.837   2.378
67946W        W34729  37.484  39.481  12.366
67947W        W34730  34.405  23.136   0.929
67948W        W34731   0.433  13.100  13.931
67949W        W34732   0.781   0.635   3.560
67950W        W34733  32.844  11.631   2.674
67951W        W34734  44.900  22.511  12.612
67952W        W34735  17.160  20.737  13.481
67953W        W34736   2.108  40.608  12.968
67954W        W34737  10.282  17.425  12.356
67955W        W34738  36.308  23.819   1.163
67956W        W34739  17.050  23.753  11.149
67957W        W34740  16.344  16.627   2.603
67958W        W34741  33.974  37.164   3.225
67959W        W34742   1.440  16.906   3.241
67960W        W34743  28.489  30.812  11.149
67961W        W34744  11.324  10.847   5.188
67962W        W34745   1.444  24.972   3.669
67963W        W34746  40.295   6.480  11.844
67964W        W34747  13.887  10.661  11.172
67965W        W34748  39.038   3.774   1.748
67966W        W34749  28.161   2.637  11.622
67967W        W34750   3.156  27.514  14.029
67968W        W34751  12.961  11.709   0.431
67969W        W34752  24.481  34.795   4.068
67970W        W34753  31.146  11.587  11.040
67971W        W34754  44.915  31.482   1.190
67972W        W34755   9.264   5.010   1.890
67973W        W34756  26.750  29.132   0.333
67974W        W34757  37.926  34.419   1.420
67975W        W34758  41.729   7.940  14.404
67976W        W34759   2.005  14.857   4.583
67977W        W34760  34.985  24.968  11.614
67978W        W34761  43.957  39.892  11.286
67979W        W34762  30.556  21.176   9.958
67980W        W34763  15.728  23.641  12.334
67981W        W34764  35.953  29.876   1.355
67982W        W34765  26.488  23.549  12.833
67983W        W34766  18.963  24.479  14.449
67984W        W34767  16.811  10.791   0.258
67985W        W34768  41.507  31.326   0.430
67986W        W34769  33.448   6.156   2.781
67987W        W34770  21.849  39.248   1.398
67988W        W34771  21.592  11.900  10.440
67989W        W34772   8.923  25.623  11.804
67990W        W34773   0.337  24.624   3.076
67991W        W34774  12.714  44.019   0.753
67992W        W34775   0.115   7.823  12.913
67993W        W34776  37.030  11.900   1.327
67994W        W34777  11.994   3.617  14.960
67995W        W34778   5.281  15.801  12.469
67996W        W34779  40.286   6.755   2.872
67997W        W34780  22.220  15.319   3.858
67998W        W34781  11.208   2.290  13.955
67999W        W34782  17.196  29.641  14.480
68000W        W34783  44.552  34.101  14.754
68001W        W34784  40.332  17.281   2.770
68002W        W34785   7.630  20.074  11.569
68003W        W34786  23.757  11.937   0.031
68004W        W34787  34.097   8.296   0.428
68005W        W34788  21.023  23.549   1.665
68006W        W34789  31.192  20.068  13.046
68007W        W34790  24.918  35.859  12.463
68008W        W34791  36.249   9.677   3.687
68009W        W34792  19.616  31.490   2.959
68010W        W34793  24.553  14.510  13.569
68011W        W34794   0.603  21.163   1.332
68012W        W34795  16.795  29.680   1.354
68013W        W34796  32.051  28.671  13.034
68014W        W34797   9.344  19.544  11.500
68015W        W34798  25.035  10.254   2.924
68016W        W34799  37.837  38.556   3.301
68017W        W34800  28.470  37.797  10.782
68018W        W34801   2.198  12.116  12.400
68019W        W34802  29.390   9.879  14.361
68020W        W34803   5.442   5.230  13.944
68021W        W34804  36.930  20.678   1.194
68022W        W34805  17.149  40.055   0.856
68023W        W34806  21.660  12.883   3.631
68024W        W34807  23.507   2.920  14.391
68025W        W34808  24.552  42.560  13.129
68026W        W34809  31.865  39.526  14.430
68027W        W34810  38.802   4.798   1.868
68028W        W34811  21.058  44.203  11.203
68029W        W34812  40.569  29.171  11.584
68030W        W34813  26.943   2.668   1.229
68031W        W34814  35.867  19.330   4.483
68032W        W34815  36.998  31.541   4.491
68033W        W34816  29.977  36.078   0.544
68034W        W34817  26.943  36.583  14.334
68035W        W34818  24.469  16.122  14.946
68036W        W34819  20.835   6.002   5.091
68037W        W34820  39.748  41.564   3.710
68038W        W34821  35.989  12.125   3.286
68039W        W34822  19.271  33.895   4.632
68040W        W34823  26.746   7.841   4.496
68041W        W34824   8.798  25.134  10.969
68042W        W34825  18.696  33.928   3.716
68043W        W34826   4.749  32.004  11.001
68044W        W34827  25.074  22.018  11.461
68045W        W34828  21.698  43.282  12.591
68046W        W34829  37.534  39.877  10.234
68047W        W34830  32.057   1.067  12.501
68048W        W34831   2.705   6.252   0.256
68049W        W34832  20.187  25.503   2.913
68050W        W34833  33.142  10.222  13.138
68051W        W34834  27.668  35.943   4.145
68052W        W34835  32.620   0.624   1.653
68053W        W34836  16.722  33.315  14.840
68054W        W34837  33.718  34.731   0.955
68055W        W34838  41.919   5.180  10.917
68056W        W34839  35.565  13.852  13.399
68057W        W34840  18.764  15.607   1.011
68058W        W34841   1.451  38.877   1.476
68059W        W34842  41.553  25.265   1.748
68060W        W34843  31.715   2.669   1.575
68061W        W34844  23.250  42.835  10.626
68062W        W34845  26.387  21.524  12.020
68063W        W34846  28.586   7.368   1.428
68064W        W34847  35.792   3.904   2.263
68065W        W34848   0.264   3.526  11.544
68066W        W34849  21.249  18.061   3.717
68067W        W34850  35.286  42.899  12.505
68068W        W34851   3.865  25.924  10.913
68069W        W34852  40.341   4.150  14.019
68070W        W34853  23.089  19.564   4.665
68071W        W34854  43.315  31.396  13.820
68072W        W34855  18.712  19.658  14.892
68073W        W34856  38.096  18.207  10.435
68074W        W34857  19.799  18.188  11.562
68075W        W34858  36.107  34.561  10.719
68076W        W34859  37.306  31.555   0.404
68077W        W34860  33.991  36.054  10.765
68078W        W34861  13.059   0.505   4.341
68079W        W34862  43.570  11.188  12.522
68080W        W34863  11.170  20.134  13.810
68081W        W34864  42.761  17.778  14.511
68082W        W34865  14.288  23.989  12.032
68083W        W34866  41.291  38.785  11.129
68084W        W34867  39.490   7.364   1.324
68085W        W34868  30.741  37.996   4.222
68086W        W34869  15.172   4.816  10.751
68087W        W34870   9.143  38.871  12.485
68088W        W34871  40.753  35.852  10.458
68089W        W34872  38.688   6.450  13.505
68090W        W34873  20.555   4.210   2.297
68091W        W34874  30.091  29.977  11.716
68092W        W34875  38.721  43.054  10.760
68093W        W34876  43.842  16.749   2.839
68094W        W34877   5.482  35.927   3.623
68095W        W34878   5.353   0.393   4.606
68096W        W34879  33.785   9.902   2.427
68097W        W34880  15.604  42.332   2.907
68098W        W34881  33.452  29.456  14.354
68099W        W34882  44.395   8.343   1.186
68100W        W34883  10.620  21.553  11.189
68101W        W34884  17.523  32.501  11.216
68102W        W34885  13.163  35.810   1.177
68103W        W34886  12.999  31.058  11.766
68104W        W34887   8.979  39.057   3.666
68105W        W34888  37.747   3.308  13.970
68106W        W34889  41.541  27.123   0.242
68107W        W34890  33.118  23.509   1.837
68108W        W34891  21.468  32.313  14.016
68109W        W34892  18.776  24.039  10.302
68110W        W34893  28.595  15.324  14.108
68111W        W34894  12.296  29.958   0.895
68112W        W34895  33.491  44.337   2.791
68113W        W34896  35.804  13.036  14.640
68114W        W34897  15.816  29.910   0.287
68115W        W34898  38.368  20.189   2.196
68116W        W34899  43.892  41.498  14.085
68117W        W34900  35.853   1.025   0.352
68118W        W34901  43.964  43.332   3.433
68119W        W34902  22.962  42.866  13.760
68120W        W34903  34.313  40.018  12.041
68121W        W34904  10.600  17.783  14.569
68122W        W34905  28.105  44.462  14.893
68123W        W34906  12.517  20.314  11.265
68124W        W34907  28.672   9.929  12.830
68125W        W34908  12.727  30.456  10.603
68126W        W34909  21.659   3.185   0.919
68127W        W34910  11.797  30.112   0.874
68128W        W34911   1.561  27.737   0.413
68129W        W34912  12.263  33.538  12.421
68130W        W34913  24.264   4.226   3.775
68131W        W34914  37.005  28.162   0.770
68132W        W34915   7.931   4.894  10.605
68133W        W34916  37.594   7.377  10.249
68134W        W34917  25.192  41.767   2.201
68135W        W34918  39.088  29.968   3.812
68136W        W34919   3.933  24.972  12.102
68137W        W34920  24.746  23.071   1.833
68138W        W34921  32.402  38.558  12.783
68139W        W34922  39.292  23.015   3.787
68140W        W34923  27.662  32.041  14.531
68141W        W34924   3.430  32.216  13.150
68142W        W34925  35.732  44.746   3.706
68143W        W34926  26.102  38.769   2.725
68144W        W34927  44.735  16.720  10.046
68145W        W34928  16.816   4.456   3.776
68146W        W34929  27.261  31.456   1.355
68147W        W34930  42.486  40.332   0.907
68148W        W34931  22.797  38.064   0.874
68149W        W34932  20.711  33.414   1.968
68150W        W34933  26.187  37.017   0.954
68151W        W34934  22.007   1.917   3.158
68152W        W34935  15.916  23.288   0.946
68153W        W34936   3.897  16.266  10.891
68154W        W34937  31.884  10.573  13.445
68155W        W34938  27.954  35.948  14.886
68156W        W34939   3.016  31.550   4.494
68157W        W34940  33.176  38.970  11.581
68158W        W34941   6.982  43.102  11.056
68159W        W34942  24.757  15.076   2.698
68160W        W34943  25.585  44.021   3.091
68161W        W34944   0.713   6.747  14.081
68162W        W34945  21.705  40.538  11.078
68163W        W34946   8.243  26.276   1.886
68164W        W34947  22.666   8.879  10.688
68165W        W34948  39.261   5.968   0.415
68166W        W34949  23.197  17.062   0.805
68167W        W34950  38.050  34.457  10.937
68168W        W34951  38.572  24.574  10.545
68169W        W34952  35.316  37.139   1.108
68170W        W34953   0.857   5.256   0.382
68171W        W34954  34.887  27.987  13.991
68172W        W34955   9.322  17.517  14.003
68173W        W34956  24.777  39.362   2.337
68174W        W34957  21.767  38.629  12.439
68175W        W34958  34.520  33.083  11.566
68176W        W34959   4.005  23.128  11.064
68177W        W34960  14.928  22.000  12.942
68178W        W34961  16.027  18.086  12.401
68179W        W34962  11.301  16.979  12.965
68180W        W34963  10.319   2.901  14.978
68181W        W34964  16.632  11.714   1.268
68182W        W34965   8.209  19.961   2.375
68183W        W34966  36.638  15.767   2.782
68184W        W34967  33.760  17.287  10.212
68185W        W34968  34.856  14.149   1.532
68186W        W34969  14.794   0.032   2.780
68187W        W34970   9.478   0.346  12.112
68188W        W34971  27.644  42.090  12.405
68189W        W34972  29.701   9.311   4.235
68190W        W34973  12.412  23.062  11.389
68191W        W34974  24.647  42.103  11.505
68192W        W34975  22.500  13.869  11.148
68193W        W34976  19.525   5.222   1.655
68194W        W34977  18.093  26.493  11.921
68195W        W34978   1.703  30.826   1.965
68196W        W34979  30.025  31.172   3.659
68197W        W34980   9.946   1.322   1.424
68198W        W34981  43.775   6.034   0.352
68199W        W34982  26.174   7.643   1.387
68200W        W34983  40.794  15.525  11.129
68201W        W34984  10.911  19.555   0.053
68202W        W34985  19.882  26.642  13.965
68203W        W34986  21.187   1.822   2.261
68204W        W34987  26.150  12.874   0.751
68205W        W34988   0.720   0.743  11.170
68206W        W34989  42.209  23.218  13.078
68207W        W34990  39.961  23.256   1.423
68208W        W34991  28.411  11.434   0.953
68209W        W34992  33.074  25.505  13.351
68210W        W34993  25.033  28.044   1.953
68211W        W34994  21.818   7.814   3.756
68212W        W34995  26.591  27.199   1.768
68213W        W34996  19.119  37.115   0.423
68214W        W34997  35.914  21.622   2.197
68215W        W34998  14.381  40.550   1.141
68216W        W34999   1.068   6.529   1.770
68217W        W35000  36.086  13.268   0.936
68218W        W35001  19.557  43.366  13.409
68219W        W35002  31.930  19.532   3.798
68220W        W35003  39.072   6.756  14.473
68221W        W35004  27.658  11.574  14.953
68222W        W35005   0.391  23.918  14.767
68223W        W35006  16.646   0.773  14.924
68224W        W35007  25.365   6.295  12.187
68225W        W35008  21.136  28.129  10.714
68226W        W35009  19.891  39.908  11.120
68227W        W35010  37.778  23.727   3.946
68228W        W35011  10.708  22.290  14.588
68229W        W35012  20.052  44.393  13.265
68230W        W35013  33.669  28.495  14.553
68231W        W35014  42.877   5.855  11.965
68232W        W35015  19.719  31.681  13.876
68233W        W35016  20.819   5.354   1.134
68234W        W35017  40.072  13.162  10.733
68235W        W35018  29.420  26.080   3.311
68236W        W35019  39.591  37.344  13.543
68237W        W35020  40.004  17.629   1.146
68238W        W35021  29.567  26.846   1.356
68239W        W35022  33.706   4.952   5.530
68240W        W35023  27.008  35.410  12.900
68241W        W35024  42.763  20.442   1.829
68242W        W35025  12.853   2.408   4.493
68243W        W35026   5.256  15.154   2.159
68244W        W35027  16.232   5.657   1.338
68245W        W35028   4.434  36.986  12.548
68246W        W35029  13.198  18.799   2.787
68247W        W35030   3.796  24.741   1.226
68248W        W35031  26.033  34.897  13.885
68249W        W35032   9.540  31.509  10.735
68250W        W35033  25.414   3.386  11.196
68251W        W35034  28.029   8.870  11.091
68252W        W35035  23.969  37.723  13.018
68253W        W35036   7.445  13.263  10.701
68254W        W35037  44.649  39.000  14.890
68255W        W35038  43.428  44.674  14.221
68256W        W35039  14.948  42.514  10.751
68257W        W35040  31.522  29.174  14.934
68258W        W35041  13.443  20.482   0.363
68259W        W35042  15.818  29.777  12.077
68260W        W35043   2.739  17.327   0.190
68261W        W35044  13.041  41.917  12.832
68262W        W35045  36.196  21.904  13.202
68263W        W35046   7.870  33.597   3.726
68264W        W35047  23.165   3.151   0.840
68265W        W35048  43.830  10.403   3.741
68266W        W35049  15.863  17.461  10.686
68267W        W35050   0.414  31.381  13.815
68268W        W35051   3.336  22.060  11.502
68269W        W35052  10.243   8.790   0.977
68270W        W35053  37.801  14.422   1.893
68271W        W35054  27.974  26.182  11.132
68272W        W35055  36.901  17.294  11.115
68273W        W35056  41.927  11.724   3.088
68274W        W35057  22.413  29.188   0.473
68275W        W35058  40.440  14.394   1.631
68276W        W35059  17.038  43.457  14.796
68277W        W35060  38.935  11.830   4.067
68278W        W35061   1.562  18.036  12.999
68279W        W35062  39.482   7.315   3.348
68280W        W35063  29.485   3.381   1.940
68281W        W35064  14.950  13.167  12.915
68282W        W35065  10.109  11.884  10.974
68283W        W35066  33.806  21.668   3.770
68284W        W35067  23.647   3.491  10.306
68285W        W35068  28.645   7.852   2.894
68286W        W35069  20.758   0.775  10.779
68287W        W35070   2.218  33.533  14.221
68288W        W35071  31.570  36.313   3.659
68289W        W35072  28.731  18.772   4.074
68290W        W35073  27.541   4.316  11.917
68291W        W35074  10.568  20.265   4.165
68292W        W35075   1.463  16.788  11.495
68293W        W35076   9.547   6.159  11.170
68294W        W35077  26.201   6.852   0.380
68295W        W35078   3.723  17.587  14.901
68296W        W35079  19.236  16.084  13.719
68297W        W35080  16.843  33.463  12.051
68298W        W35081  17.185  43.899   0.016
68299W        W35082  13.481  17.355  12.051
68300W        W35083   5.790  32.946  11.454
68301W        W35084  24.173  22.738   3.613
68302W        W35085  30.920  38.932  11.932
68303W        W35086  15.372  19.921   2.853
68304W        W35087  12.788  16.833  13.838
68305W        W35088  43.936  36.106   2.716
68306W        W35089  38.017  41.868   1.348
68307W        W35090  28.178  31.654   1.627
68308W        W35091   7.637   5.184  10.271
68309W        W35092  41.747  18.282   2.501
68310W        W35093  35.147  23.281   3.563
68311W        W35094  33.890  23.247   1.085
68312W        W35095   7.179   5.013  12.967
68313W        W35096  31.577   6.643   5.132
68314W        W35097  27.433  38.529  11.591
68315W        W35098  44.580  15.706   0.279
68316W        W35099  21.228  15.662  12.477
68317W        W35100   9.780   6.118  11.609
68318W        W35101  10.568  43.066  11.674
68319W        W35102  43.338   4.808   3.197
68320W        W35103  10.563   2.322  11.476
68321W        W35104  16.717  26.078  14.838
68322W        W35105  34.658  30.594   4.944
68323W        W35106  23.715  15.435   2.789
68324W        W35107   3.180  17.585   0.834
68325W        W35108  34.432  13.822   0.623
68326W        W35109  22.532  28.201   0.716
68327W        W35110  24.428  37.129  13.432
68328W        W35111  21.477  29.379   1.393
68329W        W35112  33.691  18.115  11.641
68330W        W35113   0.053  34.593  11.520
68331W        W35114  11.662  25.441   4.192
68332W        W35115   1.352  31.625   2.795
68333W        W35116  10.817   9.984   3.057
68334W        W35117  16.717  43.852   4.683
68335W        W35118  35.064   2.965   4.665
68336W        W35119  30.587   7.334   2.661
68337W        W35120   2.371   5.425  13.894
68338W        W35121  18.820   7.773   2.634
68339W        W35122  42.991   1.728  10.684
68340W        W35123  20.301  34.359  10.742
68341W        W35124   7.376  12.606   0.460
68342W        W35125  38.196  13.543  11.567
68343W        W35126  39.935  10.314  12.300
68344W        W35127  24.586  24.868   3.189
68345W        W35128  33.807   5.284   5.125
68346W        W35129  44.280  16.703   1.398
68347W        W35130   1.965  34.076  12.411
68348W        W35131   5.299  11.919   4.826
68349W        W35132  24.508   2.407  12.926
68350W        W35133  22.454  40.779  14.057
68351W        W35134  10.840  25.033   1.793
68352W        W35135  31.649   8.138  13.564
68353W        W35136  43.926  17.208   2.635
68354W        W35137  40.045  23.983  13.864
68355W        W35138  17.226  27.785   4.976
68356W        W35139   0.967   9.553  14.862
68357W        W35140   3.400  38.862   3.700
68358W        W35141  44.545  11.872  10.245
68359W        W35142   7.641  24.672  13.824
68360W        W35143  20.534   2.689   5.010
68361W        W35144  41.218  11.843  14.217
68362W        W35145  41.874  22.657   0.965
68363W        W35146   3.860  43.817   4.078
68364W        W35147  42.205  30.117  10.547
68365W        W35148  37.962   0.772  14.400
68366W        W35149  22.752   4.983   4.862
68367W        W35150  37.644  34.198   2.298
68368W        W35151  17.539  22.132   3.345
68369W        W35152  27.135  13.117   0.751
68370W        W35153  43.492   9.437  13.483
68371W        W35154  23.610  19.077   1.726
68372W        W35155  12.351  42.987  12.232
68373W        W35156  16.206  30.609  10.714
68374W        W35157  16.757  36.607   2.045
68375W        W35158  42.286   2.975   2.829
68376W        W35159  36.298  41.163  11.218
68377W        W35160   9.016  35.702   3.350
68378W        W35161  40.463  34.611   0.719
68379W        W35162  30.024  41.315   3.265
68380W        W35163  16.493   6.864   0.964
68381W        W35164  30.113   0.099   1.896
68382W        W35165   1.695   1.496   0.379
68383W        W35166  10.236  25.145   1.428
68384W        W35167  29.438  29.384  11.623
68385W        W35168  16.747   0.950  11.208
68386W        W35169  17.265  32.893   4.743
68387W        W35170  24.956  19.185  13.328
68388W        W35171   2.307  26.541   2.439
68389W        W35172  11.277  24.106  13.078
68390W        W35173  42.489  14.508   1.718
68391W        W35174  15.993  24.543   0.267
68392W        W35175  28.677   4.011   0.927
68393W        W35176  33.475  35.355  13.424
68394W        W35177   3.553  24.956   4.035
68395W        W35178  17.292  26.576   3.670
68396W        W35179   1.959  43.467  12.977
68397W        W35180  33.125   6.857   3.645
68398W        W35181  13.617   0.378  12.563
68399W        W35182  24.060  43.371   1.787
68400W        W35183  34.401  42.373   0.262
68401W        W35184  43.241  40.802  12.005
68402W        W35185   9.908  33.045  13.933
68403W        W35186  43.754   7.473  11.639
68404W        W35187  24.457  12.281   3.839
68405W        W35188  30.917  27.648  12.333
68406W        W35189  37.543   0.757   3.720
68407W        W35190  19.218  42.544  10.545
68408W        W35191  11.369  23.498  11.386
68409W        W35192  22.621   8.399  12.069
68410W        W35193  25.155  37.606  11.194
68411W        W35194  13.573   9.490  14.534
68412W        W35195   8.235   5.647   3.794
68413W        W35196  12.764  25.470   4.836
68414W        W35197  17.069   5.041   4.502
68415W        W35198  10.060  18.597  11.177
68416W        W35199  32.254  23.683   3.142
68417W        W35200   9.185  29.499  11.059
68418W        W35201  42.474  16.071   5.292
68419W        W35202   9.975  28.064  12.130
68420W        W35203  36.171  28.131   2.388
68421W        W35204   7.705  15.827   0.894
68422W        W35205  26.379  36.011  14.740
68423W        W35206  14.197  29.489   3.550
68424W        W35207  44.479  43.149   3.339
68425W        W35208  21.479  26.253  14.723
68426W        W35209  44.516  18.135   2.747
68427W        W35210   6.255  44.435   0.796
68428W        W35211  26.698  16.534  12.914
68429W        W35212  38.371  13.843   3.095
68430W        W35213   4.680  30.667  14.450
68431W        W35214  35.624  19.191   0.249
68432W        W35215  26.474  18.741   3.726
68433W        W35216  29.983  38.153   4.630
68434W        W35217  29.456  32.738  14.736
68435W        W35218  18.774  33.029   3.304
68436W        W35219  38.981  33.742   1.873
68437W        W35220  23.681  31.423   0.421
68438W        W35221  39.036  35.946   1.459
68439W        W35222  40.767  39.845   4.551
68440W        W35223  20.587   5.316  11.391
68441W        W35224  26.749   2.765   2.278
68442W        W35225  32.871   6.561  11.506
68443W        W35226  11.632  40.741   4.889
68444W        W35227  23.172  42.392  12.612
68445W        W35228  22.847  36.098  11.624
68446W        W35229   2.184   2.971  13.932
68447W        W35230  32.479  16.436  10.787
68448W        W35231   5.905  18.712  14.460
68449W        W35232  15.619  44.603  11.054
68450W        W35233  43.229  22.220   4.083
68451W        W35234  37.885  29.698  11.988
68452W        W35235  30.278  26.713   3.530
68453W        W35236  29.980  37.722  11.203
68454W        W35237  24.872  32.195  10.649
68455W        W35238  24.136  38.924  12.531
68456W        W35239  14.120  22.153   1.950
68457W        W35240   6.797   7.434   4.363
68458W        W35241  11.680  32.423  12.216
68459W        W35242  42.950  39.820   2.224
68460W        W35243  21.036  36.574  10.682
68461W        W35244  33.795   2.852  10.943
68462W        W35245   6.908  36.124   3.720
68463W        W35246  27.883  32.548  10.692
68464W        W35247  17.549  15.484   1.567
68465W        W35248  28.851  15.869   0.854
68466W        W35249  32.347  36.463   3.186
68467W        W35250  12.887   1.417   2.632
68468W        W35251  35.392   9.365  12.993
68469W        W35252  44.448  42.551   2.308
68470W        W35253  20.899  28.867   1.756
68471W        W35254   9.361  32.551  14.248
68472W        W35255  16.790  20.051  13.503
68473W        W35256  33.165  38.639  11.153
68474W        W35257  30.180  15.973   2.222
68475W        W35258  22.020   9.155  11.206
68476W        W35259  16.709  38.463  12.157
68477W        W35260  10.017  37.283  11.944
68478W        W35261  11.886  40.517   1.261
68479W        W35262  43.218   4.577   3.730
68480W        W35263  20.806  23.159   1.969
68481W        W35264  32.690  35.723  10.618
68482W        W35265  27.550  32.055   2.186
68483W        W35266   4.450  30.278  13.843
68484W        W35267  34.419   4.422  10.748
68485W        W35268   1.228  14.800   0.460
68486W        W35269   3.010  31.437  14.631
68487W        W35270  32.680  40.521  11.206
68488W        W35271  44.857   3.527   4.694
68489W        W35272  44.022   3.363  10.891
68490W        W35273  17.423   9.063  12.316
68491W        W35274  39.510  38.926  11.615
68492W        W35275  24.515  24.960  12.486
68493W        W35276  23.171  37.720  14.233
68494W        W35277  13.339  15.614   1.490
68495W        W35278  19.437  30.139   3.680
68496W        W35279  23.170  37.326   4.673
68497W        W35280  25.186  36.524  14.730
68498W        W35281   9.994  33.973   0.397
68499W        W35282  39.114  31.063   0.777
68500W        W35283  10.527   6.300  11.064
68501W        W35284   3.456   0.320   1.726
68502W        W35285  41.367   3.793   1.508
68503W        W35286  44.622   7.866  12.813
68504W        W35287  24.280  40.487   0.527
68505W        W35288  43.363  34.000   0.330
68506W        W35289  31.268  42.776  10.331
68507W        W35290  30.134  43.100  12.826
68508W        W35291   3.357  11.281  11.778
68509W        W35292  39.175  31.191   3.205
68510W        W35293  11.091   5.242  13.314
68511W        W35294  32.450   7.402  12.076
68512W        W35295  26.057  43.333   4.478
68513W        W35296  41.928  19.157  14.404
68514W        W35297  31.841  32.983   2.765
68515W        W35298   7.127   1.281   1.013
68516W        W35299  38.830  18.658  11.066
68517W        W35300  29.544  35.298   1.439
68518W        W35301   0.528  22.500  11.405
68519W        W35302  42.093  26.596   0.701
68520W        W35303  35.367   9.013   5.431
68521W        W35304   7.149  40.482  11.475
68522W        W35305  12.072  17.162  11.826
68523W        W35306  36.533   7.678   2.249
68524W        W35307   0.789  42.503   1.942
68525W        W35308   9.685  27.644   4.409
68526W        W35309  35.780  11.802   0.847
68527W        W35310  23.026  32.839  13.354
68528W        W35311   6.682  34.375   4.100
68529W        W35312  34.176  34.829  12.030
68530W        W35313   3.329   5.836  13.718
68531W        W35314  12.192  25.586   0.973
68532W        W35315  40.336   8.597   2.211
68533W        W35316  18.278   8.196  12.784
68534W        W35317  41.306  22.557   2.097
68535W        W35318  20.830   9.231   1.801
68536W        W35319  32.763  33.445   1.941
68537W        W35320  33.980  33.135   4.650
68538W        W35321  35.961  24.537   2.630
68539W        W35322   6.000   9.323   0.235
68540W        W35323  16.874  34.967  11.243
68541W        W35324  30.951   5.832  10.562
68542W        W35325  40.014  19.237  14.321
68543W        W35326  35.167  21.608   0.244
68544W        W35327  36.952  20.072   0.405
68545W        W35328  29.431  21.266   3.384
68546W        W35329  29.503   8.665   2.135
68547W        W35330   0.584  21.656   3.573
68548W        W35331  29.686  43.846   0.209
68549W        W35332  19.592  20.840  14.886
68550W        W35333  19.279  41.268   1.461
68551W        W35334  36.438  38.931  11.154
68552W        W35335  41.531  22.441   2.771
68553W        W35336   5.651  11.852   0.465
68554W        W35337  11.336   5.333   4.035
68555W        W35338  12.710  17.619   2.813
68556W        W35339  32.924  29.599  10.708
68557W        W35340  27.618  39.124   0.870
68558W        W35341  36.766  27.439   2.574
68559W        W35342  17.807  10.834   3.563
68560W        W35343  31.468  38.138  11.056
68561W        W35344  43.780   8.878  11.627
68562W        W35345   1.035  19.138   3.821
68563W        W35346   3.689  38.641  12.679
68564W        W35347   5.799  29.034   4.076
68565W        W35348  15.394  34.981  11.625
68566W        W35349  28.909  40.909  10.566
68567W        W35350  14.194  40.949   0.873
68568W        W35351  40.610  40.497   0.964
68569W        W35352   5.706  44.038  14.697
68570W        W35353  17.032  34.564  13.785
68571W        W35354   0.821  36.045  10.671
68572W        W35355   6.873  37.659  12.560
68573W        W35356  16.198  32.610   0.407
68574W        W35357  14.073   8.973  13.261
68575W        W35358  36.799  38.825   4.242
68576W        W35359  17.576  23.776  12.443
68577W        W35360   3.239  34.507  11.826
68578W        W35361  20.556  30.661  14.082
68579W        W35362   2.193  40.412  12.499
68580W        W35363  18.752  22.126  10.411
68581W        W35364  28.194   3.771   3.663
68582W        W35365  36.470   6.814   1.792
68583W        W35366   5.397   1.492  10.780
68584W        W35367  20.552  10.388   0.512
68585W        W35368  26.098   8.706   3.134
68586W        W35369  41.451  28.511  13.607
68587W        W35370  17.741  34.622   4.361
68588W        W35371  44.856   4.252   4.528
68589W        W35372  28.895  41.370   3.851
68590W        W35373   6.648  21.733   4.362
68591W        W35374   2.405  25.135  14.455
68592W        W35375   1.181  26.654  14.808
68593W        W35376  26.804  40.913   3.718
68594W        W35377  17.038  11.500  12.587
68595W        W35378  30.429   3.233  10.128
68596W        W35379  11.810   0.077   3.228
68597W        W35380   0.942  16.142   4.381
68598W        W35381  28.443  33.577   0.673
68599W        W35382   5.370  33.965  12.158
68600W        W35383  25.578  37.871   4.634
68601W        W35384  36.797  18.511   2.008
68602W        W35385  31.419  25.248  10.377
68603W        W35386  27.182   1.743  14.751
68604W        W35387  31.050   3.257   1.978
68605W        W35388   4.874  17.536   1.427
68606W        W35389   2.421  34.442  13.686
68607W        W35390  13.766  16.339  12.926
68608W        W35391  33.500  24.554   2.215
68609W        W35392  18.296  21.022   4.071
68610W        W35393  38.950   8.649  13.381
68611W        W35394  14.973  35.148   3.315
68612W        W35395  42.732  13.795   2.628
68613W        W35396  35.132  21.553  13.828
68614W        W35397  14.533  34.552  12.526
68615W        W35398  15.026  13.154  11.843
68616W        W35399  14.370   8.674  11.614
68617W        W35400  39.929  32.711  14.729
68618W        W35401  13.845  13.796  11.432
68619W        W35402  38.305  13.864  14.881
68620W        W35403  18.132   7.247  12.566
68621W        W35404  29.576  20.159  12.154
68622W        W35405  42.188  21.395  11.991
68623W        W35406  27.982  34.941  13.368
68624W        W35407  22.565  40.369   4.485
68625W        W35408  32.013  22.384  13.349
68626W        W35409  21.740   4.271  14.538
68627W        W35410  37.086  26.950   1.234
68628W        W35411  39.407  26.573   1.796
68629W        W35412   6.021  16.152   4.565
68630W        W35413  13.325  28.586  10.802
68631W        W35414  15.000  23.754  10.105
68632W        W35415  41.708  39.381  14.855
68633W        W35416  24.816   5.712   3.212
68634W        W35417  12.072  40.576  11.580
68635W        W35418  44.775  23.542  12.639
68636W        W35419  35.944   1.591  14.814
68637W        W35420  38.733  42.301  12.787
68638W        W35421   8.242  26.555   1.440
68639W        W35422  43.929   3.524   4.252
68640W        W35423  13.203  32.458  10.816
68641W        W35424  38.075  16.790   0.701
68642W        W35425  18.282  14.820  10.588
68643W        W35426  20.815  10.947   3.006
68644W        W35427  31.998  34.174  12.116
68645W        W35428   1.377  21.539  12.140
68646W        W35429  24.676  30.851  10.854
68647W        W35430  25.658   1.841  12.351
68648W        W35431   9.503  27.922   0.392
68649W        W35432  18.741  12.037  12.553
68650W        W35433  25.734  27.587   4.249
68651W        W35434  13.302  20.974   3.182
68652W        W35435  31.683  19.651   5.031
68653W        W35436  10.841   9.625   0.312
68654W        W35437  36.829  34.824  14.422
68655W        W35438  36.539  12.125   4.060
68656W        W35439  34.289  36.586   0.982
68657W        W35440  29.706   8.137  11.562
68658W        W35441  43.870  40.281   2.086
68659W        W35442  18.542  25.946  12.495
68660W        W35443  34.500  43.725   3.753
68661W        W35444  38.544  11.545   3.878
68662W        W35445  38.809   2.114   2.787
68663W        W35446  14.773  42.899   0.723
68664W        W35447  34.380  39.117  12.450
68665W        W35448  21.258  39.860   3.677
68666W        W35449   2.708  23.652  10.085
68667W        W35450  13.160  44.831   0.076
68668W        W35451  22.118  18.149  14.552
68669W        W35452  27.665  29.041   1.468
68670W        W35453   5.504  38.062  10.823
68671W        W35454  42.724  19.746   2.766
68672W        W35455  18.911  20.851   5.098
68673W        W35456   4.903  44.013   3.156
68674W        W35457   2.718  26.192  10.559
68675W        W35458   8.452  34.851   2.551
68676W        W35459  35.005  16.799  13.856
68677W        W35460  23.604  26.612   2.448
68678W        W35461  20.972   1.811  11.180
68679W        W35462  43.390  38.022   3.713
68680W        W35463  22.224  33.158   3.636
68681W        W35464  16.599   4.391  11.597
68682W        W35465  37.304   2.914   4.371
68683W        W35466  28.409  15.275   2.855
68684W        W35467  32.375   8.358  11.977
68685W        W35468  40.640  30.029  14.792
68686W        W35469   7.327   8.933   2.891
68687W        W35470  11.640  30.047  12.391
68688W        W35471  19.489  41.854  11.209
68689W        W35472  33.352  12.555  10.272
68690W        W35473  20.238   4.517   0.394
68691W        W35474   1.793  27.383   2.376
68692W        W35475  22.994  13.752  12.416
68693W        W35476  30.478  32.650   2.831
68694W        W35477  24.632  17.505   3.318
68695W        W35478   5.484   0.738  14.587
68696W        W35479  40.082  26.449  11.136
68697W        W35480  27.073  15.755  13.940
68698W        W35481   8.150  37.354   2.218
68699W        W35482  35.811  24.411  12.159
68700W        W35483  40.414  40.435   9.643
68701W        W35484  14.780   1.479  12.962
68702W        W35485  44.571   8.720  13.037
68703W        W35486  12.256  14.264   1.611
68704W        W35487  31.835  36.446  13.919
68705W        W35488   6.777   5.338  13.507
68706W        W35489  14.229   3.739   5.125
68707W        W35490  10.084   6.249   2.894
68708W        W35491  31.578  30.058  11.900
68709W        W35492  34.973   9.464  11.048
68710W        W35493  23.286   8.616   3.309
68711W        W35494   8.190   1.989   0.256
68712W        W35495  17.955  25.786   0.468
68713W        W35496  22.176   8.242   2.190
68714W        W35497  23.087  23.681  13.846
68715W        W35498   6.737  12.267  14.271
68716W        W35499  15.702  43.354  14.994
68717W        W35500   7.732  17.306  12.893
68718W        W35501  31.553  36.838  13.664
68719W        W35502   3.623  28.739   3.600
68720W        W35503  13.061  37.339  12.590
68721W        W35504  26.933  43.709   2.713
68722W        W35505  20.102   4.164  13.463
68723W        W35506  22.590  31.913  10.632
68724W        W35507  28.996  18.062   3.312
68725W        W35508  13.638  25.687   4.253
68726W        W35509  21.176  26.729  10.715
68727W        W35510   4.693   1.800   3.111
68728W        W35511  30.722   9.968   1.202
68729W        W35512  25.534  40.095   1.450
68730W        W35513  37.415  11.768  11.471
68731W        W35514  29.025  42.826  14.994
68732W        W35515  27.674  13.870   2.766
68733W        W35516  38.641  24.944   1.838
68734W        W35517  37.235   9.692  10.314
68735W        W35518  30.395  34.835  14.159
68736W        W35519   1.746  39.603  13.660
68737W        W35520  17.404  11.520   2.977
68738W        W35521  29.559  10.658   4.603
68739W        W35522  13.887  19.974  12.398
68740W        W35523   5.501  13.054  10.938
68741W        W35524  22.501   9.163  11.467
68742W        W35525  11.831  13.725   9.951
68743W        W35526   3.100  23.474  10.708
68744W        W35527  23.720  36.825   1.110
68745W        W35528  16.578   0.554  11.495
68746W        W35529  24.230  28.510  12.090
68747W        W35530   1.945  16.144   1.512
68748W        W35531  40.869  29.979  10.735
68749W        W35532  39.291  38.817   3.713
68750W        W35533  24.667  43.348   0.791
68751W        W35534  39.396  16.750   1.919
68752W        W35535  16.233   7.355  14.850
68753W        W35536  21.158  30.691   3.068
68754W        W35537  29.459  11.068   3.336
68755W        W35538  22.161   6.648  10.947
68756W        W35539  27.803   2.091  10.426
68757W        W35540  13.649  19.141   1.680
68758W        W35541  33.403   5.369  14.057
68759W        W35542  26.505  20.101  11.476
68760W        W35543  29.973  30.164   3.892
68761W        W35544  29.427   6.410   2.880
68762W        W35545  23.749  17.303  10.579
68763W        W35546  24.629   9.966   0.408
68764W        W35547  41.791   0.825   3.018
68765W        W35548  22.287  30.689   0.458
68766W        W35549  12.831  24.736   3.792
68767W        W35550   4.001  17.040   0.569
68768W        W35551  23.868   1.043  12.642
68769W        W35552  16.036  38.916   4.204
68770W        W35553  37.112  14.330   2.509
68771W        W35554  44.226   0.146   4.376
68772W        W35555  36.795  40.018   2.600
68773W        W35556   2.915   1.480  13.026
68774W        W35557  11.862  15.812   2.872
68775W        W35558  11.245   8.185   1.403
68776W        W35559  12.984   0.983   1.500
68777W        W35560   5.800  27.092   1.070
68778W        W35561  33.968   1.048  11.211
68779W        W35562   1.853  44.662  12.638
68780W        W35563   6.747  38.650  12.654
68781W        W35564   5.983  15.424   1.195
68782W        W35565  22.827   2.395   3.209
68783W        W35566  18.790   7.621  13.466
68784W        W35567   9.282  42.228   1.432
68785W        W35568  34.573  21.503  13.784
68786W        W35569  24.569  32.549   0.740
68787W        W35570  32.391  13.631   0.341
68788W        W35571   8.164  27.934  13.753
68789W        W35572  35.468  15.694   4.607
68790W        W35573  19.410  38.623  14.467
68791W        W35574  14.084  17.192  10.647
68792W        W35575  38.889  39.078  11.189
68793W        W35576   8.974  13.812  14.081
68794W        W35577  26.364  17.023   4.353
68795W        W35578  32.028  29.953  14.961
68796W        W35579  28.442  23.088  11.543
68797W        W35580  17.845  27.851  12.587
68798W        W35581  19.228   4.274   0.635
68799W        W35582  27.092  24.932   4.119
68800W        W35583  41.765   2.004  14.755
68801W        W35584  21.001   8.934   0.837
68802W        W35585  18.146  15.162   0.786
68803W        W35586  11.616  37.993  12.787
68804W        W35587  38.880  37.094  12.533
68805W        W35588  41.468  33.867   3.934
68806W        W35589  43.077  38.019  11.720
68807W        W35590  43.381  31.128  11.723
68808W        W35591  12.746  17.026  12.619
68809W        W35592   8.469  34.011   1.795
68810W        W35593  24.264  44.379  14.806
68811W        W35594  13.307  22.169  12.590
68812W        W35595  44.472  12.086   3.288
68813W        W35596   7.406  23.190  13.491
68814W        W35597  14.190  13.534  13.291
68815W        W35598   6.928   5.406   4.081
68816W        W35599  23.173  24.747   2.752
68817W        W35600  28.530  20.100   4.341
68818W        W35601  27.904  17.828   0.460
68819W        W35602  43.010  17.745   4.538
68820W        W35603  13.635  39.589   1.240
68821W        W35604  31.813  32.228   2.874
68822W        W35605  29.515  33.215  14.909
68823W        W35606  41.404   5.268  12.722
68824W        W35607   5.387  39.472  14.873
68825W        W35608  16.327  18.821   4.755
68826W        W35609   3.213  21.038   3.291
68827W        W35610  31.439  28.458   2.393
68828W        W35611  20.501  14.741   5.086
68829W        W35612  16.962  36.774   4.565
68830W        W35613  23.051  15.999  14.607
68831W        W35614  16.779  23.076   1.633
68832W        W35615  24.143  38.143  11.107
68833W        W35616  21.224  40.614  14.745
68834W        W35617  24.200  39.822   2.826
68835W        W35618   5.438  38.498  11.094
68836W        W35619   5.837   2.765   2.562
68837W        W35620  15.375  36.788  13.340
68838W        W35621  32.975  22.787   5.350
68839W        W35622  40.484  40.958  12.422
68840W        W35623  41.971  12.216   9.828
68841W        W35624  35.881  39.409   3.713
68842W        W35625  11.622  38.341  11.034
68843W        W35626   4.697  11.351  12.283
68844W        W35627  13.678  19.732  11.149
68845W        W35628  30.240  30.496   4.233
68846W        W35629  19.540   7.806  14.453
68847W        W35630  12.691  41.462   4.181
68848W        W35631   6.873   7.905   4.618
68849W        W35632  14.902  36.770  14.929
68850W        W35633  39.985  16.144  12.078
68851W        W35634  30.888  10.239  10.639
68852W        W35635  29.017  42.531  12.758
68853W        W35636  42.013  24.280   4.189
68854W        W35637  21.481  30.568   3.452
68855W        W35638  16.135  14.503   0.264
68856W        W35639  32.563  32.588  14.014
68857W        W35640  13.512  19.062  10.693
68858W        W35641  42.768   8.415   1.343
68859W        W35642  34.411   0.217   2.363
68860W        W35643  20.809  21.983  12.012
68861W        W35644   4.903  20.626   4.388
68862W        W35645  43.540   1.445   0.069
68863W        W35646  40.483  14.264  13.880
68864W        W35647   9.625  35.344   4.714
68865W        W35648  31.020   7.064   2.416
68866W        W35649  24.337   3.260  12.480
68867W        W35650  13.108   9.915   2.756
68868W        W35651  12.742   4.405  12.777
68869W        W35652  28.444   6.723  13.897
68870W        W35653  23.323   9.662  12.952
68871W        W35654  11.836  39.324   4.341
68872W        W35655   0.415   3.238  12.535
68873W        W35656  12.248   4.179  12.903
68874W        W35657  34.524  40.836   3.163
68875W        W35658   2.758  43.567   1.840
68876W        W35659  18.474  40.138   0.704
68877W        W35660  34.611  14.203  14.780
68878W        W35661   3.472   4.931   0.949
68879W        W35662  24.240  37.949   3.742
68880W        W35663  23.292   0.320  10.960
68881W        W35664  32.340   6.315   0.845
68882W        W35665   5.916  24.688  12.071
68883W        W35666  44.587  37.485   2.570
68884W        W35667  13.796  14.631  14.313
68885W        W35668  43.098  35.228   3.661
68886W        W35669  30.024  43.863  13.890
68887W        W35670  12.123   4.415  13.366
68888W        W35671  41.755  36.149   5.106
68889W        W35672  32.176   6.190   1.327
68890W        W35673   1.844  35.076  11.192
68891W        W35674  16.743  44.928  13.312
68892W        W35675  24.227   4.811  13.526
68893W        W35676  31.177   3.176  11.152
68894W        W35677  40.300   9.472  10.297
68895W        W35678  25.931   1.476  11.999
68896W        W35679   8.584  18.509   2.370
68897W        W35680   7.878  32.630  13.613
68898W        W35681  44.593  25.146   5.109
68899W        W35682  17.520  43.224  12.704
68900W        W35683  32.171  14.020   3.684
68901W        W35684  27.482  19.268  12.132
68902W        W35685   0.986  22.388  14.949
68903W        W35686  13.282   0.883   4.657
68904W        W35687  33.016  43.824  13.945
68905W        W35688  18.771  29.467  10.643
68906W        W35689  37.285  39.137   0.957
68907W        W35690  33.596  23.725   1.854
68908W        W35691  10.605   9.462  11.539
68909W        W35692  14.275  29.023   4.193
68910W        W35693  22.477  28.526  10.782
68911W        W35694  15.284  25.826  10.736
68912W        W35695  27.044   5.148  12.511
68913W        W35696  15.106  17.475   1.045
68914W        W35697  36.010  38.779  14.784
68915W        W35698  31.125  15.636   2.477
68916W        W35699  32.124   5.436   4.519
68917W        W35700  28.898  33.911  13.968
68918W        W35701   5.717  35.275   2.883
68919W        W35702  39.476  35.847   1.177
68920W        W35703  13.307  25.564   2.530
68921W        W35704   4.756   3.200  11.611
68922W        W35705  11.029  39.366  13.576
68923W        W35706  27.187  20.237   4.633
68924W        W35707  11.284  15.482  11.877
68925W        W35708  10.795  40.533  12.556
68926W        W35709   5.645  42.808  11.939
68927W        W35710   1.258  40.497   2.153
68928W        W35711   6.004  13.573  13.939
68929W        W35712  20.141  44.210   0.282
68930W        W35713  19.608   3.182  10.581
68931W        W35714  17.318  42.957   0.204
68932W        W35715  16.248  25.613   3.930
68933W        W35716  20.016  23.764   4.125
68934W        W35717  44.010   1.814   4.283
68935W        W35718  29.260  39.769   2.267
68936W        W35719   2.333  37.402  11.936
68937W        W35720  43.301  11.105   2.199
68938W        W35721  30.057   4.149   1.206
68939W        W35722  41.912  24.156   1.250
68940W        W35723  10.107  22.083  12.996
68941W        W35724  22.131  22.975   1.806
68942W        W35725  15.780  18.857   5.007
68943W        W35726  40.828   7.482   2.873
68944W        W35727  32.608  20.513  11.538
68945W        W35728  36.887   8.759  14.963
68946W        W35729  15.823   5.935   1.525
68947W        W35730  38.189  15.137   1.013
68948W        W35731  19.169  42.781  12.960
68949W        W35732   8.256   2.504  11.570
68950W        W35733  26.515  38.785   0.375
68951W        W35734  23.193  39.768  13.585
68952W        W35735   0.965  17.155  14.934
68953W        W35736  11.545  16.269  12.664
68954W        W35737   3.303  22.398   4.034
68955W        W35738  34.451   0.864   0.922
68956W        W35739  15.854  40.395  11.857
68957W        W35740  23.971   7.709  13.578
68958W        W35741   7.909  12.716   1.366
68959W        W35742  17.738  37.936  13.481
68960W        W35743  19.290  30.057  14.329
68961W        W35744   8.008   7.787  13.686
68962W        W35745  40.968   0.247   4.193
68963W        W35746   7.560  20.595   1.310
68964W        W35747  38.279  28.665  13.422
68965W        W35748  28.992  23.111   4.227
68966W        W35749  26.620  42.939  11.971
68967W        W35750  32.146  20.491  12.589
68968W        W35751  15.698  36.451  13.043
68969W        W35752  26.713  41.426  14.077
68970W        W35753   2.922  10.711   1.207
68971W        W35754  39.376  42.253   0.685
68972W        W35755   6.103   4.455   3.287
68973W        W35756   8.699  29.994   1.883
68974W        W35757  28.625  30.142  12.389
68975W        W35758  30.877  40.908   3.429
68976W        W35759  29.458  13.319  13.151
68977W        W35760  10.166  12.608   3.686
68978W        W35761  18.685  31.176   4.217
68979W        W35762   7.276   6.654  10.797
68980W        W35763  41.888  39.779  12.009
68981W        W35764  10.950  32.803  13.508
68982W        W35765  32.607  19.293  12.134
68983W        W35766   0.365   6.559  11.040
68984W        W35767   1.211  44.646   3.642
68985W        W35768  10.585  36.435  13.607
68986W        W35769   5.712  40.368  12.439
68987W        W35770  19.626  14.303  14.760
68988W        W35771  28.698  12.669  13.249
68989W        W35772  22.413  11.341  11.612
68990W        W35773  30.942  38.867   3.201
68991W        W35774  32.219  42.019   3.385
68992W        W35775  29.949  12.377   2.574
68993W        W35776  35.511   3.178  14.283
68994W        W35777   6.896  13.885  12.097
68995W        W35778  23.362  27.129   4.157
68996W        W35779  32.209  34.993  12.491
68997W        W35780  35.978  23.208   0.329
68998W        W35781  20.376  39.770  11.040
68999W        W35782  14.404  32.185   5.001
69000W        W35783  16.361  37.311  12.610
69001W        W35784   2.037  31.510   4.342
69002W        W35785  23.665  19.217   0.286
69003W        W35786   0.304  17.087   2.721
69004W        W35787  26.886  22.804  13.510
69005W        W35788   6.995   0.083  10.414
69006W        W35789  13.664  38.091   2.305
69007W        W35790  18.784  11.540  13.508
69008W        W35791  31.201  13.275   1.703
69009W        W35792   7.385  32.404  14.463
69010W        W35793  25.990  29.741  13.857
69011W        W35794  39.501  12.108  13.495
69012W        W35795  22.653   3.741  14.422
69013W        W35796   4.857  37.483  13.274
69014W        W35797  25.654   9.318  12.601
69015W        W35798  20.167  42.072   3.688
69016W        W35799  40.888   6.983  12.246
69017W        W35800  38.544  17.094   1.327
69018W        W35801  36.561  10.780   4.843
69019W        W35802  37.951  26.574  12.775
69020W        W35803   5.678   5.179   2.518
69021W        W35804  37.835  37.350  11.156
69022W        W35805  33.310  21.768  12.938
69023W        W35806  42.338  43.227   0.922
69024W        W35807  17.052  28.333   3.662
69025W        W35808   4.827  30.444  10.664
69026W        W35809  34.949  10.628   5.171
69027W        W35810   8.790  43.106  12.287
69028W        W35811  20.251  34.298  12.958
69029W        W35812  29.425  17.969  11.998
69030W        W35813  28.262  34.379  13.394
69031W        W35814  43.432   9.256  11.236
69032W        W35815   8.477  39.992   2.859
69033W        W35816   8.573  20.644   4.914
69034W        W35817  40.608   3.353  14.057
69035W        W35818   7.267   9.498   4.805
69036W        W35819  39.387  15.653   2.846
69037W        W35820  15.227  34.173  12.929
69038W        W35821  28.865  27.611   1.161
69039W        W35822  12.204  42.000  12.014
69040W        W35823  19.703  33.353  11.943
69041W        W35824  13.236   4.787  13.474
69042W        W35825   9.200   7.559   1.336
69043W        W35826  28.206  43.921   4.001
69044W        W35827  28.538  35.510   2.366
69045W        W35828  18.801  35.851  14.365
69046W        W35829  29.947   9.394   2.524
69047W        W35830  22.136   8.685  13.529
69048W        W35831  23.120  37.757   3.166
69049W        W35832  35.960  31.046   2.457
69050W        W35833  15.171   6.462  12.302
69051W        W35834  20.491  41.822  14.406
69052W        W35835  21.146  28.712   3.713
69053W        W35836  12.344   3.206   2.618
69054W        W35837  10.084  34.954  11.450
69055W        W35838  40.528  11.037  11.858
69056W        W35839  14.378   0.358   2.689
69057W        W35840  41.923  38.969   4.546
69058W        W35841  16.166  10.821   2.238
69059W        W35842   6.839  39.884   0.637
69060W        W35843  43.285   6.524   5.408
69061W        W35844   8.128  15.243  14.933
69062W        W35845  15.455  24.622   3.505
69063W        W35846   6.058  24.696  14.773
69064W        W35847  37.084   3.595   2.762
69065W        W35848  24.132  15.282  11.529
69066W        W35849   7.300  14.110  12.696
69067W        W35850   6.406  40.952   0.193
69068W        W35851  24.748   2.865  12.940
69069W        W35852   7.917  33.417  11.240
69070W        W35853  43.069  36.313   0.917
69071W        W35854  22.016   8.203   4.931
69072W        W35855  36.195  12.391   1.185
69073W        W35856  35.555  16.192   4.483
69074W        W35857   3.314  37.771   2.619
69075W        W35858  13.308  24.011   1.804
69076W        W35859   9.687   3.005  14.264
69077W        W35860  30.751  27.079  11.674
69078W        W35861  35.359  42.752   1.840
69079W        W35862  39.025  36.434   0.050
69080W        W35863  28.529  10.704   3.112
69081W        W35864  17.367   2.217   0.801
69082W        W35865  17.099  12.333  14.265
69083W        W35866   8.442  43.856   4.863
69084W        W35867   0.681  25.457  14.504
69085W        W35868  31.079  44.719   3.225
69086W        W35869   5.965  44.801   1.274
69087W        W35870  41.953  25.032  14.226
69088W        W35871  37.487  31.487   2.818
69089W        W35872  17.242  11.103  14.996
69090W        W35873  23.508  21.008   1.793
69091W        W35874  11.120  12.668   4.055
69092W        W35875  39.443  41.503  13.485
69093W        W35876  37.977  20.174  12.823
69094W        W35877  43.793  23.870  10.766
69095W        W35878  28.771  39.275  11.023
69096W        W35879  22.870  36.465   4.500
69097W        W35880   9.457  26.176  12.636
69098W        W35881   5.178   6.200  12.103
69099W        W35882  43.833  44.989  14.374
69100W        W35883  15.565   2.864  10.997
69101W        W35884  23.183   8.886  10.812
69102W        W35885  35.657   0.527  13.548
69103W        W35886  43.706  18.199   5.283
69104W        W35887   2.004  44.257   4.038
69105W        W35888  41.333  22.718  10.988
69106W        W35889   1.314  35.494   1.165
69107W        W35890  42.759  10.191  14.226
69108W        W35891  11.640  41.489  10.989
69109W        W35892  25.123  42.025   1.757
69110W        W35893  40.868  22.603  10.836
69111W        W35894  18.514  37.860   1.798
69112W        W35895  17.278  23.964  10.726
69113W        W35896  33.149  35.895  12.853
69114W        W35897  40.387  13.316  14.009
69115W        W35898  18.491  30.284  14.453
69116W        W35899  29.363  36.571   2.752
69117W        W35900  16.339  35.617   4.259
69118W        W35901  23.617   6.706   4.723
69119W        W35902  23.079  21.282  14.868
69120W        W35903  29.579   3.916   1.961
69121W        W35904  43.064  44.489  12.455
69122W        W35905  10.794   2.911  14.653
69123W        W35906   7.646  13.520   0.771
69124W        W35907  32.456  11.256  14.953
69125W        W35908  21.488  19.721  14.267
69126W        W35909   5.726  22.794   4.052
69127W        W35910  28.863   4.548  14.744
69128W        W35911  38.396  18.216  13.110
69129W        W35912  29.024  40.769   1.673
69130W        W35913  19.075   7.978   0.862
69131W        W35914  37.646  41.955   4.280
69132W        W35915  38.865  29.707  12.933
69133W        W35916  22.157   0.961  14.523
69134W        W35917  32.872   4.537  13.993
69135W        W35918  28.482  33.140   0.342
69136W        W35919  30.347  40.049   5.481
69137W        W35920  26.060   4.557   0.353
69138W        W35921  44.512  29.752   3.224
69139W        W35922  40.088  37.763  10.756
69140W        W35923   1.985  11.186  13.454
69141W        W35924  42.302  40.106  14.323
69142W        W35925  38.810  29.551  10.608
69143W        W35926  21.179  27.098  14.000
69144W        W35927   9.333   4.254  12.979
69145W        W35928  13.507  33.919  13.534
69146W        W35929  11.154  21.520  11.896
69147W        W35930   0.838  43.365   3.295
69148W        W35931   6.164  30.863  10.869
69149W        W35932   3.279   1.248  13.325
69150W        W35933  28.594  29.064   3.853
69151W        W35934  29.207  41.625   5.101
69152W        W35935  20.239  40.539   2.777
69153W        W35936  22.541  30.159   4.117
69154W        W35937   3.353  18.359  13.077
69155W        W35938  12.036  26.503  11.088
69156W        W35939  27.242  20.653   2.283
69157W        W35940   5.262  30.044  13.579
69158W        W35941  12.292  31.689   3.298
69159W        W35942  14.412  22.899  13.759
69160W        W35943   3.551  38.525   1.921
69161W        W35944   0.929   9.509   2.241
69162W        W35945   5.432   9.280   0.893
69163W        W35946   4.624  22.522   1.389
69164W        W35947  34.396  41.422   3.847
69165W        W35948  36.955  29.637   2.305
69166W        W35949   6.464  39.047   0.408
69167W        W35950  17.030  35.899   4.525
69168W        W35951  23.923  37.547   5.206
69169W        W35952  33.916  41.372   0.318
69170W        W35953  10.165  32.534   4.577
69171W        W35954   4.553  11.652  10.558
69172W        W35955  13.368  25.235   4.345
69173W        W35956  31.882   3.941   4.719
69174W        W35957  34.133   8.269  14.912
69175W        W35958  27.658  16.997  12.047
69176W        W35959  15.603  27.677   3.227
69177W        W35960  43.306  37.979   0.009
69178W        W35961   5.153  41.166  14.904
69179W        W35962   1.965  44.736  12.146
69180W        W35963   6.407   2.460   1.721
69181W        W35964  12.266  16.058  10.628
69182W        W35965  25.852  25.793   2.540
69183W        W35966  24.747  21.051  11.448
69184W        W35967   4.703  10.653  11.653
69185W        W35968   5.232  21.676  13.988
69186W        W35969   4.226  10.577  13.374
69187W        W35970  33.360  21.580  11.630
69188W        W35971  42.279  36.624  12.066
69189W        W35972  36.573  29.062  12.363
69190W        W35973  15.690   8.307   1.505
69191W        W35974  31.943  13.125  14.962
69192W        W35975  11.815   7.697   1.745
69193W        W35976  41.115  15.837   0.210
69194W        W35977   8.749  27.405  13.570
69195W        W35978  30.125  28.021  12.567
69196W        W35979   6.354   9.784  13.536
69197W        W35980  18.112  36.864   0.933
69198W        W35981  21.144  24.218  10.270
69199W        W35982  29.378  24.598   2.842
69200W        W35983  26.445  38.356   4.253
69201W        W35984  29.233  34.886   0.348
69202W        W35985  12.587  15.772   0.290
69203W        W35986  16.582  24.489   1.666
69204W        W35987  16.838   4.768  14.734
69205W        W35988  33.427  27.641  11.514
69206W        W35989  42.584  44.571   2.398
69207W        W35990  33.292  40.014  12.902
69208W        W35991   0.603  22.229   4.589
69209W        W35992  24.221  12.917   4.151
69210W        W35993  12.718  43.822   2.345
69211W        W35994  43.790  38.213  11.027
69212W        W35995   0.904   7.142  10.397
69213W        W35996  13.643  29.440   4.261
69214W        W35997  25.537   8.765  14.767
69215W        W35998   3.034  11.171   0.921
69216W        W35999   9.642   2.727  12.757
69217W        W36000  23.565   6.804  13.974
69218W        W36001  23.577  32.942  12.802
69219W        W36002  17.129  26.119   2.828
69220W        W36003  15.812  20.233   0.959
69221W        W36004  42.946  34.008   4.527
69222W        W36005  40.956  22.586  11.341
69223W        W36006  42.886  33.524   3.182
69224W        W36007   9.850  23.980   2.781
69225W        W36008  43.775  23.489   0.867
69226W        W36009  17.360  40.261  11.118
69227W        W36010   8.389   6.282   3.178
69228W        W36011  27.117  26.986   1.350
69229W        W36012  31.379  43.908   2.273
69230W        W36013  22.161  41.550   0.192
69231W        W36014  16.623  26.239   2.919
69232W        W36015  40.375  16.286  11.596
69233W        W36016  21.047   0.598  14.720
69234W        W36017  31.345  34.497   0.361
69235W        W36018   4.280   6.426   1.421
69236W        W36019  33.433   7.634  14.761
69237W        W36020   0.289  34.822  12.405
69238W        W36021  29.040  10.346  11.277
69239W        W36022  12.384  22.831   3.616
69240W        W36023  32.151  36.024   1.195
69241W        W36024  39.767  44.032   0.815
69242W        W36025  18.962  25.042  14.272
69243W        W36026  16.855   6.717  11.968
69244W        W36027   6.796  15.082   1.727
69245W        W36028  37.450  41.481   4.466
69246W        W36029  27.214  37.332  13.870
69247W        W36030   9.841  12.574   3.283
69248W        W36031  14.015  27.393  14.282
69249W        W36032   7.374  32.239  13.241
69250W        W36033  13.042   2.365   0.799
69251W        W36034   1.950  40.391   1.138
69252W        W36035  44.258  25.055  13.868
69253W        W36036  39.483  24.280   2.157
69254W        W36037   5.399   6.479  14.359
69255W        W36038  12.826   2.276  14.271
69256W        W36039  19.556  29.953  11.907
69257W        W36040  29.127  14.666  13.236
69258W        W36041   9.294  30.372   0.253
69259W        W36042  13.130  32.116  13.876
69260W        W36043  20.243   4.793  14.928
69261W        W36044  41.904  31.694  12.523
69262W        W36045   1.507  36.668  10.661
69263W        W36046  23.273  43.876  12.834
69264W        W36047  22.550  35.648  11.992
69265W        W36048  28.566  10.308  14.044
69266W        W36049  11.090  11.991  12.214
69267W        W36050  11.418  40.776   0.517
69268W        W36051  27.049  14.417  10.686
69269W        W36052  17.306  28.076  11.984
69270W        W36053  25.315  43.401  13.041
69271W        W36054  18.076  24.881   4.042
69272W        W36055  24.769  16.605   4.627
69273W        W36056  19.584  31.234   2.239
69274W        W36057  15.191  28.538  14.752
69275W        W36058   7.697   2.921  14.411
69276W        W36059  10.059  33.368   4.251
69277W        W36060  17.683  44.538  10.125
69278W        W36061  13.141  24.337   4.538
69279W        W36062   1.321  19.174   1.192
69280W        W36063  42.433   7.219   0.867
69281W        W36064  25.282   8.758  12.443
69282W        W36065  39.343  34.930   1.376
69283W        W36066  37.073  27.354  11.605
69284W        W36067  40.278  32.617   0.801
69285W        W36068  42.285   1.696   0.772
69286W        W36069  28.634  30.314  14.280
69287W        W36070  25.204  42.386   3.560
69288W        W36071  21.107  26.659  11.632
69289W        W36072  25.711  18.632   3.291
69290W        W36073   1.275   1.525   2.748
69291W        W36074  33.862  22.114   4.992
69292W        W36075  43.739  39.422   2.285
69293W        W36076  25.572  12.901   0.011
69294W        W36077   4.171   7.124   3.681
69295W        W36078   6.651  26.548  10.736
69296W        W36079   9.676  10.680  14.464
69297W        W36080  12.246  23.559   1.197
69298W        W36081  18.228  19.687   0.860
69299W        W36082  44.796  14.336  14.881
69300W        W36083   1.958  28.074   0.412
69301W        W36084  33.129  35.421  11.555
69302W        W36085  33.970  21.583   0.424
69303W        W36086   6.411  24.038  12.531
69304W        W36087  29.001  43.682   2.013
69305W        W36088  35.504   3.399   9.962
69306W        W36089  24.077  34.543  13.494
69307W        W36090   6.806   0.271   1.622
69308W        W36091   9.601  33.810  10.721
69309W        W36092   4.462  12.791  11.588
69310W        W36093  11.653   1.020   0.230
69311W        W36094  41.305  28.479   1.870
69312W        W36095  18.163   2.936  11.128
69313W        W36096  17.835  37.383   5.112
69314W        W36097  31.487   5.974  13.370
69315W        W36098   0.366  10.117  12.983
69316W        W36099  27.311  36.803   0.425
69317W        W36100   6.939  31.007   2.209
69318W        W36101  16.285  18.793  11.723
69319W        W36102   2.470  16.214   1.425
69320W        W36103  28.095   2.884  11.170
69321W        W36104  28.253  18.841  11.964
69322W        W36105  15.089  22.082  12.445
69323W        W36106  30.652  25.957   4.581
69324W        W36107  22.157  38.958   4.073
69325W        W36108   4.862   3.019   4.528
69326W        W36109  20.773  31.020   1.267
69327W        W36110  43.503  33.878  13.905
69328W        W36111   3.722  14.040  10.506
69329W        W36112  41.648  33.920  14.899
69330W        W36113  24.246   4.209   2.323
69331W        W36114  32.571  13.188   3.802
69332W        W36115  28.854  33.792  11.157
69333W        W36116  42.407  38.847   4.333
69334W        W36117  17.049  37.488   5.068
69335W        W36118  13.014  26.518   2.871
69336W        W36119  26.490  31.616  12.981
69337W        W36120   6.913  20.709   1.360
69338W        W36121  30.953  42.052  11.204
69339W        W36122  21.016  11.958  11.148
69340W        W36123  19.173  11.858   2.475
69341W        W36124  11.174  39.062   3.318
69342W        W36125   2.882  34.629  13.574
69343W        W36126  21.946  41.558   0.668
69344W        W36127  26.443  25.469   0.362
69345W        W36128  43.333  41.176  11.188
69346W        W36129   1.242  44.114   3.711
69347W        W36130  37.928  12.090  12.490
69348W        W36131  44.847  28.528  13.869
69349W        W36132  17.768  17.658   0.737
69350W        W36133   4.502  40.057  11.144
69351W        W36134  15.862  44.825   0.624
69352W        W36135  22.213  19.339  12.455
69353W        W36136  27.655  19.121   4.897
69354W        W36137  14.182  17.464   0.985
69355W        W36138  31.235  15.400   3.823
69356W        W36139   8.788  21.327   3.691
69357W        W36140  13.245  14.294   1.279
69358W        W36141  26.150  37.067   2.196
69359W        W36142  30.100  41.794   3.133
69360W        W36143  19.214   3.754   3.352
69361W        W36144  41.030  15.279  14.941
69362W        W36145  39.441  35.854   4.207
69363W        W36146  35.923   1.453   3.797
69364W        W36147  29.543  34.950  14.506
69365W        W36148  26.665  36.439   1.811
69366W        W36149  28.469  30.526   3.955
69367W        W36150   6.131  16.254   0.413
69368W        W36151  40.381  16.049   4.172
69369W        W36152   9.309  29.806  13.037
69370W        W36153   9.416  25.969   4.288
69371W        W36154  28.074  11.839  12.424
69372W        W36155  22.924  20.295   3.556
69373W        W36156  34.624   6.474   2.239
69374W        W36157  11.691  20.096  13.917
69375W        W36158  34.445  23.534  11.609
69376W        W36159  29.005  10.128   0.950
69377W        W36160  41.451  40.911   1.209
69378W        W36161  25.669  31.006   3.683
69379W        W36162  38.206  37.598   4.540
69380W        W36163  21.749  36.638  14.875
69381W        W36164  41.880   6.621  12.492
69382W        W36165  40.563  10.199   0.402
69383W        W36166   5.427  13.757   3.191
69384W        W36167  34.590  22.398  10.777
69385W        W36168  15.219  18.195  10.713
69386W        W36169   1.665  39.775  14.524
69387W        W36170  28.195  20.808   0.429
69388W        W36171  24.935  29.948  11.580
69389W        W36172  22.929  44.800  14.852
69390W        W36173   2.490  14.545  11.477
69391W        W36174  15.265  21.643  12.682
69392W        W36175  32.828  17.246  14.248
69393W        W36176   1.949   4.862   0.721
69394W        W36177  10.373   3.358   0.726
69395W        W36178  21.664  33.323  12.080
69396W        W36179  41.285  23.238  11.626
69397W        W36180  19.117  23.720  11.526
69398W        W36181  18.506  32.932   3.785
69399W        W36182  18.676   1.788  10.650
69400W        W36183  43.892  38.170   4.332
69401W        W36184  32.514  33.374  13.502
69402W        W36185  37.418  11.794   0.218
69403W        W36186  22.701  39.466  14.420
69404W        W36187   6.406   4.772  11.469
69405W        W36188   5.674  19.582  13.452
69406W        W36189  33.802   5.337  12.474
69407W        W36190  38.870  15.389  12.589
69408W        W36191  42.285  18.497   0.757
69409W        W36192  25.389  14.317   5.103
69410W        W36193  33.612  33.980  14.680
69411W        W36194  29.488  21.475  14.891
69412W        W36195  14.996   9.896   0.392
69413W        W36196  11.533   3.040  13.858
69414W        W36197  28.626  13.328   4.399
69415W        W36198  16.211  23.771   2.584
69416W        W36199  12.067  35.049  13.429
69417W        W36200  41.342  37.397  12.380
69418W        W36201   2.434  38.484  13.903
69419W        W36202  21.021   2.387   0.780
69420W        W36203  11.141  30.205  13.789
69421W        W36204   6.835  21.204   2.289
69422W        W36205  14.912  11.699   1.032
69423W        W36206  23.080  35.783  11.936
69424W        W36207  27.380  29.524   3.847
69425W        W36208  35.619  39.868  12.507
69426W        W36209  23.577   8.154   1.659
69427W        W36210   2.858  29.086   0.383
69428W        W36211  12.069   8.673   1.872
69429W        W36212  11.394  23.715  12.762
69430W        W36213  24.978  24.923   1.255
69431W        W36214  14.766  12.670   1.133
69432W        W36215  15.372  19.104  12.103
69433W        W36216  27.612  20.971  14.788
69434W        W36217  31.225   1.235   3.394
69435W        W36218  18.655  18.199   4.843
69436W        W36219  27.394  14.131   1.272
69437W        W36220  21.686  12.627  14.003
69438W        W36221  14.863  29.445  12.108
69439W        W36222   1.700   3.352  10.677
69440W        W36223  30.501  30.290  11.660
69441W        W36224  17.672  23.905   2.718
69442W        W36225  17.679  43.231   1.554
69443W        W36226   2.834  37.497  13.571
69444W        W36227  36.881  28.067  10.812
69445W        W36228  11.625  11.107   2.791
69446W        W36229  28.165   4.198   4.939
69447W        W36230  26.118  15.178  13.495
69448W        W36231   4.428  11.474  11.524
69449W        W36232  36.550   1.185  13.483
69450W        W36233  43.881  36.055  13.666
69451W        W36234  17.848  42.007  10.668
69452W        W36235   2.998  36.603  13.373
69453W        W36236  23.926  25.135  11.777
69454W        W36237  28.490  13.572   3.313
69455W        W36238  19.841  40.667  13.904
69456W        W36239  32.654  13.999   2.729
69457W        W36240  34.428   3.720   4.554
69458W        W36241   3.001  17.152   0.599
69459W        W36242  24.159  10.903  12.816
69460W        W36243   5.410   6.948  11.570
69461W        W36244   8.111  11.760   0.582
69462W        W36245  21.583  18.205  12.845
69463W        W36246  22.101  44.901   0.792
69464W        W36247  33.054  43.193  11.606
69465W        W36248  28.066  31.494   4.150
69466W        W36249  38.196  18.783   3.340
69467W        W36250   5.854  20.874  12.500
69468W        W36251  14.289   3.661   2.956
69469W        W36252   4.193  44.041   1.191
69470W        W36253   7.983   7.841  10.887
69471W        W36254  40.402   0.284  10.645
69472W        W36255  21.220  16.657   1.505
69473W        W36256  22.584   0.789   2.124
69474W        W36257  28.181  30.179   3.289
69475W        W36258  10.578  44.355  12.575
69476W        W36259  43.334  20.509   1.840
69477W        W36260   9.678  25.016   4.228
69478W        W36261  24.092  19.258   1.877
69479W        W36262   3.988  29.999   3.670
69480W        W36263   1.382  29.966  14.394
69481W        W36264  14.158  38.780   1.923
69482W        W36265  20.657  36.311  11.999
69483W        W36266  41.886   4.317   2.126
69484W        W36267   6.245   8.015   2.952
69485W        W36268   4.238   0.465  11.571
69486W        W36269  27.017  18.067   2.485
69487W        W36270  26.244  13.338  12.883
69488W        W36271  37.348  13.232   0.282
69489W        W36272  34.454   6.432   4.104
69490W        W36273  10.280   7.229   0.852
69491W        W36274  35.569  20.780  11.008
69492W        W36275  10.373   3.657  10.762
69493W        W36276  42.258  20.669   4.590
69494W        W36277  22.345   9.037  10.313
69495W        W36278  28.061  26.761  14.634
69496W        W36279   4.335   4.442   0.897
69497W        W36280   8.185  35.945  13.474
69498W        W36281   2.452  41.778   0.846
69499W        W36282  38.485   6.344  10.956
69500W        W36283  41.731   8.381  11.272
69501W        W36284   8.186  13.195   0.939
69502W        W36285   7.246   9.172   1.278
69503W        W36286  35.459  31.681   4.621
69504W        W36287  33.351  38.422  11.573
69505W        W36288  28.442  17.103  11.633
69506W        W36289  40.215  42.697   1.927
69507W        W36290   6.207  15.804   1.690
69508W        W36291  17.248  17.332  11.227
69509W        W36292  33.080   8.881  10.847
69510W        W36293  29.061  21.274  11.142
69511W        W36294  43.018  10.341   3.133
69512W        W36295  34.859  43.271  11.938
69513W        W36296  31.613  27.363   0.392
69514W        W36297  30.390  35.791  10.728
69515W        W36298  29.547  12.024   1.674
69516W        W36299  44.887  40.954  11.983
69517W        W36300  22.027  32.567   4.572
69518W        W36301  16.454  14.637   3.742
69519W        W36302  27.861  19.632  12.782
69520W        W36303   1.127  39.307   0.872
69521W        W36304   2.266  39.997   3.091
69522W        W36305  15.104   3.680   2.377
69523W        W36306  40.074  37.036   0.367
69524W        W36307  41.865  38.513  10.625
69525W        W36308   7.676  42.143   3.269
69526W        W36309   4.889  42.470   2.152
69527W        W36310  16.489  23.213  10.988
69528W        W36311  18.674   8.668  11.718
69529W        W36312  26.925  24.948  14.554
69530W        W36313  17.561  33.953  10.499
69531W        W36314   0.266   3.227  14.091
69532W        W36315  15.299  16.848  13.066
69533W        W36316   1.381  13.432  14.823
69534W        W36317  23.903   3.239  12.944
69535W        W36318  32.108  33.694   3.524
69536W        W36319  10.877  10.684   3.652
69537W        W36320  22.926  39.440  14.955
69538W        W36321   4.228  22.090   2.606
69539W        W36322  44.474  37.090  11.936
69540W        W36323  43.263   8.832  11.620
69541W        W36324  23.159  18.149  14.320
69542W        W36325  28.170  33.456   2.582
69543W        W36326  36.861  32.567  12.994
69544W        W36327  11.721  38.895   2.107
69545W        W36328   4.915  26.193   4.159
69546W        W36329  16.792  12.428  12.958
69547W        W36330  26.980  14.067  11.051
69548W        W36331   5.909  12.670   2.439
69549W        W36332  36.808   1.024   2.273
69550W        W36333  38.996  24.133   0.864
69551W        W36334  22.105  18.148  13.452
69552W        W36335  36.104   4.777   3.184
69553W        W36336  11.252  28.134   2.880
69554W        W36337   8.350  11.114  11.465
69555W        W36338  26.378  43.040  13.499
69556W        W36339  27.058   7.607   1.797
69557W        W36340  42.316   3.531  10.598
69558W        W36341  19.284  19.206   1.471
69559W        W36342  21.634  18.317  13.343
69560W        W36343  10.270   2.760  12.868
69561W        W36344  16.818  38.477   3.280
69562W        W36345  22.897  32.970   1.470
69563W        W36346  13.603  19.192   0.377
69564W        W36347  38.932  10.290  13.877
69565W        W36348  36.622  31.559   2.805
69566W        W36349  22.153  24.338  11.905
69567W        W36350  30.916  17.210   2.658
69568W        W36351  19.723   2.194   0.380
69569W        W36352  42.535  20.138   1.022
69570W        W36353  44.310  21.268   1.721
69571W        W36354  24.140  26.915  14.946
69572W        W36355   8.327  42.300   4.620
69573W        W36356   1.826   2.012  11.875
69574W        W36357  30.478  24.221   3.758
69575W        W36358  37.585  42.798  12.096
69576W        W36359  27.790  30.428  11.430
69577W        W36360  21.676  31.472   3.948
69578W        W36361  38.507   9.862  14.791
69579W        W36362  27.516  42.850   1.698
69580W        W36363   9.216  25.959   3.187
69581W        W36364  42.044   6.842   1.217
69582W        W36365  35.407  30.079  12.497
69583W        W36366  31.552   5.081  14.361
69584W        W36367  41.443   0.438  14.272
69585W        W36368  13.223  22.940   3.130
69586W        W36369  28.202  16.019  14.100
69587W        W36370  16.261   3.320   2.720
69588W        W36371   9.044  29.538   0.716
69589W        W36372  44.674   0.799  10.192
69590W        W36373  16.090  26.062   0.285
69591W        W36374   0.544   0.366   2.699
69592W        W36375  40.237   8.641   4.662
69593W        W36376  31.057  33.955   1.325
69594W        W36377  14.513   7.786  12.589
69595W        W36378  17.153   9.587   1.815
69596W        W36379  30.660   6.679   0.384
69597W        W36380   9.175  17.161  14.450
69598W        W36381  32.025  17.744   0.556
69599W        W36382  29.166   3.654  11.637
69600W        W36383  35.001  19.555   4.056
69601W        W36384   9.368  29.166   1.735
69602W        W36385   6.949  41.371  13.962
69603W        W36386  41.451  22.460  13.071
69604W        W36387  29.855   9.201  11.107
69605W        W36388  24.222   3.946   3.344
69606W        W36389  22.782  11.764  14.794
69607W        W36390  34.430  37.220   2.288
69608W        W36391  18.193   3.486   0.298
69609W        W36392  26.894  35.419   0.341
69610W        W36393   9.637  16.569  13.122
69611W        W36394  19.204  22.815  11.961
69612W        W36395   4.040  16.356   4.859
69613W        W36396  14.602   3.772   4.745
69614W        W36397  16.874  28.147   1.449
69615W        W36398  37.940  17.224  12.090
69616W        W36399  29.762  24.764  12.939
69617W        W36400  16.509  27.004   3.863
69618W        W36401  44.402   0.439   0.443
69619W        W36402  15.892  44.231   4.565
69620W        W36403  20.266  44.789  14.571
69621W        W36404  14.777  20.823   3.311
69622W        W36405  21.751  33.823  11.960
69623W        W36406   0.879  27.298  13.672
69624W        W36407  38.048   6.945   2.184
69625W        W36408  13.898  28.685  14.552
69626W        W36409  35.854  30.444  11.008
69627W        W36410  35.942  12.313   4.876
69628W        W36411  21.392  23.451  12.662
69629W        W36412  17.685  16.349   5.015
69630W        W36413  17.149  18.774  11.568
69631W        W36414   9.176  30.069   0.739
69632W        W36415  21.206  11.270   1.871
69633W        W36416  27.723  17.599   4.344
69634W        W36417  21.120  12.090   0.509
69635W        W36418  19.976  18.040   3.252
69636W        W36419  14.285  38.278   2.808
69637W        W36420   6.809  34.408  14.662
69638W        W36421  19.732   4.038  13.778
69639W        W36422  20.719   3.782  14.087
69640W        W36423  18.293   9.225   2.373
69641W        W36424  36.288  41.701  12.549
69642W        W36425  32.975  35.101   2.237
69643W        W36426  14.930  37.470   4.094
69644W        W36427  41.366  26.774  14.286
69645W        W36428  27.220  30.987   1.631
69646W        W36429  14.829  40.500  10.342
69647W        W36430  24.984  41.921  13.194
69648W        W36431  29.882  37.060  10.599
69649W        W36432  19.690  40.948  12.971
69650W        W36433  15.258  35.799  11.246
69651W        W36434  44.406   7.114  13.915
69652W        W36435   5.157   2.419   2.172
69653W        W36436  13.180  21.676   2.623
69654W        W36437   0.140  14.629   4.500
69655W        W36438  43.212  15.033   4.819
69656W        W36439  14.830  15.718  11.523
69657W        W36440   2.338  40.567   1.458
69658W        W36441  31.522  14.477  13.005
69659W        W36442  36.733  17.670   2.334
69660W        W36443  42.563  35.316   3.723
69661W        W36444  25.099  20.640   3.690
69662W        W36445   8.770  30.271   1.432
69663W        W36446  44.791  33.852  10.556
69664W        W36447   3.232  15.767   4.516
69665W        W36448  19.806  26.926   0.453
69666W        W36449  35.998  32.989   1.361
69667W        W36450  23.278  27.569   3.220
69668W        W36451  24.128  16.173   3.693
69669W        W36452   7.623  42.973   3.198
69670W        W36453  21.284   7.413  13.549
69671W        W36454  13.877   1.384   3.655
69672W        W36455   6.229   3.528  10.697
69673W        W36456   8.247   9.303  12.078
69674W        W36457  18.986  31.100   3.705
69675W        W36458  32.557  17.544  13.894
69676W        W36459   8.906   3.453  14.241
69677W        W36460  16.824  25.735  12.918
69678W        W36461  25.206  14.510   0.699
69679W        W36462   3.905  25.444   2.397
69680W        W36463   1.719  23.381   0.197
69681W        W36464   9.060   9.709  14.439
69682W        W36465  23.664  27.484  13.909
69683W        W36466  43.320  44.349   0.515
69684W        W36467  43.900  31.440  14.898
69685W        W36468   4.335  23.009   1.222
69686W        W36469  33.395   3.816   2.749
69687W        W36470  13.796  40.246   0.367
69688W        W36471  40.332  41.068   4.545
69689W        W36472  37.531  13.668   0.523
69690W        W36473   3.793   9.479  14.344
69691W        W36474  24.004  33.947   1.024
69692W        W36475   2.921  30.880   2.712
69693W        W36476   7.775  18.107  10.257
69694W        W36477  19.106   8.740  10.698
69695W        W36478  26.110  11.627  10.635
69696W        W36479   3.149  26.533  14.696
69697W        W36480  35.746  32.026  13.975
69698W        W36481   4.272   3.408   0.971
69699W        W36482  37.927  14.619   3.205
69700W        W36483  10.834  24.526   3.714
69701W        W36484  38.312   1.466   0.830
69702W        W36485  17.128  44.831  10.479
69703W        W36486  16.917  19.875  12.060
69704W        W36487   1.298  21.210  13.998
69705W        W36488  13.801  21.155   1.249
69706W        W36489  26.525   0.966  12.923
69707W        W36490   0.127  13.818  14.061
69708W        W36491   5.389  32.055  12.425
69709W        W36492  40.461   0.143   4.065
69710W        W36493  43.905  23.566  11.209
69711W        W36494   0.241  30.987   4.152
69712W        W36495   4.855  11.914   0.945
69713W        W36496  37.846  11.887   3.787
69714W        W36497   2.024   0.526   1.436
69715W        W36498  33.128  24.864   1.200
69716W        W36499  44.013  41.452  10.784
69717W        W36500  34.072  17.300  14.924
69718W        W36501  30.175  28.632  11.839
69719W        W36502  11.346  26.743   2.856
69720W        W36503  35.626   5.065   1.884
69721W        W36504  28.454   7.744  14.941
69722W        W36505  41.874  35.728   1.762
69723W        W36506  22.245   0.555   3.217
69724W        W36507  15.944  34.018   4.498
69725W        W36508  34.427  19.557  14.304
69726W        W36509   0.661  22.297   1.354
69727W        W36510  26.933  32.107  11.663
69728W        W36511  30.316  27.869  14.926
69729W        W36512   0.499   5.503   2.067
69730W        W36513  24.024  40.794   2.807
69731W        W36514   5.275  39.107   3.769
69732W        W36515  14.326  42.837   1.676
69733W        W36516   2.393  31.678  11.415
69734W        W36517  14.607   3.187  10.236
69735W        W36518  42.471  16.010   4.075
69736W        W36519   7.496  10.223  10.056
69737W        W36520  18.188   2.905   3.199
69738W        W36521  12.390  19.527   3.731
69739W        W36522  23.031  41.325   3.670
69740W        W36523  37.896  32.233   4.040
69741W        W36524  30.297  27.543   3.733
69742W        W36525   7.708  17.110   4.024
69743W        W36526   6.677  25.272   4.578
69744W        W36527  40.274  41.411  14.961
69745W        W36528  12.431  38.090  11.195
69746W        W36529  11.708  23.756  14.436
69747W        W36530  11.602   3.945  14.103
69748W        W36531  38.475   4.341   3.393
69749W        W36532  28.969  39.155   4.073
69750W        W36533  25.151  22.421   5.211
69751W        W36534  10.618  11.262   0.505
69752W        W36535  20.312  26.094   4.633
69753W        W36536  16.093   1.929  10.587
69754W        W36537  27.114  10.633  13.045
69755W        W36538  20.025  24.231   3.327
69756W        W36539   0.528   4.799  13.987
69757W        W36540  42.755  38.185  10.282
69758W        W36541  34.484   2.859  14.758
69759W        W36542  32.401  37.307  13.394
69760W        W36543  12.277  21.619   2.751
69761W        W36544   9.306  16.595  11.151
69762W        W36545  20.432  25.202   0.955
69763W        W36546   2.900   1.012  13.562
69764W        W36547  39.416  15.147   2.094
69765W        W36548  31.419  26.173  13.014
69766W        W36549  10.355   2.024  14.078
69767W        W36550  20.765   3.707   2.741
69768W        W36551  35.023   1.234  11.146
69769W        W36552  28.732  25.188  10.862
69770W        W36553  44.311  31.394  14.078
69771W        W36554  37.808  44.475   2.219
69772W        W36555  43.021  16.195  13.585
69773W        W36556  10.312  31.802   0.763
69774W        W36557   1.378  40.448  14.027
69775W        W36558   5.883  13.268   0.467
69776W        W36559  14.371   9.326  13.515
69777W        W36560  16.074  21.109   2.205
69778W        W36561  20.031  33.034   2.684
69779W        W36562  28.058  32.912  12.986
69780W        W36563  19.667  23.595  12.160
69781W        W36564  35.559  37.564  13.404
69782W        W36565  20.280  24.727   4.417
69783W        W36566  13.216  33.981  12.492
69784W        W36567  24.614  12.539  13.055
69785W        W36568  23.501  22.001   0.021
69786W        W36569   6.167  24.301   5.087
69787W        W36570  34.379   7.332   1.214
69788W        W36571  39.381  20.168   1.817
69789W        W36572  18.811   8.820   4.684
69790W        W36573  24.037  25.157   0.115
69791W        W36574  25.657   2.300   1.465
69792W        W36575  30.628   4.969  12.199
69793W        W36576  19.224  13.185   0.302
69794W        W36577  31.619   2.012  14.803
69795W        W36578  20.925   2.968   1.972
69796W        W36579  33.037  16.610   2.619
69797W        W36580  37.593   1.526   4.266
69798W        W36581  25.275  27.116   0.382
69799W        W36582  36.840  44.522   3.948
69800W        W36583  39.713  43.531   2.247
69801W        W36584  19.735   6.956   1.557
69802W        W36585  24.585  32.832   2.279
69803W        W36586  15.156  10.849  11.012
69804W        W36587  10.150  13.131   2.655
69805W        W36588  32.070   5.124   0.476
69806W        W36589  21.757   1.024  12.392
69807W        W36590  37.569  42.692  13.030
69808W        W36591  35.105  24.151   3.364
69809W        W36592  28.928  23.449   4.626
69810W        W36593   7.636   6.337   3.800
69811W        W36594  15.670   3.763   3.207
69812W        W36595  44.887  41.028   2.877
69813W        W36596   5.928  38.097  13.523
69814W        W36597  41.228  33.461   2.098
69815W        W36598   2.064   9.353   1.805
69816W        W36599  11.673  37.520   4.017
69817W        W36600  15.488   8.647  13.739
69818W        W36601  22.449  23.779  14.312
69819W        W36602  38.870  41.777  10.446
69820W        W36603  24.892  24.161  10.696
69821W        W36604   8.436  19.796   3.664
69822W        W36605  11.449  26.114  11.030
69823W        W36606  17.222  37.295   3.295
69824W        W36607  33.009  19.570   3.741
69825W        W36608  18.425  32.766   2.425
69826W        W36609  33.870  34.201   4.560
69827W        W36610   5.299  43.823  14.915
69828W        W36611   8.040  41.529   0.817
69829W        W36612  25.462  29.453  11.700
69830W        W36613  40.479  21.085  11.522
69831W        W36614  23.108  14.743   0.807
69832W        W36615   8.271  42.544  14.256
69833W        W36616   4.892  31.408  12.682
69834W        W36617   0.302  41.391  10.768
69835W        W36618  21.060   2.110  14.903
69836W        W36619  19.813  36.878   2.154
69837W        W36620  27.177  37.308   0.294
69838W        W36621  43.445  35.008   4.553
69839W        W36622   4.753  17.737  13.886
69840W        W36623   7.243  41.557   4.380
69841W        W36624  17.680  39.852  11.404
69842W        W36625  39.737  41.422   1.378
69843W        W36626  18.726   6.690  12.310
69844W        W36627  27.619  41.010  14.748
69845W        W36628   3.779   8.607   1.332
69846W        W36629  31.463   7.001  10.121
69847W        W36630  11.212  39.874  10.964
69848W        W36631  16.386   3.043   3.133
69849W        W36632  41.402  30.465  12.601
69850W        W36633  42.806  20.256  11.009
69851W        W36634   0.817  11.643   3.197
69852W        W36635  23.570  42.606   2.809
69853W        W36636  32.341  23.190  11.377
69854W        W36637  26.309   4.439  14.899
69855W        W36638  17.840  21.289  13.254
69856W        W36639  44.366  13.584   3.218
69857W        W36640  13.082  38.980   0.903
69858W        W36641  23.969  25.944   0.761
69859W        W36642   7.460  17.254  13.723
69860W        W36643  18.246  16.391  10.233
69861W        W36644  30.870  35.464   1.183
69862W        W36645  30.166  30.050  14.409
69863W        W36646  39.739  40.976  12.101
69864W        W36647  26.785  15.152  13.107
69865W        W36648  11.510   1.206   4.107
69866W        W36649   0.942  15.164  12.350
69867W        W36650  23.285  36.532   2.798
69868W        W36651   4.555  22.544  11.026
69869W        W36652   7.822   7.233   2.365
69870W        W36653  41.940  40.892  13.322
69871W        W36654  30.089  11.661  10.764
69872W        W36655  16.042  37.473  14.268
69873W        W36656  22.760  17.468  11.930
69874W        W36657  35.032  28.874  10.786
69875W        W36658  35.103   6.700  12.443
69876W        W36659  19.642  30.434  14.367
69877W        W36660   2.442  31.049  12.582
69878W        W36661   3.779  11.202   3.753
69879W        W36662  38.093   0.157   0.830
69880W        W36663  19.096  42.240   0.691
69881W        W36664   0.243  20.625   0.809
69882W        W36665  35.109  32.098   0.922
69883W        W36666   0.519  12.006  11.592
69884W        W36667   5.938   7.642  12.945
69885W        W36668  35.415   6.748  14.017
69886W        W36669  16.394  18.770   1.971
69887W        W36670  13.237  20.977  13.164
69888W        W36671  16.535   9.142   2.240
69889W        W36672  11.218  37.611  13.988
69890W        W36673  44.994  19.131   2.711
69891W        W36674  12.366   1.647  12.126
69892W        W36675  15.093  22.688  13.822
69893W        W36676   1.149   5.950  11.149
69894W        W36677  14.282  31.776   3.336
69895W        W36678  43.870   5.528   4.216
69896W        W36679  22.504  24.515   2.184
69897W        W36680   4.786  36.382  12.492
69898W        W36681  25.991  34.435  10.953
69899W        W36682  28.324  28.592  11.169
69900W        W36683   0.056   9.006   4.083
69901W        W36684  16.706  39.884  10.617
69902W        W36685   0.447  20.927   0.432
69903W        W36686  29.565  29.870   0.229
69904W        W36687  19.642  33.155  12.403
69905W        W36688   2.034  30.915   3.768
69906W        W36689   7.367  41.336  14.813
69907W        W36690   2.135   0.309   3.670
69908W        W36691   8.292  15.583   2.913
69909W        W36692  29.178  28.694  10.904
69910W        W36693  21.045  23.227  11.384
69911W        W36694  22.579  20.802  11.697
69912W        W36695  44.030  30.031  13.766
69913W        W36696  23.643   5.314  12.554
69914W        W36697  40.887  37.569  12.582
69915W        W36698  17.627  42.782   1.833
69916W        W36699   0.857   1.430  12.798
69917W        W36700  40.798  33.955   0.334
69918W        W36701  43.372  43.025   3.267
69919W        W36702  29.638  44.881  10.835
69920W        W36703  20.837   2.215  11.430
69921W        W36704   8.858  39.597  12.562
69922W        W36705   2.055  23.590   4.220
69923W        W36706  30.910   8.345  11.976
69924W        W36707  38.310  40.847  12.583
69925W        W36708  18.107  29.109   1.779
69926W        W36709  36.701   3.729   4.189
69927W        W36710  18.394  28.715   0.206
69928W        W36711  25.269  36.474  13.926
69929W        W36712  40.772  35.756  13.982
69930W        W36713   6.413   8.256   0.503
69931W        W36714  20.619  40.445  13.074
69932W        W36715  21.081  41.952  13.593
69933W        W36716   7.616  12.914   4.083
69934W        W36717  42.158  32.466  11.613
69935W        W36718  43.772  25.915   0.874
69936W        W36719  40.081  26.151   1.450
69937W        W36720  33.044  44.183   0.968
69938W        W36721  39.774  13.699  11.424
69939W        W36722   3.851   5.206  11.945
69940W        W36723   3.221  31.014   1.816
69941W        W36724   6.444  25.917   3.653
69942W        W36725  16.742  13.358  14.890
69943W        W36726  13.158  35.775   4.158
69944W        W36727  36.976  11.901  12.194
69945W        W36728   4.001  31.011   0.615
69946W        W36729  36.336  31.577  14.428
69947W        W36730   5.332   4.456  11.127
69948W        W36731  32.879  15.852   4.931
69949W        W36732   0.533   0.888   2.575
69950W        W36733  28.740   4.338  12.975
69951W        W36734  29.185  37.915   4.274
69952W        W36735  20.089   0.767  14.468
69953W        W36736   8.827  10.381  14.793
69954W        W36737  10.627  19.014   1.926
69955W        W36738  28.156  21.336   1.384
69956W        W36739  38.345  23.741   0.427
69957W        W36740  22.613  29.102   4.884
69958W        W36741  24.067  13.794   0.708
69959W        W36742   6.425  10.496  12.969
69960W        W36743  12.815  16.150  11.578
69961W        W36744  30.666  13.547  13.112
69962W        W36745  41.422   5.249   2.327
69963W        W36746  18.619  14.427   2.090
69964W        W36747  23.767   9.374   0.767
69965W        W36748  42.042  21.996   4.439
69966W        W36749  10.424  41.596  13.560
69967W        W36750  20.577  41.304   0.958
69968W        W36751  24.742  42.810  12.165
69969W        W36752  14.830  31.587  12.519
69970W        W36753  26.021   6.752   3.651
69971W        W36754  39.799   8.824  14.085
69972W        W36755  23.983  18.192  11.935
69973W        W36756  27.203  14.096   2.807
69974W        W36757  16.065   1.741   1.185
69975W        W36758  16.629   6.894   1.889
69976W        W36759  35.045  27.267  12.054
69977W        W36760   6.276  29.623  14.378
69978W        W36761  31.982   0.261   3.022
69979W        W36762   2.229  41.909  14.699
69980W        W36763  31.012  15.679  11.412
69981W        W36764  18.474  24.676   0.442
69982W        W36765  10.857  27.627   4.493
69983W        W36766   4.701  11.275  13.308
69984W        W36767   3.815   2.838   0.488
69985W        W36768  19.825  36.502   1.807
69986W        W36769   2.001  14.419  11.563
69987W        W36770  36.961  37.383  14.568
69988W        W36771  36.112  30.815  14.410
69989W        W36772   3.136   2.219   0.446
69990W        W36773  23.669   6.808   1.529
69991W        W36774  19.114  33.617   0.541
69992W        W36775   3.725   1.712   3.747
69993W        W36776  33.062  11.338  13.256
69994W        W36777  31.870  44.036   2.273
69995W        W36778  23.196   6.713  12.816
69996W        W36779  17.030  35.369  13.423
69997W        W36780  19.378  29.941   2.895
69998W        W36781  36.856   2.144  11.957
69999W        W36782  43.015  31.541  14.618
70000W        W36783   7.737  20.102   3.614
70001W        W36784  22.050  25.268  12.236
70002W        W36785   4.412   8.753   2.931
70003W        W36786  35.495  38.919   3.194
70004W        W36787  19.356  42.051   4.208
70005W        W36788  25.925   2.417  13.567
70006W        W36789   3.324   5.278  11.985
70007W        W36790  16.281  20.676   4.268
70008W        W36791  40.920   1.972   0.250
70009W        W36792  12.097  36.132   1.243
70010W        W36793   9.318  35.608   1.992
70011W        W36794  29.284   1.259   4.115
70012W        W36795  32.413  13.725  11.118
70013W        W36796  15.698   8.389  12.022
70014W        W36797  36.615  14.126   4.118
70015W        W36798  28.189  38.778   3.692
70016W        W36799  40.103   3.171  13.998
70017W        W36800  42.371  11.126   2.136
70018W        W36801  33.493  43.232  10.587
70019W        W36802  37.797  15.309  11.701
70020W        W36803   7.881  34.129  10.585
70021W        W36804  21.313  20.987   2.800
70022W        W36805  31.836   8.625  13.567
70023W        W36806   2.403  25.179   0.945
70024W        W36807  39.894   6.565   1.185
70025W        W36808  36.984  38.587  13.433
70026W        W36809   4.317  39.078  13.000
70027W        W36810  43.951   6.893   0.530
70028W        W36811  40.816  26.734   3.808
70029W        W36812  10.948  41.919   3.181
70030W        W36813  18.676  10.069   2.335
70031W        W36814  10.541  24.942   3.861
70032W        W36815  15.847   2.907  12.346
70033W        W36816  10.648  43.475  12.490
70034W        W36817  33.489   3.225  11.145
70035W        W36818   2.913  33.534  12.043
70036W        W36819  42.139  26.189   1.733
70037W        W36820  24.129  36.011   3.862
70038W        W36821  11.761  36.719   3.637
70039W        W36822  12.419  44.389   0.555
70040W        W36823  35.792  26.481  14.532
70041W        W36824  27.145  23.182   1.929
70042W        W36825  30.376  34.194   2.671
70043W        W36826  20.048   8.725  10.710
70044W        W36827  43.977  39.758   1.950
70045W        W36828  44.478   4.182   3.264
70046W        W36829  14.773  17.814  11.874
70047W        W36830  41.043   6.401   9.789
70048W        W36831  24.082  11.603   0.869
70049W        W36832  28.086  21.027   2.261
70050W        W36833  43.550  40.905  11.570
70051W        W36834  24.637  23.836   3.681
70052W        W36835  20.217  20.613   2.498
70053W        W36836  23.442  16.870  11.972
70054W        W36837  19.042  15.535  12.390
70055W        W36838  26.604  37.923  10.019
70056W        W36839  37.288  44.287   1.358
70057W        W36840  37.492  35.593  12.307
70058W        W36841   6.488   3.301  12.002
70059W        W36842   8.877  14.311  13.104
70060W        W36843  43.587   9.310   4.397
70061W        W36844  29.664  23.648  11.447
70062W        W36845   6.144  26.150   4.031
70063W        W36846   1.774  38.315   0.314
70064W        W36847   0.768   6.752  14.945
70065W        W36848   9.371   6.802   1.639
70066W        W36849  41.951   1.139   1.310
70067W        W36850  26.221  25.452   2.411
70068W        W36851  31.435  24.199   2.298
70069W        W36852  20.693   9.756  12.088
70070W        W36853  41.727  42.717  13.849
70071W        W36854  43.550  39.891  13.555
70072W        W36855  17.063  41.081   2.466
70073W        W36856  36.978  21.240  13.796
70074W        W36857  35.824  32.979  11.229
70075W        W36858  21.199   5.713  12.149
70076W        W36859   1.946  27.589  10.734
70077W        W36860  29.009   0.984   2.819
70078W        W36861   3.533   0.391   0.424
70079W        W36862  22.916  28.889   9.991
70080W        W36863  43.801  29.696   0.353
70081W        W36864   7.689  17.558  11.595
70082W        W36865   7.363   5.430  12.731
70083W        W36866   7.789  18.112   3.279
70084W        W36867   2.997  31.116   0.018
70085W        W36868  31.551   6.261  14.172
70086W        W36869  37.440   4.946  14.803
70087W        W36870   7.368  22.583   4.556
70088W        W36871  21.083  24.652   9.949
70089W        W36872  39.529   2.082  13.075
70090W        W36873   1.885  41.644   3.403
70091W        W36874  32.037   4.735   0.094
70092W        W36875  36.892  37.434   2.810
70093W        W36876   9.303  21.023   4.549
70094W        W36877  20.407  15.088  13.964
70095W        W36878  39.851  32.482   2.116
70096W        W36879  41.109  12.096  14.895
70097W        W36880  44.206  19.777  12.558
70098W        W36881  17.312  44.228   4.133
70099W        W36882  22.134   7.875  13.988
70100W        W36883  39.636  25.676   2.434
70101W        W36884  43.480  43.064   4.123
70102W        W36885  37.044  12.914   0.851
70103W        W36886  44.244  22.409  10.677
70104W        W36887  34.508  17.193   4.101
70105W        W36888  23.510   8.259  12.087
70106W        W36889  25.071  18.680   0.476
70107W        W36890  17.629  20.693   4.553
70108W        W36891  10.398   8.675   2.389
70109W        W36892  19.911   0.234   0.939
70110W        W36893  37.013   5.624   2.866
70111W        W36894  20.147  30.027  11.035
70112W        W36895  30.059  19.546  12.318
70113W        W36896  24.934  33.568  12.290
70114W        W36897  29.943  11.175  14.959
70115W        W36898   6.897  22.569   0.750
70116W        W36899   5.475  38.792   4.132
70117W        W36900   9.169  25.393  10.650
70118W        W36901  26.009  27.129  13.444
70119W        W36902  19.976  44.270  10.315
70120W        W36903  33.829  21.188  14.291
70121W        W36904  44.569  14.815  14.083
70122W        W36905  29.574   8.262  14.009
70123W        W36906  28.702   3.696   1.889
70124W        W36907  27.191  33.622   1.922
70125W        W36908  31.397  40.360  12.613
70126W        W36909  30.313  14.544   1.802
70127W        W36910  22.574  36.114  13.023
70128W        W36911  29.592  13.903   3.569
70129W        W36912   4.940  35.577  11.741
70130W        W36913  11.707  12.206  11.573
70131W        W36914  13.802   3.864  12.067
70132W        W36915   6.790  35.340   1.445
70133W        W36916  33.369  14.862  13.914
70134W        W36917  43.918  16.751  10.519
70135W        W36918   4.735  15.162  14.352
70136W        W36919   6.293  29.273   2.205
70137W        W36920   6.318  12.235  12.879
70138W        W36921  11.215   7.378   0.296
70139W        W36922   8.393  40.405  14.418
70140W        W36923  33.329  32.303   1.229
70141W        W36924  20.807  22.538  12.759
70142W        W36925  13.560  20.235  11.196
70143W        W36926  29.137   6.743   1.221
70144W        W36927  36.558  24.450  14.563
70145W        W36928  33.029  27.179   0.853
70146W        W36929  32.395  26.398  11.096
70147W        W36930   1.033  19.230   0.753
70148W        W36931  29.741  24.593   2.343
70149W        W36932  22.512  19.646   3.803
70150W        W36933  12.101   1.256  12.370
70151W        W36934  16.329  12.299  13.851
70152W        W36935   4.238  16.600   3.864
70153W        W36936  24.963  34.921  11.592
70154W        W36937  13.628  28.656   2.570
70155W        W36938  14.063  29.430  12.464
70156W        W36939  10.267  29.860  14.319
70157W        W36940  19.718  25.546   3.139
70158W        W36941  25.663  12.557  13.773
70159W        W36942   2.624   3.844  11.937
70160W        W36943  11.861   7.139   3.942
70161W        W36944   8.154  23.541   2.410
70162W        W36945   7.871  27.572   0.854
70163W        W36946  22.943  37.389   5.129
70164W        W36947  17.540  43.584   1.900
70165W        W36948   3.873  17.737   1.683
70166W        W36949  32.809  41.947  14.971
70167W        W36950  18.443  21.354   1.925
70168W        W36951  24.524  25.557  11.727
70169W        W36952  35.458  36.033   0.689
70170W        W36953  44.740   3.774  13.494
70171W        W36954  27.314  27.325  11.042
70172W        W36955  32.850  16.126   3.660
70173W        W36956  36.097  39.853  14.778
70174W        W36957   9.303  39.748   0.020
70175W        W36958  39.836   7.896  10.651
70176W        W36959  20.384  30.125  11.495
70177W        W36960   9.279  42.690   0.805
70178W        W36961   4.446  37.382   0.191
70179W        W36962  41.242   7.701   3.681
70180W        W36963  31.213  35.616  14.123
70181W        W36964  44.544  36.834   0.415
70182W        W36965  21.243   8.384   2.166
70183W        W36966   2.494  24.242   3.756
70184W        W36967  27.241  39.887   2.168
70185W        W36968  40.081  11.405   0.852
70186W        W36969   4.731  17.162  11.248
70187W        W36970  12.365  28.143  13.861
70188W        W36971   4.248  18.879   3.273
70189W        W36972  13.528  26.180  13.657
70190W        W36973  41.676  11.877   2.656
70191W        W36974  26.942   1.260  11.231
70192W        W36975   6.187   7.878  14.659
70193W        W36976  14.349   9.529  10.610
70194W        W36977   0.400  40.899  10.593
70195W        W36978  34.692  42.927   2.680
70196W        W36979  29.943  39.971   2.462
70197W        W36980  41.499   0.343  13.774
70198W        W36981  14.316  33.002   0.274
70199W        W36982  26.482   5.721   2.777
70200W        W36983  27.971  43.743  13.834
70201W        W36984  16.219   8.439  11.492
70202W        W36985   0.810   4.883  13.126
70203W        W36986  25.668  19.552   2.122
70204W        W36987   0.643   9.200  12.665
70205W        W36988  15.134  41.820  13.818
70206W        W36989  35.425  12.879   0.432
70207W        W36990  19.554  31.204   0.226
70208W        W36991  44.631   9.750   4.646
70209W        W36992  28.230  26.441   0.057
70210W        W36993   0.179  17.811   0.960
70211W        W36994  37.394  25.899   0.168
70212W        W36995  36.540  32.504   4.417
70213W        W36996   3.989  37.162   4.611
70214W        W36997  27.524  19.581   4.651
70215W        W36998  17.552  35.031   4.641
70216W        W36999  15.279  21.248   1.693
70217W        W37000  30.682  35.856   2.812
70218W        W37001  33.050   0.935   3.891
70219W        W37002  23.034   2.190   2.792
70220W        W37003   2.717  26.669  14.981
70221W        W37004   2.985  29.962  11.614
70222W        W37005   3.480  14.697  12.014
70223W        W37006   7.139   3.492  10.585
70224W        W37007   9.258  44.326   3.657
70225W        W37008  34.660   8.768   4.974
70226W        W37009  33.355  30.626  12.422
70227W        W37010  15.394  12.982  14.787
70228W        W37011  22.306  18.736   3.216
70229W        W37012  31.983  19.754  11.609
70230W        W37013   7.402  27.879   1.374
70231W        W37014  34.030  35.398  13.888
70232W        W37015   2.392   8.231   4.700
70233W        W37016   3.000   5.259   0.433
70234W        W37017  25.002  35.161  10.780
70235W        W37018  33.231  13.236   0.451
70236W        W37019  19.208  28.620   4.353
70237W        W37020  40.019  32.309  11.173
70238W        W37021  14.143  20.051  14.456
70239W        W37022  43.312  37.585   0.789
70240W        W37023  13.845  18.102  12.049
70241W        W37024  43.878  34.078   0.371
70242W        W37025  38.446  31.789  13.341
70243W        W37026  19.430  41.096   1.952
70244W        W37027  28.037  31.111   3.341
70245W        W37028  35.066  43.448  11.491
70246W        W37029   7.793  42.826  10.744
70247W        W37030  17.038  33.671   1.361
70248W        W37031  21.619  29.529   3.308
70249W        W37032  28.191   8.646  10.666
70250W        W37033  25.684  23.584   3.288
70251W        W37034  40.361  25.243  14.891
70252W        W37035  28.531  27.528  11.101
70253W        W37036  28.586  21.990   0.056
70254W        W37037  30.929  24.551   4.821
70255W        W37038  10.978   8.443  11.408
70256W        W37039   4.780   2.918  13.837
70257W        W37040   3.276  16.952   2.100
70258W        W37041  37.805  16.320   2.818
70259W        W37042  25.926  29.061   3.722
70260W        W37043   9.723  39.143   1.753
70261W        W37044  39.055  22.995   2.260
70262W        W37045  15.562  27.569   1.881
70263W        W37046   7.469  31.396   4.118
70264W        W37047  42.256  41.862  12.935
70265W        W37048  17.148  18.204  14.301
70266W        W37049  33.509  33.426   2.761
70267W        W37050  30.073   9.195   3.288
70268W        W37051  13.695  12.787   4.068
70269W        W37052  21.357  33.546   3.583
70270W        W37053  23.436  42.755  12.356
70271W        W37054  27.835  11.655  10.758
70272W        W37055  25.055  34.261  10.300
70273W        W37056   1.677   1.555   3.849
70274W        W37057   4.871  37.568   2.265
70275W        W37058  36.441  15.245   2.925
70276W        W37059  42.023  26.742  10.302
70277W        W37060  14.080  33.529   3.765
70278W        W37061  33.409  20.605  13.331
70279W        W37062  31.949   2.737  11.753
70280W        W37063   1.391  23.070  12.240
70281W        W37064   0.886  36.866   0.390
70282W        W37065  15.325   1.941   1.853
70283W        W37066   3.463  15.768  11.300
70284W        W37067  35.438  19.544   4.692
70285W        W37068  24.620  14.999   0.482
70286W        W37069  31.735  44.930  12.034
70287W        W37070  29.192  40.613  14.426
70288W        W37071  13.316  20.966   4.085
70289W        W37072   4.368   5.508  14.218
70290W        W37073  26.509  37.388  14.528
70291W        W37074   7.277  10.342  13.846
70292W        W37075  18.644  39.090   4.060
70293W        W37076   9.933  38.790  12.906
70294W        W37077  12.396   2.378  13.274
70295W        W37078   7.446  10.752   2.538
70296W        W37079   0.570  36.479  14.847
70297W        W37080   6.907  12.727  11.058
70298W        W37081  11.344   4.320  12.486
70299W        W37082  33.022   3.283  10.945
70300W        W37083  21.167  43.806  12.148
70301W        W37084  22.152  14.172   5.063
70302W        W37085   8.797  12.152   4.136
70303W        W37086  19.252   2.412   4.018
70304W        W37087   4.370  37.462   4.870
70305W        W37088  32.451   8.812  14.360
70306W        W37089   5.816  11.113   2.913
70307W        W37090   5.548   4.883  14.457
70308W        W37091  35.116   5.744  11.581
70309W        W37092  13.767  44.879   4.627
70310W        W37093  26.384  16.880  11.623
70311W        W37094  32.239   6.139   5.064
70312W        W37095  40.425  29.958  14.306
70313W        W37096  38.816  25.881   1.412
70314W        W37097   3.660   9.849  11.203
70315W        W37098  33.410  10.806   1.837
70316W        W37099  20.222  23.504   3.704
70317W        W37100  30.463  31.446   0.262
70318W        W37101  31.073  28.120   0.418
70319W        W37102  25.625   8.226  11.452
70320W        W37103  44.902  19.777   2.265
70321W        W37104  34.973  39.955   2.815
70322W        W37105  29.892  25.241  13.041
70323W        W37106  13.881  12.651  12.428
70324W        W37107  23.691   7.735   1.931
70325W        W37108   7.572  29.502  10.505
70326W        W37109  23.418   7.871  13.484
70327W        W37110   6.470  25.395   0.913
70328W        W37111  33.643  41.032  14.375
70329W        W37112  39.322  11.861  13.058
70330W        W37113   4.800  24.190   2.287
70331W        W37114   6.800  30.874   1.734
70332W        W37115  23.076  27.105   2.380
70333W        W37116  26.642  15.103   3.356
70334W        W37117  23.931  22.929   5.145
70335W        W37118  19.306   9.696  14.396
70336W        W37119  24.298  28.473   1.900
70337W        W37120   0.990   3.635  13.072
70338W        W37121  11.197   1.177  12.143
70339W        W37122  13.088  41.231   2.821
70340W        W37123   3.340   3.801   4.215
70341W        W37124  21.671  41.039   4.050
70342W        W37125  32.520  11.203   1.491
70343W        W37126  28.590  22.611  12.939
70344W        W37127  25.185  18.746   3.285
70345W        W37128  23.307  20.066  11.990
70346W        W37129  25.707  27.605  12.554
70347W        W37130  21.754  39.760   1.458
70348W        W37131  38.783   8.530   4.589
70349W        W37132  35.685  41.046   0.333
70350W        W37133  26.674  15.026  14.870
70351W        W37134  28.682   4.733   2.911
70352W        W37135  26.473  28.422  14.081
70353W        W37136   9.868  18.198  12.981
70354W        W37137  25.995  19.606   0.870
70355W        W37138  42.778  44.676  14.025
70356W        W37139  38.158   7.334  11.046
70357W        W37140  41.786   2.849  14.269
70358W        W37141   2.454  43.984  10.965
70359W        W37142  27.596   4.979   2.353
70360W        W37143  40.514  39.953  12.230
70361W        W37144  23.683  33.042   0.884
70362W        W37145   4.686  37.533   4.025
70363W        W37146  11.352   5.008  11.419
70364W        W37147  26.060  35.922   0.431
70365W        W37148  35.575   9.900   5.107
70366W        W37149   0.059  18.018  12.964
70367W        W37150  36.948   8.413   1.441
70368W        W37151  42.816   0.855  14.808
70369W        W37152   2.957  39.209  11.589
70370W        W37153  37.888   5.658  12.888
70371W        W37154  42.787  27.852   3.201
70372W        W37155  18.167  44.079  13.266
70373W        W37156  12.430  34.330   1.729
70374W        W37157  10.467  39.195  13.825
70375W        W37158  14.648  14.940  10.826
70376W        W37159  10.828  40.428   4.351
70377W        W37160  43.471  25.319  12.021
70378W        W37161   3.887  35.432   4.258
70379W        W37162   5.765  23.748   4.869
70380W        W37163   9.361  25.611   2.352
70381W        W37164  20.221  44.057   3.114
70382W        W37165   7.895   4.258   2.788
70383W        W37166   3.425  35.573  14.323
70384W        W37167  17.560  41.558  14.472
70385W        W37168  31.554  44.233   1.909
70386W        W37169  12.317   1.931  13.534
70387W        W37170  25.618  25.444   3.702
70388W        W37171   1.918  38.482   3.677
70389W        W37172  27.608   9.689  12.350
70390W        W37173  24.360  10.682  11.937
70391W        W37174  43.305  14.632   2.341
70392W        W37175  40.750   5.796  14.283
70393W        W37176  34.236  22.191   3.700
70394W        W37177  10.869   6.784  11.222
70395W        W37178  10.330  28.421   3.106
70396W        W37179  35.658  39.916  13.432
70397W        W37180  30.166  16.841  14.413
70398W        W37181  39.024  17.359  14.519
70399W        W37182  19.979   0.484   4.623
70400W        W37183  38.123  17.817   3.256
70401W        W37184  16.973  23.451   2.387
70402W        W37185  42.559   4.297  14.357
70403W        W37186  19.213  28.644   0.757
70404W        W37187  24.739  41.599   0.073
70405W        W37188  42.006   1.247  14.872
70406W        W37189  23.242   2.064   1.501
70407W        W37190  20.310  25.447  12.730
70408W        W37191  37.979  28.166   2.115
70409W        W37192  38.996   9.991  11.005
70410W        W37193  12.821  43.568   1.684
70411W        W37194   0.029  18.776   3.270
70412W        W37195  32.670  38.220   1.302
70413W        W37196  30.419  23.022  13.849
70414W        W37197   1.909  20.085   4.090
70415W        W37198  17.118  39.287  13.307
70416W        W37199  18.708  18.640  10.409
70417W        W37200  11.689  42.916   1.470
70418W        W37201  33.994  36.624  14.698
70419W        W37202  22.878  22.664  14.896
70420W        W37203   2.501  30.592   2.724
70421W        W37204   1.040  32.991  14.986
70422W        W37205  33.658  38.918   4.000
70423W        W37206  28.061  13.677  10.588
70424W        W37207   8.377  12.692  14.487
70425W        W37208   4.973  14.151  14.314
70426W        W37209   1.960  16.578   2.441
70427W        W37210  38.137  28.981  12.388
70428W        W37211  22.310  29.178  12.473
70429W        W37212  36.525   7.202  13.078
70430W        W37213  27.086  37.602  13.396
70431W        W37214  30.915  44.519   0.616
70432W        W37215  25.389  27.385  12.882
70433W        W37216  14.717  18.777   3.263
70434W        W37217   1.885   2.074  13.065
70435W        W37218   7.326   9.996   4.932
70436W        W37219  15.310  17.059   4.331
70437W        W37220  37.237  37.044   4.147
70438W        W37221   7.301  32.630   2.296
70439W        W37222   8.834  28.633  14.143
70440W        W37223  21.509  34.986  12.721
70441W        W37224  25.411  38.196   1.870
70442W        W37225  15.136  12.765  13.826
70443W        W37226   9.394  43.338   1.282
70444W        W37227   6.217   0.201  14.410
70445W        W37228  25.018  34.106   2.114
70446W        W37229   0.825  37.230   4.139
70447W        W37230  25.434   7.117  13.082
70448W        W37231  12.607  39.815   0.386
70449W        W37232   3.495  26.063  11.711
70450W        W37233  33.637  23.262  10.710
70451W        W37234  43.493  34.938  12.394
70452W        W37235  40.840  43.006  12.581
70453W        W37236  38.342   0.354   3.233
70454W        W37237  33.612   0.193   5.091
70455W        W37238  30.049  14.507   2.260
70456W        W37239  36.396  41.337   1.469
70457W        W37240  28.127  20.343   4.558
70458W        W37241   6.109  13.700   0.763
70459W        W37242  42.329  23.458  14.889
70460W        W37243  19.930  41.179  13.817
70461W        W37244  30.000  44.043   2.817
70462W        W37245  10.694   1.032  10.956
70463W        W37246  22.835   9.116  14.458
70464W        W37247  40.900  20.769  12.881
70465W        W37248   7.297  32.091   1.686
70466W        W37249  41.535  12.817  13.873
70467W        W37250  25.301  26.747  14.998
70468W        W37251  11.772  41.995   0.339
70469W        W37252  32.233  35.314   1.727
70470W        W37253   9.335  35.827  13.898
70471W        W37254  32.807  12.330   2.157
70472W        W37255  12.615   5.645   1.373
70473W        W37256  40.008   1.765   1.200
70474W        W37257  31.498  19.119  10.535
70475W        W37258  38.025  12.713   3.487
70476W        W37259   7.331   9.295  12.451
70477W        W37260  11.263  29.524   4.078
70478W        W37261  25.530  38.076   1.384
70479W        W37262   5.726  33.522  12.099
70480W        W37263  13.084  32.254   1.803
70481W        W37264  17.970  43.406  14.877
70482W        W37265  13.261  41.513  14.412
70483W        W37266  34.945  40.314   3.773
70484W        W37267  33.207  31.061   2.626
70485W        W37268   8.289  15.610   0.277
70486W        W37269  18.461   8.658   0.291
70487W        W37270  25.207  42.567   2.654
70488W        W37271  36.733  13.173  11.655
70489W        W37272  16.444  38.170   5.068
70490W        W37273   5.861  30.961   0.387
70491W        W37274   2.801  34.582   3.143
70492W        W37275  35.793  25.797   3.905
70493W        W37276  28.079  27.616  11.338
70494W        W37277  24.713  23.884   5.394
70495W        W37278  13.647  38.979   1.626
70496W        W37279  41.631  24.506  11.114
70497W        W37280  37.942  43.433  10.581
70498W        W37281  23.235  13.821   1.177
70499W        W37282  32.186  26.658  10.236
70500W        W37283  27.752   1.192   1.461
70501W        W37284  25.021   3.866  13.587
70502W        W37285   2.550  38.383   1.733
70503W        W37286  29.122  12.923  13.110
70504W        W37287  42.046  39.501  14.478
70505W        W37288  12.150   5.807   1.530
70506W        W37289  24.651  10.114   0.924
70507W        W37290  17.755  29.426  11.888
70508W        W37291  36.154   1.825   4.070
70509W        W37292  13.588  15.904  10.732
70510W        W37293   2.927   6.395   1.691
70511W        W37294  22.899  10.329   1.936
70512W        W37295  15.149  22.065  14.460
70513W        W37296   0.755  10.368   0.372
70514W        W37297  39.509  12.142  12.087
70515W        W37298  40.488  11.307  12.277
70516W        W37299  10.111  30.808   4.164
70517W        W37300   7.621  30.358   3.198
70518W        W37301  39.878   6.821   2.115
70519W        W37302  23.571  38.410   4.105
70520W        W37303   5.421  17.233   1.215
70521W        W37304  10.383  10.224   3.206
70522W        W37305  10.370  24.402  10.841
70523W        W37306   8.591  28.776   3.653
70524W        W37307  29.460  20.170  13.333
70525W        W37308  15.176  20.969  14.354
70526W        W37309  11.458  30.635   4.999
70527W        W37310  10.323   0.315   1.346
70528W        W37311  36.668  31.108   1.219
70529W        W37312  12.517  28.713  14.864
70530W        W37313   4.713  31.715  13.062
70531W        W37314  20.037   0.964   1.404
70532W        W37315  41.878  10.730  13.982
70533W        W37316  15.524  18.143   0.037
70534W        W37317  41.398  31.606   1.897
70535W        W37318   1.405  12.019  10.383
70536W        W37319  29.473  22.821  10.761
70537W        W37320  40.579   3.939   1.844
70538W        W37321  36.767  15.609  14.838
70539W        W37322  14.332  22.706   1.274
70540W        W37323  27.209  21.994   2.358
70541W        W37324  24.820  37.844   4.293
70542W        W37325  23.477  15.047   1.788
70543W        W37326  44.242   6.994   3.102
70544W        W37327  21.975  20.202   2.733
70545W        W37328  40.462   3.644  13.308
70546W        W37329  16.631  11.239   3.544
70547W        W37330   3.364  13.161  12.815
70548W        W37331  32.347   4.953   3.147
70549W        W37332  32.754  38.965  13.985
70550W        W37333   8.802  20.190  11.197
70551W        W37334  44.530  27.410   2.549
70552W        W37335  34.130  43.102   2.863
70553W        W37336  30.393  19.277   2.883
70554W        W37337  44.336  25.401   0.322
70555W        W37338   1.247  44.515  13.497
70556W        W37339  28.950   6.200  13.132
70557W        W37340  30.236  39.961   9.927
70558W        W37341  36.463  44.113  13.895
70559W        W37342   3.285  21.990   2.872
70560W        W37343   6.913  41.484   3.231
70561W        W37344  32.562  33.473   4.905
70562W        W37345  18.613  16.690   2.141
70563W        W37346  26.698  17.296   3.539
70564W        W37347   2.499  17.318  12.044
70565W        W37348  40.973  19.384  14.004
70566W        W37349  31.725  42.737   4.864
70567W        W37350   5.486   8.868  13.947
70568W        W37351   6.571  29.722   5.022
70569W        W37352   6.674  44.888   3.928
70570W        W37353  35.587   4.572   3.221
70571W        W37354   6.590  44.411   4.621
70572W        W37355  15.685  42.560   0.538
70573W        W37356   7.002  19.766   4.575
70574W        W37357  19.294   8.882   4.939
70575W        W37358  38.797  18.744  10.135
70576W        W37359  41.589   4.397   3.937
70577W        W37360   3.229  22.699   3.604
70578W        W37361  40.472  40.443  13.608
70579W        W37362  40.581  30.976  12.195
70580W        W37363  31.327  17.117  10.753
70581W        W37364  39.917  24.214  11.843
70582W        W37365  29.617  27.544  11.197
70583W        W37366   5.194  35.029   3.849
70584W        W37367   2.843  30.943  11.425
70585W        W37368  12.913  19.573   3.010
70586W        W37369  27.202  17.728   4.359
70587W        W37370   4.335  30.545  10.501
70588W        W37371   8.612  21.258   1.971
70589W        W37372  17.831  43.610   2.343
70590W        W37373  43.868  31.344  14.377
70591W        W37374  37.094  25.707   1.201
70592W        W37375  42.853  30.767  10.787
70593W        W37376  13.351  29.683  10.342
70594W        W37377  13.124  18.710  11.589
70595W        W37378  18.212   8.572  11.477
70596W        W37379  12.344  24.507  13.646
70597W        W37380  22.287  37.389  14.309
70598W        W37381  10.138  11.370  10.968
70599W        W37382  37.377  29.003   4.648
70600W        W37383  14.244   2.894  10.478
70601W        W37384  36.687  19.436  10.776
70602W        W37385  18.144   4.437  14.340
70603W        W37386  12.335  28.754  12.999
70604W        W37387   7.177   6.765  13.421
70605W        W37388  28.108  15.789  12.875
70606W        W37389  35.106  31.506  13.489
70607W        W37390   9.125  32.871   3.244
70608W        W37391  21.797  31.583   0.453
70609W        W37392  11.868  14.566   0.433
70610W        W37393   1.370  24.456  12.158
70611W        W37394  36.588  42.992   0.779
70612W        W37395  34.885  34.625   2.420
70613W        W37396   0.782   4.946  14.473
70614W        W37397  30.420  20.496  11.055
70615W        W37398   5.521  28.096   0.373
70616W        W37399  31.801  12.159   4.122
70617W        W37400  29.906  17.666  13.774
70618W        W37401   8.948  24.662  14.895
70619W        W37402  20.178  27.507  13.525
70620W        W37403  13.184  27.673  14.035
70621W        W37404  15.442  20.312  13.899
70622W        W37405  17.171   9.345  12.957
70623W        W37406  23.731  36.024   1.634
70624W        W37407  24.517   2.373  13.880
70625W        W37408   1.402  20.718   0.919
70626W        W37409   6.616  29.418   4.391
70627W        W37410  37.224   4.490  14.863
70628W        W37411  42.009  32.489  10.609
70629W        W37412  39.890   7.137  11.554
70630W        W37413  30.561  44.435  14.484
70631W        W37414  12.202  31.123   4.159
70632W        W37415  12.726   8.237  12.018
70633W        W37416  34.483  39.035  11.577
70634W        W37417  28.090  15.722   4.948
70635W        W37418  33.988  44.665   1.808
70636W        W37419  25.469   2.037  11.921
70637W        W37420  28.190  15.063  12.999
70638W        W37421  39.506  10.071  14.408
70639W        W37422  33.508   0.748   1.330
70640W        W37423  13.846  24.104  13.871
70641W        W37424  12.797  23.040   3.391
70642W        W37425  27.892  33.657  11.612
70643W        W37426  12.738  32.289   1.424
70644W        W37427  12.900  40.579   1.643
70645W        W37428  27.171  20.888  13.847
70646W        W37429  21.653   9.895  10.845
70647W        W37430  28.002  36.579   4.547
70648W        W37431  28.435  29.118  13.284
70649W        W37432  21.162   6.528   0.706
70650W        W37433  40.679  34.613   1.458
70651W        W37434  43.213  26.697   2.835
70652W        W37435  13.499   6.168  11.375
70653W        W37436  42.022   4.869  14.031
70654W        W37437   7.902   0.192  14.324
70655W        W37438  12.164   6.714  10.682
70656W        W37439  31.341  41.172   3.274
70657W        W37440   7.373  12.330  13.864
70658W        W37441  13.763  41.225  12.478
70659W        W37442   5.616   1.197  11.909
70660W        W37443   9.441  15.847  10.418
70661W        W37444  36.944  10.269  14.524
70662W        W37445  28.548  33.858  14.794
70663W        W37446  29.738  37.812  14.089
70664W        W37447  13.161   3.488   4.504
70665W        W37448   6.871  34.991   2.348
70666W        W37449  42.300   0.488   2.365
70667W        W37450  44.232  15.770   4.506
70668W        W37451   4.945  10.065   1.773
70669W        W37452  32.996  25.965   0.246
70670W        W37453  16.131  29.546  11.661
70671W        W37454   6.666  44.562  13.987
70672W        W37455  31.799  11.671   2.767
70673W        W37456  18.164  18.925   2.412
70674W        W37457   1.718   4.699   4.215
70675W        W37458  18.595  18.070   2.209
70676W        W37459  23.967  13.153  14.548
70677W        W37460  34.911   8.466   4.034
70678W        W37461  40.529  25.639  10.452
70679W        W37462  42.342  24.709   0.424
70680W        W37463   9.521   1.696  10.264
70681W        W37464  15.205   2.289   4.628
70682W        W37465  43.777  44.181  13.419
70683W        W37466  26.440  33.537   0.751
70684W        W37467   5.746  41.236   0.403
70685W        W37468  34.492  33.634  11.563
70686W        W37469  36.015   6.147   2.518
70687W        W37470   6.437  39.212   5.007
70688W        W37471  36.757  25.903  11.893
70689W        W37472   8.434  19.710  13.936
70690W        W37473  34.393   4.944  10.758
70691W        W37474  39.491  33.587   4.335
70692W        W37475  37.459  27.654   1.296
70693W        W37476  17.481  42.255  12.501
70694W        W37477  18.673   7.277  11.690
70695W        W37478   7.749  38.001   3.339
70696W        W37479   8.689  17.641   3.662
70697W        W37480  27.459  35.446   2.843
70698W        W37481  15.586   0.132  13.383
70699W        W37482  14.171  36.963   3.153
70700W        W37483  34.468  10.088  12.422
70701W        W37484  25.963  24.494  14.687
70702W        W37485  28.554   5.998   4.919
70703W        W37486  31.676   2.017   4.284
70704W        W37487  36.292  37.378   3.335
70705W        W37488   5.889  14.557  11.914
70706W        W37489  26.418  21.001   2.253
70707W        W37490   0.490  44.312  13.896
70708W        W37491  32.840  11.131  11.236
70709W        W37492  16.386  39.955  11.063
70710W        W37493  41.547  39.826   0.818
70711W        W37494   3.904   2.085   4.572
70712W        W37495  34.983  41.130  10.129
70713W        W37496  37.314  30.131  14.037
70714W        W37497   5.664  10.327  13.261
70715W        W37498  23.962  15.140   3.779
70716W        W37499   5.347  28.514  14.676
70717W        W37500  16.600   3.031   3.595
70718W        W37501  12.263  36.549  14.977
70719W        W37502   4.193  18.004   4.584
70720W        W37503  24.972   4.269   1.840
70721W        W37504  11.114   5.148   4.480
70722W        W37505  28.537  12.193  11.545
70723W        W37506  40.791  17.137   5.496
70724W        W37507  33.371  42.035  12.898
70725W        W37508  42.020  24.268  13.540
70726W        W37509   4.234  21.111  12.597
70727W        W37510  25.702   5.760   3.698
70728W        W37511  28.471  12.349  12.052
70729W        W37512   4.702  39.345  13.516
70730W        W37513  16.116  18.484   5.109
70731W        W37514  11.108  19.784  11.200
70732W        W37515  33.444  21.800   2.635
70733W        W37516  26.657  40.906  13.895
70734W        W37517  10.943  11.684  14.792
70735W        W37518  35.514  38.108   0.966
70736W        W37519  23.689  18.899   2.223
70737W        W37520  22.547  41.574   1.808
70738W        W37521  19.696   7.676   0.372
70739W        W37522  37.877   5.565   4.852
70740W        W37523  44.479  32.248  11.024
70741W        W37524  27.485  23.031  11.036
70742W        W37525  19.760   8.371  13.492
70743W        W37526   1.678  26.624   3.718
70744W        W37527  35.004  36.383  11.655
70745W        W37528  41.789  20.046  11.237
70746W        W37529   9.607  18.575   1.340
70747W        W37530  38.540  30.931  12.880
70748W        W37531  44.070  23.036   3.280
70749W        W37532  44.274  32.370  11.642
70750W        W37533  36.510  22.274   0.356
70751W        W37534  24.041  22.686   2.138
70752W        W37535  30.455  24.722   3.671
70753W        W37536  32.025  30.328  12.565
70754W        W37537  26.369   4.973  12.066
70755W        W37538   6.679   2.940  12.435
70756W        W37539  13.154  12.869  10.645
70757W        W37540  37.566  24.196  10.549
70758W        W37541  10.848  18.188  14.792
70759W        W37542  17.793  27.654   1.414
70760W        W37543  12.806  21.648   4.454
70761W        W37544  10.437  10.704   3.429
70762W        W37545  44.084  21.062   1.219
70763W        W37546  24.040   7.373  13.065
70764W        W37547  11.776  20.113   3.867
70765W        W37548  31.483  42.937  10.788
70766W        W37549  21.923  31.748   2.360
70767W        W37550   1.438  14.653   1.287
70768W        W37551  26.700  32.949   1.942
70769W        W37552  39.561   1.570  11.293
70770W        W37553  27.559  32.349  11.985
70771W        W37554  33.486  14.842   3.846
70772W        W37555  33.559  25.190  14.361
70773W        W37556  30.129  12.667   1.700
70774W        W37557   4.027   5.372  13.729
70775W        W37558  27.000  25.630  12.298
70776W        W37559  27.666  31.135   0.754
70777W        W37560  43.431  32.414   2.153
70778W        W37561  13.673  25.176   3.747
70779W        W37562  40.976  22.699  13.196
70780W        W37563  26.159  23.480  13.409
70781W        W37564  10.831   6.795   3.256
70782W        W37565  10.031  24.969   3.841
70783W        W37566  11.922  33.462  14.456
70784W        W37567  25.979   7.833  13.955
70785W        W37568  24.677  17.761   1.405
70786W        W37569  14.376   1.750  12.818
70787W        W37570  10.650  39.825  10.906
70788W        W37571  29.131  13.626   2.776
70789W        W37572  20.969  20.298  13.838
70790W        W37573  21.989  22.153  13.449
70791W        W37574  12.106  11.084  11.062
70792W        W37575  17.127  23.004   3.826
70793W        W37576  40.075  36.418  10.710
70794W        W37577  10.180   9.336   0.976
70795W        W37578   3.472  20.991  10.252
70796W        W37579  22.599  21.522   1.943
70797W        W37580  28.436  25.566   0.327
70798W        W37581   0.442   8.476   1.367
70799W        W37582   7.510  19.567   4.532
70800W        W37583  26.267  41.933   4.958
70801W        W37584  18.079  17.326   1.452
70802W        W37585  12.110  32.471  11.937
70803W        W37586  13.743   6.210   1.808
70804W        W37587  36.329   7.850   1.299
70805W        W37588  21.191  16.080  10.410
70806W        W37589  21.148  29.565   0.377
70807W        W37590   3.196  25.476  11.066
70808W        W37591  24.535   6.136  10.529
70809W        W37592  25.660   5.837  13.010
70810W        W37593   3.851  39.823  13.421
70811W        W37594  31.552   0.927   4.058
70812W        W37595  39.719  37.775  14.872
70813W        W37596  32.040  17.871  11.491
70814W        W37597  22.035  21.120   0.919
70815W        W37598  37.959  17.216  14.490
70816W        W37599  21.653  32.301  13.050
70817W        W37600   8.356  33.404   3.627
70818W        W37601   8.070  43.722  12.641
70819W        W37602  39.318  30.476  14.966
70820W        W37603  25.573   4.366  10.999
70821W        W37604  16.377  37.227   1.412
70822W        W37605  24.671   8.087   1.115
70823W        W37606  39.172  19.102  10.432
70824W        W37607  41.526  23.621  11.385
70825W        W37608  38.875  16.011  13.481
70826W        W37609  26.062  24.594   0.788
70827W        W37610  13.129  27.910  13.575
70828W        W37611  28.661  24.917   0.813
70829W        W37612  39.415  11.425   0.074
70830W        W37613  17.110  26.094  13.431
70831W        W37614   6.807   7.827  10.650
70832W        W37615  42.559  36.324   0.932
70833W        W37616   7.779  43.703  14.308
70834W        W37617  16.378   8.873  12.920
70835W        W37618  28.202  25.186   0.829
70836W        W37619  11.341  40.535   4.501
70837W        W37620  12.237  19.265  12.439
70838W        W37621   5.879  41.360   0.870
70839W        W37622  44.724  19.202   3.137
70840W        W37623  22.352  17.168  12.109
70841W        W37624  12.132   0.912   1.079
70842W        W37625  36.468  14.926  11.626
70843W        W37626   0.885  15.692  12.937
70844W        W37627   8.767  36.569  13.958
70845W        W37628   2.044  22.090   0.032
70846W        W37629  20.589  38.813   1.353
70847W        W37630   1.538   1.439  14.560
70848W        W37631  43.909  37.978   2.509
70849W        W37632   8.868  14.153   2.700
70850W        W37633   9.410  18.178   0.551
70851W        W37634  37.583  30.095   0.813
70852W        W37635  39.420   1.593   1.189
70853W        W37636  39.984  27.229  12.108
70854W        W37637  42.186   7.309  11.449
70855W        W37638  25.539  17.741   3.366
70856W        W37639  14.311  18.210   4.068
70857W        W37640  36.881  32.553   1.479
70858W        W37641   6.300  28.422  12.599
70859W        W37642   4.137  34.471  11.660
70860W        W37643  11.702  21.125  13.879
70861W        W37644  23.107  12.598  11.173
70862W        W37645  15.418  32.287   4.101
70863W        W37646  27.677  12.717  10.490
70864W        W37647  21.925  34.841   3.077
70865W        W37648  32.687  11.857  12.177
70866W        W37649  37.112   0.513  11.025
70867W        W37650  42.354  39.433   1.725
70868W        W37651  24.252  36.409  13.495
70869W        W37652  35.222   5.905   1.420
70870W        W37653   3.936  37.568   2.163
70871W        W37654  16.769  41.480  11.247
70872W        W37655  12.708  11.053   0.970
70873W        W37656   0.707  19.563   3.732
70874W        W37657  40.816  29.133  11.147
70875W        W37658  41.769  22.300  12.416
70876W        W37659  39.482  24.976   2.702
70877W        W37660  41.506   8.775   1.441
70878W        W37661   4.844  32.364   3.869
70879W        W37662  14.597   0.797  11.997
70880W        W37663  44.908  30.439  14.755
70881W        W37664  44.393  28.973   0.448
70882W        W37665  10.266   1.955  14.599
70883W        W37666   7.293  39.787   3.786
70884W        W37667  35.021   0.743   2.092
70885W        W37668  40.940  31.597  13.762
70886W        W37669  20.576   2.550  11.142
70887W        W37670  20.311  27.172  11.556
70888W        W37671  33.612  27.977   4.666
70889W        W37672  37.560  15.645  13.001
70890W        W37673   4.444  22.871  14.932
70891W        W37674  25.192  11.178   1.876
70892W        W37675   1.803  43.501  14.015
70893W        W37676  36.890   6.920  14.766
70894W        W37677  11.146   0.828   3.970
70895W        W37678  22.411   9.177   3.295
70896W        W37679  10.150  36.513  12.377
70897W        W37680   1.091  37.522   2.503
70898W        W37681   1.275  17.541  13.996
70899W        W37682  26.931   1.192   2.140
70900W        W37683  16.288  38.926   2.077
70901W        W37684   3.140  36.795   1.695
70902W        W37685  13.256  38.808   1.933
70903W        W37686  33.853  10.082   1.933
70904W        W37687  22.692   3.924   4.234
70905W        W37688  10.610  40.978  13.887
70906W        W37689   4.514  25.250   3.673
70907W        W37690   4.878  15.970   3.528
70908W        W37691  18.988   2.053  14.895
70909W        W37692  12.610  35.132  10.608
70910W        W37693   2.361  20.375   4.189
70911W        W37694  33.416  25.507  12.117
70912W        W37695  28.953  39.355  13.026
70913W        W37696  37.435  17.039   3.199
70914W        W37697   3.884   8.691   2.889
70915W        W37698  10.695  26.317  10.567
70916W        W37699  43.611  43.521   1.361
70917W        W37700  41.368   5.939  12.101
70918W        W37701  35.407  17.549  10.671
70919W        W37702  34.016  19.099   1.218
70920W        W37703   1.677  43.004  12.800
70921W        W37704  23.887  12.214  10.782
70922W        W37705  11.306   8.179   2.350
70923W        W37706  38.983   1.750   4.844
70924W        W37707  22.077  42.941   4.190
70925W        W37708   8.124   0.440   0.835
70926W        W37709  29.012  25.828   3.144
70927W        W37710  34.961  30.354   4.611
70928W        W37711   3.733  16.913   2.343
70929W        W37712  40.511  21.625   0.586
70930W        W37713  41.335  16.333  12.389
70931W        W37714  40.785   8.950  14.472
70932W        W37715   7.925  44.580  11.469
70933W        W37716  26.013  22.449   0.340
70934W        W37717  42.233  11.542  11.563
70935W        W37718  38.130   3.982  11.124
70936W        W37719   5.541  13.708  14.062
70937W        W37720  20.786   9.630   2.689
70938W        W37721   5.106  20.233   1.245
70939W        W37722  25.780  21.685  13.952
70940W        W37723  15.503  18.642   1.327
70941W        W37724  35.314  38.620   1.891
70942W        W37725  24.427  37.094   3.788
70943W        W37726  42.261   0.872   2.773
70944W        W37727  24.699  40.027   1.629
70945W        W37728  26.552  10.568  12.484
70946W        W37729  42.493  17.077   4.352
70947W        W37730   2.855  42.775   4.097
70948W        W37731  14.257   3.910   2.485
70949W        W37732  43.816   7.704  13.474
70950W        W37733   3.293  33.042   3.600
70951W        W37734  16.845  39.813  11.482
70952W        W37735  41.685  37.724   2.768
70953W        W37736  28.612  44.338   1.280
70954W        W37737  31.031   0.012   0.879
70955W        W37738  23.028  19.979  13.991
70956W        W37739  12.944   6.680  11.129
70957W        W37740  38.093  42.726  14.470
70958W        W37741  14.067   7.932  12.806
70959W        W37742  20.963  12.809  10.179
70960W        W37743  25.128  44.892   0.273
70961W        W37744   6.397  17.129   1.193
70962W        W37745  37.085   5.878  14.843
70963W        W37746   9.777  42.510  14.518
70964W        W37747  37.242   3.299  13.872
70965W        W37748  20.387  17.523  11.578
70966W        W37749  36.956  35.516  12.251
70967W        W37750  17.429  19.587   0.567
70968W        W37751  28.960  30.059  11.030
70969W        W37752  20.018  33.942   3.092
70970W        W37753   0.150  30.621  11.878
70971W        W37754  13.787  44.840  12.144
70972W        W37755  33.969  17.496   3.389
70973W        W37756  26.204  14.688   4.040
70974W        W37757  17.876   0.326  11.693
70975W        W37758  41.505  24.562   3.143
70976W        W37759  31.531  24.897   1.681
70977W        W37760  23.707  18.580  12.134
70978W        W37761   2.561  35.595  14.686
70979W        W37762  30.384  33.932   2.219
70980W        W37763   1.485  21.705  13.925
70981W        W37764   3.751  20.063   0.720
70982W        W37765  15.758  25.224  14.727
70983W        W37766   8.627  27.565   0.399
70984W        W37767  29.614  21.607   4.824
70985W        W37768  32.334  36.289   2.368
70986W        W37769  24.649  27.366   1.406
70987W        W37770   0.307   4.372  11.299
70988W        W37771  13.778  14.141  12.608
70989W        W37772  21.675   2.292   3.219
70990W        W37773  32.030  41.822   2.298
70991W        W37774  11.158  41.888   0.816
70992W        W37775   3.316  20.481   0.086
70993W        W37776  33.891  14.094  13.059
70994W        W37777   0.498  20.091   1.781
70995W        W37778  32.544   2.777   1.464
70996W        W37779  25.372  28.743   0.737
70997W        W37780  33.933  42.874   1.456
70998W        W37781  21.677  24.017   1.263
70999W        W37782  29.742  41.998   9.860
71000W        W37783   6.950  13.214  10.887
71001W        W37784  37.139  23.380  12.535
71002W        W37785   3.413   7.663  12.073
71003W        W37786  17.100  10.974  14.476
71004W        W37787   1.406   8.531   2.769
71005W        W37788  38.531   4.282  12.446
71006W        W37789  26.899  15.329   2.878
71007W        W37790  16.270  14.095   4.593
71008W        W37791  18.093   1.350   3.039
71009W        W37792  22.195  16.336  14.799
71010W        W37793  35.004  29.347  10.588
71011W        W37794  32.301  11.605   2.703
71012W        W37795   9.406  33.581   1.892
71013W        W37796  23.226   2.016  14.724
71014W        W37797  36.843  14.202   0.023
71015W        W37798  34.095  34.123   0.366
71016W        W37799   9.287  24.054   2.148
71017W        W37800  35.040   2.242   1.715
71018W        W37801  16.154  14.258  14.793
71019W        W37802   1.889  15.101   2.310
71020W        W37803  17.053  26.208  12.849
71021W        W37804  20.777  29.929   0.400
71022W        W37805  30.501  31.098  12.856
71023W        W37806  21.108  28.806  12.138
71024W        W37807   0.749  16.325  13.451
71025W        W37808  19.753  24.254   0.429
71026W        W37809  13.971  28.044  11.152
71027W        W37810  40.899  42.424   2.819
71028W        W37811  21.944  22.761  12.435
71029W        W37812  38.581  31.971   1.778
71030W        W37813   3.815  31.023  11.880
71031W        W37814   1.935  16.045   0.550
71032W        W37815  22.976  33.375  12.280
71033W        W37816  15.896  36.442  13.862
71034W        W37817   4.954  27.413   3.623
71035W        W37818   3.210  33.104  12.044
71036W        W37819   7.805  43.865   1.835
71037W        W37820  30.757  32.128   1.717
71038W        W37821  44.308  30.628   0.009
71039W        W37822  43.695  19.742  12.509
71040W        W37823  39.025  22.247  14.825
71041W        W37824  26.535   3.917   4.761
71042W        W37825  44.248  17.554  13.799
71043W        W37826  15.315   1.129  10.738
71044W        W37827  44.759  16.827  12.731
71045W        W37828  35.774  30.395  14.399
71046W        W37829  41.069  23.813   2.739
71047W        W37830  28.451  42.163  10.665
71048W        W37831  22.430  38.601   3.816
71049W        W37832  26.622   5.782  11.438
71050W        W37833  37.119   7.179  10.287
71051W        W37834  24.207  12.130   2.019
71052W        W37835  31.889   1.321   4.798
71053W        W37836   3.062   1.446  11.040
71054W        W37837   5.193  18.521   1.616
71055W        W37838  15.553  32.592   3.625
71056W        W37839  39.927   5.467   2.277
71057W        W37840  17.811  30.503   1.417
71058W        W37841  18.536  25.267  13.340
71059W        W37842  41.863  23.538  12.864
71060W        W37843  17.277  23.752   4.479
71061W        W37844  44.104  20.937   4.501
71062W        W37845  20.497  15.405  13.520
71063W        W37846  21.758  34.087  13.862
71064W        W37847  25.447  26.677   2.265
71065W        W37848   2.301  23.582   2.975
71066W        W37849  26.580  27.719   0.474
71067W        W37850  35.483  23.748  13.605
71068W        W37851  23.704  24.505   1.262
71069W        W37852  11.211  37.010   4.737
71070W        W37853  39.032   2.441  14.159
71071W        W37854  20.079  41.445   4.586
71072W        W37855  13.718  17.483   2.196
71073W        W37856  20.070   9.205  12.459
71074W        W37857  25.198  20.320   2.381
71075W        W37858  44.787  33.857  14.306
71076W        W37859  42.536  34.469   3.899
71077W        W37860   8.573  21.175   4.138
71078W        W37861  23.772  31.011  14.740
71079W        W37862  39.375  11.168   3.662
71080W        W37863  37.927  24.142  11.533
71081W        W37864  39.055  40.839  14.922
71082W        W37865   9.223  33.004   1.111
71083W        W37866  39.111  13.765   5.512
71084W        W37867  36.067  17.497   2.857
71085W        W37868  42.967  24.498  11.540
71086W        W37869  15.702  24.678   2.094
71087W        W37870  37.398   9.322  10.689
71088W        W37871   9.592  30.487  11.936
71089W        W37872  37.383   1.740   2.893
71090W        W37873   9.229   2.166  12.333
71091W        W37874  43.075  34.620  12.519
71092W        W37875  11.266  28.545  10.387
71093W        W37876  10.962  36.905   3.194
71094W        W37877  37.787   8.624  14.880
71095W        W37878  30.074  18.101   3.196
71096W        W37879  12.536  32.811  11.052
71097W        W37880  34.366  21.036  11.492
71098W        W37881  29.173  25.758  14.391
71099W        W37882  24.554   4.016   1.127
71100W        W37883  32.373  15.628   2.293
71101W        W37884   6.657  16.681   1.204
71102W        W37885  39.033  41.465   1.054
71103W        W37886   6.004   1.946   0.813
71104W        W37887  16.058  40.819  11.653
71105W        W37888  29.959  17.244  11.744
71106W        W37889   7.751  10.265   3.655
71107W        W37890  40.515   5.880  14.795
71108W        W37891  25.836   1.370   4.895
71109W        W37892  11.632  18.052   2.209
71110W        W37893  23.270   3.241  11.618
71111W        W37894  23.733  42.443  14.210
71112W        W37895  32.935  40.800   2.266
71113W        W37896  27.215   6.927  14.509
71114W        W37897   5.192  18.670  11.077
71115W        W37898  17.803  25.300   1.348
71116W        W37899  43.703  43.829  12.585
71117W        W37900  21.225   0.053   4.538
71118W        W37901  12.569  28.390   3.660
71119W        W37902  26.637  30.683  10.888
71120W        W37903  33.065  18.203  14.008
71121W        W37904  31.724  33.529   0.348
71122W        W37905  10.371   1.877   2.445
71123W        W37906  31.724   5.459  13.779
71124W        W37907  33.562  31.093  13.087
71125W        W37908   8.152  13.243   2.415
71126W        W37909  40.071   1.261   0.453
71127W        W37910  44.514  35.370   1.687
71128W        W37911   3.476   5.719   3.787
71129W        W37912   5.117   5.243  13.410
71130W        W37913  14.309  42.763   4.566
71131W        W37914  39.844  34.660  10.857
71132W        W37915  41.027  23.923  14.656
71133W        W37916  10.179   6.161  10.683
71134W        W37917  41.263   7.531   4.935
71135W        W37918  27.077   8.714   0.472
71136W        W37919  10.292  23.489  12.065
71137W        W37920  40.110   9.831   1.940
71138W        W37921   2.472   8.463   2.736
71139W        W37922   1.019   7.308   5.067
71140W        W37923  28.567  22.833   4.114
71141W        W37924  25.764  16.732   1.193
71142W        W37925  10.244   7.211  12.119
71143W        W37926  12.706  11.236  11.056
71144W        W37927   3.383  22.435   2.598
71145W        W37928  37.834   3.005   4.485
71146W        W37929  43.951  21.765  11.851
71147W        W37930   5.859  43.597   3.171
71148W        W37931  22.213  25.132   4.944
71149W        W37932  32.524  22.485   2.736
71150W        W37933  34.341  33.627  12.475
71151W        W37934   5.401  17.372   0.715
71152W        W37935   5.453  43.936   1.491
71153W        W37936   6.760  28.703  12.586
71154W        W37937  11.312   2.216  14.863
71155W        W37938  31.534  15.035  12.007
71156W        W37939  12.716  16.124   4.736
71157W        W37940  23.702  10.564   1.352
71158W        W37941  37.622  37.853  11.239
71159W        W37942  44.583  18.199   0.558
71160W        W37943  20.625   0.776   0.528
71161W        W37944  17.627   1.211   3.284
71162W        W37945  27.301  16.674   1.320
71163W        W37946   4.208  38.960   4.632
71164W        W37947   6.024  28.472  10.726
71165W        W37948  20.707  43.166  12.071
71166W        W37949   0.036  12.146  10.737
71167W        W37950  34.378  11.375  12.772
71168W        W37951   5.958   0.539  14.724
71169W        W37952  25.718  10.180   1.189
71170W        W37953   5.675  41.024  11.981
71171W        W37954  20.205  13.089  14.911
71172W        W37955  13.787  24.515   4.917
71173W        W37956   0.345  14.208  13.796
71174W        W37957  25.973   6.245  12.970
71175W        W37958   6.080   5.140  13.128
71176W        W37959   6.292  36.923  11.690
71177W        W37960  32.416  16.824   3.793
71178W        W37961  42.000  30.474   1.960
71179W        W37962   4.434   7.845   2.440
71180W        W37963  21.083  14.734  12.073
71181W        W37964  13.183  11.649  13.406
71182W        W37965  35.422  10.160  13.340
71183W        W37966  33.859  24.564   4.695
71184W        W37967   6.149  35.579  11.784
71185W        W37968  16.283  41.389  11.019
71186W        W37969   0.754   2.037   4.495
71187W        W37970  41.780  20.986   2.781
71188W        W37971  16.647   8.279   3.421
71189W        W37972  28.883  15.092   2.767
71190W        W37973  17.345  36.996  12.650
71191W        W37974  11.732  34.061   1.002
71192W        W37975  10.304   5.916  14.200
71193W        W37976  27.192  27.251  12.252
71194W        W37977   7.380  34.112  11.885
71195W        W37978  26.714   1.147  13.426
71196W        W37979  12.493  38.938  10.975
71197W        W37980   4.170  27.963  14.795
71198W        W37981  39.040  25.655  12.054
71199W        W37982   3.013  38.916  12.014
71200W        W37983  21.270  20.406   1.413
71201W        W37984  35.023   9.597  12.737
71202W        W37985  37.707  14.722   1.472
71203W        W37986  15.764   4.761   3.266
71204W        W37987  29.425  43.915   0.683
71205W        W37988  40.327  19.887   4.171
71206W        W37989  10.815  35.474   1.696
71207W        W37990  38.061  18.044   4.450
71208W        W37991   4.729  10.861   3.209
71209W        W37992  32.076  35.455  13.699
71210W        W37993  29.263  28.357  12.181
71211W        W37994  19.649   1.467  14.845
71212W        W37995  28.609   4.190  13.450
71213W        W37996  15.766  14.087  11.071
71214W        W37997   7.477  40.009  14.455
71215W        W37998  17.628  32.364  12.118
71216W        W37999  15.697  42.563  12.868
71217W        W38000  35.485  39.376  13.810
71218W        W38001  30.927   2.418  13.291
71219W        W38002  33.877  11.727   3.820
71220W        W38003  10.605  10.222  12.517
71221W        W38004  43.079  13.280  11.393
71222W        W38005  34.399  34.621   2.257
71223W        W38006  43.786  22.149   1.978
71224W        W38007   8.258  31.203  12.083
71225W        W38008  11.268  12.772  10.547
71226W        W38009  12.821  27.015  11.975
71227W        W38010  16.102  27.792  12.742
71228W        W38011  21.697   0.018   0.433
71229W        W38012  11.768   8.611  13.335
71230W        W38013  16.566   0.398  14.019
71231W        W38014  24.512  35.598   1.724
71232W        W38015   5.242  26.060  11.651
71233W        W38016  27.237  13.565   2.755
71234W        W38017  37.206  19.726   4.605
71235W        W38018  12.608   7.746  13.329
71236W        W38019  20.295   7.365   2.808
71237W        W38020  23.206  10.834  12.806
71238ION    NA+38021  22.124  42.711  11.387
71239ION    NA+38022  16.769  18.544  14.951
71240ION    NA+38023  38.858  38.374  11.135
71241ION    NA+38024  20.514  44.066  14.019
71242ION    NA+38025   4.006  42.959  14.526
71243ION    NA+38026  10.150  39.912  10.089
71244ION    NA+38027  43.099  24.713   1.155
71245ION    NA+38028  19.351  31.332  14.062
71246ION    NA+38029  28.931  31.128   2.349
71247ION    NA+38030  33.622   0.437   0.893
71248ION    NA+38031  33.359  20.240  14.229
71249ION    NA+38032  17.274  32.837  14.154
71250ION    NA+38033   4.109  35.908  13.862
71251ION    NA+38034  31.202  18.546  11.660
71252ION    NA+38035  28.676  13.133   1.872
71253ION    NA+38036  29.936  12.247   0.892
71254ION    NA+38037  28.283   2.132   3.982
71255ION    NA+38038  13.885  34.285  13.665
71256ION    NA+38039  23.533  33.805   0.321
71257ION    NA+38040  11.092  13.041   2.755
71258ION    NA+38041  43.085   1.690   9.780
71259ION    NA+38042  42.658  23.553   3.831
71260ION    NA+38043   2.340  34.053  14.500
71261ION    NA+38044   9.471  42.133  13.221
71262ION    NA+38045   3.470  13.694  12.171
71263ION    NA+38046   3.200  26.539   2.403
71264ION    NA+38047  33.022   0.527  11.484
71265ION    NA+38048   6.669  12.135  11.544
71266ION    NA+38049  39.224   0.158  13.838
71267ION    NA+38050  26.201   9.400  12.033
71268ION    NA+38051  32.589  31.591   1.313
71269ION    NA+38052  12.619  20.821  13.178
71270ION    NA+38053  36.366  25.021  11.003
71271ION    NA+38054   4.846   5.899  14.439
71272ION    NA+38055   0.821  31.502   2.321
71273ION    NA+38056  39.643  19.513   4.926
71274ION    NA+38057  24.663  28.772  11.940
71275ION    NA+38058  35.053  20.355   4.337
71276ION    NA+38059  33.560  42.232  12.445
71277ION    NA+38060  25.336  20.586  14.054
71278ION    NA+38061   5.763   9.013  11.967
71279ION    NA+38062  25.759  28.283   2.706
71280ION    NA+38063  11.408  25.564  11.941
71281ION    NA+38064  30.917  30.551  13.999
71282ION    NA+38065   1.681  33.002   2.305
71283ION    NA+38066   1.722  23.177   1.394
71284ION    NA+38067  25.989  38.545  11.857
71285ION    NA+38068  29.878  19.719   0.297
71286ION    NA+38069  42.737   0.947  13.292
71287ION    NA+38070  22.647  34.265   4.636
71288ION    NA+38071  39.717   4.076   4.988
71289ION    NA+38072  44.860   1.016  12.128
71290ION    NA+38073  20.225  13.061  13.526
71291ION    NA+38074  39.474  37.946   0.308
71292ION    NA+38075   9.514   8.920   4.581
71293ION    NA+38076  10.099   3.160  11.960
71294ION    NA+38077  40.489  44.136  11.342
71295ION    NA+38078  42.787  29.056  12.805
71296ION    NA+38079  27.913  40.687   2.081
71297ION    NA+38080   8.334   9.395  12.597
71298ION    NA+38081  16.930  42.377  12.118
71299ION    NA+38082  17.559  35.947   4.558
71300ION    NA+38083  26.284  36.456  13.848
71301ION    NA+38084  36.951   4.349  12.128
71302ION    NA+38085  27.403   9.243   2.615
71303ION    NA+38086  16.074  32.446  11.856
71304ION    NA+38087   8.428  12.720   1.158
71305ION    NA+38088  10.118  22.267   0.429
71306ION    NA+38089  40.571  37.536  14.457
71307ION    NA+38090  26.698  21.938  12.141
71308ION    NA+38091  36.183  17.296   0.341
71309ION    NA+38092  38.649  13.443   4.292
71310ION    NA+38093  35.472  17.558   1.943
71311ION    NA+38094  32.012  29.060  12.669
71312ION    NA+38095  20.042  36.834  12.036
71313ION    NA+38096  35.631  26.837  13.383
71314ION    NA+38097  16.189  28.701  12.801
71315ION    NA+38098  22.546  42.004   2.311
71316ION    NA+38099  16.446  24.644  12.472
71317ION    NA+38100   5.855  12.702   3.738
71318ION    NA+38101   2.632   3.334   1.883
71319ION    NA+38102  14.972   1.055   3.565
71320ION    NA+38103  17.012  17.233  11.675
71321ION    NA+38104  11.867  25.258   0.755
71322ION    NA+38105  14.025  36.628   0.249
71323ION    NA+38106  28.846   6.654   2.006
71324ION    NA+38107  15.969  30.634   2.880
71325ION    NA+38108  35.877  27.280  14.246
71326ION    NA+38109   5.068  31.643  11.234
71327ION    NA+38110  10.946   4.715  13.087
71328ION    NA+38111  20.945  31.469   4.633
71329ION    NA+38112  15.049  18.829   2.823
71330ION    NA+38113  27.268  25.455  13.999
71331ION    NA+38114  16.706  21.657  12.284
71332ION    NA+38115   1.335  39.377   1.334
71333ION    NA+38116  28.731   0.351  12.038
71334ION    NA+38117  10.392  16.915  12.517
71335ION    NA+38118  11.874   7.570   3.684
71336ION    NA+38119   3.652   8.124   1.475
71337ION    NA+38120  30.351  17.336   1.224
71338ION    NA+38121  24.483  31.911  13.341
71339ION    NA+38122  27.172  19.730  13.359
71340ION    NA+38123  36.052  43.399   1.671
71341ION    NA+38124   6.694  38.900  11.448
71342ION    NA+38125   8.668  24.510  13.779
71343ION    NA+38126  12.205  29.929  14.976
71344ION    NA+38127  44.798  18.521   3.726
71345ION    NA+38128  20.503  16.312   1.830
71346ION    NA+38129   3.255  13.336   1.618
71347ION    NA+38130  11.189  14.847   1.004
71348ION    NA+38131  32.371   0.902  12.143
71349ION    NA+38132  34.591   5.897  11.660
71350ION    NA+38133  31.456   0.619   1.490
71351ION    NA+38134  41.541  24.313  12.528
71352ION    NA+38135  14.750  10.576   2.641
71353ION    NA+38136  14.434  37.448   2.004
71354ION    NA+38137  29.764  14.625   2.666
71355ION    NA+38138  40.520  23.099  14.379
71356ION    NA+38139   0.034  24.560   0.367
71357ION    NA+38140  23.263  14.553   1.283
71358ION    NA+38141  36.437  30.508   0.991
71359ION    NA+38142  34.949  13.831  10.664
71360ION    NA+38143  13.624  10.182   4.668
71361ION    NA+38144   6.716  33.639  11.469
71362ION    NA+38145  21.304   1.335   0.183
71363ION    NA+38146  15.601  33.825   4.149
71364ION    NA+38147  13.384  12.325   1.585
71365ION    NA+38148  42.319  14.226  11.608
71366ION    NA+38149  38.391   4.313   1.192
71367ION    NA+38150  36.206  18.454   3.191
71368ION    NA+38151   9.711  32.316   2.482
71369ION    NA+38152  10.548   3.187  10.652
71370ION    NA+38153  30.123  24.545  11.686
71371ION    NA+38154  31.670  21.588   0.266
71372ION    NA+38155  41.861  35.061  13.682
71373ION    NA+38156  31.473  19.081   4.288
71374ION    NA+38157  37.987  25.077  13.623
71375ION    NA+38158  18.558  42.263  14.459
71376ION    NA+38159  15.058   4.206   2.592
71377ION    NA+38160  43.772  12.173   3.695
71378ION    NA+38161  41.809  21.070  12.827
71379ION    NA+38162  26.807  15.291   1.468
71380ION    NA+38163  31.492  27.156   3.337
71381ION    NA+38164  10.042  15.315  13.086
71382ION    NA+38165  38.479  42.520  11.356
71383ION    NA+38166  14.293  23.045  12.416
71384ION    NA+38167  33.293   6.259  11.399
71385ION    NA+38168   2.457  15.012  13.904
71386ION    NA+38169  31.041  27.547   2.131
71387ION    NA+38170  16.689   2.171  12.417
71388ION    NA+38171  42.436  11.864  11.918
71389ION    NA+38172  10.945   8.253  10.924
71390ION    NA+38173  30.172   0.730  11.304
71391ION    NA+38174   9.155  15.432  12.344
71392ION    NA+38175   9.261  31.448   2.748
71393ION    NA+38176  29.947  38.883   0.421
71394ION    NA+38177   0.833  18.717  12.949
71395ION    NA+38178  25.743  14.609  14.997
71396ION    NA+38179  16.414  12.838   2.501
71397ION    NA+38180  18.539  20.010  10.308
71398ION    NA+38181   8.156   4.565  14.631
71399ION    NA+38182  12.618  43.821  11.424
71400ION    NA+38183  36.697  30.101  14.203
71401ION    NA+38184  41.233   8.748  14.619
71402ION    NA+38185  10.201  19.508   2.236
71403ION    NA+38186  36.757  28.535   1.819
71404ION    NA+38187   7.963  30.818   0.511
71405ION    NA+38188  18.735  43.443  10.032
71406ION    NA+38189  14.739  15.387   1.214
71407ION    NA+38190  41.736  25.644   3.205
71408ION    NA+38191  22.397  30.803   4.786
71409ION    NA+38192  26.288  37.134   1.708
71410ION    NA+38193  40.763  14.942   2.893
71411ION    NA+38194  39.041  27.601  14.812
71412ION    NA+38195   6.381  25.162   4.137
71413ION    NA+38196   4.891  24.444  12.010
71414ION    NA+38197  34.904  30.588  11.923
71415ION    NA+38198  16.442  39.889   1.363
71416ION    NA+38199  18.397   2.336  12.727
71417ION    NA+38200   8.414  30.270   4.137
71418ION    NA+38201   6.260  44.629  10.075
71419ION    NA+38202  11.013  37.767  11.198
71420ION    NA+38203  10.975   1.722   3.700
71421ION    NA+38204   3.713   3.009  10.808
71422ION    NA+38205  18.805  32.015   2.734
71423ION    NA+38206  31.468  12.190   3.171
71424ION    NA+38207  10.261  25.270  11.953
71425ION    NA+38208  20.421  36.315   0.867
71426ION    NA+38209   0.113  43.666   1.614
71427ION    NA+38210  10.618  30.968  13.092
71428ION    NA+38211  39.807   7.769   1.864
71429ION    NA+38212  33.061  22.750   3.701
71430ION    NA+38213  33.651   4.734  12.113
71431ION    NA+38214  23.693  28.500   0.545
71432ION    NA+38215  33.984  43.305  12.316
71433ION    NA+38216   0.082  30.122   4.686
71434ION    NA+38217  25.789  44.341   9.927
71435ION    NA+38218  31.105  35.857  13.336
71436ION    NA+38219   7.862  29.951  11.983
71437ION    NA+38220  37.261  25.836   2.445
71438ION    NA+38221  33.527  24.660   5.431
71439ION    NA+38222   5.887  21.552   1.926
71440ION    NA+38223  19.220   4.806  11.075
71441ION    NA+38224   6.801  14.893   0.277
71442ION    NA+38225  32.567  29.149   4.194
71443ION    NA+38226  40.706  19.122  14.991
71444ION    NA+38227  12.232  17.232   4.228
71445ION    NA+38228  31.272   4.182  13.828
71446ION    NA+38229  37.180  30.640   4.235
71447ION    NA+38230  17.300  22.981  12.197
71448ION    NA+38231  43.294  15.945  11.434
71449ION    NA+38232  30.753  25.479  13.874
71450ION    NA+38233   0.358  15.614  12.932
71451ION    NA+38234  20.108  16.587  11.548
71452ION    NA+38235  33.415  35.399  12.001
71453ION    NA+38236  41.707  43.249  13.843
71454ION    NA+38237  17.058  14.348  11.658
71455ION    NA+38238   9.849  26.226  14.543
71456ION    NA+38239  39.118  10.615   4.755
71457ION    NA+38240  13.747   3.580  11.645
71458ION    NA+38241   2.009  42.494   2.865
71459ION    NA+38242   2.570  11.863  11.787
71460ION    NA+38243  21.939  16.279   5.339
71461ION    NA+38244  13.985  14.793   1.495
71462ION    NA+38245  11.578   9.067  11.461
71463ION    NA+38246  41.625  10.201   1.134
71464ION    NA+38247  38.593   6.803   3.402
71465ION    NA+38248  21.330  31.132   1.147
71466ION    NA+38249  31.384  33.125   4.354
71467ION    NA+38250  35.375  31.059   0.072
71468ION    NA+38251  17.038  39.547  12.863
71469ION    NA+38252  44.802  14.369   0.756
71470ION    NA+38253  15.747  18.881  11.615
71471ION    NA+38254   9.093   5.351  10.854
71472ION    NA+38255  33.583  17.267   3.692
71473ION    NA+38256  29.685  44.595  11.641
71474ION    NA+38257   9.571   8.554   0.286
71475ION    NA+38258  16.671  39.243   2.835
71476ION    NA+38259  20.669  23.113   0.692
71477ION    NA+38260   8.814  12.885   2.517
71478ION    NA+38261  10.361   4.709  14.978
71479ION    NA+38262  21.969  27.196   2.709
71480ION    NA+38263  15.061  38.676   3.219
71481ION    NA+38264  18.955  23.567  12.515
71482ION    NA+38265  18.817  20.996  12.376
71483ION    NA+38266  18.503  41.035  10.615
71484ION    NA+38267   8.897   3.648   4.154
71485ION    NA+38268   4.009   3.146   2.990
71486ION    NA+38269  32.776   6.302  10.016
71487ION    NA+38270   8.408  26.060   3.136
71488ION    NA+38271   7.666  24.212  12.067
71489ION    NA+38272  23.432  44.005   2.729
71490ION    NA+38273  10.347  14.782   2.508
71491ION    NA+38274  28.472  19.222   4.659
71492ION    NA+38275  40.539  26.488   2.744
71493ION    NA+38276  40.269  29.297   2.967
71494ION    NA+38277  42.073   5.599   5.108
71495ION    NA+38278  34.568  32.878  13.520
71496ION    NA+38279  43.514  30.629   9.869
71497ION    NA+38280  31.341   6.026   3.675
71498ION    NA+38281  31.628   1.673  10.197
71499ION    NA+38282  29.680  25.619   2.154
71500ION    NA+38283   4.615   5.552  11.646
71501ION    NA+38284  16.057  43.481  13.248
71502ION    NA+38285  24.866  16.396   1.758
71503ION    NA+38286   4.642  29.565   0.637
71504ION    NA+38287  17.792  34.483   0.570
71505ION    NA+38288  10.407  38.959  12.871
71506ION    NA+38289   1.723  13.281  10.782
71507ION    NA+38290  43.965  30.465  14.437
71508ION    NA+38291  16.407  36.170  14.448
71509ION    NA+38292  11.623  21.593  14.444
71510ION    NA+38293   9.851  10.541   2.297
71511ION    NA+38294  37.514  22.773  12.957
71512ION    NA+38295  37.173  10.275   5.409
71513ION    NA+38296   6.014  15.682  14.576
71514ION    NA+38297  13.723   4.339   4.718
71515ION    NA+38298  23.486  21.687  13.972
71516ION    NA+38299  37.934  32.519   0.004
71517ION    NA+38300  26.981  34.596  11.036
71518ION    NA+38301  26.808  34.063   5.048
71519ION    NA+38302  23.494  28.174  13.456
71520ION    NA+38303  35.094  10.396   2.820
71521ION    NA+38304  23.275  31.285   4.678
71522ION    NA+38305   5.914   7.263   9.889
71523ION    NA+38306  35.404  33.162   3.775
71524ION    NA+38307  32.217   4.659  13.864
71525ION    NA+38308   7.426  12.580  12.025
71526ION    NA+38309  38.900   9.552  14.879
71527ION    NA+38310  32.333  36.707  14.339
71528ION    NA+38311   6.909  14.652   4.007
71529ION    NA+38312  24.365  18.823  10.896
71530ION    NA+38313  25.575  38.284  13.909
71531ION    NA+38314  25.640  21.307  13.097
71532ION    NA+38315  11.700   6.288   1.677
71533ION    NA+38316  30.165  21.895   3.049
71534ION    NA+38317  39.248  21.860   0.112
71535ION    NA+38318  10.767  27.236  12.206
71536ION    NA+38319  19.657   1.241   3.831
71537ION    NA+38320  41.268  37.642  13.941
71538ION    NA+38321  35.916  41.258   4.616
71539ION    NA+38322  42.451   0.728   3.703
71540ION    NA+38323  38.460  23.451   1.816
71541ION    NA+38324  42.956  38.756  14.868
71542ION    NA+38325  10.532  38.856  14.691
71543ION    NA+38326  10.094  11.414  13.068
71544ION    NA+38327  17.983   9.908   2.796
71545ION    NA+38328   1.825  27.181  13.926
71546ION    NA+38329   2.836  40.916   0.844
71547ION    NA+38330  11.811  30.516  13.121
71548ION    NA+38331  23.947  17.597   0.684
71549ION    NA+38332   2.930  25.723  10.690
71550ION    NA+38333  35.171   3.939  13.944
71551ION    NA+38334   2.641  12.566  11.216
71552ION    NA+38335  17.875  28.843   3.671
71553ION    NA+38336  10.840  36.516   0.940
71554ION    NA+38337  30.977  26.398  14.304
71555ION    NA+38338  26.642  40.243   4.094
71556ION    NA+38339  32.901  43.132   3.776
71557ION    NA+38340  22.586  18.327  13.581
71558ION    NA+38341  33.903  41.457  13.376
71559ION    NA+38342   9.093   3.159   0.486
71560ION    NA+38343  15.659   5.113  10.270
71561ION    NA+38344  29.185   1.891   4.855
71562ION    NA+38345  19.928   4.181   1.765
71563ION    NA+38346  39.908  42.862   2.942
71564ION    NA+38347  14.249  21.021  11.496
71565ION    NA+38348  21.954  20.578  12.096
71566ION    NA+38349   6.877  44.045   3.334
71567ION    NA+38350  32.664  27.164   1.718
71568ION    NA+38351  42.192  39.431   0.008
71569ION    NA+38352   6.860   4.149  11.962
71570ION    NA+38353  15.596  40.446  10.141
71571ION    NA+38354  38.525  32.866  11.537
71572ION    NA+38355  39.841  27.375  12.617
71573ION    NA+38356   4.979  39.036   1.456
71574ION    NA+38357  24.714  37.862  12.948
71575ION    NA+38358  38.606  42.101   4.183
71576ION    NA+38359  41.387   8.320   3.097
71577ION    NA+38360  14.605  25.014  13.559
71578ION    NA+38361   0.283  43.261  13.888
71579ION    NA+38362   8.622  35.070  11.412
71580ION    NA+38363   5.924  27.531  14.743
71581ION    NA+38364  25.739  20.798   4.477
71582ION    NA+38365  21.121  30.950   5.275
71583ION    NA+38366  15.183   0.943   0.196
71584ION    NA+38367  12.609  24.406  12.002
71585ION    NA+38368  21.921  24.805  14.940
71586ION    NA+38369  37.143   1.348   3.236
71587ION    NA+38370  29.160  43.310   1.671
71588ION    NA+38371   8.468  32.593   4.939
71589ION    NA+38372  22.624  34.777  12.509
71590ION    NA+38373  29.935  21.438  12.220
71591ION    NA+38374   0.035  36.338   3.751
71592ION    NA+38375  25.634   5.776   2.309
71593ION    NA+38376  23.325  16.176  13.133
71594ION    NA+38377  14.020  20.935  14.999
71595ION    NA+38378   6.202   5.129   1.945
71596ION    NA+38379  41.089  23.383   2.159
71597ION    NA+38380  32.388  23.789   0.015
71598ION    NA+38381  29.702   4.770  13.826
71599ION    NA+38382  28.181  19.474   3.261
71600ION    NA+38383  14.599  43.348  13.546
71601ION    NA+38384  40.583   8.397   1.803
71602ION    NA+38385  44.618  31.878   3.520
71603ION    NA+38386  38.954  38.979   2.820
71604ION    NA+38387  42.501   7.415  14.311
71605ION    NA+38388  14.603  34.960  10.300
71606ION    NA+38389  35.752  15.638   2.084
71607ION    NA+38390  26.389  16.222  12.088
71608ION    NA+38391  28.682   6.780  11.231
71609ION    NA+38392  35.917   2.979  14.604
71610ION    NA+38393  11.566  14.756  10.639
71611ION    NA+38394  11.049   3.059   5.193
71612ION    NA+38395  38.407   5.874   0.839
71613ION    NA+38396  14.317  32.301  14.524
71614ION    NA+38397  24.965  33.876   4.279
71615ION    NA+38398   7.611  33.292   4.108
71616ION    NA+38399  32.259   0.417  14.410
71617ION    NA+38400  14.176  42.568  10.899
71618ION    NA+38401   2.607  30.434  12.943
71619ION    NA+38402   6.440  22.931   1.532
71620ION    NA+38403  43.534   0.071   2.392
71621ION    NA+38404  26.873   8.245   0.223
71622ION    NA+38405  14.836  33.928  11.006
71623ION    NA+38406  32.568  11.684   1.275
71624ION    NA+38407  42.206  18.539   2.724
71625ION    NA+38408  16.706  11.173  14.911
71626ION    NA+38409  17.870  27.579   2.953
71627ION    NA+38410   8.499  21.484   0.195
71628ION    NA+38411  43.726  21.242  12.478
71629ION    NA+38412  16.504  16.143   2.802
71630ION    NA+38413  40.296   2.815   0.569
71631ION    NA+38414  24.812   5.826  10.855
71632ION    NA+38415  27.050   0.019   3.278
71633ION    NA+38416  12.638  36.545  13.292
71634ION    NA+38417  37.418  43.842   4.826
71635ION    NA+38418  13.269  14.298  12.529
71636ION    NA+38419  23.382  22.071  12.133
71637ION    NA+38420  34.730  31.554   2.812
71638ION    NA+38421   8.383  39.525  13.418
71639ION    NA+38422   0.663  22.555   2.111
71640ION    NA+38423  26.109  33.331  13.013
71641ION    NA+38424  21.126   2.534  12.924
71642ION    NA+38425   2.512  10.164  13.884
71643ION    NA+38426  43.468  36.007  10.646
71644ION    NA+38427  44.460  34.693  14.412
71645ION    NA+38428  30.831  10.120   2.559
71646ION    NA+38429  19.101  27.255  13.000
71647ION    NA+38430   3.930  31.946  14.545
71648ION    NA+38431  28.475   1.665  11.376
71649ION    NA+38432   4.855  44.795  11.486
71650ION    NA+38433  30.867  21.376  11.863
71651ION    NA+38434  15.604  26.646   1.728
71652ION    NA+38435  25.014  32.737   1.411
71653ION    NA+38436  36.624  24.278  13.143
71654ION    NA+38437  37.636  10.314   3.688
71655ION    NA+38438  13.363   8.953  10.359
71656ION    NA+38439  19.057  40.409  11.606
71657ION    NA+38440  42.803   9.420  10.672
71658ION    NA+38441  30.488  16.050  14.339
71659ION    NA+38442   5.367  37.383  13.392
71660ION    NA+38443  12.370  44.151   1.616
71661ION    NA+38444  30.710  13.222   3.218
71662ION    NA+38445  10.711  13.122   1.501
71663ION    NA+38446  28.134   5.223   4.645
71664ION    NA+38447  26.431  37.545  14.013
71665ION    NA+38448   0.435   7.193  10.630
71666ION    NA+38449  24.269  33.668  11.173
71667ION    NA+38450  23.867  10.631  12.046
71668ION    NA+38451  27.568  27.735  10.155
71669ION    NA+38452   5.776  31.722  14.649
71670ION    NA+38453   5.192   4.203  11.548
71671ION    NA+38454  44.170  26.979   1.522
71672ION    NA+38455  42.826  17.080   2.743
71673ION    NA+38456  31.246   2.733   2.820
71674ION    NA+38457  19.602   7.444   1.679
71675ION    NA+38458  37.606  31.540  10.911
71676ION    NA+38459  19.906  16.188  13.225
71677ION    NA+38460  25.498  26.054   2.831
71678ION    NA+38461   2.071  27.204   4.691
71679ION    NA+38462  32.050   1.692   4.105
71680ION    NA+38463  31.563  30.556  12.780
71681ION    NA+38464  21.484   6.683  10.310
71682ION    NA+38465   6.647  41.643  14.982
71683ION    NA+38466  22.647  32.214   2.790
71684ION    NA+38467  29.892   3.268   3.699
71685ION    NA+38468  42.910  21.560   3.197
71686ION    NA+38469  12.297   4.791   0.911
71687ION    NA+38470  21.955  17.729   0.774
71688ION    NA+38471  20.455  33.805  11.711
71689ION    NA+38472  15.335  15.117   0.393
71690ION    NA+38473  18.768   6.394  11.893
71691ION    NA+38474   0.318  26.931   3.482
71692ION    NA+38475  35.495  25.774  10.629
71693ION    NA+38476  13.226  32.541   3.007
71694ION    NA+38477  22.570  13.393   0.039
71695ION    NA+38478  26.244  29.948   1.897
71696ION    NA+38479  15.978  25.903   2.571
71697ION    NA+38480  33.685  25.281  11.687
71698ION    NA+38481  15.812  44.820  13.055
71699ION    NA+38482  25.159  13.349   2.286
71700ION    NA+38483   8.337  21.454  14.199
71701ION    NA+38484  39.933  17.545   0.621
71702ION    NA+38485  17.801   2.495   0.848
71703ION    NA+38486  13.369  35.333  10.305
71704ION    NA+38487   0.076  12.830  14.708
71705ION    NA+38488  18.287  28.006   4.084
71706ION    NA+38489  15.945   4.496  14.960
71707ION    NA+38490  42.460   8.857   1.580
71708ION    NA+38491  31.594  18.669   0.547
71709ION    NA+38492  20.128  19.181  14.408
71710ION    NA+38493  32.114  39.960  13.319
71711ION    NA+38494  28.483  33.380  12.159
71712ION    NA+38495   2.504  15.864  11.603
71713ION    NA+38496  42.510   6.525  14.259
71714ION    NA+38497  21.278  30.149  13.501
71715ION    NA+38498  13.149  27.166   4.461
71716ION    NA+38499  26.970  36.645   3.183
71717ION    NA+38500  15.355  13.795   0.948
71718ION    NA+38501  24.067  28.183   9.966
71719ION    NA+38502  42.732   2.880   4.328
71720ION    NA+38503  41.864  20.574   0.729
71721ION    NA+38504  39.116  36.375   0.966
71722ION    NA+38505  28.597  44.373  12.646
71723ION    NA+38506  20.613  27.649   2.890
71724ION    NA+38507  17.433  36.965  11.504
71725ION    NA+38508   6.585  37.138   0.258
71726ION    NA+38509   2.757   8.238  12.068
71727ION    NA+38510  33.377   2.587   4.721
71728ION    NA+38511   7.217  26.722  11.978
71729ION    NA+38512   0.933  43.765  14.457
71730ION    NA+38513   5.791  18.535  12.296
71731ION    NA+38514   3.704  17.242   1.502
71732ION    NA+38515  19.892  12.002   1.337
71733ION    NA+38516  10.599  38.392   3.796
71734ION    NA+38517  17.880   6.831  12.031
71735ION    NA+38518  14.354  35.320   4.253
71736ION    NA+38519  31.664  35.309  10.613
71737ION    NA+38520   9.963  24.956   1.024
71738ION    NA+38521  29.048  14.945   1.739
71739ION    NA+38522  43.564  20.100   0.413
71740ION    NA+38523  35.527  22.963   2.152
71741ION    NA+38524  23.008  27.085   2.916
71742ION    NA+38525   0.301  28.440   2.781
71743ION    NA+38526  15.030  12.687   0.098
71744ION    NA+38527  15.872  29.761   3.105
71745ION    NA+38528  17.102  25.661   3.791
71746ION    NA+38529  21.911  34.365  12.118
71747ION    NA+38530  20.382   8.682  11.139
71748ION    NA+38531  15.708  38.375  12.017
71749ION    NA+38532   1.467  10.123  12.945
71750ION    NA+38533   9.674   9.226   1.019
71751ION    NA+38534  19.136   9.845   2.198
71752ION    NA+38535  27.126  21.533   2.153
71753ION    NA+38536  24.226  14.502   1.019
71754ION    NA+38537  14.661  34.676   2.201
71755ION    NA+38538  38.391  10.631  14.317
71756ION    NA+38539  40.466  43.200  11.694
71757ION    NA+38540  39.699  26.189  11.440
71758ION    NA+38541   6.090  11.186   4.183
71759ION    NA+38542   9.503  42.583  12.435
71760ION    NA+38543  39.963  40.285  11.017
71761ION    NA+38544  42.409  41.964   4.927
71762ION    NA+38545   2.267  43.766  11.415
71763ION    NA+38546  11.940  28.827  11.608
71764ION    NA+38547  41.027  40.731  14.409
71765ION    NA+38548  16.802  13.219  10.625
71766ION    NA+38549  23.415  14.882   4.500
71767ION    NA+38550  33.034   1.035   0.348
71768ION    NA+38551  44.614  29.678  12.427
71769ION    NA+38552   3.301   0.488   4.529
71770ION    NA+38553  18.731  13.869  11.878
71771ION    NA+38554   0.411   0.416   0.390
71772ION    NA+38555  14.499  17.618   1.732
71773ION    NA+38556  12.505   8.213  14.633
71774ION    NA+38557  21.917  19.135  12.069
71775ION    NA+38558  31.619  30.394   0.430
71776ION    NA+38559   9.209   7.730  14.850
71777ION    NA+38560   5.206   2.894  12.791
71778ION    NA+38561  19.733  19.577  13.476
71779ION    NA+38562  40.739  16.634  11.833
71780ION    NA+38563   2.053  40.020   1.601
71781ION    NA+38564   8.838  12.158   1.831
71782ION    NA+38565  35.615   1.701  12.206
71783ION    NA+38566  25.654  11.042   3.210
71784ION    NA+38567  17.098  19.907  14.166
71785ION    NA+38568  40.854  25.721  11.272
71786ION    NA+38569   5.259  29.007   1.535
71787ION    NA+38570   6.244  30.488   1.470
71788ION    NA+38571   9.544  22.087   3.609
71789ION    NA+38572  40.168  24.479   0.592
71790ION    NA+38573   0.294   4.791  12.770
71791ION    NA+38574  15.128  42.270  12.909
71792ION    NA+38575  12.132  40.849   2.717
71793ION    NA+38576  21.357  14.067   3.468
71794ION    NA+38577  12.661  16.326  10.868
71795ION    NA+38578  15.138  39.334  14.746
71796ION    NA+38579  37.692  28.880   0.832
71797ION    NA+38580  21.042  28.210   4.502
71798ION    NA+38581  34.057  33.487   1.186
71799ION    NA+38582  12.339  35.416  10.258
71800ION    NA+38583  44.810  32.997  12.394
71801ION    NA+38584  12.986  16.406  12.555
71802ION    NA+38585  13.854  40.476  12.024
71803ION    NA+38586  18.629  41.857   0.896
71804ION    NA+38587  10.574  24.795  10.522
71805ION    NA+38588  39.572  21.150  13.400
71806ION    NA+38589   4.282  17.324   3.241
71807ION    NA+38590   3.905  26.768  12.087
71808ION    NA+38591  13.418  39.734  12.533
71809ION    NA+38592  33.985  12.233   2.739
71810ION    NA+38593  10.501  26.615  13.305
71811ION    NA+38594  21.694  42.116   2.822
71812ION    NA+38595   3.663   3.713  13.238
71813ION    NA+38596  19.437  25.879   3.632
71814ION    NA+38597  13.351  35.431   2.821
71815ION    NA+38598  17.352  27.921   3.738
71816ION    NA+38599  17.347  37.224   5.409
71817ION    NA+38600   7.994   1.287  12.447
71818ION    NA+38601   0.873  15.265  11.466
71819ION    NA+38602  27.206   7.352  13.258
71820ION    NA+38603  40.430  38.818  12.734
71821ION    NA+38604  20.996  19.601  11.525
71822ION    NA+38605   4.802  36.419  13.573
71823ION    NA+38606  36.325   2.268   0.287
71824ION    NA+38607  21.061  20.809   2.385
71825ION    NA+38608  19.236  11.490  13.769
71826ION    NA+38609  38.923  27.514   3.275
71827ION    NA+38610   6.007  43.893   0.107
71828ION    NA+38611  24.551  12.756  12.153
71829ION    NA+38612  32.294  38.397   2.119
71830ION    NA+38613  43.934  20.016   2.747
71831ION    NA+38614   6.226   9.756   0.410
71832ION    NA+38615  38.237  14.519  11.511
71833ION    NA+38616  14.621  24.725   0.661
71834ION    NA+38617   7.602   2.486  11.726
71835ION    NA+38618  13.733   9.993   9.394
71836ION    NA+38619  44.088  33.455  11.471
71837ION    NA+38620   0.955   8.441   4.353
71838ION    NA+38621  24.516  29.069   1.229
71839ION    NA+38622   1.518  35.849  13.120
71840ION    NA+38623  33.051  41.334   4.191
71841ION    NA+38624  39.816  38.762   3.875
71842ION    NA+38625  20.795  15.139  13.150
71843ION    NA+38626  30.686  27.067   1.432
71844ION    NA+38627  32.073  44.409   4.606
71845ION    NA+38628   2.090  40.284   0.637
71846ION    NA+38629  16.119  11.866   3.316
71847ION    NA+38630  43.901  10.242   1.051
71848ION    NA+38631  43.460  31.979  12.998
71849ION    NA+38632  36.952   2.696  12.067
71850ION    NA+38633  20.445  43.457   1.874
71851ION    NA+38634  44.778  27.023  11.773
71852ION    NA+38635  35.016  22.130  14.294
71853ION    NA+38636  44.776   0.041  13.922
71854ION    NA+38637   7.287  13.337  14.128
71855ION    NA+38638  41.330  26.148   0.893
71856ION    NA+38639  44.394  41.912   2.832
71857ION    NA+38640  40.453   5.368  10.826
71858ION    NA+38641  13.393  31.998   0.753
71859ION    NA+38642  37.435  30.936  14.004
71860ION    NA+38643  34.903   8.769   2.543
71861ION    NA+38644   0.447  14.108   3.174
71862ION    NA+38645  38.978  11.430   0.460
71863ION    NA+38646  23.735  25.742  12.092
71864ION    NA+38647  42.250  38.106  13.126
71865ION    NA+38648  26.543  27.266   0.783
71866ION    NA+38649  34.109   0.096   4.435
71867ION    NA+38650  22.902  21.728   1.065
71868ION    NA+38651  12.957  15.098  10.361
71869ION    NA+38652  11.768  24.454  12.543
71870ION    NA+38653  42.732  10.090  13.290
71871ION    NA+38654  34.588  21.728  11.981
71872ION    NA+38655  40.064  32.046  10.385
71873ION    NA+38656   9.358  40.744   2.609
71874ION    NA+38657  42.740  26.287  12.605
71875ION    NA+38658  27.536  25.815   3.831
71876ION    NA+38659  17.283   0.769   5.101
71877ION    NA+38660  28.119  28.234   3.328
71878ION    NA+38661   7.812  26.520  12.191
71879ION    NA+38662  15.754  42.542  14.605
71880ION    NA+38663   9.291  27.158  14.842
71881ION    NA+38664  13.776  41.080  11.231
71882ION    NA+38665   6.446  31.336   3.162
71883ION    NA+38666  26.227  33.560   1.702
71884ION    NA+38667  38.742  28.458  13.411
71885ION    NA+38668  43.607  11.227  13.423
71886ION    NA+38669  27.579  15.683   3.133
71887ION    NA+38670  21.671   2.958  12.121
71888ION    NA+38671  36.093  33.015   2.733
71889ION    NA+38672  39.764   7.198   5.250
71890ION    NA+38673   6.674  33.068  14.236
71891ION    NA+38674  42.655  32.996  12.670
71892ION    NA+38675  43.264  12.275   0.966
71893ION    NA+38676   2.937  14.285  14.520
71894ION    NA+38677  39.943  16.989  12.323
71895ION    NA+38678  16.338  10.168   4.179
71896ION    NA+38679  33.455   2.770   1.315
71897ION    NA+38680  28.560  25.447  13.341
71898ION    NA+38681  27.541   3.055   1.948
71899ION    NA+38682  16.974  40.598   2.991
71900ION    NA+38683  23.316  17.557   3.209
71901ION    NA+38684  28.989  38.710   4.496
71902ION    NA+38685  14.487   3.479  13.681
71903ION    NA+38686  19.106  31.436   4.284
71904ION    NA+38687  33.574   2.370  12.492
71905ION    NA+38688  38.008  33.150   3.570
71906ION    NA+38689  23.706  26.746  13.486
71907ION    NA+38690  31.116   4.918  10.777
71908ION    NA+38691  25.490  14.769  12.898
71909ION    NA+38692  16.431  37.815  12.441
71910ION    NA+38693  17.570  25.615   0.799
71911ION    NA+38694  15.644  23.176   4.499
71912ION    NA+38695   6.144  14.095  14.823
71913ION    NA+38696  18.719  19.565  14.377
71914ION    NA+38697   4.812   9.490  13.866
71915ION    NA+38698  17.173   1.943   4.608
71916ION    NA+38699  26.498  29.836   3.610
71917ION    NA+38700  33.084  17.043   0.882
71918ION    NA+38701  21.014  37.632  14.954
71919ION    NA+38702  24.762   7.526  12.658
71920ION    NA+38703  31.954  40.661   0.271
71921ION    NA+38704  35.927   9.933   3.370
71922ION    NA+38705  22.940  41.353   0.879
71923ION    NA+38706  24.883  20.442   5.012
71924ION    NA+38707  37.860  17.477   1.855
71925ION    NA+38708  19.085  23.473  11.072
71926ION    NA+38709  12.472  20.333   0.687
71927ION    NA+38710  29.610  39.804  13.631
71928ION    NA+38711  39.903  28.187  10.336
71929ION    NA+38712  19.595   2.501  14.814
71930ION    NA+38713   9.683  38.195   0.941
71931ION    NA+38714  23.280  25.774   2.889
71932ION    NA+38715  17.945  11.410   3.635
71933ION    NA+38716  21.459  31.643  14.796
71934ION    NA+38717  15.845  28.707   3.344
71935ION    NA+38718  17.331  24.251   4.342
71936ION    NA+38719   5.590   3.884  14.742
71937ION    NA+38720  12.350  32.013  11.948
71938ION    NA+38721   0.456  30.840   0.428
71939ION    NA+38722  38.406  22.544  10.885
71940ION    NA+38723  22.089  21.690   4.653
71941ION    NA+38724  40.810   2.555   2.279
71942ION    NA+38725  17.935  25.435  10.699
71943ION    NA+38726  10.281  14.412  13.443
71944ION    NA+38727  18.328   3.767  12.627
71945ION    NA+38728  26.561  25.854   4.049
71946ION    NA+38729   5.197   2.907  11.353
71947ION    NA+38730  12.433   3.552  12.865
71948ION    NA+38731  17.146  10.103   3.308
71949ION    NA+38732  26.535   3.284   1.444
71950ION    NA+38733  33.403  30.200  12.782
71951ION    NA+38734  11.779   3.860   1.855
71952ION    NA+38735   0.517  43.576   2.477
71953ION    NA+38736  34.398  40.760  11.064
71954ION    NA+38737  33.133  18.705   4.319
71955ION    NA+38738   1.858  17.433   0.291
71956ION    NA+38739  11.797  39.821   4.638
71957ION    NA+38740  14.925   6.666  13.084
71958ION    NA+38741  15.705  41.632   2.277
71959ION    NA+38742  38.174   7.947   2.483
71960ION    NA+38743  25.406  38.675   2.049
71961ION    NA+38744  28.081  40.409   0.261
71962ION    NA+38745  41.230  18.033  11.269
71963ION    NA+38746  24.626  41.749  10.214
71964ION    NA+38747  10.116  15.685   4.093
71965ION    NA+38748  25.407  29.412   1.631
71966ION    NA+38749   1.377  35.750  14.933
71967ION    NA+38750  30.124   5.354   2.766
71968ION    NA+38751   5.701  16.315   5.061
71969ION    NA+38752  30.237  34.631   0.481
71970ION    NA+38753  31.377  26.645  11.601
71971ION    NA+38754  13.180  43.858   0.580
71972ION    NA+38755  41.987  11.041  11.570
71973ION    NA+38756  20.748  28.426   0.236
71974ION    NA+38757  29.274  17.725  14.901
71975ION    NA+38758   2.865  13.528  10.933
71976ION    NA+38759   5.338  24.212   3.336
71977ION    NA+38760  42.089  44.531  12.927
71978ION    NA+38761   4.933  41.969   1.642
71979ION    NA+38762   8.682  22.684   3.684
71980ION    NA+38763  22.990  10.897  13.672
71981ION    NA+38764  29.012   7.708   0.541
71982ION    NA+38765  11.704   2.472   2.116
71983ION    NA+38766  36.126  33.456   4.708
71984ION    NA+38767  27.336  34.558   3.319
71985ION    NA+38768  37.421  26.543  12.629
71986ION    NA+38769   3.151  42.901   0.054
71987ION    NA+38770   5.622   7.150   2.239
71988ION    NA+38771  42.251  41.076  11.972
71989ION    NA+38772  31.967  14.748  12.023
71990ION    NA+38773  11.659  37.465  14.819
71991ION    NA+38774  13.115   9.088   4.755
71992ION    NA+38775  25.109  10.494  13.062
71993ION    NA+38776  11.882   9.726  13.926
71994ION    NA+38777  39.558  22.320   0.947
71995ION    NA+38778  41.840  36.852   0.983
71996ION    NA+38779  10.364  42.783   4.565
71997ION    NA+38780  19.418  42.377  13.811
71998ION    NA+38781  35.653  40.164  12.080
71999ION    NA+38782  20.096   9.804   2.475
72000ION    NA+38783  37.194  39.952   2.157
72001ION    NA+38784  38.982  29.783  10.138
72002ION    NA+38785  32.660  30.452  11.062
72003ION    NA+38786  21.357   5.897  12.585
72004ION    NA+38787  37.459   9.675  13.737
72005ION    NA+38788  41.762  14.794  12.843
72006ION    NA+38789  14.583  15.412  14.996
72007ION    NA+38790   5.703  39.212   4.323
72008ION    NA+38791  33.048  10.234   5.090
72009ION    NA+38792   8.596  15.685   4.112
72010ION    NA+38793  19.503  33.290  14.852
72011ION    NA+38794   5.413  31.390  12.826
72012ION    NA+38795  19.642  24.943  10.597
72013ION    NA+38796  29.341  36.396  11.957
72014ION    NA+38797  34.295  10.873   3.403
72015ION    NA+38798  29.023  26.050  13.990
72016ION    NA+38799  10.977  13.212  11.640
72017ION    NA+38800  25.635  44.954   4.039
72018ION    NA+38801  14.077  20.032  13.942
72019ION    NA+38802  15.800  16.769  13.074
72020ION    NA+38803  35.836  26.656   0.026
72021ION    NA+38804  25.094  16.366  13.944
72022ION    NA+38805  24.145  42.454   0.261
72023ION    NA+38806  15.026   3.363  10.539
72024ION    NA+38807  33.540  36.851  12.083
72025ION    NA+38808  41.266  10.678   1.937
72026ION    NA+38809  34.847   7.419  14.038
72027ION    NA+38810  18.035  44.014  12.426
72028ION    NA+38811   3.879  16.533   2.022
72029ION    NA+38812  33.976  22.505   5.304
72030ION    NA+38813  38.944  13.925  12.869
72031ION    NA+38814  38.547  27.859   4.426
72032ION    NA+38815  12.048  43.135  10.807
72033ION    NA+38816  35.048  19.330  13.370
72034ION    NA+38817  40.299  34.595   2.780
72035ION    NA+38818  38.638  38.643  13.811
72036ION    NA+38819  21.725  39.213   4.741
72037ION    NA+38820  33.309  27.216   0.407
72038ION    NA+38821  12.572   1.970   3.184
72039ION    NA+38822  24.111   5.794   3.660
72040ION    NA+38823  33.161  44.950   9.501
72041ION    NA+38824  21.803  26.054  13.386
72042ION    NA+38825  44.055  10.258  12.497
72043ION    NA+38826   3.761  11.303   1.435
72044ION    NA+38827  11.680  20.694  12.172
72045ION    NA+38828  16.278  17.012   2.201
72046ION    NA+38829  41.905  38.212   2.816
72047ION    NA+38830  38.550  31.308  14.201
72048ION    NA+38831  29.207   3.918  12.087
72049ION    NA+38832   4.393   4.092   3.905
72050ION    NA+38833  17.362  28.936  12.614
72051ION    NA+38834  37.671  38.372   1.395
72052ION    NA+38835  21.103  26.811   3.406
72053ION    NA+38836  44.636  20.480  12.948
72054ION    NA+38837  41.003  13.648  11.924
72055ION    NA+38838  35.123  24.795   0.717
72056ION    NA+38839   4.847  44.254  12.644
72057ION    NA+38840  29.554  32.555  10.842
72058ION    NA+38841  12.226   0.077   1.136
72059ION    NA+38842  41.093  34.646   2.174
72060ION    NA+38843   0.380  12.633   2.128
72061ION    NA+38844  37.385  19.218  14.540
72062ION    NA+38845  39.196  30.410  12.247
72063ION    NA+38846  26.684  44.737  14.823
72064ION    NA+38847  20.045  28.939   1.396
72065ION    NA+38848  13.037  21.521  12.571
72066ION    NA+38849  31.790  11.777   0.292
72067ION    NA+38850  12.030   0.923   1.632
72068ION    NA+38851  43.032   3.010   0.765
72069ION    NA+38852  22.258  18.341   1.505
72070ION    NA+38853  32.481  22.994  14.316
72071ION    NA+38854  33.837  19.406  10.580
72072ION    NA+38855   3.528  17.232   0.676
72073ION    NA+38856  25.668  32.113   4.687
72074ION    NA+38857  14.808  11.720  14.240
72075ION    NA+38858   4.475  23.561  14.177
72076ION    NA+38859  33.878  43.715  14.020
72077ION    NA+38860  30.850  31.805  11.658
72078ION    NA+38861  21.090   4.543  11.531
72079ION    NA+38862  44.389  17.544  10.796
72080ION    NA+38863  24.202  32.729  13.500
72081ION    NA+38864  35.499  35.821   0.212
72082ION    NA+38865  44.090  41.526  11.278
72083ION    NA+38866   6.745  38.538   1.951
72084ION    NA+38867   0.748   7.712   4.300
72085ION    NA+38868  42.950  12.925  13.260
72086ION    NA+38869   5.408  31.246   4.010
72087ION    NA+38870  13.294  11.163   1.863
72088ION    NA+38871  34.357  34.861   4.079
72089ION    NA+38872  26.365  16.268  14.296
72090ION    NA+38873   3.677  29.717   0.398
72091ION    NA+38874   8.839  41.899   2.729
72092ION    NA+38875  40.989   4.460  11.378
72093ION    NA+38876   2.876  11.876  13.663
72094ION    NA+38877   1.517  26.680   1.801
72095ION    NA+38878  25.499  21.238   2.294
72096ION    NA+38879  34.338  42.946   3.603
72097ION    NA+38880  21.723  21.538  12.251
72098ION    NA+38881  39.505  28.625  12.787
72099ION    NA+38882  29.588  37.355  12.099
72100ION    NA+38883  21.246  10.191   0.219
72101ION    NA+38884  32.690   4.179  10.702
72102ION    NA+38885  35.613  18.299   1.279
72103ION    NA+38886  36.538  17.913  14.638
72104ION    NA+38887  39.522  13.058  12.468
72105ION    NA+38888  36.008  44.467  12.795
72106ION    NA+38889  42.685  22.548  10.825
72107ION    NA+38890  36.018   8.438  14.408
72108ION    NA+38891  38.359  16.924   5.128
72109ION    NA+38892  13.286  43.448   3.046
72110ION    NA+38893  22.178   9.835   1.533
72111ION    NA+38894  11.312   4.118   0.213
72112ION    NA+38895   9.574  43.137   4.064
72113ION    NA+38896  21.760  23.610  10.340
72114ION    NA+38897  29.493  27.197   3.097
72115ION    NA+38898   7.376  13.446   3.056
72116ION    NA+38899   2.999   7.890   2.066
72117ION    NA+38900  27.974  15.166  14.367
72118ION    NA+38901  34.293  20.603  12.293
72119ION    NA+38902  13.342   9.922  14.307
72120ION    NA+38903   6.235  20.811  13.864
72121ION    NA+38904  44.006  38.427  14.357
72122ION    NA+38905   8.828  35.934   4.148
72123ION    NA+38906   5.492   3.529   1.851
72124ION    NA+38907   9.887   6.822  12.046
72125ION    NA+38908  42.040  11.171  10.579
72126ION    NA+38909  16.272  30.008  11.925
72127ION    NA+38910  10.578  23.166   3.744
72128ION    NA+38911  14.545  29.034   9.895
72129ION    NA+38912  40.656  14.740  13.903
72130ION    NA+38913  23.249   6.916   0.029
72131ION    NA+38914  17.367  25.089  10.096
72132ION    NA+38915  10.310  41.991  12.450
72133ION    NA+38916  24.070   6.913  14.076
72134ION    NA+38917   7.391  31.050  11.131
72135ION    NA+38918  11.798  34.903  14.670
72136ION    NA+38919  39.234  40.233   1.385
72137ION    NA+38920  29.247  37.526  14.002
72138ION    NA+38921  16.429   6.007  12.281
72139ION    NA+38922   3.917   5.539  14.528
72140ION    NA+38923  36.316   3.902   2.206
72141ION    NA+38924  16.304   4.242   2.754
72142ION    NA+38925  40.524  32.344  14.429
72143ION    NA+38926  29.172  44.456   2.893
72144ION    NA+38927  16.678  39.811  13.954
72145ION    NA+38928  22.759  32.475  14.895
72146ION    NA+38929  44.012  26.208  12.901
72147ION    NA+38930   7.641   7.825   9.956
72148ION    NA+38931  37.289  24.513   3.652
72149ION    NA+38932  34.862   1.303   3.228
72150ION    NA+38933  43.925  22.003  10.564
72151ION    NA+38934  17.840  13.077   3.210
72152ION    NA+38935  35.334  18.042   3.700
72153ION    NA+38936   4.753  35.178  12.962
72154ION    NA+38937  28.936   5.105   2.102
72155ION    NA+38938  44.784  42.632  12.938
72156ION    NA+38939  15.602   1.999   1.199
72157ION    NA+38940  41.939   6.479   5.208
72158ION    NA+38941  36.084  40.228  13.397
72159ION    NA+38942  20.688  23.002  11.988
72160ION    NA+38943   7.825  23.393  12.619
72161ION    NA+38944   3.631   4.500  13.454
72162ION    NA+38945  29.963   0.261   1.428
72163ION    NA+38946   9.843   0.930  14.646
72164ION    NA+38947  15.055  28.661   2.732
72165ION    NA+38948  13.337   5.708  11.166
72166ION    NA+38949  31.061   6.379  13.237
72167ION    NA+38950  26.929  37.272  12.970
72168ION    NA+38951   7.289  22.766   2.648
72169ION    NA+38952  26.591  32.022  10.735
72170ION    NA+38953  10.536  44.568   4.248
72171ION    NA+38954  19.199  23.533   2.242
72172ION    NA+38955  25.218  44.591  13.786
72173ION    NA+38956  36.979  38.835  14.453
72174ION    NA+38957   4.809  19.008   0.274
72175ION    NA+38958  38.776   1.282   0.687
72176ION    NA+38959   7.245  39.578  10.899
72177ION    NA+38960  10.359   4.429   1.979
72178ION    NA+38961  22.718   9.824  14.759
72179ION    NA+38962  31.736  10.785   0.173
72180ION    NA+38963   5.184   8.198   3.275
72181ION    NA+38964  23.579   6.169   1.694
72182ION    NA+38965  25.585  37.266  11.132
72183ION    NA+38966  26.656  44.471   1.108
72184ION    NA+38967  44.519  18.615  14.898
72185ION    NA+38968  27.055  11.827  14.090
72186ION    NA+38969  25.453  17.801  14.303
72187ION    NA+38970   7.374   4.133   0.697
72188ION    NA+38971  15.527  24.053   2.708
72189ION    NA+38972  37.253  20.357   2.361
72190ION    NA+38973  25.385  21.422  14.375
72191ION    NA+38974   1.454  27.916   5.025
72192ION    NA+38975  32.842  15.868   4.192
72193ION    NA+38976  14.848  42.877   1.599
72194ION    NA+38977   9.045  34.148   4.208
72195ION    NA+38978  29.368  18.054  11.485
72196ION    NA+38979  16.538  14.114  13.788
72197ION    NA+38980  18.685  21.901   0.978
72198ION    NA+38981  25.139   4.973  12.845
72199ION    NA+38982  39.783  20.410   4.507
72200ION    NA+38983  25.865  10.347  11.816
72201ION    NA+38984  17.087  29.684   4.073
72202ION    NA+38985  29.741  20.021  11.193
72203ION    NA+38986  20.125  29.539  12.978
72204ION    NA+38987  14.131  18.799   3.221
72205ION    NA+38988  31.370  19.634  10.492
72206ION    NA+38989   8.050  24.735  10.329
72207ION    NA+38990  16.360  32.561  13.515
72208ION    NA+38991  38.820  34.224   1.880
72209ION    NA+38992  24.671  22.138  10.676
72210ION    NA+38993  39.565   3.699   1.926
72211ION    NA+38994  10.290  13.338  14.647
72212ION    NA+38995  15.527  16.893  11.435
72213ION    NA+38996   4.728  12.576   3.735
72214ION    NA+38997   1.093  39.290  14.878
72215ION    NA+38998   7.155  32.494  11.557
72216ION    NA+38999  14.060  32.791   4.238
72217ION    NA+39000  13.015  33.081  12.683
72218ION    NA+39001  14.375  24.490  11.639
72219ION    NA+39002  37.067   9.790  14.941
72220ION    NA+39003  44.737  38.052  12.872
72221ION    NA+39004  32.501  29.014  10.268
72222ION    NA+39005  18.606  26.050   1.277
72223ION    NA+39006   5.788   2.174  11.688
72224ION    NA+39007  24.837  11.151   4.097
72225ION    NA+39008  14.002  25.541  12.920
72226ION    NA+39009  21.101  39.815   2.667
72227ION    NA+39010   2.895  20.609  12.985
72228ION    NA+39011  22.566  42.078  12.101
72229ION    NA+39012  22.310  23.628  11.174
72230ION    NA+39013  34.111  13.400   0.743
72231ION    NA+39014  28.854   1.624   3.481
72232ION    NA+39015   7.556   0.367   3.647
72233ION    NA+39016  40.426  11.680   2.355
72234ION    NA+39017  33.935  13.552   3.221
72235ION    NA+39018  30.926  26.423   4.575
72236ION    NA+39019  42.607  37.659   1.779
72237ION    NA+39020  24.955  27.689   2.738
72238ION    NA+39021  32.344  40.470  11.582
72239ION    NA+39022   9.928  26.805  11.093
72240ION    NA+39023  39.310  17.660   1.442
72241ION    NA+39024  25.045  26.784   2.621
72242ION    NA+39025  28.657  40.621   2.597
72243ION    NA+39026  28.178  19.333  11.552
72244ION    NA+39027  30.539  20.583  11.594
72245ION    NA+39028  27.678  31.869  11.790
72246ION    NA+39029   5.105  30.640   0.008
72247ION    NA+39030  23.999  18.604  12.940
72248ION    NA+39031  24.086   3.959  13.781
72249ION    NA+39032   4.173  18.588   1.654
72250ION    NA+39033  41.339  19.033   4.296
72251ION    NA+39034  28.143  25.720  11.381
72252ION    NA+39035  30.135  24.789  13.319
72253ION    NA+39036  38.256  11.602  10.787
72254ION    NA+39037   9.595   0.834  13.588
72255ION    NA+39038  38.440  15.606   2.433
72256ION    NA+39039  18.844  13.736   0.836
72257ION    NA+39040  14.059  19.730  11.979
72258ION    NA+39041   9.651  41.412   3.472
72259ION    NA+39042  10.666  31.450   4.167
72260ION    NA+39043   6.510   7.764   2.072
72261ION    NA+39044  14.874  26.085  12.108
72262ION    NA+39045  16.638  25.303  14.190
72263ION    NA+39046  38.982  30.881   1.240
72264ION    NA+39047  15.665  40.488   3.937
72265ION    NA+39048   9.434   4.378   4.577
72266ION    NA+39049  21.891  13.409  14.498
72267ION    NA+39050  19.050  41.774  13.064
72268ION    NA+39051  38.702  21.465   0.850
72269ION    NA+39052  30.726  12.485   1.457
72270ION    NA+39053   7.279  25.166  14.878
72271ION    NA+39054   0.383  30.142  12.586
72272ION    NA+39055  18.935  21.275   4.620
72273ION    NA+39056  22.047  20.041  10.733
72274ION    NA+39057  40.065  33.606  11.962
72275ION    NA+39058  22.392   0.796  13.268
72276ION    NA+39059  16.932  22.843  13.117
72277ION    NA+39060  27.805  30.885  11.666
72278ION    NA+39061  10.458  35.140  13.829
72279ION    NA+39062  16.046   2.162   2.974
72280ION    NA+39063  19.769  10.195  12.482
72281ION    NA+39064  32.440  36.811  10.804
72282ION    NA+39065  29.093  38.581   2.763
72283ION    NA+39066  34.442  27.902  13.649
72284ION    NA+39067  10.861  13.643   3.989
72285ION    NA+39068  27.873  44.977  12.979
72286ION    NA+39069  19.558   0.518   2.676
72287ION    NA+39070  22.701  19.476  10.908
72288ION    NA+39071  39.971  21.987   2.262
72289ION    NA+39072  31.343  14.633   1.974
72290ION    NA+39073  41.684  29.180   1.610
72291ION    NA+39074  37.034   6.848  11.659
72292ION    NA+39075  25.427  27.483  13.826
72293ION    NA+39076  34.757  17.708   9.893
72294ION    NA+39077  10.650  33.474  14.923
72295ION    NA+39078  42.253  24.044  11.419
72296ION    NA+39079  44.365  20.795   5.122
72297ION    NA+39080  27.112  20.362  11.451
72298ION    NA+39081  39.367  16.378   4.822
72299ION    NA+39082  38.927   2.017  12.069
72300ION    NA+39083  40.810  19.824  14.251
72301ION    NA+39084  23.579  36.404  12.012
72302ION    NA+39085   9.206  25.441   3.789
72303ION    NA+39086  33.629  33.898  12.853
72304ION    NA+39087  25.280  23.188   0.915
72305ION    NA+39088  21.601  28.630   0.805
72306ION    NA+39089  32.630   8.782   2.725
72307ION    NA+39090  16.179  40.031   3.207
72308ION    NA+39091   9.438  24.889   1.888
72309ION    NA+39092   4.932  23.279   0.157
72310ION    NA+39093  36.794  21.705   1.031
72311ION    NA+39094  32.743  17.079   3.437
72312ION    NA+39095  13.389  38.903   3.921
72313ION    NA+39096  36.185  43.940  13.500
72314ION    NA+39097   9.967  19.037   1.185
72315ION    NA+39098   2.062  42.855  10.842
72316ION    NA+39099  36.506  22.760  10.652
72317ION    NA+39100  44.713   8.917   0.787
72318ION    NA+39101   8.359  20.980  12.487
72319ION    NA+39102  13.748  20.043  10.746
72320ION    NA+39103   7.908  44.361   0.481
72321ION    NA+39104  27.516  30.969   2.467
72322ION    NA+39105   7.281  15.057   2.883
72323ION    NA+39106  25.364  32.033  10.804
72324ION    NA+39107  27.664   6.223   1.072
72325ION    NA+39108   0.333  38.063  12.069
72326ION    NA+39109  43.977  28.670  12.805
72327ION    NA+39110  43.514  25.860  13.696
72328ION    NA+39111  32.443  12.594  13.528
72329ION    NA+39112   0.726  28.197   0.834
72330ION    NA+39113   9.660   1.247  11.971
72331ION    NA+39114   8.690   6.942   3.450
72332ION    NA+39115  35.966  24.356   2.131
72333ION    NA+39116  40.779  30.635   3.813
72334ION    NA+39117  20.976  37.535  13.174
72335ION    NA+39118  16.862  25.678   1.503
72336ION    NA+39119  44.727  25.778   1.735
72337ION    NA+39120  42.587  15.483  11.132
72338ION    NA+39121  36.823  10.265   3.075
72339ION    NA+39122  32.375   2.760   0.502
72340ION    NA+39123  19.419  36.325   0.203
72341ION    NA+39124  32.628  20.010   3.861
72342ION    NA+39125  42.009  11.235  13.916
72343ION    NA+39126  18.624  41.732   1.888
72344ION    NA+39127  36.748  29.174   0.683
72345ION    NA+39128   4.066   9.203   4.884
72346ION    NA+39129   5.161  44.382   3.592
72347ION    NA+39130  18.813  11.903   3.687
72348ION    NA+39131  31.560   2.154   1.981
72349ION    NA+39132   4.758  42.817   3.694
72350ION    NA+39133  12.858  42.856  11.323
72351ION    NA+39134  43.127  33.970  12.978
72352ION    NA+39135  42.942  10.366   4.073
72353ION    NA+39136  35.596  12.684  12.786
72354ION    NA+39137  37.060  42.862  14.858
72355ION    NA+39138  41.676  23.464   3.667
72356ION    NA+39139  14.083  15.382  11.246
72357ION    NA+39140  19.455   4.932  13.411
72358ION    NA+39141  20.825  35.154   0.010
72359ION    NA+39142  15.756  15.368  11.479
72360ION    NA+39143   8.811  24.530  10.952
72361ION    NA+39144   3.483  26.446  13.027
72362ION    NA+39145  31.440   8.321  11.952
72363ION    NA+39146  40.103  11.693   0.113
72364ION    NA+39147  32.011   0.307   4.033
72365ION    NA+39148  11.266  44.821   3.862
72366ION    NA+39149   4.822  27.848   9.940
72367ION    NA+39150  39.015   8.712   0.410
72368ION    NA+39151   1.199   3.453   3.702
72369ION    NA+39152  11.315  44.219   4.065
72370ION    NA+39153  11.975  23.095   1.909
72371ION    NA+39154  32.519  31.811   2.302
72372ION    NA+39155  31.758   4.437  12.500
72373ION    NA+39156  23.004  11.700   1.464
72374ION    NA+39157  30.710   4.385   3.720
72375ION    NA+39158  41.437  32.852  11.153
72376ION    NA+39159  26.421   0.260   2.477
72377ION    NA+39160  28.261  30.443  13.471
72378ION    NA+39161  43.099  41.548  13.480
72379ION    NA+39162  12.771  40.341   3.296
72380ION    NA+39163  12.333  11.142   2.137
72381ION    NA+39164   8.457   2.009  13.827
72382ION    NA+39165  32.083   4.046   5.411
72383ION    NA+39166   7.219   9.676   0.582
72384ION    NA+39167  30.597  32.685   1.005
72385ION    NA+39168  10.888  21.295  12.274
72386ION    NA+39169  43.177  26.750  14.003
72387ION    NA+39170  31.572  35.393  11.969
72388ION    NA+39171  17.115  28.238   0.978
72389ION    NA+39172  30.994  32.810  11.644
72390ION    NA+39173  32.159  35.941  11.209
72391ION    NA+39174   6.403  23.974  11.575
72392ION    NA+39175   6.905   4.899   0.258
72393ION    NA+39176  21.829   1.461   3.038
72394ION    NA+39177  36.727   9.075   1.924
72395ION    NA+39178  14.072   0.516   1.690
72396ION    NA+39179  42.207  33.418  13.890
72397ION    NA+39180  12.808  13.852  13.561
72398ION    NA+39181  24.180  12.286  12.955
72399ION    NA+39182  41.366  36.907  12.627
72400ION    NA+39183  17.144  11.052   3.623
72401ION    NA+39184  36.190  19.407  10.644
72402ION    NA+39185  16.007  41.403   1.351
72403ION    NA+39186  13.883  41.290  13.808
72404ION    NA+39187   8.236  19.583  14.427
72405ION    NA+39188   2.790   8.435  10.750
72406ION    NA+39189  10.284  12.179  14.065
72407ION    NA+39190  40.598  31.986  13.499
72408ION    NA+39191  19.703  37.804   0.394
72409ION    NA+39192   8.024  14.128   2.349
72410ION    NA+39193  21.001  41.138  14.226
72411ION    NA+39194  31.539  19.983   3.146
72412ION    NA+39195  18.795  30.123   1.368
72413ION    NA+39196  30.016  34.356   4.612
72414ION    NA+39197  37.103  17.676   0.246
72415ION    NA+39198   1.783  24.233  12.546
72416ION    NA+39199  30.095  11.719  12.581
72417ION    NA+39200  37.068  22.891   1.626
72418ION    NA+39201   6.454  13.074  12.569
72419ION    NA+39202  13.788  12.770   4.722
72420ION    NA+39203  12.815  12.043  10.846
72421ION    NA+39204  17.797   5.456   3.648
72422ION    NA+39205  38.544   9.076   3.307
72423ION    NA+39206  31.235   5.724   9.516
72424ION    NA+39207  44.421  30.095   0.666
72425ION    NA+39208  18.642   2.890  11.262
72426ION    NA+39209  42.064  39.231  13.945
72427ION    NA+39210   4.107   4.530  11.663
72428ION    NA+39211  44.700   7.208  12.105
72429ION    NA+39212  29.470  17.487   1.172
72430ION    NA+39213  14.413  17.144  12.859
72431ION    NA+39214  38.810   4.786   2.748
72432ION    NA+39215  12.858  34.411  11.132
72433ION    NA+39216  25.670  44.880  11.199
72434ION    NA+39217  21.591  44.019   0.466
72435ION    NA+39218  13.852   4.804   0.912
72436ION    NA+39219  20.302  11.085   1.552
72437ION    NA+39220  44.469  37.342   0.253
72438ION    NA+39221  31.361  31.171  14.845
72439ION    NA+39222  40.058  32.170   4.198
72440ION    NA+39223  23.507  28.651  14.666
72441ION    NA+39224  25.450   5.112   0.676
72442ION    NA+39225  41.457  14.685   1.920
72443ION    NA+39226  17.801  14.413  14.976
72444ION    NA+39227  21.012  17.343  11.874
72445ION    NA+39228  35.578  34.081   2.150
72446ION    NA+39229   9.702  10.255  13.797
72447ION    NA+39230  29.604   1.195   2.889
72448ION    NA+39231  12.573   3.014  12.214
72449ION    NA+39232  33.729  19.848  12.627
72450ION    NA+39233  22.622  25.594   2.158
72451ION    NA+39234  35.906   9.733  11.252
72452ION    NA+39235  28.710   2.732  13.442
72453ION    NA+39236  36.884   4.540   4.360
72454ION    NA+39237  16.321  33.742   2.821
72455ION    NA+39238   7.965   7.391   9.579
72456ION    NA+39239   0.736   9.182  14.573
72457ION    NA+39240  11.389  28.985  10.681
72458ION    NA+39241  17.249  15.669   2.916
72459ION    NA+39242  31.263   6.620  14.457
72460ION    NA+39243  39.475  29.991   2.757
72461ION    NA+39244  20.872   1.209   2.533
72462ION    NA+39245  23.220  32.086  12.130
72463ION    NA+39246   3.981  15.945   3.894
72464ION    NA+39247  29.164  26.217   0.295
72465ION    NA+39248  16.780  36.464   1.048
72466ION    NA+39249  28.104  16.016   1.265
72467ION    NA+39250  35.451   2.660  11.224
72468ION    NA+39251  37.753   6.608   4.399
72469ION    NA+39252  40.929  42.502  12.702
72470ION    NA+39253  43.771  41.360   1.321
72471ION    NA+39254   4.100   5.694   1.689
72472ION    NA+39255  12.380  43.341  13.951
72473ION    NA+39256  19.054  16.327  14.522
72474ION    NA+39257  38.664  44.770   1.999
72475ION    NA+39258  27.378  40.626   0.968
72476ION    NA+39259   6.782  32.921   2.085
72477ION    NA+39260   3.986  32.680   0.535
72478ION    NA+39261  41.409  23.995  14.993
72479ION    NA+39262   6.444   6.461  13.157
72480ION    NA+39263   3.245   0.023  12.813
72481ION    NA+39264   8.911  14.948  13.197
72482ION    NA+39265  36.127  11.154   3.825
72483ION    NA+39266  37.751  28.403   1.715
72484ION    NA+39267  18.996  25.116   4.621
72485ION    NA+39268   8.263  33.110  13.160
72486ION    NA+39269  16.310  23.754  14.788
72487ION    NA+39270  18.444  23.866   1.013
72488ION    NA+39271  11.739  17.006   3.388
72489ION    NA+39272  41.634   3.122   2.291
72490ION    NA+39273  10.856  25.956   2.693
72491ION    NA+39274   6.888  16.281  12.250
72492ION    NA+39275  43.417  36.764   1.649
72493ION    NA+39276  13.277  31.991   5.127
72494ION    NA+39277   2.912  19.441   0.936
72495ION    NA+39278  41.920  13.221  13.929
72496ION    NA+39279  37.722  28.212  12.006
72497ION    NA+39280  23.323  37.691   0.101
72498ION    NA+39281  37.460  20.771   0.461
72499ION    NA+39282   9.435   6.666  11.098
72500ION    NA+39283  12.359  24.483   0.358
72501ION    NA+39284  10.863  10.956  13.223
72502ION    NA+39285  40.826  38.390   0.317
72503ION    NA+39286   2.291  34.305  11.165
72504ION    NA+39287  37.088  22.009  11.441
72505ION    NA+39288  30.975   0.155   2.961
72506ION    NA+39289  12.047  14.193  13.901
72507ION    NA+39290  15.265   5.709  13.923
72508ION    NA+39291   5.753  12.316   2.786
72509ION    NA+39292  29.158  10.132   1.447
72510ION    NA+39293   9.257   0.816   3.682
72511ION    NA+39294   9.355  28.631   0.933
72512ION    NA+39295  21.368  16.332  13.069
72513ION    NA+39296   3.411   5.757  11.092
72514ION    NA+39297  24.075  42.885   4.742
72515ION    NA+39298   9.385  30.750  10.849
72516ION    NA+39299  14.256  26.021  10.733
72517ION    NA+39300  42.804   5.453  12.292
72518ION    NA+39301  25.430   7.566   2.745
72519ION    NA+39302  36.456  20.932   2.178
72520ION    NA+39303   5.766  19.473  12.903
72521ION    NA+39304  12.536  29.445  12.409
72522ION    NA+39305  17.042  31.101   0.474
72523ION    NA+39306  36.399  18.626  14.139
72524ION    NA+39307  18.335  23.689   3.056
72525ION    NA+39308  43.039  25.185   2.413
72526ION    NA+39309  34.649   9.786  10.657
72527ION    NA+39310  36.529  25.335   2.710
72528ION    NA+39311  21.211  42.508  14.071
72529ION    NA+39312  20.668   8.759   0.490
72530ION    NA+39313   8.604  22.244   1.988
72531ION    NA+39314   2.425  18.360  12.910
72532ION    NA+39315  31.511   3.285   3.611
72533ION    NA+39316   1.230  17.282  14.497
72534ION    NA+39317  40.828  18.472  13.842
72535ION    NA+39318  27.225   1.311   4.926
72536ION    NA+39319  17.553  33.707  14.156
72537ION    NA+39320  26.663  39.560   1.285
72538ION    NA+39321   6.401  34.544   0.028
72539ION    NA+39322  14.012  15.705   0.605
72540ION    NA+39323  32.958  38.646   0.111
72541ION    NA+39324  42.464  32.021  11.608
72542ION    NA+39325  35.750  39.595   4.188
72543ION    NA+39326   6.280  30.584  11.779
72544ION    NA+39327  20.019  23.867   0.604
72545ION    NA+39328  13.095  28.401   4.997
72546ION    NA+39329   5.911  22.096   4.132
72547ION    NA+39330   3.429  25.788   3.518
72548ION    NA+39331  21.321  40.415   1.897
72549ION    NA+39332   7.588  10.303  10.750
72550ION    NA+39333  13.102  22.527   2.124
72551ION    NA+39334  31.102  33.692   1.793
72552ION    NA+39335  36.757  33.267  11.205
72553ION    NA+39336  37.124   0.339   4.077
72554ION    NA+39337  36.862   0.399   3.088
72555ION    NA+39338  40.277  34.565  11.125
72556ION    NA+39339  12.405  16.907  11.522
72557ION    NA+39340  36.733   2.018  13.243
72558ION    NA+39341  22.038  44.921  14.760
72559ION    NA+39342  11.583  16.179   1.390
72560ION    NA+39343  32.979  14.038   2.331
72561ION    NA+39344  10.758   3.519   4.354
72562ION    NA+39345  42.482  25.375   1.212
72563ION    NA+39346  25.723  26.632   0.930
72564ION    NA+39347  44.867  34.294  12.948
72565ION    NA+39348  23.959  15.767   1.234
72566ION    NA+39349  34.721  20.925  14.487
72567ION    NA+39350   2.631  27.180   1.097
72568ION    NA+39351  21.965  20.574  13.859
72569ION    NA+39352   6.070  16.853  12.193
72570ION    NA+39353  24.230  33.887  12.706
72571ION    NA+39354   6.611   2.786  10.687
72572ION    NA+39355  11.473  11.582   2.872
72573ION    NA+39356  39.750  41.870   0.731
72574ION    NA+39357  13.827  11.885  11.038
72575ION    NA+39358   1.190  41.934  11.101
72576ION    NA+39359  23.344  40.795  14.798
72577ION    NA+39360  18.263  27.423  14.858
72578ION    NA+39361   5.802  25.151  13.419
72579ION    NA+39362  14.718  40.137  14.760
72580ION    NA+39363   3.962   4.739   1.426
72581ION    NA+39364  21.095  39.720  13.010
72582ION    NA+39365  28.328  12.893  11.188
72583ION    NA+39366   5.910  35.028  13.567
72584ION    NA+39367  38.853   1.158   1.677
72585ION    NA+39368   5.219   9.174   4.252
72586ION    NA+39369  10.214  20.820  11.486
72587ION    NA+39370  38.842   1.080   2.674
72588ION    NA+39371  38.561  38.429  12.607
72589ION    NA+39372  21.358  14.641   4.161
72590ION    NA+39373  36.322  30.579   4.745
72591ION    NA+39374  23.216  19.395   3.932
72592ION    NA+39375   5.316  36.812   2.170
72593ION    NA+39376  33.302  13.402  13.252
72594ION    NA+39377   5.432  39.787   3.214
72595ION    NA+39378  20.652   5.404  13.613
72596ION    NA+39379   5.996   5.176   2.922
72597ION    NA+39380  35.661   7.474  14.280
72598ION    NA+39381   9.890   1.725  14.301
72599ION    NA+39382   4.826   7.422   0.715
72600ION    NA+39383  22.016  21.462  11.299
72601ION    NA+39384  24.108   2.378  12.568
72602ION    NA+39385  36.943  29.928  11.101
72603ION    NA+39386  39.008  44.752  12.103
72604ION    NA+39387  31.594  19.397  11.311
72605ION    NA+39388   3.366   7.998   3.188
72606ION    NA+39389  36.432   1.050  11.567
72607ION    NA+39390  25.281  43.176   2.062
72608ION    NA+39391   9.156  20.685   2.130
72609ION    NA+39392   2.591  22.035   3.632
72610ION    NA+39393   3.507   1.532  13.690
72611ION    NA+39394  15.754   8.055   1.953
72612ION    NA+39395  30.408  29.000  13.788
72613ION    NA+39396  38.105  40.767   2.956
72614ION    NA+39397  42.016  40.891  14.859
72615ION    NA+39398  40.757  11.124  14.810
72616ION    NA+39399  10.121  16.201  11.412
72617ION    NA+39400  37.709  16.094  11.956
72618ION    NA+39401  29.077  14.116   3.624
72619ION    NA+39402  11.121  37.865   0.812
72620ION    NA+39403  35.908  24.316   0.323
72621ION    NA+39404  22.979  41.028   4.156
72622ION    NA+39405  29.957  22.058   0.424
72623ION    NA+39406  23.006  36.924   0.411
72624ION    NA+39407  18.763  27.026   1.541
72625ION    NA+39408  28.385  22.087  13.573
72626ION    NA+39409  42.715  30.410  11.553
72627ION    NA+39410  28.359  33.761  11.368
72628ION    NA+39411  19.658  37.760   1.518
72629ION    NA+39412  33.480  41.536  10.328
72630ION    NA+39413  23.982  16.200   0.061
72631ION    NA+39414   3.543  44.780   2.706
72632ION    NA+39415  27.984   6.759   3.648
72633ION    NA+39416  32.332  22.852   0.453
72634ION    NA+39417  28.084  39.648   1.928
72635ION    NA+39418  36.225  44.899   3.768
72636ION    NA+39419  10.730  15.970  14.867
72637ION    NA+39420  30.968   0.305   4.439
72638ION    NA+39421  20.822   5.032   3.687
72639ION    NA+39422  26.394  13.120   0.352
72640ION    NA+39423  23.845  16.499   1.916
72641ION    NA+39424  11.835   9.783  11.693
72642ION    NA+39425  12.543  26.500   4.026
72643ION    NA+39426  29.449   8.876   4.086
72644ION    NA+39427  18.660  40.935   1.282
72645ION    NA+39428  18.182   4.659   9.972
72646ION    NA+39429  32.036  25.994   2.351
72647ION    NA+39430   8.330  24.009   0.565
72648ION    NA+39431  27.591  30.269  12.306
72649ION    NA+39432  23.117  24.716  13.889
72650ION    NA+39433  42.764  23.967  14.922
72651ION    NA+39434  25.620  28.886  10.242
72652ION    NA+39435  13.601  23.450   0.017
72653ION    NA+39436  38.374  27.118  11.864
72654ION    NA+39437  18.980  29.985   0.009
72655ION    NA+39438   6.400  35.359  12.614
72656ION    NA+39439  32.841   5.715  10.858
72657ION    NA+39440  14.920  13.574  14.957
72658ION    NA+39441  21.660  34.611  13.387
72659ION    NA+39442  43.034   6.404   0.628
72660ION    NA+39443  26.109  42.423   4.809
72661ION    NA+39444  11.668   5.910   0.415
72662ION    NA+39445  20.410  30.428  10.766
72663ION    NA+39446   9.133   8.732   3.227
72664ION    NA+39447  43.735  41.782   0.342
72665ION    NA+39448   1.584  28.528   1.122
72666ION    NA+39449  19.982  38.554  11.231
72667ION    NA+39450   3.420  32.380   1.166
72668ION    NA+39451  19.643  14.266  11.981
72669ION    NA+39452  18.168  12.388   1.255
72670ION    NA+39453   4.467   8.383   0.291
72671ION    NA+39454   8.197  24.933  14.381
72672ION    NA+39455  35.065  36.842   0.743
72673ION    NA+39456  35.815   4.213   1.281
72674ION    NA+39457  26.193  33.894  13.974
72675ION    NA+39458  36.447  43.788   4.409
72676ION    NA+39459  38.315  44.755  11.375
72677ION    NA+39460   2.162  39.048  11.298
72678ION    NA+39461  44.922  37.775   3.790
72679ION    NA+39462  35.026  32.036   1.458
72680ION    NA+39463  24.458  29.678  11.570
72681ION    NA+39464  30.509  17.029  12.271
72682ION    NA+39465   4.686  39.101   2.415
72683ION    NA+39466  38.059   2.701  10.986
72684ION    NA+39467  18.737  18.823   4.127
72685ION    NA+39468  16.358  13.280   4.995
72686ION    NA+39469  43.434  13.681  14.276
72687ION    NA+39470  10.833  18.555   1.766
72688ION    NA+39471  28.026  26.210  14.145
72689ION    NA+39472  21.565   4.210  13.043
72690ION    NA+39473   1.828   6.485  14.670
72691ION    NA+39474   7.734  33.797  14.353
72692ION    NA+39475  15.560  27.742  12.740
72693ION    NA+39476  20.112  26.673   1.778
72694ION    NA+39477  15.559   8.714  13.242
72695ION    NA+39478  38.651  12.095   3.082
72696ION    NA+39479  21.638  18.052  10.730
72697ION    NA+39480   3.668  13.551  10.336
72698ION    NA+39481  15.572  34.843  11.160
72699ION    NA+39482  27.950  21.525  10.178
72700ION    NA+39483  17.231   0.358  10.345
72701ION    NA+39484   1.700  41.152  13.988
72702ION    NA+39485   7.237  14.583  11.965
72703ION    NA+39486  22.526   1.490   4.760
72704ION    NA+39487  26.382  32.312   4.269
72705ION    NA+39488  23.248   0.863   5.117
72706ION    NA+39489  13.746  30.866   4.239
72707ION    NA+39490  35.510  43.356  12.399
72708ION    NA+39491  32.720  37.486   0.876
72709ION    NA+39492   1.119  42.773  10.279
72710ION    NA+39493   8.123  35.225   5.106
72711ION    NA+39494  14.626  23.439  10.326
72712ION    NA+39495  18.116   9.024   0.104
72713ION    NA+39496  16.173  42.723  11.872
72714ION    NA+39497  17.919  26.124  14.468
72715ION    NA+39498  21.382  41.431   1.919
72716ION    NA+39499   7.532   1.919   3.219
72717ION    NA+39500  25.791   4.413  12.590
72718ION    NA+39501  36.497  18.428  14.986
72719ION    NA+39502  11.254  32.082   4.679
72720ION    NA+39503   7.328  38.777  12.846
72721ION    NA+39504  33.583   0.623  13.043
72722ION    NA+39505  42.791  33.473   0.814
72723ION    NA+39506  30.242   8.103  10.514
72724ION    NA+39507  32.922  37.280  12.563
72725ION    NA+39508   6.787   2.859  11.538
72726ION    NA+39509  23.385  34.672   1.856
72727ION    NA+39510   7.761   9.315   2.159
72728ION    NA+39511  12.839   6.511   0.712
72729ION    NA+39512  38.433  28.339   3.556
72730ION    NA+39513  28.067   5.021  14.741
72731ION    NA+39514   1.464  21.947   2.164
72732ION    NA+39515   4.415  13.231   0.570
72733ION    NA+39516  41.644   6.810  12.914
72734ION    NA+39517  26.669  31.544   0.432
72735ION    NA+39518  41.022  42.056  14.219
72736ION    NA+39519  33.907  20.616  14.977
72737ION    NA+39520   0.053  37.753   1.763
72738ION    NA+39521  20.353  43.826  12.166
72739ION    NA+39522  12.370  25.687   4.582
72740ION    NA+39523  43.959  14.840   3.545
72741ION    NA+39524   5.239  41.525   3.392
72742ION    NA+39525  37.070  18.697   1.587
72743ION    NA+39526  37.115  35.968  12.018
72744ION    NA+39527  17.279  33.491   3.072
72745ION    NA+39528  24.569   1.755  14.596
72746ION    NA+39529  22.184  39.257  14.440
72747ION    NA+39530  31.521  41.453   4.639
72748ION    NA+39531  23.705  23.719   4.582
72749ION    NA+39532  21.037  40.668  13.321
72750ION    NA+39533  14.431  17.327   4.344
72751ION    NA+39534  28.494  18.419  11.806
72752ION    NA+39535   8.636  25.092  12.166
72753ION    NA+39536  44.403  23.491  12.078
72754ION    NA+39537  19.897  24.272   2.400
72755ION    NA+39538  11.102  17.833   3.035
72756ION    NA+39539  17.242   5.395   0.903
72757ION    NA+39540  38.099  17.776  13.963
72758ION    NA+39541  22.984  29.894  13.442
72759ION    NA+39542  37.058  39.522  13.266
72760ION    NA+39543  15.771  40.675   2.559
72761ION    NA+39544  18.547  23.419  11.776
72762ION    NA+39545  10.878  39.621   1.340
72763ION    NA+39546  24.259  31.692   2.830
72764ION    NA+39547  32.720  29.697   3.092
72765ION    NA+39548  14.577  34.825   5.333
72766ION    NA+39549   5.840  40.269   3.857
72767ION    NA+39550  34.393  12.375   5.177
72768ION    NA+39551  17.398  25.738  13.706
72769ION    NA+39552  32.546  23.114  13.325
72770ION    NA+39553  27.759   3.057   4.898
72771ION    NA+39554  29.893  15.391  13.124
72772ION    NA+39555   7.500   9.243  10.672
72773ION    NA+39556   4.724   5.009  11.038
72774ION    NA+39557  32.255   1.699   2.359
72775ION    NA+39558  34.727   3.621   2.652
72776ION    NA+39559   2.511  20.716  11.385
72777ION    NA+39560   0.831   3.435  10.419
72778ION    NA+39561  20.132  22.425  12.587
72779ION    NA+39562  10.491   7.835  13.203
72780ION    NA+39563  25.023  22.855  10.307
72781ION    NA+39564  28.248  39.329   0.538
72782ION    NA+39565   8.966   2.691   3.871
72783ION    NA+39566  34.906   5.450   3.901
72784ION    NA+39567  21.007  11.230  13.515
72785ION    NA+39568  11.156  26.966  11.325
72786ION    NA+39569  24.856  15.685  12.235
72787ION    NA+39570  39.609   9.790   0.964
72788ION    NA+39571  12.619  32.863   0.107
72789ION    NA+39572  42.309  20.766   4.075
72790ION    NA+39573  43.825  42.515   1.230
72791ION    NA+39574   2.230  11.901   2.332
72792ION    NA+39575  21.346   0.199   1.898
72793ION    NA+39576  10.634  30.555   3.071
72794ION    NA+39577   5.959  32.366  14.052
72795ION    NA+39578  26.599   9.690  13.722
72796ION    NA+39579   5.440  20.583  12.433
72797ION    NA+39580  32.102  20.971   2.158
72798ION    NA+39581   3.214   2.367  14.470
72799ION    NA+39582  36.319  22.502  11.860
72800ION    NA+39583  39.012  18.185  11.959
72801ION    NA+39584   2.929  37.937   0.444
72802ION    NA+39585   7.291  22.362  11.377
72803ION    NA+39586   9.933   4.766  13.816
72804ION    NA+39587   7.814  17.089   2.253
72805ION    NA+39588  42.628  17.361   1.744
72806ION    NA+39589  18.069  13.879  12.627
72807ION    NA+39590  18.760   6.759   2.407
72808ION    NA+39591  29.641  21.371  13.067
72809ION    NA+39592   0.390  44.504  11.610
72810ION    NA+39593  22.001   8.644  14.326
72811ION    NA+39594   5.765  33.878   0.447
72812ION    NA+39595  29.687  13.604   0.331
72813ION    NA+39596  38.755  35.580  13.512
72814ION    NA+39597  17.876   1.373  10.883
72815ION    NA+39598   5.779  38.581  12.372
72816ION    NA+39599  42.672  37.172  11.970
72817ION    NA+39600   8.102  16.822   9.672
72818ION    NA+39601  23.932  40.906  14.112
72819ION    NA+39602  25.680  25.484  14.808
72820ION    NA+39603  19.190  22.566   3.387
72821ION    NA+39604  24.207  34.188  14.518
72822ION    NA+39605  44.308  36.702   2.115
72823ION    NA+39606   8.723  17.172   3.371
72824ION    NA+39607  41.121  20.193  13.508
72825ION    NA+39608   2.150   9.598  11.158
72826ION    NA+39609  11.835   6.282  10.569
72827ION    NA+39610   6.664   5.347  10.654
72828ION    NA+39611  18.412  22.992  14.136
72829ION    NA+39612   1.003  28.899   0.571
72830ION    NA+39613  10.299  35.558   1.203
72831ION    NA+39614  11.826  36.305  14.871
72832ION    NA+39615  40.280  27.946  11.142
72833ION    NA+39616   1.958  27.694  12.528
72834ION    NA+39617  34.663  36.340  14.089
72835ION    NA+39618  44.822  39.989  13.973
72836ION    NA+39619  11.658   6.792  11.660
72837ION    NA+39620  35.501   2.968  10.274
72838ION    NA+39621   5.911  14.386  10.084
72839ION    NA+39622   6.430  16.207   1.348
72840ION    NA+39623  38.210  37.699   3.206
72841ION    NA+39624  43.390  21.494  11.535
72842ION    NA+39625  34.725   7.100  14.811
72843ION    NA+39626   8.390   6.352   0.964
72844ION    NA+39627  42.765  13.589   0.014
72845ION    NA+39628  28.928   9.247  14.992
72846ION    NA+39629  16.559  10.284   0.346
72847ION    NA+39630  13.380  20.392  12.578
72848ION    NA+39631  22.249   9.099   0.722
72849ION    NA+39632  13.826   7.103  14.875
72850ION    NA+39633  23.062   2.791   4.247
72851ION    NA+39634  25.870  10.819  14.959
72852ION    NA+39635   5.609  21.096  13.328
72853ION    NA+39636   2.320  10.123   2.485
72854ION    NA+39637  31.971   5.290   3.925
72855ION    NA+39638  38.996   7.777  14.423
72856ION    NA+39639   2.142  33.104  13.911
72857ION    NA+39640   4.715  18.369  11.090
72858ION    NA+39641   5.196  27.202  14.142
72859ION    NA+39642   5.938  11.692  12.781
72860ION    NA+39643   0.464   7.823  11.266
72861ION    NA+39644  29.393   6.095   2.462
72862ION    NA+39645   3.853   2.370  11.641
72863ION    NA+39646  27.500  26.996   0.993
72864ION    NA+39647  43.909  21.013   2.544
72865ION    NA+39648  36.966   0.569  14.960
72866ION    NA+39649  38.198  25.560  12.427
72867ION    NA+39650   4.517  20.729   0.205
72868ION    NA+39651   7.696  12.662  14.581
72869ION    NA+39652  15.343  10.215   4.267
72870ION    NA+39653  41.268  43.972   4.341
72871ION    NA+39654  23.490  10.412   0.637
72872ION    NA+39655   1.838  16.436   0.214
72873ION    NA+39656   2.643  25.646   3.905
72874ION    NA+39657  30.882  31.063   3.897
72875ION    NA+39658  23.168  26.284   5.349
72876ION    NA+39659  11.893   7.853   2.228
72877ION    NA+39660   8.962   4.151  10.770
72878ION    NA+39661  27.096  38.049   2.339
72879ION    NA+39662   8.377  35.350  13.652
72880ION    NA+39663  43.596  17.998  10.849
72881ION    NA+39664  42.939  20.564  13.640
72882ION    NA+39665   1.163   5.278   3.518
72883ION    NA+39666   8.477  10.344  11.224
72884ION    NA+39667  25.660   6.084  12.564
72885ION    NA+39668   7.694  16.133  10.847
72886ION    NA+39669   9.492  23.006   1.618
72887ION    NA+39670  40.365  40.959  13.695
72888ION    NA+39671   8.037   6.613   4.007
72889ION    NA+39672  39.012   9.238  12.500
72890ION    NA+39673   9.380  29.617   1.098
72891ION    NA+39674  15.438  43.021  12.575
72892ION    NA+39675  33.167  12.285   3.311
72893ION    NA+39676   9.690  19.539  12.817
72894ION    NA+39677  38.085   9.742   4.547
72895ION    NA+39678  34.494  14.643   0.386
72896ION    NA+39679  39.241  16.784   3.742
72897ION    NA+39680  26.022  26.300   0.003
72898ION    NA+39681  36.114  10.819   1.800
72899ION    NA+39682   7.639  12.317  13.422
72900ION    NA+39683  17.875  28.617   0.271
72901ION    NA+39684   5.355  21.300   3.462
72902ION    NA+39685  20.810  39.495  11.122
72903ION    NA+39686  25.264  31.172  12.790
72904ION    NA+39687   1.899   7.386  14.242
72905ION    NA+39688  16.376   2.492   0.802
72906ION    NA+39689  13.108  20.938   0.518
72907ION    NA+39690  18.422  21.536  13.120
72908ION    NA+39691  18.708  21.073   3.667
72909ION    NA+39692   2.937  26.623   0.451
72910ION    NA+39693   3.442  43.811  13.494
72911ION    NA+39694   9.360   1.063   9.716
72912ION    NA+39695  43.639  35.289   4.998
72913ION    NA+39696  39.181  12.440   2.460
72914ION    NA+39697  40.045  36.855   4.504
72915ION    NA+39698  28.542   4.286   0.508
72916ION    NA+39699  44.273   4.214   1.023
72917ION    NA+39700  27.014  17.771  12.504
72918ION    NA+39701  41.564   2.614   0.171
72919ION    NA+39702  38.593  36.779   3.290
72920ION    NA+39703   0.895   7.805  12.168
72921ION    NA+39704  39.871  40.897   1.359
72922ION    NA+39705  17.405  39.602   2.259
72923ION    NA+39706   1.980  13.109  11.734
72924ION    NA+39707  41.264  35.132  11.680
72925ION    NA+39708   6.540   3.190  13.706
72926ION    NA+39709   4.923  30.855   4.658
72927ION    NA+39710  39.408   5.554  12.408
72928ION    NA+39711  20.744  11.323  14.836
72929ION    NA+39712  23.611  39.230   2.007
72930ION    NA+39713  37.395  37.924  12.129
72931ION    NA+39714   5.376  29.852  14.455
72932ION    NA+39715  10.933  16.938   0.211
72933ION    NA+39716  27.041   6.370  13.167
72934ION    NA+39717  31.277  11.412   3.595
72935ION    NA+39718  26.502  34.619   3.611
72936ION    NA+39719  43.309  23.181  12.974
72937ION    NA+39720  39.515   6.754   4.042
72938ION    NA+39721   7.415   5.610  14.127
72939ION    NA+39722  37.914   4.897  14.196
72940ION    NA+39723   2.439  40.779  13.427
72941ION    NA+39724   7.646  22.115   1.731
72942ION    NA+39725  10.019  14.485  12.653
72943ION    NA+39726  42.223  31.206  14.308
72944ION    NA+39727  32.294  41.279  10.738
72945ION    NA+39728   2.997   3.894  10.613
72946ION    NA+39729  31.988   8.765  10.660
72947ION    NA+39730  43.105  16.746   0.280
72948ION    NA+39731  34.014  19.049  12.082
72949ION    NA+39732   0.863   8.575   0.171
72950ION    NA+39733  14.404   8.895   0.116
72951ION    NA+39734  22.912  14.184   0.384
72952ION    NA+39735  30.476  19.009   4.270
72953ION    NA+39736  10.915  27.171  14.027
72954ION    NA+39737  22.861  43.374   2.427
72955ION    NA+39738  34.519  15.224  10.975
72956ION    NA+39739   2.232   3.257  12.106
72957ION    NA+39740  30.715  36.400   4.036
72958ION    NA+39741   1.155   0.748   1.283
72959ION    NA+39742   7.194  42.265   1.442
72960ION    NA+39743   9.825  43.431  10.809
72961ION    NA+39744  23.908   2.183   1.351
72962ION    NA+39745  14.905  29.614   2.157
72963ION    NA+39746   7.425  36.545   1.798
72964ION    NA+39747  37.030   1.575   0.136
72965ION    NA+39748  44.929  22.486   3.469
72966ION    NA+39749   4.188  39.511   3.268
72967ION    NA+39750   8.084   1.310   5.001
72968ION    NA+39751  42.083  21.506  13.714
72969ION    NA+39752   0.347  16.287   0.800
72970ION    NA+39753   3.927  26.788   2.881
72971ION    NA+39754  30.365  43.841  11.145
72972ION    NA+39755  14.215  24.064  13.467
72973ION    NA+39756  23.233  22.971  13.204
72974ION    NA+39757  39.639  42.867   4.484
72975ION    NA+39758  12.399   9.036  11.760
72976ION    NA+39759   1.206  44.269   4.624
72977ION    NA+39760  20.491  38.318   2.377
72978ION    NA+39761  13.076  35.925   0.215
72979ION    NA+39762   0.688  35.558   2.520
72980ION    NA+39763   4.663  13.689  14.296
72981ION    NA+39764   3.021  17.427   3.386
72982ION    NA+39765  43.816  32.493  11.482
72983ION    NA+39766   9.278   7.488  13.036
72984ION    NA+39767  22.940   1.046   9.860
72985ION    NA+39768   4.311  44.961  12.743
72986ION    NA+39769  29.410  42.532  12.351
72987ION    NA+39770   0.944   8.205  13.738
72988ION    NA+39771  35.318   6.302  14.918
72989ION    NA+39772  24.630  30.243  12.456
72990ION    NA+39773  21.452  12.856   4.747
72991ION    NA+39774   6.880  20.654   0.484
72992ION    NA+39775  16.839  42.713   1.295
72993ION    NA+39776  42.450  38.571   2.176
72994ION    NA+39777   5.402  20.371  13.872
72995ION    NA+39778  22.971  43.217  11.549
72996ION    NA+39779  37.233  14.671   1.235
72997ION    NA+39780  37.845  12.465   3.900
72998ION    NA+39781  33.754  33.228   2.358
72999ION    NA+39782  38.797   4.998  11.497
73000ION    NA+39783  18.149  35.024  10.889
73001ION    NA+39784  44.094   1.901   1.137
73002ION    NA+39785  28.009  31.352  11.132
73003ION    NA+39786  22.735   0.778   3.135
73004ION    NA+39787  32.875  28.364   3.269
73005ION    NA+39788  24.819   1.707   4.498
73006ION    NA+39789  15.113  25.288  11.554
73007ION    NA+39790  18.373   6.780   1.438
73008ION    NA+39791  39.587  29.961  11.419
73009ION    NA+39792  18.660  42.328  11.213
73010ION    NA+39793  29.361   2.277   0.959
73011ION    NA+39794   1.813  10.503  14.920
73012ION    NA+39795  34.544   7.993  11.169
73013ION    NA+39796  18.455  34.054   4.252
73014ION    NA+39797   3.398  33.298  11.580
73015ION    NA+39798  42.264   3.306  13.312
73016ION    NA+39799  44.081  18.989  13.967
73017ION    NA+39800  21.986  37.425  14.756
73018ION    NA+39801  34.494  13.299  14.436
73019ION    NA+39802  33.546   2.451   3.160
73020ION    NA+39803  38.953  41.733  10.961
73021ION    NA+39804  25.514  36.234  10.076
73022ION    NA+39805   4.295  17.039   0.970
73023ION    NA+39806   0.260  11.428  14.894
73024ION    NA+39807  37.172  40.939  14.543
73025ION    NA+39808   6.859  32.853   0.195
73026ION    NA+39809   2.810  29.704  10.792
73027ION    NA+39810   3.804  20.823  11.833
73028ION    NA+39811  24.594  28.036  13.803
73029ION    NA+39812  12.339   1.989   4.156
73030ION    NA+39813  13.043   0.123   4.735
73031ION    NA+39814  37.177  40.270  13.919
73032ION    NA+39815  35.691  36.913   3.944
73033ION    NA+39816  32.144   6.596  14.668
73034ION    NA+39817  15.390  29.410  12.118
73035ION    NA+39818  22.391  22.069  11.999
73036ION    NA+39819  17.376   5.870   2.024
73037ION    NA+39820  24.823   0.345   3.608
73038ION    NA+39821   4.176  36.604   2.441
73039ION    NA+39822  14.649  10.167   3.548
73040ION    NA+39823  43.556  38.449  13.315
73041ION    NA+39824  30.672  30.300   1.715
73042ION    NA+39825  14.834  11.610   0.540
73043ION    NA+39826  34.237  39.666   3.460
73044ION    NA+39827   6.325   5.372   0.982
73045ION    NA+39828  33.203   4.859  11.226
73046ION    NA+39829  34.548  12.553  12.036
73047ION    NA+39830  42.118   5.663  10.838
73048ION    NA+39831   2.569  10.384   1.650
73049ION    NA+39832  20.365  38.320   4.029
73050ION    NA+39833  30.840  11.114   0.471
73051ION    NA+39834   4.727  36.438  10.775
73052ION    NA+39835   4.670   6.765   1.530
73053ION    NA+39836  43.601  23.181   9.686
73054ION    NA+39837  36.402  38.778   9.903
73055ION    NA+39838  12.156  12.827  14.793
73056ION    NA+39839  22.986   9.129   4.638
73057ION    NA+39840  43.099  34.025  11.365
73058ION    NA+39841  41.772  32.883   0.937
73059ION    NA+39842  29.576  16.118  10.692
73060ION    NA+39843  19.113   8.097   2.085
73061ION    CL-39844  42.190   0.000   4.999
73062ION    CL-39845  24.220  12.677   1.899
73063ION    CL-39846  36.099   7.556   2.015
73064ION    CL-39847  15.703  30.383  12.929
73065ION    CL-39848  34.469   5.247   2.709
73066ION    CL-39849  44.822  30.566  11.447
73067ION    CL-39850  25.866  37.266   1.775
73068ION    CL-39851  27.654  11.870  11.456
73069ION    CL-39852  40.914  14.540  13.596
73070ION    CL-39853  42.548  24.368  14.958
73071ION    CL-39854   8.821  26.594   2.243
73072ION    CL-39855   5.769  24.526   0.698
73073ION    CL-39856   4.670  12.700   5.017
73074ION    CL-39857  28.522  15.857   1.256
73075ION    CL-39858  10.671  32.908  11.022
73076ION    CL-39859  17.928   1.180  13.015
73077ION    CL-39860  41.869  23.496   9.884
73078ION    CL-39861  27.059  21.247  13.381
73079ION    CL-39862   7.971  42.387  11.508
73080ION    CL-39863  10.879  38.871   9.887
73081ION    CL-39864  20.485  13.059  10.178
73082ION    CL-39865   6.307  33.164   4.773
73083ION    CL-39866  40.578   9.608   3.194
73084ION    CL-39867  37.383   0.850  11.912
73085ION    CL-39868   7.447  32.324  11.852
73086ION    CL-39869  41.004  15.271   2.711
73087ION    CL-39870  28.761  41.511   1.395
73088ION    CL-39871   0.710   0.284  10.878
73089ION    CL-39872  15.286  44.897   2.866
73090ION    CL-39873  31.028  27.769   2.530
73091ION    CL-39874  31.766  17.009  11.949
73092ION    CL-39875  40.887  19.961  13.824
73093ION    CL-39876  13.393  11.380  14.241
73094ION    CL-39877  22.668  20.226   1.150
73095ION    CL-39878  35.487  20.400   4.239
73096ION    CL-39879   6.811  41.220  14.959
73097ION    CL-39880  21.139  36.162  11.956
73098ION    CL-39881  41.404  20.680   1.921
73099ION    CL-39882  13.257  17.595  14.344
73100ION    CL-39883  36.221   7.911  12.644
73101ION    CL-39884  17.680  40.771   4.856
73102ION    CL-39885  29.533  19.730  11.464
73103ION    CL-39886  39.004  33.095  14.449
73104ION    CL-39887  26.774  16.368  14.124
73105ION    CL-39888  34.365  41.956  14.951
73106ION    CL-39889   2.245  44.326   3.582
73107ION    CL-39890  41.741   2.560  13.785
73108ION    CL-39891   3.889   4.925   4.977
73109ION    CL-39892   3.846  17.207   1.025
73110ION    CL-39893  32.640  17.454  12.146
73111ION    CL-39894   3.846  20.954  12.259
73112ION    CL-39895   5.427  25.104   5.195
73113ION    CL-39896  17.179  36.684   1.033
73114ION    CL-39897   8.652  10.727  11.377
73115ION    CL-39898  43.729   7.383   2.357
73116ION    CL-39899  27.180  25.154  14.956
73117ION    CL-39900  42.429   2.000  12.576
73118ION    CL-39901  33.877  35.647   1.248
73119ION    CL-39902  12.872   4.338  12.267
73120ION    CL-39903   4.868   9.884  14.071
73121ION    CL-39904   9.326  43.520   2.238
73122ION    CL-39905  35.416  44.852   1.785
73123ION    CL-39906  10.405  39.101   0.044
73124ION    CL-39907  14.871  40.346   4.977
73125ION    CL-39908  18.674  37.108  13.010
73126ION    CL-39909  44.384  39.163   1.332
73127ION    CL-39910  16.394  15.352  13.155
73128ION    CL-39911  15.683  40.580  14.435
73129ION    CL-39912  17.549   9.929   3.401
73130ION    CL-39913   9.272  44.507   3.180
73131ION    CL-39914  27.636  30.612  12.008
73132ION    CL-39915  12.698  36.741  13.690
73133ION    CL-39916  28.975  18.043  14.804
73134ION    CL-39917  42.205  38.399   2.522
73135ION    CL-39918  19.829  24.081   0.958
73136ION    CL-39919  20.542   6.096   1.529
73137ION    CL-39920   0.331   5.821  10.439
73138ION    CL-39921  19.385   6.162  13.742
73139ION    CL-39922   9.836   1.124  13.346
73140ION    CL-39923   7.204   2.698  11.668
73141ION    CL-39924  34.374   6.223  11.443
73142ION    CL-39925  33.348  11.143  14.026
73143ION    CL-39926  35.091  38.900  11.270
73144ION    CL-39927  31.340  15.696  11.039
73145ION    CL-39928  23.110  24.906   4.146
73146ION    CL-39929  33.951  15.017  12.017
73147ION    CL-39930  24.276  13.681  10.777
73148ION    CL-39931  18.826  44.197   4.989
73149ION    CL-39932  10.804  30.991  14.822
73150ION    CL-39933  34.139  25.530   0.813
73151ION    CL-39934  30.380   0.306   1.255
73152ION    CL-39935  37.937  14.311  14.511
73153ION    CL-39936   8.781  28.716   2.429
73154ION    CL-39937   5.182  10.031   3.056
73155ION    CL-39938  26.822  44.653   3.399
73156ION    CL-39939  25.535  20.000   2.679
73157ION    CL-39940   9.939   0.118  12.333
73158ION    CL-39941  38.847   5.941   0.875
73159ION    CL-39942  40.355  42.930   2.901
73160ION    CL-39943  14.395  41.523  12.935
73161ION    CL-39944   8.351  36.532   0.298
73162ION    CL-39945  18.001   2.182  12.867
73163ION    CL-39946   7.640   4.182  11.690
73164ION    CL-39947  20.531  38.021   2.037
73165ION    CL-39948   0.997  43.983  10.607
73166ION    CL-39949  13.306  12.296  13.843
73167ION    CL-39950  34.271  43.034  12.526
73168ION    CL-39951  23.647  40.881  14.465
73169ION    CL-39952   1.030  28.478   4.025
73170ION    CL-39953  21.057   1.106  14.869
73171ION    CL-39954  36.700  17.852   0.075
73172ION    CL-39955  35.975  13.732   3.727
73173ION    CL-39956  34.396   9.981  14.291
73174ION    CL-39957  43.401  17.063   0.171
73175ION    CL-39958  42.433  26.677   2.335
73176ION    CL-39959   7.553  26.457  11.812
73177ION    CL-39960  10.419  26.005   2.761
73178ION    CL-39961   5.171  31.128   4.378
73179ION    CL-39962  26.622  40.821  12.920
73180ION    CL-39963  36.310  20.244  12.518
73181ION    CL-39964  33.925  39.075   0.821
73182ION    CL-39965  19.554  44.882  13.975
73183ION    CL-39966  32.099  32.936   0.209
73184ION    CL-39967  13.227  25.015   0.340
73185ION    CL-39968  13.424   0.375   4.667
73186ION    CL-39969   9.627  27.426   2.659
73187ION    CL-39970   4.517  44.557  12.788
73188ION    CL-39971  31.932  28.180   2.345
73189ION    CL-39972   1.517  11.055   1.434
73190ION    CL-39973   9.283  10.365   4.113
73191ION    CL-39974  10.953  28.095   1.167
73192ION    CL-39975  38.508  31.747  14.135
73193ION    CL-39976  41.432   3.285   1.917
73194ION    CL-39977   8.488  43.849  10.545
73195ION    CL-39978   9.929  35.312  10.679
73196ION    CL-39979  36.168  43.832   1.595
73197ION    CL-39980  34.958  29.507  11.101
73198ION    CL-39981  14.470   8.971   0.553
73199ION    CL-39982  33.274  39.025  13.000
73200ION    CL-39983  13.003  38.711   4.039
73201ION    CL-39984  15.454  39.788   5.461
73202ION    CL-39985   7.461  28.185  13.053
73203ION    CL-39986  41.165   1.916  12.183
73204ION    CL-39987  17.198   6.631  13.880
73205ION    CL-39988  14.396  25.593   0.130
73206ION    CL-39989  27.117  13.923  12.736
73207ION    CL-39990  20.836  36.175   0.948
73208ION    CL-39991   5.923  21.865   2.243
73209ION    CL-39992   5.331  12.627  11.711
73210ION    CL-39993  11.082  44.891   2.420
73211ION    CL-39994   8.324  35.018  13.339
73212ION    CL-39995  10.991  44.554   4.140
73213ION    CL-39996  25.465  28.873  10.668
73214ION    CL-39997  21.219  39.389  10.979
73215ION    CL-39998   3.554  26.724   2.625
73216ION    CL-39999  22.456  19.843  10.754
73217ION    CL-40000  41.193  33.224  11.062
73218ION    CL-40001   1.235   1.195  11.081
73219ION    CL-40002  40.848   9.464  11.273
73220ION    CL-40003  23.543   9.215  12.686
73221ION    CL-40004  19.032   5.707   3.282
73222ION    CL-40005  13.276  15.256   3.874
73223ION    CL-40006  11.626  33.616   1.955
73224ION    CL-40007   9.900  13.514  14.514
73225ION    CL-40008  39.359   8.262   3.558
73226ION    CL-40009  15.044  42.916   1.196
73227ION    CL-40010  15.816  27.408  12.893
73228ION    CL-40011  12.547  16.598  11.218
73229ION    CL-40012  25.361  20.967  14.320
73230ION    CL-40013  38.554  21.214   3.172
73231ION    CL-40014  12.221  33.637   1.152
73232ION    CL-40015  12.771  32.963  13.057
73233ION    CL-40016   5.035  42.684  13.836
73234ION    CL-40017   6.767  23.928   0.080
73235ION    CL-40018  15.092  14.396   2.180
73236ION    CL-40019   1.088  28.490   0.779
73237ION    CL-40020  10.832   7.979  11.261
73238ION    CL-40021  21.142  18.175   2.880
73239ION    CL-40022  31.633  16.801   0.376
73240ION    CL-40023  29.809   8.044  10.614
73241ION    CL-40024  35.368  17.275  11.935
73242ION    CL-40025  36.428  18.364  14.528
73243ION    CL-40026  10.271  18.144  11.085
73244ION    CL-40027   8.494  24.837  14.048
73245ION    CL-40028   7.493  13.000  14.353
73246ION    CL-40029  33.385  29.895  13.110
73247ION    CL-40030  33.463  32.411  13.088
73248ION    CL-40031  14.890   4.662  11.163
73249ION    CL-40032   9.876  23.954   4.202
73250ION    CL-40033   3.669  40.608  13.752
73251ION    CL-40034  11.688  14.865   2.369
73252ION    CL-40035  44.839   1.111  14.025
73253ION    CL-40036  20.511  38.667   2.666
73254ION    CL-40037  12.269  40.534  13.021
73255ION    CL-40038  36.050  37.510   1.445
73256ION    CL-40039  37.130  31.822  11.956
73257ION    CL-40040   2.265  24.401   4.198
73258ION    CL-40041  29.650   0.313   1.754
73259ION    CL-40042   9.540   6.865   2.636
73260ION    CL-40043  39.389  24.638   4.274
73261ION    CL-40044  35.830  28.965  12.108
73262ION    CL-40045  29.959  33.697  12.212
73263ION    CL-40046  21.573  17.503  14.007
73264ION    CL-40047  28.424  21.556   4.206
73265ION    CL-40048  30.593  10.859   0.743
73266ION    CL-40049  39.327  27.477   3.468
73267ION    CL-40050  29.042  18.696   0.788
73268ION    CL-40051  40.079  34.057   5.046
73269ION    CL-40052  27.318  23.638  14.222
73270ION    CL-40053  34.541  15.015   2.536
73271ION    CL-40054  14.526  20.535  12.401
73272ION    CL-40055  35.482  20.008  14.826
73273ION    CL-40056   1.929  20.149   3.582
73274ION    CL-40057   3.332   7.995   1.774
73275ION    CL-40058  30.468  42.788  12.562
73276ION    CL-40059  24.192   3.902   0.467
73277ION    CL-40060  11.777  11.449   3.178
73278ION    CL-40061  38.598  11.817   3.436
73279ION    CL-40062  32.762  19.058  10.723
73280ION    CL-40063  30.388  29.299   4.566
73281ION    CL-40064  15.616  34.349  14.981
73282ION    CL-40065  22.305  34.515  12.312
73283ION    CL-40066  19.227  28.596   3.837
73284ION    CL-40067  23.267   0.922  10.169
73285ION    CL-40068  27.997  25.315  11.256
73286ION    CL-40069  22.001   5.761  13.657
73287ION    CL-40070  32.711  40.803   2.825
73288ION    CL-40071   8.689  21.255  14.004
73289ION    CL-40072  16.366  36.279   1.005
73290ION    CL-40073  39.624  27.011  12.471
73291ION    CL-40074  42.861  10.678   0.894
73292ION    CL-40075  36.067  19.943  11.164
73293ION    CL-40076  36.589  33.019  11.537
73294ION    CL-40077  22.698   9.977  11.922
73295ION    CL-40078  16.476   9.878  14.395
73296ION    CL-40079  39.433  13.592   3.607
73297ION    CL-40080  26.734  21.616  12.449
73298ION    CL-40081  26.704  41.072  11.635
73299ION    CL-40082  16.064   5.901  12.047
73300ION    CL-40083  40.961  36.948   3.287
73301ION    CL-40084  39.873   3.456   2.141
73302ION    CL-40085  17.077  40.556   2.556
73303ION    CL-40086  36.343  20.222  14.288
73304ION    CL-40087   6.508  30.799   1.260
73305ION    CL-40088  24.656   4.758   1.819
73306ION    CL-40089  10.564  30.230   2.764
73307ION    CL-40090  30.475  26.253   3.217
73308ION    CL-40091   6.983  23.062   2.515
73309ION    CL-40092  10.272  33.617   1.328
73310ION    CL-40093  17.035   8.845  13.691
73311ION    CL-40094  15.490  27.035  14.011
73312ION    CL-40095  43.878  37.661  11.434
73313ION    CL-40096  20.658  11.339   3.294
73314ION    CL-40097  27.601  18.600   3.258
73315ION    CL-40098  12.437  34.474  13.963
73316ION    CL-40099  18.115   8.247   1.354
73317ION    CL-40100  19.090  39.976   4.225
73318ION    CL-40101  34.817   3.236   2.867
73319ION    CL-40102  22.727  36.695   0.697
73320ION    CL-40103  40.567  25.652  13.963
73321ION    CL-40104  12.913   2.822   4.172
73322ION    CL-40105  18.747  31.678   4.166
73323ION    CL-40106  32.669  42.844  13.014
73324ION    CL-40107  31.515   5.441  14.753
73325ION    CL-40108  39.882  36.432   1.805
73326ION    CL-40109  25.733  18.736  12.033
73327ION    CL-40110  44.336  28.910   9.858
73328ION    CL-40111   5.669   0.437   4.179
73329ION    CL-40112  14.995   7.827  10.772
73330ION    CL-40113   9.695  32.206   4.100
73331ION    CL-40114  39.031  38.053  11.391
73332ION    CL-40115  36.606   7.534  13.487
73333ION    CL-40116  13.162  31.658   0.926
73334ION    CL-40117   4.155  10.203   4.405
73335ION    CL-40118  21.975   0.697  13.136
73336ION    CL-40119   9.647  44.933   2.357
73337ION    CL-40120  31.296  11.830   3.413
73338ION    CL-40121   2.457  21.773  14.449
73339ION    CL-40122  23.374   2.763  11.458
73340ION    CL-40123  16.362  31.669  10.071
73341ION    CL-40124  36.876  41.830  13.010
73342ION    CL-40125  10.211  20.784   3.086
73343ION    CL-40126   0.819  31.854  13.073
73344ION    CL-40127  40.095  28.095  10.752
73345ION    CL-40128   4.228  28.095  11.918
73346ION    CL-40129  42.028   8.935  12.069
73347ION    CL-40130  28.321  19.288   2.880
73348ION    CL-40131  17.369  38.004  10.672
73349ION    CL-40132  20.039  19.828  11.947
73350ION    CL-40133  39.899  35.122  14.698
73351ION    CL-40134  25.238   0.178   3.738
73352ION    CL-40135   4.448  17.735  13.445
73353ION    CL-40136  29.413  39.965   1.403
73354ION    CL-40137   1.296  20.696   5.043
73355ION    CL-40138   0.044  38.195   1.832
73356ION    CL-40139  11.626  34.637   2.864
73357ION    CL-40140   8.197  28.049   1.754
73358ION    CL-40141  18.049  15.088   1.839
73359ION    CL-40142  13.054  33.236  12.247
73360ION    CL-40143  40.314  36.143  12.789
73361ION    CL-40144   6.174  44.226  14.857
73362ION    CL-40145  30.279  26.995   1.243
73363ION    CL-40146  41.614  30.312  10.274
73364ION    CL-40147  39.510  42.769   2.748
73365ION    CL-40148  37.085  34.903   1.726
73366ION    CL-40149  12.669   5.170   2.570
73367ION    CL-40150  22.145   8.290  12.335
73368ION    CL-40151  20.835   9.266  12.174
73369ION    CL-40152  37.701   1.281   4.997
73370ION    CL-40153  18.604  40.974   3.848
73371ION    CL-40154   1.957  12.740  11.987
73372ION    CL-40155  21.996  16.094   2.802
73373ION    CL-40156  38.273  41.356   1.308
73374ION    CL-40157  12.089  31.416   3.718
73375ION    CL-40158   7.908  15.974   0.410
73376ION    CL-40159  42.743  13.209  11.899
73377ION    CL-40160  13.168  22.318  10.635
73378ION    CL-40161  17.720  20.830  11.870
73379ION    CL-40162  35.723  25.486  14.131
73380ION    CL-40163  27.270  14.096  13.976
73381ION    CL-40164   0.728  44.917  13.108
73382ION    CL-40165  40.340   8.166  10.696
73383ION    CL-40166   3.986   9.169   3.085
73384ION    CL-40167  16.011  16.733   0.963
73385ION    CL-40168  22.367  35.948  11.611
73386ION    CL-40169  13.589  13.395   1.692
73387ION    CL-40170  40.381  40.842  13.266
73388ION    CL-40171  36.097  32.556  13.531
73389ION    CL-40172   1.166  24.299   4.945
73390ION    CL-40173  16.794  29.711   2.288
73391ION    CL-40174  31.729   1.251  10.378
73392ION    CL-40175  20.985  27.763   4.579
73393ION    CL-40176  23.544  26.502   5.208
73394ION    CL-40177   5.774  34.416   2.149
73395ION    CL-40178   1.403  13.541   2.813
73396ION    CL-40179  37.499  28.134  12.385
73397ION    CL-40180   1.834  37.967  10.714
73398ION    CL-40181  12.721   1.042  12.697
73399ION    CL-40182  41.628  44.811   3.398
73400ION    CL-40183   2.950  17.877   3.369
73401ION    CL-40184  14.438  17.548   3.956
73402ION    CL-40185  37.198   4.547  11.813
73403ION    CL-40186  12.673  33.995   3.294
73404ION    CL-40187  26.187  35.500  11.576
73405ION    CL-40188   3.472  18.692   3.032
73406ION    CL-40189   8.459   6.769   3.801
73407ION    CL-40190   1.378   3.873   3.672
73408ION    CL-40191   3.993   9.900   1.815
73409ION    CL-40192  20.413  35.322  14.958
73410ION    CL-40193  22.076  12.578   3.825
73411ION    CL-40194  12.190   0.400   3.434
73412ION    CL-40195  10.519  11.276  13.166
73413ION    CL-40196   4.288  21.322   4.925
73414ION    CL-40197   7.687  29.406   3.242
73415ION    CL-40198  44.831   7.216   2.738
73416ION    CL-40199  34.816  27.433   1.196
73417ION    CL-40200  10.714  24.976  13.063
73418ION    CL-40201  15.251  10.945  12.596
73419ION    CL-40202  26.590  26.433  13.213
73420ION    CL-40203  35.005  21.573  12.030
73421ION    CL-40204  42.013  24.808   4.279
73422ION    CL-40205  41.295  27.664   1.305
73423ION    CL-40206  30.964  42.101   3.159
73424ION    CL-40207   8.156  19.462  14.852
73425ION    CL-40208   3.724  16.917   1.831
73426ION    CL-40209  14.380  36.905   0.274
73427ION    CL-40210  26.601  25.427   2.071
73428ION    CL-40211  40.822   8.351   2.178
73429ION    CL-40212  26.277  29.551  13.450
73430ION    CL-40213  36.304  24.225   1.867
73431ION    CL-40214  32.261  36.291  14.197
73432ION    CL-40215  41.426  43.184   2.845
73433ION    CL-40216  43.277  33.290  13.418
73434ION    CL-40217   1.907  36.636   2.168
73435ION    CL-40218  10.196  26.460  14.698
73436ION    CL-40219  17.008  33.104   0.509
73437ION    CL-40220   5.744  22.890  13.676
73438ION    CL-40221  40.980  13.252   1.729
73439ION    CL-40222  40.100  26.422   4.153
73440ION    CL-40223  41.938  15.298   4.237
73441ION    CL-40224  41.051   4.636  14.831
73442ION    CL-40225  43.272  34.947   0.823
73443ION    CL-40226   2.059   0.812   3.520
73444ION    CL-40227  26.771  15.397   0.241
73445ION    CL-40228   6.607   2.937  11.117
73446ION    CL-40229  13.196  35.815  11.060
73447ION    CL-40230  12.680   8.770  11.994
73448ION    CL-40231  19.259  34.927   1.297
73449ION    CL-40232  10.206   6.303   3.667
73450ION    CL-40233  26.671  31.488  14.009
73451ION    CL-40234  40.904  36.118   2.110
73452ION    CL-40235   5.128  41.565   1.564
73453ION    CL-40236  39.343  25.473   2.800
73454ION    CL-40237  39.565  13.016  10.170
73455ION    CL-40238  42.619  25.862  12.680
73456ION    CL-40239  24.645  10.429  14.768
73457ION    CL-40240  15.302  10.952   1.313
73458ION    CL-40241   2.136  19.792  14.527
73459ION    CL-40242  25.798  39.362   4.120
73460ION    CL-40243  30.914  39.391   4.759
73461ION    CL-40244  38.330  27.222  13.914
73462ION    CL-40245  33.383  40.554  13.985
73463ION    CL-40246  26.608   0.993  13.936
73464ION    CL-40247  44.835   7.244   0.366
73465ION    CL-40248  22.113   1.552   4.924
73466ION    CL-40249  30.098  12.794   4.497
73467ION    CL-40250  30.888  37.773   1.729
73468ION    CL-40251  10.021   5.279  10.194
73469ION    CL-40252  25.975  32.119   4.339
73470ION    CL-40253  43.886  31.383   4.478
73471ION    CL-40254  14.120  33.032   3.867
73472ION    CL-40255  32.586  39.559  12.508
73473ION    CL-40256  41.079  38.032   0.239
73474ION    CL-40257  44.950  28.165   2.808
73475ION    CL-40258   2.301   6.671  12.449
73476ION    CL-40259  39.655  42.446   1.557
73477ION    CL-40260  42.928  15.778  11.192
73478ION    CL-40261  42.677  30.852   4.952
73479ION    CL-40262   8.655  12.566   1.762
73480ION    CL-40263   5.743  39.025  12.387
73481ION    CL-40264  27.450  35.493  11.166
73482ION    CL-40265  42.620  16.903   3.097
73483ION    CL-40266  28.579   1.894   3.727
73484ION    CL-40267  38.561  44.887   3.341
73485ION    CL-40268  35.245  30.942  14.632
73486ION    CL-40269  42.309  23.541  12.551
73487ION    CL-40270   0.505  43.144   2.678
73488ION    CL-40271  22.373   8.792  11.135
73489ION    CL-40272  39.297  42.928   0.141
73490ION    CL-40273  32.197  40.306   0.147
73491ION    CL-40274  11.191   0.974   3.315
73492ION    CL-40275  14.124  42.632  10.451
73493ION    CL-40276  16.880  31.115  13.687
73494ION    CL-40277   7.421  22.300  11.799
73495ION    CL-40278  10.070  15.639   0.796
73496ION    CL-40279  35.610  11.324   0.883
73497ION    CL-40280  44.418  25.253  11.919
73498ION    CL-40281  35.691  30.151   2.159
73499ION    CL-40282  38.112  14.188   2.258
73500ION    CL-40283  36.452   0.493   5.141
73501ION    CL-40284   9.281  19.339  12.787
73502ION    CL-40285  32.228   5.056   4.204
73503ION    CL-40286  23.292   8.869  14.073
73504ION    CL-40287  12.489  32.898   0.534
73505ION    CL-40288   4.055  36.178   2.527
73506ION    CL-40289  16.806  15.801   2.813
73507ION    CL-40290  13.156  23.332  10.361
73508ION    CL-40291  42.044  42.292   4.957
73509ION    CL-40292  36.958  21.080   4.923
73510ION    CL-40293   0.008  29.882  12.547
73511ION    CL-40294   6.856  15.815   3.625
73512ION    CL-40295  32.091   6.345  11.444
73513ION    CL-40296  30.572  24.944  14.987
73514ION    CL-40297   1.798  14.304   3.798
73515ION    CL-40298   2.350  23.997  14.938
73516ION    CL-40299  44.089   9.929  12.199
73517ION    CL-40300   7.620  37.052   3.007
73518ION    CL-40301  37.125   7.763  12.243
73519ION    CL-40302  38.566  37.374  13.366
73520ION    CL-40303  16.585   3.855  11.557
73521ION    CL-40304  13.714  16.692   3.281
73522ION    CL-40305  33.755  44.986   4.187
73523ION    CL-40306  39.543  38.837   4.219
73524ION    CL-40307  35.367  21.030   2.195
73525ION    CL-40308   6.358  31.769  11.511
73526ION    CL-40309   7.838   8.640   1.611
73527ION    CL-40310   7.322   9.492   1.698
73528ION    CL-40311  42.862  23.527  14.858
73529ION    CL-40312   3.742  32.486   0.866
73530ION    CL-40313   1.557  31.381   4.440
73531ION    CL-40314  19.391  30.560  11.705
73532ION    CL-40315  32.992   6.044  11.132
73533ION    CL-40316  20.395  38.554  11.420
73534ION    CL-40317  37.961  11.275   4.777
73535ION    CL-40318   6.974  32.152  12.742
73536ION    CL-40319   7.278  32.007   0.675
73537ION    CL-40320  27.323  23.206   0.124
73538ION    CL-40321  26.543  11.579   1.902
73539ION    CL-40322  12.745  43.088  14.015
73540ION    CL-40323  35.703   7.165   1.183
73541ION    CL-40324   0.338  35.336   2.687
73542ION    CL-40325   7.636   5.418  13.787
73543ION    CL-40326  43.781  10.292  14.488
73544ION    CL-40327  14.952  14.335  14.036
73545ION    CL-40328  33.297  35.885  14.349
73546ION    CL-40329  44.530   1.900   1.235
73547ION    CL-40330  22.140  13.395   3.252
73548ION    CL-40331  40.543  36.599  13.649
73549ION    CL-40332  23.170  19.194   1.431
73550ION    CL-40333   5.296  36.545   1.816
73551ION    CL-40334   9.700  27.325  14.773
73552ION    CL-40335  40.960  29.446  10.760
73553ION    CL-40336  43.636  16.072  11.705
73554ION    CL-40337  17.599  36.728   0.127
73555ION    CL-40338  23.805  29.704  13.440
73556ION    CL-40339  34.377  40.038   3.670
73557ION    CL-40340  20.223  32.663   3.008
73558ION    CL-40341  29.528  27.602   3.301
73559ION    CL-40342  27.794  31.529  11.508
73560ION    CL-40343  24.635  35.954  12.898
73561ION    CL-40344  19.442  35.597   5.141
73562ION    CL-40345   1.324   9.547  11.043
73563ION    CL-40346  17.281  12.344   4.225
73564ION    CL-40347  14.196  15.528   0.230
73565ION    CL-40348  22.091  21.722  12.045
73566ION    CL-40349  32.114  43.925  11.640
73567ION    CL-40350  36.588  44.925   0.855
73568ION    CL-40351  36.705  23.873  13.316
73569ION    CL-40352  20.131   5.840  10.168
73570ION    CL-40353  22.180  29.336  10.609
73571ION    CL-40354  38.881   3.496  11.983
73572ION    CL-40355   6.628  12.189  14.774
73573ION    CL-40356  33.840  21.709  14.217
73574ION    CL-40357  43.931  30.400   9.898
73575ION    CL-40358  36.068  29.116   2.404
73576ION    CL-40359  38.109  10.908  11.945
73577ION    CL-40360  16.037   1.716   3.022
73578ION    CL-40361  23.744  16.165  13.306
73579ION    CL-40362  14.096  42.807  14.801
73580ION    CL-40363  22.787  19.093  11.131
73581ION    CL-40364  13.729  27.601   1.714
73582ION    CL-40365   4.773  13.649   1.655
73583ION    CL-40366  13.145  36.691   1.270
73584ION    CL-40367  37.809   5.082   3.669
73585ION    CL-40368  29.796  20.441  13.624
73586ION    CL-40369  23.800  23.147   2.049
73587ION    CL-40370  15.538  15.088  13.600
73588ION    CL-40371   4.017   6.325   3.613
73589ION    CL-40372  11.402  15.649   3.655
73590ION    CL-40373  17.522  11.284   3.532
73591ION    CL-40374  18.661   2.613  10.913
73592ION    CL-40375  42.082  41.415   2.740
73593ION    CL-40376  12.782   9.042   4.462
73594ION    CL-40377  37.058   4.139   4.263
73595ION    CL-40378  16.832  24.618  10.840
73596ION    CL-40379  32.109  29.398  12.395
73597ION    CL-40380  36.034  43.084   1.997
73598ION    CL-40381  37.236  32.181  12.883
73599ION    CL-40382  17.044  22.044   2.371
73600ION    CL-40383  18.100  15.859  12.078
73601ION    CL-40384  27.663  33.646  10.388
73602ION    CL-40385  18.355   1.661   4.283
73603ION    CL-40386  32.295  13.154   0.951
73604ION    CL-40387   7.867  44.987  12.662
73605ION    CL-40388  17.523  24.380   0.139
73606ION    CL-40389   9.204  13.606   0.330
73607ION    CL-40390  22.796  23.151   2.373
73608ION    CL-40391  22.887  16.293  13.098
73609ION    CL-40392   7.242   4.286   2.132
73610ION    CL-40393  11.106  15.154   0.688
73611ION    CL-40394  14.394   3.470  14.117
73612ION    CL-40395  25.935   0.233   4.252
73613ION    CL-40396  21.731   0.187  14.572
73614ION    CL-40397  24.442  38.965   0.296
73615ION    CL-40398  42.286   5.272   0.773
73616ION    CL-40399   2.657  12.214  11.499
73617ION    CL-40400   0.870  41.705   0.935
73618ION    CL-40401  16.544   2.377  13.921
73619ION    CL-40402  25.851  34.897   2.096
73620ION    CL-40403  22.803  13.762   0.237
73621ION    CL-40404   6.824   2.946  13.458
73622ION    CL-40405  39.815  35.630  11.346
73623ION    CL-40406  10.282  12.596  13.907
73624ION    CL-40407  20.847  16.652   4.681
73625ION    CL-40408  34.940   3.018   0.503
73626ION    CL-40409   8.629  35.240  11.000
73627ION    CL-40410   7.101  14.209  11.762
73628ION    CL-40411  16.152   6.934   0.551
73629ION    CL-40412   8.183  19.728  12.084
73630ION    CL-40413  10.254  20.754   1.621
73631ION    CL-40414  21.318  18.856   5.175
73632ION    CL-40415   3.897  27.153  11.865
73633ION    CL-40416   7.354  32.635  13.629
73634ION    CL-40417  13.290   3.639  14.729
73635ION    CL-40418  14.021  37.363   1.855
73636ION    CL-40419  29.219  29.257   5.058
73637ION    CL-40420  26.080  14.347   0.129
73638ION    CL-40421   6.532  31.398  10.249
73639ION    CL-40422  27.946  44.442   2.201
73640ION    CL-40423  26.570  32.855  14.836
73641ION    CL-40424  24.776  32.052  12.083
73642ION    CL-40425  18.093  32.092  14.309
73643ION    CL-40426  29.128   6.831  11.150
73644ION    CL-40427  23.219  37.960  12.817
73645ION    CL-40428  43.413  22.727   3.187
73646ION    CL-40429  18.538  11.103   2.365
73647ION    CL-40430  23.658  37.447   1.374
73648ION    CL-40431   2.208  16.718  13.872
73649ION    CL-40432  10.626  12.881   1.868
73650ION    CL-40433  43.130  25.710  13.526
73651ION    CL-40434  33.396   7.256   0.782
73652ION    CL-40435  23.296   6.867   3.405
73653ION    CL-40436  32.923  39.102   0.112
73654ION    CL-40437  29.080  38.170   2.936
73655ION    CL-40438  20.554   5.148   4.037
73656ION    CL-40439   5.772  16.526  12.136
73657ION    CL-40440  11.228  18.242  10.558
73658ION    CL-40441  15.260  42.601  12.628
73659ION    CL-40442  44.898  26.533  14.757
73660ION    CL-40443   3.354  11.483   1.464
73661ION    CL-40444  19.350   7.159   3.232
73662ION    CL-40445  12.575  32.113   1.904
73663ION    CL-40446  21.628  22.312  13.097
73664ION    CL-40447  42.230  39.070  13.560
73665ION    CL-40448  35.737   9.579  11.635
73666ION    CL-40449   7.652   6.867   3.925
73667ION    CL-40450  15.461  11.020  10.629
73668ION    CL-40451  13.242  37.786   2.685
73669ION    CL-40452   5.935  32.180   1.574
73670ION    CL-40453  30.734  15.140   0.432
73671ION    CL-40454   2.088  28.396  14.385
73672ION    CL-40455  43.714  32.133   4.847
73673ION    CL-40456  26.897  11.787  12.153
73674ION    CL-40457  27.214  31.022   2.142
73675ION    CL-40458  14.882  14.025  14.984
73676ION    CL-40459  38.779   1.979  12.489
73677ION    CL-40460  14.996  15.214   0.103
73678ION    CL-40461  15.973   8.440   2.017
73679ION    CL-40462  17.316   5.201  13.514
73680ION    CL-40463  12.191  11.365   0.166
73681ION    CL-40464  26.281  26.275   9.660
73682ION    CL-40465  23.196  43.640   2.590
73683ION    CL-40466  33.613   8.637   0.728
73684ION    CL-40467  33.438   7.889   3.880
73685ION    CL-40468  28.373  33.640  11.806
73686ION    CL-40469  16.956  27.817   3.923
73687ION    CL-40470  39.515  40.612   1.333
73688ION    CL-40471  16.099  35.934   4.983
73689ION    CL-40472   7.423  42.265   1.058
73690ION    CL-40473  27.374   2.947   4.659
73691ION    CL-40474  21.577  35.527   3.722
73692ION    CL-40475  13.401  32.505  13.683
73693ION    CL-40476   6.311  26.042  10.661
73694ION    CL-40477  14.022  17.151  12.640
73695ION    CL-40478   1.033   3.047   3.823
73696ION    CL-40479  27.015  22.658  14.344
73697ION    CL-40480  31.572   2.389  12.568
73698ION    CL-40481  21.300  16.078   9.872
73699ION    CL-40482  31.054  36.109   4.045
73700ION    CL-40483  39.402  10.469   4.438
73701ION    CL-40484   4.431  18.663   2.009
73702ION    CL-40485  12.458   2.601  12.060
73703ION    CL-40486  15.253   8.411  13.120
73704ION    CL-40487  15.134  19.264   2.862
73705ION    CL-40488  12.691  17.875   2.117
73706ION    CL-40489   5.259  43.471   1.348
73707ION    CL-40490   5.948  11.475  12.379
73708ION    CL-40491  35.145  13.176   3.684
73709ION    CL-40492   6.334  23.318   1.732
73710ION    CL-40493   6.766  24.011   2.742
73711ION    CL-40494  36.579  34.277  11.208
73712ION    CL-40495  21.286   3.185  12.122
73713ION    CL-40496  13.486   3.556  11.273
73714ION    CL-40497  39.242  34.820  11.477
73715ION    CL-40498  15.794  43.465  10.368
73716ION    CL-40499  35.412  15.455   2.321
73717ION    CL-40500  43.931  23.602   1.867
73718ION    CL-40501  28.651  31.543   1.443
73719ION    CL-40502  30.739  40.045   2.817
73720ION    CL-40503  30.159   4.409   0.219
73721ION    CL-40504  24.420  43.006   1.087
73722ION    CL-40505  23.462   6.271  12.880
73723ION    CL-40506  27.316   6.073  13.354
73724ION    CL-40507  13.884  41.294   2.256
73725ION    CL-40508   3.687   5.897   4.854
73726ION    CL-40509  12.757  13.929  14.998
73727ION    CL-40510  43.051  33.937  10.931
73728ION    CL-40511  22.957  29.912  12.953
73729ION    CL-40512  11.047  21.170   0.264
73730ION    CL-40513  36.707  25.398  14.288
73731ION    CL-40514   5.876  31.983  14.287
73732ION    CL-40515  14.189  37.091   4.411
73733ION    CL-40516  23.150  30.010   3.662
73734ION    CL-40517  14.312  21.265   0.070
73735ION    CL-40518  36.979  36.266  11.713
73736ION    CL-40519  11.703  28.781  14.266
73737ION    CL-40520  30.654  30.744   1.770
73738ION    CL-40521  22.166  23.716  13.863
73739ION    CL-40522  33.149  42.705   2.764
73740ION    CL-40523  40.296  31.580  11.582
73741ION    CL-40524  11.104  18.387  11.582
73742ION    CL-40525  23.105  23.075  12.790
73743ION    CL-40526  37.614  26.064   2.265
73744ION    CL-40527  38.714  32.249  13.295
73745ION    CL-40528   5.855  44.755  13.482
73746ION    CL-40529  31.918   1.911   2.130
73747ION    CL-40530  25.381   8.011   2.759
73748ION    CL-40531  38.343  35.188   1.266
73749ION    CL-40532  42.003  21.898  13.509
73750ION    CL-40533  34.051  44.156   1.816
73751ION    CL-40534  28.070  39.654   4.560
73752ION    CL-40535  31.833  39.620  13.235
73753ION    CL-40536  25.205  11.683  13.470
73754ION    CL-40537   5.712  12.055  12.939
73755ION    CL-40538  11.546  23.038   2.021
73756ION    CL-40539  22.989  24.279   1.457
73757ION    CL-40540  20.062  23.917   0.151
73758ION    CL-40541  42.828  35.345  13.558
73759ION    CL-40542  18.528  29.648   3.229
73760ION    CL-40543  20.800  19.637  12.568
73761ION    CL-40544   2.724  41.343   0.917
73762ION    CL-40545  35.050  14.469  14.172
73763ION    CL-40546   5.292  20.026  14.147
73764ION    CL-40547  29.363  11.889   2.920
73765ION    CL-40548  38.553  14.344  11.240
73766ION    CL-40549   7.866  15.528   1.304
73767ION    CL-40550  21.958  25.624  10.769
73768ION    CL-40551  33.176  17.106   3.569
73769ION    CL-40552   4.610  10.889   4.945
73770ION    CL-40553  23.345   0.779  11.608
73771ION    CL-40554  24.983  27.243   2.659
73772ION    CL-40555  40.439  28.891   3.050
73773ION    CL-40556   0.364   4.511   1.776
73774ION    CL-40557  40.293  24.362   1.008
73775ION    CL-40558  22.729  36.065   1.899
73776ION    CL-40559  14.813  26.739   3.280
73777ION    CL-40560  20.861  23.204  13.389
73778ION    CL-40561   5.051  26.797  14.267
73779ION    CL-40562   3.969  18.190  10.193
73780ION    CL-40563  18.823   8.751  12.740
73781ION    CL-40564  31.683  39.554   2.269
73782ION    CL-40565  26.223  23.601   0.984
73783ION    CL-40566   3.724  24.237   3.099
73784ION    CL-40567  14.398  33.828  11.010
73785ION    CL-40568   0.649  19.921  13.591
73786ION    CL-40569  44.287  26.724   1.172
73787ION    CL-40570  12.650  12.137  10.429
73788ION    CL-40571  20.194  14.396   5.326
73789ION    CL-40572   3.681  30.168   3.289
73790ION    CL-40573   3.764   4.670  13.056
73791ION    CL-40574  40.590  17.084  14.424
73792ION    CL-40575  10.031  26.367  11.070
73793ION    CL-40576  34.660   7.137  14.362
73794ION    CL-40577  33.616  14.038  14.457
73795ION    CL-40578  34.901   3.228   1.494
73796ION    CL-40579  38.371   0.954  11.792
73797ION    CL-40580  11.457   7.427   3.779
73798ION    CL-40581  17.275  23.071  11.759
73799ION    CL-40582   3.112  44.669   2.652
73800ION    CL-40583   5.505   9.184  11.645
73801ION    CL-40584  33.031  38.200   0.035
73802ION    CL-40585  15.419  42.287  14.750
73803ION    CL-40586  23.032  37.384   0.268
73804ION    CL-40587   9.579  32.346  10.335
73805ION    CL-40588   2.376  34.015  14.943
73806ION    CL-40589  38.573  15.275   2.704
73807ION    CL-40590  13.113  36.063   4.599
73808ION    CL-40591  15.089  18.532   4.569
73809ION    CL-40592  13.828   3.319   3.674
73810ION    CL-40593  38.396  44.201   0.957
73811ION    CL-40594  37.841  33.146   2.481
73812ION    CL-40595  28.275  40.684   2.355
73813ION    CL-40596   7.396   4.198   1.137
73814ION    CL-40597  15.113  12.656  11.723
73815ION    CL-40598  29.587   3.960  11.844
73816ION    CL-40599   5.244  37.891   1.338
73817ION    CL-40600   5.355  20.853   3.494
73818ION    CL-40601  14.982  39.766  14.760
73819ION    CL-40602  36.684  35.625   0.046
73820ION    CL-40603  25.280  15.783  12.122
73821ION    CL-40604  25.210   5.701  11.012
73822ION    CL-40605  31.985  43.839  13.782
73823ION    CL-40606  16.289   5.580   3.240
73824ION    CL-40607  24.743   5.158  12.712
73825ION    CL-40608  16.827  40.313  11.483
73826ION    CL-40609  16.531  22.976  12.969
73827ION    CL-40610  22.367  31.690   9.957
73828ION    CL-40611  30.483  18.620   4.053
73829ION    CL-40612  42.076  38.075  12.718
73830ION    CL-40613  26.780  36.867  12.854
73831ION    CL-40614   3.707  29.624  11.821
73832ION    CL-40615  27.212  33.626  14.981
73833ION    CL-40616  39.381  28.556   3.890
73834ION    CL-40617  21.557   1.551   0.494
73835ION    CL-40618  34.919  33.088  12.030
73836ION    CL-40619  29.137   7.714   0.109
73837ION    CL-40620  12.143  29.667   4.254
73838ION    CL-40621  40.599   9.080  10.384
73839ION    CL-40622  33.073  31.045  12.210
73840ION    CL-40623  15.905  30.213   3.048
73841ION    CL-40624  11.052   1.916   0.304
73842ION    CL-40625  36.832   9.230   2.330
73843ION    CL-40626   6.423  13.277   2.070
73844ION    CL-40627  35.282  41.432   0.262
73845ION    CL-40628  17.191  40.003   9.856
73846ION    CL-40629   3.678  16.272   3.916
73847ION    CL-40630  33.526  19.031   1.072
73848ION    CL-40631   0.980   8.567  13.477
73849ION    CL-40632  16.764  38.000   1.359
73850ION    CL-40633   5.330  31.485   1.962
73851ION    CL-40634  25.478  30.965  12.455
73852ION    CL-40635  30.477   8.444   0.973
73853ION    CL-40636   5.905  14.420  10.547
73854ION    CL-40637  31.247  22.806   1.256
73855ION    CL-40638  17.733  16.870  12.689
73856ION    CL-40639  40.322  31.721  10.569
73857ION    CL-40640   7.181  13.863   5.014
73858ION    CL-40641  23.498  40.140   5.567
73859ION    CL-40642  13.339   2.271  14.240
73860ION    CL-40643  12.157   7.925  14.709
73861ION    CL-40644  12.738  22.320   1.958
73862ION    CL-40645  42.660   2.263  14.145
73863ION    CL-40646  28.224  17.034  12.092
73864ION    CL-40647   0.765  37.108   3.315
73865ION    CL-40648  22.999  30.310  13.671
73866ION    CL-40649  25.833  25.895  14.920
73867ION    CL-40650  16.297  32.565  12.232
73868ION    CL-40651  43.426  25.661  11.627
73869ION    CL-40652   7.105  33.851  11.537
73870ION    CL-40653  42.784   0.771  12.884
73871ION    CL-40654  24.760  33.440   3.235
73872ION    CL-40655  24.536   6.171  12.827
73873ION    CL-40656  28.699  32.203   0.671
73874ION    CL-40657  16.573  36.572  14.342
73875ION    CL-40658  29.027   8.863   0.211
73876ION    CL-40659   6.975  28.094   2.325
73877ION    CL-40660   5.523  29.377   1.503
73878ION    CL-40661   9.572  32.449   2.076
73879ION    CL-40662  11.571   4.952   3.762
73880ION    CL-40663   1.540  25.944  14.147
73881ION    CL-40664  35.673  21.552   0.286
73882ION    CL-40665  18.450  20.156  10.728
73883ION    CL-40666  19.021  26.981   1.178
73884ION    CL-40667  23.904  12.295   2.992
73885ION    CL-40668  26.741  21.769   0.227
73886ION    CL-40669  21.281  33.552  14.357
73887ION    CL-40670   8.725   0.314   2.422
73888ION    CL-40671  30.744  41.055   2.545
73889ION    CL-40672  33.034   7.264  13.812
73890ION    CL-40673  36.174  19.594  10.233
73891ION    CL-40674   2.804   3.465   2.274
73892ION    CL-40675  14.831   6.943   0.692
73893ION    CL-40676   4.139  37.317  14.333
73894ION    CL-40677  36.301  34.846   2.453
73895ION    CL-40678  36.059  42.780   3.828
73896ION    CL-40679  37.544  38.186   1.784
73897ION    CL-40680  24.370  17.527   0.559
73898ION    CL-40681  23.510  26.975  13.818
73899ION    CL-40682  14.337  39.514   4.603
73900ION    CL-40683   6.456  30.367  12.140
73901ION    CL-40684  36.556  42.547   2.689
73902ION    CL-40685  11.410  35.426  12.157
73903ION    CL-40686  17.292   1.866  13.498
73904ION    CL-40687  13.305   3.488   2.348
73905ION    CL-40688  33.979  23.471  14.881
73906ION    CL-40689  21.733  16.169   0.072
73907ION    CL-40690  36.973  13.083   2.240
73908ION    CL-40691   2.441  10.232   2.059
73909ION    CL-40692  27.368  40.080  13.419
73910ION    CL-40693  26.490  33.703   4.988
73911ION    CL-40694  18.343   4.112  12.912
73912ION    CL-40695  24.861  43.317   2.161
73913ION    CL-40696  27.727  14.839   3.754
73914ION    CL-40697   4.392  43.833   0.763
73915ION    CL-40698  32.274  30.228  11.093
73916ION    CL-40699   0.956  19.433  11.063
73917ION    CL-40700  41.201  18.226  13.816
73918ION    CL-40701  42.999   3.923   1.740
73919ION    CL-40702  22.607  38.371   1.315
73920ION    CL-40703  12.103  36.782   0.790
73921ION    CL-40704   8.186  28.102   4.925
73922ION    CL-40705  33.991  23.921  12.370
73923ION    CL-40706  17.268  30.708   3.211
73924ION    CL-40707   7.478  19.621   1.860
73925ION    CL-40708  22.143   3.786  13.822
73926ION    CL-40709  29.069  38.193  10.128
73927ION    CL-40710  16.538  42.614  12.142
73928ION    CL-40711  34.167   1.359  10.829
73929ION    CL-40712   6.296  38.535   1.768
73930ION    CL-40713  28.501  38.542  13.163
73931ION    CL-40714  21.776  14.181  13.018
73932ION    CL-40715  33.297   1.431  13.874
73933ION    CL-40716  15.860  14.025  12.689
73934ION    CL-40717  31.674   3.887  11.271
73935ION    CL-40718   8.974  14.451   0.943
73936ION    CL-40719   3.174  31.196   4.842
73937ION    CL-40720  30.931  36.768   2.950
73938ION    CL-40721  35.624  11.929  14.949
73939ION    CL-40722  21.598  36.004  10.898
73940ION    CL-40723  11.595   7.378  13.149
73941ION    CL-40724   8.907  43.848  11.659
73942ION    CL-40725  36.431  13.886  11.535
73943ION    CL-40726  40.437  11.416  14.963
73944ION    CL-40727  16.128  12.505   2.409
73945ION    CL-40728  35.272   7.610  14.075
73946ION    CL-40729  35.553  14.820   0.005
73947ION    CL-40730  36.256  22.945  11.834
73948ION    CL-40731  11.092  28.038  13.068
73949ION    CL-40732  37.071  37.831   3.682
73950ION    CL-40733   9.171   5.821  14.979
73951ION    CL-40734  27.992  30.904  11.241
73952ION    CL-40735  32.464  36.662   1.976
73953ION    CL-40736  31.870   0.532   1.635
73954ION    CL-40737  42.473   9.847  13.564
73955ION    CL-40738  42.641   5.838  12.446
73956ION    CL-40739  34.073  40.031  13.485
73957ION    CL-40740  21.844  38.082  12.370
73958ION    CL-40741  40.459  20.544  11.458
73959ION    CL-40742  35.841   9.652   0.253
73960ION    CL-40743   2.799  22.147   3.254
73961ION    CL-40744  24.717  23.393  13.458
73962ION    CL-40745  30.957  25.483   1.458
73963ION    CL-40746  19.563  38.549  11.059
73964ION    CL-40747  29.290   5.385  14.911
73965ION    CL-40748  25.886  15.285   3.685
73966ION    CL-40749  19.039  21.826   1.237
73967ION    CL-40750  17.614  21.622   0.864
73968ION    CL-40751  16.817   8.065   0.336
73969ION    CL-40752  19.761  40.691   4.029
73970ION    CL-40753  44.223  14.360  12.430
73971ION    CL-40754   3.852   1.418   3.033
73972ION    CL-40755   0.670   8.113   4.527
73973ION    CL-40756  30.720  20.950  11.789
73974ION    CL-40757  10.392  39.794  10.461
73975ION    CL-40758  38.625   5.200   4.235
73976ION    CL-40759  18.503  27.543  14.501
73977ION    CL-40760  27.632  18.476   0.414
73978ION    CL-40761  43.522  30.443   2.445
73979ION    CL-40762  28.910  35.640  10.998
73980ION    CL-40763  32.978  10.316  12.146
73981ION    CL-40764  19.048   8.319   2.474
73982ION    CL-40765  29.845  20.311   2.168
73983ION    CL-40766   8.572  18.673   3.710
73984ION    CL-40767   0.307  12.640  12.386
73985ION    CL-40768  35.269   5.511   4.152
73986ION    CL-40769  36.113  38.887   2.084
73987ION    CL-40770  34.151   1.856  14.174
73988ION    CL-40771  34.731   1.534  11.636
73989ION    CL-40772  18.787  16.095   1.792
73990ION    CL-40773  38.509  36.984  14.285
73991ION    CL-40774  39.360  36.993   2.447
73992ION    CL-40775   9.421  42.328  12.806
73993ION    CL-40776  17.694  15.644   3.022
73994ION    CL-40777  14.919  16.877   0.387
73995ION    CL-40778   1.961  14.129  13.344
73996ION    CL-40779  41.907   2.203   1.324
73997ION    CL-40780  35.055  19.009  11.955
73998ION    CL-40781  23.443  33.555  14.960
73999ION    CL-40782  35.810  31.293   0.187
74000ION    CL-40783  35.797  26.482  13.167
74001ION    CL-40784  42.872  15.174   0.101
74002ION    CL-40785  32.674  18.246  12.755
74003ION    CL-40786   8.539   4.029  10.696
74004ION    CL-40787   6.769  29.874   1.470
74005ION    CL-40788  12.671  31.901  14.004
74006ION    CL-40789   7.757  13.532   4.608
74007ION    CL-40790  20.770  26.684   3.136
74008ION    CL-40791  40.027   9.028  11.640
74009ION    CL-40792   2.049  32.966   2.561
74010ION    CL-40793  31.615  11.673  11.261
74011ION    CL-40794   5.360  34.002  13.517
74012ION    CL-40795  12.857  31.283  10.969
74013ION    CL-40796  36.949  40.829   4.131
74014ION    CL-40797  29.231   3.548   4.111
74015ION    CL-40798  17.982   1.282  11.306
74016ION    CL-40799  18.811  17.847   2.674
74017ION    CL-40800  19.502  16.362  14.524
74018ION    CL-40801   6.565   7.598   1.660
74019ION    CL-40802  29.839  23.289  11.844
74020ION    CL-40803  35.058  30.937   0.408
74021ION    CL-40804  15.453  39.820  11.275
74022ION    CL-40805  40.591  42.349   1.894
74023ION    CL-40806  21.610  26.951  10.214
74024ION    CL-40807  33.592  37.132   1.454
74025ION    CL-40808  21.702  16.050  12.993
74026ION    CL-40809   5.035  41.157   3.213
74027ION    CL-40810  40.147   5.232  11.127
74028ION    CL-40811  11.267  36.901  13.807
74029ION    CL-40812  34.579  29.069  12.472
74030ION    CL-40813  16.041  18.277   3.251
74031ION    CL-40814  14.042   8.593   3.314
74032ION    CL-40815  34.361  28.028  14.072
74033ION    CL-40816  22.243  38.030  13.931
74034ION    CL-40817   3.079  25.666   3.780
74035ION    CL-40818   8.052   9.669   2.254
74036ION    CL-40819   0.847  43.896   2.581
74037ION    CL-40820   0.110  16.374   4.630
74038ION    CL-40821  36.832  23.055   1.286
74039ION    CL-40822  37.107  24.485   4.059
74040ION    CL-40823  28.134   9.789  12.700
74041ION    CL-40824  36.224  24.459   0.038
74042ION    CL-40825  29.657  40.718  10.987
74043ION    CL-40826   6.936  19.273  14.803
74044ION    CL-40827  42.995   3.050   1.208
74045ION    CL-40828   4.372   4.182  14.157
74046ION    CL-40829  30.799  28.364   4.668
74047ION    CL-40830  33.177   7.771   1.611
74048ION    CL-40831  22.160  41.438  10.372
74049ION    CL-40832  27.340  10.102  12.175
74050ION    CL-40833  25.206  20.467  13.634
74051ION    CL-40834  13.614  43.526   2.750
74052ION    CL-40835  32.561  15.063   0.034
74053ION    CL-40836  26.795  10.978  13.295
74054ION    CL-40837  33.388  22.406   1.186
74055ION    CL-40838   2.600   4.774  12.597
74056ION    CL-40839  29.751  33.393   0.336
74057ION    CL-40840  36.671  21.638   0.606
74058ION    CL-40841  40.300  22.043  13.907
74059ION    CL-40842  20.708  20.786   2.670
74060ION    CL-40843   3.163  22.292   4.980
74061ION    CL-40844  37.275  38.874   2.629
74062ION    CL-40845  10.720  21.531   1.196
74063ION    CL-40846  26.175  34.664   3.926
74064ION    CL-40847   9.778  37.732   4.100
74065ION    CL-40848  13.677  24.981   1.504
74066ION    CL-40849  28.119  33.482   3.091
74067ION    CL-40850  10.242   0.071  13.338
74068ION    CL-40851  11.130  33.018   3.653
74069ION    CL-40852  40.353   2.654   0.983
74070ION    CL-40853  26.445  10.083  13.572
74071ION    CL-40854  11.574   7.710   0.516
74072ION    CL-40855   3.253  13.264  13.793
74073ION    CL-40856  24.406  39.588   4.093
74074ION    CL-40857   4.839  28.436  12.633
74075ION    CL-40858  11.817  38.479  12.862
74076ION    CL-40859  11.155  10.607  13.271
74077ION    CL-40860  21.737  13.765  14.255
74078ION    CL-40861  44.997  32.839  14.396
74079ION    CL-40862   2.484  11.682  12.193
74080ION    CL-40863  20.904  41.006  14.643
74081ION    CL-40864  34.686   1.070   2.887
74082ION    CL-40865  29.823  14.983   2.404
74083ION    CL-40866   6.118  39.128  14.421
74084ION    CL-40867   5.905  37.627   3.193
74085ION    CL-40868  41.523  10.604  13.052
74086ION    CL-40869   1.304   9.949  13.325
74087ION    CL-40870  31.708   4.851   5.307
74088ION    CL-40871  25.944  42.614  10.030
74089ION    CL-40872  13.141  38.620  14.454
74090ION    CL-40873  27.504   6.699  10.582
74091ION    CL-40874  33.330  43.063   3.680
74092ION    CL-40875   0.432   9.088  10.644
74093ION    CL-40876  34.384   9.149   5.222
74094ION    CL-40877  22.713  29.509   9.837
74095ION    CL-40878  15.287  31.374  14.363
74096ION    CL-40879  24.846  26.864  13.026
74097ION    CL-40880  38.968  14.724   5.101
74098ION    CL-40881  16.641  31.655   4.167
74099ION    CL-40882  42.756  32.016   3.246
74100ION    CL-40883  23.183   8.163   3.049
74101ION    CL-40884  31.823  25.176  11.481
74102ION    CL-40885  28.771   3.822  12.150
74103ION    CL-40886  22.785  22.126   0.895
74104ION    CL-40887  34.562  37.355  14.637
74105ION    CL-40888  31.405  24.740  10.420
74106ION    CL-40889  20.918   5.792  12.625
74107ION    CL-40890  43.394  19.041   2.825
74108ION    CL-40891  11.907  25.203   3.151
74109ION    CL-40892  38.540  41.339  14.396
74110ION    CL-40893   7.712  31.165   0.354
74111ION    CL-40894  17.305  32.223   3.682
74112ION    CL-40895  15.274   5.291  14.078
74113ION    CL-40896   2.342   9.356  11.479
74114ION    CL-40897  43.747  36.306  11.947
74115ION    CL-40898  16.718  24.998  12.452
74116ION    CL-40899   4.501  23.720   2.625
74117ION    CL-40900  33.287  13.438  13.704
74118ION    CL-40901  16.248   6.931  13.799
74119ION    CL-40902  38.833  12.371   2.751
74120ION    CL-40903  17.073  37.593   0.462
74121ION    CL-40904  27.190  21.642  14.303
74122ION    CL-40905  30.960  36.280  13.353
74123ION    CL-40906  41.580   8.578   2.789
74124ION    CL-40907  13.741  38.271  11.645
74125ION    CL-40908  28.347  44.562   0.866
74126ION    CL-40909  15.144  20.002  14.202
74127ION    CL-40910   1.792  28.812   1.413
74128ION    CL-40911  27.108   2.366   3.890
74129ION    CL-40912  30.935   6.911  14.340
74130ION    CL-40913  12.635   3.391  12.483
74131ION    CL-40914  42.817  12.518  13.122
74132ION    CL-40915   0.240  43.658   2.064
74133ION    CL-40916  26.583  22.086  13.644
74134ION    CL-40917  21.337  44.755   1.851
74135ION    CL-40918  17.587  34.828   2.669
74136ION    CL-40919   6.776  38.739   2.378
74137ION    CL-40920  29.046  34.074  14.443
74138ION    CL-40921  21.903  12.925   4.747
74139ION    CL-40922   5.620  41.691   3.575
74140ION    CL-40923  41.644  32.449  11.216
74141ION    CL-40924  10.130   6.760   0.661
74142ION    CL-40925  32.072   5.055  14.018
74143ION    CL-40926  12.640  13.566   0.956
74144ION    CL-40927  33.362   4.527  12.384
74145ION    CL-40928  43.715  19.124   4.162
74146ION    CL-40929  25.143  36.383   0.707
74147ION    CL-40930  21.365  14.301   3.860
74148ION    CL-40931  25.776  36.934  12.944
74149ION    CL-40932  13.748  22.773  11.311
74150ION    CL-40933  11.931   9.325  11.633
74151ION    CL-40934  10.539  24.688  10.079
74152ION    CL-40935  39.905  15.697   1.760
74153ION    CL-40936  24.937  41.414   0.948
74154ION    CL-40937  25.634  42.944   1.884
74155ION    CL-40938  38.325  31.371   2.281
74156ION    CL-40939   3.199  33.352   5.163
74157ION    CL-40940   8.252  13.287  13.660
74158ION    CL-40941  40.940  35.820   0.279
74159ION    CL-40942  15.814  25.921   2.986
74160ION    CL-40943  22.079   6.179   0.380
74161ION    CL-40944   5.330  29.408  14.463
74162ION    CL-40945   3.685   1.129  13.606
74163ION    CL-40946  39.326  20.173   0.738
74164ION    CL-40947  20.675  11.886  11.661
74165ION    CL-40948   2.638  24.286   2.149
74166ION    CL-40949  32.578  41.580   2.209
74167ION    CL-40950  27.820  11.290   2.105
74168ION    CL-40951  21.959  26.552  11.142
74169ION    CL-40952   4.256  41.012  14.470
74170ION    CL-40953  11.726  33.043   4.675
74171ION    CL-40954  11.991  22.094  10.879
74172ION    CL-40955  24.619  32.403   0.243
74173ION    CL-40956   2.944   1.004   3.096
74174ION    CL-40957  25.732  44.500   4.027
74175ION    CL-40958  28.367   5.128  14.425
74176ION    CL-40959  28.252  21.729  13.346
74177ION    CL-40960  25.227  26.354   2.601
74178ION    CL-40961  10.124  16.417   1.558
74179ION    CL-40962  30.949  16.069   4.528
74180ION    CL-40963  39.248  30.848  12.167
74181ION    CL-40964  18.283  16.998   2.841
74182ION    CL-40965   7.172  33.215   4.099
74183ION    CL-40966  20.968  41.500   2.080
74184ION    CL-40967   4.008  18.794  13.516
74185ION    CL-40968  24.017  11.674   2.216
74186ION    CL-40969  42.893  12.651   4.973
74187ION    CL-40970  10.949  33.721  12.583
74188ION    CL-40971  23.191   0.463   0.563
74189ION    CL-40972   7.551  25.480  11.597
74190ION    CL-40973  32.486  32.257   2.299
74191ION    CL-40974   1.966   3.089  13.426
74192ION    CL-40975  44.446  36.660  13.002
74193ION    CL-40976   5.713   3.214   2.114
74194ION    CL-40977  26.836  25.526  14.088
74195ION    CL-40978  38.338  32.965   3.330
74196ION    CL-40979  43.093  25.739  14.862
74197ION    CL-40980  44.018  21.365   0.752
74198ION    CL-40981   2.202  20.976  11.196
74199ION    CL-40982  18.267   6.593  14.027
74200ION    CL-40983  15.615   8.977   3.031
74201ION    CL-40984  40.525  27.647  14.908
74202ION    CL-40985  37.311  41.318  14.749
74203ION    CL-40986  42.933  22.733   1.389
74204ION    CL-40987  36.043  26.939   2.259
74205ION    CL-40988  22.861   7.040   2.151
74206ION    CL-40989  24.156  29.173   1.472
74207ION    CL-40990  22.509   8.842   3.678
74208ION    CL-40991  39.032   0.555  13.752
74209ION    CL-40992   4.743  42.383   1.662
74210ION    CL-40993  24.326  33.723  12.298
74211ION    CL-40994  17.931   8.936  12.328
74212ION    CL-40995  14.350  32.742  14.462
74213ION    CL-40996  25.130  32.637   1.830
74214ION    CL-40997  13.481   2.736   0.114
74215ION    CL-40998  14.081  25.781   1.060
74216ION    CL-40999   8.195  35.308   2.703
74217ION    CL-41000  37.147  26.950  11.299
74218ION    CL-41001  18.124  44.748  14.324
74219ION    CL-41002  39.113  39.802   1.281
74220ION    CL-41003  31.589  13.984  14.460
74221ION    CL-41004   2.690  35.425   3.829
74222ION    CL-41005   3.736  10.640  13.564
74223ION    CL-41006  22.942  34.727   1.855
74224ION    CL-41007  11.302   4.448  12.994
74225ION    CL-41008  13.586  13.117  14.358
74226ION    CL-41009   2.554  13.531   0.888
74227ION    CL-41010  33.887   8.275  13.550
74228ION    CL-41011   6.621  20.890  14.089
74229ION    CL-41012   6.660   6.803  13.355
74230ION    CL-41013  30.970   0.212   2.517
74231ION    CL-41014  19.367  23.741  12.560
74232ION    CL-41015  34.557  17.656   0.327
74233ION    CL-41016  17.698   6.111   1.826
74234ION    CL-41017  37.390   8.950  11.103
74235ION    CL-41018  27.222   7.688  12.969
74236ION    CL-41019  20.309  34.132  11.979
74237ION    CL-41020  15.551  25.298  11.635
74238ION    CL-41021   7.631  38.324   4.234
74239ION    CL-41022  10.558  19.489   2.507
74240ION    CL-41023   4.321  24.710   3.746
74241ION    CL-41024   4.431  19.816   3.274
74242ION    CL-41025  29.397  17.203   2.651
74243ION    CL-41026  36.191  15.755   2.038
74244ION    CL-41027  27.897  13.362   5.084
74245ION    CL-41028  11.417  42.446   3.860
74246ION    CL-41029  18.000   0.750  13.916
74247ION    CL-41030  18.669  13.278   4.948
74248ION    CL-41031  33.662  32.811   2.223
74249ION    CL-41032   6.520  14.520   3.823
74250ION    CL-41033   8.693  30.615   4.207
74251ION    CL-41034   4.216  22.555   2.868
74252ION    CL-41035  24.776   7.130  12.447
74253ION    CL-41036  31.292  43.428   2.432
74254ION    CL-41037  28.185  34.105  12.946
74255ION    CL-41038  11.792  37.830   3.578
74256ION    CL-41039  20.030   2.761   0.822
74257ION    CL-41040  37.106  20.208   2.758
74258ION    CL-41041   3.136  32.920  11.562
74259ION    CL-41042  10.110   7.782   0.831
74260ION    CL-41043   6.391  35.966  11.459
74261ION    CL-41044  38.916  35.542  10.751
74262ION    CL-41045  32.918   7.339  12.822
74263ION    CL-41046  37.962  24.120   0.143
74264ION    CL-41047  18.991  23.735   4.150
74265ION    CL-41048  33.274  37.041  12.401
74266ION    CL-41049   3.104  12.020  13.309
74267ION    CL-41050   1.443  42.496   0.721
74268ION    CL-41051  33.898  30.930  11.220
74269ION    CL-41052  14.089   3.478  11.937
74270ION    CL-41053  23.084  20.536  14.338
74271ION    CL-41054   1.000   0.590  13.833
74272ION    CL-41055  10.136  14.654  13.073
74273ION    CL-41056  35.667  43.893   2.458
74274ION    CL-41057   0.180  36.102   4.101
74275ION    CL-41058  42.412  12.039  11.510
74276ION    CL-41059   0.441  19.007  14.106
74277ION    CL-41060  31.434  33.488   4.096
74278ION    CL-41061  30.568  20.768  13.060
74279ION    CL-41062  41.646  22.381   5.031
74280ION    CL-41063  33.363  21.223  10.594
74281ION    CL-41064   6.103  30.806  11.420
74282ION    CL-41065  30.014  23.779   1.443
74283ION    CL-41066  34.624  14.223   0.309
74284ION    CL-41067  12.043   3.720  13.017
74285ION    CL-41068  31.635  18.362   2.656
74286ION    CL-41069   1.409   5.084   1.914
74287ION    CL-41070   7.393  35.932   3.711
74288ION    CL-41071   8.401  41.960   2.804
74289ION    CL-41072  41.299   9.102  14.342
74290ION    CL-41073  28.375  43.802  11.039
74291ION    CL-41074   2.379  38.695  11.131
74292ION    CL-41075  31.270   1.975  10.069
74293ION    CL-41076  11.248   0.766   5.053
74294ION    CL-41077  18.160  39.529  11.384
74295ION    CL-41078   3.592   5.661  14.810
74296ION    CL-41079  44.524   8.843   1.186
74297ION    CL-41080  41.675  26.372   1.522
74298ION    CL-41081  11.870  21.195   3.721
74299ION    CL-41082  41.887   2.514  14.876
74300ION    CL-41083   0.734  28.957  13.580
74301ION    CL-41084  33.153  13.869   1.955
74302ION    CL-41085  18.314  16.816  11.877
74303ION    CL-41086  35.352  24.227  12.615
74304ION    CL-41087  39.439  35.830  12.419
74305ION    CL-41088   1.344  26.234   0.084
74306ION    CL-41089   3.409   0.186  10.631
74307ION    CL-41090  24.897  22.520  10.589
74308ION    CL-41091  26.888  34.512   3.371
74309ION    CL-41092  27.980   1.008   0.869
74310ION    CL-41093   4.908  23.475   0.561
74311ION    CL-41094   5.005  38.505  14.252
74312ION    CL-41095  44.875  22.323   3.888
74313ION    CL-41096  16.092  14.093  13.776
74314ION    CL-41097  31.940   4.112  12.249
74315ION    CL-41098   2.542   2.041   3.304
74316ION    CL-41099   4.458  36.147  13.701
74317ION    CL-41100   4.424  40.884  12.585
74318ION    CL-41101   4.845  34.642  11.074
74319ION    CL-41102  24.448  32.354  13.435
74320ION    CL-41103   7.318  26.025   0.738
74321ION    CL-41104  12.820   1.595  13.552
74322ION    CL-41105   8.418  30.958   3.295
74323ION    CL-41106  23.953   7.687  14.988
74324ION    CL-41107  34.063  21.502   1.313
74325ION    CL-41108  44.652  30.052   1.049
74326ION    CL-41109  16.544  30.945  12.761
74327ION    CL-41110  38.565  18.584   3.028
74328ION    CL-41111  28.221  43.301  14.005
74329ION    CL-41112  40.996  17.781  11.557
74330ION    CL-41113  44.931  14.117  14.440
74331ION    CL-41114  22.023  23.585   4.110
74332ION    CL-41115   4.905  28.733   1.642
74333ION    CL-41116  35.116  38.009  11.725
74334ION    CL-41117  31.753  12.544   3.157
74335ION    CL-41118  15.302  10.294   4.709
74336ION    CL-41119  28.408  20.859   1.393
74337ION    CL-41120  43.111   8.510   3.379
74338ION    CL-41121  26.221  17.609   2.692
74339ION    CL-41122  24.699  39.573  11.956
74340ION    CL-41123  18.382  40.537  13.889
74341ION    CL-41124  38.713  11.771   4.905
74342ION    CL-41125  18.522   9.343   0.985
74343ION    CL-41126  31.442   3.015   3.962
74344ION    CL-41127  21.461  20.901   2.194
74345ION    CL-41128  38.101  31.661   1.350
74346ION    CL-41129  25.717  15.061  11.241
74347ION    CL-41130   7.343   3.182  12.584
74348ION    CL-41131  37.849  10.358   0.314
74349ION    CL-41132  15.747  15.676   2.171
74350ION    CL-41133   6.567  42.088   0.044
74351ION    CL-41134  36.591   2.573  12.299
74352ION    CL-41135  36.877   1.614  13.367
74353ION    CL-41136   6.696  10.340   1.880
74354ION    CL-41137  19.161  18.419   9.770
74355ION    CL-41138  19.561  13.808   3.223
74356ION    CL-41139  19.784  25.507  11.991
74357ION    CL-41140  19.503  42.391   3.421
74358ION    CL-41141  30.479   3.719  10.348
74359ION    CL-41142  34.671   9.775   4.799
74360ION    CL-41143  37.096  22.677  12.835
74361ION    CL-41144   6.610  41.385  11.285
74362ION    CL-41145   0.035  20.335  11.868
74363ION    CL-41146   7.624  25.763   2.179
74364ION    CL-41147  13.846  31.389   2.885
74365ION    CL-41148   4.636  30.401   2.307
74366ION    CL-41149   9.865  36.499   2.760
74367ION    CL-41150  10.608   7.499  12.931
74368ION    CL-41151  21.816   9.414  12.050
74369ION    CL-41152  10.083  19.766  12.844
74370ION    CL-41153  41.989  16.160   1.237
74371ION    CL-41154  30.321  22.507   1.548
74372ION    CL-41155   3.150  14.240  14.131
74373ION    CL-41156  37.364  25.642  11.164
74374ION    CL-41157   2.940  36.149  11.918
74375ION    CL-41158  35.843  29.756  11.496
74376ION    CL-41159  27.438  43.403   0.539
74377ION    CL-41160  32.915  13.667   0.357
74378ION    CL-41161  17.413  33.272  14.189
74379ION    CL-41162  10.377  28.697  12.834
74380ION    CL-41163  12.096  12.754   1.858
74381ION    CL-41164   2.764  26.911   0.757
74382ION    CL-41165  37.412  44.359   0.876
74383ION    CL-41166  28.425  20.090  12.302
74384ION    CL-41167  42.622  14.877   1.357
74385ION    CL-41168  16.002  22.184   0.454
74386ION    CL-41169  11.002  37.319  11.259
74387ION    CL-41170  28.451   9.166  11.984
74388ION    CL-41171   1.596  42.798   1.706
74389ION    CL-41172  33.401  13.324  12.816
74390ION    CL-41173  19.051   9.834   3.522
74391ION    CL-41174  33.341  23.593   2.305
74392ION    CL-41175  34.372  32.067  11.657
74393ION    CL-41176  22.922  11.337   1.214
74394ION    CL-41177   9.335  22.152  11.065
74395ION    CL-41178   4.951  11.452  11.854
74396ION    CL-41179  13.316  19.314   2.812
74397ION    CL-41180  10.091  16.857  12.846
74398ION    CL-41181   7.808  44.165   2.268
74399ION    CL-41182  43.337   5.084   3.646
74400ION    CL-41183  37.907  32.494  13.849
74401ION    CL-41184  30.999  37.548   3.630
74402ION    CL-41185  18.087  44.786   1.297
74403ION    CL-41186  11.394  27.327  11.217
74404ION    CL-41187   5.975  39.870  11.437
74405ION    CL-41188  12.649  11.229   3.616
74406ION    CL-41189  29.177   9.857   1.798
74407ION    CL-41190  10.799  14.654  14.469
74408ION    CL-41191  41.789   2.934   2.681
74409ION    CL-41192  42.426  34.777  10.230
74410ION    CL-41193  24.420  29.883  12.623
74411ION    CL-41194  29.455  10.198   4.364
74412ION    CL-41195  41.661  44.480  13.040
74413ION    CL-41196  10.363  31.854  11.597
74414ION    CL-41197  11.084  18.044   4.189
74415ION    CL-41198  26.356  30.235   3.440
74416ION    CL-41199   0.971  26.889   5.035
74417ION    CL-41200  10.254   1.078   1.829
74418ION    CL-41201   6.318  39.986   0.847
74419ION    CL-41202  40.543  22.474  13.038
74420ION    CL-41203  24.399  14.098   0.941
74421ION    CL-41204  17.759  25.276  10.296
74422ION    CL-41205  35.882   7.042  13.004
74423ION    CL-41206  36.972   5.789  10.438
74424ION    CL-41207  35.321  25.140   0.923
74425ION    CL-41208  31.024  36.570   0.428
74426ION    CL-41209  43.083  21.074   0.492
74427ION    CL-41210  18.643  43.750  11.440
74428ION    CL-41211  43.891  30.877   3.267
74429ION    CL-41212  10.915  23.984   5.041
74430ION    CL-41213   4.441  27.853   4.076
74431ION    CL-41214  10.749  34.540   1.721
74432ION    CL-41215  38.040  41.466  13.402
74433ION    CL-41216  36.832  35.719   2.246
74434ION    CL-41217  38.454  20.280   1.267
74435ION    CL-41218  14.329  13.103  13.667
74436ION    CL-41219   0.523   7.488  10.964
74437ION    CL-41220   8.159   9.806  14.718
74438ION    CL-41221  38.431   0.365  12.815
74439ION    CL-41222   1.190  14.814  13.548
74440ION    CL-41223  14.476  36.600   3.588
74441ION    CL-41224   2.903  32.138  12.772
74442ION    CL-41225   1.345  34.005   3.359
74443ION    CL-41226  41.451  14.060  14.289
74444ION    CL-41227   1.897   5.020  13.265
74445ION    CL-41228  10.432  19.183   4.682
74446ION    CL-41229  14.437   5.430  11.666
74447ION    CL-41230   5.926  16.616   4.785
74448ION    CL-41231  10.632  31.104   1.867
74449ION    CL-41232   7.243  10.432   3.650
74450ION    CL-41233  30.934  27.256   1.780
74451ION    CL-41234  22.862  29.518  13.717
74452ION    CL-41235  30.590  16.900  11.852
74453ION    CL-41236   7.122  38.341   1.730
74454ION    CL-41237  16.421   3.413   0.328
74455ION    CL-41238   1.642   4.629  12.348
74456ION    CL-41239  28.871  44.713   1.935
74457ION    CL-41240  44.280  43.499  13.057
74458ION    CL-41241  18.732  23.406  11.350
74459ION    CL-41242  32.970  18.784   2.754
74460ION    CL-41243  13.603   8.383   4.608
74461ION    CL-41244   1.051   2.019   1.379
74462ION    CL-41245  13.085   6.854   0.862
74463ION    CL-41246  42.050  18.638   1.385
74464ION    CL-41247  32.684  38.569  11.909
74465ION    CL-41248  14.811  43.505  14.845
74466ION    CL-41249  20.142  42.922   2.734
74467ION    CL-41250  13.508  32.319   2.742
74468ION    CL-41251  22.829  44.057   4.647
74469ION    CL-41252  15.816  32.490  11.481
74470ION    CL-41253  24.505  31.426   3.088
74471ION    CL-41254  39.318   1.258   4.944
74472ION    CL-41255  40.938  37.711  14.251
74473ION    CL-41256  18.779  12.905  11.064
74474ION    CL-41257  23.648  36.633   0.317
74475ION    CL-41258   0.984  20.160  12.128
74476ION    CL-41259   5.727  20.781  13.656
74477ION    CL-41260  37.787   3.339   4.084
74478ION    CL-41261   3.654   5.063   4.015
74479ION    CL-41262   6.691  21.672   0.321
74480ION    CL-41263  38.256  36.782   0.231
74481ION    CL-41264  16.657  32.427  13.822
74482ION    CL-41265  44.182  31.820   3.430
74483ION    CL-41266  20.940  28.263   4.952
74484ION    CL-41267  43.419  41.319   3.884
74485ION    CL-41268  22.188  44.022  11.077
74486ION    CL-41269  14.300  17.804   1.378
74487ION    CL-41270  33.410   0.712  11.612
74488ION    CL-41271  14.190   6.248   2.139
74489ION    CL-41272   0.274  34.417   0.361
74490ION    CL-41273  31.180  24.151  14.949
74491ION    CL-41274  26.230  38.533   3.764
74492ION    CL-41275  30.419   9.168  13.548
74493ION    CL-41276  29.231  26.826   3.088
74494ION    CL-41277   2.483  32.105  11.696
74495ION    CL-41278  24.994  16.446   4.189
74496ION    CL-41279  16.425  34.969  14.680
74497ION    CL-41280  37.862  27.211  14.798
74498ION    CL-41281  12.283  27.562   4.919
74499ION    CL-41282  11.500  44.448   3.714
74500ION    CL-41283  33.974  43.524  13.626
74501ION    CL-41284   4.680   4.413   4.023
74502ION    CL-41285  21.201   0.447   4.194
74503ION    CL-41286   8.105  40.118  11.605
74504ION    CL-41287   2.687  21.065   3.325
74505ION    CL-41288  34.636   8.173   1.776
74506ION    CL-41289   5.663  40.066   3.491
74507ION    CL-41290  25.977  16.177  14.512
74508ION    CL-41291  34.553  15.802   0.974
74509ION    CL-41292   7.483  26.816  12.337
74510ION    CL-41293   7.766   8.033   2.472
74511ION    CL-41294  12.969  29.327  12.411
74512ION    CL-41295  17.113  35.417   3.782
74513ION    CL-41296  11.843  42.724   1.917
74514ION    CL-41297   9.979   1.345  14.531
74515ION    CL-41298  31.200  35.183   4.612
74516ION    CL-41299  18.863  32.730  12.849
74517ION    CL-41300  10.670  40.662  13.441
74518ION    CL-41301  42.457  44.077   2.449
74519ION    CL-41302  37.768  42.690   1.254
74520ION    CL-41303  29.919  17.435   1.123
74521ION    CL-41304  21.771  17.067   2.597
74522ION    CL-41305   0.190  37.555   4.071
74523ION    CL-41306  35.049  23.478  13.768
74524ION    CL-41307   3.698  23.284   2.170
74525ION    CL-41308  10.253  24.664   1.200
74526ION    CL-41309  10.082  37.361   3.218
74527ION    CL-41310  42.815  25.068   1.143
74528ION    CL-41311  23.670  34.635   3.351
74529ION    CL-41312  39.351  37.338  12.546
74530ION    CL-41313  22.159  32.768  13.550
74531ION    CL-41314  38.219  38.957   4.740
74532ION    CL-41315  38.537  24.998   4.864
74533ION    CL-41316  26.145  20.995  11.932
74534ION    CL-41317  38.046  12.228  14.806
74535ION    CL-41318  13.144  37.337   0.465
74536ION    CL-41319  16.845  20.236  13.993
74537ION    CL-41320  24.769  44.874   5.235
74538ION    CL-41321  35.743  35.470   0.345
74539ION    CL-41322  29.824  15.813  12.988
74540ION    CL-41323  37.118  40.603  14.222
74541ION    CL-41324  42.205  32.167   2.331
74542ION    CL-41325   4.086  28.607   4.630
74543ION    CL-41326   4.226   2.856   3.251
74544ION    CL-41327  22.071  21.498   4.247
74545ION    CL-41328  27.498  22.521   0.834
74546ION    CL-41329   2.264  26.007   0.919
74547ION    CL-41330  19.573  22.641   1.011
74548ION    CL-41331  31.908  21.797   1.337
74549ION    CL-41332   3.851  23.857   5.177
74550ION    CL-41333   7.663   9.027   2.515
74551ION    CL-41334  13.796  30.432  14.287
74552ION    CL-41335  42.363  17.587  14.268
74553ION    CL-41336  42.424   5.319   4.127
74554ION    CL-41337  13.615  35.386  13.353
74555ION    CL-41338  24.098  39.561  10.210
74556ION    CL-41339  17.250  36.840  13.616
74557ION    CL-41340   9.868  20.318  13.879
74558ION    CL-41341  40.508  11.239   3.621
74559ION    CL-41342  30.351  43.380   2.096
74560ION    CL-41343  28.706  12.745   4.097
74561ION    CL-41344  25.546  33.599   4.674
74562ION    CL-41345   8.742  14.264  14.028
74563ION    CL-41346   8.017   6.174   4.178
74564ION    CL-41347  24.003   5.033   1.113
74565ION    CL-41348   6.753  26.640   3.258
74566ION    CL-41349   2.899  31.613  13.622
74567ION    CL-41350   9.324  35.938  11.172
74568ION    CL-41351  33.006  12.347  10.610
74569ION    CL-41352  25.871  25.928   3.057
74570ION    CL-41353  15.848  42.565  11.602
74571ION    CL-41354  11.677  33.944  13.542
74572ION    CL-41355   7.118  42.260  13.030
74573ION    CL-41356  33.918  32.184  10.774
74574ION    CL-41357  43.973  17.742  10.788
74575ION    CL-41358  20.421  35.268  11.466
74576ION    CL-41359  31.134  26.847  11.917
74577ION    CL-41360  22.162  13.234  14.848
74578ION    CL-41361  38.607   4.786   3.144
74579ION    CL-41362  32.483  24.262  13.565
74580ION    CL-41363  33.979   0.836  12.951
74581ION    CL-41364   3.917  31.555  14.757
74582ION    CL-41365   5.676  11.175   2.389
74583ION    CL-41366  11.475   3.731   0.055
74584ION    CL-41367   3.578  33.723  11.579
74585ION    CL-41368  11.560  34.814  14.302
74586ION    CL-41369  14.616  37.702   3.745
74587ION    CL-41370  29.626  42.752   2.379
74588ION    CL-41371   1.758  28.272   4.993
74589ION    CL-41372  36.743  30.287   1.230
74590ION    CL-41373   9.182  31.063   0.823
74591ION    CL-41374  14.734  44.980   4.117
74592ION    CL-41375  13.294   6.501   1.774
74593ION    CL-41376  10.249  19.326   5.311
74594ION    CL-41377  14.134   5.282  10.174
74595ION    CL-41378  42.562   6.967  14.357
74596ION    CL-41379  16.875  16.885  13.870
74597ION    CL-41380  35.322  22.012  13.988
74598ION    CL-41381   0.569   1.942  14.347
74599ION    CL-41382  34.566  44.319   3.079
74600ION    CL-41383  23.050  11.067  13.263
74601ION    CL-41384  32.044  27.608  14.059
74602ION    CL-41385  26.856  29.618   3.783
74603ION    CL-41386  34.493   2.704  12.025
74604ION    CL-41387  40.108   8.699   9.600
74605ION    CL-41388  37.714  25.379   4.961
74606ION    CL-41389  39.547  29.037  12.617
74607ION    CL-41390   2.419   0.801  11.905
74608ION    CL-41391  36.863  14.122  10.664
74609ION    CL-41392  42.527  26.484  11.504
74610ION    CL-41393  39.844  16.175  13.912
74611ION    CL-41394  33.584  13.273   3.235
74612ION    CL-41395  22.496  35.364   1.225
74613ION    CL-41396  29.072  24.374   3.239
74614ION    CL-41397  40.583  37.972   3.277
74615ION    CL-41398  15.571   4.717  14.841
74616ION    CL-41399  21.045  11.635  14.737
74617ION    CL-41400  25.782   2.253  10.990
74618ION    CL-41401  37.045  18.207  12.635
74619ION    CL-41402  23.998   8.805  14.779
74620ION    CL-41403   6.070  42.683  13.409
74621ION    CL-41404   0.120  43.565   1.170
74622ION    CL-41405  20.980   2.826   0.514
74623ION    CL-41406  40.962  24.603   2.052
74624ION    CL-41407  20.818  37.455  14.594
74625ION    CL-41408  30.652  31.726  11.268
74626ION    CL-41409   6.236  34.658   3.343
74627ION    CL-41410  40.300   8.091  13.457
74628ION    CL-41411   7.218  17.819   4.905
74629ION    CL-41412  18.336  24.056   0.623
74630ION    CL-41413  38.319  44.505   2.103
74631ION    CL-41414  19.668  11.978   4.616
74632ION    CL-41415  16.927  24.088   4.242
74633ION    CL-41416  31.700   6.531  14.597
74634ION    CL-41417  28.523  18.492  12.248
74635ION    CL-41418   7.240   6.364   3.083
74636ION    CL-41419  10.530   3.043  11.979
74637ION    CL-41420  28.234   6.848  11.266
74638ION    CL-41421  41.313   3.923   3.207
74639ION    CL-41422  14.724  35.388  10.321
74640ION    CL-41423  15.781  38.945  12.961
74641ION    CL-41424  16.706  26.877   0.918
74642ION    CL-41425  36.894  25.575   2.586
74643ION    CL-41426  22.693  36.684  10.850
74644ION    CL-41427   8.516  13.096   2.777
74645ION    CL-41428  23.666   5.195   4.549
74646ION    CL-41429  33.145   0.494  13.099
74647ION    CL-41430  18.209  30.476   4.181
74648ION    CL-41431   7.761  12.672   2.277
74649ION    CL-41432   0.951  18.687   1.383
74650ION    CL-41433  11.632  43.177   3.212
74651ION    CL-41434  34.931  21.061   5.461
74652ION    CL-41435  10.799  10.694   4.592
74653ION    CL-41436  17.239   2.859  10.355
74654ION    CL-41437   6.740  20.163   3.690
74655ION    CL-41438  15.572  22.612  13.619
74656ION    CL-41439  17.413  20.663   2.284
74657ION    CL-41440   5.222   7.179  11.137
74658ION    CL-41441  29.894  37.472   4.144
74659ION    CL-41442   0.665   8.901  14.922
74660ION    CL-41443  40.382   9.719  12.922
74661ION    CL-41444  30.745  10.151   2.120
74662ION    CL-41445   5.294  23.769  13.518
74663ION    CL-41446  33.179  34.367   2.908
74664ION    CL-41447  43.350   5.920   2.303
74665ION    CL-41448  19.104  32.909  13.887
74666ION    CL-41449  13.421   2.709   1.730
74667ION    CL-41450  28.445  11.499   2.857
74668ION    CL-41451  37.789  39.626   3.161
74669ION    CL-41452  20.996  10.290   3.317
74670ION    CL-41453   5.145   3.874  14.711
74671ION    CL-41454   5.143  26.019   0.431
74672ION    CL-41455  37.831   7.872   2.757
74673ION    CL-41456  17.051   8.934   9.857
74674ION    CL-41457   9.602  22.654   1.366
74675ION    CL-41458  29.594   3.840  10.798
74676ION    CL-41459  23.192   1.808   0.711
74677ION    CL-41460  42.407  41.878   0.964
74678ION    CL-41461  18.931  28.621  13.403
74679ION    CL-41462   5.373   3.810   1.506
74680ION    CL-41463  31.561  42.874   3.370
74681ION    CL-41464  15.766  13.306   4.180
74682ION    CL-41465  27.530  15.140   4.960
74683ION    CL-41466  14.937  13.109  14.955
74684ION    CL-41467  14.404   2.757  12.555
74685ION    CL-41468   5.253  10.385   1.492
74686ION    CL-41469   5.239  44.075  12.494
74687ION    CL-41470  38.413  11.068   2.248
74688ION    CL-41471   3.784   0.231  11.607
74689ION    CL-41472  11.993  43.458  11.114
74690ION    CL-41473   3.965  34.473   2.141
74691ION    CL-41474  37.669   9.769  10.596
74692ION    CL-41475  13.756  33.007  12.894
74693ION    CL-41476  25.474   4.644  12.822
74694ION    CL-41477  31.174   6.739  12.998
74695ION    CL-41478  21.752   6.034  12.407
74696ION    CL-41479  30.218   1.119  11.516
74697ION    CL-41480  16.126  35.420   0.521
74698ION    CL-41481  17.730   2.708   0.462
74699ION    CL-41482  18.104  35.484   0.412
74700ION    CL-41483  24.382  18.662  10.468
74701ION    CL-41484  31.150   4.822  11.208
74702ION    CL-41485  16.209  17.767   0.904
74703ION    CL-41486  37.920   6.282   4.124
74704ION    CL-41487  24.385   0.464   3.550
74705ION    CL-41488  11.213  31.064  11.972
74706ION    CL-41489  19.287   0.220   2.480
74707ION    CL-41490  36.048   0.515  13.914
74708ION    CL-41491  37.549  35.547  13.752
74709ION    CL-41492   5.135  41.400  11.151
74710ION    CL-41493  32.803  37.712   1.253
74711ION    CL-41494  18.242  41.520   1.994
74712ION    CL-41495  12.475  42.010  12.489
74713ION    CL-41496  35.212  34.112  12.924
74714ION    CL-41497   8.422  35.728  13.907
74715ION    CL-41498  15.297   7.760  12.114
74716ION    CL-41499   2.996   9.292  12.848
74717ION    CL-41500  18.973   5.696  12.959
74718ION    CL-41501  12.864   8.489  14.555
74719ION    CL-41502  32.628  24.566  11.572
74720ION    CL-41503  29.113   6.400   2.271
74721ION    CL-41504   3.625   2.329   4.930
74722ION    CL-41505   1.140  38.351   4.639
74723ION    CL-41506   0.340  38.067  11.622
74724ION    CL-41507  32.362  13.599  12.548
74725ION    CL-41508  21.545  17.080   3.571
74726ION    CL-41509  11.504   2.605   2.495
74727ION    CL-41510  16.574   4.456  13.321
74728ION    CL-41511  37.879  37.281  10.651
74729ION    CL-41512  35.450  23.702   3.999
74730ION    CL-41513  18.598  23.512  12.227
74731ION    CL-41514  39.841  36.047  10.437
74732ION    CL-41515   7.490  42.956  12.416
74733ION    CL-41516  11.116  38.198  11.106
74734ION    CL-41517  26.929  18.557  14.659
74735ION    CL-41518   3.858  36.533   3.446
74736ION    CL-41519  16.564  21.161   4.398
74737ION    CL-41520   5.009  33.093   1.471
74738ION    CL-41521  27.227   2.888  10.731
74739ION    CL-41522  22.822   6.902   0.162
74740ION    CL-41523  17.160  39.284  12.526
74741ION    CL-41524  27.700   8.903   2.537
74742ION    CL-41525   9.660   4.957  13.518
74743ION    CL-41526  37.962  17.887   2.009
74744ION    CL-41527  33.443  28.374   1.194
74745ION    CL-41528  27.138   9.609   2.673
74746ION    CL-41529  30.290  11.137   2.741
74747ION    CL-41530  19.802  26.997   1.802
74748ION    CL-41531  31.041  28.407  14.724
74749ION    CL-41532   3.528  18.816  12.078
74750ION    CL-41533  13.448  17.685   3.926
74751ION    CL-41534  41.114   8.342  14.786
74752ION    CL-41535  41.405  44.505  11.863
74753ION    CL-41536  13.110  19.161  12.842
74754ION    CL-41537  28.263  10.365  11.892
74755ION    CL-41538  28.411  38.785  12.197
74756ION    CL-41539  41.932  14.673  13.235
74757ION    CL-41540  32.710  27.797   9.799
74758ION    CL-41541   7.633  44.979   3.434
74759ION    CL-41542  19.520   0.986   1.283
74760ION    CL-41543  44.070  10.926   2.414
74761ION    CL-41544   7.885  26.695   1.809
74762ION    CL-41545  19.627  20.118   3.691
74763ION    CL-41546   4.215  44.294   1.660
74764ION    CL-41547  31.380  19.489  10.921
74765ION    CL-41548  37.924   3.626  14.345
74766ION    CL-41549  26.181  21.044   1.369
74767ION    CL-41550  26.851  19.034   0.694
74768ION    CL-41551  43.940   0.515   0.684
74769ION    CL-41552  22.152   8.410  13.976
74770ION    CL-41553  19.298   7.743   1.844
74771ION    CL-41554  34.301  36.107  13.966
74772ION    CL-41555  20.093  40.318  14.831
74773ION    CL-41556   8.289  26.469  12.816
74774ION    CL-41557  36.872  19.523   4.979
74775ION    CL-41558  27.896   6.081   1.429
74776ION    CL-41559  20.403  19.348   2.623
74777ION    CL-41560  10.579   4.982  13.063
74778ION    CL-41561  19.131  36.473   4.858
74779ION    CL-41562  22.566   7.842   1.205
74780ION    CL-41563  42.116  43.064  13.828
74781ION    CL-41564  39.592  26.021  14.833
74782ION    CL-41565   1.131  35.676  12.974
74783ION    CL-41566   8.000  28.149   0.087
74784ION    CL-41567   5.893  30.300   1.698
74785ION    CL-41568  32.175  33.458  11.856
74786ION    CL-41569  28.488  28.134   3.096
74787ION    CL-41570  29.792  21.334  12.641
74788ION    CL-41571   6.190   1.315   5.139
74789ION    CL-41572   3.578   4.048  13.533
74790ION    CL-41573  21.435  17.305  11.728
74791ION    CL-41574  16.270  41.765   1.364
74792ION    CL-41575  36.985  11.103   2.450
74793ION    CL-41576  33.034  15.595   4.502
74794ION    CL-41577  19.531  28.959   0.015
74795ION    CL-41578   4.506   5.177  11.402
74796ION    CL-41579   7.919  33.537  14.667
74797ION    CL-41580   5.417  41.860  13.416
74798ION    CL-41581  41.655   1.459  11.152
74799ION    CL-41582  13.421  16.328  12.491
74800ION    CL-41583  28.086   1.099  13.411
74801ION    CL-41584  26.931  12.372   1.432
74802ION    CL-41585  44.490  17.364   3.274
74803ION    CL-41586  21.748   9.279   2.708
74804ION    CL-41587  39.507  29.317   4.631
74805ION    CL-41588  27.948  21.389  10.614
74806ION    CL-41589  42.072  20.184   0.787
74807ION    CL-41590  21.079   4.928   3.328
74808ION    CL-41591  16.598  37.685  14.587
74809ION    CL-41592  36.208  11.052  13.063
74810ION    CL-41593  43.608  38.498  10.309
74811ION    CL-41594  40.893  34.844   0.492
74812ION    CL-41595  23.757  21.698   2.857
74813ION    CL-41596  21.220   9.805  14.996
74814ION    CL-41597  33.894  43.065   4.564
74815ION    CL-41598  20.357   9.076  10.927
74816ION    CL-41599  12.241  41.282   5.014
74817ION    CL-41600  23.129   5.785  13.687
74818ION    CL-41601  14.881   3.607  10.885
74819ION    CL-41602  19.960  29.092   1.806
74820ION    CL-41603  12.394  13.998  13.683
74821ION    CL-41604   8.393  31.984  13.967
74822ION    CL-41605  28.895   9.584  14.692
74823ION    CL-41606  44.588  26.834  12.132
74824ION    CL-41607  23.601  28.580   0.106
74825ION    CL-41608  13.841  19.637   0.486
74826ION    CL-41609   9.924   1.117  12.305
74827ION    CL-41610   7.269   6.664  11.674
74828ION    CL-41611  12.780  20.669   0.686
74829ION    CL-41612  42.268  41.205   0.055
74830ION    CL-41613  44.968  40.587   3.643
74831ION    CL-41614  22.980  36.003   2.865
74832ION    CL-41615  28.356  16.321  11.158
74833ION    CL-41616  44.676  29.032   3.938
74834ION    CL-41617  15.922  41.270  11.436
74835ION    CL-41618  36.038  21.605  12.373
74836ION    CL-41619  28.992  44.264   3.253
74837ION    CL-41620   0.262  44.763   3.853
74838ION    CL-41621  17.648  30.167  12.559
74839ION    CL-41622  36.162  44.239  13.157
74840ION    CL-41623  24.050  14.495  12.001
74841ION    CL-41624  36.292  35.624  14.126
74842ION    CL-41625   9.469  29.677   1.531
74843ION    CL-41626  25.488  31.423   2.905
74844ION    CL-41627  19.540  31.591  14.374
74845ION    CL-41628  35.760  26.684   3.756
74846ION    CL-41629  38.451  30.317  14.512
74847ION    CL-41630  40.249  17.627  10.621
74848ION    CL-41631   5.338  16.379   0.943
74849ION    CL-41632  26.880  24.537  14.228
74850ION    CL-41633  44.229  31.968   2.163
74851ION    CL-41634  13.271  18.276   0.696
74852ION    CL-41635  28.703  24.272  12.501
74853ION    CL-41636  24.947   9.322  13.812
74854ION    CL-41637  27.907  18.630  13.037
74855ION    CL-41638  43.990  43.311   0.398
74856ION    CL-41639  41.498  19.512   1.413
74857ION    CL-41640   6.631  14.700  13.770
74858ION    CL-41641   1.264   0.518   1.652
74859ION    CL-41642  14.131  37.157  10.668
74860ION    CL-41643  32.784  40.498   1.092
74861ION    CL-41644  40.241  31.016  14.716
74862ION    CL-41645   2.767   9.803  13.960
74863ION    CL-41646  44.404  33.623  14.573
74864ION    CL-41647  33.430  26.787   0.413
74865ION    CL-41648   3.080  16.973   3.423
74866ION    CL-41649  16.272   7.922   3.859
74867ION    CL-41650  35.875  26.212  14.982
74868ION    CL-41651   1.912   3.041  12.335
74869ION    CL-41652  42.468  31.392   0.467
74870ION    CL-41653  41.960  31.103  12.845
74871ION    CL-41654   6.308  23.969   3.876
74872ION    CL-41655   8.889  19.637  10.656
74873ION    CL-41656  13.973  20.522   4.927
74874ION    CL-41657  31.488  43.486  10.717
74875ION    CL-41658   1.484  14.214   4.986
74876ION    CL-41659   8.236  30.545   0.756
74877ION    CL-41660  39.357  43.887   2.749
74878ION    CL-41661  17.758  14.044   0.228
74879ION    CL-41662  37.784   6.668   4.887
74880ION    CL-41663  17.736  19.531   4.061
74881ION    CL-41664  37.935   5.067  14.610
74882ION    CL-41665  27.132   9.724   0.185
74883ION    CL-41666  35.339   3.005   4.193
  45.00000  45.00000  15.00000
